
     Program PWSCF v.5.0.2 (svn rev. 9656) starts on 28Apr2014 at  1:56: 8 

     This program is part of the open-source Quantum ESPRESSO suite
     for quantum simulation of materials; please cite
         "P. Giannozzi et al., J. Phys.:Condens. Matter 21 395502 (2009);
          URL http://www.quantum-espresso.org", 
     in publications or presentations arising from this work. More details at
     http://www.quantum-espresso.org/quote.php

     Parallel version (MPI), running on    16 processors
     K-points division:     npool     =       4
     R & G space division:  proc/nbgrp/npool/nimage =       4

     Current dimensions of program PWSCF are:
     Max number of different atomic species (ntypx) = 10
     Max number of k-points (npk) =  40000
     Max angular momentum in pseudopotentials (lmaxx) =  3
     Reading input from pwscf.in
Warning: card &CELL ignored
Warning: card / ignored

     Subspace diagonalization in iterative solution of the eigenvalue problem:
     a serial algorithm will be used


     Parallelization info
     --------------------
     sticks:   dense  smooth     PW     G-vecs:    dense   smooth      PW
     Min        1419     456    126               336167    60843    9016
     Max        1420     457    127               336172    60875    9024
     Sum        5677    1827    505              1344679   243423   36075



     bravais-lattice index     =            0
     lattice parameter (alat)  =      11.7919  a.u.
     unit-cell volume          =    7123.6633 (a.u.)^3
     number of atoms/cell      =           32
     number of atomic types    =            3
     number of electrons       =       247.00
     number of Kohn-Sham states=          358
     kinetic-energy cutoff     =      40.0000  Ry
     charge density cutoff     =     500.0000  Ry
     convergence threshold     =      1.0E-06
     mixing beta               =       0.7000
     number of iterations used =            8  plain     mixing
     Exchange-correlation      = SLA  PW   PBE  PBE ( 1 4 3 4 0)
     EXX-fraction              =        0.00
     nstep                     =           50


     celldm(1)=  11.791891  celldm(2)=   0.000000  celldm(3)=   0.000000
     celldm(4)=   0.000000  celldm(5)=   0.000000  celldm(6)=   0.000000

     crystal axes: (cart. coord. in units of alat)
               a(1) = (   1.000000   0.000000   0.000000 )  
               a(2) = (   0.000000   1.026665   0.000000 )  
               a(3) = (   0.000000   0.000000   4.231793 )  

     reciprocal axes: (cart. coord. in units 2 pi/alat)
               b(1) = (  1.000000  0.000000  0.000000 )  
               b(2) = (  0.000000  0.974028  0.000000 )  
               b(3) = (  0.000000  0.000000  0.236306 )  


     PseudoPot. # 1 for O  read from file:
     /home/camp/zhonxu/pseudo/o_pbe_v1.01.uspp.F.UPF
     MD5 check sum: 2bcb18d16ea4b960afae9ec6d52f22d2
     Pseudo is Ultrasoft + core correction, Zval =  6.0
     Generated by new atomic code, or converted to UPF format
     Using radial grid of  737 points,  5 beta functions with: 
                l(1) =   0
                l(2) =   0
                l(3) =   1
                l(4) =   1
                l(5) =   2
     Q(r) pseudized with  8 coefficients,  rinner =    0.900   0.900   0.900
                                                       0.900   0.900

     PseudoPot. # 2 for Ru read from file:
     /home/camp/zhonxu/pseudo/ru_pbe_v1.uspp.F.UPF
     MD5 check sum: df00be1c11b23341d9806d8f1dfa10cf
     Pseudo is Ultrasoft + core correction, Zval = 16.0
     Generated by new atomic code, or converted to UPF format
     Using radial grid of  967 points,  6 beta functions with: 
                l(1) =   0
                l(2) =   0
                l(3) =   1
                l(4) =   1
                l(5) =   2
                l(6) =   2
     Q(r) pseudized with  8 coefficients,  rinner =    1.300   1.300   1.300
                                                       1.300   1.300

     PseudoPot. # 3 for H  read from file:
     /home/camp/zhonxu/pseudo/h_pbe_v1.uspp.F.UPF
     MD5 check sum: 3408e3ff4ec8b0a4e358431e7e038a48
     Pseudo is Ultrasoft, Zval =  1.0
     Generated by new atomic code, or converted to UPF format
     Using radial grid of  615 points,  2 beta functions with: 
                l(1) =   0
                l(2) =   0
     Q(r) pseudized with  8 coefficients,  rinner =    0.700

     atomic species   valence    mass     pseudopotential
        O0             6.00    15.99940     O ( 1.00)
        Ru1           16.00   101.07000     Ru( 1.00)
        H2             1.00     1.00794     H ( 1.00)


     Simplified LDA+U calculation (l_max = 2) with parameters (eV):
     atomic species    L          U    alpha       J0     beta
        Ru1            2     8.0000   0.0000   0.0000   0.0000



     No symmetry found



   Cartesian axes

     site n.     atom                  positions (alat units)
         1           O0  tau(   1) = (   0.0000000   0.0000000   1.6035109  )
         2           O0  tau(   2) = (   0.0000000   0.5133323   1.7058780  )
         3           Ru1 tau(   3) = (   0.2500000   0.5133323   1.9200491  )
         4           Ru1 tau(   4) = (   0.0000000   0.0000000   1.9171714  )
         5           O0  tau(   5) = (   0.2500000   0.8315984   1.9169175  )
         6           O0  tau(   6) = (   0.2500000   0.1950663   1.9164520  )
         7           O0  tau(   7) = (   0.0000000   0.5133323   2.1053593  )
         8           O0  tau(   8) = (   0.0000000   0.0000000   2.2310435  )
         9           Ru1 tau(   9) = (   0.2500000   0.0000000   2.4441566  )
        10           Ru1 tau(  10) = (   0.0000000   0.5133323   2.4052664  )
        11           O0  tau(  11) = (   0.2500000   0.7083986   2.4364547  )
        12           O0  tau(  12) = (   0.2500000   0.3182660   2.4361585  )
        13           O0  tau(  13) = (   0.0000000   0.0000000   2.6233307  )
        14           O0  tau(  14) = (   0.5000000   0.0000000   1.6045689  )
        15           O0  tau(  15) = (   0.5000000   0.5133323   1.7057934  )
        16           Ru1 tau(  16) = (   0.7500000   0.5133323   1.9200914  )
        17           Ru1 tau(  17) = (   0.5000000   0.0000000   1.9176369  )
        18           O0  tau(  18) = (   0.7500000   0.8315984   1.9167059  )
        19           O0  tau(  19) = (   0.7500000   0.1950663   1.9164520  )
        20           O0  tau(  20) = (   0.5000000   0.5133323   2.1229635  )
        21           O0  tau(  21) = (   0.5000000   0.0000000   2.2303664  )
        22           Ru1 tau(  22) = (   0.7500000   0.0000000   2.4441143  )
        23           Ru1 tau(  23) = (   0.5000000   0.5133323   2.4370472  )
        24           O0  tau(  24) = (   0.7500000   0.7083986   2.4343812  )
        25           O0  tau(  25) = (   0.7500000   0.3182660   2.4338310  )
        26           O0  tau(  26) = (   0.5000000   0.0000000   2.6134283  )
        27           H2  tau(  27) = (  -0.0002400   0.6455975   1.6183222  )
        28           H2  tau(  28) = (   0.4995500   0.6408954   1.6119322  )
        29           H2  tau(  29) = (   0.1457200   0.0328533   1.5514599  )
        30           H2  tau(  30) = (   0.6465200   0.0301223   1.5527294  )
        31           O0  tau(  31) = (   0.5138700   0.5107965   2.7447408  )
        32           H2  tau(  32) = (   0.3716000   0.5093694   2.8125765  )

     number of k points=    10  Methfessel-Paxton smearing, width (Ry)=  0.0100
                       cart. coord. in units 2pi/alat
        k(    1) = (   0.0000000   0.0000000   0.0000000), wk =   0.1250000
        k(    2) = (   0.0000000   0.2435070   0.0000000), wk =   0.2500000
        k(    3) = (   0.0000000  -0.4870139   0.0000000), wk =   0.1250000
        k(    4) = (   0.2500000   0.0000000   0.0000000), wk =   0.2500000
        k(    5) = (   0.2500000   0.2435070   0.0000000), wk =   0.2500000
        k(    6) = (   0.2500000  -0.4870139   0.0000000), wk =   0.2500000
        k(    7) = (  -0.5000000   0.0000000   0.0000000), wk =   0.1250000
        k(    8) = (  -0.5000000   0.2435070   0.0000000), wk =   0.2500000
        k(    9) = (  -0.5000000  -0.4870139   0.0000000), wk =   0.1250000
        k(   10) = (  -0.2500000   0.2435070   0.0000000), wk =   0.2500000

     Dense  grid:  1344679 G-vectors     FFT dimensions: (  90,  90, 360)

     Smooth grid:   243423 G-vectors     FFT dimensions: (  48,  50, 216)

     Largest allocated arrays     est. size (Mb)     dimensions
        Kohn-Sham Wavefunctions        41.69 Mb     (   7632,  358)
        Atomic wavefunctions           21.54 Mb     (   7632,  185)
        NL pseudopotentials            46.70 Mb     (   7632,  401)
        Each V/rho on FFT grid         11.12 Mb     ( 729000)
        Each G-vector array             2.56 Mb     ( 336169)
        G-vector shells                 1.12 Mb     ( 146910)
     Largest temporary arrays     est. size (Mb)     dimensions
        Auxiliary wavefunctions       166.76 Mb     (   7632, 1432)
        Each subspace H/S matrix       31.29 Mb     (1432,1432)
        Each <psi_i|beta_j> matrix      2.19 Mb     (    401,  358)
        Arrays for rho mixing          88.99 Mb     ( 729000,   8)

     Check: negative/imaginary core charge=   -0.000003    0.000000

     Initial potential from superposition of free atoms
     Check: negative starting charge=   -0.522051

     starting charge  238.99980, renormalised to  247.00000

     negative rho (up, down):  0.540E+00 0.000E+00
     Number of +U iterations with fixed ns =  0
     Starting occupations:
 --- enter write_ns ---
 LDA+U parameters:
U( 2)     =  8.00000000
alpha( 2) =  0.00000000
atom    3   Tr[ns(na)] =   6.00000
    eigenvalues: 
  0.600  0.600  0.600  0.600  0.600
    eigenvectors:
  1.000  0.000  0.000  0.000  0.000
  0.000  1.000  0.000  0.000  0.000
  0.000  0.000  1.000  0.000  0.000
  0.000  0.000  0.000  1.000  0.000
  0.000  0.000  0.000  0.000  1.000
    occupations:
  0.600  0.000  0.000  0.000  0.000
  0.000  0.600  0.000  0.000  0.000
  0.000  0.000  0.600  0.000  0.000
  0.000  0.000  0.000  0.600  0.000
  0.000  0.000  0.000  0.000  0.600
atom    4   Tr[ns(na)] =   6.00000
    eigenvalues: 
  0.600  0.600  0.600  0.600  0.600
    eigenvectors:
  1.000  0.000  0.000  0.000  0.000
  0.000  1.000  0.000  0.000  0.000
  0.000  0.000  1.000  0.000  0.000
  0.000  0.000  0.000  1.000  0.000
  0.000  0.000  0.000  0.000  1.000
    occupations:
  0.600  0.000  0.000  0.000  0.000
  0.000  0.600  0.000  0.000  0.000
  0.000  0.000  0.600  0.000  0.000
  0.000  0.000  0.000  0.600  0.000
  0.000  0.000  0.000  0.000  0.600
atom    9   Tr[ns(na)] =   6.00000
    eigenvalues: 
  0.600  0.600  0.600  0.600  0.600
    eigenvectors:
  1.000  0.000  0.000  0.000  0.000
  0.000  1.000  0.000  0.000  0.000
  0.000  0.000  1.000  0.000  0.000
  0.000  0.000  0.000  1.000  0.000
  0.000  0.000  0.000  0.000  1.000
    occupations:
  0.600  0.000  0.000  0.000  0.000
  0.000  0.600  0.000  0.000  0.000
  0.000  0.000  0.600  0.000  0.000
  0.000  0.000  0.000  0.600  0.000
  0.000  0.000  0.000  0.000  0.600
atom   10   Tr[ns(na)] =   6.00000
    eigenvalues: 
  0.600  0.600  0.600  0.600  0.600
    eigenvectors:
  1.000  0.000  0.000  0.000  0.000
  0.000  1.000  0.000  0.000  0.000
  0.000  0.000  1.000  0.000  0.000
  0.000  0.000  0.000  1.000  0.000
  0.000  0.000  0.000  0.000  1.000
    occupations:
  0.600  0.000  0.000  0.000  0.000
  0.000  0.600  0.000  0.000  0.000
  0.000  0.000  0.600  0.000  0.000
  0.000  0.000  0.000  0.600  0.000
  0.000  0.000  0.000  0.000  0.600
atom   16   Tr[ns(na)] =   6.00000
    eigenvalues: 
  0.600  0.600  0.600  0.600  0.600
    eigenvectors:
  1.000  0.000  0.000  0.000  0.000
  0.000  1.000  0.000  0.000  0.000
  0.000  0.000  1.000  0.000  0.000
  0.000  0.000  0.000  1.000  0.000
  0.000  0.000  0.000  0.000  1.000
    occupations:
  0.600  0.000  0.000  0.000  0.000
  0.000  0.600  0.000  0.000  0.000
  0.000  0.000  0.600  0.000  0.000
  0.000  0.000  0.000  0.600  0.000
  0.000  0.000  0.000  0.000  0.600
atom   17   Tr[ns(na)] =   6.00000
    eigenvalues: 
  0.600  0.600  0.600  0.600  0.600
    eigenvectors:
  1.000  0.000  0.000  0.000  0.000
  0.000  1.000  0.000  0.000  0.000
  0.000  0.000  1.000  0.000  0.000
  0.000  0.000  0.000  1.000  0.000
  0.000  0.000  0.000  0.000  1.000
    occupations:
  0.600  0.000  0.000  0.000  0.000
  0.000  0.600  0.000  0.000  0.000
  0.000  0.000  0.600  0.000  0.000
  0.000  0.000  0.000  0.600  0.000
  0.000  0.000  0.000  0.000  0.600
atom   22   Tr[ns(na)] =   6.00000
    eigenvalues: 
  0.600  0.600  0.600  0.600  0.600
    eigenvectors:
  1.000  0.000  0.000  0.000  0.000
  0.000  1.000  0.000  0.000  0.000
  0.000  0.000  1.000  0.000  0.000
  0.000  0.000  0.000  1.000  0.000
  0.000  0.000  0.000  0.000  1.000
    occupations:
  0.600  0.000  0.000  0.000  0.000
  0.000  0.600  0.000  0.000  0.000
  0.000  0.000  0.600  0.000  0.000
  0.000  0.000  0.000  0.600  0.000
  0.000  0.000  0.000  0.000  0.600
atom   23   Tr[ns(na)] =   6.00000
    eigenvalues: 
  0.600  0.600  0.600  0.600  0.600
    eigenvectors:
  1.000  0.000  0.000  0.000  0.000
  0.000  1.000  0.000  0.000  0.000
  0.000  0.000  1.000  0.000  0.000
  0.000  0.000  0.000  1.000  0.000
  0.000  0.000  0.000  0.000  1.000
    occupations:
  0.600  0.000  0.000  0.000  0.000
  0.000  0.600  0.000  0.000  0.000
  0.000  0.000  0.600  0.000  0.000
  0.000  0.000  0.000  0.600  0.000
  0.000  0.000  0.000  0.000  0.600
N of occupied +U levels =  48.0000000
 --- exit write_ns ---
 Atomic wfc used for LDA+U Projector are NOT orthogonalized
     Starting wfc are  185 randomized atomic wfcs

     total cpu time spent up to now is      108.5 secs

     per-process dynamical memory:   401.3 Mb

     Self-consistent Calculation

     iteration #  1     ecut=    40.00 Ry     beta=0.70
     Davidson diagonalization with overlap
     ethr =  1.00E-02,  avg # of iterations =  5.9
 --- enter write_ns ---
 LDA+U parameters:
U( 2)     =  8.00000000
alpha( 2) =  0.00000000
atom    3   Tr[ns(na)] =   4.97292
    eigenvalues: 
  0.416  0.438  0.486  0.530  0.616
    eigenvectors:
  0.001  0.128  0.105  0.242  0.525
  0.944  0.040  0.015  0.000  0.000
  0.001  0.000  0.060  0.565  0.374
  0.041  0.832  0.008  0.033  0.086
  0.013  0.000  0.812  0.160  0.016
    occupations:
  0.559 -0.003  0.041 -0.047  0.020
 -0.003  0.418  0.002  0.006  0.008
  0.041  0.002  0.560 -0.018 -0.004
 -0.047  0.006 -0.018  0.456 -0.010
  0.020  0.008 -0.004 -0.010  0.494
atom    4   Tr[ns(na)] =   4.04492
    eigenvalues: 
  0.340  0.349  0.427  0.427  0.480
    eigenvectors:
  0.010  0.004  0.108  0.041  0.838
  0.528  0.430  0.028  0.012  0.001
  0.449  0.551  0.000  0.000  0.001
  0.014  0.015  0.590  0.221  0.160
  0.000  0.000  0.275  0.725  0.000
    occupations:
  0.470  0.011  0.003  0.021  0.000
  0.011  0.348 -0.004 -0.013 -0.001
  0.003 -0.004  0.345  0.001  0.001
  0.021 -0.013  0.001  0.433  0.000
  0.000 -0.001  0.001  0.000  0.427
atom    9   Tr[ns(na)] =   7.51722
    eigenvalues: 
  0.446  0.468  0.933  0.952  0.959
    eigenvectors:
  0.006  0.125  0.000  0.000  0.869
  0.975  0.024  0.000  0.000  0.000
  0.000  0.000  0.068  0.932  0.000
  0.019  0.851  0.000  0.000  0.130
  0.000  0.000  0.932  0.068  0.000
    occupations:
  0.895 -0.012 -0.000 -0.166  0.000
 -0.012  0.447 -0.000  0.001 -0.000
 -0.000 -0.000  0.950  0.000  0.005
 -0.166  0.001  0.000  0.532 -0.000
  0.000 -0.000  0.005 -0.000  0.935
atom   10   Tr[ns(na)] =   7.72264
    eigenvalues: 
  0.443  0.560  0.931  0.963  0.964
    eigenvectors:
  0.000  0.987  0.000  0.005  0.008
  0.000  0.000  0.000  0.617  0.383
  0.000  0.000  1.000  0.000  0.000
  0.000  0.013  0.000  0.378  0.609
  1.000  0.000  0.000  0.000  0.000
    occupations:
  0.565  0.000 -0.002  0.045  0.000
  0.000  0.963  0.000  0.000  0.001
 -0.002  0.000  0.931  0.000  0.002
  0.045  0.000  0.000  0.958  0.000
  0.000  0.001  0.002  0.000  0.443
atom   16   Tr[ns(na)] =   4.95526
    eigenvalues: 
  0.415  0.438  0.485  0.525  0.614
    eigenvectors:
  0.000  0.128  0.081  0.284  0.506
  0.942  0.040  0.017  0.000  0.000
  0.001  0.000  0.016  0.598  0.386
  0.043  0.831  0.007  0.037  0.082
  0.014  0.000  0.879  0.081  0.026
    occupations:
  0.556  0.003  0.040 -0.046 -0.021
  0.003  0.418 -0.002 -0.006  0.008
  0.040 -0.002  0.558 -0.018 -0.004
 -0.046 -0.006 -0.018  0.455  0.010
 -0.021  0.008 -0.004  0.010  0.491
atom   17   Tr[ns(na)] =   3.99752
    eigenvalues: 
  0.337  0.347  0.413  0.424  0.478
    eigenvectors:
  0.006  0.007  0.064  0.000  0.923
  0.264  0.681  0.053  0.000  0.003
  0.723  0.276  0.000  0.000  0.001
  0.008  0.035  0.883  0.000  0.073
  0.000  0.000  0.000  1.000  0.000
    occupations:
  0.472  0.011  0.003  0.018  0.000
  0.011  0.348 -0.004 -0.013 -0.000
  0.003 -0.004  0.340  0.001  0.001
  0.018 -0.013  0.001  0.415 -0.000
  0.000 -0.000  0.001 -0.000  0.424
atom   22   Tr[ns(na)] =   7.52245
    eigenvalues: 
  0.446  0.468  0.934  0.954  0.960
    eigenvectors:
  0.005  0.125  0.000  0.001  0.868
  0.977  0.022  0.000  0.000  0.000
  0.000  0.000  0.051  0.948  0.001
  0.017  0.853  0.000  0.000  0.130
  0.000  0.000  0.949  0.051  0.000
    occupations:
  0.895  0.011 -0.000 -0.166  0.000
  0.011  0.447 -0.001 -0.001 -0.000
 -0.000 -0.001  0.953  0.000 -0.004
 -0.166 -0.001  0.000  0.531 -0.000
  0.000 -0.000 -0.004 -0.000  0.935
atom   23   Tr[ns(na)] =   7.43991
    eigenvalues: 
  0.433  0.480  0.891  0.955  0.960
    eigenvectors:
  0.000  0.990  0.000  0.008  0.001
  0.000  0.000  0.000  0.070  0.930
  0.000  0.000  1.000  0.000  0.000
  0.000  0.010  0.000  0.921  0.069
  1.000  0.000  0.000  0.000  0.000
    occupations:
  0.485  0.006 -0.004  0.047  0.000
  0.006  0.960  0.000  0.001 -0.000
 -0.004  0.000  0.891 -0.001 -0.001
  0.047  0.001 -0.001  0.951 -0.000
  0.000 -0.000 -0.001 -0.000  0.433
N of occupied +U levels =  48.1728455
 --- exit write_ns ---

     negative rho (up, down):  0.619E+00 0.000E+00

     total cpu time spent up to now is      459.2 secs

     total energy              =   -2125.45883523 Ry
     Harris-Foulkes estimate   =   -2162.99403741 Ry
     estimated scf accuracy    <      44.28026864 Ry

     iteration #  2     ecut=    40.00 Ry     beta=0.70
     Davidson diagonalization with overlap
     ethr =  1.00E-02,  avg # of iterations =  6.0

     negative rho (up, down):  0.618E+00 0.000E+00

     total cpu time spent up to now is      802.9 secs

     total energy              =   -2020.25139094 Ry
     Harris-Foulkes estimate   =   -2475.00119766 Ry
     estimated scf accuracy    <    4180.84376424 Ry

     iteration #  3     ecut=    40.00 Ry     beta=0.70
     Davidson diagonalization with overlap
     ethr =  1.00E-02,  avg # of iterations =  6.0

     negative rho (up, down):  0.586E+00 0.000E+00

     total cpu time spent up to now is     1192.4 secs

     total energy              =   -2145.07553524 Ry
     Harris-Foulkes estimate   =   -2186.64432921 Ry
     estimated scf accuracy    <     205.15608173 Ry

     iteration #  4     ecut=    40.00 Ry     beta=0.70
     Davidson diagonalization with overlap
     ethr =  1.00E-02,  avg # of iterations =  4.0

     negative rho (up, down):  0.571E+00 0.000E+00

     total cpu time spent up to now is     1396.4 secs

     total energy              =   -2156.72408985 Ry
     Harris-Foulkes estimate   =   -2164.70084293 Ry
     estimated scf accuracy    <      36.78054867 Ry

     iteration #  5     ecut=    40.00 Ry     beta=0.70
     Davidson diagonalization with overlap
     ethr =  1.00E-02,  avg # of iterations =  1.9

     negative rho (up, down):  0.571E+00 0.000E+00

     total cpu time spent up to now is     1571.8 secs

     total energy              =   -2160.90918463 Ry
     Harris-Foulkes estimate   =   -2161.68688350 Ry
     estimated scf accuracy    <      42.04703182 Ry

     iteration #  6     ecut=    40.00 Ry     beta=0.70
     Davidson diagonalization with overlap
     ethr =  1.00E-02,  avg # of iterations =  1.0

     negative rho (up, down):  0.572E+00 0.000E+00

     total cpu time spent up to now is     1743.7 secs

     total energy              =   -2160.85571209 Ry
     Harris-Foulkes estimate   =   -2161.01193335 Ry
     estimated scf accuracy    <      26.93579255 Ry

     iteration #  7     ecut=    40.00 Ry     beta=0.70
     Davidson diagonalization with overlap
     ethr =  1.00E-02,  avg # of iterations =  1.0

     negative rho (up, down):  0.575E+00 0.000E+00

     total cpu time spent up to now is     1918.5 secs

     total energy              =   -2160.31543438 Ry
     Harris-Foulkes estimate   =   -2160.90257352 Ry
     estimated scf accuracy    <      22.24247018 Ry

     iteration #  8     ecut=    40.00 Ry     beta=0.70
     Davidson diagonalization with overlap
     ethr =  9.01E-03,  avg # of iterations =  1.0

     negative rho (up, down):  0.575E+00 0.000E+00

     total cpu time spent up to now is     2089.2 secs

     total energy              =   -2160.26705828 Ry
     Harris-Foulkes estimate   =   -2160.76037324 Ry
     estimated scf accuracy    <       6.49876518 Ry

     iteration #  9     ecut=    40.00 Ry     beta=0.70
     Davidson diagonalization with overlap
     ethr =  2.63E-03,  avg # of iterations =  2.5

     negative rho (up, down):  0.573E+00 0.000E+00

     total cpu time spent up to now is     2266.9 secs

     total energy              =   -2160.43863065 Ry
     Harris-Foulkes estimate   =   -2160.66493341 Ry
     estimated scf accuracy    <       2.50812936 Ry

     iteration # 10     ecut=    40.00 Ry     beta=0.70
     Davidson diagonalization with overlap
     ethr =  1.02E-03,  avg # of iterations =  4.7

     negative rho (up, down):  0.573E+00 0.000E+00

     total cpu time spent up to now is     2465.7 secs

     total energy              =   -2160.42323756 Ry
     Harris-Foulkes estimate   =   -2160.71121346 Ry
     estimated scf accuracy    <       2.30652749 Ry

     iteration # 11     ecut=    40.00 Ry     beta=0.70
     Davidson diagonalization with overlap
     ethr =  9.34E-04,  avg # of iterations =  1.2

     negative rho (up, down):  0.572E+00 0.000E+00

     total cpu time spent up to now is     2650.5 secs

     total energy              =   -2160.50463523 Ry
     Harris-Foulkes estimate   =   -2160.63295852 Ry
     estimated scf accuracy    <       0.80957450 Ry

     iteration # 12     ecut=    40.00 Ry     beta=0.70
     Davidson diagonalization with overlap
     ethr =  3.28E-04,  avg # of iterations =  4.0

     negative rho (up, down):  0.569E+00 0.000E+00

     total cpu time spent up to now is     2830.6 secs

     total energy              =   -2160.54042851 Ry
     Harris-Foulkes estimate   =   -2160.59619391 Ry
     estimated scf accuracy    <       0.21766694 Ry

     iteration # 13     ecut=    40.00 Ry     beta=0.70
     Davidson diagonalization with overlap
     ethr =  8.81E-05,  avg # of iterations =  5.3

     negative rho (up, down):  0.568E+00 0.000E+00

     total cpu time spent up to now is     3025.0 secs

     total energy              =   -2160.52990373 Ry
     Harris-Foulkes estimate   =   -2160.63463032 Ry
     estimated scf accuracy    <       0.44255081 Ry

     iteration # 14     ecut=    40.00 Ry     beta=0.70
     Davidson diagonalization with overlap
     ethr =  8.81E-05,  avg # of iterations =  4.5

     negative rho (up, down):  0.569E+00 0.000E+00

     total cpu time spent up to now is     3214.4 secs

     total energy              =   -2160.54426308 Ry
     Harris-Foulkes estimate   =   -2160.61507744 Ry
     estimated scf accuracy    <       0.47230177 Ry

     iteration # 15     ecut=    40.00 Ry     beta=0.70
     Davidson diagonalization with overlap
     ethr =  8.81E-05,  avg # of iterations =  1.0

     negative rho (up, down):  0.570E+00 0.000E+00

     total cpu time spent up to now is     3386.6 secs

     total energy              =   -2160.57595148 Ry
     Harris-Foulkes estimate   =   -2160.59006989 Ry
     estimated scf accuracy    <       0.16021054 Ry

     iteration # 16     ecut=    40.00 Ry     beta=0.70
     Davidson diagonalization with overlap
     ethr =  6.49E-05,  avg # of iterations =  1.0

     negative rho (up, down):  0.569E+00 0.000E+00

     total cpu time spent up to now is     3559.7 secs

     total energy              =   -2160.57781068 Ry
     Harris-Foulkes estimate   =   -2160.58856354 Ry
     estimated scf accuracy    <       0.14264018 Ry

     iteration # 17     ecut=    40.00 Ry     beta=0.70
     Davidson diagonalization with overlap
     ethr =  5.77E-05,  avg # of iterations =  1.0

     negative rho (up, down):  0.569E+00 0.000E+00

     total cpu time spent up to now is     3735.6 secs

     total energy              =   -2160.58389533 Ry
     Harris-Foulkes estimate   =   -2160.58470721 Ry
     estimated scf accuracy    <       0.01487897 Ry

     iteration # 18     ecut=    40.00 Ry     beta=0.70
     Davidson diagonalization with overlap
     ethr =  6.02E-06,  avg # of iterations =  3.7

     negative rho (up, down):  0.569E+00 0.000E+00

     total cpu time spent up to now is     3926.9 secs

     total energy              =   -2160.58567964 Ry
     Harris-Foulkes estimate   =   -2160.58641473 Ry
     estimated scf accuracy    <       0.01663404 Ry

     iteration # 19     ecut=    40.00 Ry     beta=0.70
     Davidson diagonalization with overlap
     ethr =  6.02E-06,  avg # of iterations =  1.0

     negative rho (up, down):  0.570E+00 0.000E+00

     total cpu time spent up to now is     4103.7 secs

     total energy              =   -2160.58715210 Ry
     Harris-Foulkes estimate   =   -2160.58852449 Ry
     estimated scf accuracy    <       0.02019310 Ry

     iteration # 20     ecut=    40.00 Ry     beta=0.70
     Davidson diagonalization with overlap
     ethr =  6.02E-06,  avg # of iterations =  1.0

     negative rho (up, down):  0.569E+00 0.000E+00

     total cpu time spent up to now is     4278.7 secs

     total energy              =   -2160.58833531 Ry
     Harris-Foulkes estimate   =   -2160.59122997 Ry
     estimated scf accuracy    <       0.02023732 Ry

     iteration # 21     ecut=    40.00 Ry     beta=0.70
     Davidson diagonalization with overlap
     ethr =  6.02E-06,  avg # of iterations =  1.0

     negative rho (up, down):  0.570E+00 0.000E+00

     total cpu time spent up to now is     4452.4 secs

     total energy              =   -2160.58857039 Ry
     Harris-Foulkes estimate   =   -2160.59137978 Ry
     estimated scf accuracy    <       0.05216651 Ry

     iteration # 22     ecut=    40.00 Ry     beta=0.70
     Davidson diagonalization with overlap
     ethr =  6.02E-06,  avg # of iterations =  1.0

     negative rho (up, down):  0.570E+00 0.000E+00

     total cpu time spent up to now is     4626.2 secs

     total energy              =   -2160.59036695 Ry
     Harris-Foulkes estimate   =   -2160.59100714 Ry
     estimated scf accuracy    <       0.01673594 Ry

     iteration # 23     ecut=    40.00 Ry     beta=0.70
     Davidson diagonalization with overlap
     ethr =  6.02E-06,  avg # of iterations =  1.0

     negative rho (up, down):  0.570E+00 0.000E+00

     total cpu time spent up to now is     4799.2 secs

     total energy              =   -2160.58904138 Ry
     Harris-Foulkes estimate   =   -2160.59257658 Ry
     estimated scf accuracy    <       0.01281071 Ry

     iteration # 24     ecut=    40.00 Ry     beta=0.70
     Davidson diagonalization with overlap
     ethr =  5.19E-06,  avg # of iterations =  4.1

     negative rho (up, down):  0.570E+00 0.000E+00

     total cpu time spent up to now is     4987.6 secs

     total energy              =   -2160.58475927 Ry
     Harris-Foulkes estimate   =   -2160.59549060 Ry
     estimated scf accuracy    <       0.05529040 Ry

     iteration # 25     ecut=    40.00 Ry     beta=0.70
     Davidson diagonalization with overlap
     ethr =  5.19E-06,  avg # of iterations =  3.9

     negative rho (up, down):  0.570E+00 0.000E+00

     total cpu time spent up to now is     5172.9 secs

     total energy              =   -2160.58731533 Ry
     Harris-Foulkes estimate   =   -2160.59494627 Ry
     estimated scf accuracy    <       0.08165438 Ry

     iteration # 26     ecut=    40.00 Ry     beta=0.70
     Davidson diagonalization with overlap
     ethr =  5.19E-06,  avg # of iterations =  1.6

     negative rho (up, down):  0.570E+00 0.000E+00

     total cpu time spent up to now is     5348.2 secs

     total energy              =   -2160.59162197 Ry
     Harris-Foulkes estimate   =   -2160.59339776 Ry
     estimated scf accuracy    <       0.01292507 Ry

     iteration # 27     ecut=    40.00 Ry     beta=0.70
     Davidson diagonalization with overlap
     ethr =  5.19E-06,  avg # of iterations =  1.0

     negative rho (up, down):  0.570E+00 0.000E+00

     total cpu time spent up to now is     5525.1 secs

     total energy              =   -2160.59264211 Ry
     Harris-Foulkes estimate   =   -2160.59367906 Ry
     estimated scf accuracy    <       0.01577077 Ry

     iteration # 28     ecut=    40.00 Ry     beta=0.70
     Davidson diagonalization with overlap
     ethr =  5.19E-06,  avg # of iterations =  1.0

     negative rho (up, down):  0.570E+00 0.000E+00

     total cpu time spent up to now is     5700.3 secs

     total energy              =   -2160.59266876 Ry
     Harris-Foulkes estimate   =   -2160.59370336 Ry
     estimated scf accuracy    <       0.00935053 Ry

     iteration # 29     ecut=    40.00 Ry     beta=0.70
     Davidson diagonalization with overlap
     ethr =  3.79E-06,  avg # of iterations =  1.0

     negative rho (up, down):  0.570E+00 0.000E+00

     total cpu time spent up to now is     5869.7 secs

     total energy              =   -2160.59316323 Ry
     Harris-Foulkes estimate   =   -2160.59378615 Ry
     estimated scf accuracy    <       0.00644985 Ry

     iteration # 30     ecut=    40.00 Ry     beta=0.70
     Davidson diagonalization with overlap
     ethr =  2.61E-06,  avg # of iterations =  1.0

     negative rho (up, down):  0.570E+00 0.000E+00

     total cpu time spent up to now is     6040.4 secs

     total energy              =   -2160.59201516 Ry
     Harris-Foulkes estimate   =   -2160.59398047 Ry
     estimated scf accuracy    <       0.00869679 Ry

     iteration # 31     ecut=    40.00 Ry     beta=0.70
     Davidson diagonalization with overlap
     ethr =  2.61E-06,  avg # of iterations =  1.0

     negative rho (up, down):  0.570E+00 0.000E+00

     total cpu time spent up to now is     6210.4 secs

     total energy              =   -2160.59252565 Ry
     Harris-Foulkes estimate   =   -2160.59323134 Ry
     estimated scf accuracy    <       0.00490138 Ry

     iteration # 32     ecut=    40.00 Ry     beta=0.70
     Davidson diagonalization with overlap
     ethr =  1.98E-06,  avg # of iterations =  1.0

     negative rho (up, down):  0.570E+00 0.000E+00

     total cpu time spent up to now is     6384.8 secs

     total energy              =   -2160.59299230 Ry
     Harris-Foulkes estimate   =   -2160.59300532 Ry
     estimated scf accuracy    <       0.00414369 Ry

     iteration # 33     ecut=    40.00 Ry     beta=0.70
     Davidson diagonalization with overlap
     ethr =  1.68E-06,  avg # of iterations =  1.0

     negative rho (up, down):  0.570E+00 0.000E+00

     total cpu time spent up to now is     6561.7 secs

     total energy              =   -2160.59300515 Ry
     Harris-Foulkes estimate   =   -2160.59313023 Ry
     estimated scf accuracy    <       0.00318214 Ry

     iteration # 34     ecut=    40.00 Ry     beta=0.70
     Davidson diagonalization with overlap
     ethr =  1.29E-06,  avg # of iterations =  1.9

     negative rho (up, down):  0.570E+00 0.000E+00

     total cpu time spent up to now is     6740.7 secs

     total energy              =   -2160.59201542 Ry
     Harris-Foulkes estimate   =   -2160.59418601 Ry
     estimated scf accuracy    <       0.01281283 Ry

     iteration # 35     ecut=    40.00 Ry     beta=0.70
     Davidson diagonalization with overlap
     ethr =  1.29E-06,  avg # of iterations =  2.7

     negative rho (up, down):  0.570E+00 0.000E+00

     total cpu time spent up to now is     6925.3 secs

     total energy              =   -2160.59271567 Ry
     Harris-Foulkes estimate   =   -2160.59396002 Ry
     estimated scf accuracy    <       0.01055295 Ry

     iteration # 36     ecut=    40.00 Ry     beta=0.70
     Davidson diagonalization with overlap
     ethr =  1.29E-06,  avg # of iterations =  1.6

     negative rho (up, down):  0.570E+00 0.000E+00

     total cpu time spent up to now is     7104.3 secs

     total energy              =   -2160.59304962 Ry
     Harris-Foulkes estimate   =   -2160.59356394 Ry
     estimated scf accuracy    <       0.00647884 Ry

     iteration # 37     ecut=    40.00 Ry     beta=0.70
     Davidson diagonalization with overlap
     ethr =  1.29E-06,  avg # of iterations =  3.6

     negative rho (up, down):  0.570E+00 0.000E+00

     total cpu time spent up to now is     7302.0 secs

     total energy              =   -2160.59219921 Ry
     Harris-Foulkes estimate   =   -2160.59445905 Ry
     estimated scf accuracy    <       0.02306089 Ry

     iteration # 38     ecut=    40.00 Ry     beta=0.70
     Davidson diagonalization with overlap
     ethr =  1.29E-06,  avg # of iterations =  3.5

     negative rho (up, down):  0.570E+00 0.000E+00

     total cpu time spent up to now is     7500.7 secs

     total energy              =   -2160.59362024 Ry
     Harris-Foulkes estimate   =   -2160.59369427 Ry
     estimated scf accuracy    <       0.00547566 Ry

     iteration # 39     ecut=    40.00 Ry     beta=0.70
     Davidson diagonalization with overlap
     ethr =  1.29E-06,  avg # of iterations =  1.0

     negative rho (up, down):  0.571E+00 0.000E+00

     total cpu time spent up to now is     7679.1 secs

     total energy              =   -2160.59354420 Ry
     Harris-Foulkes estimate   =   -2160.59393388 Ry
     estimated scf accuracy    <       0.00624184 Ry

     iteration # 40     ecut=    40.00 Ry     beta=0.70
     Davidson diagonalization with overlap
     ethr =  1.29E-06,  avg # of iterations =  1.0

     negative rho (up, down):  0.571E+00 0.000E+00

     total cpu time spent up to now is     7858.1 secs

     total energy              =   -2160.59354468 Ry
     Harris-Foulkes estimate   =   -2160.59444957 Ry
     estimated scf accuracy    <       0.01004021 Ry

     iteration # 41     ecut=    40.00 Ry     beta=0.70
     Davidson diagonalization with overlap
     ethr =  1.29E-06,  avg # of iterations =  1.0

     negative rho (up, down):  0.571E+00 0.000E+00

     total cpu time spent up to now is     8037.4 secs

     total energy              =   -2160.59404584 Ry
     Harris-Foulkes estimate   =   -2160.59417170 Ry
     estimated scf accuracy    <       0.00267691 Ry

     iteration # 42     ecut=    40.00 Ry     beta=0.70
     Davidson diagonalization with overlap
     ethr =  1.08E-06,  avg # of iterations =  1.0

     negative rho (up, down):  0.570E+00 0.000E+00

     total cpu time spent up to now is     8219.0 secs

     total energy              =   -2160.59232107 Ry
     Harris-Foulkes estimate   =   -2160.59442177 Ry
     estimated scf accuracy    <       0.00377028 Ry

     iteration # 43     ecut=    40.00 Ry     beta=0.70
     Davidson diagonalization with overlap
     ethr =  1.08E-06,  avg # of iterations =  1.0

     negative rho (up, down):  0.571E+00 0.000E+00

     total cpu time spent up to now is     8399.6 secs

     total energy              =   -2160.59303648 Ry
     Harris-Foulkes estimate   =   -2160.59378397 Ry
     estimated scf accuracy    <       0.00319708 Ry

     iteration # 44     ecut=    40.00 Ry     beta=0.70
     Davidson diagonalization with overlap
     ethr =  1.08E-06,  avg # of iterations =  1.7

     negative rho (up, down):  0.571E+00 0.000E+00

     total cpu time spent up to now is     8582.3 secs

     total energy              =   -2160.59343608 Ry
     Harris-Foulkes estimate   =   -2160.59496169 Ry
     estimated scf accuracy    <       0.00846777 Ry

     iteration # 45     ecut=    40.00 Ry     beta=0.70
     Davidson diagonalization with overlap
     ethr =  1.08E-06,  avg # of iterations =  1.1

     negative rho (up, down):  0.571E+00 0.000E+00

     total cpu time spent up to now is     8762.0 secs

     total energy              =   -2160.59412405 Ry
     Harris-Foulkes estimate   =   -2160.59440894 Ry
     estimated scf accuracy    <       0.00235060 Ry

     iteration # 46     ecut=    40.00 Ry     beta=0.70
     Davidson diagonalization with overlap
     ethr =  9.52E-07,  avg # of iterations =  1.0

     negative rho (up, down):  0.571E+00 0.000E+00

     total cpu time spent up to now is     8940.6 secs

     total energy              =   -2160.59401140 Ry
     Harris-Foulkes estimate   =   -2160.59440027 Ry
     estimated scf accuracy    <       0.00210755 Ry

     iteration # 47     ecut=    40.00 Ry     beta=0.70
     Davidson diagonalization with overlap
     ethr =  8.53E-07,  avg # of iterations =  1.0

     negative rho (up, down):  0.571E+00 0.000E+00

     total cpu time spent up to now is     9117.3 secs

     total energy              =   -2160.59392028 Ry
     Harris-Foulkes estimate   =   -2160.59468723 Ry
     estimated scf accuracy    <       0.00313370 Ry

     iteration # 48     ecut=    40.00 Ry     beta=0.70
     Davidson diagonalization with overlap
     ethr =  8.53E-07,  avg # of iterations =  1.8

     negative rho (up, down):  0.571E+00 0.000E+00

     total cpu time spent up to now is     9298.2 secs

     total energy              =   -2160.59326887 Ry
     Harris-Foulkes estimate   =   -2160.59527877 Ry
     estimated scf accuracy    <       0.01689442 Ry

     iteration # 49     ecut=    40.00 Ry     beta=0.70
     Davidson diagonalization with overlap
     ethr =  8.53E-07,  avg # of iterations =  1.2

     negative rho (up, down):  0.571E+00 0.000E+00

     total cpu time spent up to now is     9475.0 secs

     total energy              =   -2160.59432570 Ry
     Harris-Foulkes estimate   =   -2160.59436725 Ry
     estimated scf accuracy    <       0.00199054 Ry

     iteration # 50     ecut=    40.00 Ry     beta=0.70
     Davidson diagonalization with overlap
     ethr =  8.06E-07,  avg # of iterations =  1.0

     negative rho (up, down):  0.571E+00 0.000E+00

     total cpu time spent up to now is     9653.7 secs

     total energy              =   -2160.59429326 Ry
     Harris-Foulkes estimate   =   -2160.59441846 Ry
     estimated scf accuracy    <       0.00110992 Ry

     iteration # 51     ecut=    40.00 Ry     beta=0.70
     Davidson diagonalization with overlap
     ethr =  4.49E-07,  avg # of iterations =  1.0

     negative rho (up, down):  0.571E+00 0.000E+00

     total cpu time spent up to now is     9831.9 secs

     total energy              =   -2160.59434079 Ry
     Harris-Foulkes estimate   =   -2160.59436524 Ry
     estimated scf accuracy    <       0.00109305 Ry

     iteration # 52     ecut=    40.00 Ry     beta=0.70
     Davidson diagonalization with overlap
     ethr =  4.43E-07,  avg # of iterations =  1.0

     negative rho (up, down):  0.571E+00 0.000E+00

     total cpu time spent up to now is    10009.8 secs

     total energy              =   -2160.59437670 Ry
     Harris-Foulkes estimate   =   -2160.59436918 Ry
     estimated scf accuracy    <       0.00055270 Ry

     iteration # 53     ecut=    40.00 Ry     beta=0.70
     Davidson diagonalization with overlap
     ethr =  2.24E-07,  avg # of iterations =  1.0

     negative rho (up, down):  0.571E+00 0.000E+00

     total cpu time spent up to now is    10187.7 secs

     total energy              =   -2160.59438513 Ry
     Harris-Foulkes estimate   =   -2160.59440608 Ry
     estimated scf accuracy    <       0.00097738 Ry

     iteration # 54     ecut=    40.00 Ry     beta=0.70
     Davidson diagonalization with overlap
     ethr =  2.24E-07,  avg # of iterations =  1.0

     negative rho (up, down):  0.571E+00 0.000E+00

     total cpu time spent up to now is    10360.9 secs

     total energy              =   -2160.59431683 Ry
     Harris-Foulkes estimate   =   -2160.59454479 Ry
     estimated scf accuracy    <       0.00141222 Ry

     iteration # 55     ecut=    40.00 Ry     beta=0.70
     Davidson diagonalization with overlap
     ethr =  2.24E-07,  avg # of iterations =  1.0

     negative rho (up, down):  0.571E+00 0.000E+00

     total cpu time spent up to now is    10538.2 secs

     total energy              =   -2160.59431876 Ry
     Harris-Foulkes estimate   =   -2160.59452790 Ry
     estimated scf accuracy    <       0.00151588 Ry

     iteration # 56     ecut=    40.00 Ry     beta=0.70
     Davidson diagonalization with overlap
     ethr =  2.24E-07,  avg # of iterations =  1.0

     negative rho (up, down):  0.571E+00 0.000E+00

     total cpu time spent up to now is    10717.4 secs

     total energy              =   -2160.59443319 Ry
     Harris-Foulkes estimate   =   -2160.59444864 Ry
     estimated scf accuracy    <       0.00064797 Ry

     iteration # 57     ecut=    40.00 Ry     beta=0.70
     Davidson diagonalization with overlap
     ethr =  2.24E-07,  avg # of iterations =  1.0

     negative rho (up, down):  0.571E+00 0.000E+00

     total cpu time spent up to now is    10895.9 secs

     total energy              =   -2160.59444608 Ry
     Harris-Foulkes estimate   =   -2160.59450551 Ry
     estimated scf accuracy    <       0.00041945 Ry

     iteration # 58     ecut=    40.00 Ry     beta=0.70
     Davidson diagonalization with overlap
     ethr =  1.70E-07,  avg # of iterations =  1.0

     negative rho (up, down):  0.571E+00 0.000E+00

     total cpu time spent up to now is    11073.9 secs

     total energy              =   -2160.59421792 Ry
     Harris-Foulkes estimate   =   -2160.59453308 Ry
     estimated scf accuracy    <       0.00028852 Ry

     iteration # 59     ecut=    40.00 Ry     beta=0.70
     Davidson diagonalization with overlap
     ethr =  1.17E-07,  avg # of iterations =  3.4

     negative rho (up, down):  0.571E+00 0.000E+00

     total cpu time spent up to now is    11282.4 secs

     total energy              =   -2160.59381791 Ry
     Harris-Foulkes estimate   =   -2160.59511217 Ry
     estimated scf accuracy    <       0.01640866 Ry

     iteration # 60     ecut=    40.00 Ry     beta=0.70
     Davidson diagonalization with overlap
     ethr =  1.17E-07,  avg # of iterations =  2.9

     negative rho (up, down):  0.571E+00 0.000E+00

     total cpu time spent up to now is    11479.3 secs

     total energy              =   -2160.59451033 Ry
     Harris-Foulkes estimate   =   -2160.59454675 Ry
     estimated scf accuracy    <       0.00033686 Ry

     iteration # 61     ecut=    40.00 Ry     beta=0.70
     Davidson diagonalization with overlap
     ethr =  1.17E-07,  avg # of iterations =  1.0

     negative rho (up, down):  0.571E+00 0.000E+00

     total cpu time spent up to now is    11666.7 secs

     total energy              =   -2160.59452054 Ry
     Harris-Foulkes estimate   =   -2160.59453743 Ry
     estimated scf accuracy    <       0.00009336 Ry

     iteration # 62     ecut=    40.00 Ry     beta=0.70
     Davidson diagonalization with overlap
     ethr =  3.78E-08,  avg # of iterations =  1.0

     negative rho (up, down):  0.571E+00 0.000E+00

     total cpu time spent up to now is    11844.7 secs

     total energy              =   -2160.59452551 Ry
     Harris-Foulkes estimate   =   -2160.59453144 Ry
     estimated scf accuracy    <       0.00007473 Ry

     iteration # 63     ecut=    40.00 Ry     beta=0.70
     Davidson diagonalization with overlap
     ethr =  3.03E-08,  avg # of iterations =  1.0

     negative rho (up, down):  0.571E+00 0.000E+00

     total cpu time spent up to now is    12021.7 secs

     total energy              =   -2160.59452441 Ry
     Harris-Foulkes estimate   =   -2160.59453787 Ry
     estimated scf accuracy    <       0.00010486 Ry

     iteration # 64     ecut=    40.00 Ry     beta=0.70
     Davidson diagonalization with overlap
     ethr =  3.03E-08,  avg # of iterations =  1.0

     negative rho (up, down):  0.571E+00 0.000E+00

     total cpu time spent up to now is    12199.2 secs

     total energy              =   -2160.59452394 Ry
     Harris-Foulkes estimate   =   -2160.59453267 Ry
     estimated scf accuracy    <       0.00005164 Ry

     iteration # 65     ecut=    40.00 Ry     beta=0.70
     Davidson diagonalization with overlap
     ethr =  2.09E-08,  avg # of iterations =  1.0

     negative rho (up, down):  0.571E+00 0.000E+00

     total cpu time spent up to now is    12376.8 secs

     total energy              =   -2160.59451560 Ry
     Harris-Foulkes estimate   =   -2160.59453565 Ry
     estimated scf accuracy    <       0.00005427 Ry

     iteration # 66     ecut=    40.00 Ry     beta=0.70
     Davidson diagonalization with overlap
     ethr =  2.09E-08,  avg # of iterations =  1.0

     negative rho (up, down):  0.571E+00 0.000E+00

     total cpu time spent up to now is    12553.8 secs

     total energy              =   -2160.59452173 Ry
     Harris-Foulkes estimate   =   -2160.59453800 Ry
     estimated scf accuracy    <       0.00009431 Ry

     iteration # 67     ecut=    40.00 Ry     beta=0.70
     Davidson diagonalization with overlap
     ethr =  2.09E-08,  avg # of iterations =  1.0

     negative rho (up, down):  0.571E+00 0.000E+00

     total cpu time spent up to now is    12734.5 secs

     total energy              =   -2160.59453087 Ry
     Harris-Foulkes estimate   =   -2160.59453305 Ry
     estimated scf accuracy    <       0.00002998 Ry

     iteration # 68     ecut=    40.00 Ry     beta=0.70
     Davidson diagonalization with overlap
     ethr =  1.21E-08,  avg # of iterations =  1.0

     negative rho (up, down):  0.571E+00 0.000E+00

     total cpu time spent up to now is    12905.4 secs

     total energy              =   -2160.59452857 Ry
     Harris-Foulkes estimate   =   -2160.59453263 Ry
     estimated scf accuracy    <       0.00001816 Ry

     iteration # 69     ecut=    40.00 Ry     beta=0.70
     Davidson diagonalization with overlap
     ethr =  7.35E-09,  avg # of iterations =  2.0

     negative rho (up, down):  0.571E+00 0.000E+00

     total cpu time spent up to now is    13082.1 secs

     total energy              =   -2160.59450687 Ry
     Harris-Foulkes estimate   =   -2160.59455573 Ry
     estimated scf accuracy    <       0.00061158 Ry

     iteration # 70     ecut=    40.00 Ry     beta=0.70
     Davidson diagonalization with overlap
     ethr =  7.35E-09,  avg # of iterations =  2.0

     negative rho (up, down):  0.571E+00 0.000E+00

     total cpu time spent up to now is    13265.5 secs

     total energy              =   -2160.59453262 Ry
     Harris-Foulkes estimate   =   -2160.59453247 Ry
     estimated scf accuracy    <       0.00000947 Ry

     iteration # 71     ecut=    40.00 Ry     beta=0.70
     Davidson diagonalization with overlap
     ethr =  3.83E-09,  avg # of iterations =  1.0

     negative rho (up, down):  0.571E+00 0.000E+00

     total cpu time spent up to now is    13441.6 secs

     total energy              =   -2160.59453192 Ry
     Harris-Foulkes estimate   =   -2160.59453296 Ry
     estimated scf accuracy    <       0.00000771 Ry

     iteration # 72     ecut=    40.00 Ry     beta=0.70
     Davidson diagonalization with overlap
     ethr =  3.12E-09,  avg # of iterations =  1.0

     negative rho (up, down):  0.571E+00 0.000E+00

     total cpu time spent up to now is    13618.7 secs

     total energy              =   -2160.59453188 Ry
     Harris-Foulkes estimate   =   -2160.59453295 Ry
     estimated scf accuracy    <       0.00001071 Ry

     iteration # 73     ecut=    40.00 Ry     beta=0.70
     Davidson diagonalization with overlap
     ethr =  3.12E-09,  avg # of iterations =  1.0

     negative rho (up, down):  0.571E+00 0.000E+00

     total cpu time spent up to now is    13794.5 secs

     total energy              =   -2160.59453258 Ry
     Harris-Foulkes estimate   =   -2160.59453284 Ry
     estimated scf accuracy    <       0.00001449 Ry

     iteration # 74     ecut=    40.00 Ry     beta=0.70
     Davidson diagonalization with overlap
     ethr =  3.12E-09,  avg # of iterations =  1.0

     negative rho (up, down):  0.571E+00 0.000E+00

     total cpu time spent up to now is    13970.9 secs

     total energy              =   -2160.59453280 Ry
     Harris-Foulkes estimate   =   -2160.59453353 Ry
     estimated scf accuracy    <       0.00000959 Ry

     iteration # 75     ecut=    40.00 Ry     beta=0.70
     Davidson diagonalization with overlap
     ethr =  3.12E-09,  avg # of iterations =  1.0

     negative rho (up, down):  0.571E+00 0.000E+00

     total cpu time spent up to now is    14139.9 secs

     total energy              =   -2160.59453303 Ry
     Harris-Foulkes estimate   =   -2160.59453350 Ry
     estimated scf accuracy    <       0.00000536 Ry

     iteration # 76     ecut=    40.00 Ry     beta=0.70
     Davidson diagonalization with overlap
     ethr =  2.17E-09,  avg # of iterations =  1.2

     negative rho (up, down):  0.571E+00 0.000E+00

     total cpu time spent up to now is    14310.5 secs

     total energy              =   -2160.59453167 Ry
     Harris-Foulkes estimate   =   -2160.59453511 Ry
     estimated scf accuracy    <       0.00002241 Ry

     iteration # 77     ecut=    40.00 Ry     beta=0.70
     Davidson diagonalization with overlap
     ethr =  2.17E-09,  avg # of iterations =  2.0

     negative rho (up, down):  0.571E+00 0.000E+00

     total cpu time spent up to now is    14478.4 secs

     total energy              =   -2160.59453229 Ry
     Harris-Foulkes estimate   =   -2160.59453465 Ry
     estimated scf accuracy    <       0.00001594 Ry

     iteration # 78     ecut=    40.00 Ry     beta=0.70
     Davidson diagonalization with overlap
     ethr =  2.17E-09,  avg # of iterations =  1.2

     negative rho (up, down):  0.571E+00 0.000E+00

     total cpu time spent up to now is    14645.2 secs

     total energy              =   -2160.59453155 Ry
     Harris-Foulkes estimate   =   -2160.59453522 Ry
     estimated scf accuracy    <       0.00002362 Ry

     iteration # 79     ecut=    40.00 Ry     beta=0.70
     Davidson diagonalization with overlap
     ethr =  2.17E-09,  avg # of iterations =  2.0

     negative rho (up, down):  0.571E+00 0.000E+00

     total cpu time spent up to now is    14814.6 secs

     total energy              =   -2160.59453030 Ry
     Harris-Foulkes estimate   =   -2160.59453671 Ry
     estimated scf accuracy    <       0.00005710 Ry

     iteration # 80     ecut=    40.00 Ry     beta=0.70
     Davidson diagonalization with overlap
     ethr =  2.17E-09,  avg # of iterations =  2.0

     negative rho (up, down):  0.571E+00 0.000E+00

     total cpu time spent up to now is    14989.2 secs

     total energy              =   -2160.59453273 Ry
     Harris-Foulkes estimate   =   -2160.59453454 Ry
     estimated scf accuracy    <       0.00000864 Ry

     iteration # 81     ecut=    40.00 Ry     beta=0.70
     Davidson diagonalization with overlap
     ethr =  2.17E-09,  avg # of iterations =  1.0

     negative rho (up, down):  0.571E+00 0.000E+00

     total cpu time spent up to now is    15159.4 secs

     total energy              =   -2160.59453377 Ry
     Harris-Foulkes estimate   =   -2160.59453394 Ry
     estimated scf accuracy    <       0.00000621 Ry

     iteration # 82     ecut=    40.00 Ry     beta=0.70
     Davidson diagonalization with overlap
     ethr =  2.17E-09,  avg # of iterations =  1.0

     negative rho (up, down):  0.571E+00 0.000E+00

     total cpu time spent up to now is    15325.7 secs

     total energy              =   -2160.59453366 Ry
     Harris-Foulkes estimate   =   -2160.59453393 Ry
     estimated scf accuracy    <       0.00000258 Ry

     iteration # 83     ecut=    40.00 Ry     beta=0.70
     Davidson diagonalization with overlap
     ethr =  1.04E-09,  avg # of iterations =  1.0

     negative rho (up, down):  0.571E+00 0.000E+00

     total cpu time spent up to now is    15502.9 secs

     total energy              =   -2160.59453365 Ry
     Harris-Foulkes estimate   =   -2160.59453394 Ry
     estimated scf accuracy    <       0.00000382 Ry

     iteration # 84     ecut=    40.00 Ry     beta=0.70
     Davidson diagonalization with overlap
     ethr =  1.04E-09,  avg # of iterations =  1.0

     negative rho (up, down):  0.571E+00 0.000E+00

     total cpu time spent up to now is    15681.2 secs

     total energy              =   -2160.59453384 Ry
     Harris-Foulkes estimate   =   -2160.59453397 Ry
     estimated scf accuracy    <       0.00000265 Ry

     iteration # 85     ecut=    40.00 Ry     beta=0.70
     Davidson diagonalization with overlap
     ethr =  1.04E-09,  avg # of iterations =  1.0

     negative rho (up, down):  0.571E+00 0.000E+00

     total cpu time spent up to now is    15858.7 secs

     total energy              =   -2160.59453394 Ry
     Harris-Foulkes estimate   =   -2160.59453392 Ry
     estimated scf accuracy    <       0.00000186 Ry

     iteration # 86     ecut=    40.00 Ry     beta=0.70
     Davidson diagonalization with overlap
     ethr =  7.52E-10,  avg # of iterations =  1.0

     negative rho (up, down):  0.571E+00 0.000E+00

     total cpu time spent up to now is    16032.8 secs

     total energy              =   -2160.59453386 Ry
     Harris-Foulkes estimate   =   -2160.59453429 Ry
     estimated scf accuracy    <       0.00000341 Ry

     iteration # 87     ecut=    40.00 Ry     beta=0.70
     Davidson diagonalization with overlap
     ethr =  7.52E-10,  avg # of iterations =  1.0

     negative rho (up, down):  0.571E+00 0.000E+00

     total cpu time spent up to now is    16198.1 secs

     total energy              =   -2160.59453411 Ry
     Harris-Foulkes estimate   =   -2160.59453415 Ry
     estimated scf accuracy    <       0.00000183 Ry

     iteration # 88     ecut=    40.00 Ry     beta=0.70
     Davidson diagonalization with overlap
     ethr =  7.40E-10,  avg # of iterations =  1.0

     negative rho (up, down):  0.571E+00 0.000E+00

     total cpu time spent up to now is    16363.3 secs

     total energy              =   -2160.59453414 Ry
     Harris-Foulkes estimate   =   -2160.59453423 Ry
     estimated scf accuracy    <       0.00000170 Ry

     iteration # 89     ecut=    40.00 Ry     beta=0.70
     Davidson diagonalization with overlap
     ethr =  6.88E-10,  avg # of iterations =  1.0

     negative rho (up, down):  0.571E+00 0.000E+00

     total cpu time spent up to now is    16528.5 secs

     total energy              =   -2160.59453416 Ry
     Harris-Foulkes estimate   =   -2160.59453436 Ry
     estimated scf accuracy    <       0.00000222 Ry

     iteration # 90     ecut=    40.00 Ry     beta=0.70
     Davidson diagonalization with overlap
     ethr =  6.88E-10,  avg # of iterations =  1.0

     negative rho (up, down):  0.571E+00 0.000E+00

     total cpu time spent up to now is    16699.1 secs

     total energy              =   -2160.59453337 Ry
     Harris-Foulkes estimate   =   -2160.59453433 Ry
     estimated scf accuracy    <       0.00000158 Ry

     iteration # 91     ecut=    40.00 Ry     beta=0.70
     Davidson diagonalization with overlap
     ethr =  6.42E-10,  avg # of iterations =  2.0

     negative rho (up, down):  0.571E+00 0.000E+00

     total cpu time spent up to now is    16869.5 secs

     total energy              =   -2160.59453319 Ry
     Harris-Foulkes estimate   =   -2160.59453558 Ry
     estimated scf accuracy    <       0.00001834 Ry

     iteration # 92     ecut=    40.00 Ry     beta=0.70
     Davidson diagonalization with overlap
     ethr =  6.42E-10,  avg # of iterations =  2.0

     negative rho (up, down):  0.571E+00 0.000E+00

     total cpu time spent up to now is    17038.7 secs

     total energy              =   -2160.59453430 Ry
     Harris-Foulkes estimate   =   -2160.59453463 Ry
     estimated scf accuracy    <       0.00000192 Ry

     iteration # 93     ecut=    40.00 Ry     beta=0.70
     Davidson diagonalization with overlap
     ethr =  6.42E-10,  avg # of iterations =  1.0

     negative rho (up, down):  0.571E+00 0.000E+00

     total cpu time spent up to now is    17205.8 secs

     total energy              =   -2160.59453444 Ry
     Harris-Foulkes estimate   =   -2160.59453451 Ry
     estimated scf accuracy    <       0.00000120 Ry

     iteration # 94     ecut=    40.00 Ry     beta=0.70
     Davidson diagonalization with overlap
     ethr =  4.85E-10,  avg # of iterations =  1.0

     negative rho (up, down):  0.571E+00 0.000E+00

     total cpu time spent up to now is    17368.8 secs

     End of self-consistent calculation
 --- enter write_ns ---
 LDA+U parameters:
U( 2)     =  8.00000000
alpha( 2) =  0.00000000
atom    3   Tr[ns(na)] =   7.23496
    eigenvalues: 
  0.514  0.556  0.607  0.953  0.988
    eigenvectors:
  0.000  0.163  0.000  0.000  0.837
  0.996  0.000  0.002  0.000  0.001
  0.003  0.054  0.910  0.017  0.015
  0.000  0.782  0.070  0.000  0.147
  0.000  0.001  0.016  0.982  0.000
    occupations:
  0.917  0.010  0.048 -0.152  0.007
  0.010  0.515  0.007 -0.004 -0.009
  0.048  0.007  0.615 -0.008 -0.045
 -0.152 -0.004 -0.008  0.623 -0.001
  0.007 -0.009 -0.045 -0.001  0.947
atom    4   Tr[ns(na)] =   7.22091
    eigenvalues: 
  0.536  0.554  0.608  0.923  0.989
    eigenvectors:
  0.000  0.016  0.963  0.000  0.021
  0.051  0.000  0.000  0.949  0.000
  0.947  0.002  0.000  0.051  0.000
  0.000  0.000  0.021  0.000  0.978
  0.002  0.981  0.016  0.000  0.000
    occupations:
  0.616 -0.004 -0.001  0.055  0.007
 -0.004  0.903  0.085 -0.000 -0.001
 -0.001  0.085  0.556  0.004  0.001
  0.055 -0.000  0.004  0.980  0.000
  0.007 -0.001  0.001  0.000  0.555
atom    9   Tr[ns(na)] =   7.33752
    eigenvalues: 
  0.552  0.580  0.769  0.868  0.900
    eigenvectors:
  0.000  0.143  0.009  0.096  0.753
  0.997  0.002  0.000  0.000  0.000
  0.000  0.000  0.982  0.013  0.005
  0.002  0.856  0.002  0.014  0.126
  0.000  0.000  0.007  0.877  0.116
    occupations:
  0.850 -0.006 -0.012 -0.110  0.010
 -0.006  0.553  0.003  0.004  0.002
 -0.012  0.003  0.771  0.004  0.007
 -0.110  0.004  0.004  0.625 -0.006
  0.010  0.002  0.007 -0.006  0.871
atom   10   Tr[ns(na)] =   7.31984
    eigenvalues: 
  0.469  0.507  0.826  0.873  0.985
    eigenvectors:
  0.988  0.000  0.000  0.000  0.012
  0.000  0.000  0.002  0.998  0.000
  0.000  0.000  0.998  0.002  0.000
  0.012  0.000  0.000  0.000  0.988
  0.000  1.000  0.000  0.000  0.000
    occupations:
  0.475 -0.004  0.004  0.055  0.000
 -0.004  0.873  0.002  0.001  0.000
  0.004  0.002  0.826 -0.001  0.001
  0.055  0.001 -0.001  0.979 -0.000
  0.000  0.000  0.001 -0.000  0.507
atom   16   Tr[ns(na)] =   7.23586
    eigenvalues: 
  0.514  0.556  0.607  0.954  0.988
    eigenvectors:
  0.001  0.163  0.001  0.000  0.836
  0.998  0.000  0.001  0.000  0.001
  0.001  0.049  0.912  0.023  0.015
  0.000  0.787  0.065  0.000  0.148
  0.000  0.001  0.021  0.977  0.000
    occupations:
  0.917 -0.011  0.047 -0.152 -0.008
 -0.011  0.514 -0.006  0.003 -0.009
  0.047 -0.006  0.618 -0.008  0.051
 -0.152  0.003 -0.008  0.623  0.001
 -0.008 -0.009  0.051  0.001  0.946
atom   17   Tr[ns(na)] =   7.25167
    eigenvalues: 
  0.545  0.579  0.603  0.911  0.988
    eigenvectors:
  0.006  0.001  0.973  0.000  0.020
  0.000  0.027  0.000  0.973  0.000
  0.001  0.971  0.001  0.027  0.000
  0.000  0.000  0.020  0.000  0.980
  0.992  0.001  0.007  0.000  0.000
    occupations:
  0.610 -0.003  0.000  0.053  0.005
 -0.003  0.902  0.054  0.000 -0.002
  0.000  0.054  0.588  0.001  0.001
  0.053  0.000  0.001  0.980 -0.000
  0.005 -0.002  0.001 -0.000  0.545
atom   22   Tr[ns(na)] =   7.33216
    eigenvalues: 
  0.551  0.581  0.759  0.866  0.909
    eigenvectors:
  0.000  0.141  0.002  0.085  0.771
  0.999  0.000  0.000  0.000  0.000
  0.000  0.000  0.985  0.015  0.000
  0.000  0.859  0.000  0.012  0.129
  0.000  0.000  0.012  0.888  0.099
    occupations:
  0.859  0.008  0.005 -0.112  0.011
  0.008  0.552  0.003 -0.003 -0.001
  0.005  0.003  0.760 -0.003 -0.012
 -0.112 -0.003 -0.003  0.627 -0.008
  0.011 -0.001 -0.012 -0.008  0.869
atom   23   Tr[ns(na)] =   7.23569
    eigenvalues: 
  0.547  0.554  0.612  0.922  0.984
    eigenvectors:
  0.000  0.000  0.977  0.000  0.022
  0.000  0.000  0.000  1.000  0.000
  0.999  0.000  0.000  0.000  0.000
  0.000  0.000  0.022  0.000  0.978
  0.000  1.000  0.000  0.000  0.000
    occupations:
  0.620  0.004 -0.001  0.055  0.001
  0.004  0.922  0.005 -0.000  0.001
 -0.001  0.005  0.547  0.002 -0.000
  0.055 -0.000  0.002  0.976 -0.001
  0.001  0.001 -0.000 -0.001  0.554
N of occupied +U levels =  58.1686088
 --- exit write_ns ---

          k = 0.0000 0.0000 0.0000 ( 30363 PWs)   bands (ev):

   -73.7773 -73.7064 -73.6068 -73.4118 -73.3965 -73.3605 -73.3472 -73.0036
   -44.0780 -44.0032 -43.8996 -43.8959 -43.8068 -43.6923 -43.6203 -43.6104
   -43.5956 -43.5039 -43.5000 -43.4753 -43.4513 -43.4275 -43.3953 -43.3896
   -43.3738 -43.3341 -43.2930 -43.2399 -43.0941 -43.0232 -42.9308 -42.7574
   -20.9047 -20.4991 -20.4593 -20.2120 -20.1143 -20.1010 -19.9629 -19.9252
   -19.8603 -19.5750 -19.5296 -19.4909 -19.4268 -19.3950 -19.3039 -19.1197
   -18.9481 -18.8667 -18.7541 -10.4446 -10.1245  -9.7953  -9.5542  -9.3084
    -9.2357  -8.9902  -8.6903  -8.2250  -8.1270  -8.0804  -7.9392  -7.7336
    -7.6334  -7.6100  -7.5713  -7.4297  -7.3804  -7.3009  -7.2379  -7.1298
    -7.0623  -6.5744  -6.4862  -6.2968  -6.1721  -5.9538  -5.8343  -5.6873
    -5.6599  -5.4006  -5.2477  -5.2321  -5.1573  -5.0174  -4.9689  -4.8092
    -4.7696  -4.6656  -4.5991  -4.5175  -4.4408  -4.3327  -4.2420  -4.1999
    -4.1510  -4.1107  -4.0177  -3.9940  -3.9727  -3.9334  -3.8978  -3.8585
    -3.7861  -3.7740  -3.7299  -3.6334  -3.6093  -3.4793  -3.3578  -3.3225
    -3.2710  -3.1886  -3.0415  -2.8685  -2.7928  -2.7196  -2.4853  -2.2743
    -1.7697  -1.6964  -1.5664  -1.4670  -1.2664  -1.2296  -0.9217  -0.7579
    -0.5616  -0.3083  -0.0325   0.4340   0.9815   1.6858   1.7693   2.2369
     2.4772   2.6531   2.6892   2.7077   2.9467   3.3266   3.4081   3.5149
     3.6681   3.7054   4.0180   4.1151   4.1928   4.2027   4.4774   4.7154
     5.1577   5.9550   6.2347   6.2968   6.6425   6.8362   6.9768   7.2381
     7.4223   7.4733   7.5214   7.8011   7.8597   7.9582   7.9705   8.0615
     8.1327   8.2584   8.3552   8.3937   8.4418   8.5638   8.7004   8.8542
     8.9174   8.9363   9.1567   9.2024   9.2769   9.4184   9.4493   9.5554
     9.6319   9.7429   9.8090   9.8936   9.9453   9.9976  10.1445  10.2512
    10.4483  10.7204  10.7528  10.8699  10.9900  11.0782  11.1487  11.2053
    11.2849  11.3005  11.3454  11.4836  11.6301  11.6434  11.6947  11.7235
    11.7568  11.7670  11.9114  11.9460  11.9791  12.1152  12.1452  12.2430
    12.2894  12.4111  12.4859  12.4901  12.5839  12.6238  12.6530  12.7075
    12.7685  12.8235  12.9190  12.9865  13.0697  13.0995  13.1413  13.2897
    13.3119  13.4303  13.4852  13.6452  13.7019  13.8834  13.9147  13.9702
    14.0268  14.1263  14.1892  14.2237  14.3112  14.3659  14.5514  14.6160
    14.7275  14.8046  14.8756  15.0547  15.1248  15.1283  15.2996  15.4362
    15.4941  15.5811  15.7557  15.8216  15.9486  15.9934  16.1110  16.1815
    16.2395  16.2886  16.4340  16.5344  16.7293  16.8579  16.8953  16.9088
    16.9436  17.1354  17.2323  17.2730  17.3471  17.4311  17.4583  17.5212
    17.7350  17.8337  17.8584  17.9236  18.0728  18.1503  18.2283  18.2909
    18.4204  18.4738  18.5477  18.6150  18.7183  18.7553  18.7958  18.8309
    18.8422  18.9336  18.9816  19.0145  19.0805  19.0897  19.2145  19.2331
    19.2710  19.3249  19.3965  19.4214  19.5317  19.6111  19.6172  19.7012
    19.7598  19.8713  19.9492  19.9949  20.0312  20.0979  20.1352  20.2089
    20.2688  20.2846  20.3671  20.4289  20.4572  20.5787  20.6759  20.7421
    20.7673  20.7886  20.8516  20.9041  20.9462  21.0888  21.1746  21.1958
    21.2431  21.3085  21.4196  21.4717  21.5309  21.6878  21.7322  21.7444
    21.8220  21.8498  21.9140  21.9482  22.0484  22.0625  22.1891  22.2264
    22.3112  22.3481  22.4424  22.4942  22.5125  22.5742

          k = 0.0000 0.2435 0.0000 ( 30432 PWs)   bands (ev):

   -73.7775 -73.7065 -73.6071 -73.4114 -73.3965 -73.3601 -73.3472 -73.0038
   -44.0780 -44.0033 -43.8984 -43.8959 -43.8056 -43.6885 -43.6249 -43.6120
   -43.5950 -43.5054 -43.5005 -43.4781 -43.4525 -43.4244 -43.3952 -43.3896
   -43.3711 -43.3340 -43.2930 -43.2400 -43.0935 -43.0230 -42.9309 -42.7575
   -20.8545 -20.4661 -20.3552 -20.2120 -20.1065 -20.0863 -19.9513 -19.9206
   -19.8658 -19.7882 -19.6924 -19.3994 -19.3197 -19.2823 -19.2364 -19.1253
   -19.0876 -19.0305 -18.7537 -10.2074  -9.8390  -9.7078  -9.6699  -9.5458
    -9.2942  -9.1733  -8.9897  -8.0600  -7.9524  -7.9167  -7.7602  -7.6378
    -7.5814  -7.5040  -7.3975  -7.3432  -7.2892  -7.1926  -7.1415  -6.9276
    -6.7197  -6.6121  -6.4461  -6.4016  -6.1889  -6.1054  -5.9331  -5.7174
    -5.5069  -5.4796  -5.4576  -5.4197  -5.4062  -5.2331  -5.2187  -5.1449
    -5.0911  -4.9929  -4.7622  -4.6705  -4.6334  -4.5761  -4.3979  -4.3388
    -4.2320  -4.1718  -4.1007  -4.0343  -3.9420  -3.9109  -3.8157  -3.8047
    -3.6987  -3.5882  -3.5274  -3.3952  -3.3384  -3.2203  -3.2114  -3.0954
    -3.0561  -2.9547  -2.8911  -2.8517  -2.7865  -2.6932  -2.5503  -2.4338
    -2.3893  -2.1331  -1.6051  -1.5600  -1.3520  -0.8427  -0.6030  -0.5853
    -0.4405  -0.3120  -0.2069   0.2253   1.1924   1.6197   1.8126   1.8554
     1.9405   2.4743   2.9492   3.2749   3.5030   3.6091   3.6271   3.7261
     3.8006   3.8288   3.8731   3.9947   4.1728   4.3311   4.4481   4.8905
     5.3441   5.5179   5.9286   6.2160   6.3397   6.5085   6.7331   6.7889
     7.1137   7.2155   7.4552   7.5574   7.7731   8.0417   8.0579   8.1783
     8.2171   8.2770   8.3243   8.4971   8.6173   8.7203   8.9193   8.9917
     9.0641   9.2684   9.2992   9.3684   9.4289   9.6609   9.6998   9.7406
     9.7744   9.8623   9.9390   9.9560  10.0059  10.0933  10.1142  10.1603
    10.2826  10.3485  10.4283  10.5263  10.6166  10.7199  10.7785  11.0278
    11.0957  11.1756  11.2113  11.2612  11.3657  11.4106  11.5223  11.5861
    11.6287  11.7511  11.9477  11.9910  12.0820  12.1963  12.3378  12.4872
    12.5607  12.6289  12.7210  12.7726  12.8193  12.8528  12.9358  13.1166
    13.1675  13.2973  13.3502  13.3913  13.4437  13.5381  13.6266  13.7186
    13.7381  13.7981  13.8496  13.9628  14.0487  14.0972  14.1413  14.2248
    14.3077  14.3790  14.4341  14.5111  14.5577  14.6252  14.7015  14.7157
    14.8554  14.9567  15.0306  15.1154  15.1647  15.2242  15.3563  15.3857
    15.4587  15.5623  15.6374  15.7546  15.7735  15.9016  15.9594  16.0268
    16.0939  16.1641  16.3108  16.3354  16.4355  16.5328  16.6069  16.6238
    16.6798  16.7541  16.8385  16.8946  17.0339  17.0668  17.2279  17.3567
    17.4336  17.4653  17.5032  17.5884  17.6770  17.7310  17.9043  18.1142
    18.1742  18.2262  18.2708  18.3731  18.4826  18.5514  18.6242  18.6811
    18.8021  18.8447  18.8949  18.9436  18.9910  19.0323  19.0895  19.1028
    19.1545  19.2163  19.2621  19.3276  19.3496  19.4092  19.5487  19.5930
    19.6183  19.6883  19.7288  19.7963  19.8298  19.8597  19.9363  19.9933
    20.0326  20.1501  20.1665  20.2102  20.2789  20.3792  20.4255  20.4492
    20.5341  20.5596  20.6525  20.6870  20.7636  20.7749  20.8964  20.9662
    20.9817  21.0947  21.1291  21.1659  21.2244  21.2529  21.2872  21.3041
    21.3706  21.4444  21.5069  21.5742  21.6248  21.6526  21.6724  21.7316
    21.7769  21.8360  21.9820  22.0273  22.0734  22.1637

          k = 0.0000-0.4870 0.0000 ( 30448 PWs)   bands (ev):

   -73.7777 -73.7067 -73.6073 -73.4110 -73.3965 -73.3597 -73.3472 -73.0039
   -44.0781 -44.0033 -43.8971 -43.8959 -43.8043 -43.6838 -43.6305 -43.6133
   -43.5945 -43.5069 -43.5010 -43.4806 -43.4534 -43.4216 -43.3951 -43.3895
   -43.3686 -43.3338 -43.2930 -43.2400 -43.0929 -43.0228 -42.9309 -42.7577
   -20.8060 -20.4317 -20.2348 -20.1584 -20.1194 -20.0947 -19.9286 -19.8912
   -19.8899 -19.8617 -19.7813 -19.4017 -19.3715 -19.2344 -19.2269 -19.1762
   -19.1417 -19.1096 -18.7549 -10.0292  -9.9462  -9.5807  -9.5432  -9.4813
    -9.3537  -9.3258  -9.0025  -8.0222  -7.8833  -7.6575  -7.5603  -7.5079
    -7.4841  -7.3662  -7.3582  -7.2630  -7.2120  -7.1379  -7.1175  -6.8875
    -6.7317  -6.6931  -6.3749  -6.1800  -6.1591  -6.1350  -6.0573  -6.0472
    -5.7717  -5.7176  -5.6052  -5.5767  -5.5276  -5.4600  -5.4434  -5.1354
    -5.1178  -5.0608  -4.8052  -4.7505  -4.7383  -4.6737  -4.5108  -4.3421
    -4.2058  -4.0992  -4.0817  -4.0251  -3.9207  -3.8845  -3.8238  -3.7418
    -3.6888  -3.5659  -3.4508  -3.4223  -3.3922  -3.3392  -3.2149  -3.1640
    -3.0280  -2.9861  -2.8659  -2.8303  -2.7710  -2.5744  -2.5148  -2.4514
    -2.3699  -2.1512  -1.5651  -1.4054  -1.2092  -1.0529  -0.7688  -0.4195
    -0.2690  -0.1714  -0.1458  -0.1037   1.2563   1.3474   1.4902   1.8358
     2.2587   2.6326   2.9845   3.4978   3.5955   3.6176   3.6892   3.7510
     3.7628   4.0983   4.1208   4.2388   4.3634   4.3889   4.6309   5.0444
     5.1403   5.2526   5.5608   5.7246   6.0965   6.2881   6.7885   6.9685
     7.0378   7.0935   7.3490   7.4228   7.5909   7.6600   7.9395   8.2178
     8.3693   8.5266   8.6332   8.6564   8.8393   8.9096   8.9442   8.9693
     8.9799   9.1458   9.2052   9.2778   9.3264   9.3909   9.5693   9.6030
     9.6616   9.7136   9.7338   9.8523   9.9322  10.0850  10.1367  10.1921
    10.2315  10.2351  10.4406  10.6898  10.7919  10.9205  10.9953  11.1948
    11.2474  11.3234  11.3971  11.4355  11.6239  11.6784  11.7494  11.8203
    11.8778  11.9804  12.0591  12.1267  12.2124  12.3006  12.4256  12.4753
    12.6091  12.6783  12.7640  12.8341  12.8707  12.9048  13.0352  13.1939
    13.2121  13.2951  13.3604  13.4372  13.5200  13.5854  13.6238  13.6880
    13.7360  13.7953  13.9082  13.9915  14.0625  14.2362  14.2581  14.3606
    14.4460  14.5236  14.5786  14.6161  14.7344  14.8200  14.9202  15.1600
    15.1812  15.3072  15.3316  15.4478  15.5098  15.5426  15.6328  15.7338
    15.7443  15.8493  15.9272  15.9356  16.0732  16.1324  16.1576  16.1843
    16.2453  16.2717  16.3490  16.3874  16.4672  16.4822  16.4858  16.5275
    16.5847  16.6780  16.7057  16.7536  16.8261  16.8979  16.9342  16.9535
    16.9827  17.0152  17.2868  17.3641  17.4157  17.4969  17.5022  17.6427
    17.8274  17.8570  17.9059  17.9542  18.0776  18.1229  18.1721  18.2263
    18.2761  18.3363  18.4399  18.4783  18.5088  18.5929  18.6025  18.6560
    18.6928  18.8180  18.8486  18.9606  18.9911  19.0173  19.0301  19.1373
    19.1954  19.3110  19.3970  19.6461  19.7162  19.7617  19.8678  19.9522
    20.0073  20.1302  20.1939  20.2589  20.3196  20.4066  20.4417  20.4718
    20.5022  20.5320  20.5483  20.5774  20.5969  20.6049  20.6816  20.6847
    20.7212  20.7346  20.8235  20.8453  20.9554  20.9846  21.0485  21.0953
    21.1753  21.2210  21.2528  21.2927  21.3225  21.4817  21.5028  21.5644
    21.6212  21.6483  21.6819  21.7400  21.7640  21.8106

          k = 0.2500 0.0000 0.0000 ( 30394 PWs)   bands (ev):

   -73.7759 -73.7053 -73.6056 -73.4093 -73.3968 -73.3583 -73.3469 -73.0024
   -44.0781 -44.0034 -43.8989 -43.8963 -43.8067 -43.6911 -43.6209 -43.6101
   -43.5712 -43.5041 -43.4941 -43.4760 -43.4579 -43.4230 -43.4111 -43.3903
   -43.3628 -43.3291 -43.3006 -43.2640 -43.0737 -43.0390 -42.9578 -42.7575
   -20.7881 -20.3885 -20.3469 -20.2513 -20.1243 -20.0508 -19.9518 -19.9061
   -19.8429 -19.6541 -19.6194 -19.4745 -19.3683 -19.3523 -19.3120 -19.2226
   -19.0423 -18.9518 -18.8343 -10.1224  -9.8257  -9.5333  -9.3004  -9.1730
    -9.0199  -8.8354  -8.5397  -8.3361  -8.2513  -8.1133  -8.0048  -7.9470
    -7.8348  -7.7857  -7.7031  -7.6137  -7.4605  -7.2331  -7.1504  -7.1232
    -6.9085  -6.6543  -6.5112  -6.3706  -6.2597  -6.2278  -6.0453  -5.9881
    -5.6704  -5.5701  -5.4269  -5.3920  -5.3686  -5.2360  -5.1414  -5.0797
    -4.9245  -4.8744  -4.8333  -4.7144  -4.6056  -4.5365  -4.4782  -4.3753
    -4.3196  -4.1894  -4.0934  -3.9919  -3.9418  -3.8740  -3.8210  -3.6830
    -3.6109  -3.5572  -3.4609  -3.4301  -3.3392  -3.2977  -3.1348  -3.1126
    -2.9518  -2.8844  -2.7796  -2.6317  -2.4745  -2.4242  -2.3517  -2.2625
    -1.7851  -1.6215  -1.5152  -1.3717  -1.3327  -1.1751  -1.1025  -0.7325
    -0.5620  -0.4310  -0.1596   0.2973   1.1234   1.7820   1.9560   2.3100
     2.5797   2.6165   2.7385   2.7985   3.0032   3.0426   3.4433   3.6066
     3.6610   3.6724   3.7307   3.8761   3.9261   4.4221   4.5447   4.9341
     5.4135   5.5423   6.0048   6.2540   6.4080   6.5276   6.6164   6.8322
     7.2263   7.4062   7.5060   7.6478   7.7000   7.7795   8.0006   8.0697
     8.1630   8.3109   8.4819   8.5635   8.6182   8.7254   8.8825   8.9330
     9.0735   9.2245   9.2666   9.3924   9.4158   9.5482   9.6058   9.7361
     9.8006   9.8626   9.8964   9.9912  10.0560  10.1436  10.1519  10.2458
    10.3081  10.3940  10.5140  10.5436  10.6568  10.7684  10.9533  11.0195
    11.0920  11.2476  11.2682  11.3533  11.4527  11.4873  11.6093  11.6875
    11.7193  11.7772  11.9433  12.0102  12.1319  12.1941  12.2777  12.3495
    12.4592  12.5366  12.6483  12.7201  12.7594  12.8991  12.9499  13.0123
    13.1493  13.1989  13.2484  13.3071  13.4104  13.5522  13.7221  13.7907
    13.8181  13.8398  13.8801  13.9456  14.0602  14.1656  14.2110  14.2660
    14.3260  14.3702  14.4245  14.4664  14.5427  14.6006  14.6911  14.7266
    14.8831  14.9914  15.1224  15.1733  15.2028  15.3296  15.4639  15.5426
    15.6293  15.7126  15.8161  15.8321  15.9005  16.0076  16.0573  16.0709
    16.1121  16.1901  16.2606  16.3055  16.3885  16.4530  16.5354  16.6308
    16.7484  16.7699  16.8890  16.9452  17.0044  17.1190  17.2273  17.3076
    17.3646  17.4049  17.4829  17.5202  17.6186  17.6894  17.7910  17.8020
    17.8799  18.0299  18.1626  18.1866  18.3247  18.3517  18.4616  18.5725
    18.6735  18.7224  18.8632  18.9771  19.0481  19.0734  19.1218  19.1959
    19.2534  19.3217  19.3689  19.4181  19.4378  19.4837  19.5235  19.5672
    19.6083  19.6673  19.7128  19.7294  19.7876  19.8010  19.8834  19.9697
    20.0611  20.1108  20.1667  20.2156  20.2625  20.3215  20.3615  20.5274
    20.5521  20.6197  20.6630  20.6968  20.7484  20.8046  20.8455  20.8789
    20.9248  20.9709  20.9854  21.0705  21.1802  21.1955  21.2367  21.2805
    21.3613  21.3869  21.4132  21.5460  21.6050  21.6461  21.6776  21.7134
    21.7888  21.8130  21.9029  21.9769  22.0348  22.0886

          k = 0.2500 0.2435 0.0000 ( 30434 PWs)   bands (ev):

   -73.7761 -73.7054 -73.6058 -73.4090 -73.3967 -73.3579 -73.3468 -73.0025
   -44.0782 -44.0034 -43.8976 -43.8962 -43.8055 -43.6866 -43.6238 -43.6141
   -43.5707 -43.5054 -43.4943 -43.4782 -43.4588 -43.4228 -43.4085 -43.3901
   -43.3611 -43.3291 -43.3006 -43.2642 -43.0732 -43.0387 -42.9578 -42.7577
   -20.7476 -20.3543 -20.2789 -20.2184 -20.1271 -20.0246 -19.9382 -19.8998
   -19.8413 -19.7314 -19.6816 -19.3974 -19.3596 -19.3251 -19.3031 -19.2331
   -19.1693 -19.1035 -18.8340  -9.9127  -9.5582  -9.4619  -9.4201  -9.2853
    -9.0874  -8.9220  -8.8303  -8.2131  -8.0874  -7.9906  -7.9055  -7.7464
    -7.7229  -7.6472  -7.6051  -7.5638  -7.3866  -7.2163  -7.0976  -6.8613
    -6.6670  -6.5533  -6.4774  -6.3545  -6.2495  -6.1749  -6.1275  -6.0211
    -5.9733  -5.7841  -5.7254  -5.6403  -5.6132  -5.4921  -5.2683  -5.2280
    -5.1869  -5.1021  -4.9726  -4.8620  -4.8141  -4.6347  -4.5119  -4.4097
    -4.3356  -4.2892  -4.1871  -4.1328  -3.8919  -3.8524  -3.7509  -3.6761
    -3.4812  -3.3676  -3.3120  -3.2868  -3.2108  -3.1711  -2.9678  -2.8845
    -2.7975  -2.7064  -2.6710  -2.6079  -2.5206  -2.4513  -2.3936  -2.2594
    -2.1085  -2.0326  -1.6407  -1.3397  -1.2654  -0.8916  -0.7387  -0.6966
    -0.5229  -0.4736  -0.2948   0.1174   1.2869   1.7858   1.9302   2.0472
     2.0820   2.4861   2.8909   3.0361   3.2545   3.3595   3.4677   3.6288
     3.6454   3.7712   3.8942   3.9746   4.0945   4.4423   4.6951   5.1264
     5.5637   5.7043   5.7675   6.0823   6.3644   6.4993   6.6008   6.6366
     6.8308   6.9658   7.0359   7.2548   7.4991   7.6929   7.8298   7.9549
     8.0621   8.2460   8.3690   8.4320   8.5501   8.6114   8.7783   8.8202
     8.9141   9.0687   9.1923   9.3530   9.4764   9.5704   9.6265   9.7839
     9.9313  10.0513  10.1219  10.1361  10.2357  10.3779  10.4134  10.4647
    10.5064  10.6426  10.7162  10.9135  10.9413  10.9822  11.1314  11.2590
    11.3169  11.4334  11.5389  11.6093  11.6506  11.7878  11.8486  11.8877
    11.9715  12.0316  12.0947  12.1979  12.2161  12.3420  12.4055  12.5330
    12.6043  12.6606  12.6970  12.7762  12.8099  12.8821  12.9448  12.9783
    13.1023  13.1510  13.2044  13.3343  13.4822  13.5251  13.5722  13.6787
    13.7403  13.9326  13.9605  14.0387  14.1258  14.2016  14.3100  14.3914
    14.4399  14.5469  14.5783  14.6131  14.6499  14.8253  14.8868  14.9854
    15.0386  15.1262  15.1993  15.2752  15.3418  15.3743  15.5227  15.5663
    15.6331  15.6902  15.7698  15.8334  15.8696  15.9180  15.9751  16.0199
    16.1630  16.1757  16.2075  16.3064  16.3375  16.3700  16.4466  16.5887
    16.6193  16.7188  16.7621  16.8153  16.9033  16.9571  17.0168  17.1063
    17.1866  17.2384  17.3040  17.3556  17.4245  17.4880  17.5244  17.5353
    17.6414  17.6916  17.7499  17.8346  17.9507  17.9700  18.0303  18.0510
    18.0912  18.1861  18.2210  18.3139  18.3533  18.4631  18.5742  18.5928
    18.7027  18.7948  18.8360  18.8824  18.9482  19.0487  19.0939  19.1573
    19.2303  19.3076  19.4069  19.4617  19.4828  19.6864  19.7092  19.7469
    19.8354  19.9029  19.9832  20.0461  20.0831  20.1948  20.2192  20.3997
    20.4689  20.5927  20.6601  20.7200  20.8044  20.8405  20.8910  20.9646
    20.9983  21.0727  21.1384  21.2268  21.2716  21.3040  21.3300  21.4016
    21.4584  21.5119  21.5856  21.6708  21.7098  21.7467  21.8150  21.9121
    21.9498  21.9869  22.0208  22.0904  22.1592  22.2067

          k = 0.2500-0.4870 0.0000 ( 30468 PWs)   bands (ev):

   -73.7763 -73.7055 -73.6060 -73.4086 -73.3966 -73.3576 -73.3467 -73.0027
   -44.0782 -44.0034 -43.8966 -43.8960 -43.8042 -43.6822 -43.6288 -43.6151
   -43.5704 -43.5066 -43.4948 -43.4801 -43.4590 -43.4228 -43.4077 -43.3899
   -43.3594 -43.3290 -43.3006 -43.2638 -43.0727 -43.0384 -42.9577 -42.7579
   -20.7091 -20.3156 -20.2569 -20.1364 -20.1088 -19.9890 -19.9256 -19.8490
   -19.8296 -19.8010 -19.7229 -19.4293 -19.3710 -19.3158 -19.2961 -19.2871
   -19.2616 -19.2116 -18.8352  -9.7589  -9.6710  -9.3224  -9.2874  -9.2287
    -9.1438  -9.0258  -8.8431  -8.1855  -7.9595  -7.8430  -7.7566  -7.5670
    -7.5107  -7.4852  -7.3419  -7.2853  -7.2342  -7.1728  -7.0866  -6.9086
    -6.8850  -6.7084  -6.6068  -6.4943  -6.3974  -6.2567  -6.1926  -6.1506
    -6.0707  -5.9650  -5.8335  -5.7602  -5.7257  -5.4740  -5.3910  -5.3092
    -5.2528  -5.1977  -5.1459  -5.0656  -4.9661  -4.8041  -4.7339  -4.5391
    -4.4485  -4.0889  -4.0458  -3.9815  -3.9456  -3.7906  -3.6506  -3.5536
    -3.4389  -3.3504  -3.2813  -3.2163  -3.1282  -3.0783  -3.0144  -3.0007
    -2.9269  -2.7699  -2.7513  -2.7201  -2.5520  -2.4326  -2.2615  -2.1699
    -2.0504  -1.7880  -1.3851  -1.3424  -1.2336  -1.0940  -0.7807  -0.5600
    -0.4629  -0.2693  -0.2604  -0.2236   1.3711   1.4719   1.6158   2.0515
     2.2988   2.6840   2.8526   3.0850   3.1196   3.2233   3.6034   3.6567
     3.7205   3.9667   3.9901   4.2598   4.4929   4.5502   4.8849   5.2900
     5.3817   5.5052   5.7985   5.9833   6.0223   6.3290   6.5536   6.6048
     6.7304   7.0809   7.1439   7.2725   7.3326   7.4004   7.4729   7.6828
[...]
     Harris-Foulkes estimate   =   -2160.60923491 Ry
     estimated scf accuracy    <       0.00005588 Ry

     iteration # 62     ecut=    40.00 Ry     beta=0.70
     Davidson diagonalization with overlap
     ethr =  1.01E-08,  avg # of iterations =  1.0

     negative rho (up, down):  0.571E+00 0.000E+00

     total cpu time spent up to now is    69240.0 secs

     total energy              =   -2160.60922152 Ry
     Harris-Foulkes estimate   =   -2160.60924021 Ry
     estimated scf accuracy    <       0.00007576 Ry

     iteration # 63     ecut=    40.00 Ry     beta=0.70
     Davidson diagonalization with overlap
     ethr =  1.01E-08,  avg # of iterations =  2.0

     negative rho (up, down):  0.571E+00 0.000E+00

     total cpu time spent up to now is    69416.9 secs

     total energy              =   -2160.60911030 Ry
     Harris-Foulkes estimate   =   -2160.60934053 Ry
     estimated scf accuracy    <       0.00287312 Ry

     iteration # 64     ecut=    40.00 Ry     beta=0.70
     Davidson diagonalization with overlap
     ethr =  1.01E-08,  avg # of iterations =  2.0

     negative rho (up, down):  0.571E+00 0.000E+00

     total cpu time spent up to now is    69590.7 secs

     total energy              =   -2160.60922449 Ry
     Harris-Foulkes estimate   =   -2160.60924196 Ry
     estimated scf accuracy    <       0.00012911 Ry

     iteration # 65     ecut=    40.00 Ry     beta=0.70
     Davidson diagonalization with overlap
     ethr =  1.01E-08,  avg # of iterations =  1.9

     negative rho (up, down):  0.571E+00 0.000E+00

     total cpu time spent up to now is    69764.5 secs

     total energy              =   -2160.60923568 Ry
     Harris-Foulkes estimate   =   -2160.60923596 Ry
     estimated scf accuracy    <       0.00005051 Ry

     iteration # 66     ecut=    40.00 Ry     beta=0.70
     Davidson diagonalization with overlap
     ethr =  1.01E-08,  avg # of iterations =  1.0

     negative rho (up, down):  0.571E+00 0.000E+00

     total cpu time spent up to now is    69934.9 secs

     total energy              =   -2160.60923633 Ry
     Harris-Foulkes estimate   =   -2160.60923614 Ry
     estimated scf accuracy    <       0.00004354 Ry

     iteration # 67     ecut=    40.00 Ry     beta=0.70
     Davidson diagonalization with overlap
     ethr =  1.01E-08,  avg # of iterations =  1.0

     negative rho (up, down):  0.571E+00 0.000E+00

     total cpu time spent up to now is    70105.6 secs

     total energy              =   -2160.60923575 Ry
     Harris-Foulkes estimate   =   -2160.60923869 Ry
     estimated scf accuracy    <       0.00008700 Ry

     iteration # 68     ecut=    40.00 Ry     beta=0.70
     Davidson diagonalization with overlap
     ethr =  1.01E-08,  avg # of iterations =  1.0

     negative rho (up, down):  0.571E+00 0.000E+00

     total cpu time spent up to now is    70273.8 secs

     total energy              =   -2160.60923860 Ry
     Harris-Foulkes estimate   =   -2160.60923891 Ry
     estimated scf accuracy    <       0.00005104 Ry

     iteration # 69     ecut=    40.00 Ry     beta=0.70
     Davidson diagonalization with overlap
     ethr =  1.01E-08,  avg # of iterations =  1.0

     negative rho (up, down):  0.571E+00 0.000E+00

     total cpu time spent up to now is    70436.3 secs

     total energy              =   -2160.60923676 Ry
     Harris-Foulkes estimate   =   -2160.60923904 Ry
     estimated scf accuracy    <       0.00004622 Ry

     iteration # 70     ecut=    40.00 Ry     beta=0.70
     Davidson diagonalization with overlap
     ethr =  1.01E-08,  avg # of iterations =  1.0

     negative rho (up, down):  0.571E+00 0.000E+00

     total cpu time spent up to now is    70601.5 secs

     total energy              =   -2160.60923681 Ry
     Harris-Foulkes estimate   =   -2160.60923807 Ry
     estimated scf accuracy    <       0.00005178 Ry

     iteration # 71     ecut=    40.00 Ry     beta=0.70
     Davidson diagonalization with overlap
     ethr =  1.01E-08,  avg # of iterations =  1.0

     negative rho (up, down):  0.571E+00 0.000E+00

     total cpu time spent up to now is    70775.3 secs

     total energy              =   -2160.60923756 Ry
     Harris-Foulkes estimate   =   -2160.60923796 Ry
     estimated scf accuracy    <       0.00004405 Ry

     iteration # 72     ecut=    40.00 Ry     beta=0.70
     Davidson diagonalization with overlap
     ethr =  1.01E-08,  avg # of iterations =  1.0

     negative rho (up, down):  0.571E+00 0.000E+00

     total cpu time spent up to now is    70944.2 secs

     total energy              =   -2160.60921834 Ry
     Harris-Foulkes estimate   =   -2160.60923978 Ry
     estimated scf accuracy    <       0.00004002 Ry

     iteration # 73     ecut=    40.00 Ry     beta=0.70
     Davidson diagonalization with overlap
     ethr =  1.01E-08,  avg # of iterations =  2.0

     negative rho (up, down):  0.571E+00 0.000E+00

     total cpu time spent up to now is    71131.4 secs

     total energy              =   -2160.60910527 Ry
     Harris-Foulkes estimate   =   -2160.60933800 Ry
     estimated scf accuracy    <       0.00283131 Ry

     iteration # 74     ecut=    40.00 Ry     beta=0.70
     Davidson diagonalization with overlap
     ethr =  1.01E-08,  avg # of iterations =  2.0

     negative rho (up, down):  0.571E+00 0.000E+00

     total cpu time spent up to now is    71321.5 secs

     total energy              =   -2160.60921140 Ry
     Harris-Foulkes estimate   =   -2160.60926030 Ry
     estimated scf accuracy    <       0.00033964 Ry

     iteration # 75     ecut=    40.00 Ry     beta=0.70
     Davidson diagonalization with overlap
     ethr =  1.01E-08,  avg # of iterations =  2.0

     negative rho (up, down):  0.571E+00 0.000E+00

     total cpu time spent up to now is    71504.1 secs

     total energy              =   -2160.60923860 Ry
     Harris-Foulkes estimate   =   -2160.60923801 Ry
     estimated scf accuracy    <       0.00004619 Ry

     iteration # 76     ecut=    40.00 Ry     beta=0.70
     Davidson diagonalization with overlap
     ethr =  1.01E-08,  avg # of iterations =  1.0

     negative rho (up, down):  0.571E+00 0.000E+00

     total cpu time spent up to now is    71680.8 secs

     total energy              =   -2160.60923904 Ry
     Harris-Foulkes estimate   =   -2160.60923960 Ry
     estimated scf accuracy    <       0.00004306 Ry

     iteration # 77     ecut=    40.00 Ry     beta=0.70
     Davidson diagonalization with overlap
     ethr =  1.01E-08,  avg # of iterations =  1.0

     negative rho (up, down):  0.571E+00 0.000E+00

     total cpu time spent up to now is    71857.8 secs

     total energy              =   -2160.60923794 Ry
     Harris-Foulkes estimate   =   -2160.60924115 Ry
     estimated scf accuracy    <       0.00007644 Ry

     iteration # 78     ecut=    40.00 Ry     beta=0.70
     Davidson diagonalization with overlap
     ethr =  1.01E-08,  avg # of iterations =  1.0

     negative rho (up, down):  0.571E+00 0.000E+00

     total cpu time spent up to now is    72033.6 secs

     total energy              =   -2160.60923983 Ry
     Harris-Foulkes estimate   =   -2160.60923965 Ry
     estimated scf accuracy    <       0.00004552 Ry

     iteration # 79     ecut=    40.00 Ry     beta=0.70
     Davidson diagonalization with overlap
     ethr =  1.01E-08,  avg # of iterations =  1.0

     negative rho (up, down):  0.571E+00 0.000E+00

     total cpu time spent up to now is    72212.5 secs

     total energy              =   -2160.60923986 Ry
     Harris-Foulkes estimate   =   -2160.60924018 Ry
     estimated scf accuracy    <       0.00004195 Ry

     iteration # 80     ecut=    40.00 Ry     beta=0.70
     Davidson diagonalization with overlap
     ethr =  1.01E-08,  avg # of iterations =  1.0

     negative rho (up, down):  0.571E+00 0.000E+00

     total cpu time spent up to now is    72389.3 secs

     total energy              =   -2160.60923905 Ry
     Harris-Foulkes estimate   =   -2160.60924218 Ry
     estimated scf accuracy    <       0.00006227 Ry

     iteration # 81     ecut=    40.00 Ry     beta=0.70
     Davidson diagonalization with overlap
     ethr =  1.01E-08,  avg # of iterations =  1.0

     negative rho (up, down):  0.571E+00 0.000E+00

     total cpu time spent up to now is    72566.9 secs

     total energy              =   -2160.60924070 Ry
     Harris-Foulkes estimate   =   -2160.60924098 Ry
     estimated scf accuracy    <       0.00004790 Ry

     iteration # 82     ecut=    40.00 Ry     beta=0.70
     Davidson diagonalization with overlap
     ethr =  1.01E-08,  avg # of iterations =  1.0

     negative rho (up, down):  0.571E+00 0.000E+00

     total cpu time spent up to now is    72739.6 secs

     total energy              =   -2160.60922854 Ry
     Harris-Foulkes estimate   =   -2160.60924278 Ry
     estimated scf accuracy    <       0.00003921 Ry

     iteration # 83     ecut=    40.00 Ry     beta=0.70
     Davidson diagonalization with overlap
     ethr =  1.01E-08,  avg # of iterations =  2.0

     negative rho (up, down):  0.571E+00 0.000E+00

     total cpu time spent up to now is    72919.1 secs

     total energy              =   -2160.60910350 Ry
     Harris-Foulkes estimate   =   -2160.60935549 Ry
     estimated scf accuracy    <       0.00304333 Ry

     iteration # 84     ecut=    40.00 Ry     beta=0.70
     Davidson diagonalization with overlap
     ethr =  1.01E-08,  avg # of iterations =  2.0

     negative rho (up, down):  0.571E+00 0.000E+00

     total cpu time spent up to now is    73098.8 secs

     total energy              =   -2160.60922025 Ry
     Harris-Foulkes estimate   =   -2160.60926271 Ry
     estimated scf accuracy    <       0.00032221 Ry

     iteration # 85     ecut=    40.00 Ry     beta=0.70
     Davidson diagonalization with overlap
     ethr =  1.01E-08,  avg # of iterations =  2.0

     negative rho (up, down):  0.571E+00 0.000E+00

     total cpu time spent up to now is    73281.0 secs

     total energy              =   -2160.60924452 Ry
     Harris-Foulkes estimate   =   -2160.60924436 Ry
     estimated scf accuracy    <       0.00004885 Ry

     iteration # 86     ecut=    40.00 Ry     beta=0.70
     Davidson diagonalization with overlap
     ethr =  1.01E-08,  avg # of iterations =  1.0

     negative rho (up, down):  0.571E+00 0.000E+00

     total cpu time spent up to now is    73456.4 secs

     total energy              =   -2160.60924646 Ry
     Harris-Foulkes estimate   =   -2160.60924485 Ry
     estimated scf accuracy    <       0.00004441 Ry

     iteration # 87     ecut=    40.00 Ry     beta=0.70
     Davidson diagonalization with overlap
     ethr =  1.01E-08,  avg # of iterations =  1.0

     negative rho (up, down):  0.571E+00 0.000E+00

     total cpu time spent up to now is    73626.8 secs

     total energy              =   -2160.60923699 Ry
     Harris-Foulkes estimate   =   -2160.60924749 Ry
     estimated scf accuracy    <       0.00004797 Ry

     iteration # 88     ecut=    40.00 Ry     beta=0.70
     Davidson diagonalization with overlap
     ethr =  1.01E-08,  avg # of iterations =  2.0

     negative rho (up, down):  0.571E+00 0.000E+00

     total cpu time spent up to now is    73799.9 secs

     total energy              =   -2160.60924161 Ry
     Harris-Foulkes estimate   =   -2160.60924201 Ry
     estimated scf accuracy    <       0.00004652 Ry

     iteration # 89     ecut=    40.00 Ry     beta=0.70
     Davidson diagonalization with overlap
     ethr =  1.01E-08,  avg # of iterations =  1.0

     negative rho (up, down):  0.571E+00 0.000E+00

     total cpu time spent up to now is    73972.0 secs

     total energy              =   -2160.60923970 Ry
     Harris-Foulkes estimate   =   -2160.60924513 Ry
     estimated scf accuracy    <       0.00005720 Ry

     iteration # 90     ecut=    40.00 Ry     beta=0.70
     Davidson diagonalization with overlap
     ethr =  1.01E-08,  avg # of iterations =  1.0

     negative rho (up, down):  0.571E+00 0.000E+00

     total cpu time spent up to now is    74148.4 secs

     total energy              =   -2160.60924222 Ry
     Harris-Foulkes estimate   =   -2160.60924344 Ry
     estimated scf accuracy    <       0.00005949 Ry

     iteration # 91     ecut=    40.00 Ry     beta=0.70
     Davidson diagonalization with overlap
     ethr =  1.01E-08,  avg # of iterations =  1.0

     negative rho (up, down):  0.571E+00 0.000E+00

     total cpu time spent up to now is    74325.1 secs

     total energy              =   -2160.60924263 Ry
     Harris-Foulkes estimate   =   -2160.60924412 Ry
     estimated scf accuracy    <       0.00005205 Ry

     iteration # 92     ecut=    40.00 Ry     beta=0.70
     Davidson diagonalization with overlap
     ethr =  1.01E-08,  avg # of iterations =  1.0

     negative rho (up, down):  0.571E+00 0.000E+00

     total cpu time spent up to now is    74501.1 secs

     total energy              =   -2160.60922495 Ry
     Harris-Foulkes estimate   =   -2160.60924482 Ry
     estimated scf accuracy    <       0.00003968 Ry

     iteration # 93     ecut=    40.00 Ry     beta=0.70
     Davidson diagonalization with overlap
     ethr =  1.01E-08,  avg # of iterations =  2.0

     negative rho (up, down):  0.571E+00 0.000E+00

     total cpu time spent up to now is    74692.2 secs

     total energy              =   -2160.60909489 Ry
     Harris-Foulkes estimate   =   -2160.60936088 Ry
     estimated scf accuracy    <       0.00318249 Ry

     iteration # 94     ecut=    40.00 Ry     beta=0.70
     Davidson diagonalization with overlap
     ethr =  1.01E-08,  avg # of iterations =  2.0

     negative rho (up, down):  0.571E+00 0.000E+00

     total cpu time spent up to now is    74882.1 secs

     total energy              =   -2160.60921994 Ry
     Harris-Foulkes estimate   =   -2160.60926241 Ry
     estimated scf accuracy    <       0.00033858 Ry

     iteration # 95     ecut=    40.00 Ry     beta=0.70
     Davidson diagonalization with overlap
     ethr =  1.01E-08,  avg # of iterations =  2.0

     negative rho (up, down):  0.571E+00 0.000E+00

     total cpu time spent up to now is    75062.7 secs

     total energy              =   -2160.60924085 Ry
     Harris-Foulkes estimate   =   -2160.60924212 Ry
     estimated scf accuracy    <       0.00004291 Ry

     iteration # 96     ecut=    40.00 Ry     beta=0.70
     Davidson diagonalization with overlap
     ethr =  1.01E-08,  avg # of iterations =  1.0

     negative rho (up, down):  0.571E+00 0.000E+00

     total cpu time spent up to now is    75239.6 secs

     total energy              =   -2160.60924233 Ry
     Harris-Foulkes estimate   =   -2160.60924113 Ry
     estimated scf accuracy    <       0.00004429 Ry

     iteration # 97     ecut=    40.00 Ry     beta=0.70
     Davidson diagonalization with overlap
     ethr =  1.01E-08,  avg # of iterations =  2.0

     negative rho (up, down):  0.571E+00 0.000E+00

     total cpu time spent up to now is    75420.4 secs

     total energy              =   -2160.60924308 Ry
     Harris-Foulkes estimate   =   -2160.60924637 Ry
     estimated scf accuracy    <       0.00004441 Ry

     iteration # 98     ecut=    40.00 Ry     beta=0.70
     Davidson diagonalization with overlap
     ethr =  1.01E-08,  avg # of iterations =  1.0

     negative rho (up, down):  0.571E+00 0.000E+00

     total cpu time spent up to now is    75597.4 secs

     total energy              =   -2160.60924119 Ry
     Harris-Foulkes estimate   =   -2160.60924771 Ry
     estimated scf accuracy    <       0.00007862 Ry

     iteration # 99     ecut=    40.00 Ry     beta=0.70
     Davidson diagonalization with overlap
     ethr =  1.01E-08,  avg # of iterations =  1.0

     negative rho (up, down):  0.571E+00 0.000E+00

     total cpu time spent up to now is    75773.7 secs

     total energy              =   -2160.60924555 Ry
     Harris-Foulkes estimate   =   -2160.60925016 Ry
     estimated scf accuracy    <       0.00005757 Ry

     iteration #100     ecut=    40.00 Ry     beta=0.70
     Davidson diagonalization with overlap
     ethr =  1.01E-08,  avg # of iterations =  1.0

     negative rho (up, down):  0.571E+00 0.000E+00

     total cpu time spent up to now is    75950.0 secs

     total energy              =   -2160.60924304 Ry
     Harris-Foulkes estimate   =   -2160.60924894 Ry
     estimated scf accuracy    <       0.00006183 Ry

     End of self-consistent calculation

     convergence NOT achieved after 100 iterations: stopping

     init_run     :    106.36s CPU    108.02s WALL (       1 calls)
     electrons    :  72335.99s CPU  74445.56s WALL (       8 calls)
     update_pot   :    140.75s CPU    144.32s WALL (       7 calls)
     forces       :    872.07s CPU    888.68s WALL (       7 calls)

     Called by init_run:
     wfcinit      :     38.32s CPU     39.17s WALL (       1 calls)
     potinit      :      7.35s CPU      7.52s WALL (       1 calls)

     Called by electrons:
     c_bands      :  38655.00s CPU  39612.81s WALL (     411 calls)
     sum_band     :  14272.79s CPU  14629.94s WALL (     411 calls)
     v_of_rho     :    446.12s CPU    469.58s WALL (     419 calls)
     newd         :  18611.45s CPU  18704.68s WALL (     419 calls)
     mix_rho      :     92.30s CPU     94.63s WALL (     411 calls)

     Called by c_bands:
     init_us_2    :     99.66s CPU    100.55s WALL (    2535 calls)
     cegterg      :  38175.08s CPU  39026.39s WALL (    1233 calls)

     Called by *egterg:
     h_psi        :  22396.25s CPU  22855.49s WALL (    3239 calls)
     s_psi        :   2166.39s CPU   2193.45s WALL (    3284 calls)
     g_psi        :     47.38s CPU     47.38s WALL (    2003 calls)
     cdiaghg      :   3303.19s CPU   3311.84s WALL (    3215 calls)

     Called by h_psi:
     add_vuspsi   :   2150.64s CPU   2180.35s WALL (    3239 calls)
     vhpsi        :   2433.34s CPU   2450.99s WALL (    3239 calls)

     General routines
     calbec       :   4895.77s CPU   4937.47s WALL (   15079 calls)
     fft          :    571.64s CPU    693.79s WALL (    6758 calls)
     ffts         :      7.18s CPU      7.32s WALL (     830 calls)
     fftw         :  12259.53s CPU  12763.26s WALL ( 2278258 calls)
     interpolate  :     70.02s CPU     70.85s WALL (     830 calls)
     davcio       :      0.18s CPU     42.49s WALL (    2562 calls)

     Parallel routines
     fft_scatter  :   4606.17s CPU   5206.23s WALL ( 2285846 calls)
     Hubbard U routines
     new_ns       :    526.25s CPU    557.25s WALL (     411 calls)
     vhpsi        :   2433.34s CPU   2450.99s WALL (    3239 calls)
     force_hub    :    254.15s CPU    261.03s WALL (       7 calls)

     PWSCF        :    20h30m CPU       21h 6m WALL


   This run was terminated on:  23: 2:15  28Apr2014            

=------------------------------------------------------------------------------=
   JOB DONE.
=------------------------------------------------------------------------------=
STOP 1
STOP 1
STOP 1
STOP 1
STOP 1
STOP 1
STOP 1
STOP 1
STOP 1
STOP 1
STOP 1
STOP 1
STOP 1
STOP 1
STOP 1
STOP 1
--------------------------------------------------------------------------
mpirun noticed that the job aborted, but has no info as to the process
that caused that situation.
--------------------------------------------------------------------------
---------------------------------------
Running PBS batch system epilogue script
Job id: 340466.audhumbla.fysik.dtu.dk
Username: zhonxu
Groupname: campgst
Jobname: RuO2/Eads-2-layers/OH-U-8.0
Sessionid: 1213
Resources limits: neednodes=2:ppn=8:xeon8,nodes=2:ppn=8:xeon8,walltime=48:00:00
Resources used: cput=337:13:57,mem=17822988kb,vmem=21585928kb,walltime=21:06:09
Queuename: verylong
Accounting:
This job has allocated the following 16 nodes:
b126 b126 b126 b126 b126 b126 b126 b126 b112 b112 b112 b112 b112 b112 b112 b112
Finished epilogue job 340466.audhumbla.fysik.dtu.dk for zhonxu
