
     Program PWSCF v.5.0.2 (svn rev. 9656) starts on 27Feb2014 at 18:59: 6 

     This program is part of the open-source Quantum ESPRESSO suite
     for quantum simulation of materials; please cite
         "P. Giannozzi et al., J. Phys.:Condens. Matter 21 395502 (2009);
          URL http://www.quantum-espresso.org", 
     in publications or presentations arising from this work. More details at
     http://www.quantum-espresso.org/quote.php

     Parallel version (MPI), running on    16 processors
     R & G space division:  proc/nbgrp/npool/nimage =      16

     Current dimensions of program PWSCF are:
     Max number of different atomic species (ntypx) = 10
     Max number of k-points (npk) =  40000
     Max angular momentum in pseudopotentials (lmaxx) =  3
     Reading input from bare.in
Warning: card &CELL ignored
Warning: card / ignored

     Subspace diagonalization in iterative solution of the eigenvalue problem:
     a serial algorithm will be used


     Parallelization info
     --------------------
     sticks:   dense  smooth     PW     G-vecs:    dense   smooth      PW
     Min         366     117     32                88868    16073    2372
     Max         367     118     33                88877    16110    2385
     Sum        5871    1877    527              1421981   257505   38087



     bravais-lattice index     =            0
     lattice parameter (alat)  =      11.1872  a.u.
     unit-cell volume          =    7531.8600 (a.u.)^3
     number of atoms/cell      =           30
     number of atomic types    =            3
     number of electrons       =       216.00
     number of Kohn-Sham states=          324
     kinetic-energy cutoff     =      40.0000  Ry
     charge density cutoff     =     500.0000  Ry
     convergence threshold     =      1.0E-06
     mixing beta               =       0.3000
     number of iterations used =            8  plain     mixing
     Exchange-correlation      = SLA  PW   PBE  PBE ( 1 4 3 4 0)
     EXX-fraction              =        0.00
     nstep                     =           50


     celldm(1)=  11.187179  celldm(2)=   0.000000  celldm(3)=   0.000000
     celldm(4)=   0.000000  celldm(5)=   0.000000  celldm(6)=   0.000000

     crystal axes: (cart. coord. in units of alat)
               a(1) = (   1.000000   0.000000   0.000000 )  
               a(2) = (   0.000000   1.180104   0.000000 )  
               a(3) = (   0.000000   0.000000   4.558482 )  

     reciprocal axes: (cart. coord. in units 2 pi/alat)
               b(1) = (  1.000000  0.000000  0.000000 )  
               b(2) = (  0.000000  0.847383  0.000000 )  
               b(3) = (  0.000000  0.000000  0.219371 )  


     PseudoPot. # 1 for O  read from file:
     /home/camp/zhonxu/pseudo/o_pbe_v1.01.uspp.F.UPF
     MD5 check sum: 2bcb18d16ea4b960afae9ec6d52f22d2
     Pseudo is Ultrasoft + core correction, Zval =  6.0
     Generated by new atomic code, or converted to UPF format
     Using radial grid of  737 points,  5 beta functions with: 
                l(1) =   0
                l(2) =   0
                l(3) =   1
                l(4) =   1
                l(5) =   2
     Q(r) pseudized with  8 coefficients,  rinner =    0.900   0.900   0.900
                                                       0.900   0.900

     PseudoPot. # 2 for Nb read from file:
     /home/camp/zhonxu/pseudo/nb_pbe_v1.uspp.F.UPF
     MD5 check sum: 573aab8a2fa660278ed4a62cd769473f
     Pseudo is Ultrasoft + core correction, Zval = 13.0
     Generated by new atomic code, or converted to UPF format
     Using radial grid of  887 points,  6 beta functions with: 
                l(1) =   0
                l(2) =   0
                l(3) =   1
                l(4) =   1
                l(5) =   2
                l(6) =   2
     Q(r) pseudized with  6 coefficients,  rinner =    1.000   1.000   1.000
                                                       1.000   1.000

     PseudoPot. # 3 for H  read from file:
     /home/camp/zhonxu/pseudo/h_pbe_v1.uspp.F.UPF
     MD5 check sum: 3408e3ff4ec8b0a4e358431e7e038a48
     Pseudo is Ultrasoft, Zval =  1.0
     Generated by new atomic code, or converted to UPF format
     Using radial grid of  615 points,  2 beta functions with: 
                l(1) =   0
                l(2) =   0
     Q(r) pseudized with  8 coefficients,  rinner =    0.700

     atomic species   valence    mass     pseudopotential
        O0             6.00    15.99940     O ( 1.00)
        Nb1           13.00    92.90640     Nb( 1.00)
        H2             1.00     1.00794     H ( 1.00)

     No symmetry found



   Cartesian axes

     site n.     atom                  positions (alat units)
         1           O0  tau(   1) = (   0.0000000   0.0000000   1.7080633  )
         2           O0  tau(   2) = (   0.0000000   0.5900519   1.7583889  )
         3           Nb1 tau(   3) = (   0.2500000   0.5900519   2.0066439  )
         4           Nb1 tau(   4) = (   0.0000000   0.0000000   2.0401487  )
         5           O0  tau(   5) = (   0.2500000   0.9322821   2.0429294  )
         6           O0  tau(   6) = (   0.2500000   0.2478218   2.0431118  )
         7           O0  tau(   7) = (   0.0000000   0.5900519   2.2709903  )
         8           O0  tau(   8) = (   0.0000000   0.0000000   2.3999042  )
         9           Nb1 tau(   9) = (   0.2500000   0.0000000   2.6489340  )
        10           Nb1 tau(  10) = (   0.0000000   0.5900519   2.5868019  )
        11           O0  tau(  11) = (   0.2500000   0.8378738   2.6444667  )
        12           O0  tau(  12) = (   0.2500000   0.3422301   2.6445123  )
        13           O0  tau(  13) = (   0.0000000   0.0000000   2.8518777  )
        14           O0  tau(  14) = (   0.5000000   0.0000000   1.7080633  )
        15           O0  tau(  15) = (   0.5000000   0.5900519   1.7583889  )
        16           Nb1 tau(  16) = (   0.7500000   0.5900519   2.0066439  )
        17           Nb1 tau(  17) = (   0.5000000   0.0000000   2.0401487  )
        18           O0  tau(  18) = (   0.7500000   0.9322821   2.0429294  )
        19           O0  tau(  19) = (   0.7500000   0.2478218   2.0431118  )
        20           O0  tau(  20) = (   0.5000000   0.5900519   2.2709903  )
        21           O0  tau(  21) = (   0.5000000   0.0000000   2.3999497  )
        22           Nb1 tau(  22) = (   0.7500000   0.0000000   2.6489340  )
        23           Nb1 tau(  23) = (   0.5000000   0.5900519   2.5867563  )
        24           O0  tau(  24) = (   0.7500000   0.8378738   2.6444667  )
        25           O0  tau(  25) = (   0.7500000   0.3422301   2.6445123  )
        26           O0  tau(  26) = (   0.5000000   0.0000000   2.8518777  )
        27           H2  tau(  27) = (  -0.0004200   0.5934860   1.5928705  )
        28           H2  tau(  28) = (   0.4995800   0.5932146   1.5928249  )
        29           H2  tau(  29) = (   0.1513000  -0.0014397   1.6372701  )
        30           H2  tau(  30) = (   0.6512900  -0.0014397   1.6372701  )

     number of k points=    10  Methfessel-Paxton smearing, width (Ry)=  0.0100
                       cart. coord. in units 2pi/alat
        k(    1) = (   0.0000000   0.0000000   0.0000000), wk =   0.1250000
        k(    2) = (   0.0000000   0.2118458   0.0000000), wk =   0.2500000
        k(    3) = (   0.0000000  -0.4236915   0.0000000), wk =   0.1250000
        k(    4) = (   0.2500000   0.0000000   0.0000000), wk =   0.2500000
        k(    5) = (   0.2500000   0.2118458   0.0000000), wk =   0.2500000
        k(    6) = (   0.2500000  -0.4236915   0.0000000), wk =   0.2500000
        k(    7) = (  -0.5000000   0.0000000   0.0000000), wk =   0.1250000
        k(    8) = (  -0.5000000   0.2118458   0.0000000), wk =   0.2500000
        k(    9) = (  -0.5000000  -0.4236915   0.0000000), wk =   0.1250000
        k(   10) = (  -0.2500000   0.2118458   0.0000000), wk =   0.2500000

     Dense  grid:  1421981 G-vectors     FFT dimensions: (  80,  96, 375)

     Smooth grid:   257505 G-vectors     FFT dimensions: (  45,  54, 216)

     Largest allocated arrays     est. size (Mb)     dimensions
        Kohn-Sham Wavefunctions        10.33 Mb     (   2089,  324)
        NL pseudopotentials            12.30 Mb     (   2089,  386)
        Each V/rho on FFT grid          2.81 Mb     ( 184320)
        Each G-vector array             0.68 Mb     (  88877)
        G-vector shells                 0.34 Mb     (  43969)
     Largest temporary arrays     est. size (Mb)     dimensions
        Auxiliary wavefunctions        41.31 Mb     (   2089, 1296)
        Each subspace H/S matrix       25.63 Mb     (1296,1296)
        Each <psi_i|beta_j> matrix      1.91 Mb     (    386,  324)
        Arrays for rho mixing          22.50 Mb     ( 184320,   8)

     Check: negative/imaginary core charge=   -0.000003    0.000000

     Initial potential from superposition of free atoms
     Check: negative starting charge=   -0.003843

     starting charge  215.97807, renormalised to  216.00000

     negative rho (up, down):  0.384E-02 0.000E+00
     Starting wfc are  180 randomized atomic wfcs

     total cpu time spent up to now is       71.5 secs

     per-process dynamical memory:   228.4 Mb

     Self-consistent Calculation

     iteration #  1     ecut=    40.00 Ry     beta=0.30
     Davidson diagonalization with overlap
     ethr =  1.00E-02,  avg # of iterations =  6.0

     negative rho (up, down):  0.348E-02 0.000E+00

     total cpu time spent up to now is      551.9 secs

     total energy              =   -1527.83885853 Ry
     Harris-Foulkes estimate   =   -1533.72383172 Ry
     estimated scf accuracy    <      13.29433101 Ry

     iteration #  2     ecut=    40.00 Ry     beta=0.30
     Davidson diagonalization with overlap
     ethr =  6.15E-03,  avg # of iterations =  1.6

     negative rho (up, down):  0.418E-02 0.000E+00

     total cpu time spent up to now is      721.6 secs

     total energy              =   -1527.57885996 Ry
     Harris-Foulkes estimate   =   -1530.74016902 Ry
     estimated scf accuracy    <      11.02941547 Ry

     iteration #  3     ecut=    40.00 Ry     beta=0.30
     Davidson diagonalization with overlap
     ethr =  5.11E-03,  avg # of iterations =  3.3

     negative rho (up, down):  0.577E-02 0.000E+00

     total cpu time spent up to now is      928.6 secs

     total energy              =   -1524.92076702 Ry
     Harris-Foulkes estimate   =   -1533.05494540 Ry
     estimated scf accuracy    <     104.99236469 Ry

     iteration #  4     ecut=    40.00 Ry     beta=0.30
     Davidson diagonalization with overlap
     ethr =  5.11E-03,  avg # of iterations =  3.0

     negative rho (up, down):  0.585E-02 0.000E+00

     total cpu time spent up to now is     1127.1 secs

     total energy              =   -1530.20463016 Ry
     Harris-Foulkes estimate   =   -1530.39468603 Ry
     estimated scf accuracy    <       0.99771919 Ry

     iteration #  5     ecut=    40.00 Ry     beta=0.30
     Davidson diagonalization with overlap
     ethr =  4.62E-04,  avg # of iterations =  3.1

     negative rho (up, down):  0.496E-02 0.000E+00

     total cpu time spent up to now is     1320.8 secs

     total energy              =   -1530.20332511 Ry
     Harris-Foulkes estimate   =   -1530.25748775 Ry
     estimated scf accuracy    <       0.35845687 Ry

     iteration #  6     ecut=    40.00 Ry     beta=0.30
     Davidson diagonalization with overlap
     ethr =  1.66E-04,  avg # of iterations =  3.8

     negative rho (up, down):  0.361E-02 0.000E+00

     total cpu time spent up to now is     1526.8 secs

     total energy              =   -1530.20626214 Ry
     Harris-Foulkes estimate   =   -1530.24479170 Ry
     estimated scf accuracy    <       0.29839294 Ry

     iteration #  7     ecut=    40.00 Ry     beta=0.30
     Davidson diagonalization with overlap
     ethr =  1.38E-04,  avg # of iterations =  3.0

     negative rho (up, down):  0.376E-02 0.000E+00

     total cpu time spent up to now is     1725.3 secs

     total energy              =   -1530.20776476 Ry
     Harris-Foulkes estimate   =   -1530.22089621 Ry
     estimated scf accuracy    <       0.09796483 Ry

     iteration #  8     ecut=    40.00 Ry     beta=0.30
     Davidson diagonalization with overlap
     ethr =  4.54E-05,  avg # of iterations =  4.2

     negative rho (up, down):  0.373E-02 0.000E+00

     total cpu time spent up to now is     1939.7 secs

     total energy              =   -1530.21284581 Ry
     Harris-Foulkes estimate   =   -1530.21434881 Ry
     estimated scf accuracy    <       0.00850113 Ry

     iteration #  9     ecut=    40.00 Ry     beta=0.30
     Davidson diagonalization with overlap
     ethr =  3.94E-06,  avg # of iterations =  6.8

     negative rho (up, down):  0.362E-02 0.000E+00

     total cpu time spent up to now is     2194.5 secs

     total energy              =   -1530.21268752 Ry
     Harris-Foulkes estimate   =   -1530.21444636 Ry
     estimated scf accuracy    <       0.00999347 Ry

     iteration # 10     ecut=    40.00 Ry     beta=0.30
     Davidson diagonalization with overlap
     ethr =  3.94E-06,  avg # of iterations =  1.0

     negative rho (up, down):  0.360E-02 0.000E+00

     total cpu time spent up to now is     2365.9 secs

     total energy              =   -1530.21345015 Ry
     Harris-Foulkes estimate   =   -1530.21363576 Ry
     estimated scf accuracy    <       0.00100159 Ry

     iteration # 11     ecut=    40.00 Ry     beta=0.30
     Davidson diagonalization with overlap
     ethr =  4.64E-07,  avg # of iterations =  1.1

     negative rho (up, down):  0.359E-02 0.000E+00

     total cpu time spent up to now is     2538.3 secs

     total energy              =   -1530.21353924 Ry
     Harris-Foulkes estimate   =   -1530.21359567 Ry
     estimated scf accuracy    <       0.00067601 Ry

     iteration # 12     ecut=    40.00 Ry     beta=0.30
     Davidson diagonalization with overlap
     ethr =  3.13E-07,  avg # of iterations =  1.0

     negative rho (up, down):  0.357E-02 0.000E+00

     total cpu time spent up to now is     2709.6 secs

     total energy              =   -1530.21358356 Ry
     Harris-Foulkes estimate   =   -1530.21358974 Ry
     estimated scf accuracy    <       0.00015392 Ry

     iteration # 13     ecut=    40.00 Ry     beta=0.30
     Davidson diagonalization with overlap
     ethr =  7.13E-08,  avg # of iterations =  1.0

     negative rho (up, down):  0.356E-02 0.000E+00

     total cpu time spent up to now is     2881.2 secs

     total energy              =   -1530.21358582 Ry
     Harris-Foulkes estimate   =   -1530.21359053 Ry
     estimated scf accuracy    <       0.00003233 Ry

     iteration # 14     ecut=    40.00 Ry     beta=0.30
     Davidson diagonalization with overlap
     ethr =  1.50E-08,  avg # of iterations =  1.0

     negative rho (up, down):  0.356E-02 0.000E+00

     total cpu time spent up to now is     3052.4 secs

     total energy              =   -1530.21358817 Ry
     Harris-Foulkes estimate   =   -1530.21359228 Ry
     estimated scf accuracy    <       0.00007266 Ry

     iteration # 15     ecut=    40.00 Ry     beta=0.30
     Davidson diagonalization with overlap
     ethr =  1.50E-08,  avg # of iterations =  1.0

     negative rho (up, down):  0.356E-02 0.000E+00

     total cpu time spent up to now is     3224.2 secs

     total energy              =   -1530.21359133 Ry
     Harris-Foulkes estimate   =   -1530.21359079 Ry
     estimated scf accuracy    <       0.00000154 Ry

     iteration # 16     ecut=    40.00 Ry     beta=0.30
     Davidson diagonalization with overlap
     ethr =  7.11E-10,  avg # of iterations =  1.2

     negative rho (up, down):  0.356E-02 0.000E+00

     total cpu time spent up to now is     3396.0 secs

     End of self-consistent calculation

          k = 0.0000 0.0000 0.0000 ( 32167 PWs)   bands (ev):

   -56.1951 -56.1053 -55.7229 -55.6790 -55.6445 -55.6025 -55.5887 -55.5117
   -33.1393 -32.3878 -32.3143 -32.2622 -32.2105 -32.2057 -32.1729 -32.1198
   -32.1056 -32.1045 -32.0517 -32.0094 -32.0089 -31.9364 -31.8519 -31.7320
   -31.7226 -31.6480 -31.5940 -31.5658 -31.4542 -31.4083 -31.2828 -31.2690
   -20.4807 -20.3203 -19.3303 -19.1367 -18.9855 -18.8928 -18.8110 -18.6599
   -18.6360 -18.5752 -18.4448 -18.4167 -18.2650 -18.0829 -17.9136 -17.7688
   -17.6742 -17.5027  -8.9273  -8.6025  -7.6759  -7.2354  -7.1955  -6.8245
    -6.5599  -6.3012  -6.2228  -6.1799  -6.1454  -6.0262  -5.9020  -5.8491
    -5.8368  -5.7878  -5.7142  -5.4575  -5.3398  -5.2610  -5.1530  -5.1374
    -5.0543  -5.0390  -5.0300  -4.9622  -4.8799  -4.5543  -4.2897  -4.1799
    -4.1249  -4.0779  -3.9772  -3.8144  -3.8046  -3.7522  -3.6448  -3.5115
    -3.4874  -3.4455  -3.2532  -3.2456  -3.1839  -3.1176  -3.1124  -2.9236
    -2.8499  -2.7980  -2.7744  -2.7476  -2.6234  -2.5885  -2.5428  -2.0753
    -0.6395  -0.2490  -0.0436   1.2320   1.4539   1.5051   1.5625   1.5762
     1.5988   1.6760   1.7329   1.9342   2.0022   2.3919   2.4391   2.4614
     2.5081   2.6348   2.8734   2.9272   2.9581   3.1468   3.2740   3.6524
     3.7598   3.8075   3.8276   3.8811   4.1297   4.3303   4.6259   4.7912
     4.9951   5.1434   5.3628   5.4089   5.4682   5.6778   5.7379   5.7409
     5.8201   6.0596   6.1892   6.2768   6.2958   6.4092   6.5770   6.6653
     6.8284   6.8956   6.9020   7.0156   7.1852   7.2573   7.2859   7.2932
     7.5418   7.6660   7.8380   8.0182   8.0395   8.1347   8.1378   8.2580
     8.3475   8.5239   8.5431   8.6456   8.7989   8.8210   8.8491   8.9230
     8.9826   9.1868   9.2153   9.3185   9.3737   9.5395   9.5497   9.6591
     9.6918   9.7092   9.8847  10.0214  10.0362  10.1361  10.1993  10.3295
    10.3847  10.4837  10.7810  10.9013  10.9569  10.9876  11.1380  11.1571
    11.2109  11.2214  11.2377  11.2498  11.2714  11.3542  11.4226  11.5451
    11.5603  11.5751  11.5864  11.7519  11.7851  11.9104  11.9401  12.2678
    12.2792  12.2928  12.3104  12.3350  12.3671  12.4105  12.5127  12.5248
    12.5479  12.7473  12.9283  12.9925  13.0449  13.1302  13.2239  13.3779
    13.4841  13.5792  13.5901  13.6061  13.7887  13.8692  13.9285  13.9990
    14.0447  14.0495  14.1539  14.2682  14.3471  14.4799  14.7151  14.7357
    14.7623  14.8184  15.1069  15.1096  15.2054  15.2746  15.2760  15.3068
    15.3128  15.5565  15.5653  15.5906  15.7060  15.7473  15.8848  15.9678
    16.0096  16.0699  16.1026  16.1254  16.1885  16.2545  16.4466  16.4849
    16.5364  16.5435  16.7163  16.7632  16.8123  16.8267  17.0328  17.0777
    17.2726  17.3866  17.3891  17.4292  17.4661  17.5058  17.5527  17.5821
    17.7783  18.0608  18.0849  18.1910  18.2489  18.2903  18.2918  18.2997
    18.4543  18.4775  18.4824  18.7082  18.7555  18.8105  18.8795  19.0313
    19.0736  19.0835  19.1360  19.1452  19.1747  19.2081  19.2830  19.2896
    19.3302  19.3330  19.5383  19.5812  19.7702  19.8227  19.8635  19.8983
    20.0578  20.1346  20.1958  20.2518

          k = 0.0000 0.2118 0.0000 ( 32193 PWs)   bands (ev):

   -56.1951 -56.1053 -55.7229 -55.6790 -55.6445 -55.6025 -55.5888 -55.5117
   -33.1396 -32.3878 -32.3043 -32.2713 -32.2340 -32.2085 -32.1733 -32.1185
   -32.1056 -32.0763 -32.0521 -32.0095 -31.9768 -31.9364 -31.8412 -31.7582
   -31.7457 -31.6475 -31.5932 -31.5656 -31.4543 -31.4079 -31.2831 -31.2692
   -20.4791 -20.3202 -19.2992 -19.0407 -18.8927 -18.8755 -18.7889 -18.7150
   -18.6847 -18.6395 -18.6356 -18.5757 -18.0841 -17.9467 -17.9427 -17.8061
   -17.6726 -17.5027  -8.9271  -8.6018  -7.6776  -6.9465  -6.8569  -6.7382
    -6.6836  -6.5541  -6.4628  -6.3348  -6.0953  -6.0641  -5.9825  -5.9020
    -5.8561  -5.8283  -5.8219  -5.4294  -5.2482  -5.2368  -5.1517  -5.0205
    -4.9530  -4.9143  -4.8278  -4.7936  -4.6534  -4.5334  -4.4137  -4.2769
    -4.2593  -4.0787  -4.0077  -3.9269  -3.8420  -3.6582  -3.6399  -3.5498
    -3.4566  -3.4213  -3.3062  -3.2848  -3.2360  -3.2334  -3.1221  -3.0856
    -3.0516  -2.9818  -2.7896  -2.7718  -2.6574  -2.5722  -2.5451  -2.1358
    -0.5914   0.1331   0.2479   0.8268   1.0382   1.0712   1.5054   1.5832
     1.7805   1.8308   2.2950   2.3089   2.3992   2.4335   2.5266   2.5330
     2.5554   2.7284   2.7367   2.7893   2.9226   3.2134   3.2452   3.6983
     3.7002   3.7743   3.8232   3.9777   4.3463   4.4289   4.6232   4.9510
     5.0218   5.0277   5.0374   5.1564   5.3525   5.4834   5.4922   5.5193
     5.5515   5.7239   5.8838   6.0095   6.2028   6.3032   6.6740   6.7153
     6.8717   6.9319   7.0149   7.1838   7.2310   7.2528   7.3398   7.4443
     7.5996   7.8294   7.9152   8.0765   8.1188   8.1882   8.3083   8.4857
     8.5505   8.6456   8.6805   8.7082   8.7756   8.8886   9.0407   9.0726
     9.1827   9.3241   9.3440   9.4450   9.4459   9.5833   9.6486   9.6676
     9.7982   9.8572   9.8844   9.9394   9.9785  10.0742  10.1263  10.2554
    10.3148  10.3964  10.4201  10.6648  10.6898  10.7804  10.8215  10.8825
    11.0462  11.1515  11.1671  11.1696  11.2685  11.3816  11.4278  11.5180
    11.5960  11.7168  11.7987  11.9534  12.0617  12.3113  12.3931  12.4428
    12.4884  12.5363  12.5779  12.6284  12.7002  12.7078  12.8035  12.8368
    12.8500  12.9669  13.0047  13.0365  13.1099  13.2166  13.2330  13.2516
    13.4053  13.4886  13.6497  13.6859  13.6992  13.7769  13.8456  13.8897
    13.9196  13.9434  14.0152  14.1838  14.2426  14.3722  14.3927  14.5367
    14.5804  14.6580  14.7393  14.7562  14.8638  15.0002  15.0805  15.1217
    15.1585  15.2017  15.3018  15.3995  15.4396  15.5451  15.5989  15.7200
    15.9071  15.9520  16.0890  16.1344  16.2599  16.4351  16.4736  16.4853
    16.5626  16.6461  16.7190  16.7296  16.8031  16.9093  16.9758  17.0696
    17.1237  17.2521  17.3117  17.4140  17.5483  17.5557  17.6332  17.7407
    17.7745  17.8229  17.9299  17.9798  18.0516  18.1220  18.1624  18.1645
    18.2473  18.3254  18.4634  18.4716  18.5413  18.6195  18.6669  18.6950
    18.8035  18.8069  18.8391  18.8828  18.9522  19.0288  19.0357  19.1986
    19.2697  19.3393  19.3584  19.4210  19.4487  19.5648  19.5915  19.6426
    19.6864  19.7651  19.8217  19.8395

          k = 0.0000-0.4237 0.0000 ( 32162 PWs)   bands (ev):

   -56.1950 -56.1053 -55.7228 -55.6790 -55.6445 -55.6025 -55.5889 -55.5117
   -33.1397 -32.3877 -32.2943 -32.2800 -32.2542 -32.2057 -32.1736 -32.1184
   -32.1055 -32.0550 -32.0525 -32.0094 -31.9365 -31.9289 -31.8310 -31.8087
   -31.7608 -31.6473 -31.5923 -31.5653 -31.4543 -31.4075 -31.2833 -31.2694
   -20.4775 -20.3201 -19.2796 -18.9241 -18.8925 -18.8560 -18.8271 -18.8154
   -18.6355 -18.5761 -18.5727 -18.5596 -18.3781 -18.2033 -17.7788 -17.6724
   -17.6327 -17.5026  -8.9267  -8.6010  -7.6793  -6.8788  -6.8730  -6.6535
    -6.5372  -6.5342  -6.3843  -6.3068  -6.1648  -6.0770  -5.9503  -5.9027
    -5.8262  -5.8196  -5.5752  -5.5027  -5.3729  -5.3371  -5.2924  -5.2321
    -5.1581  -4.8638  -4.6887  -4.6713  -4.6187  -4.5516  -4.4901  -4.2511
    -4.1309  -3.9797  -3.9315  -3.8851  -3.8733  -3.6965  -3.6514  -3.6444
    -3.5822  -3.4610  -3.4166  -3.3607  -3.3495  -3.2354  -3.2140  -3.0256
    -3.0236  -3.0170  -2.9167  -2.7451  -2.7108  -2.5400  -2.5185  -2.2067
    -0.5668   0.4381   0.4952   0.6276   0.6702   0.8867   1.5066   1.6406
     1.9116   2.2160   2.2208   2.3194   2.4168   2.5631   2.6041   2.6831
     2.7253   2.7711   2.7903   2.9380   3.0731   3.0905   3.2521   3.5852
     3.7409   3.7852   3.8134   3.8686   4.5282   4.6337   4.6485   4.7562
     4.8642   4.9055   5.0365   5.0584   5.1928   5.3380   5.3388   5.3653
     5.5725   5.6255   5.7150   5.8586   5.8704   6.3359   6.5143   6.7616
     6.7815   6.9306   7.0432   7.1443   7.1895   7.2652   7.6105   7.6494
     7.7135   7.7807   7.8894   7.9249   7.9542   8.3158   8.4178   8.6655
     8.8330   8.8490   8.8524   8.8653   8.8711   8.9872   9.1029   9.2082
     9.2122   9.2476   9.3048   9.4263   9.5180   9.5231   9.6383   9.6480
     9.7511   9.7595   9.8601  10.0525  10.1612  10.2734  10.3466  10.4987
    10.6409  10.6480  10.6704  10.7445  10.7955  10.8046  11.0139  11.0423
    11.1366  11.2409  11.2432  11.2986  11.3759  11.4552  11.4758  11.4993
    11.5044  11.6149  11.7373  11.7452  11.7458  11.8441  11.9293  12.0574
    12.1107  12.1522  12.1750  12.4091  12.4882  12.5377  12.5984  12.8778
    12.9243  13.0383  13.0603  13.0849  13.1140  13.2007  13.2634  13.4003
    13.5718  13.7540  13.7768  13.8128  13.8409  14.0419  14.0611  14.0756
    14.1255  14.2568  14.4075  14.4317  14.4806  14.4819  14.6477  14.7647
    14.8841  14.9029  14.9156  14.9525  14.9609  15.0741  15.1068  15.1400
    15.2643  15.2917  15.3543  15.4180  15.4265  15.4831  15.5009  15.6325
    15.6513  15.7773  15.8134  15.8214  15.8256  15.9472  15.9860  16.1243
    16.1372  16.3599  16.4426  16.4909  16.6754  16.7002  16.7139  16.7486
    16.7794  16.9785  16.9833  17.0231  17.1015  17.1886  17.2938  17.3015
    17.4717  17.5040  17.5067  17.5254  17.8391  17.8897  18.0226  18.0465
    18.2182  18.2570  18.2784  18.2809  18.3757  18.5262  18.6115  18.6299
    18.6532  18.6611  18.7192  18.7255  18.7424  18.8167  18.9482  18.9798
    19.0163  19.0897  19.1414  19.4012  19.4124  19.5040  19.5661  19.6221
    19.6351  19.6554  19.6649  19.9117

          k = 0.2500 0.0000 0.0000 ( 32181 PWs)   bands (ev):

   -56.1821 -56.1186 -55.7116 -55.6679 -55.6561 -55.6138 -55.5775 -55.5231
   -33.0014 -32.3708 -32.2982 -32.2498 -32.2214 -32.1972 -32.1630 -32.1499
   -32.1391 -31.9971 -31.9907 -31.9846 -31.9746 -31.9460 -31.8733 -31.7092
   -31.7056 -31.6226 -31.6155 -31.5912 -31.5409 -31.4830 -31.4091 -31.3989
   -20.4318 -20.3191 -19.2326 -19.0216 -18.9138 -18.8759 -18.6631 -18.6323
   -18.6028 -18.5345 -18.3788 -18.3553 -18.3300 -18.2052 -17.9862 -17.8651
   -17.8268 -17.6962  -8.8292  -8.6213  -7.4572  -7.0159  -6.9599  -6.7440
    -6.2935  -6.2716  -6.1952  -6.1341  -6.0982  -6.0297  -6.0215  -5.9873
    -5.8109  -5.7837  -5.6982  -5.5246  -5.4654  -5.3966  -5.3248  -5.2479
    -4.9762  -4.9604  -4.8469  -4.8322  -4.7035  -4.5673  -4.3247  -4.3159
    -4.1597  -4.0310  -3.8891  -3.8850  -3.8375  -3.7771  -3.6598  -3.6132
    -3.5992  -3.4883  -3.4061  -3.3711  -3.2855  -3.2777  -3.1282  -3.1049
    -3.0684  -2.9751  -2.8172  -2.7864  -2.6205  -2.6169  -2.5037  -2.1337
    -0.1724   0.1590   0.3970   1.1511   1.4004   1.4531   1.5574   1.6835
     1.6983   1.7068   1.7883   2.0266   2.1035   2.1959   2.2751   2.5162
     2.5368   2.6646   2.6698   2.8431   2.8765   2.9297   2.9314   2.9713
     3.1442   3.3488   3.7075   4.0748   4.3992   4.4511   4.6088   4.9415
     5.0637   5.1805   5.5005   5.5184   5.5903   5.6853   5.7763   5.8084
     5.9400   6.0064   6.1098   6.1662   6.2453   6.3018   6.3067   6.4525
     6.5885   6.6537   6.8403   7.0144   7.1732   7.1757   7.2215   7.2902
     7.4932   7.5313   7.6538   7.7931   7.8059   7.9802   8.0524   8.0656
     8.2034   8.4038   8.4744   8.6026   8.8638   9.0018   9.1017   9.1136
     9.1572   9.1583   9.1862   9.2701   9.3227   9.4180   9.5876   9.7018
     9.7879   9.8599   9.8950   9.9409   9.9605  10.0182  10.1971  10.2996
    10.4328  10.4653  10.6012  10.6302  10.7608  10.8416  10.9622  10.9714
    10.9920  11.0575  11.2693  11.3808  11.4847  11.5473  11.6720  11.8120
    11.8177  11.8422  11.9214  12.0276  12.1046  12.3598  12.4208  12.4651
    12.5016  12.5839  12.6035  12.6714  12.8371  12.8401  13.0528  13.1170
    13.3396  13.3681  13.3887  13.4812  13.5330  13.5619  13.6686  13.7130
    13.7589  13.8301  13.9531  13.9676  14.0699  14.1872  14.1937  14.2456
    14.3524  14.5047  14.5915  14.6682  14.7011  14.8097  14.8205  14.8932
    14.8952  14.9286  15.1444  15.3095  15.3281  15.3712  15.4325  15.4830
    15.5844  15.6069  15.6658  15.6698  15.6825  15.8569  15.9834  16.0126
    16.1819  16.1936  16.2728  16.3744  16.3788  16.3913  16.4439  16.6228
    16.6942  16.7149  16.7682  16.7696  16.7960  16.8586  16.9529  16.9606
    16.9959  17.1442  17.2146  17.2940  17.2962  17.3942  17.4293  17.5763
    17.6434  17.6475  17.6887  17.7608  17.8733  17.9214  17.9820  18.0712
    18.1115  18.1368  18.2171  18.2551  18.3321  18.3827  18.5154  18.5394
    18.5490  18.5818  18.6698  18.7265  18.8000  18.8735  18.9848  19.0102
    19.0945  19.1000  19.1116  19.1136  19.2974  19.3716  19.3792  19.4317
    19.4539  19.4943  19.5626  19.6220

          k = 0.2500 0.2118 0.0000 ( 32165 PWs)   bands (ev):

   -56.1820 -56.1186 -55.7115 -55.6679 -55.6561 -55.6138 -55.5776 -55.5231
   -33.0016 -32.3707 -32.2905 -32.2499 -32.2333 -32.1953 -32.1662 -32.1496
   -32.1470 -31.9972 -31.9775 -31.9749 -31.9580 -31.9461 -31.8553 -31.7378
   -31.7203 -31.6221 -31.6197 -31.5929 -31.5385 -31.4830 -31.4087 -31.3985
   -20.4307 -20.3189 -19.2145 -18.9287 -18.9133 -18.7839 -18.6776 -18.6567
   -18.6502 -18.5704 -18.5665 -18.5348 -18.1296 -18.0387 -18.0168 -17.9226
   -17.8243 -17.6956  -8.8289  -8.6206  -7.4592  -6.8553  -6.6646  -6.5758
    -6.5390  -6.3682  -6.3155  -6.1378  -6.1317  -6.0950  -6.0757  -5.9032
    -5.8477  -5.7805  -5.7685  -5.5103  -5.4998  -5.4415  -5.1305  -5.1180
    -5.0181  -4.9281  -4.8565  -4.6543  -4.5272  -4.3934  -4.3067  -4.3066
    -4.2508  -4.1488  -3.9690  -3.9577  -3.9574  -3.8680  -3.8428  -3.7888
    -3.5921  -3.5524  -3.4957  -3.4889  -3.3710  -3.2815  -3.1689  -3.1139
    -3.0620  -2.9684  -2.8438  -2.7023  -2.6647  -2.5345  -2.4818  -2.1608
    -0.1440   0.4604   0.6418   0.9316   1.0147   1.2757   1.5482   1.6903
     1.7112   1.8189   2.1269   2.1273   2.2887   2.3480   2.3653   2.6001
     2.6158   2.6592   2.7293   2.7616   2.8304   2.9874   3.0253   3.1023
     3.2241   3.3801   3.6073   4.2405   4.5121   4.5610   4.6975   4.8741
     4.9789   5.1303   5.2095   5.2555   5.3022   5.3913   5.5975   5.7064
     5.7840   5.9107   5.9790   6.0420   6.2352   6.3449   6.3956   6.5161
     6.5440   6.6734   6.7121   6.8390   6.9634   7.0300   7.2252   7.2476
     7.3971   7.5211   7.7280   7.8121   7.9230   7.9418   8.1235   8.1612
     8.2997   8.3208   8.4456   8.6646   8.7179   8.8548   9.0338   9.0596
     9.0812   9.2064   9.3181   9.4423   9.5700   9.5842   9.6545   9.7709
     9.8970   9.9415  10.0031  10.1506  10.2074  10.3420  10.4180  10.6031
    10.7365  10.7519  10.9105  10.9574  11.0207  11.0809  11.1644  11.2344
    11.2446  11.3845  11.4670  11.4824  11.5253  11.5372  11.7369  11.8464
    11.9119  12.0473  12.0994  12.1784  12.2341  12.3422  12.4547  12.4726
    12.6432  12.6880  12.7127  12.7840  12.8635  12.8787  12.9084  12.9636
    13.0685  13.0892  13.1944  13.2500  13.3078  13.4042  13.4741  13.4903
    13.6822  13.6970  13.7596  13.9034  13.9278  13.9555  13.9594  14.0681
    14.1044  14.2716  14.3116  14.4033  14.5140  14.6178  14.6604  14.8579
    14.8899  14.9193  15.0751  15.1226  15.1794  15.2218  15.2484  15.3643
    15.3750  15.4032  15.4756  15.5188  15.5896  15.7196  15.7861  15.7914
    15.8285  15.8817  16.0346  16.0347  16.0759  16.2458  16.2604  16.3913
    16.4435  16.5888  16.5926  16.6615  16.7479  16.7487  16.7770  16.8849
    16.9821  16.9892  17.0310  17.2290  17.2634  17.2794  17.3703  17.4071
    17.4577  17.5436  17.6338  17.6714  17.7163  17.8526  17.8723  17.9832
    18.0286  18.0628  18.0811  18.2261  18.3270  18.4091  18.4998  18.5906
    18.6089  18.6954  18.7383  18.7758  18.8638  18.9095  18.9325  19.0316
    19.1603  19.1777  19.2848  19.2904  19.3253  19.3668  19.4315  19.5404
    19.5466  19.5967  19.6474  19.7036

          k = 0.2500-0.4237 0.0000 ( 32188 PWs)   bands (ev):

   -56.1820 -56.1186 -55.7115 -55.6679 -55.6561 -55.6138 -55.5777 -55.5231
   -33.0018 -32.3706 -32.2828 -32.2501 -32.2440 -32.1930 -32.1722 -32.1523
   -32.1485 -31.9972 -31.9765 -31.9640 -31.9461 -31.9212 -31.8380 -31.7785
   -31.7328 -31.6245 -31.6219 -31.5946 -31.5364 -31.4829 -31.4083 -31.3981
   -20.4297 -20.3188 -19.2023 -18.9123 -18.7911 -18.7901 -18.7575 -18.7524
   -18.6004 -18.5358 -18.4570 -18.4372 -18.4133 -18.2858 -17.8972 -17.8242
   -17.7795 -17.6914  -8.8286  -8.6199  -7.4612  -6.8235  -6.5823  -6.5083
    -6.4239  -6.3252  -6.2155  -6.1839  -6.1616  -5.9969  -5.9796  -5.8623
    -5.8589  -5.7969  -5.7859  -5.7706  -5.5494  -5.5466  -5.2520  -5.1131
    -4.8021  -4.7481  -4.6504  -4.6441  -4.5546  -4.4251  -4.3648  -4.3091
    -4.2975  -4.2333  -4.1506  -4.0176  -4.0041  -3.9995  -3.8868  -3.8119
    -3.7509  -3.7002  -3.6926  -3.5073  -3.3609  -3.2583  -3.1448  -3.0408
    -2.9848  -2.9499  -2.8040  -2.7098  -2.6984  -2.5042  -2.4432  -2.1874
    -0.1325   0.7058   0.7286   0.7801   0.8418   1.0869   1.5825   1.6848
     1.7610   1.9743   2.2859   2.3085   2.3605   2.3940   2.5575   2.5968
     2.6036   2.6319   2.8089   2.8366   2.9028   3.0801   3.2130   3.2524
     3.3089   3.4154   3.5828   4.1571   4.4753   4.5702   4.7078   4.7932
     4.7934   4.9203   5.0772   5.1225   5.1697   5.3310   5.3765   5.6378
     5.6854   5.6970   5.7960   6.0776   6.1640   6.2279   6.3178   6.5421
     6.6909   6.7724   6.8203   6.9822   6.9913   7.0710   7.0906   7.1920
     7.3239   7.4887   7.5242   7.5560   7.6033   7.8252   8.0364   8.1011
     8.2761   8.3858   8.4047   8.6493   8.6740   8.7808   9.0613   9.0903
     9.0938   9.1218   9.2194   9.7823   9.7918   9.9237  10.0454  10.0568
    10.1248  10.1623  10.2946  10.4205  10.5117  10.8354  10.9111  10.9307
    11.0476  11.0861  11.1917  11.2722  11.3119  11.3308  11.4440  11.4687
    11.4756  11.5488  11.5502  11.6226  11.6996  11.7977  11.8000  11.8177
    11.8189  11.9304  12.0365  12.0500  12.0634  12.2167  12.3144  12.3957
    12.4824  12.6143  12.6223  12.6964  12.7920  12.7999  12.9116  13.0380
    13.0408  13.1072  13.1745  13.2520  13.3077  13.3266  13.3648  13.4210
    13.4647  13.4802  13.5023  13.5842  13.6907  13.7491  13.8391  13.8503
    13.9473  14.1509  14.1570  14.1798  14.2056  14.2725  14.3860  14.4054
    14.5434  14.6513  14.6871  14.8130  14.8817  15.0024  15.1143  15.1643
    15.1766  15.2787  15.2870  15.3648  15.3691  15.5479  15.5768  15.7695
    15.7983  15.8157  15.8557  16.0257  16.0812  16.3124  16.3506  16.3999
    16.4351  16.5714  16.5919  16.7396  16.7861  16.8822  16.8958  17.0022
    17.0764  17.1506  17.2168  17.2170  17.2746  17.3542  17.4008  17.4711
    17.4751  17.5821  17.6133  17.6509  17.6673  17.7068  17.8220  17.8340
    17.8600  18.0150  18.0561  18.1094  18.1127  18.1275  18.2601  18.3947
    18.4223  18.5015  18.5896  18.6513  18.6584  18.7351  18.8088  18.8923
    18.9349  19.0512  19.1416  19.1456  19.1645  19.1979  19.2800  19.4154
    19.4369  19.5192  19.6424  19.6560

          k =-0.5000 0.0000 0.0000 ( 32166 PWs)   bands (ev):

   -56.1505 -56.1504 -55.6840 -55.6839 -55.6410 -55.6409 -55.5505 -55.5503
   -32.6564 -32.6564 -32.2596 -32.2596 -32.2473 -32.2473 -32.1673 -32.1666
   -31.9710 -31.9710 -31.9276 -31.9274 -31.8500 -31.8499 -31.7108 -31.7108
   -31.7014 -31.7013 -31.6634 -31.6634 -31.6509 -31.6506 -31.5489 -31.5487
   -20.3507 -20.3491 -19.0527 -19.0523 -18.7809 -18.7802 -18.6364 -18.6363
   -18.4798 -18.4796 -18.2383 -18.2383 -18.1656 -18.1655 -18.1208 -18.1204
   -18.0991 -18.0991  -8.6832  -8.6822  -7.0123  -7.0120  -6.4926  -6.4925
    -6.3427  -6.3424  -6.2102  -6.2096  -6.0520  -6.0518  -6.0123  -6.0120
    -5.9813  -5.9812  -5.4955  -5.4947  -5.4329  -5.4328  -5.1460  -5.1459
    -4.8091  -4.8088  -4.7053  -4.7050  -4.6722  -4.6721  -4.4406  -4.4405
    -4.3244  -4.3244  -4.0199  -4.0197  -3.9120  -3.9119  -3.8967  -3.8958
    -3.6091  -3.6089  -3.5899  -3.5899  -3.3005  -3.3004  -3.1760  -3.1756
    -3.1547  -3.1545  -2.6786  -2.6784  -2.4929  -2.4928  -2.3535  -2.3532
     0.9537   0.9539   1.0810   1.0814   1.1408   1.1409   1.4527   1.4527
     1.6948   1.6949   1.7067   1.7068   2.0866   2.0866   2.0980   2.0983
     2.2251   2.2252   2.3991   2.3996   2.8823   2.8824   3.1178   3.1182
     3.2614   3.2616   3.5615   3.5618   4.8291   4.8291   5.0099   5.0100
     5.2620   5.2622   5.4228   5.4230   5.5095   5.5101   5.7211   5.7212
     5.8079   5.8082   6.0301   6.0301   6.0333   6.0336   6.3873   6.3875
     6.6175   6.6176   6.9850   6.9852   7.0039   7.0040   7.3085   7.3086
     7.4575   7.4579   7.9519   7.9520   7.9665   7.9665   8.0504   8.0505
     8.1863   8.1864   8.4315   8.4316   8.5109   8.5110   8.5726   8.5726
     8.7838   8.7839   9.0985   9.0985   9.3411   9.3411   9.7505   9.7507
     9.7618   9.7623   9.8995   9.8996   9.9283   9.9283  10.3378  10.3379
    10.5998  10.5998  10.7696  10.7702  11.1105  11.1106  11.1513  11.1515
    11.1711  11.1712  11.4434  11.4436  11.6224  11.6225  12.0341  12.0343
    12.3993  12.3995  12.4579  12.4579  12.5919  12.5920  12.8334  12.8336
    12.8417  12.8419  13.0149  13.0151  13.1251  13.1253  13.2949  13.2950
    13.4145  13.4146  13.8014  13.8014  14.0030  14.0031  14.0565  14.0565
    14.2521  14.2522  14.2812  14.2812  14.3486  14.3486  14.4555  14.4558
    14.6434  14.6436  14.7540  14.7540  14.9015  14.9016  14.9804  14.9804
    15.2463  15.2465  15.4848  15.4848  15.5244  15.5245  15.7449  15.7450
    15.7773  15.7775  15.9854  15.9857  16.2169  16.2169  16.3055  16.3055
    16.3511  16.3511  16.4205  16.4206  16.4558  16.4559  16.6473  16.6473
    16.7612  16.7612  16.8887  16.8888  16.9229  16.9229  16.9878  16.9879
    17.0687  17.0687  17.0999  17.0999  17.1899  17.1899  17.2026  17.2027
    17.3899  17.3899  17.4593  17.4594  17.5550  17.5551  17.6320  17.6320
    17.6433  17.6433  17.8154  17.8155  17.8480  17.8480  18.0136  18.0137
    18.0620  18.0621  18.1750  18.1750  18.2428  18.2429  18.4817  18.4818
    18.5748  18.5749  18.6059  18.6060  18.6634  18.6634  18.8343  18.8343
    18.9507  18.9507  19.1469  19.1469

          k =-0.5000 0.2118 0.0000 ( 32144 PWs)   bands (ev):

   -56.1504 -56.1504 -55.6839 -55.6839 -55.6410 -55.6409 -55.5505 -55.5503
   -32.6565 -32.6565 -32.2585 -32.2585 -32.2472 -32.2472 -32.1658 -32.1652
   -31.9711 -31.9710 -31.9348 -31.9347 -31.8262 -31.8261 -31.7139 -31.7137
   -31.7013 -31.7011 -31.6744 -31.6744 -31.6571 -31.6567 -31.5485 -31.5483
   -20.3504 -20.3488 -19.0484 -19.0480 -18.7642 -18.7634 -18.6427 -18.6426
   -18.4825 -18.4822 -18.2387 -18.2387 -18.1732 -18.1732 -18.1510 -18.1507
   -18.0740 -18.0738  -8.6827  -8.6816  -7.0100  -7.0097  -6.4511  -6.4510
    -6.3501  -6.3500  -6.2652  -6.2643  -6.0441  -6.0439  -5.8257  -5.8256
    -5.7704  -5.7700  -5.5501  -5.5493  -5.2672  -5.2648  -5.1585  -5.1583
    -4.9459  -4.9456  -4.8470  -4.8457  -4.7783  -4.7780  -4.5393  -4.5391
    -4.4825  -4.4820  -4.0657  -4.0631  -4.0054  -4.0037  -3.7815  -3.7813
    -3.7218  -3.7214  -3.5471  -3.5469  -3.4158  -3.4157  -3.0914  -3.0910
    -3.0422  -3.0417  -2.6756  -2.6753  -2.5468  -2.5464  -2.3063  -2.3052
     0.9655   0.9657   1.0091   1.0098   1.2652   1.2655   1.5245   1.5253
     1.5576   1.5582   1.7438   1.7439   2.1720   2.1721   2.2200   2.2203
     2.4048   2.4056   2.5729   2.5743   2.7732   2.7739   3.0683   3.0691
     3.3722   3.3725   3.6729   3.6731   4.9069   4.9070   4.9550   4.9550
     5.1507   5.1508   5.2299   5.2300   5.4756   5.4758   5.6599   5.6606
     5.6966   5.6980   5.9995   5.9999   6.1308   6.1309   6.2765   6.2770
     6.5365   6.5366   6.6786   6.6788   6.8801   6.8803   7.0394   7.0394
     7.3113   7.3115   7.4289   7.4294   7.6324   7.6328   7.9504   7.9511
     8.1925   8.1944   8.5850   8.5873   8.6380   8.6422   8.8230   8.8231
     9.0802   9.0806   9.6105   9.6109   9.7679   9.7686   9.8801   9.8803
    10.0040  10.0046  10.1005  10.1021  10.2422  10.2451  10.5524  10.5539
    10.6782  10.6787  10.8372  10.8405  11.2984  11.3026  11.4764  11.4771
    11.5572  11.5578  11.6565  11.6566  11.8158  11.8165  12.0730  12.0735
    12.3742  12.3746  12.6040  12.6050  12.7941  12.7949  12.8183  12.8198
    12.9569  12.9575  13.1612  13.1614  13.3356  13.3363  13.4442  13.4455
    13.5308  13.5316  13.6411  13.6416  13.7729  13.7748  13.9477  13.9480
    14.0714  14.0728  14.1148  14.1156  14.1882  14.1887  14.3713  14.3722
    14.4026  14.4032  14.4375  14.4421  14.7174  14.7176  14.7411  14.7415
    14.9157  14.9168  15.0240  15.0264  15.1129  15.1142  15.1277  15.1284
    15.2179  15.2186  15.4906  15.4915  15.5518  15.5528  15.7241  15.7250
    15.7703  15.7715  15.8716  15.8730  15.9711  15.9716  16.0538  16.0539
    16.3333  16.3351  16.3822  16.3832  16.4616  16.4627  16.5808  16.5821
    16.8701  16.8727  16.9867  16.9869  17.0797  17.0819  17.1213  17.1216
    17.3697  17.3698  17.4817  17.4820  17.6638  17.6642  17.7494  17.7509
    17.8377  17.8378  18.0368  18.0372  18.0848  18.0873  18.1849  18.1866
    18.3957  18.3972  18.4415  18.4428  18.6827  18.6828  18.7595  18.7599
    18.8702  18.8716  18.9883  18.9889  19.1994  19.2008  19.2925  19.2937
    19.3958  19.3982  19.4718  19.4720

          k =-0.5000-0.4237 0.0000 ( 32256 PWs)   bands (ev):

   -56.1504 -56.1504 -55.6839 -55.6838 -55.6410 -55.6409 -55.5506 -55.5504
   -32.6567 -32.6567 -32.2574 -32.2574 -32.2473 -32.2472 -32.1644 -32.1637
   -31.9712 -31.9711 -31.9399 -31.9398 -31.7985 -31.7985 -31.7251 -31.7250
   -31.6988 -31.6987 -31.6843 -31.6842 -31.6646 -31.6642 -31.5482 -31.5480
   -20.3500 -20.3484 -19.0442 -19.0438 -18.7435 -18.7426 -18.6528 -18.6527
   -18.4849 -18.4847 -18.2392 -18.2392 -18.1807 -18.1806 -18.1692 -18.1689
   -18.0615 -18.0613  -8.6823  -8.6812  -7.0088  -7.0086  -6.3424  -6.3421
    -6.3351  -6.3349  -6.2362  -6.2356  -6.0637  -6.0635  -5.8127  -5.8125
    -5.5816  -5.5811  -5.5424  -5.5421  -5.2353  -5.2352  -5.1255  -5.1255
    -5.0185  -5.0183  -4.9624  -4.9622  -4.8938  -4.8938  -4.4452  -4.4450
    -4.4240  -4.4238  -4.2513  -4.2511  -4.2201  -4.2201  -3.8736  -3.8736
    -3.8522  -3.8521  -3.6569  -3.6568  -3.2845  -3.2843  -2.9747  -2.9747
    -2.9132  -2.9129  -2.6781  -2.6779  -2.6607  -2.6606  -2.2387  -2.2386
     0.9527   0.9528   1.0631   1.0633   1.0955   1.0955   1.4670   1.4671
     1.4833   1.4834   2.1217   2.1218   2.2810   2.2814   2.4792   2.4793
     2.5218   2.5218   2.5693   2.5699   2.8295   2.8296   3.0306   3.0308
     3.4783   3.4786   3.8193   3.8196   4.4459   4.4463   4.7202   4.7202
     4.9330   4.9331   5.3721   5.3722   5.6437   5.6437   5.6755   5.6756
     5.8940   5.8940   5.9163   5.9164   6.0213   6.0214   6.1079   6.1080
     6.4131   6.4132   6.4489   6.4491   6.7621   6.7622   6.8682   6.8683
     7.0792   7.0793   7.3073   7.3074   7.5413   7.5415   7.9906   7.9907
     8.0852   8.0853   8.3587   8.3589   8.8665   8.8671   9.0906   9.0906
     9.2370   9.2372   9.4850   9.4851   9.5849   9.5854   9.7719   9.7724
    10.6515  10.6515  10.7574  10.7575  10.7705  10.7705  10.8474  10.8475
    11.3404  11.3405  11.6004  11.6004  11.6867  11.6867  11.7916  11.7919
    11.8664  11.8665  12.1087  12.1089  12.1189  12.1190  12.3123  12.3125
    12.3185  12.3185  12.4775  12.4776  12.6360  12.6360  12.7694  12.7695
    12.8384  12.8384  12.9733  12.9733  13.0489  13.0490  13.1439  13.1439
    13.3504  13.3504  13.3989  13.3990  13.4367  13.4368  13.5006  13.5007
    13.7235  13.7238  13.8579  13.8579  14.0900  14.0901  14.1726  14.1726
    14.3162  14.3163  14.3555  14.3555  14.3898  14.3899  14.5473  14.5473
    14.5781  14.5781  14.7270  14.7270  14.7583  14.7584  14.7836  14.7837
    14.9719  14.9719  15.1416  15.1417  15.2758  15.2758  15.4455  15.4456
    15.5109  15.5109  15.6561  15.6563  15.7767  15.7767  15.8243  15.8243
    15.9013  15.9014  16.0564  16.0564  16.2860  16.2860  16.6643  16.6643
    16.6843  16.6845  17.0022  17.0023  17.0496  17.0496  17.1342  17.1342
    17.2964  17.2966  17.5504  17.5504  17.6282  17.6285  17.6813  17.6814
    17.7519  17.7520  17.8797  17.8798  18.0571  18.0572  18.4492  18.4493
    18.4872  18.4875  18.6670  18.6671  18.6789  18.6791  18.8148  18.8148
    19.0645  19.0646  19.3912  19.3912  19.5895  19.5896  19.6711  19.6712
    19.7520  19.7520  19.8836  19.8837

          k =-0.2500 0.2118 0.0000 ( 32165 PWs)   bands (ev):

   -56.1820 -56.1186 -55.7115 -55.6679 -55.6561 -55.6138 -55.5776 -55.5231
   -33.0016 -32.3707 -32.2905 -32.2499 -32.2333 -32.1953 -32.1662 -32.1496
   -32.1469 -31.9972 -31.9775 -31.9750 -31.9580 -31.9461 -31.8553 -31.7378
   -31.7203 -31.6221 -31.6197 -31.5929 -31.5385 -31.4830 -31.4087 -31.3985
   -20.4307 -20.3189 -19.2145 -18.9287 -18.9133 -18.7839 -18.6776 -18.6566
   -18.6502 -18.5704 -18.5666 -18.5348 -18.1296 -18.0387 -18.0168 -17.9226
   -17.8243 -17.6956  -8.8289  -8.6206  -7.4592  -6.8551  -6.6645  -6.5760
    -6.5390  -6.3681  -6.3155  -6.1374  -6.1318  -6.0948  -6.0748  -5.9054
    -5.8479  -5.7804  -5.7685  -5.5102  -5.4997  -5.4413  -5.1312  -5.1180
    -5.0178  -4.9279  -4.8563  -4.6534  -4.5269  -4.3931  -4.3075  -4.3067
    -4.2505  -4.1490  -3.9698  -3.9575  -3.9572  -3.8674  -3.8446  -3.7868
    -3.5915  -3.5523  -3.4961  -3.4903  -3.3704  -3.2819  -3.1688  -3.1145
    -3.0626  -2.9677  -2.8439  -2.7020  -2.6635  -2.5372  -2.4803  -2.1602
    -0.1440   0.4604   0.6419   0.9311   1.0147   1.2746   1.5486   1.6904
     1.7123   1.8192   2.1273   2.1278   2.2874   2.3478   2.3668   2.5997
     2.6159   2.6581   2.7284   2.7623   2.8304   2.9874   3.0252   3.1024
     3.2244   3.3801   3.6075   4.2405   4.5121   4.5610   4.6974   4.8740
     4.9788   5.1302   5.2096   5.2554   5.3021   5.3912   5.5970   5.7066
     5.7839   5.9107   5.9796   6.0419   6.2352   6.3451   6.3959   6.5159
     6.5436   6.6732   6.7126   6.8386   6.9634   7.0303   7.2242   7.2479
     7.3980   7.5217   7.7280   7.8131   7.9216   7.9417   8.1251   8.1610
     8.2994   8.3219   8.4452   8.6637   8.7170   8.8549   9.0347   9.0588
     9.0808   9.2062   9.3182   9.4373   9.5719   9.5852   9.6553   9.7708
     9.8947   9.9436  10.0024  10.1540  10.2074  10.3423  10.4181  10.6025
    10.7363  10.7512  10.9107  10.9575  11.0200  11.0824  11.1634  11.2337
    11.2451  11.3832  11.4669  11.4824  11.5244  11.5372  11.7355  11.8477
    11.9121  12.0477  12.0992  12.1794  12.2336  12.3431  12.4530  12.4735
    12.6433  12.6893  12.7145  12.7833  12.8653  12.8801  12.9075  12.9618
    13.0684  13.0885  13.1928  13.2487  13.3087  13.4038  13.4735  13.4913
    13.6804  13.6981  13.7605  13.9039  13.9271  13.9546  13.9608  14.0697
    14.1042  14.2717  14.3119  14.4024  14.5146  14.6181  14.6595  14.8584
    14.8897  14.9184  15.0739  15.1226  15.1796  15.2210  15.2488  15.3653
    15.3759  15.4032  15.4746  15.5182  15.5910  15.7220  15.7856  15.7918
    15.8309  15.8815  16.0337  16.0359  16.0766  16.2455  16.2606  16.3915
    16.4443  16.5886  16.5892  16.6624  16.7469  16.7524  16.7824  16.8807
    16.9808  16.9900  17.0314  17.2289  17.2606  17.2761  17.3703  17.4064
    17.4590  17.5416  17.6337  17.6761  17.7116  17.8527  17.8734  17.9835
    18.0271  18.0617  18.0817  18.2252  18.3268  18.4099  18.5018  18.5903
    18.6112  18.6931  18.7372  18.7772  18.8604  18.9095  18.9320  19.0334
    19.1605  19.1762  19.2842  19.2915  19.3237  19.3666  19.4309  19.5407
    19.5458  19.5978  19.6465  19.7053

     the Fermi energy is     1.0308 ev

!    total energy              =   -1530.21359151 Ry
     Harris-Foulkes estimate   =   -1530.21359147 Ry
     estimated scf accuracy    <       0.00000027 Ry

     The total energy is the sum of the following terms:

     one-electron contribution =  -18315.36831264 Ry
     hartree contribution      =    9184.38143538 Ry
     xc contribution           =    -279.65957517 Ry
     ewald contribution        =    7880.43512075 Ry
     smearing contrib. (-TS)   =      -0.00225982 Ry

     convergence has been achieved in  16 iterations

     Forces acting on atoms (Ry/au):


     negative rho (up, down):  0.356E-02 0.000E+00
     atom    1 type  1   force =     0.00056262   -0.00054086   -0.00015810
     atom    2 type  1   force =    -0.00091137    0.00054944    0.00003210
     atom    3 type  2   force =     0.00136240   -0.00047593   -0.00002811
     atom    4 type  2   force =    -0.00371335    0.00049659   -0.00017043
     atom    5 type  1   force =     0.00034193   -0.02492964    0.00007659
     atom    6 type  1   force =     0.00056999    0.02457640   -0.00014256
     atom    7 type  1   force =     0.00004865    0.00017611    0.00017253
     atom    8 type  1   force =     0.00166707   -0.00006881    0.00009920
     atom    9 type  2   force =    -0.00020152    0.00003556   -0.00001070
     atom   10 type  2   force =     0.00002569   -0.00003900   -0.00029362
     atom   11 type  1   force =     0.00007924   -0.04607126    0.00006621
     atom   12 type  1   force =     0.00008986    0.04609902    0.00000373
     atom   13 type  1   force =     0.00034991   -0.00002095    0.00005301
     atom   14 type  1   force =     0.00046505   -0.00052719   -0.00009952
     atom   15 type  1   force =    -0.00094822    0.00053638   -0.00041825
     atom   16 type  2   force =     0.00137874   -0.00047803   -0.00002564
     atom   17 type  2   force =    -0.00370264    0.00049379   -0.00017630
     atom   18 type  1   force =     0.00032436   -0.02491582    0.00007842
     atom   19 type  1   force =     0.00052869    0.02456325   -0.00014032
     atom   20 type  1   force =     0.00001896    0.00017159    0.00006308
     atom   21 type  1   force =     0.00166189   -0.00006879   -0.00006304
     atom   22 type  2   force =    -0.00022618    0.00003562   -0.00001126
     atom   23 type  2   force =     0.00002835   -0.00003948   -0.00008214
     atom   24 type  1   force =     0.00006651   -0.04607072    0.00006825
     atom   25 type  1   force =     0.00007456    0.04609810    0.00000578
     atom   26 type  1   force =     0.00034878   -0.00002093    0.00005615
     atom   27 type  3   force =    -0.00003765   -0.00019237    0.00022176
     atom   28 type  3   force =    -0.00003427   -0.00020452    0.00067273
     atom   29 type  3   force =    -0.00015369    0.00041884    0.00009464
     atom   30 type  3   force =    -0.00006439    0.00041361    0.00005582

     Total force =     0.001204     Total SCF correction =     0.001179
     SCF correction compared to forces is large: reduce conv_thr to get better values

     BFGS Geometry Optimization

     bfgs converged in   1 scf cycles and   0 bfgs steps
     (criteria: energy < 0.10E-03, force < 0.10E-02)

     End of BFGS Geometry Optimization

     Final energy   =   -1530.2135915088 Ry
Begin final coordinates

ATOMIC_POSITIONS (crystal)
O0       0.000000000   0.000000000   0.374700000    0   0   1
O0       0.000000000   0.500000000   0.385740000    0   0   1
Nb1      0.250000000   0.500000000   0.440200000    0   0   1
Nb1      0.000000000   0.000000000   0.447550000    0   0   1
O0       0.250000000   0.790000000   0.448160000    0   0   1
O0       0.250000000   0.210000000   0.448200000    0   0   1
O0       0.000000000   0.500000000   0.498190000    0   0   1
O0       0.000000000   0.000000000   0.526470000    0   0   1
Nb1      0.250000000   0.000000000   0.581100000    0   0   1
Nb1      0.000000000   0.500000000   0.567470000    0   0   1
O0       0.250000000   0.710000000   0.580120000    0   0   1
O0       0.250000000   0.290000000   0.580130000    0   0   1
O0       0.000000000   0.000000000   0.625620000    0   0   1
O0       0.500000000   0.000000000   0.374700000    0   0   1
O0       0.500000000   0.500000000   0.385740000    0   0   1
Nb1      0.750000000   0.500000000   0.440200000    0   0   1
Nb1      0.500000000   0.000000000   0.447550000    0   0   1
O0       0.750000000   0.790000000   0.448160000    0   0   1
O0       0.750000000   0.210000000   0.448200000    0   0   1
O0       0.500000000   0.500000000   0.498190000    0   0   1
O0       0.500000000   0.000000000   0.526480000    0   0   1
Nb1      0.750000000   0.000000000   0.581100000    0   0   1
Nb1      0.500000000   0.500000000   0.567460000    0   0   1
O0       0.750000000   0.710000000   0.580120000    0   0   1
O0       0.750000000   0.290000000   0.580130000    0   0   1
O0       0.500000000   0.000000000   0.625620000    0   0   1
H2      -0.000420000   0.502910000   0.349430000
H2       0.499580000   0.502680000   0.349420000
H2       0.151300000  -0.001220000   0.359170000
H2       0.651290000  -0.001220000   0.359170000
End final coordinates



     init_run     :     55.24s CPU     71.14s WALL (       1 calls)
     electrons    :   2579.70s CPU   3324.48s WALL (       1 calls)
     forces       :     30.82s CPU     32.78s WALL (       1 calls)

     Called by init_run:
     wfcinit      :     37.88s CPU     52.95s WALL (       1 calls)
     potinit      :      2.46s CPU      2.94s WALL (       1 calls)

     Called by electrons:
     c_bands      :   2003.45s CPU   2596.71s WALL (      16 calls)
     sum_band     :    353.76s CPU    487.58s WALL (      16 calls)
     v_of_rho     :      9.45s CPU     15.33s WALL (      17 calls)
     newd         :    219.15s CPU    223.65s WALL (      17 calls)
     mix_rho      :      1.85s CPU      3.16s WALL (      16 calls)

     Called by c_bands:
     init_us_2    :      2.48s CPU      2.51s WALL (     340 calls)
     cegterg      :   1992.86s CPU   2586.02s WALL (     160 calls)

     Called by *egterg:
     h_psi        :   1011.40s CPU   1549.04s WALL (     591 calls)
     s_psi        :     71.81s CPU     71.88s WALL (     591 calls)
     g_psi        :      1.60s CPU      1.60s WALL (     421 calls)
     cdiaghg      :    564.88s CPU    582.78s WALL (     581 calls)

     Called by h_psi:
     add_vuspsi   :     72.60s CPU     72.97s WALL (     591 calls)

     General routines
     calbec       :    113.63s CPU    125.38s WALL (     761 calls)
     fft          :     17.28s CPU     31.83s WALL (     279 calls)
     ffts         :      0.29s CPU      0.54s WALL (      33 calls)
     fftw         :    938.02s CPU   1590.63s WALL (  283054 calls)
     interpolate  :      2.03s CPU      3.68s WALL (      33 calls)

     Parallel routines
     fft_scatter  :    699.67s CPU   1363.71s WALL (  283366 calls)

     PWSCF        : 44m25.96s CPU    57m 8.81s WALL


   This run was terminated on:  19:56:15  27Feb2014            

=------------------------------------------------------------------------------=
   JOB DONE.
=------------------------------------------------------------------------------=
---------------------------------------
Running PBS batch system epilogue script
Job id: 278711.audhumbla.fysik.dtu.dk
Username: zhonxu
Groupname: campgst
Jobname: NbO2/bare
Sessionid: 30956
Resources limits: neednodes=2:ppn=8:xeon8,nodes=2:ppn=8:xeon8,walltime=48:00:00
Resources used: cput=15:13:41,mem=6873048kb,vmem=10237264kb,walltime=00:57:10
Queuename: verylong
Accounting:
This job has allocated the following 16 nodes:
c021 c021 c021 c021 c021 c021 c021 c021 c008 c008 c008 c008 c008 c008 c008 c008
Finished epilogue job 278711.audhumbla.fysik.dtu.dk for zhonxu
