loading modules
dropbox is Dropbox isn't running!

     Program PWSCF v.5.0.2 (svn rev. 9656) starts on 17Sep2014 at 14:12:51 

     This program is part of the open-source Quantum ESPRESSO suite
     for quantum simulation of materials; please cite
         "P. Giannozzi et al., J. Phys.:Condens. Matter 21 395502 (2009);
          URL http://www.quantum-espresso.org", 
     in publications or presentations arising from this work. More details at
     http://www.quantum-espresso.org/quote.php

     Parallel version (MPI), running on    16 processors
     K-points division:     npool     =       4
     R & G space division:  proc/nbgrp/npool/nimage =       4

     Current dimensions of program PWSCF are:
     Max number of different atomic species (ntypx) = 10
     Max number of k-points (npk) =  40000
     Max angular momentum in pseudopotentials (lmaxx) =  3
     Reading input from pwscf.in
Warning: card &CELL ignored
Warning: card / ignored

     Subspace diagonalization in iterative solution of the eigenvalue problem:
     a serial algorithm will be used

 
     Parallelization info
     --------------------
     sticks:   dense  smooth     PW     G-vecs:    dense   smooth      PW
     Min        1244     397    112               291872    52833    7934
     Max        1245     398    113               291883    52857    7939
     Sum        4979    1589    451              1167509   211387   31747
 


     bravais-lattice index     =            0
     lattice parameter (alat)  =      10.7336  a.u.
     unit-cell volume          =    6184.1966 (a.u.)^3
     number of atoms/cell      =           33
     number of atomic types    =            3
     number of electrons       =       245.00 (up: 134.00, down: 111.00)
     number of Kohn-Sham states=          367
     kinetic-energy cutoff     =      40.0000  Ry
     charge density cutoff     =     500.0000  Ry
     convergence threshold     =      1.0E-06
     mixing beta               =       0.7000
     number of iterations used =            8  plain     mixing
     Exchange-correlation      = SLA  PW   PBE  PBE ( 1 4 3 4 0)
     EXX-fraction              =        0.00
     nstep                     =           50


     celldm(1)=  10.733644  celldm(2)=   0.000000  celldm(3)=   0.000000
     celldm(4)=   0.000000  celldm(5)=   0.000000  celldm(6)=   0.000000

     crystal axes: (cart. coord. in units of alat)
               a(1) = (   1.000000   0.000000   0.000000 )  
               a(2) = (   0.000000   1.085558   0.000000 )  
               a(3) = (   0.000000   0.000000   4.606685 )  

     reciprocal axes: (cart. coord. in units 2 pi/alat)
               b(1) = (  1.000000  0.000000  0.000000 )  
               b(2) = (  0.000000  0.921185  0.000000 )  
               b(3) = (  0.000000  0.000000  0.217076 )  


     PseudoPot. # 1 for O  read from file:
     /home-research/zhongnanxu/pseudopotentials/gbrv_espresso_pseudo_v1.01/o_pbe_v1.01.uspp.F.UPF
     MD5 check sum: 2bcb18d16ea4b960afae9ec6d52f22d2
     Pseudo is Ultrasoft + core correction, Zval =  6.0
     Generated by new atomic code, or converted to UPF format
     Using radial grid of  737 points,  5 beta functions with: 
                l(1) =   0
                l(2) =   0
                l(3) =   1
                l(4) =   1
                l(5) =   2
     Q(r) pseudized with  8 coefficients,  rinner =    0.900   0.900   0.900
                                                       0.900   0.900

     PseudoPot. # 2 for Mn read from file:
     /home-research/zhongnanxu/pseudopotentials/gbrv_espresso_pseudo_v1.01/mn_pbe_v1.uspp.F.UPF
     MD5 check sum: 5fd7c7b5c956fd19902447332617373a
     Pseudo is Ultrasoft + core correction, Zval = 15.0
     Generated by new atomic code, or converted to UPF format
     Using radial grid of  859 points,  6 beta functions with: 
                l(1) =   0
                l(2) =   0
                l(3) =   1
                l(4) =   1
                l(5) =   2
                l(6) =   2
     Q(r) pseudized with  6 coefficients,  rinner =    1.150   1.150   1.150
                                                       1.150   1.150

     PseudoPot. # 3 for H  read from file:
     /home-research/zhongnanxu/pseudopotentials/gbrv_espresso_pseudo_v1.01/h_pbe_v1.uspp.F.UPF
     MD5 check sum: 3408e3ff4ec8b0a4e358431e7e038a48
     Pseudo is Ultrasoft, Zval =  1.0
     Generated by new atomic code, or converted to UPF format
     Using radial grid of  615 points,  2 beta functions with: 
                l(1) =   0
                l(2) =   0
     Q(r) pseudized with  8 coefficients,  rinner =    0.700

     atomic species   valence    mass     pseudopotential
        O0             6.00    15.99940     O ( 1.00)
        Mn1           15.00    54.93800     Mn( 1.00)
        H2             1.00     1.00794     H ( 1.00)

     Starting magnetic structure 
     atomic species   magnetization
        O0           0.000
        Mn1          0.600
        H2           0.000


     Simplified LDA+U calculation (l_max = 2) with parameters (eV):
     atomic species    L          U    alpha       J0     beta
        Mn1            2     3.5000   0.0000   0.0000   0.0000



     No symmetry found



   Cartesian axes

     site n.     atom                  positions (alat units)
         1           O0  tau(   1) = (   0.0000000   0.0000000   1.7437224  )
         2           O0  tau(   2) = (   0.0000000   0.5427791   1.8429044  )
         3           Mn1 tau(   3) = (   0.2500000   0.5427791   2.0790891  )
         4           Mn1 tau(   4) = (   0.0000000   0.0000000   2.0720409  )
         5           O0  tau(   5) = (   0.2500000   0.8684466   2.0701982  )
         6           O0  tau(   6) = (   0.2500000   0.2171117   2.0775689  )
         7           O0  tau(   7) = (   0.0000000   0.5427791   2.2916415  )
         8           O0  tau(   8) = (   0.0000000   0.0000000   2.4165748  )
         9           Mn1 tau(   9) = (   0.2500000   0.0000000   2.6429013  )
        10           Mn1 tau(  10) = (   0.0000000   0.5427791   2.6202364  )
        11           O0  tau(  11) = (   0.2500000   0.7598908   2.6530821  )
        12           O0  tau(  12) = (   0.2500000   0.3256675   2.6691594  )
        13           O0  tau(  13) = (   0.0000000   0.0000000   2.8472538  )
        14           O0  tau(  14) = (   0.5000000   0.0000000   1.7445516  )
        15           O0  tau(  15) = (   0.5000000   0.5427791   1.8431808  )
        16           Mn1 tau(  16) = (   0.7500000   0.5427791   2.0791352  )
        17           Mn1 tau(  17) = (   0.5000000   0.0000000   2.0732386  )
        18           O0  tau(  18) = (   0.7500000   0.8684466   2.0702443  )
        19           O0  tau(  19) = (   0.7500000   0.2171117   2.0776150  )
        20           O0  tau(  20) = (   0.5000000   0.5427791   2.2991504  )
        21           O0  tau(  21) = (   0.5000000   0.0000000   2.4162063  )
        22           Mn1 tau(  22) = (   0.7500000   0.0000000   2.6429474  )
        23           Mn1 tau(  23) = (   0.5000000   0.5427791   2.6555697  )
        24           O0  tau(  24) = (   0.7500000   0.7598908   2.6530360  )
        25           O0  tau(  25) = (   0.7500000   0.3256675   2.6692055  )
        26           O0  tau(  26) = (   0.5000000   0.0000000   2.8451348  )
        27           H2  tau(  27) = (   0.0001200   0.7023996   1.7685525  )
        28           H2  tau(  28) = (   0.5001300   0.7024539   1.7688749  )
        29           H2  tau(  29) = (   0.1617300   0.0395469   1.6903309  )
        30           H2  tau(  30) = (   0.6616200   0.0396554   1.6909759  )
        31           O0  tau(  31) = (   0.4997000   0.5889697   2.9894622  )
        32           O0  tau(  32) = (   0.5006400   0.3801951   3.1245302  )
        33           H2  tau(  33) = (   0.4997200   0.4495948   3.2842900  )

     number of k points=    20  Methfessel-Paxton smearing, width (Ry)=  0.0100
                       cart. coord. in units 2pi/alat
        k(    1) = (   0.0000000   0.0000000   0.0000000), wk =   0.0625000
        k(    2) = (   0.0000000   0.2302962   0.0000000), wk =   0.1250000
        k(    3) = (   0.0000000  -0.4605925   0.0000000), wk =   0.0625000
        k(    4) = (   0.2500000   0.0000000   0.0000000), wk =   0.1250000
        k(    5) = (   0.2500000   0.2302962   0.0000000), wk =   0.1250000
        k(    6) = (   0.2500000  -0.4605925   0.0000000), wk =   0.1250000
        k(    7) = (  -0.5000000   0.0000000   0.0000000), wk =   0.0625000
        k(    8) = (  -0.5000000   0.2302962   0.0000000), wk =   0.1250000
        k(    9) = (  -0.5000000  -0.4605925   0.0000000), wk =   0.0625000
        k(   10) = (  -0.2500000   0.2302962   0.0000000), wk =   0.1250000
        k(   11) = (   0.0000000   0.0000000   0.0000000), wk =   0.0625000
        k(   12) = (   0.0000000   0.2302962   0.0000000), wk =   0.1250000
        k(   13) = (   0.0000000  -0.4605925   0.0000000), wk =   0.0625000
        k(   14) = (   0.2500000   0.0000000   0.0000000), wk =   0.1250000
        k(   15) = (   0.2500000   0.2302962   0.0000000), wk =   0.1250000
        k(   16) = (   0.2500000  -0.4605925   0.0000000), wk =   0.1250000
        k(   17) = (  -0.5000000   0.0000000   0.0000000), wk =   0.0625000
        k(   18) = (  -0.5000000   0.2302962   0.0000000), wk =   0.1250000
        k(   19) = (  -0.5000000  -0.4605925   0.0000000), wk =   0.0625000
        k(   20) = (  -0.2500000   0.2302962   0.0000000), wk =   0.1250000

     Dense  grid:  1167509 G-vectors     FFT dimensions: (  80,  90, 360)

     Smooth grid:   211387 G-vectors     FFT dimensions: (  45,  48, 200)

     Largest allocated arrays     est. size (Mb)     dimensions
        Kohn-Sham Wavefunctions        37.19 Mb     (   6641,  367)
        Atomic wavefunctions           19.15 Mb     (   6641,  189)
        NL pseudopotentials            41.95 Mb     (   6641,  414)
        Each V/rho on FFT grid         19.78 Mb     ( 648000,   2)
        Each G-vector array             2.23 Mb     ( 291883)
        G-vector shells                 0.97 Mb     ( 127585)
     Largest temporary arrays     est. size (Mb)     dimensions
        Auxiliary wavefunctions       148.76 Mb     (   6641, 1468)
        Each subspace H/S matrix       32.88 Mb     (1468,1468)
        Each <psi_i|beta_j> matrix      2.32 Mb     (    414,  367)
        Arrays for rho mixing          79.10 Mb     ( 648000,   8)

     Check: negative/imaginary core charge=   -0.000022    0.000000

     Initial potential from superposition of free atoms
     Check: negative starting charge=(component1):   -0.000638
     Check: negative starting charge=(component2):   -0.000356

     starting charge  236.99986, renormalised to  245.00000

     negative rho (up, down):  0.660E-03 0.368E-03
     Number of +U iterations with fixed ns =  0
     Starting occupations:
 --- enter write_ns ---
 LDA+U parameters:
U( 2)     =  3.50000000
alpha( 2) =  0.00000000
atom    3   Tr[ns(na)] (up, down, total) =   5.00000  0.00000  5.00000
   spin  1
    eigenvalues: 
  1.000  1.000  1.000  1.000  1.000
    eigenvectors:
  1.000  0.000  0.000  0.000  0.000
  0.000  1.000  0.000  0.000  0.000
  0.000  0.000  1.000  0.000  0.000
  0.000  0.000  0.000  1.000  0.000
  0.000  0.000  0.000  0.000  1.000
    occupations:
  1.000  0.000  0.000  0.000  0.000
  0.000  1.000  0.000  0.000  0.000
  0.000  0.000  1.000  0.000  0.000
  0.000  0.000  0.000  1.000  0.000
  0.000  0.000  0.000  0.000  1.000
   spin  2
    eigenvalues: 
  0.000  0.000  0.000  0.000  0.000
    eigenvectors:
  1.000  0.000  0.000  0.000  0.000
  0.000  1.000  0.000  0.000  0.000
  0.000  0.000  1.000  0.000  0.000
  0.000  0.000  0.000  1.000  0.000
  0.000  0.000  0.000  0.000  1.000
    occupations:
  0.000  0.000  0.000  0.000  0.000
  0.000  0.000  0.000  0.000  0.000
  0.000  0.000  0.000  0.000  0.000
  0.000  0.000  0.000  0.000  0.000
  0.000  0.000  0.000  0.000  0.000
atomic mag. moment =     5.000000
atom    4   Tr[ns(na)] (up, down, total) =   5.00000  0.00000  5.00000
   spin  1
    eigenvalues: 
  1.000  1.000  1.000  1.000  1.000
    eigenvectors:
  1.000  0.000  0.000  0.000  0.000
  0.000  1.000  0.000  0.000  0.000
  0.000  0.000  1.000  0.000  0.000
  0.000  0.000  0.000  1.000  0.000
  0.000  0.000  0.000  0.000  1.000
    occupations:
  1.000  0.000  0.000  0.000  0.000
  0.000  1.000  0.000  0.000  0.000
  0.000  0.000  1.000  0.000  0.000
  0.000  0.000  0.000  1.000  0.000
  0.000  0.000  0.000  0.000  1.000
   spin  2
    eigenvalues: 
  0.000  0.000  0.000  0.000  0.000
    eigenvectors:
  1.000  0.000  0.000  0.000  0.000
  0.000  1.000  0.000  0.000  0.000
  0.000  0.000  1.000  0.000  0.000
  0.000  0.000  0.000  1.000  0.000
  0.000  0.000  0.000  0.000  1.000
    occupations:
  0.000  0.000  0.000  0.000  0.000
  0.000  0.000  0.000  0.000  0.000
  0.000  0.000  0.000  0.000  0.000
  0.000  0.000  0.000  0.000  0.000
  0.000  0.000  0.000  0.000  0.000
atomic mag. moment =     5.000000
atom    9   Tr[ns(na)] (up, down, total) =   5.00000  0.00000  5.00000
   spin  1
    eigenvalues: 
  1.000  1.000  1.000  1.000  1.000
    eigenvectors:
  1.000  0.000  0.000  0.000  0.000
  0.000  1.000  0.000  0.000  0.000
  0.000  0.000  1.000  0.000  0.000
  0.000  0.000  0.000  1.000  0.000
  0.000  0.000  0.000  0.000  1.000
    occupations:
  1.000  0.000  0.000  0.000  0.000
  0.000  1.000  0.000  0.000  0.000
  0.000  0.000  1.000  0.000  0.000
  0.000  0.000  0.000  1.000  0.000
  0.000  0.000  0.000  0.000  1.000
   spin  2
    eigenvalues: 
  0.000  0.000  0.000  0.000  0.000
    eigenvectors:
  1.000  0.000  0.000  0.000  0.000
  0.000  1.000  0.000  0.000  0.000
  0.000  0.000  1.000  0.000  0.000
  0.000  0.000  0.000  1.000  0.000
  0.000  0.000  0.000  0.000  1.000
    occupations:
  0.000  0.000  0.000  0.000  0.000
  0.000  0.000  0.000  0.000  0.000
  0.000  0.000  0.000  0.000  0.000
  0.000  0.000  0.000  0.000  0.000
  0.000  0.000  0.000  0.000  0.000
atomic mag. moment =     5.000000
atom   10   Tr[ns(na)] (up, down, total) =   5.00000  0.00000  5.00000
   spin  1
    eigenvalues: 
  1.000  1.000  1.000  1.000  1.000
    eigenvectors:
  1.000  0.000  0.000  0.000  0.000
  0.000  1.000  0.000  0.000  0.000
  0.000  0.000  1.000  0.000  0.000
  0.000  0.000  0.000  1.000  0.000
  0.000  0.000  0.000  0.000  1.000
    occupations:
  1.000  0.000  0.000  0.000  0.000
  0.000  1.000  0.000  0.000  0.000
  0.000  0.000  1.000  0.000  0.000
  0.000  0.000  0.000  1.000  0.000
  0.000  0.000  0.000  0.000  1.000
   spin  2
    eigenvalues: 
  0.000  0.000  0.000  0.000  0.000
    eigenvectors:
  1.000  0.000  0.000  0.000  0.000
  0.000  1.000  0.000  0.000  0.000
  0.000  0.000  1.000  0.000  0.000
  0.000  0.000  0.000  1.000  0.000
  0.000  0.000  0.000  0.000  1.000
    occupations:
  0.000  0.000  0.000  0.000  0.000
  0.000  0.000  0.000  0.000  0.000
  0.000  0.000  0.000  0.000  0.000
  0.000  0.000  0.000  0.000  0.000
  0.000  0.000  0.000  0.000  0.000
atomic mag. moment =     5.000000
atom   16   Tr[ns(na)] (up, down, total) =   5.00000  0.00000  5.00000
   spin  1
    eigenvalues: 
  1.000  1.000  1.000  1.000  1.000
    eigenvectors:
  1.000  0.000  0.000  0.000  0.000
  0.000  1.000  0.000  0.000  0.000
  0.000  0.000  1.000  0.000  0.000
  0.000  0.000  0.000  1.000  0.000
  0.000  0.000  0.000  0.000  1.000
    occupations:
  1.000  0.000  0.000  0.000  0.000
  0.000  1.000  0.000  0.000  0.000
  0.000  0.000  1.000  0.000  0.000
  0.000  0.000  0.000  1.000  0.000
  0.000  0.000  0.000  0.000  1.000
   spin  2
    eigenvalues: 
  0.000  0.000  0.000  0.000  0.000
    eigenvectors:
  1.000  0.000  0.000  0.000  0.000
  0.000  1.000  0.000  0.000  0.000
  0.000  0.000  1.000  0.000  0.000
  0.000  0.000  0.000  1.000  0.000
  0.000  0.000  0.000  0.000  1.000
    occupations:
  0.000  0.000  0.000  0.000  0.000
  0.000  0.000  0.000  0.000  0.000
  0.000  0.000  0.000  0.000  0.000
  0.000  0.000  0.000  0.000  0.000
  0.000  0.000  0.000  0.000  0.000
atomic mag. moment =     5.000000
atom   17   Tr[ns(na)] (up, down, total) =   5.00000  0.00000  5.00000
   spin  1
    eigenvalues: 
  1.000  1.000  1.000  1.000  1.000
    eigenvectors:
  1.000  0.000  0.000  0.000  0.000
  0.000  1.000  0.000  0.000  0.000
  0.000  0.000  1.000  0.000  0.000
  0.000  0.000  0.000  1.000  0.000
  0.000  0.000  0.000  0.000  1.000
    occupations:
  1.000  0.000  0.000  0.000  0.000
  0.000  1.000  0.000  0.000  0.000
  0.000  0.000  1.000  0.000  0.000
  0.000  0.000  0.000  1.000  0.000
  0.000  0.000  0.000  0.000  1.000
   spin  2
    eigenvalues: 
  0.000  0.000  0.000  0.000  0.000
    eigenvectors:
  1.000  0.000  0.000  0.000  0.000
  0.000  1.000  0.000  0.000  0.000
  0.000  0.000  1.000  0.000  0.000
  0.000  0.000  0.000  1.000  0.000
  0.000  0.000  0.000  0.000  1.000
    occupations:
  0.000  0.000  0.000  0.000  0.000
  0.000  0.000  0.000  0.000  0.000
  0.000  0.000  0.000  0.000  0.000
  0.000  0.000  0.000  0.000  0.000
  0.000  0.000  0.000  0.000  0.000
atomic mag. moment =     5.000000
atom   22   Tr[ns(na)] (up, down, total) =   5.00000  0.00000  5.00000
   spin  1
    eigenvalues: 
  1.000  1.000  1.000  1.000  1.000
    eigenvectors:
  1.000  0.000  0.000  0.000  0.000
  0.000  1.000  0.000  0.000  0.000
  0.000  0.000  1.000  0.000  0.000
  0.000  0.000  0.000  1.000  0.000
  0.000  0.000  0.000  0.000  1.000
    occupations:
  1.000  0.000  0.000  0.000  0.000
  0.000  1.000  0.000  0.000  0.000
  0.000  0.000  1.000  0.000  0.000
  0.000  0.000  0.000  1.000  0.000
  0.000  0.000  0.000  0.000  1.000
   spin  2
    eigenvalues: 
  0.000  0.000  0.000  0.000  0.000
    eigenvectors:
  1.000  0.000  0.000  0.000  0.000
  0.000  1.000  0.000  0.000  0.000
  0.000  0.000  1.000  0.000  0.000
  0.000  0.000  0.000  1.000  0.000
  0.000  0.000  0.000  0.000  1.000
    occupations:
  0.000  0.000  0.000  0.000  0.000
  0.000  0.000  0.000  0.000  0.000
  0.000  0.000  0.000  0.000  0.000
  0.000  0.000  0.000  0.000  0.000
  0.000  0.000  0.000  0.000  0.000
atomic mag. moment =     5.000000
atom   23   Tr[ns(na)] (up, down, total) =   5.00000  0.00000  5.00000
   spin  1
    eigenvalues: 
  1.000  1.000  1.000  1.000  1.000
    eigenvectors:
  1.000  0.000  0.000  0.000  0.000
  0.000  1.000  0.000  0.000  0.000
  0.000  0.000  1.000  0.000  0.000
  0.000  0.000  0.000  1.000  0.000
  0.000  0.000  0.000  0.000  1.000
    occupations:
  1.000  0.000  0.000  0.000  0.000
  0.000  1.000  0.000  0.000  0.000
  0.000  0.000  1.000  0.000  0.000
  0.000  0.000  0.000  1.000  0.000
  0.000  0.000  0.000  0.000  1.000
   spin  2
    eigenvalues: 
  0.000  0.000  0.000  0.000  0.000
    eigenvectors:
  1.000  0.000  0.000  0.000  0.000
  0.000  1.000  0.000  0.000  0.000
  0.000  0.000  1.000  0.000  0.000
  0.000  0.000  0.000  1.000  0.000
  0.000  0.000  0.000  0.000  1.000
    occupations:
  0.000  0.000  0.000  0.000  0.000
  0.000  0.000  0.000  0.000  0.000
  0.000  0.000  0.000  0.000  0.000
  0.000  0.000  0.000  0.000  0.000
  0.000  0.000  0.000  0.000  0.000
atomic mag. moment =     5.000000
N of occupied +U levels =  40.0000000
 --- exit write_ns ---
 Atomic wfc used for LDA+U Projector are NOT orthogonalized
     Starting wfc are  189 randomized atomic wfcs

     total cpu time spent up to now is      187.6 secs

     per-process dynamical memory:   521.8 Mb

     Self-consistent Calculation

     iteration #  1     ecut=    40.00 Ry     beta=0.70
     Davidson diagonalization with overlap
     ethr =  1.00E-02,  avg # of iterations =  5.5
 --- enter write_ns ---
 LDA+U parameters:
U( 2)     =  3.50000000
alpha( 2) =  0.00000000
atom    3   Tr[ns(na)] (up, down, total) =   4.41957  0.54741  4.96698
   spin  1
    eigenvalues: 
  0.715  0.720  0.988  0.994  1.003
    eigenvectors:
  0.045  0.157  0.000  0.788  0.009
  0.749  0.248  0.002  0.000  0.000
  0.000  0.000  0.000  0.014  0.986
  0.203  0.594  0.000  0.198  0.004
  0.002  0.001  0.997  0.000  0.000
    occupations:
  0.938  0.003 -0.001 -0.110  0.000
  0.003  0.717  0.000 -0.004 -0.013
 -0.001  0.000  1.003 -0.004  0.000
 -0.110 -0.004 -0.004  0.775 -0.001
  0.000 -0.013  0.000 -0.001  0.987
   spin  2
    eigenvalues: 
  0.055  0.060  0.061  0.179  0.192
    eigenvectors:
  0.534  0.003  0.272  0.001  0.190
  0.000  0.001  0.000  0.995  0.005
  0.340  0.004  0.656  0.000  0.000
  0.126  0.001  0.064  0.003  0.806
  0.000  0.991  0.008  0.001  0.000
    occupations:
  0.083 -0.001 -0.002  0.053  0.000
 -0.001  0.179  0.000  0.001  0.003
 -0.002  0.000  0.059  0.001  0.000
  0.053  0.001  0.001  0.166  0.000
  0.000  0.003  0.000  0.000  0.060
atomic mag. moment =     3.872156
atom    4   Tr[ns(na)] (up, down, total) =   4.45548  0.56558  5.02106
   spin  1
    eigenvalues: 
  0.716  0.785  0.968  0.987  0.999
    eigenvectors:
  0.000  0.994  0.000  0.001  0.005
  0.000  0.004  0.074  0.008  0.914
  0.000  0.001  0.921  0.010  0.069
  0.000  0.001  0.005  0.982  0.012
  1.000  0.000  0.000  0.000  0.000
    occupations:
  0.787 -0.014 -0.006  0.007  0.000
 -0.014  0.996  0.008 -0.001  0.005
 -0.006  0.008  0.970  0.001  0.000
  0.007 -0.001  0.001  0.986  0.000
  0.000  0.005  0.000  0.000  0.716
   spin  2
    eigenvalues: 
  0.055  0.062  0.071  0.181  0.196
    eigenvectors:
  0.008  0.001  0.000  0.000  0.991
  0.010  0.839  0.150  0.000  0.002
  0.003  0.147  0.850  0.000  0.000
  0.979  0.013  0.000  0.000  0.007
  0.000  0.000  0.000  1.000  0.000
    occupations:
  0.195  0.005  0.002 -0.012  0.000
  0.005  0.064 -0.003  0.000 -0.002
  0.002 -0.003  0.070  0.000  0.000
 -0.012  0.000  0.000  0.056  0.000
  0.000 -0.002  0.000  0.000  0.181
atomic mag. moment =     3.889908
atom    9   Tr[ns(na)] (up, down, total) =   4.43641  0.63040  5.06680
   spin  1
    eigenvalues: 
  0.723  0.735  0.986  0.990  1.003
    eigenvectors:
  0.002  0.135  0.809  0.054  0.000
  0.991  0.008  0.000  0.000  0.000
  0.000  0.001  0.006  0.072  0.921
  0.006  0.856  0.127  0.010  0.001
  0.000  0.000  0.059  0.863  0.078
    occupations:
  0.952 -0.004 -0.002 -0.086 -0.001
 -0.004  0.723  0.000  0.000  0.000
 -0.002  0.000  1.001 -0.007  0.004
 -0.086  0.000 -0.007  0.770  0.000
 -0.001  0.000  0.004  0.000  0.990
   spin  2
    eigenvalues: 
  0.068  0.076  0.079  0.201  0.206
    eigenvectors:
  0.000  0.861  0.005  0.126  0.007
  0.000  0.000  0.000  0.062  0.938
  0.988  0.000  0.011  0.001  0.000
  0.001  0.133  0.001  0.811  0.055
  0.010  0.006  0.984  0.000  0.000
    occupations:
  0.093  0.000  0.001  0.042  0.000
  0.000  0.206  0.000 -0.001  0.000
  0.001  0.000  0.068  0.004 -0.001
  0.042 -0.001  0.004  0.184  0.000
  0.000  0.000 -0.001  0.000  0.079
atomic mag. moment =     3.806010
atom   10   Tr[ns(na)] (up, down, total) =   4.87809  0.46674  5.34483
   spin  1
    eigenvalues: 
  0.894  0.983  0.997  0.999  1.004
    eigenvectors:
  0.000  0.819  0.181  0.000  0.000
  0.002  0.000  0.000  0.998  0.000
  0.000  0.000  0.001  0.000  0.999
  0.000  0.181  0.818  0.000  0.001
  0.998  0.000  0.000  0.002  0.000
    occupations:
  0.986  0.000  0.000  0.005  0.000
  0.000  0.999  0.000  0.000 -0.005
  0.000  0.000  1.004  0.000  0.000
  0.005  0.000  0.000  0.995  0.000
  0.000 -0.005  0.000  0.000  0.895
   spin  2
    eigenvalues: 
  0.051  0.055  0.059  0.121  0.181
    eigenvectors:
  0.002  0.025  0.000  0.974  0.000
  0.000  0.000  0.999  0.000  0.001
  0.959  0.041  0.000  0.000  0.000
  0.040  0.934  0.000  0.026  0.000
  0.000  0.000  0.001  0.000  0.999
    occupations:
  0.119  0.000 -0.001 -0.011  0.000
  0.000  0.059  0.000  0.000  0.004
 -0.001  0.000  0.052 -0.001  0.000
 -0.011  0.000 -0.001  0.056  0.000
  0.000  0.004  0.000  0.000  0.181
atomic mag. moment =     4.411354
atom   16   Tr[ns(na)] (up, down, total) =   4.41984  0.54742  4.96726
   spin  1
    eigenvalues: 
  0.715  0.721  0.988  0.994  1.003
    eigenvectors:
  0.050  0.152  0.000  0.788  0.010
  0.725  0.272  0.002  0.000  0.000
  0.000  0.000  0.000  0.014  0.986
  0.223  0.575  0.000  0.198  0.004
  0.002  0.001  0.997  0.001  0.000
    occupations:
  0.938 -0.002 -0.001 -0.110  0.000
 -0.002  0.717  0.000  0.004 -0.013
 -0.001  0.000  1.002 -0.004  0.000
 -0.110  0.004 -0.004  0.775  0.000
  0.000 -0.013  0.000  0.000  0.987
   spin  2
    eigenvalues: 
  0.055  0.060  0.061  0.179  0.192
    eigenvectors:
  0.534  0.010  0.265  0.001  0.190
  0.000  0.001  0.000  0.994  0.005
  0.340  0.015  0.645  0.000  0.000
  0.126  0.002  0.063  0.003  0.806
  0.000  0.971  0.028  0.001  0.000
    occupations:
  0.083  0.001 -0.002  0.053  0.000
  0.001  0.179  0.000 -0.001  0.003
 -0.002  0.000  0.059  0.001  0.000
  0.053 -0.001  0.001  0.166  0.000
  0.000  0.003  0.000  0.000  0.060
atomic mag. moment =     3.872424
atom   17   Tr[ns(na)] (up, down, total) =   4.45226  0.56588  5.01814
   spin  1
    eigenvalues: 
  0.714  0.784  0.969  0.987  0.999
    eigenvectors:
  0.000  0.994  0.000  0.001  0.005
  0.000  0.004  0.076  0.007  0.912
  0.000  0.001  0.918  0.010  0.071
  0.000  0.001  0.005  0.982  0.011
  1.000  0.000  0.000  0.000  0.000
    occupations:
  0.785 -0.014 -0.006  0.007  0.000
 -0.014  0.996  0.008 -0.001  0.005
 -0.006  0.008  0.971  0.001  0.000
  0.007 -0.001  0.001  0.986  0.000
  0.000  0.005  0.000  0.000  0.714
   spin  2
    eigenvalues: 
  0.055  0.062  0.071  0.181  0.197
    eigenvectors:
  0.008  0.001  0.000  0.000  0.991
  0.009  0.836  0.153  0.000  0.001
  0.003  0.150  0.847  0.000  0.000
  0.980  0.012  0.000  0.000  0.007
  0.000  0.000  0.000  1.000  0.000
    occupations:
  0.195  0.005  0.002 -0.012  0.000
  0.005  0.064 -0.003  0.000 -0.002
  0.002 -0.003  0.070  0.000  0.000
 -0.012  0.000  0.000  0.056  0.000
  0.000 -0.002  0.000  0.000  0.181
atomic mag. moment =     3.886382
atom   22   Tr[ns(na)] (up, down, total) =   4.43607  0.63045  5.06651
   spin  1
    eigenvalues: 
  0.723  0.735  0.986  0.989  1.003
    eigenvectors:
  0.003  0.134  0.815  0.048  0.000
  0.985  0.015  0.000  0.000  0.000
  0.000  0.001  0.005  0.072  0.922
  0.012  0.850  0.128  0.009  0.001
  0.000  0.000  0.052  0.871  0.077
    occupations:
  0.952  0.004 -0.002 -0.086  0.001
  0.004  0.723  0.000  0.000  0.000
 -0.002  0.000  1.001 -0.007 -0.004
 -0.086  0.000 -0.007  0.770  0.000
  0.001  0.000 -0.004  0.000  0.990
   spin  2
    eigenvalues: 
  0.068  0.076  0.079  0.201  0.206
    eigenvectors:
  0.000  0.861  0.005  0.126  0.007
  0.000  0.000  0.000  0.061  0.939
  0.988  0.000  0.011  0.001  0.000
  0.001  0.132  0.001  0.812  0.054
  0.011  0.006  0.984  0.000  0.000
    occupations:
  0.093  0.000  0.001  0.042  0.000
  0.000  0.206  0.000  0.001  0.000
  0.001  0.000  0.068  0.004  0.001
  0.042  0.001  0.004  0.184  0.000
  0.000  0.000  0.001  0.000  0.079
atomic mag. moment =     3.805621
atom   23   Tr[ns(na)] (up, down, total) =   4.62544  0.57897  5.20441
   spin  1
    eigenvalues: 
  0.777  0.863  0.991  0.992  1.002
    eigenvectors:
  0.000  0.976  0.000  0.012  0.012
  0.001  0.000  0.999  0.000  0.000
  0.000  0.015  0.000  0.014  0.972
  0.000  0.009  0.000  0.974  0.017
  0.999  0.000  0.001  0.000  0.000
    occupations:
  0.866  0.000  0.016  0.012  0.000
  0.000  0.991  0.000  0.000 -0.007
  0.016  0.000  1.000 -0.003  0.000
  0.012  0.000 -0.003  0.991  0.000
  0.000 -0.007  0.000  0.000  0.777
   spin  2
    eigenvalues: 
  0.050  0.055  0.097  0.182  0.195
    eigenvectors:
  0.003  0.008  0.000  0.000  0.989
  0.000  0.000  1.000  0.000  0.000
  0.981  0.015  0.000  0.000  0.004
  0.016  0.977  0.000  0.000  0.006
  0.000  0.000  0.000  1.000  0.000
    occupations:
  0.194  0.000 -0.010 -0.011  0.000
  0.000  0.097  0.000  0.000  0.001
 -0.010  0.000  0.051  0.001  0.000
 -0.011  0.000  0.001  0.056  0.000
  0.000  0.001  0.000  0.000  0.182
atomic mag. moment =     4.046466
N of occupied +U levels =  40.6560074
 --- exit write_ns ---

     negative rho (up, down):  0.958E-03 0.964E-03

     total cpu time spent up to now is     1159.7 secs

     total energy              =   -2343.01274175 Ry
     Harris-Foulkes estimate   =   -2350.75408221 Ry
     estimated scf accuracy    <      18.47975798 Ry

     total magnetization       =    23.00 Bohr mag/cell
     absolute magnetization    =    41.17 Bohr mag/cell

     iteration #  2     ecut=    40.00 Ry     beta=0.70
     Davidson diagonalization with overlap
     ethr =  7.54E-03,  avg # of iterations =  5.3

     negative rho (up, down):  0.598E-04 0.216E-04

     total cpu time spent up to now is     1848.3 secs

     total energy              =   -2244.94203186 Ry
     Harris-Foulkes estimate   =   -2419.56118048 Ry
     estimated scf accuracy    <    2858.14744917 Ry

     total magnetization       =    23.00 Bohr mag/cell
     absolute magnetization    =    23.88 Bohr mag/cell

     iteration #  3     ecut=    40.00 Ry     beta=0.70
     Davidson diagonalization with overlap
     ethr =  7.54E-03,  avg # of iterations =  4.0

     negative rho (up, down):  0.172E-05 0.532E-04

     total cpu time spent up to now is     2553.7 secs

     total energy              =   -2328.44660418 Ry
     Harris-Foulkes estimate   =   -2366.33046838 Ry
     estimated scf accuracy    <     268.63790064 Ry

     total magnetization       =    23.00 Bohr mag/cell
     absolute magnetization    =    26.09 Bohr mag/cell

     iteration #  4     ecut=    40.00 Ry     beta=0.70
     Davidson diagonalization with overlap
     ethr =  7.54E-03,  avg # of iterations =  3.4

     negative rho (up, down):  0.610E-06 0.763E-06

     total cpu time spent up to now is     3077.9 secs

     total energy              =   -2337.90523907 Ry
     Harris-Foulkes estimate   =   -2366.25508908 Ry
     estimated scf accuracy    <     429.57245102 Ry

     total magnetization       =    23.00 Bohr mag/cell
     absolute magnetization    =    23.98 Bohr mag/cell

     iteration #  5     ecut=    40.00 Ry     beta=0.70
     Davidson diagonalization with overlap
     ethr =  7.54E-03,  avg # of iterations =  3.1

     negative rho (up, down):  0.551E-05 0.151E-05

     total cpu time spent up to now is     3534.8 secs

     total energy              =   -2351.65771338 Ry
     Harris-Foulkes estimate   =   -2354.77389929 Ry
     estimated scf accuracy    <      12.46531846 Ry

     total magnetization       =    23.00 Bohr mag/cell
     absolute magnetization    =    28.65 Bohr mag/cell

     iteration #  6     ecut=    40.00 Ry     beta=0.70
     Davidson diagonalization with overlap
     ethr =  5.09E-03,  avg # of iterations =  3.0

     negative rho (up, down):  0.000E+00 0.159E-06

     total cpu time spent up to now is     3972.6 secs

     total energy              =   -2351.73751095 Ry
     Harris-Foulkes estimate   =   -2353.66408884 Ry
     estimated scf accuracy    <       9.25011410 Ry

     total magnetization       =    23.00 Bohr mag/cell
     absolute magnetization    =    32.32 Bohr mag/cell

     iteration #  7     ecut=    40.00 Ry     beta=0.70
     Davidson diagonalization with overlap
     ethr =  3.78E-03,  avg # of iterations =  3.1

     negative rho (up, down):  0.194E-06 0.578E-06

     total cpu time spent up to now is     4419.7 secs

     total energy              =   -2351.94499731 Ry
     Harris-Foulkes estimate   =   -2354.30993120 Ry
     estimated scf accuracy    <      14.75216155 Ry

     total magnetization       =    23.00 Bohr mag/cell
     absolute magnetization    =    30.67 Bohr mag/cell

     iteration #  8     ecut=    40.00 Ry     beta=0.70
     Davidson diagonalization with overlap
     ethr =  3.78E-03,  avg # of iterations =  1.9

     negative rho (up, down):  0.316E-06 0.196E-05

     total cpu time spent up to now is     4824.6 secs

     total energy              =   -2352.98092385 Ry
     Harris-Foulkes estimate   =   -2353.26570160 Ry
     estimated scf accuracy    <       1.83989559 Ry

     total magnetization       =    23.00 Bohr mag/cell
     absolute magnetization    =    28.58 Bohr mag/cell

     iteration #  9     ecut=    40.00 Ry     beta=0.70
     Davidson diagonalization with overlap
     ethr =  7.51E-04,  avg # of iterations =  2.7

     negative rho (up, down):  0.618E-06 0.273E-05

     total cpu time spent up to now is     5242.9 secs

     total energy              =   -2352.93940160 Ry
     Harris-Foulkes estimate   =   -2353.13765448 Ry
     estimated scf accuracy    <       1.23656452 Ry

     total magnetization       =    23.00 Bohr mag/cell
     absolute magnetization    =    29.08 Bohr mag/cell

     iteration # 10     ecut=    40.00 Ry     beta=0.70
     Davidson diagonalization with overlap
     ethr =  5.05E-04,  avg # of iterations =  1.0

     negative rho (up, down):  0.280E-06 0.221E-05

     total cpu time spent up to now is     5633.6 secs

     total energy              =   -2353.00094288 Ry
     Harris-Foulkes estimate   =   -2353.05298411 Ry
     estimated scf accuracy    <       0.80077258 Ry

     total magnetization       =    23.00 Bohr mag/cell
     absolute magnetization    =    30.16 Bohr mag/cell

     iteration # 11     ecut=    40.00 Ry     beta=0.70
     Davidson diagonalization with overlap
     ethr =  3.27E-04,  avg # of iterations =  1.2

     negative rho (up, down):  0.384E-04 0.252E-04

     total cpu time spent up to now is     6029.6 secs

     total energy              =   -2352.77149192 Ry
     Harris-Foulkes estimate   =   -2353.03096216 Ry
     estimated scf accuracy    <       0.46687796 Ry

     total magnetization       =    23.00 Bohr mag/cell
     absolute magnetization    =    29.43 Bohr mag/cell

     iteration # 12     ecut=    40.00 Ry     beta=0.70
     Davidson diagonalization with overlap
     ethr =  1.91E-04,  avg # of iterations =  7.2

     negative rho (up, down):  0.558E-04 0.239E-04

     total cpu time spent up to now is     6578.8 secs

     total energy              =   -2352.60856966 Ry
     Harris-Foulkes estimate   =   -2353.06341124 Ry
     estimated scf accuracy    <       1.93635807 Ry

     total magnetization       =    23.00 Bohr mag/cell
     absolute magnetization    =    30.27 Bohr mag/cell

     iteration # 13     ecut=    40.00 Ry     beta=0.70
     Davidson diagonalization with overlap
     ethr =  1.91E-04,  avg # of iterations =  4.4

     negative rho (up, down):  0.212E-04 0.292E-04

     total cpu time spent up to now is     7012.9 secs

     total energy              =   -2352.74848295 Ry
     Harris-Foulkes estimate   =   -2352.91434394 Ry
     estimated scf accuracy    <       0.56590592 Ry

     total magnetization       =    23.00 Bohr mag/cell
     absolute magnetization    =    30.10 Bohr mag/cell

     iteration # 14     ecut=    40.00 Ry     beta=0.70
     Davidson diagonalization with overlap
     ethr =  1.91E-04,  avg # of iterations =  5.1

     negative rho (up, down):  0.406E-03 0.589E-04

     total cpu time spent up to now is     7489.6 secs

     total energy              =   -2352.59739627 Ry
     Harris-Foulkes estimate   =   -2353.18734069 Ry
     estimated scf accuracy    <       6.60914887 Ry

     total magnetization       =    23.00 Bohr mag/cell
     absolute magnetization    =    30.12 Bohr mag/cell

     iteration # 15     ecut=    40.00 Ry     beta=0.70
     Davidson diagonalization with overlap
     ethr =  1.91E-04,  avg # of iterations =  4.5

     negative rho (up, down):  0.243E-03 0.885E-04

     total cpu time spent up to now is     7949.4 secs

     total energy              =   -2352.83184563 Ry
     Harris-Foulkes estimate   =   -2352.90090449 Ry
     estimated scf accuracy    <       0.45883016 Ry

     total magnetization       =    23.00 Bohr mag/cell
     absolute magnetization    =    29.75 Bohr mag/cell

     iteration # 16     ecut=    40.00 Ry     beta=0.70
     Davidson diagonalization with overlap
     ethr =  1.87E-04,  avg # of iterations =  1.0

     negative rho (up, down):  0.285E-03 0.168E-03

     total cpu time spent up to now is     8321.7 secs

     total energy              =   -2352.84311195 Ry
     Harris-Foulkes estimate   =   -2352.87227271 Ry
     estimated scf accuracy    <       0.12763568 Ry

     total magnetization       =    23.00 Bohr mag/cell
     absolute magnetization    =    29.86 Bohr mag/cell

     iteration # 17     ecut=    40.00 Ry     beta=0.70
     Davidson diagonalization with overlap
     ethr =  5.21E-05,  avg # of iterations =  4.0

     negative rho (up, down):  0.678E-03 0.292E-03

     total cpu time spent up to now is     8753.8 secs

     total energy              =   -2352.85451880 Ry
     Harris-Foulkes estimate   =   -2352.87218259 Ry
     estimated scf accuracy    <       0.13481769 Ry

     total magnetization       =    23.00 Bohr mag/cell
     absolute magnetization    =    29.49 Bohr mag/cell

     iteration # 18     ecut=    40.00 Ry     beta=0.70
     Davidson diagonalization with overlap
     ethr =  5.21E-05,  avg # of iterations =  1.0

     negative rho (up, down):  0.397E-03 0.234E-03

     total cpu time spent up to now is     9124.7 secs

     total energy              =   -2352.85681108 Ry
     Harris-Foulkes estimate   =   -2352.86397817 Ry
     estimated scf accuracy    <       0.03793053 Ry

     total magnetization       =    23.00 Bohr mag/cell
     absolute magnetization    =    29.65 Bohr mag/cell

     iteration # 19     ecut=    40.00 Ry     beta=0.70
     Davidson diagonalization with overlap
     ethr =  1.55E-05,  avg # of iterations =  5.0

     negative rho (up, down):  0.177E-02 0.827E-03

     total cpu time spent up to now is     9584.7 secs

     total energy              =   -2352.84922410 Ry
     Harris-Foulkes estimate   =   -2352.87622051 Ry
     estimated scf accuracy    <       0.22168590 Ry

     total magnetization       =    23.00 Bohr mag/cell
     absolute magnetization    =    29.39 Bohr mag/cell

     iteration # 20     ecut=    40.00 Ry     beta=0.70
     Davidson diagonalization with overlap
     ethr =  1.55E-05,  avg # of iterations =  4.7

     negative rho (up, down):  0.111E-02 0.575E-03

     total cpu time spent up to now is    10013.8 secs

     total energy              =   -2352.85981006 Ry
     Harris-Foulkes estimate   =   -2352.86364837 Ry
     estimated scf accuracy    <       0.03908172 Ry

     total magnetization       =    23.00 Bohr mag/cell
     absolute magnetization    =    29.33 Bohr mag/cell

     iteration # 21     ecut=    40.00 Ry     beta=0.70
     Davidson diagonalization with overlap
     ethr =  1.55E-05,  avg # of iterations =  1.0

     negative rho (up, down):  0.127E-02 0.770E-03

     total cpu time spent up to now is    10381.8 secs

     total energy              =   -2352.86077580 Ry
     Harris-Foulkes estimate   =   -2352.86345920 Ry
     estimated scf accuracy    <       0.05288149 Ry

     total magnetization       =    23.00 Bohr mag/cell
     absolute magnetization    =    29.74 Bohr mag/cell

     iteration # 22     ecut=    40.00 Ry     beta=0.70
     Davidson diagonalization with overlap
     ethr =  1.55E-05,  avg # of iterations =  1.0

     negative rho (up, down):  0.170E-02 0.111E-02

     total cpu time spent up to now is    10778.8 secs

     total energy              =   -2352.86206312 Ry
     Harris-Foulkes estimate   =   -2352.86241007 Ry
     estimated scf accuracy    <       0.00213726 Ry

     total magnetization       =    23.00 Bohr mag/cell
     absolute magnetization    =    29.47 Bohr mag/cell

     iteration # 23     ecut=    40.00 Ry     beta=0.70
     Davidson diagonalization with overlap
     ethr =  8.72E-07,  avg # of iterations =  3.8

     negative rho (up, down):  0.178E-02 0.118E-02

     total cpu time spent up to now is    11211.6 secs

     total energy              =   -2352.86215999 Ry
     Harris-Foulkes estimate   =   -2352.86244895 Ry
     estimated scf accuracy    <       0.00129067 Ry

     total magnetization       =    23.00 Bohr mag/cell
     absolute magnetization    =    29.48 Bohr mag/cell

     iteration # 24     ecut=    40.00 Ry     beta=0.70
     Davidson diagonalization with overlap
     ethr =  5.27E-07,  avg # of iterations =  1.0

     negative rho (up, down):  0.211E-02 0.143E-02

     total cpu time spent up to now is    11594.2 secs

     total energy              =   -2352.86227077 Ry
     Harris-Foulkes estimate   =   -2352.86243014 Ry
     estimated scf accuracy    <       0.00110785 Ry

     total magnetization       =    23.00 Bohr mag/cell
     absolute magnetization    =    29.48 Bohr mag/cell

     iteration # 25     ecut=    40.00 Ry     beta=0.70
     Davidson diagonalization with overlap
     ethr =  4.52E-07,  avg # of iterations =  1.0

     negative rho (up, down):  0.198E-02 0.133E-02

     total cpu time spent up to now is    11996.7 secs

     total energy              =   -2352.86236105 Ry
     Harris-Foulkes estimate   =   -2352.86244259 Ry
     estimated scf accuracy    <       0.00080402 Ry

     total magnetization       =    23.00 Bohr mag/cell
     absolute magnetization    =    29.40 Bohr mag/cell

     iteration # 26     ecut=    40.00 Ry     beta=0.70
     Davidson diagonalization with overlap
     ethr =  3.28E-07,  avg # of iterations =  1.1

     negative rho (up, down):  0.202E-02 0.137E-02

     total cpu time spent up to now is    12395.5 secs

     total energy              =   -2352.86239083 Ry
     Harris-Foulkes estimate   =   -2352.86243530 Ry
     estimated scf accuracy    <       0.00030953 Ry

     total magnetization       =    23.00 Bohr mag/cell
     absolute magnetization    =    29.42 Bohr mag/cell

     iteration # 27     ecut=    40.00 Ry     beta=0.70
     Davidson diagonalization with overlap
     ethr =  1.26E-07,  avg # of iterations =  1.0

     negative rho (up, down):  0.204E-02 0.138E-02

     total cpu time spent up to now is    12788.1 secs

     total energy              =   -2352.86241358 Ry
     Harris-Foulkes estimate   =   -2352.86243564 Ry
     estimated scf accuracy    <       0.00020656 Ry

     total magnetization       =    23.00 Bohr mag/cell
     absolute magnetization    =    29.40 Bohr mag/cell

     iteration # 28     ecut=    40.00 Ry     beta=0.70
     Davidson diagonalization with overlap
     ethr =  8.43E-08,  avg # of iterations =  1.0

     negative rho (up, down):  0.206E-02 0.139E-02

     total cpu time spent up to now is    13193.0 secs

     total energy              =   -2352.86241897 Ry
     Harris-Foulkes estimate   =   -2352.86244794 Ry
     estimated scf accuracy    <       0.00015808 Ry

     total magnetization       =    23.00 Bohr mag/cell
     absolute magnetization    =    29.39 Bohr mag/cell

     iteration # 29     ecut=    40.00 Ry     beta=0.70
     Davidson diagonalization with overlap
     ethr =  6.45E-08,  avg # of iterations =  1.0

     negative rho (up, down):  0.203E-02 0.137E-02

     total cpu time spent up to now is    13556.4 secs

     total energy              =   -2352.86242474 Ry
     Harris-Foulkes estimate   =   -2352.86244159 Ry
     estimated scf accuracy    <       0.00005902 Ry

     total magnetization       =    23.00 Bohr mag/cell
     absolute magnetization    =    29.38 Bohr mag/cell

     iteration # 30     ecut=    40.00 Ry     beta=0.70
     Davidson diagonalization with overlap
     ethr =  2.41E-08,  avg # of iterations =  2.0

     negative rho (up, down):  0.202E-02 0.136E-02

     total cpu time spent up to now is    13974.5 secs

     total energy              =   -2352.86238388 Ry
     Harris-Foulkes estimate   =   -2352.86248827 Ry
     estimated scf accuracy    <       0.00085321 Ry

     total magnetization       =    23.00 Bohr mag/cell
     absolute magnetization    =    29.40 Bohr mag/cell

     iteration # 31     ecut=    40.00 Ry     beta=0.70
     Davidson diagonalization with overlap
     ethr =  2.41E-08,  avg # of iterations =  2.0

     negative rho (up, down):  0.201E-02 0.135E-02

     total cpu time spent up to now is    14391.4 secs

     total energy              =   -2352.86235191 Ry
     Harris-Foulkes estimate   =   -2352.86252357 Ry
     estimated scf accuracy    <       0.00367384 Ry

     total magnetization       =    23.00 Bohr mag/cell
     absolute magnetization    =    29.32 Bohr mag/cell

     iteration # 32     ecut=    40.00 Ry     beta=0.70
     Davidson diagonalization with overlap
     ethr =  2.41E-08,  avg # of iterations =  1.2

     negative rho (up, down):  0.200E-02 0.135E-02

     total cpu time spent up to now is    14788.1 secs

     total energy              =   -2352.86243119 Ry
     Harris-Foulkes estimate   =   -2352.86244597 Ry
     estimated scf accuracy    <       0.00010637 Ry

     total magnetization       =    23.00 Bohr mag/cell
     absolute magnetization    =    29.38 Bohr mag/cell

     iteration # 33     ecut=    40.00 Ry     beta=0.70
     Davidson diagonalization with overlap
     ethr =  2.41E-08,  avg # of iterations =  1.0

     negative rho (up, down):  0.200E-02 0.134E-02

     total cpu time spent up to now is    15177.8 secs

     total energy              =   -2352.86243801 Ry
     Harris-Foulkes estimate   =   -2352.86244071 Ry
     estimated scf accuracy    <       0.00002874 Ry

     total magnetization       =    23.00 Bohr mag/cell
     absolute magnetization    =    29.37 Bohr mag/cell

     iteration # 34     ecut=    40.00 Ry     beta=0.70
     Davidson diagonalization with overlap
     ethr =  1.17E-08,  avg # of iterations =  1.0

     negative rho (up, down):  0.200E-02 0.134E-02

     total cpu time spent up to now is    15575.1 secs

     total energy              =   -2352.86243847 Ry
     Harris-Foulkes estimate   =   -2352.86244106 Ry
     estimated scf accuracy    <       0.00001178 Ry

     total magnetization       =    23.00 Bohr mag/cell
     absolute magnetization    =    29.37 Bohr mag/cell

     iteration # 35     ecut=    40.00 Ry     beta=0.70
     Davidson diagonalization with overlap
     ethr =  4.81E-09,  avg # of iterations =  1.1

     negative rho (up, down):  0.200E-02 0.134E-02

     total cpu time spent up to now is    15967.1 secs

     total energy              =   -2352.86243658 Ry
     Harris-Foulkes estimate   =   -2352.86244276 Ry
     estimated scf accuracy    <       0.00005252 Ry

     total magnetization       =    23.00 Bohr mag/cell
     absolute magnetization    =    29.37 Bohr mag/cell

     iteration # 36     ecut=    40.00 Ry     beta=0.70
     Davidson diagonalization with overlap
     ethr =  4.81E-09,  avg # of iterations =  1.0

     negative rho (up, down):  0.199E-02 0.134E-02

     total cpu time spent up to now is    16352.7 secs

     total energy              =   -2352.86243963 Ry
     Harris-Foulkes estimate   =   -2352.86244054 Ry
     estimated scf accuracy    <       0.00001033 Ry

     total magnetization       =    23.00 Bohr mag/cell
     absolute magnetization    =    29.37 Bohr mag/cell

     iteration # 37     ecut=    40.00 Ry     beta=0.70
     Davidson diagonalization with overlap
     ethr =  4.21E-09,  avg # of iterations =  1.0

     negative rho (up, down):  0.199E-02 0.134E-02

     total cpu time spent up to now is    16752.6 secs

     total energy              =   -2352.86244020 Ry
     Harris-Foulkes estimate   =   -2352.86244056 Ry
     estimated scf accuracy    <       0.00000357 Ry

     total magnetization       =    23.00 Bohr mag/cell
     absolute magnetization    =    29.37 Bohr mag/cell

     iteration # 38     ecut=    40.00 Ry     beta=0.70
     Davidson diagonalization with overlap
     ethr =  1.46E-09,  avg # of iterations =  1.0

     negative rho (up, down):  0.199E-02 0.134E-02

     total cpu time spent up to now is    17150.5 secs

     total energy              =   -2352.86244050 Ry
     Harris-Foulkes estimate   =   -2352.86244076 Ry
     estimated scf accuracy    <       0.00000271 Ry

     total magnetization       =    23.00 Bohr mag/cell
     absolute magnetization    =    29.36 Bohr mag/cell

     iteration # 39     ecut=    40.00 Ry     beta=0.70
     Davidson diagonalization with overlap
     ethr =  1.11E-09,  avg # of iterations =  1.0

     negative rho (up, down):  0.199E-02 0.133E-02

     total cpu time spent up to now is    17550.5 secs

     End of self-consistent calculation
 --- enter write_ns ---
 LDA+U parameters:
U( 2)     =  3.50000000
alpha( 2) =  0.00000000
atom    3   Tr[ns(na)] (up, down, total) =   4.28482  1.15543  5.44025
   spin  1
    eigenvalues: 
  0.630  0.656  0.997  0.997  1.005
    eigenvectors:
  0.182  0.061  0.677  0.068  0.010
  0.292  0.706  0.001  0.000  0.000
  0.000  0.000  0.011  0.001  0.988
  0.525  0.232  0.221  0.021  0.002
  0.000  0.000  0.090  0.909  0.000
    occupations:
  0.909  0.014 -0.004 -0.154  0.001
  0.014  0.649  0.001  0.006 -0.010
 -0.004  0.001  1.004 -0.005  0.000
 -0.154  0.006 -0.005  0.725  0.001
  0.001 -0.010  0.000  0.001  0.997
   spin  2
    eigenvalues: 
  0.102  0.135  0.164  0.373  0.382
    eigenvectors:
  0.781  0.000  0.003  0.010  0.206
  0.000  0.002  0.000  0.946  0.052
  0.003  0.004  0.992  0.000  0.000
  0.216  0.000  0.000  0.042  0.741
  0.000  0.993  0.004  0.002  0.000
    occupations:
  0.163 -0.003 -0.002  0.115  0.000
 -0.003  0.373  0.000 -0.001  0.011
 -0.002  0.000  0.163  0.004 -0.002
  0.115 -0.001  0.004  0.321  0.000
  0.000  0.011 -0.002  0.000  0.136
atomic mag. moment =     3.129385
atom    4   Tr[ns(na)] (up, down, total) =   4.26084  1.18216  5.44300
   spin  1
    eigenvalues: 
  0.607  0.654  0.995  1.002  1.004
    eigenvectors:
  0.000  0.998  0.000  0.000  0.001
  0.000  0.001  0.000  0.007  0.991
  0.000  0.000  0.000  0.992  0.007
  0.000  0.000  0.999  0.001  0.000
  1.000  0.000  0.000  0.000  0.000
    occupations:
  0.655 -0.011 -0.005  0.006  0.000
 -0.011  1.003  0.000  0.000  0.000
 -0.005  0.000  1.002  0.000  0.000
  0.006  0.000  0.000  0.994  0.000
  0.000  0.000  0.000  0.000  0.607
   spin  2
    eigenvalues: 
  0.100  0.139  0.165  0.385  0.393
    eigenvectors:
  0.002  0.003  0.000  0.001  0.993
  0.001  0.918  0.078  0.000  0.003
  0.000  0.077  0.922  0.000  0.000
  0.996  0.001  0.000  0.000  0.002
  0.000  0.000  0.000  0.999  0.001
    occupations:
  0.391  0.014  0.005 -0.014  0.000
  0.014  0.142 -0.007  0.000 -0.003
  0.005 -0.007  0.163  0.001  0.000
 -0.014  0.000  0.001  0.101  0.000
  0.000 -0.003  0.000  0.000  0.385
atomic mag. moment =     3.078680
atom    9   Tr[ns(na)] (up, down, total) =   4.22902  1.26451  5.49352
   spin  1
    eigenvalues: 
  0.638  0.651  0.960  0.984  0.996
    eigenvectors:
  0.194  0.000  0.000  0.002  0.803
  0.000  1.000  0.000  0.000  0.000
  0.000  0.000  0.009  0.989  0.002
  0.805  0.000  0.000  0.000  0.195
  0.000  0.000  0.991  0.009  0.000
    occupations:
  0.926 -0.002 -0.002 -0.142  0.000
 -0.002  0.651  0.000  0.001  0.000
 -0.002  0.000  0.984 -0.005 -0.002
 -0.142  0.001 -0.005  0.707  0.001
  0.000  0.000 -0.002  0.001  0.960
   spin  2
    eigenvalues: 
  0.140  0.153  0.159  0.391  0.421
    eigenvectors:
  0.836  0.001  0.000  0.162  0.000
  0.000  0.000  0.000  0.001  0.999
  0.000  0.996  0.003  0.001  0.000
  0.163  0.000  0.000  0.836  0.001
  0.000  0.003  0.997  0.000  0.000
    occupations:
  0.181  0.001  0.002  0.093  0.000
  0.001  0.421  0.000 -0.001  0.000
  0.002  0.000  0.153  0.006  0.000
  0.093 -0.001  0.006  0.351  0.000
  0.000  0.000  0.000  0.000  0.159
atomic mag. moment =     2.964511
atom   10   Tr[ns(na)] (up, down, total) =   4.47389  0.90447  5.37836
   spin  1
    eigenvalues: 
  0.609  0.874  0.995  0.995  1.001
    eigenvectors:
  0.000  0.988  0.000  0.011  0.001
  0.000  0.000  1.000  0.000  0.000
  0.000  0.000  0.000  0.010  0.990
  0.000  0.012  0.000  0.979  0.010
  1.000  0.000  0.000  0.000  0.000
    occupations:
  0.876  0.000  0.002  0.013  0.000
  0.000  0.995  0.000  0.000 -0.005
  0.002  0.000  1.001  0.000  0.000
  0.013  0.000  0.000  0.994  0.000
  0.000 -0.005  0.000  0.000  0.609
   spin  2
    eigenvalues: 
  0.089  0.118  0.121  0.220  0.356
    eigenvectors:
  0.013  0.000  0.000  0.987  0.000
  0.000  0.000  0.999  0.000  0.001
  0.002  0.998  0.000  0.000  0.000
  0.985  0.002  0.000  0.013  0.000
  0.000  0.000  0.001  0.000  0.999
    occupations:
  0.218  0.000 -0.002 -0.015  0.000
  0.000  0.122  0.000  0.000  0.006
 -0.002  0.000  0.118 -0.001  0.000
 -0.015  0.000 -0.001  0.091  0.000
  0.000  0.006  0.000  0.000  0.356
atomic mag. moment =     3.569419
atom   16   Tr[ns(na)] (up, down, total) =   4.28459  1.15571  5.44030
   spin  1
    eigenvalues: 
  0.629  0.656  0.997  0.997  1.005
    eigenvectors:
  0.185  0.059  0.725  0.022  0.009
  0.283  0.716  0.001  0.000  0.000
  0.000  0.000  0.010  0.001  0.989
  0.532  0.224  0.235  0.007  0.001
  0.000  0.001  0.029  0.970  0.000
    occupations:
  0.909 -0.014 -0.004 -0.155 -0.001
 -0.014  0.649 -0.001 -0.006 -0.009
 -0.004 -0.001  1.004 -0.005  0.000
 -0.155 -0.006 -0.005  0.725  0.000
 -0.001 -0.009  0.000  0.000  0.997
   spin  2
    eigenvalues: 
  0.102  0.135  0.164  0.373  0.382
    eigenvectors:
  0.781  0.000  0.003  0.009  0.208
  0.000  0.002  0.000  0.952  0.045
  0.003  0.004  0.993  0.000  0.000
  0.216  0.000  0.000  0.037  0.747
  0.000  0.994  0.004  0.002  0.000
    occupations:
  0.163  0.003 -0.002  0.115  0.000
  0.003  0.373  0.000  0.001  0.011
 -0.002  0.000  0.163  0.004  0.002
  0.115  0.001  0.004  0.321  0.000
  0.000  0.011  0.002  0.000  0.136
atomic mag. moment =     3.128878
atom   17   Tr[ns(na)] (up, down, total) =   4.25928  1.18313  5.44242
   spin  1
    eigenvalues: 
  0.608  0.653  0.994  1.001  1.003
    eigenvectors:
  0.000  0.999  0.000  0.000  0.001
  0.000  0.001  0.000  0.020  0.978
  0.000  0.000  0.000  0.979  0.020
  0.000  0.000  0.999  0.000  0.000
  1.000  0.000  0.000  0.000  0.000
    occupations:
  0.653 -0.011 -0.004  0.005  0.000
 -0.011  1.003  0.000  0.000  0.000
 -0.004  0.000  1.001  0.000  0.000
  0.005  0.000  0.000  0.994  0.000
  0.000  0.000  0.000  0.000  0.608
   spin  2
    eigenvalues: 
  0.100  0.139  0.165  0.385  0.393
    eigenvectors:
  0.002  0.003  0.000  0.001  0.994
  0.001  0.917  0.079  0.000  0.003
  0.000  0.078  0.921  0.000  0.000
  0.996  0.001  0.000  0.000  0.002
  0.000  0.000  0.000  0.999  0.001
    occupations:
  0.392  0.014  0.005 -0.014  0.000
  0.014  0.142 -0.007  0.000 -0.003
  0.005 -0.007  0.163  0.001  0.000
 -0.014  0.000  0.001  0.101  0.000
  0.000 -0.003  0.000  0.000  0.385
atomic mag. moment =     3.076151
atom   22   Tr[ns(na)] (up, down, total) =   4.22882  1.26480  5.49361
   spin  1
    eigenvalues: 
  0.637  0.651  0.960  0.984  0.996
    eigenvectors:
  0.193  0.001  0.000  0.002  0.804
  0.007  0.993  0.000  0.000  0.000
  0.000  0.000  0.009  0.989  0.002
  0.799  0.006  0.000  0.000  0.194
  0.000  0.000  0.991  0.009  0.000
    occupations:
  0.926  0.002 -0.002 -0.142  0.000
  0.002  0.651  0.000  0.000  0.000
 -0.002  0.000  0.984 -0.005  0.002
 -0.142  0.000 -0.005  0.707 -0.001
  0.000  0.000  0.002 -0.001  0.960
   spin  2
    eigenvalues: 
  0.140  0.153  0.159  0.392  0.421
    eigenvectors:
  0.837  0.001  0.000  0.162  0.000
  0.000  0.000  0.000  0.001  0.999
  0.000  0.996  0.002  0.001  0.000
  0.163  0.000  0.000  0.836  0.001
  0.000  0.002  0.997  0.000  0.000
    occupations:
  0.181 -0.001  0.002  0.093  0.000
 -0.001  0.421  0.000  0.001  0.000
  0.002  0.000  0.153  0.006  0.000
  0.093  0.001  0.006  0.351  0.000
  0.000  0.000  0.000  0.000  0.159
atomic mag. moment =     2.964020
atom   23   Tr[ns(na)] (up, down, total) =   4.29575  1.12274  5.41849
   spin  1
    eigenvalues: 
  0.637  0.666  0.993  0.998  1.002
    eigenvectors:
  0.000  0.997  0.000  0.000  0.003
  0.000  0.000  1.000  0.000  0.000
  0.000  0.003  0.000  0.012  0.985
  0.000  0.000  0.000  0.987  0.012
  1.000  0.000  0.000  0.000  0.000
    occupations:
  0.667  0.000  0.019  0.005  0.000
  0.000  0.993  0.000  0.000 -0.004
  0.019  0.000  1.001 -0.001  0.000
  0.005  0.000 -0.001  0.998  0.000
  0.000 -0.004  0.000  0.000  0.637
   spin  2
    eigenvalues: 
  0.107  0.127  0.151  0.339  0.399
    eigenvectors:
  0.002  0.002  0.000  0.996  0.000
  0.000  0.000  0.999  0.000  0.001
  0.001  0.997  0.000  0.002  0.000
  0.997  0.001  0.000  0.002  0.000
  0.000  0.000  0.001  0.000  0.999
    occupations:
  0.338  0.000 -0.010 -0.009  0.000
  0.000  0.151  0.000  0.000  0.006
 -0.010  0.000  0.128  0.000  0.000
 -0.009  0.000  0.000  0.107  0.000
  0.000  0.006  0.000  0.000  0.399
atomic mag. moment =     3.173002
N of occupied +U levels =  43.5499447
 --- exit write_ns ---

 ------ SPIN UP ------------


          k = 0.0000 0.0000 0.0000 ( 26393 PWs)   bands (ev):

   -83.7465 -83.6605 -83.6506 -83.3730 -83.3526 -83.2793 -83.2337 -83.2232
   -52.4607 -52.4526 -52.4092 -52.3746 -52.3470 -52.3005 -52.2873 -52.2841
   -52.2698 -52.1994 -52.0824 -52.0627 -52.0413 -52.0374 -51.9795 -51.9737
   -51.9545 -51.9524 -51.9044 -51.9019 -51.8807 -51.8569 -51.8304 -51.8114
   -24.5556 -21.1681 -20.5163 -20.4942 -20.1623 -19.6197 -19.4051 -19.3532
   -19.2814 -19.1503 -19.1277 -19.1023 -18.9828 -18.9743 -18.8907 -18.8669
   -18.5420 -18.2574 -18.0692 -17.4817  -9.7369  -9.6278  -9.5718  -9.4773
    -9.1122  -8.7971  -8.5940  -8.4442  -8.3877  -8.2847  -8.0464  -7.9794
    -7.9667  -7.8564  -7.8438  -7.6438  -7.5635  -7.5133  -7.4473  -7.3208
    -7.1432  -7.0859  -6.9871  -6.9027  -6.7822  -6.7310  -6.6419  -6.5904
    -6.5157  -6.4107  -6.2348  -6.1665  -6.0976  -6.0731  -5.9667  -5.9050
    -5.8152  -5.7259  -5.6115  -5.5213  -5.4233  -5.4114  -5.1928  -5.1221
    -5.0439  -4.9645  -4.8473  -4.7678  -4.7445  -4.7274  -4.6384  -4.5663
    -4.5109  -4.4083  -4.2075  -4.1835  -4.1622  -4.1157  -3.8708  -3.7813
    -3.6735  -3.5948  -3.5237  -3.4393  -3.0874  -2.8727  -2.6839  -2.5510
    -2.4950  -2.4335  -2.4223  -2.2123  -2.0587  -2.0137  -1.9815  -1.8676
    -1.8526  -1.7896  -1.7715  -1.7147  -1.5251  -1.4158  -1.2470  -1.1433
    -1.0827  -0.4047  -0.0425   0.1623   0.2700   0.2737   0.4280   0.6160
     0.7708   0.7811   1.1949   1.3649   1.5542   1.6301   1.8253   2.7130
     3.5198   3.7328   3.8551   4.3382   4.9426   5.5566   5.9421   6.4568
     6.9494   7.0169   7.1939   7.4271   7.4697   7.5287   7.5532   7.6057
     7.7939   7.9014   7.9515   8.1210   8.2692   8.2948   8.3298   8.5764
     8.7215   8.9094   8.9297   9.0493   9.1642   9.3271   9.5289   9.6710
     9.6983   9.7938   9.9558  10.0441  10.0925  10.1635  10.4064  10.4629
    10.5374  10.7088  10.8296  10.8728  11.0707  11.0842  11.1673  11.1951
    11.3356  11.4121  11.4405  11.5349  11.5837  11.7890  11.8071  11.8391
    11.8666  12.0920  12.1218  12.1428  12.1957  12.2212  12.2313  12.4177
    12.5026  12.5596  12.5697  12.6534  12.7642  12.8523  12.9127  13.0259
    13.0529  13.2025  13.2111  13.3483  13.3722  13.4551  13.5262  13.5612
    13.7064  13.7466  13.7977  13.8193  13.8965  13.9277  14.1024  14.1200
    14.2908  14.4221  14.4953  14.5302  14.6024  14.6418  14.6672  14.8514
    14.9863  15.0526  15.1047  15.1305  15.1917  15.2975  15.3694  15.4018
    15.4297  15.5114  15.6456  15.6723  15.8036  15.8309  16.0270  16.0760
    16.3799  16.4901  16.5234  16.5456  16.6218  16.7605  16.8354  16.9015
    16.9380  17.1743  17.2226  17.3341  17.4146  17.5340  17.6135  17.6799
    17.7860  17.8299  17.9504  18.0695  18.1735  18.2730  18.4040  18.4269
    18.5298  18.5574  18.6507  18.8524  18.9874  19.0254  19.1266  19.1716
    19.2230  19.2763  19.3276  19.4460  19.4619  19.5167  19.5761  19.6330
    19.7224  19.7901  19.9277  19.9464  20.0226  20.1313  20.1535  20.2401
    20.2740  20.3821  20.3986  20.6117  20.6913  20.7246  20.8567  20.9418
    21.0507  21.0725  21.1789  21.3123  21.3706  21.5153  21.5359  21.5762
    21.6082  21.6651  21.7213  21.8857  21.9223  21.9500  21.9675  22.1482
    22.1914  22.2039  22.2852  22.3654  22.4560  22.4864  22.5010  22.5921
    22.5976  22.6461  22.8119  22.8470  22.8801  22.9611  23.0071  23.1434
    23.1705  23.2779  23.3331  23.4182  23.4764  23.5381  23.5484  23.6256
    23.7641  23.8242  23.8675  23.9460  23.9789  24.0245  24.0736

          k = 0.0000 0.2303 0.0000 ( 26455 PWs)   bands (ev):

   -83.7465 -83.6605 -83.6506 -83.3730 -83.3526 -83.2793 -83.2336 -83.2232
   -52.4607 -52.4527 -52.4092 -52.3745 -52.3471 -52.3004 -52.2875 -52.2839
   -52.2699 -52.1988 -52.0826 -52.0631 -52.0412 -52.0376 -51.9801 -51.9703
   -51.9554 -51.9540 -51.9045 -51.9018 -51.8808 -51.8571 -51.8304 -51.8115
   -24.5553 -21.1092 -20.5022 -20.3935 -20.1582 -19.6586 -19.4245 -19.4215
   -19.3926 -19.2725 -19.1193 -19.0852 -19.0755 -18.8905 -18.8650 -18.8126
   -18.5471 -18.2593 -18.0584 -17.4765  -9.6344  -9.5426  -9.3469  -9.3226
    -9.2856  -8.8158  -8.7921  -8.4840  -8.4698  -8.3393  -8.0321  -7.9137
    -7.8126  -7.7936  -7.5949  -7.4186  -7.4102  -7.3550  -7.3044  -7.2256
    -7.1470  -7.0775  -7.0061  -6.9558  -6.8565  -6.7592  -6.6033  -6.5338
    -6.4575  -6.3955  -6.3086  -6.2268  -6.1971  -6.0709  -6.0321  -5.9676
    -5.9058  -5.8013  -5.7544  -5.7245  -5.7016  -5.5516  -5.3823  -5.3793
    -4.9811  -4.9603  -4.8948  -4.8014  -4.7700  -4.6615  -4.5701  -4.5306
    -4.4401  -4.3872  -4.2349  -4.1928  -4.1444  -3.9734  -3.8314  -3.7007
    -3.6446  -3.5344  -3.4450  -3.1733  -3.0406  -2.8828  -2.7552  -2.7393
    -2.7026  -2.4577  -2.4519  -2.3580  -2.2761  -2.1928  -2.0389  -1.9206
    -1.8247  -1.7841  -1.7442  -1.6677  -1.5032  -1.4089  -1.2811  -1.1493
    -0.9214  -0.7632  -0.7015   0.0092   0.0532   0.3621   0.6151   0.8104
     1.0681   1.2412   1.4331   1.5498   1.5973   1.6996   1.8324   2.8748
     3.6867   3.8655   4.0420   4.5479   5.1390   5.3058   5.7226   5.8235
     6.0183   6.3487   6.6121   7.1119   7.3293   7.6190   7.6685   7.7480
     7.9737   8.1172   8.2175   8.3649   8.5245   8.5300   8.8226   8.9777
     8.9983   9.1032   9.1333   9.2537   9.4404   9.5231   9.6436   9.6726
     9.7715   9.8882   9.9286   9.9943  10.2433  10.3072  10.3782  10.3883
    10.4785  10.4851  10.5549  10.6816  10.7919  10.8330  10.8827  10.9587
    11.0516  11.0774  11.2807  11.4348  11.5099  11.6412  11.6771  11.6994
    11.7809  11.8843  11.9820  12.1372  12.1703  12.2193  12.3252  12.5028
    12.7143  12.7326  12.7947  12.8345  12.8459  13.1379  13.2991  13.3108
    13.3694  13.4721  13.5033  13.6583  13.7721  13.8198  13.8581  13.8927
    14.0849  14.1273  14.1899  14.2485  14.3403  14.3810  14.3919  14.4330
    14.5038  14.6298  14.6556  14.6894  14.7129  14.8505  14.9050  15.0158
    15.0305  15.1414  15.1808  15.2965  15.3560  15.3643  15.4151  15.4217
    15.4710  15.6327  15.7221  15.7351  15.8582  15.8686  15.9254  16.0143
    16.0568  16.0781  16.1745  16.3189  16.4401  16.5307  16.5529  16.6797
    16.7432  16.7882  16.9810  17.0294  17.1389  17.2191  17.2386  17.3571
    17.4292  17.5704  17.6832  17.7148  17.8991  17.9338  18.1012  18.2761
    18.3327  18.3651  18.4914  18.5560  18.6490  18.6926  18.8351  18.9236
    18.9730  19.1529  19.2028  19.2916  19.3193  19.3976  19.4337  19.4782
    19.6754  19.7164  19.8447  19.9729  20.0126  20.1557  20.2053  20.2656
    20.3266  20.3851  20.4164  20.4615  20.5117  20.5564  20.6456  20.7027
    20.7574  20.8503  20.8964  20.9852  21.1400  21.1765  21.2303  21.2946
    21.3638  21.4197  21.5078  21.5594  21.6425  21.6835  21.7811  21.8346
    21.8809  22.0026  22.0760  22.0984  22.1608  22.2759  22.4324  22.4407
    22.5060  22.5566  22.6619  22.6955  22.8119  22.8884  22.9570  23.0126
    23.0577  23.1065  23.1186  23.1840  23.2684  23.2806  23.3805  23.4126
    23.4558  23.5061  23.6003  23.6308  23.6674  23.7580  23.7928

          k = 0.0000-0.4606 0.0000 ( 26364 PWs)   bands (ev):

   -83.7465 -83.6605 -83.6506 -83.3730 -83.3526 -83.2793 -83.2336 -83.2232
   -52.4606 -52.4526 -52.4090 -52.3744 -52.3470 -52.3001 -52.2877 -52.2836
   -52.2700 -52.1982 -52.0826 -52.0635 -52.0411 -52.0377 -51.9803 -51.9636
   -51.9619 -51.9537 -51.9044 -51.9018 -51.8807 -51.8570 -51.8303 -51.8114
   -24.5550 -21.0429 -20.4982 -20.2560 -20.1046 -19.7854 -19.6236 -19.4391
   -19.4271 -19.2460 -19.1799 -19.0951 -19.0709 -18.8744 -18.8622 -18.7577
   -18.5524 -18.2612 -18.0495 -17.4710  -9.5868  -9.4979  -9.4686  -9.1060
    -8.9924  -8.9472  -8.8273  -8.4971  -8.4053  -8.1511  -8.0529  -7.8013
    -7.7470  -7.7227  -7.5990  -7.4916  -7.4165  -7.2230  -7.2178  -7.1880
    -7.1725  -7.0408  -6.9742  -6.8727  -6.8344  -6.6171  -6.5383  -6.5089
    -6.4744  -6.3979  -6.3820  -6.3387  -6.2650  -6.2167  -6.0871  -6.0060
    -5.9450  -5.9015  -5.8876  -5.7466  -5.7059  -5.5856  -5.5171  -5.4204
    -5.3759  -5.2172  -4.8944  -4.8090  -4.7460  -4.6891  -4.6485  -4.6085
    -4.3399  -4.2916  -4.2592  -4.1960  -4.0082  -3.9745  -3.7803  -3.5901
    -3.4987  -3.4892  -3.3430  -2.9964  -2.9194  -2.8778  -2.8534  -2.6748
    -2.6734  -2.5848  -2.5556  -2.5441  -2.3693  -2.3570  -2.1421  -2.0736
    -1.8982  -1.8662  -1.6926  -1.5638  -1.4691  -1.4367  -1.3836  -1.3069
    -1.2445  -1.1174  -0.5689   0.0633   0.3861   0.4852   0.6096   0.9045
     0.9338   1.1121   1.4286   1.6261   1.8344   1.9061   2.1615   3.1228
     3.7232   4.3118   4.4903   4.6106   4.7665   4.9939   5.2522   5.5492
     5.7632   6.1174   6.3291   6.9010   7.1943   7.6560   7.8197   7.8471
     8.1739   8.2001   8.5104   8.5340   8.5884   8.6238   8.7524   8.8123
     9.0341   9.0995   9.2081   9.2315   9.3088   9.3821   9.5585   9.7476
     9.7727   9.8704   9.8845   9.9962  10.0559  10.1753  10.2075  10.3923
    10.4202  10.5236  10.6849  10.7936  10.8415  11.0453  11.1574  11.2158
    11.3485  11.4077  11.4313  11.4809  11.5267  11.5956  11.6941  11.9694
    12.0345  12.1687  12.2249  12.3356  12.3702  12.4680  12.4916  12.5019
    12.7078  12.7804  12.8194  12.9215  13.0291  13.0985  13.2640  13.2860
    13.3524  13.4748  13.5153  13.5962  13.7155  13.7224  13.8072  13.9488
    14.0128  14.0201  14.0450  14.3111  14.3223  14.3508  14.5158  14.6046
    14.6346  14.6381  14.7037  14.7185  14.7554  14.7834  14.9097  15.0007
    15.2406  15.2558  15.2922  15.3898  15.4211  15.4519  15.5365  15.5612
    15.6673  15.7070  15.7711  15.8588  15.9817  16.0520  16.1061  16.3034
    16.3336  16.4006  16.4185  16.5020  16.6352  16.6693  16.7780  16.9387
    16.9608  17.0075  17.0727  17.1097  17.1857  17.2032  17.2707  17.3147
    17.4208  17.5200  17.6766  17.7064  17.7995  17.8199  17.8989  17.9118
    18.0097  18.1260  18.1686  18.1986  18.2314  18.4144  18.4416  18.5433
    18.6332  18.7082  18.7564  18.9059  18.9147  19.0226  19.0810  19.1205
    19.1674  19.1780  19.3392  19.4269  19.4642  19.5027  19.7468  19.8132
    19.9646  20.0538  20.1210  20.2101  20.2789  20.3410  20.3912  20.4773
    20.6064  20.6734  20.7164  20.7698  20.8301  20.8889  20.9249  21.0054
    21.0530  21.1147  21.1726  21.2274  21.3704  21.4778  21.5533  21.5776
    21.7536  21.8319  21.8871  21.9903  22.0537  22.2651  22.3876  22.4952
    22.5576  22.5928  22.6330  22.6736  22.7485  22.7759  22.8268  22.8464
    22.8939  22.9604  22.9997  23.0931  23.1325  23.1776  23.1890  23.2083
    23.2791  23.3770  23.5125  23.5217  23.5830  23.6548  23.6934

          k = 0.2500 0.0000 0.0000 ( 26392 PWs)   bands (ev):

   -83.7462 -83.6589 -83.6518 -83.3722 -83.3530 -83.2792 -83.2319 -83.2246
   -52.4490 -52.4444 -52.4092 -52.3745 -52.3641 -52.2984 -52.2891 -52.2821
   -52.2720 -52.1825 -52.0981 -52.0629 -52.0430 -52.0418 -51.9729 -51.9619
   -51.9570 -51.9508 -51.9044 -51.9013 -51.8813 -51.8753 -51.8275 -51.8142
   -24.5555 -21.0573 -20.5741 -20.3803 -20.0701 -19.7194 -19.5383 -19.4884
   -19.2187 -19.1271 -19.0795 -19.0420 -19.0002 -18.9649 -18.9164 -18.8884
   -18.5865 -18.2718 -18.1112 -17.4804  -9.5696  -9.4955  -9.4102  -9.3295
    -9.0665  -8.5570  -8.4620  -8.3215  -8.2754  -8.2232  -8.2035  -8.1117
    -8.0555  -8.0223  -7.8622  -7.7317  -7.6742  -7.5305  -7.4924  -7.2950
    -7.1563  -7.0717  -7.0218  -7.0130  -6.8614  -6.7789  -6.6686  -6.5895
    -6.4913  -6.3170  -6.2800  -6.1735  -6.0977  -6.0124  -5.9783  -5.9575
    -5.8921  -5.8288  -5.7773  -5.6742  -5.6080  -5.5875  -5.3490  -5.3126
    -5.2746  -5.1072  -4.9352  -4.8609  -4.6586  -4.6068  -4.5795  -4.4355
    -4.3433  -4.2611  -4.0709  -4.0535  -3.9603  -3.8732  -3.7859  -3.7433
    -3.5804  -3.5464  -3.4810  -3.3022  -3.0241  -2.9727  -2.7322  -2.5538
    -2.4691  -2.4275  -2.3053  -2.1884  -2.0732  -2.0363  -2.0179  -1.9944
    -1.8387  -1.8061  -1.7703  -1.6404  -1.5994  -1.4386  -1.3706  -1.3664
    -0.9552  -0.2244  -0.0736   0.2182   0.2703   0.2930   0.3543   0.4411
     0.7865   0.9175   0.9575   1.0710   1.2623   1.4987   1.7208   2.9390
     3.7329   3.9256   4.1021   4.6293   5.2004   5.3023   6.0038   6.1281
     6.2321   6.5318   6.7907   7.0424   7.2345   7.3045   7.5133   7.7031
     7.7694   7.9028   8.0378   8.0870   8.2279   8.4539   8.5379   8.7413
     8.9239   9.0105   9.2353   9.2745   9.4519   9.4701   9.6527   9.7546
     9.8679   9.9719  10.0530  10.0686  10.1416  10.2906  10.3272  10.4061
    10.4857  10.5428  10.5893  10.7099  10.7560  10.8399  10.8906  10.9877
    11.1190  11.1843  11.3625  11.5246  11.5695  11.6449  11.6706  11.7334
    11.7713  11.8332  11.9880  12.1068  12.1738  12.3544  12.4583  12.4729
    12.6057  12.6675  12.8161  12.8346  13.0198  13.1911  13.2238  13.3512
    13.4371  13.4543  13.5265  13.5938  13.7016  13.7944  13.8543  13.9494
    13.9953  14.0494  14.2126  14.2711  14.2872  14.3654  14.5210  14.6116
    14.6419  14.6950  14.7485  14.8318  14.8800  14.9151  15.0430  15.1005
    15.1745  15.2266  15.3385  15.3904  15.4167  15.4958  15.5644  15.5767
    15.7952  15.8498  15.8828  15.9767  16.0036  16.1356  16.1740  16.3343
    16.3945  16.4870  16.5425  16.6553  16.7665  16.7961  16.8194  16.9445
    17.0938  17.1515  17.2142  17.3448  17.3889  17.4612  17.5573  17.6264
    17.7087  17.7367  17.8050  17.9456  17.9852  18.0586  18.1471  18.2025
    18.3371  18.4132  18.4439  18.6926  18.7124  18.8079  18.8291  18.9380
    18.9813  19.1308  19.1793  19.2776  19.3393  19.3699  19.4017  19.4813
    19.5661  19.6423  19.7426  19.7902  19.8821  19.9510  19.9915  20.0357
    20.1140  20.2336  20.2929  20.3477  20.4584  20.4863  20.5664  20.6574
    20.7256  20.7333  20.8732  20.9010  21.0250  21.0775  21.1881  21.2833
    21.3441  21.3720  21.4565  21.5430  21.5864  21.6101  21.6594  21.7551
    21.7785  21.8354  21.8927  21.9209  22.0207  22.0725  22.0915  22.1339
    22.1579  22.1836  22.2551  22.2674  22.3156  22.3579  22.4479  22.5159
    22.5742  22.6113  22.6606  22.7748  22.7993  22.8475  22.8915  22.9669
    23.0099  23.0983  23.1479  23.2202  23.2498  23.2790  23.3832

          k = 0.2500 0.2303 0.0000 ( 26396 PWs)   bands (ev):

   -83.7463 -83.6589 -83.6518 -83.3722 -83.3531 -83.2792 -83.2319 -83.2246
   -52.4490 -52.4444 -52.4091 -52.3745 -52.3640 -52.2983 -52.2892 -52.2820
   -52.2721 -52.1821 -52.0982 -52.0632 -52.0430 -52.0420 -51.9704 -51.9618
   -51.9569 -51.9531 -51.9045 -51.9014 -51.8813 -51.8753 -51.8275 -51.8143
   -24.5552 -21.0089 -20.5682 -20.2755 -20.0439 -19.7047 -19.5410 -19.4614
   -19.3490 -19.2405 -19.1834 -19.1506 -19.0609 -18.8968 -18.8768 -18.8019
   -18.5861 -18.2741 -18.1020 -17.4748  -9.5415  -9.4293  -9.1670  -9.1410
    -9.0861  -8.6112  -8.5452  -8.3690  -8.3188  -8.2096  -8.0858  -8.0366
    -7.9989  -7.9132  -7.8503  -7.6536  -7.5664  -7.4441  -7.2932  -7.1549
    -7.1217  -7.0571  -6.9897  -6.9250  -6.8459  -6.6939  -6.6370  -6.6031
    -6.5149  -6.4372  -6.3560  -6.3173  -6.2339  -6.2064  -6.1537  -6.0561
    -5.9589  -5.9334  -5.8786  -5.8603  -5.7727  -5.7070  -5.5733  -5.3520
    -5.2789  -5.1014  -4.8139  -4.7813  -4.7597  -4.6591  -4.5239  -4.4525
    -4.3053  -4.2159  -4.1795  -4.1310  -3.9148  -3.7995  -3.7414  -3.5692
    -3.5265  -3.4513  -3.4342  -3.1464  -3.0442  -2.9549  -2.7249  -2.6190
    -2.5387  -2.5094  -2.4840  -2.2471  -2.1651  -2.1347  -1.9784  -1.9536
    -1.9114  -1.8429  -1.8063  -1.7465  -1.4753  -1.4269  -1.3930  -1.3291
    -0.7673  -0.6853  -0.4904   0.0377   0.1081   0.2812   0.3254   0.6446
     0.7934   1.1321   1.2781   1.3426   1.5414   1.6785   1.7211   3.0792
     3.8114   4.1093   4.3333   4.8327   5.3057   5.4528   5.7614   6.0512
     6.2196   6.3074   6.3817   6.5413   6.7604   6.9357   7.1508   7.4934
     7.6098   7.7991   7.8950   8.1750   8.2936   8.4071   8.4887   8.6687
     8.8145   8.9291   9.2256   9.2657   9.4145   9.5375   9.6680   9.8118
     9.8662   9.9386  10.0345  10.0976  10.2230  10.3638  10.4800  10.5346
    10.6776  10.7161  10.8102  10.8863  11.0286  11.2311  11.2900  11.3510
    11.4672  11.5757  11.6743  11.7664  11.8117  11.8803  11.9572  12.0420
    12.0964  12.1991  12.3131  12.3880  12.4349  12.5013  12.6388  12.6621
    12.8283  12.8772  12.9540  13.0544  13.1480  13.1828  13.2407  13.3541
    13.4093  13.4923  13.5600  13.6434  13.7604  13.8207  13.9278  13.9868
    14.0521  14.0802  14.1881  14.2146  14.3053  14.3748  14.4593  14.5388
    14.5702  14.6604  14.7183  14.7845  14.8881  14.9263  14.9941  15.0510
    15.1057  15.2143  15.2465  15.3827  15.4594  15.5281  15.6343  15.6897
    15.7460  15.8013  15.9347  16.0226  16.0867  16.1792  16.2235  16.3091
    16.3570  16.4147  16.5196  16.5324  16.6347  16.7036  16.7686  16.8226
    16.8852  17.0289  17.0666  17.1626  17.2437  17.2981  17.3505  17.4576
    17.5181  17.5775  17.6273  17.7035  17.7493  17.8056  17.8762  17.9805
    18.0648  18.1538  18.2160  18.2508  18.3403  18.4349  18.4961  18.5981
    18.6625  18.6894  18.7374  18.8424  18.8604  18.9496  19.0448  19.0986
    19.2311  19.2870  19.3509  19.4034  19.4799  19.6029  19.6720  19.7248
    19.7990  19.8773  19.9393  20.0061  20.0922  20.1877  20.2503  20.3192
    20.3807  20.4584  20.5676  20.6083  20.6835  20.7419  20.8562  20.9046
    20.9903  21.0406  21.1502  21.1985  21.3012  21.3709  21.3920  21.5277
    21.5898  21.6791  21.7440  21.8483  21.9037  21.9699  22.0645  22.1067
    22.2278  22.3280  22.4081  22.4835  22.5349  22.5826  22.6991  22.7540
    22.8554  22.9533  23.0142  23.1164  23.2183  23.2596  23.2988  23.3719
    23.4403  23.4805  23.5520  23.6023  23.6902  23.7225  23.7346

          k = 0.2500-0.4606 0.0000 ( 26462 PWs)   bands (ev):

   -83.7463 -83.6588 -83.6518 -83.3722 -83.3531 -83.2792 -83.2319 -83.2246
   -52.4491 -52.4444 -52.4090 -52.3745 -52.3641 -52.2981 -52.2894 -52.2817
   -52.2722 -52.1818 -52.0981 -52.0636 -52.0431 -52.0423 -51.9663 -51.9620
   -51.9586 -51.9552 -51.9045 -51.9014 -51.8814 -51.8753 -51.8275 -51.8143
   -24.5549 -20.9567 -20.5618 -20.1218 -19.9968 -19.6989 -19.6555 -19.4695
   -19.4205 -19.3068 -19.2563 -19.1820 -19.1457 -18.8740 -18.8635 -18.7487
   -18.5861 -18.2765 -18.0945 -17.4691  -9.5061  -9.3928  -9.2517  -8.8719
    -8.7740  -8.6877  -8.6084  -8.3410  -8.2883  -8.1185  -8.0339  -7.8957
    -7.8349  -7.7962  -7.6857  -7.5375  -7.4961  -7.4353  -7.3668  -7.2339
    -7.1331  -7.0286  -6.9801  -6.8897  -6.8411  -6.7879  -6.7590  -6.6889
    -6.5562  -6.5260  -6.4464  -6.3913  -6.2980  -6.1936  -6.1297  -6.0998
    -6.0346  -5.9770  -5.9211  -5.8149  -5.7845  -5.7684  -5.6017  -5.5118
    -5.4243  -5.3626  -4.9595  -4.8383  -4.8165  -4.7123  -4.6818  -4.6004
    -4.5061  -4.1858  -4.0733  -3.9791  -3.7926  -3.7058  -3.6610  -3.5162
    -3.4054  -3.3320  -3.1441  -3.1285  -2.9530  -2.8145  -2.7560  -2.6572
    -2.6253  -2.5313  -2.4413  -2.4077  -2.3279  -2.2034  -2.1234  -2.0324
    -1.9375  -1.8703  -1.8098  -1.6677  -1.4670  -1.4212  -1.3776  -1.2528
    -1.1701  -1.0703  -0.5652   0.1281   0.2536   0.3897   0.4045   0.4356
     0.5860   1.2516   1.3844   1.4880   1.6974   1.7988   2.0808   3.2701
     3.8714   4.5717   4.7737   4.8902   5.0422   5.2786   5.5317   5.6515
     5.8490   6.2321   6.5567   6.7641   6.7835   6.8631   7.1423   7.2529
     7.3127   7.4749   7.5768   7.8141   8.0049   8.1715   8.3085   8.5345
     8.7478   8.8605   9.0357   9.1640   9.3262   9.3615   9.4624   9.7247
     9.8841  10.0850  10.2231  10.3451  10.4229  10.5059  10.6280  10.7668
    10.8755  11.1307  11.2901  11.4106  11.4667  11.5782  11.6380  11.7235
    11.8237  11.8600  11.9586  12.0195  12.0413  12.2366  12.2824  12.3211
    12.3621  12.5205  12.5745  12.6575  12.7461  12.8265  12.8656  12.9298
    13.0463  13.0802  13.1287  13.2189  13.2727  13.3399  13.3632  13.4982
    13.5161  13.5922  13.6610  13.7867  13.8880  13.9329  13.9516  13.9900
    14.1132  14.1400  14.1754  14.2098  14.2851  14.2979  14.5096  14.5921
    14.6129  14.6800  14.7019  14.7888  14.8600  14.9075  14.9486  15.0579
    15.0781  15.1061  15.1292  15.2142  15.3109  15.3790  15.4201  15.4587
    15.4948  15.5580  15.6602  15.6840  15.7216  15.7362  15.8254  15.9371
    16.0639  16.0820  16.1447  16.2300  16.3069  16.4288  16.4642  16.5510
    16.5974  16.7549  16.8270  16.8918  16.9290  16.9598  17.0673  17.1272
    17.3320  17.4188  17.5253  17.5952  17.6702  17.8580  17.9102  18.0099
    18.1266  18.1568  18.2926  18.3483  18.3841  18.4616  18.4849  18.5191
    18.6070  18.7111  18.7700  18.8541  18.8755  18.9347  18.9768  19.0744
    19.1741  19.2017  19.2577  19.2760  19.3047  19.3598  19.5534  19.5812
    19.6665  19.7393  19.7586  19.8262  19.8728  19.9486  19.9984  20.0788
    20.1199  20.2008  20.2828  20.3695  20.4715  20.5601  20.6199  20.7148
    20.7620  20.8700  20.9347  20.9525  21.0640  21.0953  21.1047  21.1724
    21.2747  21.3372  21.4281  21.5252  21.5606  21.6047  21.7612  21.9175
    21.9520  22.0092  22.1431  22.2704  22.3391  22.4229  22.4889  22.6093
    22.7122  22.7955  22.9119  22.9573  23.0983  23.1113  23.1890  23.3063
    23.3979  23.4593  23.4984  23.5437  23.5933  23.6743  23.7155

          k =-0.5000 0.0000 0.0000 ( 26466 PWs)   bands (ev):

   -83.7460 -83.6555 -83.6548 -83.3713 -83.3536 -83.2790 -83.2282 -83.2279
   -52.4453 -52.4093 -52.4059 -52.4032 -52.3745 -52.2942 -52.2933 -52.2776
   -52.2768 -52.1482 -52.1325 -52.0618 -52.0463 -52.0451 -51.9723 -51.9588
   -51.9500 -51.9194 -51.9188 -51.9044 -51.9006 -51.8818 -51.8211 -51.8207
   -24.5553 -20.8363 -20.7537 -20.0749 -20.0576 -19.8250 -19.8181 -19.5337
   -19.1282 -19.0810 -19.0538 -19.0497 -19.0099 -19.0000 -18.9165 -18.7908
   -18.7515 -18.2390 -18.1852 -17.4789  -9.5537  -9.1081  -9.0087  -8.9119
    -8.8857  -8.8836  -8.7629  -8.4056  -8.2624  -8.2136  -8.1137  -8.1014
    -8.0237  -8.0083  -7.9886  -7.8918  -7.7487  -7.5990  -7.3933  -7.3884
    -7.3550  -6.9831  -6.9186  -6.8277  -6.7300  -6.6384  -6.5280  -6.4697
    -6.4562  -6.4490  -6.3843  -6.3555  -6.2810  -6.1852  -6.1262  -6.1118
    -5.9527  -5.9095  -5.8846  -5.8496  -5.7293  -5.6831  -5.5634  -5.4498
    -5.3919  -5.3031  -5.2472  -4.7195  -4.6275  -4.4579  -4.4090  -4.2128
    -4.1950  -4.0905  -4.0742  -3.9843  -3.8589  -3.7756  -3.7057  -3.5925
    -3.5037  -3.2969  -3.2908  -3.2157  -3.2053  -2.9177  -2.7735  -2.7259
    -2.4774  -2.2138  -2.1793  -2.1587  -2.1016  -2.0641  -2.0396  -2.0062
    -1.8854  -1.8803  -1.7015  -1.6841  -1.6563  -1.6340  -1.5025  -1.4093
    -0.8237  -0.1604  -0.1576   0.1033   0.2075   0.5186   0.5844   0.5905
     0.6005   0.6208   0.6417   0.8323   1.0497   1.5219   1.5315   3.2662
     4.0516   4.2738   4.6999   4.7582   4.9334   4.9748   5.4669   5.4710
     6.0619   6.1980   6.6901   6.9799   7.2968   7.3749   7.7381   7.9610
     8.0745   8.1661   8.1895   8.3044   8.5353   8.5960   8.6857   8.7356
     8.7738   8.8402   8.8861   8.9310   8.9719   9.1045   9.2565   9.3832
     9.4213   9.5255   9.6275   9.9393   9.9877  10.1252  10.2599  10.3850
    10.4159  10.7210  10.7536  10.9428  10.9811  11.0408  11.1322  11.1390
    11.3358  11.3603  11.5199  11.5771  11.7019  11.7473  11.7532  11.8005
    12.1238  12.1683  12.2634  12.3271  12.4551  12.4820  12.7149  12.7623
    12.8704  12.8890  13.0699  13.1145  13.2090  13.2998  13.5685  13.5898
[...]
    15.0005  15.0168  15.1374  15.1601  15.3193  15.3492  15.3877  15.4272
    15.5974  15.6742  15.7671  15.9110  15.9606  15.9710  16.0608  16.1803
    16.2564  16.2842  16.3734  16.4100  16.5295  16.6834  16.7727  16.8064
    16.8607  16.9220  16.9356  17.0653  17.1465  17.1938  17.2946  17.3631
    17.3887  17.4905  17.5738  17.6656  17.7119  17.8341  17.8565  17.9221
    17.9265  17.9813  17.9986  18.0661  18.0770  18.1075  18.1735  18.3175
    18.3304  18.4596  18.4939  18.5328  18.6606  18.6724  18.7400  18.7734
    18.8581  18.9912  19.0242  19.1242  19.1904  19.3029  19.3700  19.4240
    19.4902  19.5911  19.6049  19.6688  19.7603  19.8074  19.9233  19.9459
    20.0873  20.1019  20.1623  20.2054  20.2456  20.3045  20.3406  20.3648
    20.4034  20.4457  20.4927  20.5629  20.7266  20.7360  20.8069  20.8305
    20.8711  20.8880  21.0484  21.1024  21.1324  21.1999  21.2377  21.4150
    21.4359  21.4750  21.5563  21.6077  21.6987  21.7166  21.7680  21.8329
    21.8509  21.8937  21.9825  22.0987  22.1309  22.1720  22.2286  22.3009
    22.3567  22.4360  22.4615  22.5805  22.6136  22.6905  22.7855  22.8346
    22.8408  22.9649  23.0230  23.1151  23.1275  23.2581  23.3007

          k =-0.5000 0.2303 0.0000 ( 26450 PWs)   bands (ev):

   -79.5769 -79.5759 -79.4201 -79.4122 -79.3481 -79.3476 -79.0973 -78.5105
   -48.4183 -48.4163 -48.4060 -48.4051 -48.3404 -48.3322 -48.2881 -48.2859
   -48.2367 -48.2305 -48.1980 -48.1975 -48.1853 -48.1850 -48.0853 -48.0379
   -48.0307 -48.0146 -48.0141 -47.9322 -47.6824 -47.6406 -47.4628 -46.9013
   -26.0419 -20.7019 -20.5107 -19.8147 -19.7969 -19.6044 -19.6013 -19.2494
   -19.2316 -19.0900 -19.0770 -18.9224 -18.9124 -18.8304 -18.8071 -18.6204
   -18.5952 -18.3762 -18.2932 -17.9467 -10.0437  -8.2266  -8.1347  -8.0209
    -7.8335  -7.2907  -7.2644  -7.0616  -7.0451  -6.7690  -6.7353  -6.5324
    -6.4686  -6.3782  -6.3432  -6.2533  -6.2272  -6.0220  -6.0098  -5.6509
    -5.5962  -5.5481  -5.5218  -5.4582  -5.4044  -5.1940  -5.1510  -5.0641
    -5.0071  -4.8499  -4.8378  -4.7348  -4.7202  -4.5112  -4.4987  -4.3721
    -4.3658  -4.2823  -4.2431  -4.0522  -4.0075  -3.9154  -3.8306  -3.5019
    -3.4813  -3.4132  -3.2942  -3.2268  -3.0244  -2.8944  -2.8400  -2.7709
    -2.7411  -2.5787  -2.5489  -2.3709  -2.3309  -2.0029  -1.9670   1.0414
     1.0634   1.1468   1.2325   1.3039   1.3616   1.4143   1.4386   1.4925
     1.5341   1.5415   1.5462   1.6634   1.6969   1.8124   1.8311   1.8987
     1.9586   1.9701   2.0146   2.0200   2.2138   2.2303   2.3153   2.5208
     2.5238   2.6331   2.6377   2.6787   2.7217   2.8694   2.9644   3.0527
     3.0859   3.1762   3.1885   3.2698   3.6475   3.6637   3.7637   3.8226
     4.3463   4.3962   4.8421   4.9731   5.2400   5.2885   5.6532   5.7377
     6.1544   6.3098   6.4277   6.5505   6.8840   6.8944   7.0507   7.1494
     7.2733   7.4332   7.6443   7.7719   7.8923   8.1531   8.3661   8.4175
     8.7531   8.8886   8.9987   9.1619   9.2427   9.3047   9.7147   9.7398
     9.9880  10.0346  10.2656  10.3229  10.4478  10.4997  10.7554  10.7814
    10.8470  10.8605  10.9633  11.0695  11.2689  11.2979  11.4739  11.5662
    11.6912  11.8030  11.9126  12.0573  12.0735  12.1415  12.2337  12.3911
    12.4907  12.6687  12.7678  12.7861  12.8930  12.9780  13.0012  13.1580
    13.3046  13.3493  13.5227  13.5484  13.6069  13.6499  13.7917  13.8407
    13.9066  13.9918  14.0950  14.1953  14.2127  14.3733  14.3909  14.4569
    14.5003  14.6458  14.6773  14.7237  14.7943  14.8763  14.9238  15.0223
    15.1019  15.1360  15.1702  15.2171  15.2443  15.2708  15.3539  15.3724
    15.5099  15.5335  15.5981  15.6328  15.8358  15.8803  15.9332  15.9971
    16.1044  16.1196  16.1786  16.2065  16.2726  16.3400  16.3830  16.4066
    16.4139  16.4732  16.5367  16.6049  16.6842  16.7179  16.7697  16.8478
    16.8845  16.8934  16.9997  17.0762  17.1318  17.2267  17.2571  17.3060
    17.4237  17.4417  17.5810  17.6168  17.6920  17.7823  17.8287  17.8444
    18.0061  18.0466  18.0723  18.1506  18.2155  18.2566  18.3084  18.3410
    18.5374  18.5769  18.7098  18.7668  18.8619  18.9403  18.9866  19.0748
    19.1766  19.2379  19.2541  19.3231  19.4960  19.5564  19.6331  19.8057
    19.8302  19.9232  19.9796  20.0016  20.0555  20.1157  20.1412  20.2900
    20.3430  20.3861  20.4245  20.4534  20.5192  20.6435  20.7363  20.7754
    20.8477  20.9062  20.9671  21.1478  21.1996  21.3192  21.4164  21.4766
    21.5818  21.6365  21.7134  21.8424  21.8754  21.9300  22.0082  22.1163
    22.1688  22.2771  22.3489  22.4345  22.5468  22.6580  22.7373  22.7560
    22.8224  22.8759  22.9033  23.0207  23.0899  23.1326  23.2454  23.2910
    23.3946  23.4398  23.5015  23.5213  23.6696  23.6852  23.8341

          k =-0.5000-0.4606 0.0000 ( 26416 PWs)   bands (ev):

   -79.5769 -79.5759 -79.4201 -79.4122 -79.3481 -79.3476 -79.0973 -78.5105
   -48.4183 -48.4163 -48.4059 -48.4051 -48.3397 -48.3316 -48.2879 -48.2858
   -48.2374 -48.2311 -48.1981 -48.1972 -48.1853 -48.1850 -48.0849 -48.0378
   -48.0307 -48.0146 -48.0141 -47.9325 -47.6824 -47.6405 -47.4629 -46.9013
   -26.0418 -20.6822 -20.4825 -19.6436 -19.6396 -19.5587 -19.5210 -19.4197
   -19.3949 -19.2542 -19.2473 -18.9403 -18.9299 -18.8181 -18.7897 -18.5746
   -18.5567 -18.3727 -18.2844 -17.9436 -10.0378  -8.2283  -8.1073  -7.9915
    -7.8240  -6.8771  -6.8654  -6.7768  -6.7479  -6.6029  -6.5796  -6.4599
    -6.4384  -6.2909  -6.2760  -6.2482  -6.2009  -5.9731  -5.9408  -5.7800
    -5.7734  -5.6725  -5.6465  -5.4629  -5.4033  -5.3992  -5.3230  -5.3066
    -5.2600  -5.1103  -5.0910  -4.8765  -4.8602  -4.6787  -4.6334  -4.5304
    -4.5024  -4.3104  -4.2995  -4.0473  -4.0118  -3.8046  -3.7687  -3.6821
    -3.6110  -3.4893  -3.3012  -3.2868  -3.0293  -2.7973  -2.7461  -2.6979
    -2.6681  -2.4953  -2.4660  -2.4073  -2.3930  -1.9096  -1.9048   1.0154
     1.0183   1.2242   1.2433   1.2876   1.3344   1.3952   1.4545   1.5689
     1.6280   1.7183   1.7769   1.8039   1.8188   1.8802   1.9015   1.9043
     1.9776   2.0272   2.0289   2.0981   2.1064   2.1539   2.1991   2.2316
     2.3457   2.6395   2.6885   2.6995   2.7632   2.7802   2.7895   2.9181
     3.0211   3.2382   3.2734   3.3728   3.6931   3.7069   3.8466   3.9147
     4.3053   4.8767   5.2516   5.2902   5.5610   5.6368   5.7611   5.7879
     5.8829   5.8886   6.1272   6.1708   6.3671   6.3828   6.6367   6.7452
     6.9899   7.1439   7.3273   7.5353   7.7142   8.0296   8.1226   8.4500
     8.5129   8.6824   8.9607   9.0675   9.3687   9.4080   9.4712   9.6498
     9.8887   9.9145  10.1490  10.2051  10.2720  10.5267  11.2048  11.3759
    11.4591  11.4880  11.5749  11.6188  11.7005  11.7938  11.9646  12.2339
    12.2726  12.5326  12.5923  12.7027  12.8254  12.9504  12.9762  13.1249
    13.2355  13.2533  13.2900  13.3729  13.4047  13.4565  13.4837  13.5249
    13.5474  13.6268  13.7581  13.7701  13.8717  13.8884  13.9066  13.9921
    14.0609  14.1244  14.1602  14.1734  14.2561  14.2662  14.2710  14.3608
    14.4181  14.4962  14.5437  14.6492  14.6929  14.7149  14.7750  14.8478
    14.8560  14.8932  14.9050  14.9429  14.9623  15.0237  15.0639  15.0766
    15.1949  15.2462  15.3647  15.3763  15.4526  15.4727  15.5155  15.5635
    15.5890  15.6672  15.7114  15.7408  15.7862  15.8468  15.9078  15.9423
    16.0060  16.0096  16.0706  16.1541  16.2507  16.3255  16.3999  16.4242
    16.5048  16.5613  16.7962  16.8142  16.8478  16.9696  16.9864  17.0467
    17.0981  17.1991  17.2053  17.3243  17.3503  17.4075  17.4489  17.4853
    17.5907  17.6565  17.8769  17.9044  17.9675  17.9698  18.1040  18.1318
    18.3306  18.3814  18.4206  18.4661  18.4775  18.5813  18.6603  18.7126
    18.9300  18.9753  19.1453  19.1484  19.2323  19.3567  19.3944  19.4262
    19.4863  19.5764  19.7254  19.7980  20.0844  20.1163  20.2457  20.2669
    20.3750  20.4955  20.5519  20.6675  20.7895  20.9185  20.9936  21.0283
    21.2202  21.2835  21.2981  21.4836  21.6276  21.6449  21.7888  21.8505
    21.9576  21.9714  22.1377  22.1468  22.1985  22.2328  22.2886  22.3904
    22.4135  22.6819  22.7162  22.7241  22.7891  22.8274  22.9127  23.0322
    23.0458  23.1256  23.1635  23.2021  23.2790  23.3222  23.4001  23.4710
    23.5247  23.5512  23.6539  23.6782  23.6973  23.7744  23.7913

          k =-0.2500 0.2303 0.0000 ( 26396 PWs)   bands (ev):

   -79.5802 -79.5723 -79.4217 -79.4102 -79.3518 -79.3436 -79.0971 -78.5103
   -48.4631 -48.4116 -48.4072 -48.3851 -48.3671 -48.2961 -48.2848 -48.2775
   -48.2427 -48.2360 -48.2244 -48.2016 -48.1939 -48.1344 -48.0912 -48.0401
   -48.0289 -48.0223 -48.0059 -47.9323 -47.6824 -47.6347 -47.4626 -46.9013
   -26.0420 -20.8438 -20.3882 -20.0993 -19.8698 -19.4349 -19.3832 -19.3083
   -19.2320 -19.0667 -19.0288 -18.9711 -18.8883 -18.7987 -18.7865 -18.6615
   -18.5317 -18.4124 -18.2647 -17.9482 -10.0445  -8.2662  -8.2292  -7.9919
    -7.8245  -7.5043  -7.4026  -7.3313  -7.0311  -6.8342  -6.6964  -6.5652
    -6.5378  -6.3497  -6.3341  -6.1677  -6.1350  -5.9828  -5.9446  -5.8938
    -5.8508  -5.6186  -5.5621  -5.4395  -5.3753  -5.3463  -5.2191  -5.1733
    -4.8307  -4.8217  -4.7593  -4.6338  -4.4866  -4.4672  -4.4171  -4.2861
    -4.1954  -4.1398  -4.1027  -3.9345  -3.8371  -3.7243  -3.6081  -3.5450
    -3.4429  -3.3870  -3.2623  -3.2052  -3.0125  -2.9382  -2.9124  -2.8313
    -2.7393  -2.6814  -2.5486  -2.3930  -2.2371  -2.1761  -1.8368   0.9966
     1.0535   1.0846   1.1575   1.1779   1.2682   1.3158   1.3917   1.4249
     1.4543   1.5460   1.5555   1.6888   1.7548   1.8025   1.8349   1.9115
     1.9564   2.0244   2.0994   2.1705   2.2696   2.2798   2.2909   2.4127
     2.4396   2.5450   2.6249   2.7262   2.7913   2.8934   2.9540   3.0001
     3.1529   3.2823   3.3573   3.4267   3.4938   3.7067   3.8323   3.8940
     3.9625   4.2749   4.4324   4.8341   5.2029   5.5208   5.6843   6.0787
     6.2401   6.3657   6.5093   6.5739   6.8493   6.9787   7.1810   7.4953
     7.6010   7.7916   7.9637   8.1670   8.2730   8.3580   8.4912   8.7188
     8.7606   9.0032   9.1724   9.3223   9.4554   9.5799   9.6292   9.7969
     9.8901   9.9678  10.0376  10.1959  10.2363  10.4571  10.4945  10.5618
    10.6631  10.8446  10.9225  10.9710  11.1416  11.1939  11.3239  11.3904
    11.5233  11.6308  11.7572  11.8252  11.9603  12.0114  12.1159  12.1787
    12.2183  12.3290  12.4185  12.4628  12.5094  12.5965  12.7340  12.7864
    12.8942  12.9562  13.0613  13.1628  13.2193  13.3116  13.4477  13.4699
    13.5665  13.6150  13.6494  13.7105  13.9311  14.0377  14.0908  14.1504
    14.2763  14.3706  14.3996  14.4464  14.4688  14.5358  14.6655  14.7412
    14.8434  14.8856  14.9455  14.9903  15.1421  15.2178  15.2711  15.2927
    15.3565  15.4148  15.5128  15.6122  15.6976  15.7353  15.7847  15.8895
    15.9906  16.0692  16.1462  16.2103  16.2577  16.3026  16.4000  16.4510
    16.4988  16.5735  16.6921  16.7410  16.8453  16.9510  16.9931  17.0489
    17.1523  17.1927  17.2853  17.3670  17.4013  17.5447  17.5680  17.6474
    17.7160  17.7745  17.8461  17.9247  17.9808  18.0351  18.0707  18.1518
    18.2632  18.3075  18.3835  18.4413  18.5509  18.6036  18.7228  18.7319
    18.7840  18.8649  18.9705  19.0245  19.0936  19.1201  19.2162  19.2519
    19.3937  19.4639  19.5750  19.6211  19.6923  19.7317  19.7943  19.8755
    19.9954  20.0549  20.1052  20.2414  20.3017  20.3874  20.4183  20.4989
    20.5903  20.6801  20.7700  20.8334  20.9393  20.9860  21.0351  21.1731
    21.2174  21.2803  21.3387  21.4404  21.4793  21.5862  21.6613  21.7187
    21.9039  21.9528  21.9640  22.0636  22.1106  22.1686  22.2396  22.3394
    22.3691  22.4352  22.5259  22.5595  22.6639  22.7123  22.7653  22.9053
    22.9749  23.0330  23.1094  23.1860  23.3347  23.3744  23.4657  23.5190
    23.6174  23.6307  23.6600  23.7529  23.7663  23.8114  23.8730

     the spin up/dw Fermi energies are    -1.2246   -0.9656 ev

!    total energy              =   -2352.88589649 Ry
     Harris-Foulkes estimate   =   -2352.88589649 Ry
     estimated scf accuracy    <          3.3E-09 Ry

     The total energy is the sum of the following terms:

     one-electron contribution =  -26686.37332867 Ry
     hartree contribution      =   13371.59937891 Ry
     xc contribution           =    -356.40474016 Ry
     ewald contribution        =   11317.03600983 Ry
     Hubbard energy            =       1.25684930 Ry
     smearing contrib. (-TS)   =      -0.00006570 Ry

     total magnetization       =    23.00 Bohr mag/cell
     absolute magnetization    =    31.02 Bohr mag/cell

     convergence has been achieved in  16 iterations

     Forces acting on atoms (Ry/au):


     negative rho (up, down):  0.182E-02 0.133E-02
     atom    1 type  1   force =    -0.00533877   -0.01658224    0.00000384
     atom    2 type  1   force =     0.00035632    0.01298614    0.00040256
     atom    3 type  2   force =    -0.00227566   -0.00226260    0.00011705
     atom    4 type  2   force =     0.00655063    0.01205767   -0.00003741
     atom    5 type  1   force =     0.00295798    0.01224627   -0.00042416
     atom    6 type  1   force =    -0.00128378   -0.01634199    0.00000000
     atom    7 type  1   force =     0.00000814   -0.00034649    0.00047567
     atom    8 type  1   force =    -0.00128742   -0.00130191    0.00010530
     atom    9 type  2   force =     0.00138775    0.00239190    0.00003521
     atom   10 type  2   force =    -0.00008514   -0.00353703    0.00032959
     atom   11 type  1   force =    -0.00196445   -0.03856157   -0.00026185
     atom   12 type  1   force =    -0.00002641    0.04102553   -0.00019092
     atom   13 type  1   force =    -0.00036424   -0.00080053    0.00075726
     atom   14 type  1   force =    -0.00510202   -0.01594603    0.00006917
     atom   15 type  1   force =     0.00038405    0.01179441   -0.00000041
     atom   16 type  2   force =     0.00109463   -0.00221755    0.00016199
     atom   17 type  2   force =     0.00633353    0.01192646    0.00007643
     atom   18 type  1   force =     0.00150775    0.01225186   -0.00043777
     atom   19 type  1   force =    -0.00335103   -0.01633894   -0.00003806
     atom   20 type  1   force =     0.00003609    0.00048768   -0.00076971
     atom   21 type  1   force =    -0.00123516   -0.00109490   -0.00000958
     atom   22 type  2   force =    -0.00002852    0.00242699    0.00004584
     atom   23 type  2   force =    -0.00002075   -0.00543360    0.00007877
     atom   24 type  1   force =     0.00205085   -0.03855255   -0.00026470
     atom   25 type  1   force =     0.00008935    0.04106234   -0.00019403
     atom   26 type  1   force =    -0.00037871   -0.00215108    0.00010241
     atom   27 type  3   force =     0.00001217   -0.00023589    0.00009799
     atom   28 type  3   force =     0.00000576    0.00000015    0.00008707
     atom   29 type  3   force =    -0.00001361   -0.00022363   -0.00009821
     atom   30 type  3   force =    -0.00002482   -0.00029987   -0.00013971
     atom   31 type  1   force =    -0.00005001    0.00093323    0.00084676
     atom   32 type  1   force =     0.00009088    0.00000276   -0.00021116
     atom   33 type  3   force =    -0.00003537    0.00063498   -0.00071524

     Total force =     0.002263     Total SCF correction =     0.000308
     SCF correction compared to forces is large: reduce conv_thr to get better values

     bfgs converged in  27 scf cycles and  26 bfgs steps
     (criteria: energy < 0.10E-03, force < 0.10E-02)

     End of BFGS Geometry Optimization

     Final energy   =   -2352.8858964912 Ry
Begin final coordinates

ATOMIC_POSITIONS (crystal)
O0       0.000000000   0.000000000   0.375794018    0   0   1
O0       0.000000000   0.500000000   0.396190916    0   0   1
Mn1      0.250000000   0.500000000   0.448171263    0   0   1
Mn1      0.000000000   0.000000000   0.447834834    0   0   1
O0       0.250000000   0.800000000   0.447800673    0   0   1
O0       0.250000000   0.200000000   0.449310172    0   0   1
O0       0.000000000   0.500000000   0.494728140    0   0   1
O0       0.000000000   0.000000000   0.524563920    0   0   1
Mn1      0.250000000   0.000000000   0.573389112    0   0   1
Mn1      0.000000000   0.500000000   0.570736307    0   0   1
O0       0.250000000   0.700000000   0.580863141    0   0   1
O0       0.250000000   0.300000000   0.581623811    0   0   1
O0       0.000000000   0.000000000   0.620093848    0   0   1
O0       0.500000000   0.000000000   0.375599831    0   0   1
O0       0.500000000   0.500000000   0.396167206    0   0   1
Mn1      0.750000000   0.500000000   0.448163267    0   0   1
Mn1      0.500000000   0.000000000   0.447532630    0   0   1
O0       0.750000000   0.800000000   0.447815476    0   0   1
O0       0.750000000   0.200000000   0.449291977    0   0   1
O0       0.500000000   0.500000000   0.497169753    0   0   1
O0       0.500000000   0.000000000   0.524529892    0   0   1
Mn1      0.750000000   0.000000000   0.573385444    0   0   1
Mn1      0.500000000   0.500000000   0.571386868    0   0   1
O0       0.750000000   0.700000000   0.580869455    0   0   1
O0       0.750000000   0.300000000   0.581625263    0   0   1
O0       0.500000000   0.000000000   0.620063923    0   0   1
H2       0.000372852   0.648196846   0.380566955
H2       0.500415610   0.647431701   0.380348248
H2       0.161846051   0.040106602   0.364975952
H2       0.661733191   0.040833644   0.364846513
O0       0.499700000   0.550699553   0.658944112    0   1   1
O0       0.500640000   0.371554611   0.688911119    0   1   1
H2       0.499720000   0.433088283   0.724035962    0   1   1
End final coordinates


 
     init_run     :    184.69s CPU    187.28s WALL (       1 calls)
     electrons    : 231045.32s CPU 237732.59s WALL (      27 calls)
     update_pot   :    597.92s CPU    602.23s WALL (      26 calls)
     forces       :   9674.54s CPU  10028.87s WALL (      27 calls)

     Called by init_run:
     wfcinit      :    104.87s CPU    106.81s WALL (       1 calls)
     potinit      :     11.75s CPU     11.94s WALL (       1 calls)

     Called by electrons:
     c_bands      : 144921.42s CPU 148514.49s WALL (     556 calls)
     sum_band     :  52427.39s CPU  53902.80s WALL (     556 calls)
     v_of_rho     :   2022.56s CPU   2103.06s WALL (     583 calls)
     newd         :  23099.36s CPU  23176.28s WALL (     583 calls)
     mix_rho      :    311.95s CPU    315.06s WALL (     556 calls)

     Called by c_bands:
     init_us_2    :    199.65s CPU    200.06s WALL (    5970 calls)
     cegterg      : 129622.85s CPU 131056.98s WALL (    2780 calls)

     Called by *egterg:
     h_psi        :  66267.83s CPU  66623.10s WALL (    7698 calls)
     s_psi        :   8113.31s CPU   8121.04s WALL (    7968 calls)
     g_psi        :    225.00s CPU    225.17s WALL (    4913 calls)
     cdiaghg      :  15824.79s CPU  15845.09s WALL (    7563 calls)

     Called by h_psi:
     add_vuspsi   :   7872.28s CPU   7879.99s WALL (    7698 calls)
     vhpsi        :   8204.76s CPU   8225.80s WALL (    7698 calls)

     General routines
     calbec       :  20169.56s CPU  20228.82s WALL (   61591 calls)
     fft          :   2198.33s CPU   2272.80s WALL (   18316 calls)
     ffts         :     38.13s CPU     39.05s WALL (    2278 calls)
     fftw         :  39879.40s CPU  40245.25s WALL ( 5345526 calls)
     interpolate  :    292.90s CPU    295.81s WALL (    2278 calls)
     davcio       :      0.38s CPU     94.84s WALL (    6105 calls)
 
     Parallel routines
     fft_scatter  :  15323.38s CPU  15737.07s WALL ( 5366120 calls)
     Hubbard U routines
     new_ns       :   2082.09s CPU   2160.50s WALL (     556 calls)
     vhpsi        :   8204.76s CPU   8225.80s WALL (    7698 calls)
     force_hub    :   3384.50s CPU   3483.65s WALL (      27 calls)
 
     PWSCF        :     2d   19h25m CPU        2d   21h23m WALL

 
   This run was terminated on:  11:36: 6  20Sep2014            

=------------------------------------------------------------------------------=
   JOB DONE.
=------------------------------------------------------------------------------=
