loading modules
dropbox is Dropbox isn't running!

     Program PWSCF v.5.0.2 (svn rev. 9656) starts on 11Aug2014 at  8:48:46 

     This program is part of the open-source Quantum ESPRESSO suite
     for quantum simulation of materials; please cite
         "P. Giannozzi et al., J. Phys.:Condens. Matter 21 395502 (2009);
          URL http://www.quantum-espresso.org", 
     in publications or presentations arising from this work. More details at
     http://www.quantum-espresso.org/quote.php

     Parallel version (MPI), running on    16 processors
     K-points division:     npool     =       4
     R & G space division:  proc/nbgrp/npool/nimage =       4

     Current dimensions of program PWSCF are:
     Max number of different atomic species (ntypx) = 10
     Max number of k-points (npk) =  40000
     Max angular momentum in pseudopotentials (lmaxx) =  3
     Reading input from pwscf.in
Warning: card &CELL ignored
Warning: card / ignored

     Subspace diagonalization in iterative solution of the eigenvalue problem:
     a serial algorithm will be used

 
     Parallelization info
     --------------------
     sticks:   dense  smooth     PW     G-vecs:    dense   smooth      PW
     Min        1274     408    116               299662    54238    8133
     Max        1275     409    117               299663    54251    8135
     Sum        5097    1635    467              1198649   216969   32535
 


     bravais-lattice index     =            0
     lattice parameter (alat)  =      10.9604  a.u.
     unit-cell volume          =    6350.6732 (a.u.)^3
     number of atoms/cell      =           33
     number of atomic types    =            3
     number of electrons       =       237.00 (up: 126.00, down: 111.00)
     number of Kohn-Sham states=          343
     kinetic-energy cutoff     =      40.0000  Ry
     charge density cutoff     =     500.0000  Ry
     convergence threshold     =      1.0E-06
     mixing beta               =       0.7000
     number of iterations used =            8  plain     mixing
     Exchange-correlation      = SLA  PW   PBE  PBE ( 1 4 3 4 0)
     EXX-fraction              =        0.00
     nstep                     =           50


     celldm(1)=  10.960412  celldm(2)=   0.000000  celldm(3)=   0.000000
     celldm(4)=   0.000000  celldm(5)=   0.000000  celldm(6)=   0.000000

     crystal axes: (cart. coord. in units of alat)
               a(1) = (   1.000000   0.000000   0.000000 )  
               a(2) = (   0.000000   1.067975   0.000000 )  
               a(3) = (   0.000000   0.000000   4.516251 )  

     reciprocal axes: (cart. coord. in units 2 pi/alat)
               b(1) = (  1.000000  0.000000  0.000000 )  
               b(2) = (  0.000000  0.936351  0.000000 )  
               b(3) = (  0.000000  0.000000  0.221423 )  


     PseudoPot. # 1 for O  read from file:
     /home-research/zhongnanxu/gbrv_espresso_pseudo_v1.01/o_pbe_v1.01.uspp.F.UPF
     MD5 check sum: 2bcb18d16ea4b960afae9ec6d52f22d2
     Pseudo is Ultrasoft + core correction, Zval =  6.0
     Generated by new atomic code, or converted to UPF format
     Using radial grid of  737 points,  5 beta functions with: 
                l(1) =   0
                l(2) =   0
                l(3) =   1
                l(4) =   1
                l(5) =   2
     Q(r) pseudized with  8 coefficients,  rinner =    0.900   0.900   0.900
                                                       0.900   0.900

     PseudoPot. # 2 for Cr read from file:
     /home-research/zhongnanxu/gbrv_espresso_pseudo_v1.01/cr_pbe_v1.uspp.F.UPF
     MD5 check sum: 68b6f918d1762dccfb11451fe85b0e0e
     Pseudo is Ultrasoft + core correction, Zval = 14.0
     Generated by new atomic code, or converted to UPF format
     Using radial grid of  857 points,  6 beta functions with: 
                l(1) =   0
                l(2) =   0
                l(3) =   1
                l(4) =   1
                l(5) =   2
                l(6) =   2
     Q(r) pseudized with  6 coefficients,  rinner =    1.000   1.000   1.000
                                                       1.000   1.000

     PseudoPot. # 3 for H  read from file:
     /home-research/zhongnanxu/gbrv_espresso_pseudo_v1.01/h_pbe_v1.uspp.F.UPF
     MD5 check sum: 3408e3ff4ec8b0a4e358431e7e038a48
     Pseudo is Ultrasoft, Zval =  1.0
     Generated by new atomic code, or converted to UPF format
     Using radial grid of  615 points,  2 beta functions with: 
                l(1) =   0
                l(2) =   0
     Q(r) pseudized with  8 coefficients,  rinner =    0.700

     atomic species   valence    mass     pseudopotential
        O0             6.00    15.99940     O ( 1.00)
        Cr1           14.00    51.99600     Cr( 1.00)
        H2             1.00     1.00794     H ( 1.00)

     Starting magnetic structure 
     atomic species   magnetization
        O0           0.000
        Cr1          0.600
        H2           0.000


     Simplified LDA+U calculation (l_max = 2) with parameters (eV):
     atomic species    L          U    alpha       J0     beta
        Cr1            2     7.0000   0.0000   0.0000   0.0000



     No symmetry found



   Cartesian axes

     site n.     atom                  positions (alat units)
         1           O0  tau(   1) = (   0.0000000   0.0000000   1.6843809  )
         2           O0  tau(   2) = (   0.0000000   0.5339875   1.7838740  )
         3           Cr1 tau(   3) = (   0.2500000   0.5339875   2.0221062  )
         4           Cr1 tau(   4) = (   0.0000000   0.0000000   2.0259902  )
         5           O0  tau(   5) = (   0.2500000   0.8543801   2.0217449  )
         6           O0  tau(   6) = (   0.2500000   0.2135950   2.0221062  )
         7           O0  tau(   7) = (   0.0000000   0.5339875   2.2460219  )
         8           O0  tau(   8) = (   0.0000000   0.0000000   2.3721156  )
         9           Cr1 tau(   9) = (   0.2500000   0.0000000   2.6044767  )
        10           Cr1 tau(  10) = (   0.0000000   0.5339875   2.5686177  )
        11           O0  tau(  11) = (   0.2500000   0.7475825   2.6103479  )
        12           O0  tau(  12) = (   0.2500000   0.3203925   2.6151803  )
        13           O0  tau(  13) = (   0.0000000   0.0000000   2.8270828  )
        14           O0  tau(  14) = (   0.5000000   0.0000000   1.6833874  )
        15           O0  tau(  15) = (   0.5000000   0.5339875   1.7839191  )
        16           Cr1 tau(  16) = (   0.7500000   0.5339875   2.0221514  )
        17           Cr1 tau(  17) = (   0.5000000   0.0000000   2.0251772  )
        18           O0  tau(  18) = (   0.7500000   0.8543801   2.0218804  )
        19           O0  tau(  19) = (   0.7500000   0.2135950   2.0221965  )
        20           O0  tau(  20) = (   0.5000000   0.5339875   2.2566351  )
        21           O0  tau(  21) = (   0.5000000   0.0000000   2.3720253  )
        22           Cr1 tau(  22) = (   0.7500000   0.0000000   2.6053800  )
        23           Cr1 tau(  23) = (   0.5000000   0.5339875   2.6031219  )
        24           O0  tau(  24) = (   0.7500000   0.7475825   2.6090382  )
        25           O0  tau(  25) = (   0.7500000   0.3203925   2.6140512  )
        26           O0  tau(  26) = (   0.5000000   0.0000000   2.8255924  )
        27           H2  tau(  27) = (  -0.0005100   0.6829701   1.7010008  )
        28           H2  tau(  28) = (   0.4995500   0.6836002   1.7019492  )
        29           H2  tau(  29) = (   0.1592000   0.0296470   1.6288762  )
        30           H2  tau(  30) = (   0.6590900   0.0302130   1.6280633  )
        31           O0  tau(  31) = (   0.4998600   0.5900776   2.9610799  )
        32           O0  tau(  32) = (   0.5002200   0.3851652   3.0803993  )
        33           H2  tau(  33) = (   0.4998900   0.4386067   3.2425778  )

     number of k points=    20  Methfessel-Paxton smearing, width (Ry)=  0.0100
                       cart. coord. in units 2pi/alat
        k(    1) = (   0.0000000   0.0000000   0.0000000), wk =   0.0625000
        k(    2) = (   0.0000000   0.2340879   0.0000000), wk =   0.1250000
        k(    3) = (   0.0000000  -0.4681757   0.0000000), wk =   0.0625000
        k(    4) = (   0.2500000   0.0000000   0.0000000), wk =   0.1250000
        k(    5) = (   0.2500000   0.2340879   0.0000000), wk =   0.1250000
        k(    6) = (   0.2500000  -0.4681757   0.0000000), wk =   0.1250000
        k(    7) = (  -0.5000000   0.0000000   0.0000000), wk =   0.0625000
        k(    8) = (  -0.5000000   0.2340879   0.0000000), wk =   0.1250000
        k(    9) = (  -0.5000000  -0.4681757   0.0000000), wk =   0.0625000
        k(   10) = (  -0.2500000   0.2340879   0.0000000), wk =   0.1250000
        k(   11) = (   0.0000000   0.0000000   0.0000000), wk =   0.0625000
        k(   12) = (   0.0000000   0.2340879   0.0000000), wk =   0.1250000
        k(   13) = (   0.0000000  -0.4681757   0.0000000), wk =   0.0625000
        k(   14) = (   0.2500000   0.0000000   0.0000000), wk =   0.1250000
        k(   15) = (   0.2500000   0.2340879   0.0000000), wk =   0.1250000
        k(   16) = (   0.2500000  -0.4681757   0.0000000), wk =   0.1250000
        k(   17) = (  -0.5000000   0.0000000   0.0000000), wk =   0.0625000
        k(   18) = (  -0.5000000   0.2340879   0.0000000), wk =   0.1250000
        k(   19) = (  -0.5000000  -0.4681757   0.0000000), wk =   0.0625000
        k(   20) = (  -0.2500000   0.2340879   0.0000000), wk =   0.1250000

     Dense  grid:  1198649 G-vectors     FFT dimensions: (  80,  90, 360)

     Smooth grid:   216969 G-vectors     FFT dimensions: (  45,  48, 200)

     Largest allocated arrays     est. size (Mb)     dimensions
        Kohn-Sham Wavefunctions        36.03 Mb     (   6884,  343)
        Atomic wavefunctions           17.33 Mb     (   6884,  165)
        NL pseudopotentials            43.49 Mb     (   6884,  414)
        Each V/rho on FFT grid         19.78 Mb     ( 648000,   2)
        Each G-vector array             2.29 Mb     ( 299662)
        G-vector shells                 0.99 Mb     ( 129803)
     Largest temporary arrays     est. size (Mb)     dimensions
        Auxiliary wavefunctions       144.12 Mb     (   6884, 1372)
        Each subspace H/S matrix       28.72 Mb     (1372,1372)
        Each <psi_i|beta_j> matrix      2.17 Mb     (    414,  343)
        Arrays for rho mixing          79.10 Mb     ( 648000,   8)

     Check: negative/imaginary core charge=   -0.000012    0.000000

     Initial potential from superposition of free atoms
     Check: negative starting charge=(component1):   -0.001250
     Check: negative starting charge=(component2):   -0.000435

     starting charge  228.99983, renormalised to  237.00000

     negative rho (up, down):  0.129E-02 0.450E-03
     Number of +U iterations with fixed ns =  0
     Starting occupations:
 --- enter write_ns ---
 LDA+U parameters:
U( 2)     =  7.00000000
alpha( 2) =  0.00000000
atom    3   Tr[ns(na)] (up, down, total) =   5.00000  0.00000  5.00000
   spin  1
    eigenvalues: 
  1.000  1.000  1.000  1.000  1.000
    eigenvectors:
  1.000  0.000  0.000  0.000  0.000
  0.000  1.000  0.000  0.000  0.000
  0.000  0.000  1.000  0.000  0.000
  0.000  0.000  0.000  1.000  0.000
  0.000  0.000  0.000  0.000  1.000
    occupations:
  1.000  0.000  0.000  0.000  0.000
  0.000  1.000  0.000  0.000  0.000
  0.000  0.000  1.000  0.000  0.000
  0.000  0.000  0.000  1.000  0.000
  0.000  0.000  0.000  0.000  1.000
   spin  2
    eigenvalues: 
  0.000  0.000  0.000  0.000  0.000
    eigenvectors:
  1.000  0.000  0.000  0.000  0.000
  0.000  1.000  0.000  0.000  0.000
  0.000  0.000  1.000  0.000  0.000
  0.000  0.000  0.000  1.000  0.000
  0.000  0.000  0.000  0.000  1.000
    occupations:
  0.000  0.000  0.000  0.000  0.000
  0.000  0.000  0.000  0.000  0.000
  0.000  0.000  0.000  0.000  0.000
  0.000  0.000  0.000  0.000  0.000
  0.000  0.000  0.000  0.000  0.000
atomic mag. moment =     5.000000
atom    4   Tr[ns(na)] (up, down, total) =   5.00000  0.00000  5.00000
   spin  1
    eigenvalues: 
  1.000  1.000  1.000  1.000  1.000
    eigenvectors:
  1.000  0.000  0.000  0.000  0.000
  0.000  1.000  0.000  0.000  0.000
  0.000  0.000  1.000  0.000  0.000
  0.000  0.000  0.000  1.000  0.000
  0.000  0.000  0.000  0.000  1.000
    occupations:
  1.000  0.000  0.000  0.000  0.000
  0.000  1.000  0.000  0.000  0.000
  0.000  0.000  1.000  0.000  0.000
  0.000  0.000  0.000  1.000  0.000
  0.000  0.000  0.000  0.000  1.000
   spin  2
    eigenvalues: 
  0.000  0.000  0.000  0.000  0.000
    eigenvectors:
  1.000  0.000  0.000  0.000  0.000
  0.000  1.000  0.000  0.000  0.000
  0.000  0.000  1.000  0.000  0.000
  0.000  0.000  0.000  1.000  0.000
  0.000  0.000  0.000  0.000  1.000
    occupations:
  0.000  0.000  0.000  0.000  0.000
  0.000  0.000  0.000  0.000  0.000
  0.000  0.000  0.000  0.000  0.000
  0.000  0.000  0.000  0.000  0.000
  0.000  0.000  0.000  0.000  0.000
atomic mag. moment =     5.000000
atom    9   Tr[ns(na)] (up, down, total) =   5.00000  0.00000  5.00000
   spin  1
    eigenvalues: 
  1.000  1.000  1.000  1.000  1.000
    eigenvectors:
  1.000  0.000  0.000  0.000  0.000
  0.000  1.000  0.000  0.000  0.000
  0.000  0.000  1.000  0.000  0.000
  0.000  0.000  0.000  1.000  0.000
  0.000  0.000  0.000  0.000  1.000
    occupations:
  1.000  0.000  0.000  0.000  0.000
  0.000  1.000  0.000  0.000  0.000
  0.000  0.000  1.000  0.000  0.000
  0.000  0.000  0.000  1.000  0.000
  0.000  0.000  0.000  0.000  1.000
   spin  2
    eigenvalues: 
  0.000  0.000  0.000  0.000  0.000
    eigenvectors:
  1.000  0.000  0.000  0.000  0.000
  0.000  1.000  0.000  0.000  0.000
  0.000  0.000  1.000  0.000  0.000
  0.000  0.000  0.000  1.000  0.000
  0.000  0.000  0.000  0.000  1.000
    occupations:
  0.000  0.000  0.000  0.000  0.000
  0.000  0.000  0.000  0.000  0.000
  0.000  0.000  0.000  0.000  0.000
  0.000  0.000  0.000  0.000  0.000
  0.000  0.000  0.000  0.000  0.000
atomic mag. moment =     5.000000
atom   10   Tr[ns(na)] (up, down, total) =   5.00000  0.00000  5.00000
   spin  1
    eigenvalues: 
  1.000  1.000  1.000  1.000  1.000
    eigenvectors:
  1.000  0.000  0.000  0.000  0.000
  0.000  1.000  0.000  0.000  0.000
  0.000  0.000  1.000  0.000  0.000
  0.000  0.000  0.000  1.000  0.000
  0.000  0.000  0.000  0.000  1.000
    occupations:
  1.000  0.000  0.000  0.000  0.000
  0.000  1.000  0.000  0.000  0.000
  0.000  0.000  1.000  0.000  0.000
  0.000  0.000  0.000  1.000  0.000
  0.000  0.000  0.000  0.000  1.000
   spin  2
    eigenvalues: 
  0.000  0.000  0.000  0.000  0.000
    eigenvectors:
  1.000  0.000  0.000  0.000  0.000
  0.000  1.000  0.000  0.000  0.000
  0.000  0.000  1.000  0.000  0.000
  0.000  0.000  0.000  1.000  0.000
  0.000  0.000  0.000  0.000  1.000
    occupations:
  0.000  0.000  0.000  0.000  0.000
  0.000  0.000  0.000  0.000  0.000
  0.000  0.000  0.000  0.000  0.000
  0.000  0.000  0.000  0.000  0.000
  0.000  0.000  0.000  0.000  0.000
atomic mag. moment =     5.000000
atom   16   Tr[ns(na)] (up, down, total) =   5.00000  0.00000  5.00000
   spin  1
    eigenvalues: 
  1.000  1.000  1.000  1.000  1.000
    eigenvectors:
  1.000  0.000  0.000  0.000  0.000
  0.000  1.000  0.000  0.000  0.000
  0.000  0.000  1.000  0.000  0.000
  0.000  0.000  0.000  1.000  0.000
  0.000  0.000  0.000  0.000  1.000
    occupations:
  1.000  0.000  0.000  0.000  0.000
  0.000  1.000  0.000  0.000  0.000
  0.000  0.000  1.000  0.000  0.000
  0.000  0.000  0.000  1.000  0.000
  0.000  0.000  0.000  0.000  1.000
   spin  2
    eigenvalues: 
  0.000  0.000  0.000  0.000  0.000
    eigenvectors:
  1.000  0.000  0.000  0.000  0.000
  0.000  1.000  0.000  0.000  0.000
  0.000  0.000  1.000  0.000  0.000
  0.000  0.000  0.000  1.000  0.000
  0.000  0.000  0.000  0.000  1.000
    occupations:
  0.000  0.000  0.000  0.000  0.000
  0.000  0.000  0.000  0.000  0.000
  0.000  0.000  0.000  0.000  0.000
  0.000  0.000  0.000  0.000  0.000
  0.000  0.000  0.000  0.000  0.000
atomic mag. moment =     5.000000
atom   17   Tr[ns(na)] (up, down, total) =   5.00000  0.00000  5.00000
   spin  1
    eigenvalues: 
  1.000  1.000  1.000  1.000  1.000
    eigenvectors:
  1.000  0.000  0.000  0.000  0.000
  0.000  1.000  0.000  0.000  0.000
  0.000  0.000  1.000  0.000  0.000
  0.000  0.000  0.000  1.000  0.000
  0.000  0.000  0.000  0.000  1.000
    occupations:
  1.000  0.000  0.000  0.000  0.000
  0.000  1.000  0.000  0.000  0.000
  0.000  0.000  1.000  0.000  0.000
  0.000  0.000  0.000  1.000  0.000
  0.000  0.000  0.000  0.000  1.000
   spin  2
    eigenvalues: 
  0.000  0.000  0.000  0.000  0.000
    eigenvectors:
  1.000  0.000  0.000  0.000  0.000
  0.000  1.000  0.000  0.000  0.000
  0.000  0.000  1.000  0.000  0.000
  0.000  0.000  0.000  1.000  0.000
  0.000  0.000  0.000  0.000  1.000
    occupations:
  0.000  0.000  0.000  0.000  0.000
  0.000  0.000  0.000  0.000  0.000
  0.000  0.000  0.000  0.000  0.000
  0.000  0.000  0.000  0.000  0.000
  0.000  0.000  0.000  0.000  0.000
atomic mag. moment =     5.000000
atom   22   Tr[ns(na)] (up, down, total) =   5.00000  0.00000  5.00000
   spin  1
    eigenvalues: 
  1.000  1.000  1.000  1.000  1.000
    eigenvectors:
  1.000  0.000  0.000  0.000  0.000
  0.000  1.000  0.000  0.000  0.000
  0.000  0.000  1.000  0.000  0.000
  0.000  0.000  0.000  1.000  0.000
  0.000  0.000  0.000  0.000  1.000
    occupations:
  1.000  0.000  0.000  0.000  0.000
  0.000  1.000  0.000  0.000  0.000
  0.000  0.000  1.000  0.000  0.000
  0.000  0.000  0.000  1.000  0.000
  0.000  0.000  0.000  0.000  1.000
   spin  2
    eigenvalues: 
  0.000  0.000  0.000  0.000  0.000
    eigenvectors:
  1.000  0.000  0.000  0.000  0.000
  0.000  1.000  0.000  0.000  0.000
  0.000  0.000  1.000  0.000  0.000
  0.000  0.000  0.000  1.000  0.000
  0.000  0.000  0.000  0.000  1.000
    occupations:
  0.000  0.000  0.000  0.000  0.000
  0.000  0.000  0.000  0.000  0.000
  0.000  0.000  0.000  0.000  0.000
  0.000  0.000  0.000  0.000  0.000
  0.000  0.000  0.000  0.000  0.000
atomic mag. moment =     5.000000
atom   23   Tr[ns(na)] (up, down, total) =   5.00000  0.00000  5.00000
   spin  1
    eigenvalues: 
  1.000  1.000  1.000  1.000  1.000
    eigenvectors:
  1.000  0.000  0.000  0.000  0.000
  0.000  1.000  0.000  0.000  0.000
  0.000  0.000  1.000  0.000  0.000
  0.000  0.000  0.000  1.000  0.000
  0.000  0.000  0.000  0.000  1.000
    occupations:
  1.000  0.000  0.000  0.000  0.000
  0.000  1.000  0.000  0.000  0.000
  0.000  0.000  1.000  0.000  0.000
  0.000  0.000  0.000  1.000  0.000
  0.000  0.000  0.000  0.000  1.000
   spin  2
    eigenvalues: 
  0.000  0.000  0.000  0.000  0.000
    eigenvectors:
  1.000  0.000  0.000  0.000  0.000
  0.000  1.000  0.000  0.000  0.000
  0.000  0.000  1.000  0.000  0.000
  0.000  0.000  0.000  1.000  0.000
  0.000  0.000  0.000  0.000  1.000
    occupations:
  0.000  0.000  0.000  0.000  0.000
  0.000  0.000  0.000  0.000  0.000
  0.000  0.000  0.000  0.000  0.000
  0.000  0.000  0.000  0.000  0.000
  0.000  0.000  0.000  0.000  0.000
atomic mag. moment =     5.000000
N of occupied +U levels =  40.0000000
 --- exit write_ns ---
 Atomic wfc used for LDA+U Projector are NOT orthogonalized
     Starting wfc are  165 randomized atomic wfcs

     total cpu time spent up to now is     1073.8 secs

     per-process dynamical memory:   512.5 Mb

     Self-consistent Calculation

     iteration #  1     ecut=    40.00 Ry     beta=0.70
     Davidson diagonalization with overlap
     ethr =  1.00E-02,  avg # of iterations =  5.4
 --- enter write_ns ---
 LDA+U parameters:
U( 2)     =  7.00000000
alpha( 2) =  0.00000000
atom    3   Tr[ns(na)] (up, down, total) =   4.38987  0.46595  4.85581
   spin  1
    eigenvalues: 
  0.711  0.782  0.946  0.975  0.977
    eigenvectors:
  0.262  0.001  0.042  0.033  0.662
  0.001  0.995  0.000  0.004  0.000
  0.000  0.000  0.935  0.009  0.056
  0.737  0.000  0.022  0.013  0.229
  0.000  0.004  0.001  0.941  0.054
    occupations:
  0.905  0.002  0.009 -0.116  0.002
  0.002  0.783  0.000 -0.003 -0.012
  0.009  0.000  0.947  0.001 -0.001
 -0.116 -0.003  0.001  0.780  0.001
  0.002 -0.012 -0.001  0.001  0.974
   spin  2
    eigenvalues: 
  0.043  0.051  0.051  0.145  0.176
    eigenvectors:
  0.712  0.049  0.030  0.001  0.208
  0.000  0.000  0.000  0.997  0.002
  0.096  0.523  0.380  0.000  0.000
  0.191  0.011  0.007  0.002  0.790
  0.000  0.417  0.582  0.001  0.000
    occupations:
  0.071  0.000 -0.002  0.054  0.000
  0.000  0.145  0.000  0.002  0.003
 -0.002  0.000  0.050  0.002  0.000
  0.054  0.002  0.002  0.148  0.000
  0.000  0.003  0.000  0.000  0.051
atomic mag. moment =     3.923923
atom    4   Tr[ns(na)] (up, down, total) =   4.30736  0.47545  4.78281
   spin  1
    eigenvalues: 
  0.648  0.770  0.947  0.965  0.979
    eigenvectors:
  0.000  0.978  0.017  0.001  0.003
  0.000  0.017  0.982  0.000  0.000
  0.000  0.001  0.000  0.983  0.016
  0.000  0.004  0.000  0.016  0.981
  1.000  0.000  0.000  0.000  0.000
    occupations:
  0.774  0.023  0.006  0.012  0.000
  0.023  0.944 -0.001 -0.002  0.000
  0.006 -0.001  0.965 -0.002  0.000
  0.012 -0.002 -0.002  0.978  0.000
  0.000  0.000  0.000  0.000  0.648
   spin  2
    eigenvalues: 
  0.048  0.049  0.052  0.161  0.165
    eigenvectors:
  0.013  0.001  0.000  0.985  0.000
  0.166  0.389  0.444  0.001  0.000
  0.091  0.357  0.552  0.000  0.000
  0.730  0.253  0.003  0.014  0.000
  0.000  0.000  0.000  0.000  1.000
    occupations:
  0.159  0.003  0.001 -0.013  0.000
  0.003  0.050 -0.001  0.000  0.000
  0.001 -0.001  0.051  0.000  0.000
 -0.013  0.000  0.000  0.050  0.000
  0.000  0.000  0.000  0.000  0.165
atomic mag. moment =     3.831906
atom    9   Tr[ns(na)] (up, down, total) =   4.44761  0.52125  4.96885
   spin  1
    eigenvalues: 
  0.758  0.806  0.948  0.963  0.973
    eigenvectors:
  0.196  0.002  0.001  0.001  0.799
  0.009  0.991  0.000  0.000  0.000
  0.000  0.000  0.039  0.959  0.002
  0.795  0.007  0.000  0.001  0.198
  0.000  0.000  0.960  0.040  0.001
    occupations:
  0.930 -0.001 -0.001 -0.086  0.001
 -0.001  0.806  0.000 -0.005  0.000
 -0.001  0.000  0.962 -0.001  0.003
 -0.086 -0.005 -0.001  0.801  0.000
  0.001  0.000  0.003  0.000  0.949
   spin  2
    eigenvalues: 
  0.056  0.056  0.062  0.165  0.183
    eigenvectors:
  0.284  0.540  0.000  0.001  0.175
  0.000  0.000  0.000  0.997  0.003
  0.645  0.343  0.012  0.000  0.000
  0.065  0.111  0.000  0.002  0.822
  0.006  0.006  0.988  0.000  0.000
    occupations:
  0.078  0.000  0.000  0.048  0.000
  0.000  0.165  0.000 -0.001  0.000
  0.000  0.000  0.056  0.001 -0.001
  0.048 -0.001  0.001  0.160  0.000
  0.000  0.000 -0.001  0.000  0.062
atomic mag. moment =     3.926357
atom   10   Tr[ns(na)] (up, down, total) =   4.60042  0.41721  5.01763
   spin  1
    eigenvalues: 
  0.739  0.885  0.990  0.990  0.996
    eigenvectors:
  0.000  0.991  0.008  0.000  0.001
  0.000  0.000  0.008  0.991  0.000
  0.000  0.001  0.000  0.000  0.999
  0.000  0.007  0.984  0.008  0.000
  1.000  0.000  0.000  0.000  0.000
    occupations:
  0.886  0.000  0.004  0.009  0.000
  0.000  0.990  0.000  0.000 -0.002
  0.004  0.000  0.996  0.000  0.000
  0.009  0.000  0.000  0.989  0.000
  0.000 -0.002  0.000  0.000  0.739
   spin  2
    eigenvalues: 
  0.045  0.047  0.052  0.113  0.161
    eigenvectors:
  0.000  0.030  0.000  0.970  0.000
  0.000  0.000  1.000  0.000  0.000
  0.993  0.007  0.000  0.000  0.000
  0.006  0.964  0.000  0.030  0.000
  0.000  0.000  0.000  0.000  1.000
    occupations:
  0.111  0.000  0.000 -0.011  0.000
  0.000  0.052  0.000  0.000  0.001
  0.000  0.000  0.045  0.000  0.000
 -0.011  0.000  0.000  0.049  0.000
  0.000  0.001  0.000  0.000  0.161
atomic mag. moment =     4.183210
atom   16   Tr[ns(na)] (up, down, total) =   4.39010  0.46590  4.85600
   spin  1
    eigenvalues: 
  0.711  0.782  0.946  0.975  0.977
    eigenvectors:
  0.261  0.001  0.038  0.007  0.692
  0.001  0.995  0.000  0.004  0.000
  0.000  0.000  0.942  0.002  0.056
  0.737  0.000  0.020  0.003  0.240
  0.000  0.004  0.000  0.984  0.012
    occupations:
  0.906 -0.002  0.009 -0.116 -0.001
 -0.002  0.783  0.000  0.004 -0.012
  0.009  0.000  0.947  0.001  0.000
 -0.116  0.004  0.001  0.780 -0.001
 -0.001 -0.012  0.000 -0.001  0.974
   spin  2
    eigenvalues: 
  0.043  0.051  0.051  0.145  0.176
    eigenvectors:
  0.712  0.049  0.030  0.001  0.208
  0.000  0.000  0.001  0.997  0.002
  0.096  0.520  0.384  0.000  0.000
  0.191  0.011  0.007  0.002  0.790
  0.000  0.420  0.579  0.001  0.000
    occupations:
  0.071  0.000 -0.002  0.054  0.000
  0.000  0.145  0.000 -0.002  0.003
 -0.002  0.000  0.050  0.002  0.000
  0.054 -0.002  0.002  0.148  0.000
  0.000  0.003  0.000  0.000  0.051
atomic mag. moment =     3.924205
atom   17   Tr[ns(na)] (up, down, total) =   4.30537  0.47406  4.77942
   spin  1
    eigenvalues: 
  0.646  0.770  0.947  0.964  0.979
    eigenvectors:
  0.000  0.979  0.017  0.001  0.003
  0.000  0.017  0.982  0.000  0.000
  0.000  0.000  0.001  0.962  0.037
  0.000  0.003  0.000  0.037  0.960
  1.000  0.000  0.000  0.000  0.000
    occupations:
  0.774  0.023  0.003  0.012  0.000
  0.023  0.944  0.000 -0.002  0.000
  0.003  0.000  0.965 -0.003  0.000
  0.012 -0.002 -0.003  0.978  0.000
  0.000  0.000  0.000  0.000  0.646
   spin  2
    eigenvalues: 
  0.048  0.049  0.052  0.160  0.165
    eigenvectors:
  0.013  0.002  0.000  0.985  0.000
  0.189  0.358  0.452  0.001  0.000
  0.112  0.343  0.545  0.000  0.000
  0.686  0.297  0.003  0.014  0.000
  0.000  0.000  0.000  0.000  1.000
    occupations:
  0.159  0.004  0.001 -0.013  0.000
  0.004  0.050 -0.001  0.000  0.000
  0.001 -0.001  0.050  0.000  0.000
 -0.013  0.000  0.000  0.050  0.000
  0.000  0.000  0.000  0.000  0.165
atomic mag. moment =     3.831308
atom   22   Tr[ns(na)] (up, down, total) =   4.44517  0.52186  4.96703
   spin  1
    eigenvalues: 
  0.757  0.806  0.948  0.962  0.973
    eigenvectors:
  0.195  0.002  0.000  0.001  0.802
  0.011  0.989  0.000  0.000  0.000
  0.000  0.000  0.034  0.965  0.001
  0.794  0.009  0.000  0.000  0.196
  0.000  0.000  0.966  0.034  0.000
    occupations:
  0.930  0.003 -0.001 -0.086  0.000
  0.003  0.805  0.000  0.004  0.000
 -0.001  0.000  0.962 -0.001 -0.003
 -0.086  0.004 -0.001  0.800  0.000
  0.000  0.000 -0.003  0.000  0.948
   spin  2
    eigenvalues: 
  0.056  0.056  0.062  0.165  0.183
    eigenvectors:
  0.099  0.725  0.000  0.001  0.174
  0.000  0.000  0.000  0.997  0.003
  0.868  0.121  0.011  0.000  0.000
  0.024  0.151  0.000  0.002  0.823
  0.009  0.003  0.988  0.000  0.000
    occupations:
  0.078  0.000  0.000  0.048  0.000
  0.000  0.165  0.000  0.001  0.000
  0.000  0.000  0.056  0.001  0.001
  0.048  0.001  0.001  0.161  0.000
  0.000  0.000  0.001  0.000  0.062
atomic mag. moment =     3.923317
atom   23   Tr[ns(na)] (up, down, total) =   4.48761  0.46937  4.95698
   spin  1
    eigenvalues: 
  0.679  0.847  0.982  0.985  0.995
    eigenvectors:
  0.000  0.969  0.000  0.011  0.019
  0.000  0.000  0.989  0.011  0.000
  0.000  0.018  0.000  0.004  0.979
  0.000  0.013  0.011  0.974  0.002
  1.000  0.000  0.000  0.000  0.000
    occupations:
  0.851  0.000  0.020  0.016  0.000
  0.000  0.982  0.000  0.000 -0.002
  0.020  0.000  0.993 -0.002  0.000
  0.016  0.000 -0.002  0.983  0.000
  0.000 -0.002  0.000  0.000  0.679
   spin  2
    eigenvalues: 
  0.039  0.048  0.062  0.156  0.165
    eigenvectors:
  0.007  0.015  0.000  0.978  0.000
  0.000  0.000  1.000  0.000  0.000
  0.992  0.002  0.000  0.007  0.000
  0.001  0.984  0.000  0.015  0.000
  0.000  0.000  0.000  0.000  1.000
    occupations:
  0.154  0.000 -0.010 -0.013  0.000
  0.000  0.062  0.000  0.000  0.000
 -0.010  0.000  0.040  0.001  0.000
 -0.013  0.000  0.001  0.050  0.000
  0.000  0.000  0.000  0.000  0.165
atomic mag. moment =     4.018243
N of occupied +U levels =  39.1845405
 --- exit write_ns ---

     negative rho (up, down):  0.205E-02 0.103E-02

     total cpu time spent up to now is     2116.7 secs

     total energy              =   -2037.18230234 Ry
     Harris-Foulkes estimate   =   -2053.18852715 Ry
     estimated scf accuracy    <      26.98244223 Ry

     total magnetization       =    15.00 Bohr mag/cell
     absolute magnetization    =    47.38 Bohr mag/cell

     iteration #  2     ecut=    40.00 Ry     beta=0.70
     Davidson diagonalization with overlap
     ethr =  1.00E-02,  avg # of iterations =  6.0

     total cpu time spent up to now is     3039.6 secs

     total energy              =   -1885.71309946 Ry
     Harris-Foulkes estimate   =   -2201.63898157 Ry
     estimated scf accuracy    <    4873.56562806 Ry

     total magnetization       =    15.00 Bohr mag/cell
     absolute magnetization    =    16.49 Bohr mag/cell

     iteration #  3     ecut=    40.00 Ry     beta=0.70
     Davidson diagonalization with overlap
     ethr =  1.00E-02,  avg # of iterations =  4.2

     total cpu time spent up to now is     4060.6 secs

     total energy              =   -2043.86737280 Ry
     Harris-Foulkes estimate   =   -2070.28317697 Ry
     estimated scf accuracy    <     115.51359110 Ry

     total magnetization       =    15.00 Bohr mag/cell
     absolute magnetization    =    34.41 Bohr mag/cell

     iteration #  4     ecut=    40.00 Ry     beta=0.70
     Davidson diagonalization with overlap
     ethr =  1.00E-02,  avg # of iterations =  3.4

     negative rho (up, down):  0.203E-07 0.000E+00

     total cpu time spent up to now is     4662.4 secs

     total energy              =   -2048.64952241 Ry
     Harris-Foulkes estimate   =   -2061.32738732 Ry
     estimated scf accuracy    <     118.05778174 Ry

     total magnetization       =    15.00 Bohr mag/cell
     absolute magnetization    =    30.84 Bohr mag/cell

     iteration #  5     ecut=    40.00 Ry     beta=0.70
     Davidson diagonalization with overlap
     ethr =  1.00E-02,  avg # of iterations =  3.2

     total cpu time spent up to now is     5238.2 secs

     total energy              =   -2053.80641287 Ry
     Harris-Foulkes estimate   =   -2057.70316724 Ry
     estimated scf accuracy    <      30.04466647 Ry

     total magnetization       =    15.00 Bohr mag/cell
     absolute magnetization    =    37.01 Bohr mag/cell

     iteration #  6     ecut=    40.00 Ry     beta=0.70
     Davidson diagonalization with overlap
     ethr =  1.00E-02,  avg # of iterations =  1.8

     total cpu time spent up to now is     5760.5 secs

     total energy              =   -2055.20620439 Ry
     Harris-Foulkes estimate   =   -2055.95990675 Ry
     estimated scf accuracy    <       5.18281161 Ry

     total magnetization       =    15.00 Bohr mag/cell
     absolute magnetization    =    36.66 Bohr mag/cell

     iteration #  7     ecut=    40.00 Ry     beta=0.70
     Davidson diagonalization with overlap
     ethr =  2.19E-03,  avg # of iterations =  4.0

     total cpu time spent up to now is     6265.9 secs

     total energy              =   -2055.12836582 Ry
     Harris-Foulkes estimate   =   -2056.88326863 Ry
     estimated scf accuracy    <      10.16921414 Ry

     total magnetization       =    15.00 Bohr mag/cell
     absolute magnetization    =    38.82 Bohr mag/cell

     iteration #  8     ecut=    40.00 Ry     beta=0.70
     Davidson diagonalization with overlap
     ethr =  2.19E-03,  avg # of iterations =  1.0

     total cpu time spent up to now is     6771.0 secs

     total energy              =   -2055.76679619 Ry
     Harris-Foulkes estimate   =   -2056.03038887 Ry
     estimated scf accuracy    <       1.38739460 Ry

     total magnetization       =    15.00 Bohr mag/cell
     absolute magnetization    =    35.93 Bohr mag/cell

     iteration #  9     ecut=    40.00 Ry     beta=0.70
     Davidson diagonalization with overlap
     ethr =  5.85E-04,  avg # of iterations =  4.8

     total cpu time spent up to now is     7314.7 secs

     total energy              =   -2055.88334772 Ry
     Harris-Foulkes estimate   =   -2056.06600156 Ry
     estimated scf accuracy    <       1.28103930 Ry

     total magnetization       =    15.00 Bohr mag/cell
     absolute magnetization    =    34.41 Bohr mag/cell

     iteration # 10     ecut=    40.00 Ry     beta=0.70
     Davidson diagonalization with overlap
     ethr =  5.41E-04,  avg # of iterations =  1.9

     total cpu time spent up to now is     7785.9 secs

     total energy              =   -2055.92985108 Ry
     Harris-Foulkes estimate   =   -2055.98754165 Ry
     estimated scf accuracy    <       0.50003880 Ry

     total magnetization       =    15.00 Bohr mag/cell
     absolute magnetization    =    34.99 Bohr mag/cell

     iteration # 11     ecut=    40.00 Ry     beta=0.70
     Davidson diagonalization with overlap
     ethr =  2.11E-04,  avg # of iterations =  5.8

     negative rho (up, down):  0.132E-06 0.000E+00

     total cpu time spent up to now is     8407.2 secs

     total energy              =   -2055.74128617 Ry
     Harris-Foulkes estimate   =   -2055.97063896 Ry
     estimated scf accuracy    <       0.43023331 Ry

     total magnetization       =    15.00 Bohr mag/cell
     absolute magnetization    =    34.49 Bohr mag/cell

     iteration # 12     ecut=    40.00 Ry     beta=0.70
     Davidson diagonalization with overlap
     ethr =  1.82E-04,  avg # of iterations =  7.0

     negative rho (up, down):  0.130E-05 0.334E-09

     total cpu time spent up to now is     9121.2 secs

     total energy              =   -2055.70129894 Ry
     Harris-Foulkes estimate   =   -2055.91859163 Ry
     estimated scf accuracy    <       1.03835432 Ry

     total magnetization       =    15.00 Bohr mag/cell
     absolute magnetization    =    33.01 Bohr mag/cell

     iteration # 13     ecut=    40.00 Ry     beta=0.70
     Davidson diagonalization with overlap
     ethr =  1.82E-04,  avg # of iterations =  4.4

     negative rho (up, down):  0.127E-04 0.584E-08

     total cpu time spent up to now is     9669.6 secs

     total energy              =   -2055.72102287 Ry
     Harris-Foulkes estimate   =   -2055.93863098 Ry
     estimated scf accuracy    <       1.30627608 Ry

     total magnetization       =    15.00 Bohr mag/cell
     absolute magnetization    =    34.10 Bohr mag/cell

     iteration # 14     ecut=    40.00 Ry     beta=0.70
     Davidson diagonalization with overlap
     ethr =  1.82E-04,  avg # of iterations =  4.3

     negative rho (up, down):  0.275E-03 0.711E-06

     total cpu time spent up to now is    10221.2 secs

     total energy              =   -2055.78918054 Ry
     Harris-Foulkes estimate   =   -2055.92001904 Ry
     estimated scf accuracy    <       1.31104651 Ry

     total magnetization       =    15.00 Bohr mag/cell
     absolute magnetization    =    33.49 Bohr mag/cell

     iteration # 15     ecut=    40.00 Ry     beta=0.70
     Davidson diagonalization with overlap
     ethr =  1.82E-04,  avg # of iterations =  3.6

     negative rho (up, down):  0.193E-02 0.755E-04

     total cpu time spent up to now is    10771.4 secs

     total energy              =   -2055.83030302 Ry
     Harris-Foulkes estimate   =   -2055.84370372 Ry
     estimated scf accuracy    <       0.04795430 Ry

     total magnetization       =    15.00 Bohr mag/cell
     absolute magnetization    =    33.06 Bohr mag/cell

     iteration # 16     ecut=    40.00 Ry     beta=0.70
     Davidson diagonalization with overlap
     ethr =  2.02E-05,  avg # of iterations =  4.8

     negative rho (up, down):  0.216E-02 0.101E-03

     total cpu time spent up to now is    11325.5 secs

     total energy              =   -2055.83055369 Ry
     Harris-Foulkes estimate   =   -2055.85055589 Ry
     estimated scf accuracy    <       0.18389467 Ry

     total magnetization       =    15.00 Bohr mag/cell
     absolute magnetization    =    33.04 Bohr mag/cell

     iteration # 17     ecut=    40.00 Ry     beta=0.70
     Davidson diagonalization with overlap
     ethr =  2.02E-05,  avg # of iterations =  4.0

     negative rho (up, down):  0.403E-02 0.666E-03

     total cpu time spent up to now is    11861.9 secs

     total energy              =   -2055.83268232 Ry
     Harris-Foulkes estimate   =   -2055.84609591 Ry
     estimated scf accuracy    <       0.07892959 Ry

     total magnetization       =    15.00 Bohr mag/cell
     absolute magnetization    =    32.91 Bohr mag/cell

     iteration # 18     ecut=    40.00 Ry     beta=0.70
     Davidson diagonalization with overlap
     ethr =  2.02E-05,  avg # of iterations =  1.3

     negative rho (up, down):  0.428E-02 0.791E-03

     total cpu time spent up to now is    12351.5 secs

     total energy              =   -2055.83686695 Ry
     Harris-Foulkes estimate   =   -2055.84249548 Ry
     estimated scf accuracy    <       0.03380852 Ry

     total magnetization       =    15.00 Bohr mag/cell
     absolute magnetization    =    33.04 Bohr mag/cell

     iteration # 19     ecut=    40.00 Ry     beta=0.70
     Davidson diagonalization with overlap
     ethr =  1.43E-05,  avg # of iterations =  1.0

     negative rho (up, down):  0.345E-02 0.423E-03

     total cpu time spent up to now is    12710.7 secs

     total energy              =   -2055.83679701 Ry
     Harris-Foulkes estimate   =   -2055.84192188 Ry
     estimated scf accuracy    <       0.03112169 Ry

     total magnetization       =    15.00 Bohr mag/cell
     absolute magnetization    =    33.09 Bohr mag/cell

     iteration # 20     ecut=    40.00 Ry     beta=0.70
     Davidson diagonalization with overlap
     ethr =  1.31E-05,  avg # of iterations =  1.0

     negative rho (up, down):  0.413E-02 0.721E-03

     total cpu time spent up to now is    13015.4 secs

     total energy              =   -2055.83747518 Ry
     Harris-Foulkes estimate   =   -2055.84264744 Ry
     estimated scf accuracy    <       0.05337938 Ry

     total magnetization       =    15.00 Bohr mag/cell
     absolute magnetization    =    32.97 Bohr mag/cell

     iteration # 21     ecut=    40.00 Ry     beta=0.70
     Davidson diagonalization with overlap
     ethr =  1.31E-05,  avg # of iterations =  1.0

     negative rho (up, down):  0.525E-02 0.139E-02

     total cpu time spent up to now is    13317.6 secs

     total energy              =   -2055.83968040 Ry
     Harris-Foulkes estimate   =   -2055.84070783 Ry
     estimated scf accuracy    <       0.01237016 Ry

     total magnetization       =    15.00 Bohr mag/cell
     absolute magnetization    =    32.97 Bohr mag/cell

     iteration # 22     ecut=    40.00 Ry     beta=0.70
     Davidson diagonalization with overlap
     ethr =  5.22E-06,  avg # of iterations =  2.8

     negative rho (up, down):  0.491E-02 0.116E-02

     total cpu time spent up to now is    13673.9 secs

     total energy              =   -2055.83979617 Ry
     Harris-Foulkes estimate   =   -2055.84059245 Ry
     estimated scf accuracy    <       0.00556590 Ry

     total magnetization       =    15.00 Bohr mag/cell
     absolute magnetization    =    32.89 Bohr mag/cell

     iteration # 23     ecut=    40.00 Ry     beta=0.70
     Davidson diagonalization with overlap
     ethr =  2.35E-06,  avg # of iterations =  5.6

     negative rho (up, down):  0.519E-02 0.135E-02

     total cpu time spent up to now is    14044.4 secs

     total energy              =   -2055.83983307 Ry
     Harris-Foulkes estimate   =   -2055.84063292 Ry
     estimated scf accuracy    <       0.00732250 Ry

     total magnetization       =    15.00 Bohr mag/cell
     absolute magnetization    =    32.91 Bohr mag/cell

     iteration # 24     ecut=    40.00 Ry     beta=0.70
     Davidson diagonalization with overlap
     ethr =  2.35E-06,  avg # of iterations =  1.1

     negative rho (up, down):  0.532E-02 0.143E-02

     total cpu time spent up to now is    14352.5 secs

     total energy              =   -2055.84019960 Ry
     Harris-Foulkes estimate   =   -2055.84036399 Ry
     estimated scf accuracy    <       0.00203873 Ry

     total magnetization       =    15.00 Bohr mag/cell
     absolute magnetization    =    32.96 Bohr mag/cell

     iteration # 25     ecut=    40.00 Ry     beta=0.70
     Davidson diagonalization with overlap
     ethr =  8.60E-07,  avg # of iterations =  1.0

     negative rho (up, down):  0.546E-02 0.153E-02

     total cpu time spent up to now is    14656.4 secs

     total energy              =   -2055.84022341 Ry
     Harris-Foulkes estimate   =   -2055.84039063 Ry
     estimated scf accuracy    <       0.00226325 Ry

     total magnetization       =    15.00 Bohr mag/cell
     absolute magnetization    =    32.94 Bohr mag/cell

     iteration # 26     ecut=    40.00 Ry     beta=0.70
     Davidson diagonalization with overlap
     ethr =  8.60E-07,  avg # of iterations =  1.0

     negative rho (up, down):  0.545E-02 0.152E-02

     total cpu time spent up to now is    14965.5 secs

     total energy              =   -2055.84018622 Ry
     Harris-Foulkes estimate   =   -2055.84048070 Ry
     estimated scf accuracy    <       0.00169863 Ry

     total magnetization       =    15.00 Bohr mag/cell
     absolute magnetization    =    32.93 Bohr mag/cell

     iteration # 27     ecut=    40.00 Ry     beta=0.70
     Davidson diagonalization with overlap
     ethr =  7.17E-07,  avg # of iterations =  1.0

     negative rho (up, down):  0.550E-02 0.155E-02

     total cpu time spent up to now is    15273.0 secs

     total energy              =   -2055.84032490 Ry
     Harris-Foulkes estimate   =   -2055.84037018 Ry
     estimated scf accuracy    <       0.00073768 Ry

     total magnetization       =    15.00 Bohr mag/cell
     absolute magnetization    =    32.92 Bohr mag/cell

     iteration # 28     ecut=    40.00 Ry     beta=0.70
     Davidson diagonalization with overlap
     ethr =  3.11E-07,  avg # of iterations =  1.0

     negative rho (up, down):  0.559E-02 0.162E-02

     total cpu time spent up to now is    15581.6 secs

     total energy              =   -2055.84035234 Ry
     Harris-Foulkes estimate   =   -2055.84037681 Ry
     estimated scf accuracy    <       0.00035255 Ry

     total magnetization       =    15.00 Bohr mag/cell
     absolute magnetization    =    32.91 Bohr mag/cell

     iteration # 29     ecut=    40.00 Ry     beta=0.70
     Davidson diagonalization with overlap
     ethr =  1.49E-07,  avg # of iterations =  1.0

     negative rho (up, down):  0.559E-02 0.162E-02

     total cpu time spent up to now is    15892.6 secs

     total energy              =   -2055.84036285 Ry
     Harris-Foulkes estimate   =   -2055.84040031 Ry
     estimated scf accuracy    <       0.00031860 Ry

     total magnetization       =    15.00 Bohr mag/cell
     absolute magnetization    =    32.90 Bohr mag/cell

     iteration # 30     ecut=    40.00 Ry     beta=0.70
     Davidson diagonalization with overlap
     ethr =  1.34E-07,  avg # of iterations =  1.0

     negative rho (up, down):  0.560E-02 0.162E-02

     total cpu time spent up to now is    16203.8 secs

     total energy              =   -2055.84034676 Ry
     Harris-Foulkes estimate   =   -2055.84039942 Ry
     estimated scf accuracy    <       0.00039494 Ry

     total magnetization       =    15.00 Bohr mag/cell
     absolute magnetization    =    32.91 Bohr mag/cell

     iteration # 31     ecut=    40.00 Ry     beta=0.70
     Davidson diagonalization with overlap
     ethr =  1.34E-07,  avg # of iterations =  2.0

     negative rho (up, down):  0.560E-02 0.161E-02

     total cpu time spent up to now is    16527.9 secs

     total energy              =   -2055.84013993 Ry
     Harris-Foulkes estimate   =   -2055.84064895 Ry
     estimated scf accuracy    <       0.00506605 Ry

     total magnetization       =    15.00 Bohr mag/cell
     absolute magnetization    =    32.90 Bohr mag/cell

     iteration # 32     ecut=    40.00 Ry     beta=0.70
     Davidson diagonalization with overlap
     ethr =  1.34E-07,  avg # of iterations =  1.9

     negative rho (up, down):  0.559E-02 0.162E-02

     total cpu time spent up to now is    16852.3 secs

     total energy              =   -2055.84039152 Ry
     Harris-Foulkes estimate   =   -2055.84039941 Ry
     estimated scf accuracy    <       0.00011871 Ry

     total magnetization       =    15.00 Bohr mag/cell
     absolute magnetization    =    32.90 Bohr mag/cell

     iteration # 33     ecut=    40.00 Ry     beta=0.70
     Davidson diagonalization with overlap
     ethr =  5.01E-08,  avg # of iterations =  1.0

     negative rho (up, down):  0.559E-02 0.161E-02

     total cpu time spent up to now is    17163.4 secs

     total energy              =   -2055.84037860 Ry
     Harris-Foulkes estimate   =   -2055.84040891 Ry
     estimated scf accuracy    <       0.00017330 Ry

     total magnetization       =    15.00 Bohr mag/cell
     absolute magnetization    =    32.89 Bohr mag/cell

     iteration # 34     ecut=    40.00 Ry     beta=0.70
     Davidson diagonalization with overlap
     ethr =  5.01E-08,  avg # of iterations =  1.0

     negative rho (up, down):  0.558E-02 0.161E-02

     total cpu time spent up to now is    17473.8 secs

     total energy              =   -2055.84035200 Ry
     Harris-Foulkes estimate   =   -2055.84043552 Ry
     estimated scf accuracy    <       0.00122075 Ry

     total magnetization       =    15.00 Bohr mag/cell
     absolute magnetization    =    32.88 Bohr mag/cell

     iteration # 35     ecut=    40.00 Ry     beta=0.70
     Davidson diagonalization with overlap
     ethr =  5.01E-08,  avg # of iterations =  1.0

     negative rho (up, down):  0.559E-02 0.162E-02

     total cpu time spent up to now is    17783.9 secs

     total energy              =   -2055.84039037 Ry
     Harris-Foulkes estimate   =   -2055.84041057 Ry
     estimated scf accuracy    <       0.00031668 Ry

     total magnetization       =    15.00 Bohr mag/cell
     absolute magnetization    =    32.90 Bohr mag/cell

     iteration # 36     ecut=    40.00 Ry     beta=0.70
     Davidson diagonalization with overlap
     ethr =  5.01E-08,  avg # of iterations =  1.0

     negative rho (up, down):  0.559E-02 0.161E-02

     total cpu time spent up to now is    18092.8 secs

     total energy              =   -2055.84039730 Ry
     Harris-Foulkes estimate   =   -2055.84041089 Ry
     estimated scf accuracy    <       0.00006544 Ry

     total magnetization       =    15.00 Bohr mag/cell
     absolute magnetization    =    32.88 Bohr mag/cell

     iteration # 37     ecut=    40.00 Ry     beta=0.70
     Davidson diagonalization with overlap
     ethr =  2.76E-08,  avg # of iterations =  1.0

     negative rho (up, down):  0.559E-02 0.161E-02

     total cpu time spent up to now is    18401.1 secs

     total energy              =   -2055.84039672 Ry
     Harris-Foulkes estimate   =   -2055.84041083 Ry
     estimated scf accuracy    <       0.00016400 Ry

     total magnetization       =    15.00 Bohr mag/cell
     absolute magnetization    =    32.89 Bohr mag/cell

     iteration # 38     ecut=    40.00 Ry     beta=0.70
     Davidson diagonalization with overlap
     ethr =  2.76E-08,  avg # of iterations =  1.0

     negative rho (up, down):  0.559E-02 0.161E-02

     total cpu time spent up to now is    18712.8 secs

     total energy              =   -2055.84040366 Ry
     Harris-Foulkes estimate   =   -2055.84040633 Ry
     estimated scf accuracy    <       0.00002907 Ry

     total magnetization       =    15.00 Bohr mag/cell
     absolute magnetization    =    32.89 Bohr mag/cell

     iteration # 39     ecut=    40.00 Ry     beta=0.70
     Davidson diagonalization with overlap
     ethr =  1.23E-08,  avg # of iterations =  1.0

     negative rho (up, down):  0.559E-02 0.161E-02

     total cpu time spent up to now is    19022.1 secs

     total energy              =   -2055.84040533 Ry
     Harris-Foulkes estimate   =   -2055.84040681 Ry
     estimated scf accuracy    <       0.00001632 Ry

     total magnetization       =    15.00 Bohr mag/cell
     absolute magnetization    =    32.89 Bohr mag/cell

     iteration # 40     ecut=    40.00 Ry     beta=0.70
     Davidson diagonalization with overlap
     ethr =  6.89E-09,  avg # of iterations =  1.0

     negative rho (up, down):  0.559E-02 0.161E-02

     total cpu time spent up to now is    19331.6 secs

     total energy              =   -2055.84040763 Ry
     Harris-Foulkes estimate   =   -2055.84040826 Ry
     estimated scf accuracy    <       0.00004321 Ry

     total magnetization       =    15.00 Bohr mag/cell
     absolute magnetization    =    32.89 Bohr mag/cell

     iteration # 41     ecut=    40.00 Ry     beta=0.70
     Davidson diagonalization with overlap
     ethr =  6.89E-09,  avg # of iterations =  1.0

     negative rho (up, down):  0.559E-02 0.161E-02

     total cpu time spent up to now is    19638.7 secs

     total energy              =   -2055.84040631 Ry
     Harris-Foulkes estimate   =   -2055.84041205 Ry
     estimated scf accuracy    <       0.00001914 Ry

     total magnetization       =    15.00 Bohr mag/cell
     absolute magnetization    =    32.88 Bohr mag/cell

     iteration # 42     ecut=    40.00 Ry     beta=0.70
     Davidson diagonalization with overlap
     ethr =  6.89E-09,  avg # of iterations =  1.0

     negative rho (up, down):  0.559E-02 0.161E-02

     total cpu time spent up to now is    19946.3 secs

     total energy              =   -2055.84040472 Ry
     Harris-Foulkes estimate   =   -2055.84041371 Ry
     estimated scf accuracy    <       0.00010385 Ry

     total magnetization       =    15.00 Bohr mag/cell
     absolute magnetization    =    32.88 Bohr mag/cell

     iteration # 43     ecut=    40.00 Ry     beta=0.70
     Davidson diagonalization with overlap
     ethr =  6.89E-09,  avg # of iterations =  1.0

     negative rho (up, down):  0.559E-02 0.161E-02

     total cpu time spent up to now is    20254.8 secs

     total energy              =   -2055.84040990 Ry
     Harris-Foulkes estimate   =   -2055.84041006 Ry
     estimated scf accuracy    <       0.00001033 Ry

     total magnetization       =    15.00 Bohr mag/cell
     absolute magnetization    =    32.88 Bohr mag/cell

     iteration # 44     ecut=    40.00 Ry     beta=0.70
     Davidson diagonalization with overlap
     ethr =  4.36E-09,  avg # of iterations =  1.0

     negative rho (up, down):  0.559E-02 0.161E-02

     total cpu time spent up to now is    20564.3 secs

     total energy              =   -2055.84040934 Ry
     Harris-Foulkes estimate   =   -2055.84041254 Ry
     estimated scf accuracy    <       0.00003542 Ry

     total magnetization       =    15.00 Bohr mag/cell
     absolute magnetization    =    32.88 Bohr mag/cell

     iteration # 45     ecut=    40.00 Ry     beta=0.70
     Davidson diagonalization with overlap
     ethr =  4.36E-09,  avg # of iterations =  1.0

     negative rho (up, down):  0.559E-02 0.161E-02

     total cpu time spent up to now is    20873.0 secs

     total energy              =   -2055.84040793 Ry
     Harris-Foulkes estimate   =   -2055.84041425 Ry
     estimated scf accuracy    <       0.00008369 Ry

     total magnetization       =    15.00 Bohr mag/cell
     absolute magnetization    =    32.88 Bohr mag/cell

     iteration # 46     ecut=    40.00 Ry     beta=0.70
     Davidson diagonalization with overlap
     ethr =  4.36E-09,  avg # of iterations =  1.0

     negative rho (up, down):  0.559E-02 0.161E-02

     total cpu time spent up to now is    21181.3 secs

     total energy              =   -2055.84041035 Ry
     Harris-Foulkes estimate   =   -2055.84041253 Ry
     estimated scf accuracy    <       0.00002153 Ry

     total magnetization       =    15.00 Bohr mag/cell
     absolute magnetization    =    32.88 Bohr mag/cell

     iteration # 47     ecut=    40.00 Ry     beta=0.70
     Davidson diagonalization with overlap
     ethr =  4.36E-09,  avg # of iterations =  1.0

     negative rho (up, down):  0.559E-02 0.161E-02

     total cpu time spent up to now is    21490.9 secs

     total energy              =   -2055.84040954 Ry
     Harris-Foulkes estimate   =   -2055.84041257 Ry
     estimated scf accuracy    <       0.00002246 Ry

     total magnetization       =    15.00 Bohr mag/cell
     absolute magnetization    =    32.88 Bohr mag/cell

     iteration # 48     ecut=    40.00 Ry     beta=0.70
     Davidson diagonalization with overlap
     ethr =  4.36E-09,  avg # of iterations =  1.0

     negative rho (up, down):  0.559E-02 0.161E-02

     total cpu time spent up to now is    21799.4 secs

     total energy              =   -2055.84041070 Ry
     Harris-Foulkes estimate   =   -2055.84041180 Ry
     estimated scf accuracy    <       0.00001326 Ry

     total magnetization       =    15.00 Bohr mag/cell
     absolute magnetization    =    32.88 Bohr mag/cell

     iteration # 49     ecut=    40.00 Ry     beta=0.70
     Davidson diagonalization with overlap
     ethr =  4.36E-09,  avg # of iterations =  1.0

     negative rho (up, down):  0.559E-02 0.161E-02

     total cpu time spent up to now is    22108.0 secs

     total energy              =   -2055.84041133 Ry
     Harris-Foulkes estimate   =   -2055.84041189 Ry
     estimated scf accuracy    <       0.00000376 Ry

     total magnetization       =    15.00 Bohr mag/cell
     absolute magnetization    =    32.88 Bohr mag/cell

     iteration # 50     ecut=    40.00 Ry     beta=0.70
     Davidson diagonalization with overlap
     ethr =  1.58E-09,  avg # of iterations =  1.0

     negative rho (up, down):  0.559E-02 0.161E-02

     total cpu time spent up to now is    22417.2 secs

     total energy              =   -2055.84041174 Ry
     Harris-Foulkes estimate   =   -2055.84041193 Ry
     estimated scf accuracy    <       0.00000951 Ry

     total magnetization       =    15.00 Bohr mag/cell
     absolute magnetization    =    32.88 Bohr mag/cell

     iteration # 51     ecut=    40.00 Ry     beta=0.70
     Davidson diagonalization with overlap
     ethr =  1.58E-09,  avg # of iterations =  1.0

     negative rho (up, down):  0.559E-02 0.161E-02

     total cpu time spent up to now is    22726.4 secs

     total energy              =   -2055.84041201 Ry
     Harris-Foulkes estimate   =   -2055.84041223 Ry
     estimated scf accuracy    <       0.00000102 Ry

     total magnetization       =    15.00 Bohr mag/cell
     absolute magnetization    =    32.88 Bohr mag/cell

     iteration # 52     ecut=    40.00 Ry     beta=0.70
     Davidson diagonalization with overlap
     ethr =  4.30E-10,  avg # of iterations =  1.1

     negative rho (up, down):  0.559E-02 0.161E-02

     total cpu time spent up to now is    23038.5 secs

     total energy              =   -2055.84041141 Ry
     Harris-Foulkes estimate   =   -2055.84041259 Ry
     estimated scf accuracy    <       0.00000955 Ry

     total magnetization       =    15.00 Bohr mag/cell
     absolute magnetization    =    32.88 Bohr mag/cell

     iteration # 53     ecut=    40.00 Ry     beta=0.70
     Davidson diagonalization with overlap
     ethr =  4.30E-10,  avg # of iterations =  1.9

     negative rho (up, down):  0.559E-02 0.161E-02

     total cpu time spent up to now is    23362.7 secs

     total energy              =   -2055.84041182 Ry
     Harris-Foulkes estimate   =   -2055.84041229 Ry
     estimated scf accuracy    <       0.00000510 Ry

     total magnetization       =    15.00 Bohr mag/cell
     absolute magnetization    =    32.88 Bohr mag/cell

     iteration # 54     ecut=    40.00 Ry     beta=0.70
     Davidson diagonalization with overlap
     ethr =  4.30E-10,  avg # of iterations =  1.0

     negative rho (up, down):  0.559E-02 0.161E-02

     total cpu time spent up to now is    23675.8 secs

     total energy              =   -2055.84041213 Ry
     Harris-Foulkes estimate   =   -2055.84041231 Ry
     estimated scf accuracy    <       0.00000320 Ry

     total magnetization       =    15.00 Bohr mag/cell
     absolute magnetization    =    32.88 Bohr mag/cell

     iteration # 55     ecut=    40.00 Ry     beta=0.70
     Davidson diagonalization with overlap
     ethr =  4.30E-10,  avg # of iterations =  1.0

     negative rho (up, down):  0.559E-02 0.161E-02

     total cpu time spent up to now is    23991.1 secs

     total energy              =   -2055.84041210 Ry
     Harris-Foulkes estimate   =   -2055.84041256 Ry
     estimated scf accuracy    <       0.00000496 Ry

     total magnetization       =    15.00 Bohr mag/cell
     absolute magnetization    =    32.88 Bohr mag/cell

     iteration # 56     ecut=    40.00 Ry     beta=0.70
     Davidson diagonalization with overlap
     ethr =  4.30E-10,  avg # of iterations =  1.0

     negative rho (up, down):  0.559E-02 0.161E-02

     total cpu time spent up to now is    24307.5 secs

     total energy              =   -2055.84041227 Ry
     Harris-Foulkes estimate   =   -2055.84041246 Ry
     estimated scf accuracy    <       0.00000297 Ry

     total magnetization       =    15.00 Bohr mag/cell
     absolute magnetization    =    32.88 Bohr mag/cell

     iteration # 57     ecut=    40.00 Ry     beta=0.70
     Davidson diagonalization with overlap
     ethr =  4.30E-10,  avg # of iterations =  1.0

     negative rho (up, down):  0.559E-02 0.161E-02

     total cpu time spent up to now is    24623.1 secs

     total energy              =   -2055.84041228 Ry
     Harris-Foulkes estimate   =   -2055.84041250 Ry
     estimated scf accuracy    <       0.00000191 Ry

     total magnetization       =    15.00 Bohr mag/cell
     absolute magnetization    =    32.88 Bohr mag/cell

     iteration # 58     ecut=    40.00 Ry     beta=0.70
     Davidson diagonalization with overlap
     ethr =  4.30E-10,  avg # of iterations =  1.0

     negative rho (up, down):  0.560E-02 0.161E-02

     total cpu time spent up to now is    24939.3 secs

     total energy              =   -2055.84041223 Ry
     Harris-Foulkes estimate   =   -2055.84041255 Ry
     estimated scf accuracy    <       0.00000286 Ry

     total magnetization       =    15.00 Bohr mag/cell
     absolute magnetization    =    32.88 Bohr mag/cell

     iteration # 59     ecut=    40.00 Ry     beta=0.70
     Davidson diagonalization with overlap
     ethr =  4.30E-10,  avg # of iterations =  1.0

     negative rho (up, down):  0.559E-02 0.161E-02

     total cpu time spent up to now is    25253.6 secs

     total energy              =   -2055.84041226 Ry
     Harris-Foulkes estimate   =   -2055.84041247 Ry
     estimated scf accuracy    <       0.00000112 Ry

     total magnetization       =    15.00 Bohr mag/cell
     absolute magnetization    =    32.88 Bohr mag/cell

     iteration # 60     ecut=    40.00 Ry     beta=0.70
     Davidson diagonalization with overlap
     ethr =  4.30E-10,  avg # of iterations =  1.0

     negative rho (up, down):  0.559E-02 0.161E-02

     total cpu time spent up to now is    25569.1 secs

     total energy              =   -2055.84041229 Ry
     Harris-Foulkes estimate   =   -2055.84041251 Ry
     estimated scf accuracy    <       0.00000507 Ry

     total magnetization       =    15.00 Bohr mag/cell
     absolute magnetization    =    32.88 Bohr mag/cell

     iteration # 61     ecut=    40.00 Ry     beta=0.70
     Davidson diagonalization with overlap
     ethr =  4.30E-10,  avg # of iterations =  1.0

     negative rho (up, down):  0.560E-02 0.161E-02

     total cpu time spent up to now is    25880.6 secs

     End of self-consistent calculation
 --- enter write_ns ---
 LDA+U parameters:
U( 2)     =  7.00000000
alpha( 2) =  0.00000000
atom    3   Tr[ns(na)] (up, down, total) =   3.75752  0.78499  4.54250
   spin  1
    eigenvalues: 
  0.446  0.497  0.861  0.960  0.993
    eigenvectors:
  0.000  0.251  0.001  0.000  0.748
  0.999  0.001  0.000  0.000  0.000
  0.000  0.000  0.998  0.002  0.001
  0.001  0.748  0.000  0.000  0.252
  0.000  0.000  0.002  0.998  0.000
    occupations:
  0.868  0.001  0.001 -0.215 -0.001
  0.001  0.447  0.000 -0.002 -0.005
  0.001  0.000  0.861 -0.004  0.004
 -0.215 -0.002 -0.004  0.622 -0.001
 -0.001 -0.005  0.004 -0.001  0.960
   spin  2
    eigenvalues: 
  0.058  0.071  0.076  0.266  0.313
    eigenvectors:
  0.738  0.002  0.031  0.001  0.228
  0.000  0.001  0.000  0.996  0.002
  0.040  0.034  0.926  0.000  0.000
  0.222  0.000  0.006  0.001  0.770
  0.000  0.962  0.036  0.001  0.000
    occupations:
  0.117 -0.001 -0.001  0.107  0.000
 -0.001  0.266  0.000  0.003  0.007
 -0.001  0.000  0.075  0.005  0.001
  0.107  0.003  0.005  0.255  0.000
  0.000  0.007  0.001  0.000  0.072
atomic mag. moment =     2.972529
atom    4   Tr[ns(na)] (up, down, total) =   3.77568  0.77578  4.55147
   spin  1
    eigenvalues: 
  0.470  0.503  0.880  0.932  0.992
    eigenvectors:
  0.000  0.996  0.000  0.001  0.002
  0.000  0.001  0.008  0.990  0.000
  0.000  0.000  0.992  0.008  0.000
  0.000  0.002  0.000  0.000  0.998
  1.000  0.000  0.000  0.000  0.000
    occupations:
  0.504 -0.015 -0.001  0.022  0.001
 -0.015  0.931  0.005  0.001  0.001
 -0.001  0.005  0.880  0.000  0.001
  0.022  0.001  0.000  0.991  0.000
  0.001  0.001  0.001  0.000  0.470
   spin  2
    eigenvalues: 
  0.066  0.067  0.070  0.273  0.300
    eigenvectors:
  0.002  0.007  0.000  0.991  0.000
  0.119  0.000  0.880  0.001  0.000
  0.731  0.171  0.099  0.000  0.000
  0.148  0.823  0.021  0.008  0.000
  0.000  0.000  0.000  0.000  1.000
    occupations:
  0.271  0.006  0.001 -0.019  0.000
  0.006  0.070 -0.001  0.000  0.000
  0.001 -0.001  0.066  0.000  0.000
 -0.019  0.000  0.000  0.068  0.000
  0.000  0.000  0.000  0.000  0.300
atomic mag. moment =     2.999902
atom    9   Tr[ns(na)] (up, down, total) =   3.76931  0.82213  4.59144
   spin  1
    eigenvalues: 
  0.508  0.525  0.819  0.923  0.994
    eigenvectors:
  0.000  0.220  0.000  0.000  0.780
  1.000  0.000  0.000  0.000  0.000
  0.000  0.000  0.986  0.014  0.000
  0.000  0.780  0.000  0.000  0.220
  0.000  0.000  0.014  0.986  0.000
    occupations:
  0.891 -0.001  0.002 -0.194 -0.001
 -0.001  0.508  0.000  0.001  0.001
  0.002  0.000  0.821  0.000 -0.012
 -0.194  0.001  0.000  0.628 -0.001
 -0.001  0.001 -0.012 -0.001  0.921
   spin  2
    eigenvalues: 
  0.068  0.077  0.078  0.281  0.319
    eigenvectors:
  0.798  0.000  0.000  0.000  0.201
  0.000  0.000  0.000  0.999  0.001
  0.000  0.002  0.997  0.000  0.000
  0.202  0.000  0.000  0.000  0.798
  0.000  0.998  0.002  0.000  0.000
    occupations:
  0.118  0.000  0.001  0.101  0.000
  0.000  0.281  0.000 -0.001  0.000
  0.001  0.000  0.078  0.002  0.000
  0.101 -0.001  0.002  0.268  0.000
  0.000  0.000  0.000  0.000  0.077
atomic mag. moment =     2.947183
atom   10   Tr[ns(na)] (up, down, total) =   3.81896  0.69679  4.51575
   spin  1
    eigenvalues: 
  0.480  0.490  0.917  0.939  0.992
    eigenvectors:
  0.000  0.998  0.000  0.000  0.002
  0.000  0.000  0.000  1.000  0.000
  0.000  0.000  1.000  0.000  0.000
  0.000  0.002  0.000  0.000  0.998
  1.000  0.000  0.000  0.000  0.000
    occupations:
  0.491  0.000 -0.006  0.023  0.000
  0.000  0.939  0.000  0.000 -0.004
 -0.006  0.000  0.917  0.001  0.001
  0.023  0.000  0.001  0.991  0.000
  0.000 -0.004  0.001  0.000  0.480
   spin  2
    eigenvalues: 
  0.063  0.072  0.080  0.195  0.288
    eigenvectors:
  0.015  0.000  0.000  0.985  0.000
  0.000  0.000  1.000  0.000  0.000
  0.001  0.999  0.000  0.000  0.000
  0.984  0.001  0.000  0.015  0.000
  0.000  0.000  0.000  0.000  1.000
    occupations:
  0.193  0.000  0.000 -0.016  0.000
  0.000  0.080  0.000  0.000  0.003
  0.000  0.000  0.072  0.000  0.000
 -0.016  0.000  0.000  0.065  0.000
  0.000  0.003  0.000  0.000  0.288
atomic mag. moment =     3.122166
atom   16   Tr[ns(na)] (up, down, total) =   3.75744  0.78502  4.54246
   spin  1
    eigenvalues: 
  0.446  0.498  0.861  0.960  0.993
    eigenvectors:
  0.000  0.251  0.001  0.000  0.748
  0.999  0.001  0.000  0.000  0.000
  0.000  0.000  0.999  0.000  0.001
  0.000  0.748  0.000  0.000  0.252
  0.000  0.000  0.000  1.000  0.000
    occupations:
  0.868 -0.001  0.001 -0.215  0.000
 -0.001  0.446  0.000  0.002 -0.005
  0.001  0.000  0.861 -0.004  0.000
 -0.215  0.002 -0.004  0.622  0.000
  0.000 -0.005  0.000  0.000  0.960
   spin  2
    eigenvalues: 
  0.058  0.071  0.076  0.266  0.314
    eigenvectors:
  0.738  0.002  0.031  0.001  0.228
  0.000  0.001  0.000  0.996  0.002
  0.040  0.032  0.928  0.000  0.000
  0.222  0.000  0.006  0.002  0.769
  0.000  0.964  0.034  0.001  0.000
    occupations:
  0.117  0.001 -0.001  0.107  0.000
  0.001  0.266  0.000 -0.003  0.007
 -0.001  0.000  0.075  0.005 -0.001
  0.107 -0.003  0.005  0.255  0.000
  0.000  0.007 -0.001  0.000  0.072
atomic mag. moment =     2.972414
atom   17   Tr[ns(na)] (up, down, total) =   3.77793  0.77168  4.54961
   spin  1
    eigenvalues: 
  0.468  0.499  0.888  0.931  0.991
    eigenvectors:
  0.000  0.997  0.000  0.001  0.002
  0.000  0.001  0.009  0.990  0.000
  0.000  0.000  0.991  0.009  0.000
  0.000  0.002  0.000  0.000  0.998
  1.000  0.000  0.000  0.000  0.000
    occupations:
  0.501 -0.015 -0.001  0.022  0.000
 -0.015  0.931  0.004  0.001  0.000
 -0.001  0.004  0.888  0.000  0.002
  0.022  0.001  0.000  0.991  0.000
  0.000  0.000  0.002  0.000  0.468
   spin  2
    eigenvalues: 
  0.065  0.067  0.070  0.271  0.299
    eigenvectors:
  0.002  0.008  0.000  0.990  0.000
  0.115  0.003  0.881  0.001  0.000
  0.804  0.102  0.093  0.000  0.000
  0.079  0.887  0.025  0.008  0.000
  0.000  0.000  0.000  0.000  1.000
    occupations:
  0.269  0.006  0.001 -0.019  0.000
  0.006  0.069 -0.001  0.000  0.000
  0.001 -0.001  0.066  0.000  0.000
 -0.019  0.000  0.000  0.068  0.000
  0.000  0.000  0.000  0.000  0.299
atomic mag. moment =     3.006249
atom   22   Tr[ns(na)] (up, down, total) =   3.76893  0.82314  4.59207
   spin  1
    eigenvalues: 
  0.509  0.525  0.819  0.922  0.994
    eigenvectors:
  0.002  0.217  0.000  0.000  0.781
  0.991  0.009  0.000  0.000  0.000
  0.000  0.000  0.987  0.013  0.000
  0.007  0.774  0.000  0.000  0.219
  0.000  0.000  0.013  0.987  0.000
    occupations:
  0.891  0.002  0.001 -0.194  0.001
  0.002  0.509  0.002  0.001  0.001
  0.001  0.002  0.820  0.000  0.012
 -0.194  0.001  0.000  0.628  0.001
  0.001  0.001  0.012  0.001  0.921
   spin  2
    eigenvalues: 
  0.068  0.077  0.078  0.281  0.319
    eigenvectors:
  0.799  0.000  0.000  0.000  0.201
  0.000  0.000  0.000  1.000  0.000
  0.000  0.007  0.993  0.000  0.000
  0.201  0.000  0.000  0.000  0.799
  0.000  0.993  0.007  0.000  0.000
    occupations:
  0.118  0.000  0.001  0.101  0.000
  0.000  0.281  0.000  0.001  0.000
  0.001  0.000  0.078  0.002  0.000
  0.101  0.001  0.002  0.269  0.000
  0.000  0.000  0.000  0.000  0.077
atomic mag. moment =     2.945798
atom   23   Tr[ns(na)] (up, down, total) =   3.79414  0.72303  4.51717
   spin  1
    eigenvalues: 
  0.432  0.475  0.947  0.951  0.990
    eigenvectors:
  0.994  0.000  0.004  0.000  0.001
  0.000  0.000  0.000  0.999  0.000
  0.004  0.000  0.996  0.000  0.000
  0.001  0.000  0.000  0.000  0.999
  0.000  1.000  0.000  0.000  0.000
    occupations:
  0.435  0.001  0.034  0.021  0.000
  0.001  0.951  0.000  0.000 -0.011
  0.034  0.000  0.945 -0.001 -0.001
  0.021  0.000 -0.001  0.989  0.000
  0.000 -0.011 -0.001  0.000  0.475
   spin  2
    eigenvalues: 
  0.056  0.067  0.070  0.229  0.302
    eigenvectors:
  0.004  0.011  0.000  0.985  0.000
  0.000  0.000  1.000  0.000  0.000
  0.995  0.002  0.000  0.003  0.000
  0.002  0.987  0.000  0.012  0.000
  0.000  0.000  0.000  0.000  1.000
    occupations:
  0.226  0.000 -0.010 -0.017  0.000
  0.000  0.070  0.000  0.000  0.003
 -0.010  0.000  0.057  0.001  0.001
 -0.017  0.000  0.001  0.069  0.000
  0.000  0.003  0.001  0.000  0.301
atomic mag. moment =     3.071113
N of occupied +U levels =  36.4024683
 --- exit write_ns ---

 ------ SPIN UP ------------


          k = 0.0000 0.0000 0.0000 ( 27003 PWs)   bands (ev):

   -74.5617 -74.3816 -74.2762 -74.2626 -74.2389 -74.2372 -74.2221 -74.2125
   -46.0108 -45.8854 -45.7985 -45.7568 -45.6698 -45.6647 -45.6459 -45.6439
   -45.6438 -45.6303 -45.6245 -45.6241 -45.5806 -45.5739 -45.5562 -45.5503
   -45.5381 -45.5240 -45.5078 -45.5068 -45.4860 -45.4759 -45.4660 -45.4111
   -25.3682 -20.2279 -19.8949 -19.4669 -19.4500 -19.0144 -18.9794 -18.8481
   -18.6852 -18.6563 -18.5853 -18.5623 -18.5160 -18.4270 -18.3807 -18.1883
   -18.0086 -17.6027 -17.5539 -17.4719  -9.9224  -9.5160  -9.3669  -8.7231
    -8.5911  -8.5012  -8.2223  -8.2114  -8.1316  -8.0030  -7.9889  -7.4952
    -7.3745  -7.2454  -7.2274  -7.0995  -6.7455  -6.7307  -6.6755  -6.6092
    -6.4639  -6.1986  -6.1460  -6.0589  -6.0453  -5.8709  -5.8340  -5.6807
    -5.6418  -5.5677  -5.5218  -5.3981  -5.3328  -5.2688  -5.0175  -4.9060
    -4.8625  -4.8236  -4.7280  -4.6517  -4.6246  -4.5379  -4.3838  -4.3287
    -4.3011  -4.2936  -4.1989  -4.0672  -4.0523  -3.9869  -3.9579  -3.8553
    -3.7067  -3.6237  -3.5541  -3.4743  -3.3800  -3.3709  -3.2534  -3.2392
    -3.2069  -3.1333  -2.9934  -2.8192  -2.5213  -2.3672  -2.1180  -2.1090
    -2.0311  -1.9482  -1.7856  -1.7150  -1.6038  -1.5121  -1.4519  -1.3452
    -1.3379  -1.2906  -1.1576  -0.9309  -0.7251  -0.6634  -0.6322   0.0720
     0.7633   1.3000   1.3668   2.0019   2.0717   2.0799   2.2400   2.2984
     2.3424   2.3918   2.5159   2.5414   2.6660   2.8472   3.0786   3.1018
     3.5470   3.8904   4.1654   4.3813   4.9448   5.3913   5.9496   6.3709
     6.8086   7.0261   7.1135   7.1228   7.4565   7.4690   7.5666   7.6696
     7.7401   7.8793   7.9524   8.0588   8.0940   8.2456   8.3258   8.5708
     8.7364   8.7588   8.9124   9.0614   9.2701   9.2882   9.4352   9.5175
     9.6355   9.7541   9.8470   9.9282  10.0056  10.1348  10.1397  10.1553
    10.4008  10.5134  10.5216  10.7776  10.7977  10.8335  10.9140  11.1249
    11.2050  11.3006  11.3090  11.4550  11.5596  11.6013  11.6798  11.7104
    11.7577  11.8317  11.8798  11.9694  11.9757  12.0461  12.1871  12.3419
    12.3495  12.4846  12.5002  12.5221  12.7110  12.7203  12.7598  12.8822
    12.9043  12.9495  13.0069  13.1697  13.1987  13.3590  13.3854  13.5250
    13.5682  13.5922  13.6102  13.6559  13.7498  13.8993  14.0120  14.1071
    14.1956  14.2252  14.3452  14.3704  14.4407  14.4454  14.6092  14.7006
    14.7320  14.8734  14.9169  14.9641  15.1301  15.1714  15.2012  15.2570
    15.3401  15.3678  15.5079  15.5966  15.7384  15.8341  15.8467  16.0726
    16.2671  16.4056  16.4200  16.5283  16.5637  16.6777  16.6849  16.8184
    16.8642  17.0567  17.1742  17.2210  17.2892  17.3905  17.5181  17.5575
    17.6755  17.7641  17.8497  18.0306  18.1133  18.2043  18.2307  18.3169
    18.3859  18.4166  18.4936  18.6808  18.7625  18.8210  18.9196  18.9865
    19.1485  19.1715  19.2357  19.2602  19.4420  19.4611  19.4889  19.5641
    19.6261  19.7339  19.7662  19.7931  19.8996  20.0030  20.0681  20.1063
    20.1205  20.1785  20.3084  20.4048  20.4786  20.5450  20.5809  20.6387
    20.7799  20.9656  21.0201  21.0275  21.0795  21.1225  21.1573  21.2354
    21.3955  21.4136  21.4780  21.5180  21.5533  21.5863  21.6434  21.7431
    21.7675  21.8667  21.9404  22.0972  22.1679  22.1986  22.2594

          k = 0.0000 0.2341 0.0000 ( 27088 PWs)   bands (ev):

   -74.5617 -74.3816 -74.2760 -74.2626 -74.2390 -74.2371 -74.2221 -74.2125
   -46.0108 -45.8860 -45.7968 -45.7568 -45.6664 -45.6652 -45.6513 -45.6424
   -45.6417 -45.6364 -45.6248 -45.6167 -45.5806 -45.5732 -45.5561 -45.5508
   -45.5414 -45.5239 -45.5078 -45.5068 -45.4860 -45.4747 -45.4673 -45.4111
   -25.3681 -20.1239 -19.7726 -19.5231 -19.4451 -18.9924 -18.9807 -18.8860
   -18.8671 -18.6960 -18.6563 -18.6194 -18.5218 -18.4521 -18.2740 -18.1521
   -18.0228 -17.6108 -17.5729 -17.4334  -9.9031  -9.2795  -9.1452  -8.9069
    -8.6878  -8.6455  -8.5038  -8.2649  -8.1792  -7.9925  -7.8319  -7.1586
    -7.1128  -7.0438  -6.9686  -6.7202  -6.6636  -6.5319  -6.4998  -6.4609
    -6.3972  -6.3615  -6.2544  -6.1726  -6.0736  -5.9955  -5.7843  -5.7768
    -5.5554  -5.4969  -5.4835  -5.3952  -5.3685  -5.3416  -5.2825  -5.1193
    -5.0802  -5.0355  -4.9934  -4.9781  -4.9547  -4.7610  -4.5588  -4.5103
    -4.3822  -4.3056  -4.2086  -4.1916  -3.9893  -3.8592  -3.7340  -3.6732
    -3.6007  -3.5923  -3.5411  -3.4679  -3.3642  -3.2682  -3.1944  -3.0895
    -2.9842  -2.9320  -2.8516  -2.6221  -2.5118  -2.3840  -2.2609  -2.2249
    -2.0907  -2.0503  -2.0087  -1.9469  -1.8258  -1.5756  -1.4836  -1.4553
    -1.4241  -1.2153  -0.9911  -0.9135  -0.7833  -0.7486  -0.6723   0.2249
     0.9989   1.1867   1.3569   1.3793   1.5636   2.2148   2.2663   2.3249
     2.5315   2.6589   2.6655   2.6995   2.9642   3.0022   3.1127   3.2519
     3.7616   4.0930   4.1697   4.5857   5.1113   5.1926   5.6761   5.8559
     6.0949   6.4224   6.6287   6.9827   7.3291   7.3354   7.6563   7.8673
     7.8925   8.1294   8.1398   8.2508   8.3115   8.5028   8.6878   8.9182
     8.9717   9.0214   9.0843   9.2093   9.2898   9.2953   9.4315   9.6105
     9.6798   9.7069   9.7344   9.9490  10.0636  10.1373  10.2436  10.2785
    10.3069  10.4013  10.4656  10.5636  10.6005  10.7081  10.7628  10.8531
    10.8915  11.0127  11.1830  11.4016  11.4449  11.5458  11.5622  11.6352
    11.7546  11.7889  11.8801  11.9234  12.0020  12.0313  12.1680  12.5288
    12.5772  12.6132  12.6738  12.7441  12.8537  13.0291  13.0521  13.0802
    13.1285  13.3030  13.3456  13.4825  13.6096  13.6648  13.7333  13.8905
    13.9309  13.9458  13.9732  14.0791  14.1428  14.2032  14.2099  14.3464
    14.3617  14.3980  14.5285  14.6086  14.6329  14.6603  14.7424  14.8041
    14.9199  14.9398  15.0158  15.0696  15.2033  15.2159  15.2907  15.3309
    15.4054  15.4848  15.5675  15.6091  15.6744  15.7626  15.8917  15.9901
    16.0186  16.0448  16.0865  16.1569  16.2893  16.4559  16.4832  16.4950
    16.6007  16.6995  16.8251  16.9460  17.0126  17.1454  17.2211  17.2338
    17.3306  17.5199  17.5767  17.6246  17.7337  17.8211  17.9994  18.1676
    18.2153  18.3431  18.4039  18.4755  18.5777  18.6400  18.6813  18.7452
    18.7871  18.9399  19.0833  19.1731  19.2376  19.3113  19.4236  19.4299
    19.6086  19.6626  19.7098  19.7911  19.8122  19.9002  19.9783  20.0750
    20.0908  20.1748  20.2054  20.2725  20.3476  20.4207  20.4648  20.5081
    20.6410  20.6667  20.6911  20.7419  20.8104  20.8921  20.9585  21.0316
    21.1269  21.2044  21.2959  21.3472  21.3895  21.4444  21.5056  21.5774
    21.5981  21.6333  21.7076  21.7660  21.8101  21.9163  21.9380

          k = 0.0000-0.4682 0.0000 ( 27136 PWs)   bands (ev):

   -74.5617 -74.3817 -74.2759 -74.2626 -74.2390 -74.2370 -74.2221 -74.2126
   -46.0108 -45.8867 -45.7950 -45.7568 -45.6670 -45.6573 -45.6564 -45.6482
   -45.6395 -45.6371 -45.6252 -45.6116 -45.5804 -45.5727 -45.5561 -45.5521
   -45.5446 -45.5239 -45.5077 -45.5067 -45.4860 -45.4727 -45.4692 -45.4112
   -25.3680 -19.9659 -19.6542 -19.5418 -19.4401 -19.1875 -18.9817 -18.9061
   -18.8850 -18.8506 -18.6558 -18.6375 -18.4987 -18.4872 -18.2227 -18.1178
   -18.0438 -17.6275 -17.5740 -17.4058  -9.8791  -9.1070  -9.0022  -8.9206
    -8.8886  -8.6490  -8.5013  -8.3235  -8.1891  -8.0393  -7.4756  -7.0542
    -7.0036  -6.8607  -6.8309  -6.7710  -6.5862  -6.4960  -6.3509  -6.3419
    -6.2614  -6.0783  -6.0257  -6.0082  -5.9835  -5.9214  -5.9114  -5.8574
    -5.6800  -5.6693  -5.6318  -5.4966  -5.4863  -5.4334  -5.3743  -5.3235
    -5.3109  -5.2938  -5.1603  -5.0425  -4.9344  -4.7922  -4.7746  -4.6704
    -4.5878  -4.4920  -4.2756  -4.1821  -4.1468  -3.8232  -3.6823  -3.6128
    -3.5718  -3.5178  -3.5105  -3.4949  -3.4454  -3.2050  -3.0435  -2.9829
    -2.8510  -2.6341  -2.5583  -2.5232  -2.5094  -2.4729  -2.3992  -2.3404
    -2.0959  -2.0535  -2.0497  -1.9305  -1.8645  -1.6625  -1.5647  -1.5190
    -1.4503  -1.4451  -1.4408  -0.7991  -0.7807  -0.6768  -0.5784   0.3363
     0.8322   0.9963   1.2211   1.3901   1.6687   2.2664   2.2906   2.4869
     2.5722   2.6231   2.7177   2.7451   2.8202   2.9371   3.5439   3.6172
     3.8313   4.3443   4.4977   4.7288   4.8770   5.0615   5.3222   5.5480
     5.6932   6.1639   6.3627   6.9945   7.2000   7.5270   7.7040   7.7505
     8.1176   8.1971   8.4025   8.4891   8.5107   8.5189   8.5254   8.6545
     8.8734   8.9116   8.9799   9.0869   9.2230   9.3803   9.4745   9.5851
     9.6384   9.7006   9.7926   9.8704   9.9354  10.0279  10.2095  10.2690
    10.3069  10.5549  10.5781  10.6555  10.6958  10.8433  10.8858  11.0985
    11.1838  11.2773  11.3194  11.3527  11.3898  11.5016  11.5990  11.8939
    12.0019  12.0646  12.1245  12.1387  12.3154  12.3612  12.3912  12.4158
    12.5519  12.5935  12.7512  12.8579  12.9928  13.0101  13.1515  13.2152
    13.2499  13.4392  13.5690  13.5827  13.6187  13.6521  13.6868  13.7288
    13.7682  13.8736  13.9257  14.0240  14.0858  14.2019  14.2935  14.3792
    14.4738  14.6226  14.6403  14.6591  14.7521  14.8536  14.8808  14.8929
    15.0380  15.1211  15.1854  15.2261  15.3137  15.3466  15.3850  15.4610
    15.4691  15.5182  15.5365  15.6249  15.7306  15.8425  15.8823  16.0655
    16.0786  16.1813  16.2248  16.2555  16.4307  16.5586  16.6123  16.7394
    16.7867  16.8384  16.9251  16.9426  16.9853  17.0694  17.1171  17.1708
    17.2865  17.3958  17.4240  17.5165  17.6562  17.6845  17.7195  17.7869
    17.9887  18.0522  18.0762  18.2190  18.2342  18.3061  18.4276  18.4437
    18.4989  18.6588  18.7468  18.8052  18.9254  18.9414  18.9712  19.0177
    19.1592  19.2451  19.2917  19.3128  19.3657  19.4533  19.6121  19.6500
    19.7467  19.8457  19.9540  20.0786  20.0938  20.1233  20.1550  20.2915
    20.3707  20.4600  20.5605  20.5801  20.6256  20.6328  20.7836  20.8035
    21.0340  21.0809  21.1077  21.1659  21.1832  21.2547  21.3546  21.3712
    21.4220  21.5197  21.5594  21.5957  21.6940  21.8766  21.9429

          k = 0.2500 0.0000 0.0000 ( 27178 PWs)   bands (ev):

   -74.5611 -74.3813 -74.2736 -74.2640 -74.2373 -74.2349 -74.2234 -74.2130
   -46.0109 -45.8693 -45.7975 -45.7569 -45.6826 -45.6707 -45.6459 -45.6428
   -45.6287 -45.6274 -45.6199 -45.6034 -45.5767 -45.5599 -45.5530 -45.5492
   -45.5364 -45.5248 -45.5091 -45.5033 -45.4999 -45.4912 -45.4903 -45.4344
   -25.3682 -20.1045 -19.7799 -19.5371 -19.3990 -19.1547 -18.9958 -18.9508
   -18.6671 -18.6370 -18.6124 -18.5383 -18.5333 -18.4075 -18.3510 -18.1773
   -18.0457 -17.6147 -17.5869 -17.4726  -9.9193  -9.2469  -9.1125  -8.5284
    -8.4622  -8.2505  -8.1546  -8.0549  -7.9820  -7.8513  -7.8162  -7.6923
    -7.5798  -7.3860  -7.2173  -7.0588  -6.9957  -6.8876  -6.7811  -6.7442
    -6.5364  -6.4484  -6.2945  -6.1609  -6.0924  -6.0104  -5.8775  -5.8502
    -5.7135  -5.6280  -5.5241  -5.5067  -5.3145  -5.1511  -5.1350  -5.0485
    -4.9956  -4.9461  -4.8645  -4.8471  -4.8217  -4.5431  -4.4752  -4.4601
    -4.3601  -4.3342  -4.1940  -4.0371  -3.8406  -3.8016  -3.7751  -3.7444
    -3.6181  -3.5933  -3.5449  -3.3557  -3.3235  -3.2858  -3.2237  -3.0842
    -3.0525  -2.9548  -2.7832  -2.6910  -2.5339  -2.3794  -2.1077  -2.0445
    -2.0185  -1.8824  -1.7526  -1.6812  -1.6610  -1.4565  -1.4288  -1.4027
    -1.3173  -1.3107  -1.2328  -1.0338  -0.8147  -0.8095  -0.7507   0.1606
     0.8707   1.3139   1.4286   1.9764   2.0003   2.0717   2.1445   2.2157
     2.2884   2.3703   2.4165   2.6296   2.6413   2.7486   2.8459   3.0504
     3.8055   4.1642   4.2507   4.6697   4.9220   5.3192   5.9063   6.1458
     6.2978   6.4934   6.7138   6.9296   7.0783   7.3946   7.5176   7.7113
     7.7552   7.8321   7.9636   8.1477   8.2849   8.4161   8.5577   8.7068
     8.7509   8.9634   9.1052   9.2007   9.2960   9.4115   9.4552   9.6462
     9.7519   9.8224   9.9667   9.9963  10.0352  10.1454  10.2493  10.2621
    10.3406  10.4137  10.4382  10.5012  10.6129  10.7229  10.7685  10.8848
    10.9407  11.1258  11.2539  11.3792  11.4917  11.5441  11.5918  11.6825
    11.7228  11.8487  11.8797  11.9165  12.1061  12.1321  12.2254  12.4410
[...]
     atom   16 type  2   force =    -0.01641910    0.00271911    0.00030945
     atom   17 type  2   force =     0.00341733    0.00508046    0.00005296
     atom   18 type  1   force =     0.00097607    0.00641767   -0.00014143
     atom   19 type  1   force =    -0.00008418   -0.00496818   -0.00008496
     atom   20 type  1   force =    -0.00013651   -0.00498176    0.00080815
     atom   21 type  1   force =    -0.00119978    0.00070847   -0.00001807
     atom   22 type  2   force =     0.00190931    0.00101086    0.00059567
     atom   23 type  2   force =    -0.00010804   -0.00358315   -0.00130088
     atom   24 type  1   force =     0.02215500   -0.02720027   -0.00016454
     atom   25 type  1   force =     0.02020702    0.03281691    0.00032711
     atom   26 type  1   force =    -0.00000515   -0.00606910    0.00004825
     atom   27 type  3   force =     0.00003450   -0.00005360    0.00043156
     atom   28 type  3   force =     0.00003360    0.00011934    0.00035664
     atom   29 type  3   force =    -0.00037413    0.00017484   -0.00043805
     atom   30 type  3   force =    -0.00032722    0.00018138   -0.00036303
     atom   31 type  1   force =     0.00001024    0.00054250    0.00015439
     atom   32 type  1   force =     0.00005643    0.00059423    0.00001508
     atom   33 type  3   force =    -0.00002522    0.00091865   -0.00055639

     Total force =     0.002642     Total SCF correction =     0.000251

     number of scf cycles    =  17
     number of bfgs steps    =  16

     energy   old            =   -2055.8411178638 Ry
     energy   new            =   -2055.8411321594 Ry

     CASE: energy  _new < energy  _old

     new trust radius        =       0.0094053951 bohr
     new conv_thr            =       0.0000000100 Ry


ATOMIC_POSITIONS (crystal)
O0       0.000000000   0.000000000   0.373020042    0   0   1
O0       0.000000000   0.500000000   0.394365093    0   0   1
Cr1      0.250000000   0.500000000   0.447262072    0   0   1
Cr1      0.000000000   0.000000000   0.448778987    0   0   1
O0       0.250000000   0.800000000   0.447753215    0   0   1
O0       0.250000000   0.200000000   0.447769208    0   0   1
O0       0.000000000   0.500000000   0.496915820    0   0   1
O0       0.000000000   0.000000000   0.525436600    0   0   1
Cr1      0.250000000   0.000000000   0.577032145    0   0   1
Cr1      0.000000000   0.500000000   0.568192474    0   0   1
O0       0.250000000   0.700000000   0.577614528    0   0   1
O0       0.250000000   0.300000000   0.578574822    0   0   1
O0       0.000000000   0.000000000   0.626020159    0   0   1
O0       0.500000000   0.000000000   0.372709991    0   0   1
O0       0.500000000   0.500000000   0.394499696    0   0   1
Cr1      0.750000000   0.500000000   0.447259646    0   0   1
Cr1      0.500000000   0.000000000   0.448445912    0   0   1
O0       0.750000000   0.800000000   0.447772102    0   0   1
O0       0.750000000   0.200000000   0.447772809    0   0   1
O0       0.500000000   0.500000000   0.499197754    0   0   1
O0       0.500000000   0.000000000   0.525305186    0   0   1
Cr1      0.750000000   0.000000000   0.576878838    0   0   1
Cr1      0.500000000   0.500000000   0.576531714    0   0   1
O0       0.750000000   0.700000000   0.577532311    0   0   1
O0       0.750000000   0.300000000   0.578501119    0   0   1
O0       0.500000000   0.000000000   0.625658938    0   0   1
H2      -0.000828405   0.637228843   0.375107276
H2       0.499243960   0.637560873   0.375363163
H2       0.159990710   0.025784223   0.360943512
H2       0.659869140   0.026125821   0.360647394
O0       0.499860000   0.551762151   0.656301394    0   1   1
O0       0.500220000   0.366157543   0.685153083    0   1   1
H2       0.499890000   0.424259874   0.720443000    0   1   1


     Check: negative starting charge=(component1):   -0.001604
     NEW-OLD atomic charge density approx. for the potential

     Check: negative/imaginary core charge=   -0.000012    0.000000
     Check: negative starting charge=(component1):   -0.001603

     negative rho (up, down):  0.388E-02 0.280E-02
 Atomic wfc used for LDA+U Projector are NOT orthogonalized

     total cpu time spent up to now is   168257.7 secs

     per-process dynamical memory:   502.4 Mb

     Self-consistent Calculation

     iteration #  1     ecut=    40.00 Ry     beta=0.70
     Davidson diagonalization with overlap
     ethr =  1.00E-06,  avg # of iterations =  3.0
 --- enter write_ns ---
 LDA+U parameters:
U( 2)     =  7.00000000
alpha( 2) =  0.00000000
atom    3   Tr[ns(na)] (up, down, total) =   3.75829  0.78272  4.54101
   spin  1
    eigenvalues: 
  0.445  0.497  0.863  0.960  0.993
    eigenvectors:
  0.000  0.253  0.001  0.000  0.746
  0.999  0.001  0.000  0.000  0.000
  0.000  0.000  0.997  0.002  0.001
  0.001  0.746  0.000  0.000  0.253
  0.000  0.000  0.002  0.998  0.000
    occupations:
  0.867  0.001  0.001 -0.216 -0.001
  0.001  0.445 -0.001 -0.002 -0.005
  0.001 -0.001  0.864 -0.005  0.004
 -0.216 -0.002 -0.005  0.623 -0.001
 -0.001 -0.005  0.004 -0.001  0.960
   spin  2
    eigenvalues: 
  0.057  0.071  0.076  0.265  0.313
    eigenvectors:
  0.736  0.002  0.032  0.001  0.229
  0.000  0.001  0.000  0.996  0.002
  0.040  0.034  0.925  0.000  0.000
  0.224  0.000  0.006  0.001  0.768
  0.000  0.962  0.036  0.001  0.000
    occupations:
  0.117 -0.001 -0.001  0.107  0.000
 -0.001  0.265  0.000  0.003  0.007
 -0.001  0.000  0.075  0.005  0.001
  0.107  0.003  0.005  0.254  0.000
  0.000  0.007  0.001  0.000  0.072
atomic mag. moment =     2.975571
atom    4   Tr[ns(na)] (up, down, total) =   3.77653  0.77429  4.55082
   spin  1
    eigenvalues: 
  0.470  0.502  0.882  0.931  0.992
    eigenvectors:
  0.000  0.997  0.000  0.001  0.002
  0.000  0.001  0.007  0.992  0.000
  0.000  0.000  0.993  0.007  0.000
  0.000  0.002  0.000  0.000  0.998
  1.000  0.000  0.000  0.000  0.000
    occupations:
  0.504 -0.015 -0.001  0.022  0.000
 -0.015  0.930  0.004  0.002  0.000
 -0.001  0.004  0.882  0.000  0.001
  0.022  0.002  0.000  0.991  0.000
  0.000  0.000  0.001  0.000  0.470
   spin  2
    eigenvalues: 
  0.065  0.067  0.070  0.272  0.300
    eigenvectors:
  0.002  0.007  0.000  0.991  0.000
  0.104  0.002  0.893  0.001  0.000
  0.792  0.126  0.082  0.000  0.000
  0.102  0.864  0.025  0.008  0.000
  0.000  0.000  0.000  0.000  1.000
    occupations:
  0.270  0.006  0.001 -0.019  0.000
  0.006  0.070 -0.001  0.000  0.000
  0.001 -0.001  0.066  0.000  0.000
 -0.019  0.000  0.000  0.068  0.000
  0.000  0.000  0.000  0.000  0.300
atomic mag. moment =     3.002238
atom    9   Tr[ns(na)] (up, down, total) =   3.76706  0.82566  4.59272
   spin  1
    eigenvalues: 
  0.510  0.525  0.817  0.921  0.994
    eigenvectors:
  0.000  0.218  0.000  0.000  0.782
  0.999  0.001  0.000  0.000  0.000
  0.000  0.000  0.984  0.016  0.000
  0.001  0.781  0.000  0.000  0.218
  0.000  0.000  0.016  0.984  0.000
    occupations:
  0.892 -0.002  0.001 -0.194 -0.001
 -0.002  0.510  0.000  0.000  0.000
  0.001  0.000  0.819  0.000 -0.013
 -0.194  0.000  0.000  0.627  0.000
 -0.001  0.000 -0.013  0.000  0.920
   spin  2
    eigenvalues: 
  0.068  0.077  0.078  0.282  0.320
    eigenvectors:
  0.799  0.000  0.000  0.000  0.200
  0.000  0.000  0.000  0.999  0.001
  0.000  0.120  0.879  0.000  0.000
  0.200  0.000  0.000  0.001  0.799
  0.000  0.880  0.120  0.000  0.000
    occupations:
  0.119  0.000  0.001  0.101  0.000
  0.000  0.282  0.000 -0.001  0.000
  0.001  0.000  0.078  0.002  0.000
  0.101 -0.001  0.002  0.269  0.000
  0.000  0.000  0.000  0.000  0.078
atomic mag. moment =     2.941401
atom   10   Tr[ns(na)] (up, down, total) =   3.81716  0.69934  4.51650
   spin  1
    eigenvalues: 
  0.480  0.492  0.913  0.939  0.992
    eigenvectors:
  0.000  0.997  0.000  0.000  0.002
  0.000  0.000  0.000  1.000  0.000
  0.000  0.000  1.000  0.000  0.000
  0.000  0.002  0.000  0.000  0.997
  1.000  0.000  0.000  0.000  0.000
    occupations:
  0.493  0.000 -0.006  0.024  0.000
  0.000  0.939  0.000  0.000 -0.004
 -0.006  0.000  0.913  0.001  0.000
  0.024  0.000  0.001  0.991  0.000
  0.000 -0.004  0.000  0.000  0.480
   spin  2
    eigenvalues: 
  0.063  0.073  0.080  0.196  0.287
    eigenvectors:
  0.015  0.000  0.000  0.985  0.000
  0.000  0.000  1.000  0.000  0.000
  0.000  1.000  0.000  0.000  0.000
  0.985  0.000  0.000  0.015  0.000
  0.000  0.000  0.000  0.000  1.000
    occupations:
  0.194  0.000  0.000 -0.016  0.000
  0.000  0.080  0.000  0.000  0.002
  0.000  0.000  0.073  0.000  0.000
 -0.016  0.000  0.000  0.065  0.000
  0.000  0.002  0.000  0.000  0.287
atomic mag. moment =     3.117816
atom   16   Tr[ns(na)] (up, down, total) =   3.75832  0.78273  4.54105
   spin  1
    eigenvalues: 
  0.445  0.497  0.864  0.960  0.993
    eigenvectors:
  0.000  0.253  0.001  0.000  0.746
  0.999  0.001  0.000  0.000  0.000
  0.000  0.000  0.999  0.000  0.001
  0.001  0.746  0.000  0.000  0.253
  0.000  0.000  0.000  1.000  0.000
    occupations:
  0.867 -0.001  0.001 -0.216  0.000
 -0.001  0.445  0.001  0.002 -0.005
  0.001  0.001  0.864 -0.005 -0.001
 -0.216  0.002 -0.005  0.622  0.000
  0.000 -0.005 -0.001  0.000  0.960
   spin  2
    eigenvalues: 
  0.057  0.071  0.076  0.265  0.313
    eigenvectors:
  0.736  0.002  0.032  0.001  0.229
  0.000  0.001  0.000  0.996  0.002
  0.041  0.030  0.929  0.000  0.000
  0.224  0.000  0.006  0.001  0.768
  0.000  0.966  0.032  0.001  0.000
    occupations:
  0.117  0.001 -0.001  0.107  0.000
  0.001  0.265  0.000 -0.003  0.007
 -0.001  0.000  0.075  0.005 -0.001
  0.107 -0.003  0.005  0.254  0.000
  0.000  0.007 -0.001  0.000  0.072
atomic mag. moment =     2.975589
atom   17   Tr[ns(na)] (up, down, total) =   3.77865  0.77052  4.54917
   spin  1
    eigenvalues: 
  0.468  0.499  0.889  0.931  0.991
    eigenvectors:
  0.000  0.997  0.000  0.001  0.002
  0.000  0.001  0.008  0.991  0.000
  0.000  0.000  0.992  0.008  0.000
  0.000  0.002  0.000  0.000  0.998
  1.000  0.000  0.000  0.000  0.000
    occupations:
  0.500 -0.015 -0.001  0.022  0.000
 -0.015  0.930  0.004  0.001  0.000
 -0.001  0.004  0.889  0.000  0.002
  0.022  0.001  0.000  0.990  0.000
  0.000  0.000  0.002  0.000  0.468
   spin  2
    eigenvalues: 
  0.065  0.067  0.069  0.270  0.299
    eigenvectors:
  0.001  0.008  0.000  0.990  0.000
  0.102  0.008  0.889  0.001  0.000
  0.839  0.080  0.081  0.000  0.000
  0.057  0.904  0.030  0.009  0.000
  0.000  0.000  0.000  0.000  1.000
    occupations:
  0.268  0.006  0.001 -0.019  0.000
  0.006  0.069 -0.001  0.000  0.000
  0.001 -0.001  0.065  0.000  0.000
 -0.019  0.000  0.000  0.068  0.000
  0.000  0.000  0.000  0.000  0.299
atomic mag. moment =     3.008128
atom   22   Tr[ns(na)] (up, down, total) =   3.76723  0.82528  4.59251
   spin  1
    eigenvalues: 
  0.510  0.525  0.817  0.922  0.994
    eigenvectors:
  0.003  0.215  0.000  0.000  0.781
  0.986  0.014  0.000  0.000  0.000
  0.000  0.000  0.985  0.015  0.000
  0.011  0.771  0.000  0.000  0.219
  0.000  0.000  0.015  0.985  0.000
    occupations:
  0.892  0.002  0.001 -0.194  0.001
  0.002  0.510  0.001  0.001  0.001
  0.001  0.001  0.818  0.000  0.013
 -0.194  0.001  0.000  0.627  0.001
  0.001  0.001  0.013  0.001  0.920
   spin  2
    eigenvalues: 
  0.068  0.077  0.078  0.282  0.320
    eigenvectors:
  0.799  0.000  0.000  0.000  0.200
  0.000  0.000  0.000  0.999  0.001
  0.000  0.056  0.944  0.000  0.000
  0.201  0.000  0.000  0.001  0.799
  0.000  0.944  0.056  0.000  0.000
    occupations:
  0.119  0.000  0.001  0.101  0.000
  0.000  0.282  0.000  0.001  0.000
  0.001  0.000  0.078  0.002  0.000
  0.101  0.001  0.002  0.269  0.000
  0.000  0.000  0.000  0.000  0.077
atomic mag. moment =     2.941943
atom   23   Tr[ns(na)] (up, down, total) =   3.79414  0.71579  4.50993
   spin  1
    eigenvalues: 
  0.427  0.475  0.951  0.952  0.989
    eigenvectors:
  0.996  0.000  0.003  0.000  0.001
  0.000  0.000  0.004  0.995  0.000
  0.003  0.000  0.993  0.004  0.000
  0.001  0.000  0.000  0.000  0.999
  0.000  1.000  0.000  0.000  0.000
    occupations:
  0.429  0.000  0.028  0.021  0.000
  0.000  0.952  0.000  0.000 -0.009
  0.028  0.000  0.949 -0.001  0.000
  0.021  0.000 -0.001  0.989  0.000
  0.000 -0.009  0.000  0.000  0.476
   spin  2
    eigenvalues: 
  0.055  0.067  0.069  0.223  0.302
    eigenvectors:
  0.003  0.012  0.000  0.985  0.000
  0.000  0.000  1.000  0.000  0.000
  0.997  0.001  0.000  0.002  0.000
  0.001  0.987  0.000  0.012  0.000
  0.000  0.000  0.000  0.000  1.000
    occupations:
  0.220  0.000 -0.008 -0.017  0.000
  0.000  0.069  0.000  0.000  0.002
 -0.008  0.000  0.055  0.001  0.000
 -0.017  0.000  0.001  0.069  0.000
  0.000  0.002  0.000  0.000  0.302
atomic mag. moment =     3.078352
N of occupied +U levels =  36.3937034
 --- exit write_ns ---

     Threshold (ethr) on eigenvalues was too large:
     Diagonalizing with lowered threshold

     Davidson diagonalization with overlap
     ethr =  9.34E-08,  avg # of iterations =  1.0

     negative rho (up, down):  0.555E-02 0.225E-02

     total cpu time spent up to now is   168924.4 secs

     total energy              =   -2055.84097217 Ry
     Harris-Foulkes estimate   =   -2055.84114185 Ry
     estimated scf accuracy    <       0.00022164 Ry

     total magnetization       =    15.00 Bohr mag/cell
     absolute magnetization    =    32.88 Bohr mag/cell

     iteration #  2     ecut=    40.00 Ry     beta=0.70
     Davidson diagonalization with overlap
     ethr =  9.35E-08,  avg # of iterations =  5.2

     negative rho (up, down):  0.558E-02 0.190E-02

     total cpu time spent up to now is   169343.6 secs

     total energy              =   -2055.83640851 Ry
     Harris-Foulkes estimate   =   -2055.84550898 Ry
     estimated scf accuracy    <       0.28925650 Ry

     total magnetization       =    15.00 Bohr mag/cell
     absolute magnetization    =    32.77 Bohr mag/cell

     iteration #  3     ecut=    40.00 Ry     beta=0.70
     Davidson diagonalization with overlap
     ethr =  9.35E-08,  avg # of iterations =  5.2

     negative rho (up, down):  0.554E-02 0.188E-02

     total cpu time spent up to now is   169736.5 secs

     total energy              =   -2055.84109749 Ry
     Harris-Foulkes estimate   =   -2055.84115481 Ry
     estimated scf accuracy    <       0.00052553 Ry

     total magnetization       =    15.00 Bohr mag/cell
     absolute magnetization    =    32.89 Bohr mag/cell

     iteration #  4     ecut=    40.00 Ry     beta=0.70
     Davidson diagonalization with overlap
     ethr =  9.35E-08,  avg # of iterations =  1.1

     negative rho (up, down):  0.555E-02 0.182E-02

     total cpu time spent up to now is   170061.5 secs

     total energy              =   -2055.84112030 Ry
     Harris-Foulkes estimate   =   -2055.84115564 Ry
     estimated scf accuracy    <       0.00034650 Ry

     total magnetization       =    15.00 Bohr mag/cell
     absolute magnetization    =    32.88 Bohr mag/cell

     iteration #  5     ecut=    40.00 Ry     beta=0.70
     Davidson diagonalization with overlap
     ethr =  9.35E-08,  avg # of iterations =  1.0

     negative rho (up, down):  0.555E-02 0.177E-02

     total cpu time spent up to now is   170368.2 secs

     total energy              =   -2055.84112567 Ry
     Harris-Foulkes estimate   =   -2055.84115237 Ry
     estimated scf accuracy    <       0.00029140 Ry

     total magnetization       =    15.00 Bohr mag/cell
     absolute magnetization    =    32.87 Bohr mag/cell

     iteration #  6     ecut=    40.00 Ry     beta=0.70
     Davidson diagonalization with overlap
     ethr =  9.35E-08,  avg # of iterations =  1.0

     negative rho (up, down):  0.555E-02 0.168E-02

     total cpu time spent up to now is   170660.9 secs

     total energy              =   -2055.84113829 Ry
     Harris-Foulkes estimate   =   -2055.84114738 Ry
     estimated scf accuracy    <       0.00010720 Ry

     total magnetization       =    15.00 Bohr mag/cell
     absolute magnetization    =    32.89 Bohr mag/cell

     iteration #  7     ecut=    40.00 Ry     beta=0.70
     Davidson diagonalization with overlap
     ethr =  4.52E-08,  avg # of iterations =  1.0

     negative rho (up, down):  0.556E-02 0.163E-02

     total cpu time spent up to now is   170962.2 secs

     total energy              =   -2055.84113984 Ry
     Harris-Foulkes estimate   =   -2055.84114931 Ry
     estimated scf accuracy    <       0.00010397 Ry

     total magnetization       =    15.00 Bohr mag/cell
     absolute magnetization    =    32.88 Bohr mag/cell

     iteration #  8     ecut=    40.00 Ry     beta=0.70
     Davidson diagonalization with overlap
     ethr =  4.39E-08,  avg # of iterations =  1.0

     negative rho (up, down):  0.556E-02 0.162E-02

     total cpu time spent up to now is   171263.8 secs

     total energy              =   -2055.84114384 Ry
     Harris-Foulkes estimate   =   -2055.84114597 Ry
     estimated scf accuracy    <       0.00002178 Ry

     total magnetization       =    15.00 Bohr mag/cell
     absolute magnetization    =    32.88 Bohr mag/cell

     iteration #  9     ecut=    40.00 Ry     beta=0.70
     Davidson diagonalization with overlap
     ethr =  9.19E-09,  avg # of iterations =  1.0

     negative rho (up, down):  0.556E-02 0.161E-02

     total cpu time spent up to now is   171573.8 secs

     total energy              =   -2055.84114492 Ry
     Harris-Foulkes estimate   =   -2055.84114517 Ry
     estimated scf accuracy    <       0.00000290 Ry

     total magnetization       =    15.00 Bohr mag/cell
     absolute magnetization    =    32.88 Bohr mag/cell

     iteration # 10     ecut=    40.00 Ry     beta=0.70
     Davidson diagonalization with overlap
     ethr =  1.22E-09,  avg # of iterations =  1.0

     negative rho (up, down):  0.556E-02 0.161E-02

     total cpu time spent up to now is   171882.1 secs

     total energy              =   -2055.84114494 Ry
     Harris-Foulkes estimate   =   -2055.84114523 Ry
     estimated scf accuracy    <       0.00000269 Ry

     total magnetization       =    15.00 Bohr mag/cell
     absolute magnetization    =    32.88 Bohr mag/cell

     iteration # 11     ecut=    40.00 Ry     beta=0.70
     Davidson diagonalization with overlap
     ethr =  1.13E-09,  avg # of iterations =  1.0

     negative rho (up, down):  0.557E-02 0.160E-02

     total cpu time spent up to now is   172191.7 secs

     total energy              =   -2055.84114490 Ry
     Harris-Foulkes estimate   =   -2055.84114518 Ry
     estimated scf accuracy    <       0.00000131 Ry

     total magnetization       =    15.00 Bohr mag/cell
     absolute magnetization    =    32.88 Bohr mag/cell

     iteration # 12     ecut=    40.00 Ry     beta=0.70
     Davidson diagonalization with overlap
     ethr =  5.53E-10,  avg # of iterations =  1.0

     negative rho (up, down):  0.557E-02 0.161E-02

     total cpu time spent up to now is   172500.8 secs

     total energy              =   -2055.84114504 Ry
     Harris-Foulkes estimate   =   -2055.84114511 Ry
     estimated scf accuracy    <       0.00000232 Ry

     total magnetization       =    15.00 Bohr mag/cell
     absolute magnetization    =    32.88 Bohr mag/cell

     iteration # 13     ecut=    40.00 Ry     beta=0.70
     Davidson diagonalization with overlap
     ethr =  5.53E-10,  avg # of iterations =  1.0

     negative rho (up, down):  0.557E-02 0.161E-02

     total cpu time spent up to now is   172810.0 secs

     total energy              =   -2055.84114509 Ry
     Harris-Foulkes estimate   =   -2055.84114512 Ry
     estimated scf accuracy    <       0.00000018 Ry

     total magnetization       =    15.00 Bohr mag/cell
     absolute magnetization    =    32.88 Bohr mag/cell

     iteration # 14     ecut=    40.00 Ry     beta=0.70
     Davidson diagonalization with overlap
=>> PBS: job killed: walltime 172818 exceeded limit 172800
Terminated
