
     Program PWSCF v.5.0.2 (svn rev. 9656) starts on  6May2014 at 12:22:24 

     This program is part of the open-source Quantum ESPRESSO suite
     for quantum simulation of materials; please cite
         "P. Giannozzi et al., J. Phys.:Condens. Matter 21 395502 (2009);
          URL http://www.quantum-espresso.org", 
     in publications or presentations arising from this work. More details at
     http://www.quantum-espresso.org/quote.php

     Parallel version (MPI), running on    16 processors
     K-points division:     npool     =       4
     R & G space division:  proc/nbgrp/npool/nimage =       4

     Current dimensions of program PWSCF are:
     Max number of different atomic species (ntypx) = 10
     Max number of k-points (npk) =  40000
     Max angular momentum in pseudopotentials (lmaxx) =  3
     Reading input from pwscf.in
Warning: card &CELL ignored
Warning: card / ignored

     Subspace diagonalization in iterative solution of the eigenvalue problem:
     a serial algorithm will be used

     Found symmetry operation: I + ( -0.5000  0.0000  0.0000)
     This is a supercell, fractional translations are disabled

     Parallelization info
     --------------------
     sticks:   dense  smooth     PW     G-vecs:    dense   smooth      PW
     Min        1386     442    124               330660    59845    8892
     Max        1388     443    125               330662    59871    8899
     Sum        5547    1771    497              1322643   239441   35575



     bravais-lattice index     =            0
     lattice parameter (alat)  =      11.2250  a.u.
     unit-cell volume          =    7005.5484 (a.u.)^3
     number of atoms/cell      =           30
     number of atomic types    =            3
     number of electrons       =       208.00
     number of Kohn-Sham states=          300
     kinetic-energy cutoff     =      40.0000  Ry
     charge density cutoff     =     500.0000  Ry
     convergence threshold     =      1.0E-06
     mixing beta               =       0.7000
     number of iterations used =            8  plain     mixing
     Exchange-correlation      = SLA  PW   PBE  PBE ( 1 4 3 4 0)
     EXX-fraction              =        0.00
     nstep                     =           50


     celldm(1)=  11.224973  celldm(2)=   0.000000  celldm(3)=   0.000000
     celldm(4)=   0.000000  celldm(5)=   0.000000  celldm(6)=   0.000000

     crystal axes: (cart. coord. in units of alat)
               a(1) = (   1.000000   0.000000   0.000000 )  
               a(2) = (   0.000000   1.107086   0.000000 )  
               a(3) = (   0.000000   0.000000   4.474090 )  

     reciprocal axes: (cart. coord. in units 2 pi/alat)
               b(1) = (  1.000000  0.000000  0.000000 )  
               b(2) = (  0.000000  0.903272  0.000000 )  
               b(3) = (  0.000000  0.000000  0.223509 )  


     PseudoPot. # 1 for O  read from file:
     /home/camp/zhonxu/pseudo/o_pbe_v1.01.uspp.F.UPF
     MD5 check sum: 2bcb18d16ea4b960afae9ec6d52f22d2
     Pseudo is Ultrasoft + core correction, Zval =  6.0
     Generated by new atomic code, or converted to UPF format
     Using radial grid of  737 points,  5 beta functions with: 
                l(1) =   0
                l(2) =   0
                l(3) =   1
                l(4) =   1
                l(5) =   2
     Q(r) pseudized with  8 coefficients,  rinner =    0.900   0.900   0.900
                                                       0.900   0.900

     PseudoPot. # 2 for Ti read from file:
     /home/camp/zhonxu/pseudo/ti_pbe_v1.uspp.F.UPF
     MD5 check sum: bcc8f6961b3b91f0cac3ca967d22d0fb
     Pseudo is Ultrasoft + core correction, Zval = 12.0
     Generated by new atomic code, or converted to UPF format
     Using radial grid of  851 points,  6 beta functions with: 
                l(1) =   0
                l(2) =   0
                l(3) =   1
                l(4) =   1
                l(5) =   2
                l(6) =   2
     Q(r) pseudized with  6 coefficients,  rinner =    1.000   1.000   1.000
                                                       1.000   1.000

     PseudoPot. # 3 for H  read from file:
     /home/camp/zhonxu/pseudo/h_pbe_v1.uspp.F.UPF
     MD5 check sum: 3408e3ff4ec8b0a4e358431e7e038a48
     Pseudo is Ultrasoft, Zval =  1.0
     Generated by new atomic code, or converted to UPF format
     Using radial grid of  615 points,  2 beta functions with: 
                l(1) =   0
                l(2) =   0
     Q(r) pseudized with  8 coefficients,  rinner =    0.700

     atomic species   valence    mass     pseudopotential
        O0             6.00    15.99940     O ( 1.00)
        Ti1           12.00    47.88000     Ti( 1.00)
        H2             1.00     1.00794     H ( 1.00)


     Simplified LDA+U calculation (l_max = 2) with parameters (eV):
     atomic species    L          U    alpha       J0     beta
        Ti1            2     1.0000   0.0000   0.0000   0.0000



     No symmetry found



   Cartesian axes

     site n.     atom                  positions (alat units)
         1           O0  tau(   1) = (   0.0000000   0.0000000   1.6989461  )
         2           O0  tau(   2) = (   0.0000000   0.5535432   1.7901728  )
         3           Ti1 tau(   3) = (   0.2500000   0.5535432   2.0162933  )
         4           Ti1 tau(   4) = (   0.0000000   0.0000000   2.0248388  )
         5           O0  tau(   5) = (   0.2500000   0.8967400   2.0178145  )
         6           O0  tau(   6) = (   0.2500000   0.2103464   2.0226912  )
         7           O0  tau(   7) = (   0.0000000   0.5535432   2.2326603  )
         8           O0  tau(   8) = (   0.0000000   0.0000000   2.3559662  )
         9           Ti1 tau(   9) = (   0.2500000   0.0000000   2.5995804  )
        10           Ti1 tau(  10) = (   0.0000000   0.5535432   2.5483968  )
        11           O0  tau(  11) = (   0.2500000   0.7638896   2.5964932  )
        12           O0  tau(  12) = (   0.2500000   0.3431968   2.5965380  )
        13           O0  tau(  13) = (   0.0000000   0.0000000   2.7842708  )
        14           O0  tau(  14) = (   0.5000000   0.0000000   1.6989461  )
        15           O0  tau(  15) = (   0.5000000   0.5535432   1.7901728  )
        16           Ti1 tau(  16) = (   0.7500000   0.5535432   2.0162933  )
        17           Ti1 tau(  17) = (   0.5000000   0.0000000   2.0248388  )
        18           O0  tau(  18) = (   0.7500000   0.8967400   2.0178145  )
        19           O0  tau(  19) = (   0.7500000   0.2103464   2.0226912  )
        20           O0  tau(  20) = (   0.5000000   0.5535432   2.2326603  )
        21           O0  tau(  21) = (   0.5000000   0.0000000   2.3559662  )
        22           Ti1 tau(  22) = (   0.7500000   0.0000000   2.5995804  )
        23           Ti1 tau(  23) = (   0.5000000   0.5535432   2.5483968  )
        24           O0  tau(  24) = (   0.7500000   0.7638896   2.5964932  )
        25           O0  tau(  25) = (   0.7500000   0.3431968   2.5965380  )
        26           O0  tau(  26) = (   0.5000000   0.0000000   2.7842708  )
        27           H2  tau(  27) = (  -0.0005400   0.6991915   1.7063283  )
        28           H2  tau(  28) = (   0.4994600   0.6991915   1.7063283  )
        29           H2  tau(  29) = (   0.1501800   0.0252084   1.6321479  )
        30           H2  tau(  30) = (   0.6501800   0.0252084   1.6321479  )

     number of k points=    10  Methfessel-Paxton smearing, width (Ry)=  0.0100
                       cart. coord. in units 2pi/alat
        k(    1) = (   0.0000000   0.0000000   0.0000000), wk =   0.1250000
        k(    2) = (   0.0000000   0.2258180   0.0000000), wk =   0.2500000
        k(    3) = (   0.0000000  -0.4516359   0.0000000), wk =   0.1250000
        k(    4) = (   0.2500000   0.0000000   0.0000000), wk =   0.2500000
        k(    5) = (   0.2500000   0.2258180   0.0000000), wk =   0.2500000
        k(    6) = (   0.2500000  -0.4516359   0.0000000), wk =   0.2500000
        k(    7) = (  -0.5000000   0.0000000   0.0000000), wk =   0.1250000
        k(    8) = (  -0.5000000   0.2258180   0.0000000), wk =   0.2500000
        k(    9) = (  -0.5000000  -0.4516359   0.0000000), wk =   0.1250000
        k(   10) = (  -0.2500000   0.2258180   0.0000000), wk =   0.2500000

     Dense  grid:  1322643 G-vectors     FFT dimensions: (  80,  90, 360)

     Smooth grid:   239441 G-vectors     FFT dimensions: (  45,  54, 216)

     Largest allocated arrays     est. size (Mb)     dimensions
        Kohn-Sham Wavefunctions        34.63 Mb     (   7566,  300)
        Atomic wavefunctions           18.01 Mb     (   7566,  156)
        NL pseudopotentials            44.56 Mb     (   7566,  386)
        Each V/rho on FFT grid          9.89 Mb     ( 648000)
        Each G-vector array             2.52 Mb     ( 330661)
        G-vector shells                 1.08 Mb     ( 141764)
     Largest temporary arrays     est. size (Mb)     dimensions
        Auxiliary wavefunctions       138.54 Mb     (   7566, 1200)
        Each subspace H/S matrix       21.97 Mb     (1200,1200)
        Each <psi_i|beta_j> matrix      1.77 Mb     (    386,  300)
        Arrays for rho mixing          79.10 Mb     ( 648000,   8)

     Check: negative/imaginary core charge=   -0.000005    0.000000

     Initial potential from superposition of free atoms
     Check: negative starting charge=   -0.102816

     starting charge  199.99958, renormalised to  208.00000

     negative rho (up, down):  0.107E+00 0.000E+00
     Number of +U iterations with fixed ns =  0
     Starting occupations:
 --- enter write_ns ---
 LDA+U parameters:
U( 2)     =  1.00000000
alpha( 2) =  0.00000000
atom    3   Tr[ns(na)] =   2.00000
    eigenvalues: 
  0.200  0.200  0.200  0.200  0.200
    eigenvectors:
  1.000  0.000  0.000  0.000  0.000
  0.000  1.000  0.000  0.000  0.000
  0.000  0.000  1.000  0.000  0.000
  0.000  0.000  0.000  1.000  0.000
  0.000  0.000  0.000  0.000  1.000
    occupations:
  0.200  0.000  0.000  0.000  0.000
  0.000  0.200  0.000  0.000  0.000
  0.000  0.000  0.200  0.000  0.000
  0.000  0.000  0.000  0.200  0.000
  0.000  0.000  0.000  0.000  0.200
atom    4   Tr[ns(na)] =   2.00000
    eigenvalues: 
  0.200  0.200  0.200  0.200  0.200
    eigenvectors:
  1.000  0.000  0.000  0.000  0.000
  0.000  1.000  0.000  0.000  0.000
  0.000  0.000  1.000  0.000  0.000
  0.000  0.000  0.000  1.000  0.000
  0.000  0.000  0.000  0.000  1.000
    occupations:
  0.200  0.000  0.000  0.000  0.000
  0.000  0.200  0.000  0.000  0.000
  0.000  0.000  0.200  0.000  0.000
  0.000  0.000  0.000  0.200  0.000
  0.000  0.000  0.000  0.000  0.200
atom    9   Tr[ns(na)] =   2.00000
    eigenvalues: 
  0.200  0.200  0.200  0.200  0.200
    eigenvectors:
  1.000  0.000  0.000  0.000  0.000
  0.000  1.000  0.000  0.000  0.000
  0.000  0.000  1.000  0.000  0.000
  0.000  0.000  0.000  1.000  0.000
  0.000  0.000  0.000  0.000  1.000
    occupations:
  0.200  0.000  0.000  0.000  0.000
  0.000  0.200  0.000  0.000  0.000
  0.000  0.000  0.200  0.000  0.000
  0.000  0.000  0.000  0.200  0.000
  0.000  0.000  0.000  0.000  0.200
atom   10   Tr[ns(na)] =   2.00000
    eigenvalues: 
  0.200  0.200  0.200  0.200  0.200
    eigenvectors:
  1.000  0.000  0.000  0.000  0.000
  0.000  1.000  0.000  0.000  0.000
  0.000  0.000  1.000  0.000  0.000
  0.000  0.000  0.000  1.000  0.000
  0.000  0.000  0.000  0.000  1.000
    occupations:
  0.200  0.000  0.000  0.000  0.000
  0.000  0.200  0.000  0.000  0.000
  0.000  0.000  0.200  0.000  0.000
  0.000  0.000  0.000  0.200  0.000
  0.000  0.000  0.000  0.000  0.200
atom   16   Tr[ns(na)] =   2.00000
    eigenvalues: 
  0.200  0.200  0.200  0.200  0.200
    eigenvectors:
  1.000  0.000  0.000  0.000  0.000
  0.000  1.000  0.000  0.000  0.000
  0.000  0.000  1.000  0.000  0.000
  0.000  0.000  0.000  1.000  0.000
  0.000  0.000  0.000  0.000  1.000
    occupations:
  0.200  0.000  0.000  0.000  0.000
  0.000  0.200  0.000  0.000  0.000
  0.000  0.000  0.200  0.000  0.000
  0.000  0.000  0.000  0.200  0.000
  0.000  0.000  0.000  0.000  0.200
atom   17   Tr[ns(na)] =   2.00000
    eigenvalues: 
  0.200  0.200  0.200  0.200  0.200
    eigenvectors:
  1.000  0.000  0.000  0.000  0.000
  0.000  1.000  0.000  0.000  0.000
  0.000  0.000  1.000  0.000  0.000
  0.000  0.000  0.000  1.000  0.000
  0.000  0.000  0.000  0.000  1.000
    occupations:
  0.200  0.000  0.000  0.000  0.000
  0.000  0.200  0.000  0.000  0.000
  0.000  0.000  0.200  0.000  0.000
  0.000  0.000  0.000  0.200  0.000
  0.000  0.000  0.000  0.000  0.200
atom   22   Tr[ns(na)] =   2.00000
    eigenvalues: 
  0.200  0.200  0.200  0.200  0.200
    eigenvectors:
  1.000  0.000  0.000  0.000  0.000
  0.000  1.000  0.000  0.000  0.000
  0.000  0.000  1.000  0.000  0.000
  0.000  0.000  0.000  1.000  0.000
  0.000  0.000  0.000  0.000  1.000
    occupations:
  0.200  0.000  0.000  0.000  0.000
  0.000  0.200  0.000  0.000  0.000
  0.000  0.000  0.200  0.000  0.000
  0.000  0.000  0.000  0.200  0.000
  0.000  0.000  0.000  0.000  0.200
atom   23   Tr[ns(na)] =   2.00000
    eigenvalues: 
  0.200  0.200  0.200  0.200  0.200
    eigenvectors:
  1.000  0.000  0.000  0.000  0.000
  0.000  1.000  0.000  0.000  0.000
  0.000  0.000  1.000  0.000  0.000
  0.000  0.000  0.000  1.000  0.000
  0.000  0.000  0.000  0.000  1.000
    occupations:
  0.200  0.000  0.000  0.000  0.000
  0.000  0.200  0.000  0.000  0.000
  0.000  0.000  0.200  0.000  0.000
  0.000  0.000  0.000  0.200  0.000
  0.000  0.000  0.000  0.000  0.200
N of occupied +U levels =  16.0000000
 --- exit write_ns ---
 Atomic wfc used for LDA+U Projector are NOT orthogonalized
     Starting wfc are  156 randomized atomic wfcs

     total cpu time spent up to now is       96.8 secs

     per-process dynamical memory:   355.3 Mb

     Self-consistent Calculation

     iteration #  1     ecut=    40.00 Ry     beta=0.70
     Davidson diagonalization with overlap
     ethr =  1.00E-02,  avg # of iterations =  6.0
 --- enter write_ns ---
 LDA+U parameters:
U( 2)     =  1.00000000
alpha( 2) =  0.00000000
atom    3   Tr[ns(na)] =   1.99533
    eigenvalues: 
  0.106  0.129  0.148  0.290  0.324
    eigenvectors:
  0.115  0.000  0.737  0.148  0.000
  0.000  0.003  0.000  0.000  0.997
  0.856  0.000  0.143  0.001  0.000
  0.029  0.000  0.119  0.851  0.000
  0.000  0.997  0.000  0.000  0.003
    occupations:
  0.164 -0.000 -0.011  0.053 -0.000
 -0.000  0.323 -0.000  0.000  0.010
 -0.011 -0.000  0.113  0.010  0.000
  0.053  0.000  0.010  0.268 -0.000
 -0.000  0.010  0.000 -0.000  0.130
atom    4   Tr[ns(na)] =   2.15192
    eigenvalues: 
  0.116  0.133  0.154  0.324  0.349
    eigenvectors:
  0.000  0.012  0.001  0.000  0.987
  0.005  0.001  0.993  0.000  0.002
  0.995  0.001  0.005  0.000  0.000
  0.001  0.986  0.001  0.000  0.011
  0.000  0.000  0.000  1.000  0.000
    occupations:
  0.346  0.008  0.001 -0.023 -0.000
  0.008  0.154  0.003 -0.000 -0.002
  0.001  0.003  0.116  0.000  0.000
 -0.023 -0.000  0.000  0.136  0.000
 -0.000 -0.002  0.000  0.000  0.323
atom    9   Tr[ns(na)] =   2.61294
    eigenvalues: 
  0.180  0.199  0.266  0.313  0.348
    eigenvectors:
  0.915  0.000  0.000  0.085  0.000
  0.000  0.000  0.000  0.000  1.000
  0.000  0.000  1.000  0.000  0.000
  0.085  0.000  0.000  0.915  0.000
  0.000  1.000  0.000  0.000  0.000
    occupations:
  0.191 -0.000 -0.001  0.037  0.000
 -0.000  0.348  0.000  0.000  0.000
 -0.001  0.000  0.266  0.000 -0.000
  0.037  0.000  0.000  0.302 -0.000
  0.000  0.000 -0.000 -0.000  0.199
atom   10   Tr[ns(na)] =   3.95175
    eigenvalues: 
  0.273  0.318  0.406  0.410  0.568
    eigenvectors:
  0.995  0.000  0.000  0.000  0.005
  0.000  0.000  0.000  1.000  0.000
  0.000  0.000  1.000  0.000  0.000
  0.005  0.000  0.000  0.000  0.995
  0.000  1.000  0.000  0.000  0.000
    occupations:
  0.275 -0.000 -0.000  0.021 -0.000
 -0.000  0.410 -0.000  0.000  0.000
 -0.000 -0.000  0.406 -0.000  0.000
  0.021  0.000 -0.000  0.567 -0.000
 -0.000  0.000  0.000 -0.000  0.318
atom   16   Tr[ns(na)] =   1.99533
    eigenvalues: 
  0.106  0.129  0.148  0.290  0.324
    eigenvectors:
  0.115  0.000  0.737  0.148  0.000
  0.000  0.003  0.000  0.000  0.997
  0.856  0.000  0.143  0.001  0.000
  0.029  0.000  0.119  0.851  0.000
  0.000  0.997  0.000  0.000  0.003
    occupations:
  0.164 -0.000 -0.011  0.053 -0.000
 -0.000  0.323 -0.000  0.000  0.010
 -0.011 -0.000  0.113  0.010  0.000
  0.053  0.000  0.010  0.268 -0.000
 -0.000  0.010  0.000 -0.000  0.130
atom   17   Tr[ns(na)] =   2.15192
    eigenvalues: 
  0.116  0.133  0.154  0.324  0.349
    eigenvectors:
  0.000  0.012  0.001  0.000  0.987
  0.005  0.001  0.993  0.000  0.002
  0.995  0.001  0.005  0.000  0.000
  0.001  0.986  0.001  0.000  0.011
  0.000  0.000  0.000  1.000  0.000
    occupations:
  0.346  0.008  0.001 -0.023 -0.000
  0.008  0.154  0.003 -0.000 -0.002
  0.001  0.003  0.116  0.000  0.000
 -0.023 -0.000  0.000  0.136  0.000
 -0.000 -0.002  0.000  0.000  0.323
atom   22   Tr[ns(na)] =   2.61295
    eigenvalues: 
  0.180  0.199  0.266  0.313  0.348
    eigenvectors:
  0.915  0.000  0.000  0.085  0.000
  0.000  0.000  0.000  0.000  1.000
  0.000  0.000  1.000  0.000  0.000
  0.085  0.000  0.000  0.915  0.000
  0.000  1.000  0.000  0.000  0.000
    occupations:
  0.191 -0.000 -0.001  0.037  0.000
 -0.000  0.348  0.000  0.000  0.000
 -0.001  0.000  0.266  0.000 -0.000
  0.037  0.000  0.000  0.302 -0.000
  0.000  0.000 -0.000 -0.000  0.199
atom   23   Tr[ns(na)] =   3.95176
    eigenvalues: 
  0.273  0.318  0.406  0.410  0.568
    eigenvectors:
  0.995  0.000  0.000  0.000  0.005
  0.000  0.000  0.000  1.000  0.000
  0.000  0.000  1.000  0.000  0.000
  0.005  0.000  0.000  0.000  0.995
  0.000  1.000  0.000  0.000  0.000
    occupations:
  0.275 -0.000 -0.000  0.021 -0.000
 -0.000  0.410 -0.000  0.000  0.000
 -0.000 -0.000  0.406 -0.000  0.000
  0.021  0.000 -0.000  0.567 -0.000
 -0.000  0.000  0.000 -0.000  0.318
N of occupied +U levels =  21.4238957
 --- exit write_ns ---

     negative rho (up, down):  0.106E+00 0.000E+00

     total cpu time spent up to now is      385.7 secs

     total energy              =   -1508.54291891 Ry
     Harris-Foulkes estimate   =   -1536.19861121 Ry
     estimated scf accuracy    <      31.58694366 Ry

     iteration #  2     ecut=    40.00 Ry     beta=0.70
     Davidson diagonalization with overlap
     ethr =  1.00E-02,  avg # of iterations =  7.0

     negative rho (up, down):  0.110E+00 0.000E+00

     total cpu time spent up to now is      696.3 secs

     total energy              =   -1312.85050484 Ry
     Harris-Foulkes estimate   =   -1797.37417804 Ry
     estimated scf accuracy    <    5619.49538623 Ry

     iteration #  3     ecut=    40.00 Ry     beta=0.70
     Davidson diagonalization with overlap
     ethr =  1.00E-02,  avg # of iterations =  6.0

     negative rho (up, down):  0.102E+00 0.000E+00

     total cpu time spent up to now is     1039.6 secs

     total energy              =   -1524.27226379 Ry
     Harris-Foulkes estimate   =   -1543.78369151 Ry
     estimated scf accuracy    <     134.16585217 Ry

     iteration #  4     ecut=    40.00 Ry     beta=0.70
     Davidson diagonalization with overlap
     ethr =  1.00E-02,  avg # of iterations =  1.9

     negative rho (up, down):  0.104E+00 0.000E+00

     total cpu time spent up to now is     1192.1 secs

     total energy              =   -1528.85929845 Ry
     Harris-Foulkes estimate   =   -1537.91378681 Ry
     estimated scf accuracy    <     107.53514562 Ry

     iteration #  5     ecut=    40.00 Ry     beta=0.70
     Davidson diagonalization with overlap
     ethr =  1.00E-02,  avg # of iterations =  2.2

     negative rho (up, down):  0.969E-01 0.000E+00

     total cpu time spent up to now is     1345.1 secs

     total energy              =   -1534.82552727 Ry
     Harris-Foulkes estimate   =   -1536.64139849 Ry
     estimated scf accuracy    <       7.29419157 Ry

     iteration #  6     ecut=    40.00 Ry     beta=0.70
     Davidson diagonalization with overlap
     ethr =  3.51E-03,  avg # of iterations =  3.3

     negative rho (up, down):  0.100E+00 0.000E+00

     total cpu time spent up to now is     1504.1 secs

     total energy              =   -1534.57991145 Ry
     Harris-Foulkes estimate   =   -1535.12314598 Ry
     estimated scf accuracy    <       2.23898846 Ry

     iteration #  7     ecut=    40.00 Ry     beta=0.70
     Davidson diagonalization with overlap
     ethr =  1.08E-03,  avg # of iterations =  4.8

     negative rho (up, down):  0.102E+00 0.000E+00

     total cpu time spent up to now is     1676.2 secs

     total energy              =   -1534.47953793 Ry
     Harris-Foulkes estimate   =   -1534.68364450 Ry
     estimated scf accuracy    <       0.88760757 Ry

     iteration #  8     ecut=    40.00 Ry     beta=0.70
     Davidson diagonalization with overlap
     ethr =  4.27E-04,  avg # of iterations =  4.6

     negative rho (up, down):  0.103E+00 0.000E+00

     total cpu time spent up to now is     1838.6 secs

     total energy              =   -1534.42314782 Ry
     Harris-Foulkes estimate   =   -1534.54443087 Ry
     estimated scf accuracy    <       0.41270597 Ry

     iteration #  9     ecut=    40.00 Ry     beta=0.70
     Davidson diagonalization with overlap
     ethr =  1.98E-04,  avg # of iterations =  5.5

     negative rho (up, down):  0.103E+00 0.000E+00

     total cpu time spent up to now is     2015.4 secs

     total energy              =   -1534.44689084 Ry
     Harris-Foulkes estimate   =   -1534.47806265 Ry
     estimated scf accuracy    <       0.42303937 Ry

     iteration # 10     ecut=    40.00 Ry     beta=0.70
     Davidson diagonalization with overlap
     ethr =  1.98E-04,  avg # of iterations =  1.0

     negative rho (up, down):  0.103E+00 0.000E+00

     total cpu time spent up to now is     2174.3 secs

     total energy              =   -1534.43207589 Ry
     Harris-Foulkes estimate   =   -1534.45693657 Ry
     estimated scf accuracy    <       0.25441761 Ry

     iteration # 11     ecut=    40.00 Ry     beta=0.70
     Davidson diagonalization with overlap
     ethr =  1.22E-04,  avg # of iterations =  4.8

     negative rho (up, down):  0.101E+00 0.000E+00

     total cpu time spent up to now is     2343.6 secs

     total energy              =   -1534.34689431 Ry
     Harris-Foulkes estimate   =   -1534.43718825 Ry
     estimated scf accuracy    <       0.16238207 Ry

     iteration # 12     ecut=    40.00 Ry     beta=0.70
     Davidson diagonalization with overlap
     ethr =  7.81E-05,  avg # of iterations =  7.3

     negative rho (up, down):  0.102E+00 0.000E+00

     total cpu time spent up to now is     2546.5 secs

     total energy              =   -1534.36975833 Ry
     Harris-Foulkes estimate   =   -1534.45029584 Ry
     estimated scf accuracy    <       0.23644854 Ry

     iteration # 13     ecut=    40.00 Ry     beta=0.70
     Davidson diagonalization with overlap
     ethr =  7.81E-05,  avg # of iterations =  5.2

     negative rho (up, down):  0.103E+00 0.000E+00

     total cpu time spent up to now is     2723.4 secs

     total energy              =   -1534.39824657 Ry
     Harris-Foulkes estimate   =   -1534.40412693 Ry
     estimated scf accuracy    <       0.00913166 Ry

     iteration # 14     ecut=    40.00 Ry     beta=0.70
     Davidson diagonalization with overlap
     ethr =  4.39E-06,  avg # of iterations =  5.3

     negative rho (up, down):  0.103E+00 0.000E+00

     total cpu time spent up to now is     2930.4 secs

     total energy              =   -1534.39769782 Ry
     Harris-Foulkes estimate   =   -1534.40809700 Ry
     estimated scf accuracy    <       0.03403557 Ry

     iteration # 15     ecut=    40.00 Ry     beta=0.70
     Davidson diagonalization with overlap
     ethr =  4.39E-06,  avg # of iterations =  4.8

     negative rho (up, down):  0.103E+00 0.000E+00

     total cpu time spent up to now is     3111.6 secs

     total energy              =   -1534.40262178 Ry
     Harris-Foulkes estimate   =   -1534.40282037 Ry
     estimated scf accuracy    <       0.00052765 Ry

     iteration # 16     ecut=    40.00 Ry     beta=0.70
     Davidson diagonalization with overlap
     ethr =  2.54E-07,  avg # of iterations =  2.0

     negative rho (up, down):  0.103E+00 0.000E+00

     total cpu time spent up to now is     3273.0 secs

     total energy              =   -1534.40269078 Ry
     Harris-Foulkes estimate   =   -1534.40279920 Ry
     estimated scf accuracy    <       0.00030133 Ry

     iteration # 17     ecut=    40.00 Ry     beta=0.70
     Davidson diagonalization with overlap
     ethr =  1.45E-07,  avg # of iterations =  1.3

     negative rho (up, down):  0.103E+00 0.000E+00

     total cpu time spent up to now is     3427.5 secs

     total energy              =   -1534.40273299 Ry
     Harris-Foulkes estimate   =   -1534.40275430 Ry
     estimated scf accuracy    <       0.00004975 Ry

     iteration # 18     ecut=    40.00 Ry     beta=0.70
     Davidson diagonalization with overlap
     ethr =  2.39E-08,  avg # of iterations =  2.0

     negative rho (up, down):  0.103E+00 0.000E+00

     total cpu time spent up to now is     3579.3 secs

     total energy              =   -1534.40273923 Ry
     Harris-Foulkes estimate   =   -1534.40275328 Ry
     estimated scf accuracy    <       0.00004566 Ry

     iteration # 19     ecut=    40.00 Ry     beta=0.70
     Davidson diagonalization with overlap
     ethr =  2.20E-08,  avg # of iterations =  1.3

     negative rho (up, down):  0.103E+00 0.000E+00

     total cpu time spent up to now is     3739.8 secs

     total energy              =   -1534.40274559 Ry
     Harris-Foulkes estimate   =   -1534.40274650 Ry
     estimated scf accuracy    <       0.00000195 Ry

     iteration # 20     ecut=    40.00 Ry     beta=0.70
     Davidson diagonalization with overlap
     ethr =  9.36E-10,  avg # of iterations =  2.0

     negative rho (up, down):  0.103E+00 0.000E+00

     total cpu time spent up to now is     3901.6 secs

     total energy              =   -1534.40274582 Ry
     Harris-Foulkes estimate   =   -1534.40274656 Ry
     estimated scf accuracy    <       0.00000225 Ry

     iteration # 21     ecut=    40.00 Ry     beta=0.70
     Davidson diagonalization with overlap
     ethr =  9.36E-10,  avg # of iterations =  1.3

     negative rho (up, down):  0.103E+00 0.000E+00

     total cpu time spent up to now is     4057.9 secs

     End of self-consistent calculation
 --- enter write_ns ---
 LDA+U parameters:
U( 2)     =  1.00000000
alpha( 2) =  0.00000000
atom    3   Tr[ns(na)] =   2.81376
    eigenvalues: 
  0.174  0.199  0.232  0.399  0.402
    eigenvectors:
  0.793  0.000  0.011  0.196  0.000
  0.000  0.003  0.000  0.000  0.997
  0.011  0.000  0.989  0.000  0.000
  0.196  0.000  0.001  0.803  0.000
  0.000  0.997  0.000  0.000  0.003
    occupations:
  0.219 -0.000 -0.004  0.089 -0.000
 -0.000  0.402  0.000  0.000  0.010
 -0.004  0.000  0.231  0.006 -0.000
  0.089  0.000  0.006  0.355 -0.000
 -0.000  0.010 -0.000 -0.000  0.199
atom    4   Tr[ns(na)] =   2.94535
    eigenvalues: 
  0.176  0.214  0.242  0.409  0.433
    eigenvectors:
  0.006  0.004  0.000  0.000  0.990
  0.001  0.957  0.038  0.000  0.004
  0.000  0.037  0.962  0.000  0.000
  0.993  0.002  0.000  0.000  0.005
  0.000  0.000  0.000  1.000  0.000
    occupations:
  0.430  0.014  0.003 -0.019 -0.000
  0.014  0.215 -0.005  0.000 -0.002
  0.003 -0.005  0.241  0.001 -0.000
 -0.019  0.000  0.001  0.177 -0.000
 -0.000 -0.002 -0.000 -0.000  0.409
atom    9   Tr[ns(na)] =   2.92974
    eigenvalues: 
  0.187  0.227  0.245  0.372  0.434
    eigenvectors:
  0.000  0.000  0.925  0.075  0.000
  0.000  0.000  0.000  0.000  1.000
  1.000  0.000  0.000  0.000  0.000
  0.000  0.000  0.075  0.925  0.000
  0.000  1.000  0.000  0.000  0.000
    occupations:
  0.254 -0.000 -0.000  0.033  0.000
 -0.000  0.434  0.000 -0.000 -0.000
 -0.000  0.000  0.187  0.000  0.000
  0.033 -0.000  0.000  0.363 -0.000
  0.000 -0.000  0.000 -0.000  0.227
atom   10   Tr[ns(na)] =   2.85820
    eigenvalues: 
  0.188  0.235  0.239  0.336  0.431
    eigenvectors:
  0.024  0.000  0.000  0.976  0.000
  0.000  0.000  1.000  0.000  0.000
  0.000  1.000  0.000  0.000  0.000
  0.976  0.000  0.000  0.024  0.000
  0.000  0.000  0.000  0.000  1.000
    occupations:
  0.332 -0.000 -0.000 -0.023 -0.000
 -0.000  0.239 -0.000 -0.000  0.000
 -0.000 -0.000  0.235 -0.000  0.000
 -0.023 -0.000 -0.000  0.191 -0.000
 -0.000  0.000  0.000 -0.000  0.431
atom   16   Tr[ns(na)] =   2.81376
    eigenvalues: 
  0.174  0.199  0.232  0.399  0.402
    eigenvectors:
  0.793  0.000  0.011  0.196  0.000
  0.000  0.003  0.000  0.000  0.997
  0.011  0.000  0.989  0.000  0.000
  0.196  0.000  0.001  0.803  0.000
  0.000  0.997  0.000  0.000  0.003
    occupations:
  0.219 -0.000 -0.004  0.089 -0.000
 -0.000  0.402  0.000  0.000  0.010
 -0.004  0.000  0.231  0.006 -0.000
  0.089  0.000  0.006  0.355 -0.000
 -0.000  0.010 -0.000 -0.000  0.199
atom   17   Tr[ns(na)] =   2.94535
    eigenvalues: 
  0.176  0.214  0.242  0.409  0.433
    eigenvectors:
  0.006  0.004  0.000  0.000  0.990
  0.001  0.957  0.038  0.000  0.004
  0.000  0.037  0.962  0.000  0.000
  0.993  0.002  0.000  0.000  0.005
  0.000  0.000  0.000  1.000  0.000
    occupations:
  0.430  0.014  0.003 -0.019 -0.000
  0.014  0.215 -0.005  0.000 -0.002
  0.003 -0.005  0.241  0.001 -0.000
 -0.019  0.000  0.001  0.177 -0.000
 -0.000 -0.002 -0.000 -0.000  0.409
atom   22   Tr[ns(na)] =   2.92974
    eigenvalues: 
  0.187  0.227  0.245  0.372  0.434
    eigenvectors:
  0.000  0.000  0.925  0.075  0.000
  0.000  0.000  0.000  0.000  1.000
  1.000  0.000  0.000  0.000  0.000
  0.000  0.000  0.075  0.925  0.000
  0.000  1.000  0.000  0.000  0.000
    occupations:
  0.254 -0.000 -0.000  0.033  0.000
 -0.000  0.434  0.000 -0.000 -0.000
 -0.000  0.000  0.187  0.000  0.000
  0.033 -0.000  0.000  0.363 -0.000
  0.000 -0.000  0.000 -0.000  0.227
atom   23   Tr[ns(na)] =   2.85820
    eigenvalues: 
  0.188  0.235  0.239  0.336  0.431
    eigenvectors:
  0.024  0.000  0.000  0.976  0.000
  0.000  0.000  1.000  0.000  0.000
  0.000  1.000  0.000  0.000  0.000
  0.976  0.000  0.000  0.024  0.000
  0.000  0.000  0.000  0.000  1.000
    occupations:
  0.332 -0.000 -0.000 -0.023 -0.000
 -0.000  0.239 -0.000 -0.000  0.000
 -0.000 -0.000  0.235 -0.000  0.000
 -0.023 -0.000 -0.000  0.191 -0.000
 -0.000  0.000  0.000 -0.000  0.431
N of occupied +U levels =  23.0941009
 --- exit write_ns ---

          k = 0.0000 0.0000 0.0000 ( 29975 PWs)   bands (ev):

   -60.8943 -60.8569 -60.4482 -60.4103 -59.2934 -59.2527 -58.9273 -58.8868
   -37.4668 -37.1609 -37.0587 -37.0558 -36.9596 -36.9248 -36.8889 -36.7962
   -36.7675 -36.6453 -36.5481 -36.4706 -35.9415 -35.6394 -35.5333 -35.4849
   -35.4171 -35.3932 -35.3514 -35.2672 -35.2372 -35.1694 -35.0727 -34.9420
   -22.2859 -21.9916 -20.9943 -20.7510 -20.4885 -20.3734 -19.7865 -19.6698
   -19.6360 -19.5978 -19.4134 -19.3604 -19.2801 -19.1368 -18.9243 -18.4351
   -18.0298 -18.0249 -10.0117  -9.5654  -8.3295  -8.2823  -8.2747  -8.0845
    -8.0297  -7.7086  -7.5289  -7.2456  -7.2444  -7.1056  -7.0707  -6.9008
    -6.8025  -6.7618  -6.7611  -6.7504  -6.6199  -6.6162  -6.2203  -6.0509
    -5.9734  -5.7313  -5.6881  -5.5543  -5.5171  -5.5015  -5.4693  -5.4604
    -5.3472  -5.1980  -5.1298  -4.8791  -4.8485  -4.7407  -4.7287  -4.6983
    -4.5986  -4.3364  -4.1693  -4.0836  -3.8560  -3.7714  -3.6937  -3.4553
    -3.3952  -3.3274  -3.2863  -3.0396  -3.0197  -2.9747  -2.8138  -2.7041
    -1.5994  -1.0486  -1.0056  -0.9495  -0.8429  -0.5763  -0.5302  -0.4883
    -0.4565  -0.1020  -0.0646   0.0049   0.2804   0.4677   0.5041   0.6445
     0.7280   0.8520   0.8731   0.8958   1.1138   1.2678   1.3976   1.4216
     1.7092   1.8712   1.8762   1.9171   1.9659   2.0893   2.5337   2.5992
     3.0584   3.0929   3.1413   3.2741   3.4567   3.4961   3.6333   3.8920
     4.0673   4.2540   4.4849   4.5343   4.7988   5.2496   5.5853   5.6857
     5.7892   6.4355   6.5878   6.5945   6.7985   6.9275   7.0992   7.1027
     7.1297   7.3311   7.4512   7.5802   7.6821   7.7222   7.7391   7.8982
     7.9343   8.0577   8.1365   8.2173   8.3250   8.4725   8.5112   8.5849
     8.5961   8.7774   8.8656   8.8703   9.1067   9.1356   9.2057   9.3258
     9.3452   9.6097   9.7362   9.8398   9.8980   9.9056  10.1299  10.5545
    10.6206  10.6631  10.6773  10.7196  10.7598  10.8171  10.8774  10.9538
    11.0172  11.0891  11.1491  11.2827  11.3326  11.3381  11.3577  11.3753
    11.4076  11.4819  11.6013  11.6386  11.7700  11.8002  11.8307  11.9196
    12.0301  12.1548  12.2108  12.2203  12.2345  12.3043  12.3242  12.3981
    12.5567  12.7191  12.7477  12.8997  12.9134  12.9853  13.0441  13.1692
    13.3614  13.4557  13.4808  13.4990  13.5997  13.7204  13.7593  13.9411
    13.9656  14.0475  14.0879  14.2162  14.3045  14.3633  14.4425  14.4947
    14.6600  14.7725  14.7909  14.9120  15.0054  15.0391  15.1327  15.1667
    15.1823  15.4060  15.4377  15.4755  15.4825  15.7340  15.7340  16.1221
    16.1249  16.2684  16.3465  16.3822  16.4908  16.5126  16.5431  16.5917
    16.5988  16.8729  16.9102  16.9473  17.0732  17.3152  17.3534  17.3638
    17.4437  17.5417  17.5720  17.5873  17.6384  17.7025  17.7750  17.9489
    18.0107  18.0287  18.0592  18.1086  18.1789  18.1802  18.3073  18.3349
    18.4807  18.4999  18.5117  18.6241

          k = 0.0000 0.2258 0.0000 ( 29933 PWs)   bands (ev):

   -60.8943 -60.8569 -60.4482 -60.4103 -59.2934 -59.2527 -58.9274 -58.8868
   -37.4669 -37.1609 -37.0587 -37.0558 -36.9580 -36.9260 -36.8896 -36.7963
   -36.7674 -36.6438 -36.5483 -36.4706 -35.9399 -35.6415 -35.5333 -35.4849
   -35.4169 -35.3932 -35.3514 -35.2692 -35.2362 -35.1694 -35.0727 -34.9421
   -22.2808 -21.9912 -20.9734 -20.7506 -20.4068 -20.3367 -19.9069 -19.7599
   -19.5907 -19.5438 -19.5159 -19.3299 -19.2386 -19.2244 -18.8774 -18.4355
   -18.0297 -18.0242 -10.0112  -9.5731  -8.2786  -8.1900  -8.0727  -8.0285
    -7.8933  -7.7006  -7.5289  -7.4843  -7.3685  -7.0717  -7.0335  -6.7978
    -6.7766  -6.7591  -6.7327  -6.5875  -6.3354  -6.2390  -6.2171  -6.1664
    -5.9643  -5.9029  -5.8719  -5.6614  -5.5909  -5.5470  -5.4515  -5.4339
    -5.2866  -5.2357  -5.1532  -5.0513  -5.0235  -4.9163  -4.6947  -4.6586
    -4.4553  -4.4452  -4.3104  -4.2987  -3.8941  -3.8414  -3.6807  -3.4779
    -3.4408  -3.3804  -3.3679  -3.3144  -3.0311  -2.9275  -2.8196  -2.6858
    -1.5836  -1.1240  -1.0621  -0.8441  -0.7149  -0.5301  -0.5037  -0.4971
    -0.2755  -0.0971  -0.0933  -0.0561   0.2749   0.4910   0.6942   0.7450
     0.8545   0.8790   0.8837   0.8962   1.2189   1.2377   1.3490   1.4181
     1.5698   1.8225   1.8444   1.9388   2.0521   2.0917   2.1213   2.8490
     2.9640   3.1201   3.2844   3.5601   3.7239   3.8047   3.8162   3.9523
     3.9650   4.3315   4.5359   4.6924   4.8008   4.9452   5.4187   5.5710
     5.6857   5.7829   5.8171   6.1594   6.5320   6.7089   6.8560   7.1072
     7.2225   7.4171   7.4798   7.5171   7.5679   7.7698   7.9101   8.0874
     8.2191   8.2489   8.4396   8.4528   8.6539   8.6753   8.7764   8.8291
     8.9478   8.9551   9.1025   9.1352   9.2239   9.3542   9.3731   9.4120
     9.5886   9.6465   9.6791   9.7238   9.8424   9.8887   9.9342   9.9899
    10.1620  10.1884  10.2862  10.4345  10.4847  10.6165  10.6407  10.7987
    10.8338  10.9382  11.0389  11.0760  11.1460  11.1736  11.1802  11.5023
    11.6903  11.7035  11.7815  11.7879  11.8464  11.9998  12.1759  12.1881
    12.2453  12.3936  12.4287  12.5799  12.6425  12.7343  12.7388  12.8919
    12.9254  13.0594  13.0826  13.2434  13.2783  13.3837  13.4092  13.4730
    13.4992  13.6084  13.6325  13.7069  13.7505  13.8722  13.9059  13.9285
    13.9407  14.0919  14.1163  14.1288  14.2647  14.3154  14.3864  14.5274
    14.5727  14.6167  14.6384  14.7723  14.8738  14.9424  15.0787  15.0992
    15.1114  15.1920  15.2807  15.3703  15.3869  15.5053  15.5920  15.6108
    15.7925  15.8339  16.0113  16.1293  16.1743  16.1985  16.2659  16.4799
    16.5379  16.6111  16.7300  16.7641  16.7947  16.8990  16.9060  17.0167
    17.0863  17.1419  17.2509  17.4801  17.6269  17.6825  17.7439  17.8231
    17.9666  18.0315  18.0366  18.0981  18.1824  18.2070  18.3236  18.3591
    18.4618  18.5968  18.6204  18.6859

          k = 0.0000-0.4516 0.0000 ( 29906 PWs)   bands (ev):

   -60.8944 -60.8569 -60.4483 -60.4103 -59.2935 -59.2527 -58.9274 -58.8868
   -37.4670 -37.1609 -37.0587 -37.0559 -36.9564 -36.9272 -36.8903 -36.7963
   -36.7674 -36.6423 -36.5485 -36.4706 -35.9383 -35.6437 -35.5332 -35.4850
   -35.4168 -35.3932 -35.3514 -35.2711 -35.2351 -35.1694 -35.0727 -34.9421
   -22.2757 -21.9908 -20.9536 -20.7501 -20.2967 -20.2893 -19.9739 -19.8359
   -19.6882 -19.5744 -19.4749 -19.3267 -19.3150 -19.1726 -18.8458 -18.4359
   -18.0296 -18.0235 -10.0096  -9.5810  -8.2749  -8.1299  -8.0602  -7.7136
    -7.6619  -7.6481  -7.6335  -7.5502  -7.5291  -6.9849  -6.7872  -6.7029
    -6.6966  -6.6602  -6.6173  -6.5540  -6.3764  -6.2707  -6.1190  -6.0911
    -5.9998  -5.8781  -5.8692  -5.7237  -5.6595  -5.6425  -5.5412  -5.5346
    -5.4508  -5.3856  -5.3033  -5.2368  -5.1160  -5.0539  -4.7896  -4.7170
    -4.5104  -4.4632  -4.2754  -4.0211  -3.9720  -3.9129  -3.6409  -3.5980
    -3.5466  -3.4884  -3.4260  -3.4070  -3.0433  -2.8631  -2.8206  -2.6610
    -1.5759  -1.2623  -1.2508  -0.6466  -0.5332  -0.5324  -0.5269  -0.4712
    -0.4662  -0.0753  -0.0497   0.2599   0.3066   0.5117   0.6572   0.8230
     0.8562   0.8845   1.0161   1.0317   1.2525   1.2646   1.2711   1.4420
     1.4812   1.7834   1.8134   1.8889   1.9532   2.0973   2.1600   2.7475
     3.0974   3.1452   3.4415   3.8325   3.8758   3.9405   3.9593   4.1585
     4.2826   4.4412   4.5447   4.5870   4.7215   4.8031   4.8993   5.1733
     5.3599   5.7104   5.8891   6.0556   6.1711   6.5391   6.7530   6.9026
     7.1081   7.3129   7.3703   7.5050   7.6099   7.7841   8.0485   8.3551
     8.3653   8.5289   8.6264   8.6425   8.7186   8.7453   8.8585   8.8668
     8.9072   8.9513   9.0557   9.0580   9.1847   9.2749   9.3032   9.3546
     9.4167   9.5278   9.6295   9.8556   9.8651   9.9042   9.9897  10.2869
    10.3266  10.4047  10.5004  10.6442  10.6723  10.6992  10.9249  10.9601
    11.0993  11.1760  11.2193  11.2494  11.2699  11.3965  11.4062  11.4374
    11.5249  11.6702  11.7315  11.7821  11.8905  11.9098  12.0263  12.0811
    12.0953  12.1583  12.3303  12.6564  12.7031  12.7300  12.7905  12.8278
    12.9157  12.9384  12.9736  13.1306  13.1308  13.1806  13.2572  13.4140
    13.5550  13.5750  13.6818  13.7083  13.7767  13.8492  13.9090  14.0771
    14.1066  14.1538  14.2217  14.5234  14.6450  14.6746  14.6799  14.7545
    14.8431  14.9462  15.0705  15.1320  15.1776  15.2338  15.3107  15.3335
    15.3429  15.4434  15.4651  15.4666  15.6188  15.6456  15.6592  15.7277
    15.8306  15.8613  15.9118  15.9512  15.9925  16.0012  16.1191  16.2291
    16.2791  16.3431  16.3443  16.4045  16.4487  16.8051  16.8801  16.8896
    16.9640  16.9847  17.0003  17.0301  17.1712  17.3474  17.3546  17.4786
    17.5900  17.6265  17.6322  17.7267  17.8065  17.8507  17.8727  17.8990
    17.9162  17.9309  17.9663  18.0019

          k = 0.2500 0.0000 0.0000 ( 29937 PWs)   bands (ev):

   -60.8890 -60.8626 -60.4429 -60.4161 -59.2877 -59.2589 -58.9216 -58.8929
   -37.4087 -37.1467 -37.1194 -37.0711 -36.9545 -36.9298 -36.8309 -36.7916
   -36.7698 -36.6312 -36.5625 -36.5333 -35.8764 -35.6245 -35.5528 -35.5490
   -35.3885 -35.3727 -35.3365 -35.2628 -35.2416 -35.1593 -35.0850 -35.0090
   -22.2166 -22.0056 -20.9743 -20.8117 -20.3824 -20.2504 -19.8004 -19.7241
   -19.6169 -19.5450 -19.5340 -19.4227 -19.3013 -19.2082 -18.7975 -18.3827
   -18.1547 -18.0816  -9.9275  -9.6281  -8.2212  -8.1031  -8.0551  -8.0404
    -7.8699  -7.8106  -7.4524  -7.3504  -7.3061  -7.1638  -7.0921  -6.9430
    -6.9186  -6.8700  -6.8514  -6.7338  -6.5161  -6.4568  -6.2069  -6.0992
    -6.0150  -5.8728  -5.7540  -5.6023  -5.5727  -5.4471  -5.2424  -5.2258
    -5.2189  -5.1511  -4.9762  -4.9348  -4.8220  -4.8167  -4.7152  -4.7023
    -4.5936  -4.5461  -4.4921  -4.1685  -4.0232  -3.8547  -3.7177  -3.4796
    -3.4121  -3.3437  -3.3229  -3.1994  -3.1885  -2.9517  -2.8321  -2.7673
    -1.4139  -1.0259  -1.0170  -0.9413  -0.7920  -0.6687  -0.6161  -0.3965
    -0.3469  -0.2449  -0.0768   0.0528   0.1908   0.5387   0.5978   0.6527
     0.7273   0.7659   0.9901   1.0046   1.0365   1.3561   1.4725   1.5069
     1.7182   1.8115   1.8189   1.8494   1.9567   2.0155   2.5507   2.9225
     2.9616   3.1957   3.2037   3.3444   3.4382   3.6776   3.8075   3.8838
     4.0071   4.3041   4.3718   4.6316   4.8015   4.8798   5.4917   5.7283
     5.9010   5.9451   6.0721   6.2847   6.6978   6.7181   6.8423   7.0566
     7.1633   7.2552   7.3720   7.3940   7.6078   7.6823   7.8152   7.8442
     7.9573   8.0310   8.1989   8.4125   8.4791   8.6157   8.6389   8.8006
     8.8224   8.9215   9.0810   9.1317   9.2436   9.2964   9.3868   9.4458
     9.5258   9.6009   9.6045   9.6788   9.8360   9.9952  10.0069  10.1330
    10.1476  10.2590  10.3849  10.5256  10.5779  10.7213  10.7719  10.7955
    10.8648  10.9491  11.0469  11.0910  11.2019  11.3021  11.4194  11.4676
    11.5124  11.5744  11.6685  11.6735  11.7780  12.0044  12.0476  12.1221
    12.3205  12.4359  12.5091  12.5193  12.5561  12.6507  12.8227  12.8893
    13.0341  13.0795  13.1820  13.3523  13.4260  13.4422  13.6026  13.6508
    13.7106  13.7219  13.8087  13.8586  13.9443  14.0492  14.0936  14.2001
    14.2921  14.3434  14.3869  14.4257  14.5307  14.5890  14.6350  14.7277
    14.7908  14.8534  14.9067  14.9515  15.1317  15.1542  15.1645  15.4159
    15.4510  15.4963  15.5683  15.5955  15.6712  15.6952  15.8448  15.9530
    16.0182  16.1272  16.1898  16.2350  16.4000  16.4065  16.5962  16.6341
    16.6662  16.7699  16.8144  16.8359  16.8934  16.9338  17.0863  17.1357
    17.1480  17.2904  17.4299  17.4354  17.4930  17.5685  17.6729  17.7475
    17.8388  17.8488  17.9012  17.9616  18.0343  18.1227  18.1435  18.1919
    18.1938  18.3394  18.4195  18.4958

          k = 0.2500 0.2258 0.0000 ( 29912 PWs)   bands (ev):

   -60.8891 -60.8626 -60.4429 -60.4161 -59.2877 -59.2589 -58.9216 -58.8929
   -37.4088 -37.1467 -37.1194 -37.0712 -36.9532 -36.9306 -36.8315 -36.7916
   -36.7698 -36.6300 -36.5625 -36.5334 -35.8751 -35.6264 -35.5525 -35.5493
   -35.3885 -35.3727 -35.3364 -35.2643 -35.2409 -35.1593 -35.0850 -35.0090
   -22.2128 -22.0052 -20.9600 -20.8109 -20.3016 -20.2079 -19.8780 -19.7096
   -19.6431 -19.5528 -19.5369 -19.4831 -19.2914 -19.2650 -18.7720 -18.3827
   -18.1554 -18.0810  -9.9244  -9.6247  -8.1880  -8.0439  -7.8694  -7.8618
    -7.8130  -7.8087  -7.4264  -7.4230  -7.1706  -7.1679  -6.9957  -6.9464
    -6.9264  -6.8556  -6.7906  -6.5473  -6.5343  -6.3398  -6.2053  -6.1406
    -6.0853  -5.7936  -5.7839  -5.6733  -5.6491  -5.4462  -5.4342  -5.3361
    -5.2491  -5.1479  -5.1396  -5.0695  -4.9370  -4.8906  -4.8240  -4.7894
    -4.6706  -4.5555  -4.4743  -4.4676  -3.9695  -3.8399  -3.7357  -3.5406
    -3.4822  -3.3737  -3.2721  -3.2657  -3.1769  -2.9357  -2.8102  -2.7535
    -1.4067  -1.0978  -0.9814  -0.9006  -0.8304  -0.6634  -0.5837  -0.4732
    -0.1685  -0.0646   0.0811   0.1045   0.1897   0.4198   0.6762   0.7032
     0.8150   0.8308   1.0218   1.1013   1.1693   1.2916   1.5007   1.5164
     1.6619   1.7427   1.7653   1.8546   1.8621   2.0753   2.1541   2.7152
     3.0852   3.2693   3.3978   3.5843   3.6943   3.7325   3.8091   4.0027
     4.1048   4.4440   4.4506   4.6417   4.9418   4.9762   5.2268   5.6664
     5.8478   5.8503   5.9923   6.1151   6.1193   6.4345   6.4396   6.7994
     6.8156   7.1429   7.2133   7.3896   7.4832   7.7373   7.8291   7.8388
     7.8759   7.9701   8.0623   8.1955   8.4602   8.5223   8.5781   8.8235
     8.8443   8.9639   9.2229   9.2772   9.3525   9.3746   9.4036   9.5325
     9.6308   9.6431   9.9279   9.9794  10.0411  10.1837  10.2248  10.3812
    10.4517  10.6324  10.6632  10.6837  10.8538  10.8713  11.0041  11.0427
    11.1458  11.2676  11.3108  11.3828  11.4117  11.4482  11.5936  11.6468
    11.8144  11.8215  11.9022  11.9584  11.9726  12.0724  12.1037  12.3009
    12.3340  12.3450  12.4801  12.5730  12.6634  12.7428  12.7967  12.8502
    12.9518  13.0018  13.1378  13.1956  13.3306  13.4007  13.4935  13.5872
    13.6082  13.6976  13.8174  13.8207  13.8855  13.9408  13.9965  14.1133
    14.1437  14.2591  14.3285  14.3293  14.5065  14.5799  14.6147  14.6162
    14.7593  14.7732  14.9218  14.9586  15.0532  15.0732  15.1550  15.2341
    15.3645  15.3869  15.4658  15.5356  15.6433  15.7169  15.7541  15.8339
    15.8569  15.9260  15.9571  16.1027  16.1499  16.2766  16.2936  16.3884
    16.4228  16.5270  16.7040  16.7382  16.7819  16.8338  16.8451  16.8789
    16.9955  17.0234  17.0650  17.0807  17.2256  17.2680  17.3116  17.3854
    17.4399  17.4413  17.5412  17.5497  17.7149  17.8234  17.8994  18.0193
    18.0633  18.1807  18.1852  18.3092

          k = 0.2500-0.4516 0.0000 ( 29882 PWs)   bands (ev):

   -60.8891 -60.8626 -60.4429 -60.4160 -59.2877 -59.2589 -58.9216 -58.8929
   -37.4089 -37.1467 -37.1194 -37.0712 -36.9520 -36.9314 -36.8321 -36.7917
   -36.7698 -36.6287 -36.5624 -36.5336 -35.8738 -35.6281 -35.5524 -35.5495
   -35.3885 -35.3726 -35.3363 -35.2657 -35.2403 -35.1593 -35.0850 -35.0090
   -22.2091 -22.0047 -20.9462 -20.8101 -20.1812 -20.1609 -19.9220 -19.7605
   -19.7084 -19.6020 -19.5190 -19.4680 -19.3964 -19.2285 -18.7519 -18.3827
   -18.1561 -18.0805  -9.9204  -9.6221  -8.1768  -8.0286  -7.8667  -7.8074
    -7.6153  -7.5072  -7.4569  -7.3563  -7.2620  -6.9325  -6.8716  -6.8583
    -6.8347  -6.8101  -6.7774  -6.6006  -6.3515  -6.3093  -6.2790  -6.1147
    -6.0890  -5.8473  -5.8146  -5.7102  -5.6973  -5.4808  -5.4716  -5.4576
    -5.4377  -5.3287  -5.3259  -5.2669  -5.2656  -5.1704  -4.9194  -4.8441
    -4.7006  -4.5412  -4.4657  -4.3618  -3.8891  -3.8078  -3.7390  -3.5529
    -3.4826  -3.4229  -3.3481  -3.2104  -3.1946  -2.9423  -2.8240  -2.6983
    -1.4025  -1.1929  -1.1274  -0.7818  -0.7424  -0.6593  -0.5741  -0.5715
    -0.0820  -0.0492   0.1219   0.1899   0.3850   0.5360   0.6809   0.8104
     0.8327   0.9225   1.1100   1.2038   1.2227   1.2884   1.5007   1.5174
     1.5361   1.6801   1.7173   1.8311   1.8689   1.8915   2.1188   2.4398
     3.2172   3.3024   3.4339   3.7214   3.7387   3.9952   4.0205   4.2058
     4.3764   4.5155   4.5392   4.7129   4.8056   5.0125   5.1213   5.1787
     5.4641   5.6601   6.0138   6.0153   6.2582   6.3480   6.5254   6.7713
     6.8567   6.8742   7.0389   7.0842   7.1643   7.3822   7.4566   7.6123
     7.9030   7.9764   8.0766   8.0930   8.1909   8.4160   8.4946   8.6317
     8.7296   8.8886   9.1610   9.1930   9.3957   9.5010   9.7358   9.7874
     9.8786   9.8886   9.9335  10.3115  10.5734  10.7413  10.7767  10.8947
    10.9309  10.9409  11.0788  11.1120  11.2199  11.2391  11.3115  11.4008
    11.4760  11.4958  11.4999  11.5521  11.6810  11.6838  11.7082  11.7442
    11.7477  11.9231  11.9286  12.0550  12.1454  12.1588  12.2538  12.2786
    12.3214  12.3982  12.5262  12.5573  12.7208  12.7843  12.8276  12.9263
    12.9620  13.0620  13.0655  13.2336  13.2787  13.3481  13.4290  13.4570
    13.5526  13.5939  13.6862  13.7461  13.7869  13.8040  13.9017  13.9061
    13.9681  13.9765  14.0676  14.2073  14.3453  14.4012  14.4754  14.5295
    14.6069  14.6179  14.6868  14.7448  14.8363  14.8481  14.9744  15.0213
    15.0555  15.1271  15.1530  15.1878  15.2190  15.2658  15.4480  15.5158
    15.6368  15.7333  15.7706  15.7886  15.8624  16.1256  16.1870  16.3481
    16.5089  16.5140  16.5535  16.6360  16.6520  16.7389  16.8708  16.9384
    17.0419  17.1657  17.1941  17.2230  17.2555  17.3238  17.4417  17.4475
    17.5049  17.5482  17.6378  17.6476  17.7002  17.8500  17.8540  17.9530
    18.0058  18.0730  18.1042  18.1667

          k =-0.5000 0.0000 0.0000 ( 29982 PWs)   bands (ev):

   -60.8760 -60.8760 -60.4297 -60.4297 -59.2735 -59.2735 -58.9074 -58.9074
   -37.2665 -37.2665 -37.1084 -37.1084 -36.9421 -36.9421 -36.7823 -36.7823
   -36.6817 -36.6817 -36.5970 -36.5970 -35.7170 -35.7170 -35.5863 -35.5863
   -35.3761 -35.3761 -35.2521 -35.2521 -35.1950 -35.1950 -35.1066 -35.1066
   -22.0823 -22.0823 -20.9162 -20.9162 -20.1027 -20.1027 -19.9384 -19.9384
   -19.5732 -19.5732 -19.4229 -19.4229 -19.3750 -19.3750 -18.4944 -18.4944
   -18.2150 -18.2150  -9.7633  -9.7633  -8.1531  -8.1531  -7.7257  -7.7257
    -7.6312  -7.6312  -7.4845  -7.4845  -7.2552  -7.2552  -7.1967  -7.1967
    -7.0740  -7.0740  -6.8429  -6.8429  -6.3212  -6.3212  -6.2180  -6.2180
    -5.9277  -5.9277  -5.6412  -5.6412  -5.5109  -5.5109  -5.2800  -5.2800
    -5.1410  -5.1410  -4.8949  -4.8949  -4.8012  -4.8012  -4.6983  -4.6983
    -4.5365  -4.5365  -4.4358  -4.4358  -4.1252  -4.1252  -3.8284  -3.8284
    -3.5848  -3.5848  -3.0466  -3.0466  -3.0281  -3.0281  -2.9103  -2.9103
    -1.1031  -1.1031  -0.9721  -0.9721  -0.7637  -0.7637  -0.6743  -0.6743
    -0.0340  -0.0340   0.0235   0.0235   0.0994   0.0994   0.7260   0.7260
     0.7933   0.7933   0.9533   0.9533   1.3886   1.3886   1.4953   1.4953
     1.6079   1.6079   1.7243   1.7243   2.1370   2.1370   2.6811   2.6811
     3.3248   3.3248   3.4659   3.4659   3.4933   3.4933   3.8302   3.8302
     4.2434   4.2434   4.6320   4.6320   4.7254   4.7254   5.1180   5.1180
     5.5593   5.5593   6.1717   6.1717   6.6723   6.6723   6.8311   6.8311
     7.4406   7.4406   7.5048   7.5048   7.7790   7.7790   7.8661   7.8661
     8.1589   8.1589   8.1782   8.1782   8.3751   8.3751   8.6105   8.6105
     8.7987   8.7987   8.8275   8.8275   8.9970   8.9970   9.3813   9.3813
     9.6266   9.6266   9.7016   9.7016   9.7515   9.7515  10.0208  10.0208
    10.2281  10.2281  10.4005  10.4005  10.5857  10.5857  10.7382  10.7382
    10.9784  10.9784  11.3353  11.3353  11.5878  11.5878  11.6667  11.6667
    11.8691  11.8691  11.9280  11.9280  12.1601  12.1601  12.3042  12.3042
    12.6227  12.6227  12.7935  12.7935  12.9325  12.9325  13.1074  13.1074
    13.2671  13.2671  13.3224  13.3224  13.6540  13.6540  13.7580  13.7580
    13.9311  13.9311  14.1246  14.1246  14.2316  14.2316  14.2758  14.2758
    14.3210  14.3210  14.4066  14.4066  14.6435  14.6435  14.8839  14.8839
    15.0572  15.0572  15.2696  15.2696  15.3208  15.3208  15.4515  15.4515
    15.7630  15.7630  15.8736  15.8736  15.9587  15.9587  16.1771  16.1771
    16.2461  16.2461  16.4785  16.4785  16.5079  16.5079  16.5660  16.5660
    16.6642  16.6642  16.7746  16.7746  16.8454  16.8454  16.9289  16.9289
    17.0287  17.0287  17.1900  17.1900  17.2259  17.2259  17.5630  17.5630
    17.6450  17.6450  17.8690  17.8690  17.9724  17.9724  18.0152  18.0152
    18.1264  18.1264  18.2639  18.2639

          k =-0.5000 0.2258 0.0000 ( 29954 PWs)   bands (ev):

   -60.8760 -60.8760 -60.4297 -60.4297 -59.2735 -59.2735 -58.9074 -58.9074
   -37.2665 -37.2665 -37.1084 -37.1084 -36.9418 -36.9418 -36.7823 -36.7823
   -36.6821 -36.6821 -36.5964 -36.5964 -35.7164 -35.7162 -35.5874 -35.5873
   -35.3761 -35.3761 -35.2525 -35.2525 -35.1950 -35.1950 -35.1066 -35.1066
   -22.0809 -22.0808 -20.9110 -20.9109 -20.0363 -20.0363 -19.8927 -19.8922
   -19.6545 -19.6544 -19.4896 -19.4864 -19.3739 -19.3713 -18.4907 -18.4907
   -18.2147 -18.2147  -9.7548  -9.7542  -8.1545  -8.1540  -7.5893  -7.5683
    -7.4359  -7.4352  -7.3769  -7.3727  -7.2611  -7.2557  -7.1142  -7.0933
    -7.0081  -7.0057  -6.8518  -6.8091  -6.3929  -6.3394  -6.2389  -6.1975
    -6.0606  -6.0262  -5.8498  -5.8357  -5.5355  -5.5076  -5.3113  -5.2991
    -5.2293  -5.1719  -4.9976  -4.9970  -4.8964  -4.8955  -4.8574  -4.8230
    -4.7744  -4.7717  -4.4751  -4.4744  -4.1269  -4.1242  -3.6425  -3.6395
    -3.5914  -3.5698  -3.1398  -3.1314  -3.0049  -2.9525  -2.9114  -2.8352
    -1.0966  -1.0964  -0.9652  -0.9651  -0.8127  -0.7965  -0.6708  -0.6687
     0.0110   0.0118   0.1157   0.1158   0.4101   0.4104   0.5433   0.5467
     0.9036   0.9138   1.0529   1.0584   1.3590   1.3597   1.4982   1.4999
     1.6337   1.6373   1.7541   1.7566   1.9992   1.9993   2.3517   2.3518
     3.3128   3.3157   3.5531   3.5544   3.6687   3.6712   3.9677   3.9695
     4.3229   4.3262   4.7536   4.7546   4.8770   4.8771   5.2639   5.2694
     5.6432   5.6548   6.0131   6.0155   6.3970   6.4031   6.6354   6.6408
     6.7884   6.7969   6.8896   6.8919   7.2126   7.2175   7.5164   7.5210
     7.8732   7.8809   8.0961   8.1144   8.4604   8.4891   8.5556   8.5986
     8.7793   8.8270   9.2185   9.2257   9.6102   9.6254   9.7299   9.7394
     9.8748   9.8838  10.0052  10.0155  10.1684  10.1757  10.2669  10.2980
    10.6534  10.6615  10.7622  10.7756  10.9351  10.9490  10.9938  11.0000
    11.3305  11.3370  11.4798  11.4807  11.7959  11.7997  11.8814  11.8862
    11.9375  11.9654  12.1404  12.1455  12.3423  12.3453  12.4830  12.4887
    12.6934  12.7030  12.8399  12.8858  13.0265  13.0528  13.2435  13.2800
    13.4087  13.4315  13.4601  13.4638  13.4985  13.5052  13.6651  13.6658
    13.8784  13.8987  14.0268  14.0446  14.1126  14.1270  14.1912  14.2024
    14.2881  14.3073  14.3998  14.4195  14.5048  14.5214  14.8860  14.9122
    14.9962  15.0038  15.0399  15.0574  15.1979  15.2163  15.2849  15.2964
    15.3498  15.3672  15.4141  15.4240  15.4633  15.4663  15.5399  15.5528
    15.7383  15.7505  15.8083  15.8146  15.8742  15.8870  16.0366  16.0587
    16.2233  16.2393  16.3035  16.3113  16.4684  16.4709  16.5517  16.5628
    16.7344  16.7370  16.8619  16.8726  16.9176  16.9643  17.1336  17.1480
    17.2318  17.2411  17.2694  17.2912  17.5302  17.5359  17.6656  17.6717
    17.9177  17.9254  18.0366  18.0415

          k =-0.5000-0.4516 0.0000 ( 29868 PWs)   bands (ev):

   -60.8760 -60.8760 -60.4297 -60.4297 -59.2735 -59.2735 -58.9074 -58.9074
   -37.2666 -37.2666 -37.1083 -37.1083 -36.9415 -36.9415 -36.7824 -36.7824
   -36.6825 -36.6824 -36.5957 -36.5957 -35.7156 -35.7156 -35.5884 -35.5884
   -35.3761 -35.3761 -35.2529 -35.2529 -35.1949 -35.1949 -35.1066 -35.1066
   -22.0794 -22.0794 -20.9058 -20.9058 -19.8999 -19.8999 -19.8516 -19.8516
   -19.7778 -19.7777 -19.5731 -19.5731 -19.3724 -19.3724 -18.4873 -18.4873
   -18.2143 -18.2143  -9.7455  -9.7455  -8.1557  -8.1557  -7.5047  -7.5047
    -7.3766  -7.3766  -7.0844  -7.0844  -7.0412  -7.0412  -6.9587  -6.9587
    -6.9409  -6.9409  -6.7388  -6.7388  -6.5642  -6.5642  -6.3781  -6.3781
    -6.1646  -6.1646  -5.8836  -5.8836  -5.6229  -5.6229  -5.3631  -5.3631
    -5.2828  -5.2828  -5.1930  -5.1930  -5.1051  -5.1051  -5.0239  -5.0239
    -4.9311  -4.9311  -4.2796  -4.2796  -4.1209  -4.1209  -3.5787  -3.5787
    -3.4770  -3.4770  -3.2452  -3.2452  -2.9562  -2.9562  -2.8171  -2.8171
    -1.0881  -1.0881  -0.9326  -0.9325  -0.8629  -0.8629  -0.6698  -0.6698
     0.0322   0.0322   0.1731   0.1731   0.4525   0.4525   0.8499   0.8499
     1.0026   1.0026   1.0727   1.0727   1.4011   1.4011   1.5113   1.5113
     1.6469   1.6469   1.7377   1.7377   1.8392   1.8392   1.9845   1.9845
     3.3431   3.3431   3.5418   3.5418   3.8125   3.8125   4.2140   4.2140
     4.4364   4.4364   4.9078   4.9078   5.1126   5.1126   5.4958   5.4958
     5.5819   5.5819   5.7844   5.7844   5.9470   5.9470   6.2417   6.2417
     6.4390   6.4390   6.8243   6.8243   7.1287   7.1287   7.3276   7.3276
     7.6651   7.6651   7.8400   7.8400   8.0918   8.0918   8.6384   8.6384
     8.8654   8.8654   9.1915   9.1915   9.3209   9.3209   9.8674   9.8674
    10.1095  10.1095  10.3891  10.3891  10.6142  10.6142  10.9933  10.9933
    11.1652  11.1652  11.3944  11.3944  11.6761  11.6761  11.8362  11.8362
    11.9044  11.9044  11.9421  11.9421  12.1350  12.1350  12.3515  12.3515
    12.4346  12.4346  12.5138  12.5138  12.5676  12.5676  12.6247  12.6247
    12.7446  12.7446  12.8195  12.8195  12.9041  12.9041  13.0062  13.0062
    13.1394  13.1394  13.3137  13.3137  13.3718  13.3718  13.5629  13.5629
    13.6296  13.6296  13.8005  13.8005  13.9088  13.9088  14.0043  14.0043
    14.1142  14.1142  14.2027  14.2027  14.3382  14.3382  14.3669  14.3669
    14.4406  14.4406  14.5377  14.5377  14.6968  14.6968  14.7323  14.7323
    14.9693  14.9693  15.0170  15.0170  15.1006  15.1006  15.1186  15.1186
    15.4686  15.4686  15.6463  15.6463  15.7635  15.7635  15.8070  15.8070
    15.8755  15.8755  16.0661  16.0661  16.1349  16.1349  16.2336  16.2336
    16.4652  16.4652  16.6858  16.6858  16.8671  16.8671  17.0762  17.0762
    17.1566  17.1566  17.2864  17.2864  17.3730  17.3730  17.4774  17.4774
    17.7240  17.7240  17.8367  17.8367

          k =-0.2500 0.2258 0.0000 ( 29912 PWs)   bands (ev):

   -60.8891 -60.8626 -60.4429 -60.4161 -59.2877 -59.2589 -58.9216 -58.8929
   -37.4088 -37.1467 -37.1194 -37.0712 -36.9532 -36.9306 -36.8315 -36.7916
   -36.7698 -36.6300 -36.5625 -36.5334 -35.8752 -35.6262 -35.5527 -35.5492
   -35.3885 -35.3727 -35.3364 -35.2643 -35.2409 -35.1593 -35.0850 -35.0090
   -22.2128 -22.0052 -20.9600 -20.8109 -20.3016 -20.2080 -19.8780 -19.7086
   -19.6430 -19.5525 -19.5367 -19.4858 -19.2918 -19.2634 -18.7720 -18.3827
   -18.1554 -18.0810  -9.9242  -9.6257  -8.1888  -8.0390  -7.8656  -7.8619
    -7.8151  -7.8087  -7.4310  -7.4291  -7.1746  -7.1698  -6.9987  -6.9418
    -6.9226  -6.8359  -6.7988  -6.5508  -6.5235  -6.3353  -6.2029  -6.1563
    -6.0843  -5.8061  -5.7961  -5.6584  -5.6298  -5.4469  -5.4223  -5.3649
    -5.2571  -5.1595  -5.1289  -5.0633  -4.9546  -4.8994  -4.8279  -4.7722
    -4.6611  -4.5542  -4.4775  -4.4633  -3.9608  -3.8314  -3.7347  -3.5074
    -3.4593  -3.4021  -3.2985  -3.2585  -3.1913  -2.9474  -2.8530  -2.7066
    -1.4066  -1.0994  -0.9661  -0.9004  -0.8302  -0.6631  -0.5950  -0.4737
    -0.1686  -0.0643   0.0811   0.1037   0.1877   0.4180   0.6832   0.7040
     0.8165   0.8251   1.0213   1.0926   1.1806   1.2955   1.4943   1.5182
     1.6596   1.7427   1.7647   1.8542   1.8622   2.0756   2.1545   2.7153
     3.0870   3.2686   3.3976   3.5848   3.6946   3.7327   3.8107   4.0054
     4.1042   4.4466   4.4515   4.6416   4.9460   4.9796   5.2261   5.6639
     5.8488   5.8503   5.9925   6.1078   6.1123   6.4175   6.4410   6.8003
     6.8051   7.1450   7.2241   7.3811   7.5050   7.7302   7.8269   7.8690
     7.8748   7.9765   8.0302   8.2014   8.4491   8.5221   8.6015   8.8142
     8.8345   8.9651   9.2250   9.3060   9.3621   9.3661   9.4047   9.5293
     9.6151   9.6391   9.9282   9.9432  10.0451  10.1841  10.2474  10.3678
    10.4584  10.6326  10.6340  10.6970  10.8665  10.8754  11.0016  11.0414
    11.1460  11.2745  11.3111  11.3906  11.4158  11.4496  11.5966  11.6473
    11.8187  11.8316  11.8985  11.9623  11.9706  12.0765  12.1103  12.2885
    12.3496  12.3548  12.5008  12.6099  12.6833  12.7121  12.7848  12.8706
    12.9089  13.0054  13.1312  13.2112  13.3184  13.3911  13.4653  13.5536
    13.6158  13.6985  13.7860  13.7864  13.8763  13.9324  14.0174  14.1163
    14.1529  14.2536  14.3159  14.3288  14.5191  14.5756  14.6135  14.6264
    14.7758  14.7956  14.8995  14.9479  15.0629  15.1004  15.1724  15.2529
    15.3600  15.3930  15.4694  15.5496  15.6315  15.7598  15.7633  15.8292
    15.8345  15.9266  15.9361  16.1072  16.1613  16.2323  16.2548  16.3638
    16.4025  16.5296  16.6808  16.7227  16.7784  16.8339  16.8408  16.8771
    16.9932  16.9967  17.0493  17.1003  17.2495  17.2683  17.3002  17.3884
    17.4521  17.4737  17.5512  17.5796  17.7550  17.8277  17.9073  18.0094
    18.0535  18.1811  18.2275  18.3107

     the Fermi energy is    -2.6056 ev

!    total energy              =   -1534.40274602 Ry
     Harris-Foulkes estimate   =   -1534.40274622 Ry
     estimated scf accuracy    <       0.00000023 Ry

     The total energy is the sum of the following terms:

     one-electron contribution =  -18417.65120091 Ry
     hartree contribution      =    9223.30230204 Ry
     xc contribution           =    -269.90970122 Ry
     ewald contribution        =    7929.27853540 Ry
     Hubbard energy            =       0.57617824 Ry
     smearing contrib. (-TS)   =       0.00114043 Ry

     convergence has been achieved in  21 iterations

     Forces acting on atoms (Ry/au):


     negative rho (up, down):  0.103E+00 0.000E+00
     atom    1 type  1   force =    -0.00005183   -0.01579227   -0.00395164
     atom    2 type  1   force =     0.00000532    0.02395172   -0.00265270
     atom    3 type  2   force =     0.00019141   -0.01565862   -0.00101291
     atom    4 type  2   force =    -0.00544540    0.00848349   -0.00025260
     atom    5 type  1   force =     0.00380141   -0.11060256    0.00023853
     atom    6 type  1   force =    -0.00134874    0.11019977    0.00009437
     atom    7 type  1   force =    -0.00005530    0.00103347   -0.00229237
     atom    8 type  1   force =     0.00304899   -0.00158953    0.00246352
     atom    9 type  2   force =    -0.00078358    0.00010549   -0.00216543
     atom   10 type  2   force =    -0.00004873   -0.00027560    0.00448449
     atom   11 type  1   force =     0.00007868   -0.04264986    0.00045066
     atom   12 type  1   force =    -0.00000194    0.04270007    0.00047513
     atom   13 type  1   force =     0.00056030   -0.00004811    0.00466797
     atom   14 type  1   force =    -0.00005178   -0.01579225   -0.00395164
     atom   15 type  1   force =     0.00000536    0.02395171   -0.00265267
     atom   16 type  2   force =     0.00019145   -0.01565862   -0.00101291
     atom   17 type  2   force =    -0.00544542    0.00848345   -0.00025257
     atom   18 type  1   force =     0.00380135   -0.11060256    0.00023865
     atom   19 type  1   force =    -0.00134872    0.11019975    0.00009448
     atom   20 type  1   force =    -0.00005506    0.00103344   -0.00229248
     atom   21 type  1   force =     0.00304973   -0.00158954    0.00246343
     atom   22 type  2   force =    -0.00078356    0.00010551   -0.00216572
     atom   23 type  2   force =    -0.00004872   -0.00027559    0.00448444
     atom   24 type  1   force =     0.00007895   -0.04264980    0.00045055
     atom   25 type  1   force =    -0.00000168    0.04269998    0.00047504
     atom   26 type  1   force =     0.00056088   -0.00004812    0.00466812
     atom   27 type  3   force =     0.00005943   -0.00009604   -0.00050937
     atom   28 type  3   force =     0.00005944   -0.00009605   -0.00050936
     atom   29 type  3   force =    -0.00001111    0.00023863   -0.00003750
     atom   30 type  3   force =    -0.00001111    0.00023863   -0.00003750

     Total force =     0.012844     Total SCF correction =     0.001002

     BFGS Geometry Optimization

     number of scf cycles    =   1
     number of bfgs steps    =   0

     energy   new            =   -1534.4027460231 Ry

     new trust radius        =       0.0046681224 bohr
     new conv_thr            =       0.0000010000 Ry


ATOMIC_POSITIONS (crystal)
O0       0.000000000   0.000000000   0.379651316    0   0   1
O0       0.000000000   0.500000000   0.400067180    0   0   1
Ti1      0.250000000   0.500000000   0.450639831    0   0   1
Ti1      0.000000000   0.000000000   0.452564970    0   0   1
O0       0.250000000   0.810000000   0.451004750    0   0   1
O0       0.250000000   0.190000000   0.452091879    0   0   1
O0       0.000000000   0.500000000   0.498974355    0   0   1
O0       0.000000000   0.000000000   0.526629053    0   0   1
Ti1      0.250000000   0.000000000   0.580986882    0   0   1
Ti1      0.000000000   0.500000000   0.569679294    0   0   1
O0       0.250000000   0.690000000   0.580348973    0   0   1
O0       0.250000000   0.310000000   0.580359461    0   0   1
O0       0.000000000   0.000000000   0.622402948    0   0   1
O0       0.500000000   0.000000000   0.379651316    0   0   1
O0       0.500000000   0.500000000   0.400067181    0   0   1
Ti1      0.750000000   0.500000000   0.450639831    0   0   1
Ti1      0.500000000   0.000000000   0.452564971    0   0   1
O0       0.750000000   0.810000000   0.451004752    0   0   1
O0       0.750000000   0.190000000   0.452091881    0   0   1
O0       0.500000000   0.500000000   0.498974353    0   0   1
O0       0.500000000   0.000000000   0.526629051    0   0   1
Ti1      0.750000000   0.000000000   0.580986877    0   0   1
Ti1      0.500000000   0.500000000   0.569679293    0   0   1
O0       0.750000000   0.690000000   0.580348971    0   0   1
O0       0.750000000   0.310000000   0.580359459    0   0   1
O0       0.500000000   0.000000000   0.622402951    0   0   1
H2      -0.000534705   0.631552271   0.381369858
H2       0.499465295   0.631552271   0.381369858
H2       0.150179010   0.022789202   0.364799253
H2       0.650179011   0.022789203   0.364799253


     Check: negative starting charge=   -0.102816
     NEW-OLD atomic charge density approx. for the potential

     Check: negative/imaginary core charge=   -0.000005    0.000000
     Check: negative starting charge=   -0.102735

     negative rho (up, down):  0.103E+00 0.000E+00
 Atomic wfc used for LDA+U Projector are NOT orthogonalized

     total cpu time spent up to now is     4243.2 secs

     per-process dynamical memory:   369.5 Mb

     Self-consistent Calculation

     iteration #  1     ecut=    40.00 Ry     beta=0.70
     Davidson diagonalization with overlap
     ethr =  1.00E-06,  avg # of iterations =  3.0
 --- enter write_ns ---
 LDA+U parameters:
U( 2)     =  1.00000000
alpha( 2) =  0.00000000
atom    3   Tr[ns(na)] =   2.81223
    eigenvalues: 
  0.174  0.199  0.231  0.399  0.402
    eigenvectors:
  0.793  0.000  0.011  0.197  0.000
  0.000  0.003  0.000  0.000  0.997
  0.011  0.000  0.988  0.000  0.000
  0.196  0.000  0.001  0.803  0.000
  0.000  0.997  0.000  0.000  0.003
    occupations:
  0.219 -0.000 -0.004  0.089 -0.000
 -0.000  0.402  0.000  0.000  0.010
 -0.004  0.000  0.231  0.006 -0.000
  0.089  0.000  0.006  0.355 -0.000
 -0.000  0.010 -0.000 -0.000  0.199
atom    4   Tr[ns(na)] =   2.94121
    eigenvalues: 
  0.176  0.213  0.241  0.409  0.432
    eigenvectors:
  0.006  0.004  0.000  0.000  0.990
  0.001  0.956  0.038  0.000  0.004
  0.000  0.038  0.962  0.000  0.000
  0.993  0.002  0.000  0.000  0.005
  0.000  0.000  0.000  1.000  0.000
    occupations:
  0.430  0.014  0.003 -0.019 -0.000
  0.014  0.215 -0.005  0.000 -0.002
  0.003 -0.005  0.240  0.001 -0.000
 -0.019  0.000  0.001  0.178 -0.000
 -0.000 -0.002 -0.000 -0.000  0.409
atom    9   Tr[ns(na)] =   2.92904
    eigenvalues: 
  0.187  0.227  0.245  0.372  0.434
    eigenvectors:
  0.000  0.000  0.924  0.076  0.000
  0.000  0.000  0.000  0.000  1.000
  1.000  0.000  0.000  0.000  0.000
  0.000  0.000  0.076  0.924  0.000
  0.000  1.000  0.000  0.000  0.000
    occupations:
  0.254 -0.000 -0.000  0.034  0.000
 -0.000  0.434  0.000 -0.000 -0.000
 -0.000  0.000  0.187  0.000  0.000
  0.034 -0.000  0.000  0.362 -0.000
  0.000 -0.000  0.000 -0.000  0.227
atom   10   Tr[ns(na)] =   2.85373
    eigenvalues: 
  0.188  0.234  0.239  0.335  0.431
    eigenvectors:
  0.024  0.000  0.000  0.976  0.000
  0.000  0.000  1.000  0.000  0.000
  0.000  1.000  0.000  0.000  0.000
  0.976  0.000  0.000  0.024  0.000
  0.000  0.000  0.000  0.000  1.000
    occupations:
  0.331 -0.000 -0.000 -0.023 -0.000
 -0.000  0.239 -0.000 -0.000  0.000
 -0.000 -0.000  0.235 -0.000  0.000
 -0.023 -0.000 -0.000  0.191 -0.000
 -0.000  0.000  0.000 -0.000  0.431
atom   16   Tr[ns(na)] =   2.81223
    eigenvalues: 
  0.174  0.199  0.231  0.399  0.402
    eigenvectors:
  0.793  0.000  0.011  0.197  0.000
  0.000  0.003  0.000  0.000  0.997
  0.011  0.000  0.988  0.000  0.000
  0.196  0.000  0.001  0.803  0.000
  0.000  0.997  0.000  0.000  0.003
    occupations:
  0.219 -0.000 -0.004  0.089 -0.000
 -0.000  0.402  0.000  0.000  0.010
 -0.004  0.000  0.231  0.006 -0.000
  0.089  0.000  0.006  0.355 -0.000
 -0.000  0.010 -0.000 -0.000  0.199
atom   17   Tr[ns(na)] =   2.94121
    eigenvalues: 
  0.176  0.213  0.241  0.409  0.432
    eigenvectors:
  0.006  0.004  0.000  0.000  0.990
  0.001  0.956  0.038  0.000  0.004
  0.000  0.038  0.962  0.000  0.000
  0.993  0.002  0.000  0.000  0.005
  0.000  0.000  0.000  1.000  0.000
    occupations:
  0.430  0.014  0.003 -0.019 -0.000
  0.014  0.215 -0.005  0.000 -0.002
  0.003 -0.005  0.240  0.001 -0.000
 -0.019  0.000  0.001  0.178 -0.000
 -0.000 -0.002 -0.000 -0.000  0.409
atom   22   Tr[ns(na)] =   2.92905
    eigenvalues: 
  0.187  0.227  0.245  0.372  0.434
    eigenvectors:
  0.000  0.000  0.924  0.076  0.000
  0.000  0.000  0.000  0.000  1.000
  1.000  0.000  0.000  0.000  0.000
  0.000  0.000  0.076  0.924  0.000
  0.000  1.000  0.000  0.000  0.000
    occupations:
  0.254 -0.000 -0.000  0.034  0.000
 -0.000  0.434  0.000 -0.000 -0.000
 -0.000  0.000  0.187  0.000  0.000
  0.034 -0.000  0.000  0.362 -0.000
  0.000 -0.000  0.000 -0.000  0.227
atom   23   Tr[ns(na)] =   2.85372
    eigenvalues: 
  0.188  0.234  0.239  0.335  0.431
    eigenvectors:
  0.024  0.000  0.000  0.976  0.000
  0.000  0.000  1.000  0.000  0.000
  0.000  1.000  0.000  0.000  0.000
  0.976  0.000  0.000  0.024  0.000
  0.000  0.000  0.000  0.000  1.000
    occupations:
  0.331 -0.000 -0.000 -0.023 -0.000
 -0.000  0.239 -0.000 -0.000  0.000
 -0.000 -0.000  0.234 -0.000  0.000
 -0.023 -0.000 -0.000  0.191 -0.000
 -0.000  0.000  0.000 -0.000  0.431
N of occupied +U levels =  23.0724415
 --- exit write_ns ---

     Threshold (ethr) on eigenvalues was too large:
     Diagonalizing with lowered threshold

     Davidson diagonalization with overlap
     ethr =  3.83E-08,  avg # of iterations =  1.5

     negative rho (up, down):  0.103E+00 0.000E+00

     total cpu time spent up to now is     4540.2 secs

     total energy              =   -1534.40282201 Ry
     Harris-Foulkes estimate   =   -1534.40288338 Ry
     estimated scf accuracy    <       0.00008164 Ry

     iteration #  2     ecut=    40.00 Ry     beta=0.70
     Davidson diagonalization with overlap
     ethr =  3.93E-08,  avg # of iterations =  2.2

     negative rho (up, down):  0.103E+00 0.000E+00

     total cpu time spent up to now is     4701.9 secs

     total energy              =   -1534.40278175 Ry
     Harris-Foulkes estimate   =   -1534.40295263 Ry
     estimated scf accuracy    <       0.00054063 Ry

     iteration #  3     ecut=    40.00 Ry     beta=0.70
     Davidson diagonalization with overlap
     ethr =  3.93E-08,  avg # of iterations =  2.0

     negative rho (up, down):  0.103E+00 0.000E+00

     total cpu time spent up to now is     4858.3 secs

     total energy              =   -1534.40286360 Ry
     Harris-Foulkes estimate   =   -1534.40286925 Ry
     estimated scf accuracy    <       0.00001464 Ry

     iteration #  4     ecut=    40.00 Ry     beta=0.70
     Davidson diagonalization with overlap
     ethr =  7.04E-09,  avg # of iterations =  2.0

     negative rho (up, down):  0.103E+00 0.000E+00

     total cpu time spent up to now is     5011.0 secs

     total energy              =   -1534.40286552 Ry
     Harris-Foulkes estimate   =   -1534.40286832 Ry
     estimated scf accuracy    <       0.00000827 Ry

     iteration #  5     ecut=    40.00 Ry     beta=0.70
     Davidson diagonalization with overlap
     ethr =  3.98E-09,  avg # of iterations =  1.3

     negative rho (up, down):  0.103E+00 0.000E+00

     total cpu time spent up to now is     5159.3 secs

     End of self-consistent calculation
 --- enter write_ns ---
 LDA+U parameters:
U( 2)     =  1.00000000
alpha( 2) =  0.00000000
atom    3   Tr[ns(na)] =   2.81290
    eigenvalues: 
  0.174  0.199  0.231  0.399  0.403
    eigenvectors:
  0.792  0.000  0.011  0.197  0.000
  0.000  0.003  0.000  0.000  0.997
  0.011  0.000  0.988  0.000  0.000
  0.196  0.000  0.001  0.803  0.000
  0.000  0.997  0.000  0.000  0.003
    occupations:
  0.219 -0.000 -0.004  0.089 -0.000
 -0.000  0.402  0.000  0.000  0.010
 -0.004  0.000  0.231  0.006 -0.000
  0.089  0.000  0.006  0.355 -0.000
 -0.000  0.010 -0.000 -0.000  0.199
atom    4   Tr[ns(na)] =   2.94410
    eigenvalues: 
  0.176  0.213  0.242  0.409  0.432
    eigenvectors:
  0.006  0.004  0.000  0.000  0.990
  0.001  0.956  0.038  0.000  0.004
  0.000  0.038  0.962  0.000  0.000
  0.993  0.002  0.000  0.000  0.005
  0.000  0.000  0.000  1.000  0.000
    occupations:
  0.430  0.014  0.003 -0.019 -0.000
  0.014  0.215 -0.005  0.000 -0.002
  0.003 -0.005  0.241  0.001 -0.000
 -0.019  0.000  0.001  0.178 -0.000
 -0.000 -0.002 -0.000 -0.000  0.409
atom    9   Tr[ns(na)] =   2.92826
    eigenvalues: 
  0.187  0.227  0.245  0.372  0.434
    eigenvectors:
  0.000  0.000  0.924  0.076  0.000
  0.000  0.000  0.000  0.000  1.000
  1.000  0.000  0.000  0.000  0.000
  0.000  0.000  0.076  0.924  0.000
  0.000  1.000  0.000  0.000  0.000
    occupations:
  0.254 -0.000 -0.000  0.034  0.000
 -0.000  0.434  0.000 -0.000 -0.000
 -0.000  0.000  0.187  0.000  0.000
  0.034 -0.000  0.000  0.362 -0.000
  0.000 -0.000  0.000 -0.000  0.227
atom   10   Tr[ns(na)] =   2.85647
    eigenvalues: 
  0.188  0.235  0.239  0.335  0.431
    eigenvectors:
  0.024  0.000  0.000  0.976  0.000
  0.000  0.000  1.000  0.000  0.000
  0.000  1.000  0.000  0.000  0.000
  0.976  0.000  0.000  0.024  0.000
  0.000  0.000  0.000  0.000  1.000
    occupations:
  0.331 -0.000 -0.000 -0.023 -0.000
 -0.000  0.239 -0.000 -0.000  0.000
 -0.000 -0.000  0.235 -0.000  0.000
 -0.023 -0.000 -0.000  0.191 -0.000
 -0.000  0.000  0.000 -0.000  0.431
atom   16   Tr[ns(na)] =   2.81290
    eigenvalues: 
  0.174  0.199  0.231  0.399  0.403
    eigenvectors:
  0.792  0.000  0.011  0.197  0.000
  0.000  0.003  0.000  0.000  0.997
  0.011  0.000  0.988  0.000  0.000
  0.196  0.000  0.001  0.803  0.000
  0.000  0.997  0.000  0.000  0.003
    occupations:
  0.219 -0.000 -0.004  0.089 -0.000
 -0.000  0.402  0.000  0.000  0.010
 -0.004  0.000  0.231  0.006 -0.000
  0.089  0.000  0.006  0.355 -0.000
 -0.000  0.010 -0.000 -0.000  0.199
atom   17   Tr[ns(na)] =   2.94410
    eigenvalues: 
  0.176  0.213  0.242  0.409  0.432
    eigenvectors:
  0.006  0.004  0.000  0.000  0.990
  0.001  0.956  0.038  0.000  0.004
  0.000  0.038  0.962  0.000  0.000
  0.993  0.002  0.000  0.000  0.005
  0.000  0.000  0.000  1.000  0.000
    occupations:
  0.430  0.014  0.003 -0.019 -0.000
  0.014  0.215 -0.005  0.000 -0.002
  0.003 -0.005  0.241  0.001 -0.000
 -0.019  0.000  0.001  0.178 -0.000
 -0.000 -0.002 -0.000 -0.000  0.409
atom   22   Tr[ns(na)] =   2.92826
    eigenvalues: 
  0.187  0.227  0.245  0.372  0.434
    eigenvectors:
  0.000  0.000  0.924  0.076  0.000
  0.000  0.000  0.000  0.000  1.000
  1.000  0.000  0.000  0.000  0.000
  0.000  0.000  0.076  0.924  0.000
  0.000  1.000  0.000  0.000  0.000
    occupations:
  0.254 -0.000 -0.000  0.034  0.000
 -0.000  0.434  0.000 -0.000 -0.000
 -0.000  0.000  0.187  0.000  0.000
  0.034 -0.000  0.000  0.362 -0.000
  0.000 -0.000  0.000 -0.000  0.227
atom   23   Tr[ns(na)] =   2.85647
    eigenvalues: 
  0.188  0.235  0.239  0.335  0.431
    eigenvectors:
  0.024  0.000  0.000  0.976  0.000
  0.000  0.000  1.000  0.000  0.000
  0.000  1.000  0.000  0.000  0.000
  0.976  0.000  0.000  0.024  0.000
  0.000  0.000  0.000  0.000  1.000
    occupations:
  0.331 -0.000 -0.000 -0.023 -0.000
 -0.000  0.239 -0.000 -0.000  0.000
 -0.000 -0.000  0.235 -0.000  0.000
 -0.023 -0.000 -0.000  0.191 -0.000
 -0.000  0.000  0.000 -0.000  0.431
N of occupied +U levels =  23.0834526
 --- exit write_ns ---

          k = 0.0000 0.0000 0.0000 ( 29975 PWs)   bands (ev):

   -60.8955 -60.8581 -60.4632 -60.4253 -59.3052 -59.2646 -58.9337 -58.8933
   -37.4672 -37.1618 -37.0591 -37.0568 -36.9619 -36.9270 -36.9038 -36.8083
   -36.7797 -36.6603 -36.5631 -36.4854 -35.9528 -35.6507 -35.5448 -35.4963
   -35.4207 -35.4036 -35.3611 -35.2745 -35.2445 -35.1748 -35.0782 -34.9468
   -22.2874 -21.9934 -20.9948 -20.7486 -20.5004 -20.3787 -19.8009 -19.6823
   -19.6433 -19.6013 -19.4200 -19.3732 -19.2832 -19.1438 -18.9270 -18.4428
   -18.0301 -18.0265 -10.0104  -9.5653  -8.3354  -8.2878  -8.2787  -8.0840
    -8.0308  -7.7054  -7.5260  -7.2472  -7.2454  -7.1116  -7.0839  -6.9097
    -6.8066  -6.7781  -6.7595  -6.7559  -6.6278  -6.6208  -6.2233  -6.0566
    -5.9719  -5.7430  -5.6866  -5.5478  -5.5274  -5.5088  -5.4691  -5.4635
    -5.3534  -5.2093  -5.1375  -4.8835  -4.8528  -4.7495  -4.7307  -4.7018
    -4.6097  -4.3473  -4.1724  -4.0885  -3.8566  -3.7754  -3.6988  -3.4557
    -3.3907  -3.3327  -3.2939  -3.0396  -3.0245  -2.9768  -2.8197  -2.7090
    -1.6007  -1.0506  -1.0140  -0.9620  -0.8452  -0.5820  -0.5306  -0.4945
    -0.4736  -0.1166  -0.0805  -0.0086   0.2673   0.4522   0.4975   0.6373
     0.7126   0.8372   0.8622   0.8760   1.1064   1.2497   1.3930   1.4117
     1.7049   1.8580   1.8664   1.9114   1.9568   2.0861   2.5226   2.6028
     3.0473   3.0882   3.1336   3.2647   3.4524   3.4858   3.6339   3.8890
     4.0577   4.2487   4.4738   4.5341   4.7829   5.2507   5.5819   5.6917
     5.7936   6.4400   6.5858   6.6014   6.7962   6.9291   7.0905   7.1017
     7.1326   7.3330   7.4450   7.5818   7.6844   7.7258   7.7417   7.9014
     7.9337   8.0597   8.1340   8.2130   8.3267   8.4691   8.5103   8.5809
     8.5934   8.7780   8.8644   8.8664   9.1064   9.1375   9.2069   9.3244
     9.3435   9.6093   9.7377   9.8410   9.8992   9.9067  10.1307  10.5535
    10.6192  10.6638  10.6726  10.7209  10.7575  10.8149  10.8776  10.9583
    11.0121  11.0859  11.1480  11.2860  11.3354  11.3363  11.3509  11.3738
    11.4085  11.4758  11.6031  11.6379  11.7699  11.8023  11.8310  11.9162
    12.0298  12.1560  12.2126  12.2158  12.2336  12.3050  12.3252  12.4006
    12.5571  12.7200  12.7466  12.8946  12.9109  12.9863  13.0448  13.1718
    13.3615  13.4539  13.4813  13.5003  13.5988  13.7166  13.7558  13.9350
    13.9511  14.0467  14.0887  14.2158  14.3039  14.3587  14.4400  14.4936
    14.6590  14.7707  14.7892  14.9123  14.9992  15.0307  15.1310  15.1650
    15.1775  15.4068  15.4398  15.4755  15.4816  15.7263  15.7330  16.1188
    16.1209  16.2655  16.3470  16.3805  16.4873  16.5123  16.5336  16.5897
    16.5975  16.8744  16.9134  16.9474  17.0712  17.3155  17.3560  17.3589
    17.4448  17.5389  17.5720  17.5886  17.6392  17.6934  17.7765  17.9403
    18.0123  18.0301  18.0592  18.1071  18.1792  18.1796  18.3090  18.3325
    18.4743  18.4968  18.5041  18.6224

          k = 0.0000 0.2258 0.0000 ( 29933 PWs)   bands (ev):

   -60.8955 -60.8581 -60.4632 -60.4252 -59.3052 -59.2645 -58.9337 -58.8933
   -37.4673 -37.1618 -37.0591 -37.0568 -36.9603 -36.9283 -36.9045 -36.8083
   -36.7797 -36.6588 -36.5633 -36.4854 -35.9512 -35.6529 -35.5447 -35.4963
   -35.4205 -35.4036 -35.3611 -35.2765 -35.2435 -35.1748 -35.0782 -34.9468
   -22.2823 -21.9931 -20.9733 -20.7481 -20.4191 -20.3425 -19.9211 -19.7670
   -19.5944 -19.5565 -19.5276 -19.3342 -19.2440 -19.2313 -18.8811 -18.4433
   -18.0300 -18.0258 -10.0099  -9.5731  -8.2749  -8.1928  -8.0723  -8.0416
    -7.8971  -7.6985  -7.5261  -7.4872  -7.3785  -7.0728  -7.0358  -6.8067
    -6.7834  -6.7571  -6.7498  -6.5953  -6.3422  -6.2436  -6.2204  -6.1736
    -5.9664  -5.9072  -5.8838  -5.6606  -5.5969  -5.5402  -5.4566  -5.4303
    -5.2918  -5.2465  -5.1658  -5.0591  -5.0285  -4.9187  -4.7003  -4.6697
    -4.4670  -4.4482  -4.3143  -4.3044  -3.8933  -3.8445  -3.6851  -3.4753
    -3.4399  -3.3865  -3.3734  -3.3133  -3.0363  -2.9306  -2.8248  -2.6910
    -1.5850  -1.1315  -1.0654  -0.8463  -0.7278  -0.5306  -0.5136  -0.5070
    -0.2882  -0.1088  -0.1060  -0.0719   0.2615   0.4755   0.6791   0.7379
     0.8399   0.8681   0.8760   0.8771   1.2142   1.2218   1.3378   1.4110
     1.5642   1.8102   1.8358   1.9322   2.0419   2.0884   2.1112   2.8527
     2.9560   3.1159   3.2711   3.5548   3.7143   3.7947   3.8186   3.9427
     3.9590   4.3300   4.5236   4.6929   4.7849   4.9471   5.4195   5.5721
     5.6855   5.7900   5.8168   6.1615   6.5330   6.7152   6.8554   7.1073
     7.2101   7.4145   7.4730   7.5169   7.5711   7.7706   7.9146   8.0907
     8.2175   8.2507   8.4351   8.4534   8.6528   8.6749   8.7728   8.8289
     8.9456   8.9577   9.1008   9.1362   9.2258   9.3551   9.3752   9.4144
     9.5847   9.6446   9.6770   9.7233   9.8446   9.8903   9.9360   9.9901
[...]
    16.5162  16.5219  16.5582  16.6353  16.6512  16.7319  16.8654  16.9343
    17.0306  17.1674  17.1868  17.2116  17.2418  17.3282  17.4442  17.4461
    17.5026  17.5523  17.6316  17.6480  17.7004  17.8491  17.8560  17.9528
    18.0121  18.0797  18.1036  18.1728

          k =-0.5000 0.0000 0.0000 ( 29982 PWs)   bands (ev):

   -60.8964 -60.8964 -60.4608 -60.4608 -59.3176 -59.3176 -58.9174 -58.9174
   -37.2824 -37.2824 -37.1249 -37.1249 -36.9653 -36.9653 -36.8067 -36.8067
   -36.7122 -36.7122 -36.6281 -36.6281 -35.7599 -35.7599 -35.6296 -35.6296
   -35.4120 -35.4120 -35.2640 -35.2640 -35.1994 -35.1994 -35.1135 -35.1135
   -22.0744 -22.0744 -20.9093 -20.9093 -20.1255 -20.1255 -19.9626 -19.9626
   -19.5979 -19.5979 -19.4388 -19.4388 -19.4027 -19.4027 -18.4849 -18.4849
   -18.2048 -18.2048  -9.7512  -9.7512  -8.1437  -8.1437  -7.7455  -7.7455
    -7.6527  -7.6527  -7.4893  -7.4893  -7.2569  -7.2569  -7.1929  -7.1929
    -7.0919  -7.0919  -6.8356  -6.8356  -6.3235  -6.3235  -6.2266  -6.2266
    -5.9363  -5.9363  -5.6636  -5.6636  -5.5247  -5.5247  -5.2823  -5.2823
    -5.1602  -5.1602  -4.9127  -4.9127  -4.7975  -4.7975  -4.7044  -4.7044
    -4.5582  -4.5582  -4.4629  -4.4629  -4.1310  -4.1310  -3.8195  -3.8195
    -3.5902  -3.5902  -3.0579  -3.0579  -3.0324  -3.0324  -2.9229  -2.9229
    -1.1234  -1.1234  -0.9952  -0.9952  -0.7893  -0.7893  -0.6992  -0.6992
    -0.0638  -0.0638  -0.0142  -0.0142   0.0639   0.0639   0.7069   0.7069
     0.7547   0.7547   0.9066   0.9066   1.3484   1.3484   1.4757   1.4757
     1.5836   1.5836   1.6891   1.6891   2.1012   2.1012   2.6582   2.6582
     3.3000   3.3000   3.4299   3.4299   3.4587   3.4587   3.8170   3.8170
     4.2050   4.2050   4.6302   4.6302   4.7174   4.7174   5.1193   5.1193
     5.5617   5.5617   6.1751   6.1751   6.6640   6.6640   6.8245   6.8245
     7.4446   7.4446   7.5044   7.5044   7.7768   7.7768   7.8703   7.8703
     8.1649   8.1649   8.1856   8.1856   8.3824   8.3824   8.6149   8.6149
     8.7871   8.7871   8.8312   8.8312   8.9988   8.9988   9.3791   9.3791
     9.6289   9.6289   9.7027   9.7027   9.7370   9.7370  10.0087  10.0087
    10.2110  10.2110  10.3947  10.3947  10.5750  10.5750  10.7311  10.7311
    10.9773  10.9773  11.3215  11.3215  11.5778  11.5778  11.6627  11.6627
    11.8495  11.8495  11.9139  11.9139  12.1558  12.1558  12.2964  12.2964
    12.6047  12.6047  12.7907  12.7907  12.9316  12.9316  13.1014  13.1014
    13.2587  13.2587  13.3177  13.3177  13.6509  13.6509  13.7555  13.7555
    13.9099  13.9099  14.1234  14.1234  14.2141  14.2141  14.2632  14.2632
    14.3042  14.3042  14.3966  14.3966  14.6223  14.6223  14.8742  14.8742
    15.0466  15.0466  15.2522  15.2522  15.3060  15.3060  15.4375  15.4375
    15.7481  15.7481  15.8682  15.8682  15.9336  15.9336  16.1698  16.1698
    16.2236  16.2236  16.4840  16.4840  16.5058  16.5058  16.5713  16.5713
    16.6623  16.6623  16.7785  16.7785  16.8445  16.8445  16.9284  16.9284
    17.0260  17.0260  17.1966  17.1966  17.2305  17.2305  17.5632  17.5632
    17.6446  17.6446  17.8782  17.8782  17.9684  17.9684  18.0072  18.0072
    18.1288  18.1288  18.2649  18.2649

          k =-0.5000 0.2258 0.0000 ( 29954 PWs)   bands (ev):

   -60.8964 -60.8964 -60.4608 -60.4608 -59.3176 -59.3176 -58.9174 -58.9174
   -37.2825 -37.2825 -37.1249 -37.1249 -36.9650 -36.9650 -36.8068 -36.8068
   -36.7126 -36.7126 -36.6274 -36.6274 -35.7593 -35.7591 -35.6307 -35.6306
   -35.4120 -35.4120 -35.2644 -35.2644 -35.1993 -35.1993 -35.1135 -35.1135
   -22.0730 -22.0730 -20.9038 -20.9038 -20.0594 -20.0594 -19.9164 -19.9158
   -19.6788 -19.6788 -19.5145 -19.5114 -19.3932 -19.3907 -18.4814 -18.4814
   -18.2045 -18.2045  -9.7426  -9.7420  -8.1452  -8.1447  -7.5965  -7.5753
    -7.4485  -7.4480  -7.3935  -7.3883  -7.2667  -7.2661  -7.1138  -7.0955
    -7.0249  -7.0224  -6.8463  -6.8027  -6.3999  -6.3472  -6.2511  -6.2139
    -6.0726  -6.0332  -5.8580  -5.8429  -5.5494  -5.5230  -5.3186  -5.3125
    -5.2411  -5.1779  -5.0001  -4.9995  -4.9163  -4.9159  -4.8656  -4.8323
    -4.7984  -4.7948  -4.4883  -4.4876  -4.1326  -4.1302  -3.6390  -3.6350
    -3.5955  -3.5747  -3.1434  -3.1346  -3.0149  -2.9673  -2.9234  -2.8515
    -1.1170  -1.1167  -0.9870  -0.9870  -0.8379  -0.8216  -0.6961  -0.6940
    -0.0253  -0.0245   0.0858   0.0859   0.3736   0.3738   0.5150   0.5188
     0.8691   0.8799   1.0098   1.0160   1.3237   1.3238   1.4762   1.4777
     1.6081   1.6113   1.7185   1.7208   1.9644   1.9646   2.3279   2.3280
     3.2731   3.2763   3.5123   3.5141   3.6429   3.6450   3.9625   3.9647
     4.2824   4.2854   4.7420   4.7427   4.8824   4.8828   5.2664   5.2722
     5.6470   5.6590   6.0171   6.0193   6.3999   6.4062   6.6411   6.6464
     6.7935   6.8017   6.8778   6.8803   7.2158   7.2216   7.5170   7.5208
     7.8713   7.8795   8.0952   8.1135   8.4489   8.4791   8.5520   8.5966
     8.7776   8.8275   9.2154   9.2221   9.6036   9.6195   9.7185   9.7273
     9.8748   9.8821  10.0008  10.0112  10.1709  10.1764  10.2665  10.2963
    10.6509  10.6600  10.7515  10.7643  10.9321  10.9404  10.9816  10.9926
    11.3240  11.3308  11.4659  11.4673  11.7889  11.7932  11.8748  11.8783
    11.9240  11.9535  12.1281  12.1338  12.3349  12.3367  12.4706  12.4767
    12.6816  12.6907  12.8337  12.8775  13.0229  13.0439  13.2343  13.2703
    13.4015  13.4233  13.4554  13.4593  13.4958  13.5047  13.6512  13.6524
    13.8728  13.8908  14.0123  14.0233  14.1011  14.1134  14.1776  14.1829
    14.2735  14.2996  14.3972  14.4154  14.4987  14.5146  14.8724  14.8999
    14.9946  15.0056  15.0375  15.0579  15.1970  15.2162  15.2815  15.2956
    15.3504  15.3657  15.4142  15.4197  15.4570  15.4597  15.5376  15.5494
    15.7280  15.7393  15.8080  15.8106  15.8765  15.8871  16.0221  16.0457
    16.2177  16.2327  16.3014  16.3090  16.4581  16.4623  16.5456  16.5594
    16.7266  16.7305  16.8579  16.8664  16.9144  16.9580  17.1351  17.1466
    17.2256  17.2377  17.2704  17.2894  17.5228  17.5323  17.6604  17.6610
    17.9193  17.9263  18.0385  18.0436

          k =-0.5000-0.4516 0.0000 ( 29868 PWs)   bands (ev):

   -60.8964 -60.8964 -60.4608 -60.4608 -59.3176 -59.3176 -58.9174 -58.9174
   -37.2825 -37.2825 -37.1249 -37.1249 -36.9647 -36.9647 -36.8068 -36.8068
   -36.7130 -36.7130 -36.6267 -36.6267 -35.7585 -35.7585 -35.6317 -35.6317
   -35.4120 -35.4120 -35.2648 -35.2648 -35.1993 -35.1993 -35.1135 -35.1135
   -22.0715 -22.0715 -20.8984 -20.8984 -19.9241 -19.9241 -19.8731 -19.8731
   -19.8016 -19.8016 -19.6022 -19.6022 -19.3894 -19.3894 -18.4781 -18.4781
   -18.2041 -18.2041  -9.7332  -9.7332  -8.1464  -8.1464  -7.5029  -7.5029
    -7.3731  -7.3731  -7.0915  -7.0915  -7.0637  -7.0637  -6.9729  -6.9729
    -6.9589  -6.9589  -6.7387  -6.7387  -6.5837  -6.5837  -6.3962  -6.3962
    -6.1708  -6.1708  -5.8786  -5.8786  -5.6360  -5.6360  -5.3804  -5.3804
    -5.2966  -5.2966  -5.2033  -5.2033  -5.1198  -5.1198  -5.0354  -5.0354
    -4.9329  -4.9329  -4.2963  -4.2963  -4.1270  -4.1270  -3.5856  -3.5856
    -3.4737  -3.4737  -3.2483  -3.2483  -2.9650  -2.9650  -2.8355  -2.8355
    -1.1090  -1.1090  -0.9526  -0.9526  -0.8886  -0.8886  -0.6945  -0.6945
    -0.0049  -0.0049   0.1465   0.1465   0.4199   0.4199   0.8139   0.8139
     0.9676   0.9676   1.0296   1.0296   1.3682   1.3682   1.4903   1.4903
     1.6193   1.6193   1.7043   1.7043   1.8031   1.8031   1.9594   1.9594
     3.3083   3.3083   3.4850   3.4850   3.7932   3.7932   4.2062   4.2062
     4.3998   4.3998   4.8973   4.8973   5.1149   5.1149   5.5037   5.5037
     5.5890   5.5890   5.7898   5.7898   5.9531   5.9531   6.2477   6.2477
     6.4429   6.4429   6.8272   6.8272   7.1316   7.1316   7.3128   7.3128
     7.6655   7.6655   7.8263   7.8263   8.0888   8.0888   8.6407   8.6407
     8.8631   8.8631   9.1775   9.1775   9.3121   9.3121   9.8573   9.8573
    10.0961  10.0961  10.3795  10.3795  10.6115  10.6115  10.9885  10.9885
    11.1571  11.1571  11.3871  11.3871  11.6687  11.6687  11.8206  11.8206
    11.8921  11.8921  11.9273  11.9273  12.1346  12.1346  12.3457  12.3457
    12.4324  12.4324  12.5054  12.5054  12.5639  12.5639  12.6193  12.6193
    12.7434  12.7434  12.8102  12.8102  12.8948  12.8948  13.0041  13.0041
    13.1267  13.1267  13.3008  13.3008  13.3687  13.3687  13.5558  13.5558
    13.6156  13.6156  13.8019  13.8019  13.9065  13.9065  14.0038  14.0038
    14.1142  14.1142  14.2017  14.2017  14.3368  14.3368  14.3638  14.3638
    14.4429  14.4429  14.5366  14.5366  14.6913  14.6913  14.7244  14.7244
    14.9680  14.9680  15.0141  15.0141  15.1006  15.1006  15.1203  15.1203
    15.4636  15.4636  15.6373  15.6373  15.7524  15.7524  15.7992  15.7992
    15.8704  15.8704  16.0615  16.0615  16.1251  16.1251  16.2248  16.2248
    16.4482  16.4482  16.6521  16.6521  16.8628  16.8628  17.0717  17.0717
    17.1553  17.1553  17.2828  17.2828  17.3758  17.3758  17.4773  17.4773
    17.7150  17.7150  17.8321  17.8321

          k =-0.2500 0.2258 0.0000 ( 29912 PWs)   bands (ev):

   -60.9094 -60.8830 -60.4740 -60.4472 -59.3318 -59.3030 -58.9315 -58.9029
   -37.4238 -37.1629 -37.1362 -37.0881 -36.9763 -36.9538 -36.8620 -36.8160
   -36.7943 -36.6610 -36.5935 -36.5640 -35.9179 -35.6694 -35.5957 -35.5926
   -35.4242 -35.4034 -35.3451 -35.2761 -35.2529 -35.1656 -35.0916 -35.0154
   -22.2039 -21.9972 -20.9557 -20.8028 -20.3239 -20.2316 -19.9025 -19.7378
   -19.6676 -19.5742 -19.5518 -19.5063 -19.3216 -19.2809 -18.7609 -18.3756
   -18.1444 -18.0723  -9.9098  -9.6155  -8.1852  -8.0285  -7.8838  -7.8690
    -7.8368  -7.7996  -7.4372  -7.4209  -7.1867  -7.1814  -7.0180  -6.9650
    -6.9439  -6.8261  -6.8020  -6.5697  -6.5356  -6.3546  -6.2010  -6.1625
    -6.0807  -5.8088  -5.7929  -5.6624  -5.6300  -5.4366  -5.4357  -5.3813
    -5.2673  -5.1767  -5.1496  -5.0837  -4.9727  -4.9260  -4.8499  -4.7774
    -4.6805  -4.5711  -4.4955  -4.4773  -3.9664  -3.8331  -3.7297  -3.5180
    -3.4556  -3.3995  -3.2978  -3.2617  -3.2002  -2.9573  -2.8672  -2.7240
    -1.4297  -1.1229  -0.9892  -0.9220  -0.8571  -0.6793  -0.6182  -0.4997
    -0.1984  -0.1050   0.0500   0.0684   0.1527   0.3843   0.6580   0.6665
     0.7770   0.7786   0.9835   1.0653   1.1553   1.2619   1.4640   1.5008
     1.6304   1.7086   1.7363   1.8201   1.8247   2.0388   2.1294   2.6932
     3.0801   3.2287   3.3631   3.5482   3.6612   3.7093   3.7911   3.9725
     4.1066   4.4000   4.4398   4.6227   4.9460   4.9729   5.2262   5.6665
     5.8410   5.8532   5.9930   6.1054   6.1144   6.4230   6.4449   6.8047
     6.8056   7.1426   7.2266   7.3778   7.5056   7.7208   7.8300   7.8569
     7.8611   7.9802   8.0272   8.2029   8.4494   8.5175   8.6018   8.7951
     8.8304   8.9598   9.2310   9.3113   9.3474   9.3642   9.4086   9.5226
     9.5982   9.6403   9.9194   9.9503  10.0416  10.1850  10.2319  10.3738
    10.4504  10.6288  10.6289  10.6951  10.8630  10.8798  10.9973  11.0241
    11.1423  11.2764  11.3035  11.3850  11.4123  11.4497  11.5862  11.6438
    11.8093  11.8119  11.8898  11.9596  11.9668  12.0681  12.1099  12.2884
    12.3423  12.3526  12.5032  12.6109  12.6786  12.7057  12.7750  12.8667
    12.9060  12.9966  13.1165  13.2130  13.3067  13.3841  13.4523  13.5362
    13.6091  13.6875  13.7707  13.7722  13.8607  13.9206  14.0096  14.1044
    14.1402  14.2445  14.2976  14.3121  14.5196  14.5629  14.5926  14.6200
    14.7544  14.7742  14.8832  14.9451  15.0550  15.0844  15.1640  15.2563
    15.3546  15.3835  15.4704  15.5447  15.6313  15.7538  15.7665  15.8192
    15.8196  15.9190  15.9305  16.1021  16.1527  16.2243  16.2510  16.3575
    16.3960  16.5357  16.6749  16.7203  16.7827  16.8334  16.8350  16.8747
    16.9825  16.9863  17.0514  17.0950  17.2453  17.2738  17.2955  17.3901
    17.4558  17.4727  17.5565  17.5666  17.7498  17.8206  17.8935  18.0085
    18.0458  18.1834  18.2218  18.3054

     the Fermi energy is    -2.6273 ev

!    total energy              =   -1534.40305594 Ry
     Harris-Foulkes estimate   =   -1534.40305594 Ry
     estimated scf accuracy    <          4.3E-09 Ry

     The total energy is the sum of the following terms:

     one-electron contribution =  -18383.22578762 Ry
     hartree contribution      =    9205.95542579 Ry
     xc contribution           =    -269.86122680 Ry
     ewald contribution        =    7912.15167254 Ry
     Hubbard energy            =       0.57564605 Ry
     smearing contrib. (-TS)   =       0.00121410 Ry

     convergence has been achieved in   8 iterations

     Forces acting on atoms (Ry/au):


     negative rho (up, down):  0.103E+00 0.000E+00
     atom    1 type  1   force =     0.00045208   -0.01580622    0.00078284
     atom    2 type  1   force =     0.00002988    0.02436657    0.00039256
     atom    3 type  2   force =     0.00018734   -0.01560074   -0.00043217
     atom    4 type  2   force =    -0.00519324    0.00853595    0.00054615
     atom    5 type  1   force =     0.00380957   -0.10897553   -0.00050846
     atom    6 type  1   force =    -0.00137559    0.10865710   -0.00054470
     atom    7 type  1   force =    -0.00005434    0.00104444   -0.00033753
     atom    8 type  1   force =     0.00292019   -0.00154770   -0.00017988
     atom    9 type  2   force =    -0.00076188    0.00010982    0.00013398
     atom   10 type  2   force =    -0.00004848   -0.00027010   -0.00063846
     atom   11 type  1   force =     0.00008207   -0.04321503    0.00060244
     atom   12 type  1   force =    -0.00000921    0.04326458    0.00060493
     atom   13 type  1   force =     0.00054469   -0.00004923    0.00029236
     atom   14 type  1   force =     0.00045210   -0.01580621    0.00078284
     atom   15 type  1   force =     0.00002990    0.02436657    0.00039256
     atom   16 type  2   force =     0.00018735   -0.01560075   -0.00043217
     atom   17 type  2   force =    -0.00519325    0.00853595    0.00054615
     atom   18 type  1   force =     0.00380957   -0.10897553   -0.00050850
     atom   19 type  1   force =    -0.00137559    0.10865710   -0.00054474
     atom   20 type  1   force =    -0.00005436    0.00104444   -0.00033751
     atom   21 type  1   force =     0.00292022   -0.00154770   -0.00017989
     atom   22 type  2   force =    -0.00076188    0.00010982    0.00013408
     atom   23 type  2   force =    -0.00004850   -0.00027010   -0.00063845
     atom   24 type  1   force =     0.00008206   -0.04321501    0.00060244
     atom   25 type  1   force =    -0.00000921    0.04326456    0.00060494
     atom   26 type  1   force =     0.00054479   -0.00004923    0.00029235
     atom   27 type  3   force =     0.00003798   -0.00062399   -0.00045952
     atom   28 type  3   force =     0.00003798   -0.00062399   -0.00045952
     atom   29 type  3   force =    -0.00062113    0.00011006   -0.00025455
     atom   30 type  3   force =    -0.00062113    0.00011006   -0.00025455

     Total force =     0.002918     Total SCF correction =     0.000086

     bfgs converged in   6 scf cycles and   5 bfgs steps
     (criteria: energy < 0.10E-03, force < 0.10E-02)

     End of BFGS Geometry Optimization

     Final energy   =   -1534.4030559359 Ry
Begin final coordinates

ATOMIC_POSITIONS (crystal)
O0       0.000000000   0.000000000   0.379341413    0   0   1
O0       0.000000000   0.500000000   0.399774002    0   0   1
Ti1      0.250000000   0.500000000   0.450531217    0   0   1
Ti1      0.000000000   0.000000000   0.452415370    0   0   1
O0       0.250000000   0.810000000   0.450991726    0   0   1
O0       0.250000000   0.190000000   0.452050252    0   0   1
O0       0.000000000   0.500000000   0.498943820    0   0   1
O0       0.000000000   0.000000000   0.526813677    0   0   1
Ti1      0.250000000   0.000000000   0.581259148    0   0   1
Ti1      0.000000000   0.500000000   0.569839980    0   0   1
O0       0.250000000   0.690000000   0.580505235    0   0   1
O0       0.250000000   0.310000000   0.580519089    0   0   1
O0       0.000000000   0.000000000   0.622774156    0   0   1
O0       0.500000000   0.000000000   0.379341413    0   0   1
O0       0.500000000   0.500000000   0.399774002    0   0   1
Ti1      0.750000000   0.500000000   0.450531219    0   0   1
Ti1      0.500000000   0.000000000   0.452415371    0   0   1
O0       0.750000000   0.810000000   0.450991733    0   0   1
O0       0.750000000   0.190000000   0.452050258    0   0   1
O0       0.500000000   0.500000000   0.498943819    0   0   1
O0       0.500000000   0.000000000   0.526813677    0   0   1
Ti1      0.750000000   0.000000000   0.581259131    0   0   1
Ti1      0.500000000   0.500000000   0.569839979    0   0   1
O0       0.750000000   0.690000000   0.580505235    0   0   1
O0       0.750000000   0.310000000   0.580519087    0   0   1
O0       0.500000000   0.000000000   0.622774157    0   0   1
H2      -0.000480577   0.631852410   0.381135593
H2       0.499519423   0.631852410   0.381135593
H2       0.150722606   0.023114945   0.364675324
H2       0.650722606   0.023114945   0.364675324
End final coordinates



     init_run     :     92.94s CPU     95.51s WALL (       1 calls)
     electrons    :  10584.44s CPU  10918.86s WALL (       6 calls)
     update_pot   :     98.99s CPU    101.53s WALL (       5 calls)
     forces       :    678.37s CPU    688.42s WALL (       6 calls)

     Called by init_run:
     wfcinit      :     30.67s CPU     31.29s WALL (       1 calls)
     potinit      :      7.48s CPU      7.77s WALL (       1 calls)

     Called by electrons:
     c_bands      :   5641.94s CPU   5788.27s WALL (      66 calls)
     sum_band     :   2089.70s CPU   2166.57s WALL (      66 calls)
     v_of_rho     :     71.08s CPU     78.16s WALL (      67 calls)
     newd         :   2981.94s CPU   3018.00s WALL (      67 calls)
     mix_rho      :     10.87s CPU     11.10s WALL (      66 calls)

     Called by c_bands:
     init_us_2    :     15.57s CPU     15.74s WALL (     453 calls)
     cegterg      :   5568.92s CPU   5697.82s WALL (     198 calls)

     Called by *egterg:
     h_psi        :   3207.00s CPU   3270.40s WALL (     708 calls)
     s_psi        :    348.22s CPU    353.81s WALL (     744 calls)
     g_psi        :      7.97s CPU      7.99s WALL (     507 calls)
     cdiaghg      :    548.02s CPU    551.34s WALL (     675 calls)

     Called by h_psi:
     add_vuspsi   :    330.56s CPU    336.46s WALL (     708 calls)
     vhpsi        :    333.87s CPU    337.37s WALL (     708 calls)

     General routines
     calbec       :    831.27s CPU    841.15s WALL (    6744 calls)
     fft          :    103.94s CPU    138.38s WALL (    1139 calls)
     ffts         :      1.25s CPU      1.30s WALL (     133 calls)
     fftw         :   1860.25s CPU   1919.88s WALL (  328182 calls)
     interpolate  :     10.57s CPU     10.80s WALL (     133 calls)
     davcio       :      0.03s CPU     10.32s WALL (     471 calls)

     Parallel routines
     fft_scatter  :    639.25s CPU    726.38s WALL (  329454 calls)
     Hubbard U routines
     new_ns       :     65.07s CPU     72.35s WALL (      66 calls)
     vhpsi        :    333.87s CPU    337.37s WALL (     708 calls)
     force_hub    :    179.56s CPU    183.60s WALL (       6 calls)

     PWSCF        :     3h14m CPU        3h20m WALL


   This run was terminated on:  15:43:14   6May2014            

=------------------------------------------------------------------------------=
   JOB DONE.
=------------------------------------------------------------------------------=
---------------------------------------
Running PBS batch system epilogue script
Job id: 340810.audhumbla.fysik.dtu.dk
Username: zhonxu
Groupname: campgst
Jobname: TiO2/Eads-2-layers/bare-U-1.0
Sessionid: 15034
Resources limits: neednodes=2:ppn=8:xeon8,nodes=2:ppn=8:xeon8,walltime=48:00:00
Resources used: cput=53:21:36,mem=14652620kb,vmem=18463680kb,walltime=03:20:52
Queuename: verylong
Accounting:
This job has allocated the following 16 nodes:
d053 d053 d053 d053 d053 d053 d053 d053 d009 d009 d009 d009 d009 d009 d009 d009
Finished epilogue job 340810.audhumbla.fysik.dtu.dk for zhonxu
