
     Program PWSCF v.5.0.2 (svn rev. 9656) starts on  8May2014 at 23:24:17 

     This program is part of the open-source Quantum ESPRESSO suite
     for quantum simulation of materials; please cite
         "P. Giannozzi et al., J. Phys.:Condens. Matter 21 395502 (2009);
          URL http://www.quantum-espresso.org", 
     in publications or presentations arising from this work. More details at
     http://www.quantum-espresso.org/quote.php

     Parallel version (MPI), running on    16 processors
     K-points division:     npool     =       4
     R & G space division:  proc/nbgrp/npool/nimage =       4

     Current dimensions of program PWSCF are:
     Max number of different atomic species (ntypx) = 10
     Max number of k-points (npk) =  40000
     Max angular momentum in pseudopotentials (lmaxx) =  3
     Reading input from pwscf.in
Warning: card &CELL ignored
Warning: card / ignored

     Subspace diagonalization in iterative solution of the eigenvalue problem:
     a serial algorithm will be used


     Parallelization info
     --------------------
     sticks:   dense  smooth     PW     G-vecs:    dense   smooth      PW
     Min        1424     456    126               337026    61014    9038
     Max        1425     457    127               337029    61047    9044
     Sum        5697    1827    505              1348107   244131   36167



     bravais-lattice index     =            0
     lattice parameter (alat)  =      11.7541  a.u.
     unit-cell volume          =    7139.8207 (a.u.)^3
     number of atoms/cell      =           30
     number of atomic types    =            3
     number of electrons       =       232.00
     number of Kohn-Sham states=          348
     kinetic-energy cutoff     =      40.0000  Ry
     charge density cutoff     =     500.0000  Ry
     convergence threshold     =      1.0E-06
     mixing beta               =       0.7000
     number of iterations used =            8  plain     mixing
     Exchange-correlation      = SLA  PW   PBE  PBE ( 1 4 3 4 0)
     EXX-fraction              =        0.00
     nstep                     =           50


     celldm(1)=  11.754097  celldm(2)=   0.000000  celldm(3)=   0.000000
     celldm(4)=   0.000000  celldm(5)=   0.000000  celldm(6)=   0.000000

     crystal axes: (cart. coord. in units of alat)
               a(1) = (   1.000000   0.000000   0.000000 )  
               a(2) = (   0.000000   1.034513   0.000000 )  
               a(3) = (   0.000000   0.000000   4.249947 )  

     reciprocal axes: (cart. coord. in units 2 pi/alat)
               b(1) = (  1.000000  0.000000  0.000000 )  
               b(2) = (  0.000000  0.966638  0.000000 )  
               b(3) = (  0.000000  0.000000  0.235297 )  


     PseudoPot. # 1 for O  read from file:
     /home/camp/zhonxu/pseudo/o_pbe_v1.01.uspp.F.UPF
     MD5 check sum: 2bcb18d16ea4b960afae9ec6d52f22d2
     Pseudo is Ultrasoft + core correction, Zval =  6.0
     Generated by new atomic code, or converted to UPF format
     Using radial grid of  737 points,  5 beta functions with: 
                l(1) =   0
                l(2) =   0
                l(3) =   1
                l(4) =   1
                l(5) =   2
     Q(r) pseudized with  8 coefficients,  rinner =    0.900   0.900   0.900
                                                       0.900   0.900

     PseudoPot. # 2 for Rh read from file:
     /home/camp/zhonxu/pseudo/rh_pbe_v1.uspp.F.UPF
     MD5 check sum: 37b626987ad0dd8ec6bf4cc9ef289918
     Pseudo is Ultrasoft + core correction, Zval = 15.0
     Generated by new atomic code, or converted to UPF format
     Using radial grid of  969 points,  7 beta functions with: 
                l(1) =   0
                l(2) =   0
                l(3) =   1
                l(4) =   1
                l(5) =   2
                l(6) =   2
                l(7) =   2
     Q(r) pseudized with  6 coefficients,  rinner =    1.050   1.050   1.050
                                                       1.050   1.050

     PseudoPot. # 3 for H  read from file:
     /home/camp/zhonxu/pseudo/h_pbe_v1.uspp.F.UPF
     MD5 check sum: 3408e3ff4ec8b0a4e358431e7e038a48
     Pseudo is Ultrasoft, Zval =  1.0
     Generated by new atomic code, or converted to UPF format
     Using radial grid of  615 points,  2 beta functions with: 
                l(1) =   0
                l(2) =   0
     Q(r) pseudized with  8 coefficients,  rinner =    0.700

     atomic species   valence    mass     pseudopotential
        O0             6.00    15.99940     O ( 1.00)
        Rh1           15.00   102.90550     Rh( 1.00)
        H2             1.00     1.00794     H ( 1.00)


     Simplified LDA+U calculation (l_max = 2) with parameters (eV):
     atomic species    L          U    alpha       J0     beta
        Rh1            2     4.5000   0.0000   0.0000   0.0000



     No symmetry found



   Cartesian axes

     site n.     atom                  positions (alat units)
         1           O0  tau(   1) = (   0.0000000   0.0000000   1.6092425  )
         2           O0  tau(   2) = (   0.0000000   0.5172566   1.7020614  )
         3           Rh1 tau(   3) = (   0.2500000   0.5172566   1.9209336  )
         4           Rh1 tau(   4) = (   0.0000000   0.0000000   1.9260761  )
         5           O0  tau(   5) = (   0.2500000   0.8379556   1.9243336  )
         6           O0  tau(   6) = (   0.2500000   0.1965575   1.9234411  )
         7           O0  tau(   7) = (   0.0000000   0.5172566   2.1185137  )
         8           O0  tau(   8) = (   0.0000000   0.0000000   2.2473721  )
         9           Rh1 tau(   9) = (   0.2500000   0.0000000   2.4498821  )
        10           Rh1 tau(  10) = (   0.0000000   0.5172566   2.4276124  )
        11           O0  tau(  11) = (   0.2500000   0.7138141   2.4560020  )
        12           O0  tau(  12) = (   0.2500000   0.3206991   2.4560870  )
        13           O0  tau(  13) = (   0.0000000   0.0000000   2.6421072  )
        14           O0  tau(  14) = (   0.5000000   0.0000000   1.6092425  )
        15           O0  tau(  15) = (   0.5000000   0.5172566   1.7020614  )
        16           Rh1 tau(  16) = (   0.7500000   0.5172566   1.9209336  )
        17           Rh1 tau(  17) = (   0.5000000   0.0000000   1.9260761  )
        18           O0  tau(  18) = (   0.7500000   0.8379556   1.9243336  )
        19           O0  tau(  19) = (   0.7500000   0.1965575   1.9234411  )
        20           O0  tau(  20) = (   0.5000000   0.5172566   2.1185137  )
        21           O0  tau(  21) = (   0.5000000   0.0000000   2.2473721  )
        22           Rh1 tau(  22) = (   0.7500000   0.0000000   2.4498821  )
        23           Rh1 tau(  23) = (   0.5000000   0.5172566   2.4276124  )
        24           O0  tau(  24) = (   0.7500000   0.7138141   2.4560020  )
        25           O0  tau(  25) = (   0.7500000   0.3206991   2.4560870  )
        26           O0  tau(  26) = (   0.5000000   0.0000000   2.6421072  )
        27           H2  tau(  27) = (  -0.0000700   0.6610229   1.6318947  )
        28           H2  tau(  28) = (   0.4999300   0.6610125   1.6318947  )
        29           H2  tau(  29) = (   0.1484400   0.0336527   1.5632581  )
        30           H2  tau(  30) = (   0.6484400   0.0336527   1.5632581  )

     number of k points=    10  Methfessel-Paxton smearing, width (Ry)=  0.0100
                       cart. coord. in units 2pi/alat
        k(    1) = (   0.0000000   0.0000000   0.0000000), wk =   0.1250000
        k(    2) = (   0.0000000   0.2416596   0.0000000), wk =   0.2500000
        k(    3) = (   0.0000000  -0.4833191   0.0000000), wk =   0.1250000
        k(    4) = (   0.2500000   0.0000000   0.0000000), wk =   0.2500000
        k(    5) = (   0.2500000   0.2416596   0.0000000), wk =   0.2500000
        k(    6) = (   0.2500000  -0.4833191   0.0000000), wk =   0.2500000
        k(    7) = (  -0.5000000   0.0000000   0.0000000), wk =   0.1250000
        k(    8) = (  -0.5000000   0.2416596   0.0000000), wk =   0.2500000
        k(    9) = (  -0.5000000  -0.4833191   0.0000000), wk =   0.1250000
        k(   10) = (  -0.2500000   0.2416596   0.0000000), wk =   0.2500000

     Dense  grid:  1348107 G-vectors     FFT dimensions: (  90,  90, 360)

     Smooth grid:   244131 G-vectors     FFT dimensions: (  48,  50, 216)

     Largest allocated arrays     est. size (Mb)     dimensions
        Kohn-Sham Wavefunctions        40.77 Mb     (   7677,  348)
        Atomic wavefunctions           20.15 Mb     (   7677,  172)
        NL pseudopotentials            49.90 Mb     (   7677,  426)
        Each V/rho on FFT grid         11.12 Mb     ( 729000)
        Each G-vector array             2.57 Mb     ( 337026)
        G-vector shells                 1.12 Mb     ( 146445)
     Largest temporary arrays     est. size (Mb)     dimensions
        Auxiliary wavefunctions       163.06 Mb     (   7677, 1392)
        Each subspace H/S matrix       29.57 Mb     (1392,1392)
        Each <psi_i|beta_j> matrix      2.26 Mb     (    426,  348)
        Arrays for rho mixing          88.99 Mb     ( 729000,   8)

     Check: negative/imaginary core charge=   -0.000002    0.000000

     Initial potential from superposition of free atoms
     Check: negative starting charge=   -0.642992

     starting charge  227.99915, renormalised to  232.00000

     negative rho (up, down):  0.654E+00 0.000E+00
     Number of +U iterations with fixed ns =  0
     Starting occupations:
 --- enter write_ns ---
 LDA+U parameters:
U( 2)     =  4.50000000
alpha( 2) =  0.00000000
atom    3   Tr[ns(na)] =   7.00000
    eigenvalues: 
  0.700  0.700  0.700  0.700  0.700
    eigenvectors:
  1.000  0.000  0.000  0.000  0.000
  0.000  1.000  0.000  0.000  0.000
  0.000  0.000  1.000  0.000  0.000
  0.000  0.000  0.000  1.000  0.000
  0.000  0.000  0.000  0.000  1.000
    occupations:
  0.700  0.000  0.000  0.000  0.000
  0.000  0.700  0.000  0.000  0.000
  0.000  0.000  0.700  0.000  0.000
  0.000  0.000  0.000  0.700  0.000
  0.000  0.000  0.000  0.000  0.700
atom    4   Tr[ns(na)] =   7.00000
    eigenvalues: 
  0.700  0.700  0.700  0.700  0.700
    eigenvectors:
  1.000  0.000  0.000  0.000  0.000
  0.000  1.000  0.000  0.000  0.000
  0.000  0.000  1.000  0.000  0.000
  0.000  0.000  0.000  1.000  0.000
  0.000  0.000  0.000  0.000  1.000
    occupations:
  0.700  0.000  0.000  0.000  0.000
  0.000  0.700  0.000  0.000  0.000
  0.000  0.000  0.700  0.000  0.000
  0.000  0.000  0.000  0.700  0.000
  0.000  0.000  0.000  0.000  0.700
atom    9   Tr[ns(na)] =   7.00000
    eigenvalues: 
  0.700  0.700  0.700  0.700  0.700
    eigenvectors:
  1.000  0.000  0.000  0.000  0.000
  0.000  1.000  0.000  0.000  0.000
  0.000  0.000  1.000  0.000  0.000
  0.000  0.000  0.000  1.000  0.000
  0.000  0.000  0.000  0.000  1.000
    occupations:
  0.700  0.000  0.000  0.000  0.000
  0.000  0.700  0.000  0.000  0.000
  0.000  0.000  0.700  0.000  0.000
  0.000  0.000  0.000  0.700  0.000
  0.000  0.000  0.000  0.000  0.700
atom   10   Tr[ns(na)] =   7.00000
    eigenvalues: 
  0.700  0.700  0.700  0.700  0.700
    eigenvectors:
  1.000  0.000  0.000  0.000  0.000
  0.000  1.000  0.000  0.000  0.000
  0.000  0.000  1.000  0.000  0.000
  0.000  0.000  0.000  1.000  0.000
  0.000  0.000  0.000  0.000  1.000
    occupations:
  0.700  0.000  0.000  0.000  0.000
  0.000  0.700  0.000  0.000  0.000
  0.000  0.000  0.700  0.000  0.000
  0.000  0.000  0.000  0.700  0.000
  0.000  0.000  0.000  0.000  0.700
atom   16   Tr[ns(na)] =   7.00000
    eigenvalues: 
  0.700  0.700  0.700  0.700  0.700
    eigenvectors:
  1.000  0.000  0.000  0.000  0.000
  0.000  1.000  0.000  0.000  0.000
  0.000  0.000  1.000  0.000  0.000
  0.000  0.000  0.000  1.000  0.000
  0.000  0.000  0.000  0.000  1.000
    occupations:
  0.700  0.000  0.000  0.000  0.000
  0.000  0.700  0.000  0.000  0.000
  0.000  0.000  0.700  0.000  0.000
  0.000  0.000  0.000  0.700  0.000
  0.000  0.000  0.000  0.000  0.700
atom   17   Tr[ns(na)] =   7.00000
    eigenvalues: 
  0.700  0.700  0.700  0.700  0.700
    eigenvectors:
  1.000  0.000  0.000  0.000  0.000
  0.000  1.000  0.000  0.000  0.000
  0.000  0.000  1.000  0.000  0.000
  0.000  0.000  0.000  1.000  0.000
  0.000  0.000  0.000  0.000  1.000
    occupations:
  0.700  0.000  0.000  0.000  0.000
  0.000  0.700  0.000  0.000  0.000
  0.000  0.000  0.700  0.000  0.000
  0.000  0.000  0.000  0.700  0.000
  0.000  0.000  0.000  0.000  0.700
atom   22   Tr[ns(na)] =   7.00000
    eigenvalues: 
  0.700  0.700  0.700  0.700  0.700
    eigenvectors:
  1.000  0.000  0.000  0.000  0.000
  0.000  1.000  0.000  0.000  0.000
  0.000  0.000  1.000  0.000  0.000
  0.000  0.000  0.000  1.000  0.000
  0.000  0.000  0.000  0.000  1.000
    occupations:
  0.700  0.000  0.000  0.000  0.000
  0.000  0.700  0.000  0.000  0.000
  0.000  0.000  0.700  0.000  0.000
  0.000  0.000  0.000  0.700  0.000
  0.000  0.000  0.000  0.000  0.700
atom   23   Tr[ns(na)] =   7.00000
    eigenvalues: 
  0.700  0.700  0.700  0.700  0.700
    eigenvectors:
  1.000  0.000  0.000  0.000  0.000
  0.000  1.000  0.000  0.000  0.000
  0.000  0.000  1.000  0.000  0.000
  0.000  0.000  0.000  1.000  0.000
  0.000  0.000  0.000  0.000  1.000
    occupations:
  0.700  0.000  0.000  0.000  0.000
  0.000  0.700  0.000  0.000  0.000
  0.000  0.000  0.700  0.000  0.000
  0.000  0.000  0.000  0.700  0.000
  0.000  0.000  0.000  0.000  0.700
N of occupied +U levels =  56.0000000
 --- exit write_ns ---
 Atomic wfc used for LDA+U Projector are NOT orthogonalized
     Starting wfc are  172 randomized atomic wfcs

     total cpu time spent up to now is      119.2 secs

     per-process dynamical memory:   418.7 Mb

     Self-consistent Calculation

     iteration #  1     ecut=    40.00 Ry     beta=0.70
     Davidson diagonalization with overlap
     ethr =  1.00E-02,  avg # of iterations =  5.8
 --- enter write_ns ---
 LDA+U parameters:
U( 2)     =  4.50000000
alpha( 2) =  0.00000000
atom    3   Tr[ns(na)] =   6.47158
    eigenvalues: 
  0.434  0.467  0.660  0.820  0.856
    eigenvectors:
  0.000  0.233  0.006  0.761  0.000
  1.000  0.000  0.000  0.000  0.000
  0.000  0.000  0.991  0.009  0.000
  0.000  0.767  0.003  0.230  0.000
  0.000  0.000  0.000  0.000  1.000
    occupations:
  0.736 -0.000  0.014 -0.149  0.000
 -0.000  0.434 -0.000  0.000 -0.004
  0.014 -0.000  0.662 -0.006  0.001
 -0.149  0.000 -0.006  0.548 -0.000
  0.000 -0.004  0.001 -0.000  0.855
atom    4   Tr[ns(na)] =   5.95602
    eigenvalues: 
  0.459  0.468  0.481  0.673  0.898
    eigenvectors:
  0.000  0.008  0.985  0.000  0.007
  0.000  0.009  0.000  0.991  0.000
  0.002  0.981  0.008  0.009  0.000
  0.000  0.000  0.007  0.000  0.993
  0.998  0.002  0.000  0.000  0.000
    occupations:
  0.483 -0.000  0.001  0.034  0.000
 -0.000  0.671  0.019 -0.000 -0.001
  0.001  0.019  0.470  0.003  0.000
  0.034 -0.000  0.003  0.895 -0.000
  0.000 -0.001  0.000 -0.000  0.459
atom    9   Tr[ns(na)] =   7.67381
    eigenvalues: 
  0.476  0.490  0.937  0.964  0.971
    eigenvectors:
  0.000  0.160  0.000  0.000  0.840
  0.999  0.001  0.000  0.000  0.000
  0.000  0.000  0.000  1.000  0.000
  0.001  0.839  0.000  0.000  0.160
  0.000  0.000  1.000  0.000  0.000
    occupations:
  0.894  0.000 -0.000 -0.176  0.000
  0.000  0.476  0.001  0.000 -0.000
 -0.000  0.001  0.964 -0.000 -0.000
 -0.176  0.000 -0.000  0.567  0.000
  0.000 -0.000 -0.000  0.000  0.937
atom   10   Tr[ns(na)] =   7.85216
    eigenvalues: 
  0.467  0.561  0.964  0.965  0.969
    eigenvectors:
  0.000  0.992  0.008  0.000  0.000
  0.000  0.000  0.000  0.000  1.000
  0.000  0.000  0.023  0.977  0.000
  0.000  0.008  0.969  0.023  0.000
  1.000  0.000  0.000  0.000  0.000
    occupations:
  0.565  0.000  0.002  0.036 -0.000
  0.000  0.969 -0.000 -0.000  0.000
  0.002 -0.000  0.965 -0.000  0.000
  0.036 -0.000 -0.000  0.961 -0.000
 -0.000  0.000  0.000 -0.000  0.467
atom   16   Tr[ns(na)] =   6.47158
    eigenvalues: 
  0.434  0.467  0.660  0.820  0.856
    eigenvectors:
  0.000  0.233  0.006  0.761  0.000
  1.000  0.000  0.000  0.000  0.000
  0.000  0.000  0.991  0.009  0.000
  0.000  0.767  0.003  0.230  0.000
  0.000  0.000  0.000  0.000  1.000
    occupations:
  0.736  0.000  0.014 -0.149  0.000
  0.000  0.434 -0.000  0.000 -0.004
  0.014 -0.000  0.662 -0.006  0.001
 -0.149  0.000 -0.006  0.548 -0.000
  0.000 -0.004  0.001 -0.000  0.855
atom   17   Tr[ns(na)] =   5.95601
    eigenvalues: 
  0.459  0.468  0.481  0.673  0.898
    eigenvectors:
  0.000  0.008  0.985  0.000  0.007
  0.000  0.009  0.000  0.991  0.000
  0.002  0.981  0.008  0.009  0.000
  0.000  0.000  0.007  0.000  0.993
  0.998  0.002  0.000  0.000  0.000
    occupations:
  0.483 -0.000  0.001  0.034  0.000
 -0.000  0.671  0.019 -0.000 -0.001
  0.001  0.019  0.470  0.003  0.000
  0.034 -0.000  0.003  0.895 -0.000
  0.000 -0.001  0.000 -0.000  0.459
atom   22   Tr[ns(na)] =   7.67381
    eigenvalues: 
  0.476  0.490  0.937  0.964  0.971
    eigenvectors:
  0.000  0.160  0.000  0.000  0.840
  0.999  0.001  0.000  0.000  0.000
  0.000  0.000  0.000  1.000  0.000
  0.001  0.839  0.000  0.000  0.160
  0.000  0.000  1.000  0.000  0.000
    occupations:
  0.894  0.000 -0.000 -0.176  0.000
  0.000  0.476  0.001  0.000 -0.000
 -0.000  0.001  0.964 -0.000 -0.000
 -0.176  0.000 -0.000  0.567  0.000
  0.000 -0.000 -0.000  0.000  0.937
atom   23   Tr[ns(na)] =   7.85216
    eigenvalues: 
  0.467  0.561  0.964  0.965  0.969
    eigenvectors:
  0.000  0.992  0.008  0.000  0.000
  0.000  0.000  0.000  0.000  1.000
  0.000  0.000  0.023  0.977  0.000
  0.000  0.008  0.969  0.023  0.000
  1.000  0.000  0.000  0.000  0.000
    occupations:
  0.565  0.000  0.002  0.036 -0.000
  0.000  0.969 -0.000 -0.000  0.000
  0.002 -0.000  0.965 -0.000  0.000
  0.036 -0.000 -0.000  0.961 -0.000
 -0.000  0.000  0.000 -0.000  0.467
N of occupied +U levels =  55.9071440
 --- exit write_ns ---

     negative rho (up, down):  0.672E+00 0.000E+00

     total cpu time spent up to now is      467.6 secs

     total energy              =   -1930.60424378 Ry
     Harris-Foulkes estimate   =   -1948.74046537 Ry
     estimated scf accuracy    <      21.99947496 Ry

     iteration #  2     ecut=    40.00 Ry     beta=0.70
     Davidson diagonalization with overlap
     ethr =  9.48E-03,  avg # of iterations =  5.0

     negative rho (up, down):  0.581E+00 0.000E+00

     total cpu time spent up to now is      793.2 secs

     total energy              =   -1826.52235240 Ry
     Harris-Foulkes estimate   =   -2065.21427354 Ry
     estimated scf accuracy    <    2883.19190090 Ry

     iteration #  3     ecut=    40.00 Ry     beta=0.70
     Davidson diagonalization with overlap
     ethr =  9.48E-03,  avg # of iterations =  5.0

     negative rho (up, down):  0.556E+00 0.000E+00

     total cpu time spent up to now is     1142.9 secs

     total energy              =   -1931.44903142 Ry
     Harris-Foulkes estimate   =   -1965.59752781 Ry
     estimated scf accuracy    <     220.26200400 Ry

     iteration #  4     ecut=    40.00 Ry     beta=0.70
     Davidson diagonalization with overlap
     ethr =  9.48E-03,  avg # of iterations =  3.0

     negative rho (up, down):  0.563E+00 0.000E+00

     total cpu time spent up to now is     1345.0 secs

     total energy              =   -1943.43313772 Ry
     Harris-Foulkes estimate   =   -1949.51007216 Ry
     estimated scf accuracy    <      29.81452023 Ry

     iteration #  5     ecut=    40.00 Ry     beta=0.70
     Davidson diagonalization with overlap
     ethr =  9.48E-03,  avg # of iterations =  1.0

     negative rho (up, down):  0.588E+00 0.000E+00

     total cpu time spent up to now is     1525.3 secs

     total energy              =   -1946.12461759 Ry
     Harris-Foulkes estimate   =   -1947.00877042 Ry
     estimated scf accuracy    <      12.72092898 Ry

     iteration #  6     ecut=    40.00 Ry     beta=0.70
     Davidson diagonalization with overlap
     ethr =  5.48E-03,  avg # of iterations =  1.0

     negative rho (up, down):  0.601E+00 0.000E+00

     total cpu time spent up to now is     1705.5 secs

     total energy              =   -1946.34683300 Ry
     Harris-Foulkes estimate   =   -1946.69942957 Ry
     estimated scf accuracy    <       2.11970766 Ry

     iteration #  7     ecut=    40.00 Ry     beta=0.70
     Davidson diagonalization with overlap
     ethr =  9.14E-04,  avg # of iterations =  4.9

     negative rho (up, down):  0.617E+00 0.000E+00

     total cpu time spent up to now is     1910.1 secs

     total energy              =   -1946.44921751 Ry
     Harris-Foulkes estimate   =   -1946.50719429 Ry
     estimated scf accuracy    <       0.90899306 Ry

     iteration #  8     ecut=    40.00 Ry     beta=0.70
     Davidson diagonalization with overlap
     ethr =  3.92E-04,  avg # of iterations =  1.7

     negative rho (up, down):  0.639E+00 0.000E+00

     total cpu time spent up to now is     2094.6 secs

     total energy              =   -1946.40061655 Ry
     Harris-Foulkes estimate   =   -1946.52207123 Ry
     estimated scf accuracy    <       1.33714576 Ry

     iteration #  9     ecut=    40.00 Ry     beta=0.70
     Davidson diagonalization with overlap
     ethr =  3.92E-04,  avg # of iterations =  3.8

     negative rho (up, down):  0.651E+00 0.000E+00

     total cpu time spent up to now is     2283.7 secs

     total energy              =   -1946.35552261 Ry
     Harris-Foulkes estimate   =   -1946.52841131 Ry
     estimated scf accuracy    <       1.16252146 Ry

     iteration # 10     ecut=    40.00 Ry     beta=0.70
     Davidson diagonalization with overlap
     ethr =  3.92E-04,  avg # of iterations =  1.0

     negative rho (up, down):  0.672E+00 0.000E+00

     total cpu time spent up to now is     2463.9 secs

     total energy              =   -1946.42205154 Ry
     Harris-Foulkes estimate   =   -1946.51798482 Ry
     estimated scf accuracy    <       0.76426193 Ry

     iteration # 11     ecut=    40.00 Ry     beta=0.70
     Davidson diagonalization with overlap
     ethr =  3.29E-04,  avg # of iterations =  2.0

     negative rho (up, down):  0.680E+00 0.000E+00

     total cpu time spent up to now is     2653.6 secs

     total energy              =   -1946.43557548 Ry
     Harris-Foulkes estimate   =   -1946.48501149 Ry
     estimated scf accuracy    <       0.33574633 Ry

     iteration # 12     ecut=    40.00 Ry     beta=0.70
     Davidson diagonalization with overlap
     ethr =  1.45E-04,  avg # of iterations =  6.1

     negative rho (up, down):  0.679E+00 0.000E+00

     total cpu time spent up to now is     2863.5 secs

     total energy              =   -1946.44008857 Ry
     Harris-Foulkes estimate   =   -1946.47908950 Ry
     estimated scf accuracy    <       0.57472219 Ry

     iteration # 13     ecut=    40.00 Ry     beta=0.70
     Davidson diagonalization with overlap
     ethr =  1.45E-04,  avg # of iterations =  1.1

     negative rho (up, down):  0.682E+00 0.000E+00

     total cpu time spent up to now is     3053.9 secs

     total energy              =   -1946.43883391 Ry
     Harris-Foulkes estimate   =   -1946.46765990 Ry
     estimated scf accuracy    <       0.16765397 Ry

     iteration # 14     ecut=    40.00 Ry     beta=0.70
     Davidson diagonalization with overlap
     ethr =  7.23E-05,  avg # of iterations =  2.9

     negative rho (up, down):  0.688E+00 0.000E+00

     total cpu time spent up to now is     3249.5 secs

     total energy              =   -1946.42301382 Ry
     Harris-Foulkes estimate   =   -1946.48528871 Ry
     estimated scf accuracy    <       0.31491772 Ry

     iteration # 15     ecut=    40.00 Ry     beta=0.70
     Davidson diagonalization with overlap
     ethr =  7.23E-05,  avg # of iterations =  5.4

     negative rho (up, down):  0.687E+00 0.000E+00

     total cpu time spent up to now is     3465.4 secs

     total energy              =   -1946.39057118 Ry
     Harris-Foulkes estimate   =   -1946.53001566 Ry
     estimated scf accuracy    <       2.06062451 Ry

     iteration # 16     ecut=    40.00 Ry     beta=0.70
     Davidson diagonalization with overlap
     ethr =  7.23E-05,  avg # of iterations =  2.7

     negative rho (up, down):  0.685E+00 0.000E+00

     total cpu time spent up to now is     3658.4 secs

     total energy              =   -1946.44585284 Ry
     Harris-Foulkes estimate   =   -1946.47288248 Ry
     estimated scf accuracy    <       0.20157488 Ry

     iteration # 17     ecut=    40.00 Ry     beta=0.70
     Davidson diagonalization with overlap
     ethr =  7.23E-05,  avg # of iterations =  1.2

     negative rho (up, down):  0.684E+00 0.000E+00

     total cpu time spent up to now is     3845.9 secs

     total energy              =   -1946.45770743 Ry
     Harris-Foulkes estimate   =   -1946.45888777 Ry
     estimated scf accuracy    <       0.00532611 Ry

     iteration # 18     ecut=    40.00 Ry     beta=0.70
     Davidson diagonalization with overlap
     ethr =  2.30E-06,  avg # of iterations =  7.2

     negative rho (up, down):  0.685E+00 0.000E+00

     total cpu time spent up to now is     4084.0 secs

     total energy              =   -1946.45712554 Ry
     Harris-Foulkes estimate   =   -1946.45953027 Ry
     estimated scf accuracy    <       0.01830350 Ry

     iteration # 19     ecut=    40.00 Ry     beta=0.70
     Davidson diagonalization with overlap
     ethr =  2.30E-06,  avg # of iterations =  1.0

     negative rho (up, down):  0.685E+00 0.000E+00

     total cpu time spent up to now is     4273.1 secs

     total energy              =   -1946.45825079 Ry
     Harris-Foulkes estimate   =   -1946.45854857 Ry
     estimated scf accuracy    <       0.00219837 Ry

     iteration # 20     ecut=    40.00 Ry     beta=0.70
     Davidson diagonalization with overlap
     ethr =  9.48E-07,  avg # of iterations =  1.0

     negative rho (up, down):  0.685E+00 0.000E+00

     total cpu time spent up to now is     4461.4 secs

     total energy              =   -1946.45818430 Ry
     Harris-Foulkes estimate   =   -1946.45856375 Ry
     estimated scf accuracy    <       0.00198480 Ry

     iteration # 21     ecut=    40.00 Ry     beta=0.70
     Davidson diagonalization with overlap
     ethr =  8.56E-07,  avg # of iterations =  3.3

     negative rho (up, down):  0.685E+00 0.000E+00

     total cpu time spent up to now is     4659.9 secs

     total energy              =   -1946.45802720 Ry
     Harris-Foulkes estimate   =   -1946.45882469 Ry
     estimated scf accuracy    <       0.00564958 Ry

     iteration # 22     ecut=    40.00 Ry     beta=0.70
     Davidson diagonalization with overlap
     ethr =  8.56E-07,  avg # of iterations =  1.0

     negative rho (up, down):  0.685E+00 0.000E+00

     total cpu time spent up to now is     4848.4 secs

     total energy              =   -1946.45839791 Ry
     Harris-Foulkes estimate   =   -1946.45843110 Ry
     estimated scf accuracy    <       0.00016139 Ry

     iteration # 23     ecut=    40.00 Ry     beta=0.70
     Davidson diagonalization with overlap
     ethr =  6.96E-08,  avg # of iterations =  1.0

     negative rho (up, down):  0.685E+00 0.000E+00

     total cpu time spent up to now is     5036.6 secs

     total energy              =   -1946.45837999 Ry
     Harris-Foulkes estimate   =   -1946.45846066 Ry
     estimated scf accuracy    <       0.00059975 Ry

     iteration # 24     ecut=    40.00 Ry     beta=0.70
     Davidson diagonalization with overlap
     ethr =  6.96E-08,  avg # of iterations =  1.0

     negative rho (up, down):  0.685E+00 0.000E+00

     total cpu time spent up to now is     5224.1 secs

     total energy              =   -1946.45838257 Ry
     Harris-Foulkes estimate   =   -1946.45845596 Ry
     estimated scf accuracy    <       0.00063981 Ry

     iteration # 25     ecut=    40.00 Ry     beta=0.70
     Davidson diagonalization with overlap
     ethr =  6.96E-08,  avg # of iterations =  1.2

     negative rho (up, down):  0.685E+00 0.000E+00

     total cpu time spent up to now is     5416.7 secs

     total energy              =   -1946.45836578 Ry
     Harris-Foulkes estimate   =   -1946.45847826 Ry
     estimated scf accuracy    <       0.00119655 Ry

     iteration # 26     ecut=    40.00 Ry     beta=0.70
     Davidson diagonalization with overlap
     ethr =  6.96E-08,  avg # of iterations =  1.0

     negative rho (up, down):  0.685E+00 0.000E+00

     total cpu time spent up to now is     5606.8 secs

     total energy              =   -1946.45841907 Ry
     Harris-Foulkes estimate   =   -1946.45842539 Ry
     estimated scf accuracy    <       0.00004287 Ry

     iteration # 27     ecut=    40.00 Ry     beta=0.70
     Davidson diagonalization with overlap
     ethr =  1.85E-08,  avg # of iterations =  1.0

     negative rho (up, down):  0.685E+00 0.000E+00

     total cpu time spent up to now is     5794.3 secs

     total energy              =   -1946.45842053 Ry
     Harris-Foulkes estimate   =   -1946.45842453 Ry
     estimated scf accuracy    <       0.00006088 Ry

     iteration # 28     ecut=    40.00 Ry     beta=0.70
     Davidson diagonalization with overlap
     ethr =  1.85E-08,  avg # of iterations =  1.0

     negative rho (up, down):  0.685E+00 0.000E+00

     total cpu time spent up to now is     5972.8 secs

     total energy              =   -1946.45842138 Ry
     Harris-Foulkes estimate   =   -1946.45842347 Ry
     estimated scf accuracy    <       0.00000952 Ry

     iteration # 29     ecut=    40.00 Ry     beta=0.70
     Davidson diagonalization with overlap
     ethr =  4.10E-09,  avg # of iterations =  1.0

     negative rho (up, down):  0.685E+00 0.000E+00

     total cpu time spent up to now is     6154.8 secs

     total energy              =   -1946.45842124 Ry
     Harris-Foulkes estimate   =   -1946.45842388 Ry
     estimated scf accuracy    <       0.00002208 Ry

     iteration # 30     ecut=    40.00 Ry     beta=0.70
     Davidson diagonalization with overlap
     ethr =  4.10E-09,  avg # of iterations =  1.0

     negative rho (up, down):  0.685E+00 0.000E+00

     total cpu time spent up to now is     6342.0 secs

     total energy              =   -1946.45842204 Ry
     Harris-Foulkes estimate   =   -1946.45842301 Ry
     estimated scf accuracy    <       0.00000448 Ry

     iteration # 31     ecut=    40.00 Ry     beta=0.70
     Davidson diagonalization with overlap
     ethr =  1.93E-09,  avg # of iterations =  1.0

     negative rho (up, down):  0.685E+00 0.000E+00

     total cpu time spent up to now is     6532.5 secs

     total energy              =   -1946.45842134 Ry
     Harris-Foulkes estimate   =   -1946.45842399 Ry
     estimated scf accuracy    <       0.00001766 Ry

     iteration # 32     ecut=    40.00 Ry     beta=0.70
     Davidson diagonalization with overlap
     ethr =  1.93E-09,  avg # of iterations =  1.0

     negative rho (up, down):  0.685E+00 0.000E+00

     total cpu time spent up to now is     6720.7 secs

     total energy              =   -1946.45842254 Ry
     Harris-Foulkes estimate   =   -1946.45842285 Ry
     estimated scf accuracy    <       0.00000204 Ry

     iteration # 33     ecut=    40.00 Ry     beta=0.70
     Davidson diagonalization with overlap
     ethr =  8.81E-10,  avg # of iterations =  1.0

     negative rho (up, down):  0.685E+00 0.000E+00

     total cpu time spent up to now is     6914.5 secs

     End of self-consistent calculation
 --- enter write_ns ---
 LDA+U parameters:
U( 2)     =  4.50000000
alpha( 2) =  0.00000000
atom    3   Tr[ns(na)] =   8.06218
    eigenvalues: 
  0.581  0.598  0.915  0.964  0.973
    eigenvectors:
  0.000  0.208  0.002  0.000  0.790
  1.000  0.000  0.000  0.000  0.000
  0.000  0.000  0.997  0.000  0.002
  0.000  0.792  0.000  0.000  0.208
  0.000  0.000  0.000  1.000  0.000
    occupations:
  0.895 -0.000  0.001 -0.152 -0.000
 -0.000  0.581 -0.000 -0.000 -0.006
  0.001 -0.000  0.915 -0.005  0.001
 -0.152 -0.000 -0.005  0.676 -0.000
 -0.000 -0.006  0.001 -0.000  0.964
atom    4   Tr[ns(na)] =   8.05857
    eigenvalues: 
  0.599  0.649  0.876  0.926  0.979
    eigenvectors:
  0.001  0.991  0.000  0.000  0.008
  0.000  0.000  0.057  0.943  0.000
  0.000  0.000  0.943  0.057  0.000
  0.000  0.008  0.000  0.000  0.992
  0.999  0.001  0.000  0.000  0.000
    occupations:
  0.652 -0.004 -0.001  0.029  0.001
 -0.004  0.923  0.011  0.001 -0.001
 -0.001  0.011  0.879 -0.001  0.001
  0.029  0.001 -0.001  0.976  0.000
  0.001 -0.001  0.001  0.000  0.599
atom    9   Tr[ns(na)] =   8.05926
    eigenvalues: 
  0.633  0.646  0.871  0.898  0.980
    eigenvectors:
  0.000  0.154  0.000  0.000  0.845
  0.999  0.001  0.000  0.000  0.000
  0.000  0.000  1.000  0.000  0.000
  0.001  0.845  0.000  0.000  0.155
  0.000  0.000  0.000  1.000  0.000
    occupations:
  0.929  0.000 -0.000 -0.121 -0.001
  0.000  0.633  0.000  0.000 -0.000
 -0.000  0.000  0.871 -0.000 -0.000
 -0.121  0.000 -0.000  0.698  0.001
 -0.001 -0.000 -0.000  0.001  0.898
atom   10   Tr[ns(na)] =   8.04494
    eigenvalues: 
  0.587  0.593  0.932  0.933  0.977
    eigenvectors:
  0.995  0.000  0.000  0.000  0.005
  0.000  0.000  0.969  0.031  0.000
  0.000  0.000  0.031  0.969  0.000
  0.005  0.000  0.000  0.000  0.995
  0.000  1.000  0.000  0.000  0.000
    occupations:
  0.589  0.000  0.002  0.028 -0.000
  0.000  0.932 -0.000  0.000 -0.001
  0.002 -0.000  0.933  0.000  0.000
  0.028  0.000  0.000  0.975  0.000
 -0.000 -0.001  0.000  0.000  0.593
atom   16   Tr[ns(na)] =   8.06219
    eigenvalues: 
  0.581  0.598  0.915  0.964  0.973
    eigenvectors:
  0.000  0.208  0.002  0.000  0.790
  1.000  0.000  0.000  0.000  0.000
  0.000  0.000  0.997  0.000  0.002
  0.000  0.792  0.000  0.000  0.208
  0.000  0.000  0.000  1.000  0.000
    occupations:
  0.895 -0.000  0.001 -0.152 -0.000
 -0.000  0.581 -0.000 -0.000 -0.006
  0.001 -0.000  0.915 -0.005  0.001
 -0.152 -0.000 -0.005  0.676 -0.000
 -0.000 -0.006  0.001 -0.000  0.964
atom   17   Tr[ns(na)] =   8.05864
    eigenvalues: 
  0.599  0.649  0.876  0.926  0.979
    eigenvectors:
  0.001  0.991  0.000  0.000  0.008
  0.000  0.000  0.057  0.943  0.000
  0.000  0.000  0.943  0.057  0.000
  0.000  0.008  0.000  0.000  0.992
  0.999  0.001  0.000  0.000  0.000
    occupations:
  0.652 -0.004 -0.001  0.029  0.001
 -0.004  0.923  0.011  0.001 -0.001
 -0.001  0.011  0.879 -0.001  0.001
  0.029  0.001 -0.001  0.976  0.000
  0.001 -0.001  0.001  0.000  0.599
atom   22   Tr[ns(na)] =   8.05926
    eigenvalues: 
  0.633  0.646  0.871  0.898  0.980
    eigenvectors:
  0.000  0.154  0.000  0.000  0.845
  0.999  0.001  0.000  0.000  0.000
  0.000  0.000  1.000  0.000  0.000
  0.001  0.845  0.000  0.000  0.155
  0.000  0.000  0.000  1.000  0.000
    occupations:
  0.929  0.000 -0.000 -0.121 -0.001
  0.000  0.633  0.000  0.000 -0.000
 -0.000  0.000  0.871 -0.000 -0.000
 -0.121  0.000 -0.000  0.698  0.001
 -0.001 -0.000 -0.000  0.001  0.898
atom   23   Tr[ns(na)] =   8.04490
    eigenvalues: 
  0.587  0.593  0.932  0.933  0.977
    eigenvectors:
  0.995  0.000  0.000  0.000  0.005
  0.000  0.000  0.968  0.032  0.000
  0.000  0.000  0.032  0.968  0.000
  0.005  0.000  0.000  0.000  0.995
  0.000  1.000  0.000  0.000  0.000
    occupations:
  0.589  0.000  0.002  0.028 -0.000
  0.000  0.932 -0.000  0.000 -0.001
  0.002 -0.000  0.933  0.000  0.000
  0.028  0.000  0.000  0.975  0.000
 -0.000 -0.001  0.000  0.000  0.593
N of occupied +U levels =  64.4499356
 --- exit write_ns ---

          k = 0.0000 0.0000 0.0000 ( 30479 PWs)   bands (ev):

   -48.8500 -48.7706 -48.7591 -48.7479 -48.7390 -48.7361 -48.6722 -48.6692
   -48.6521 -48.6408 -48.6388 -48.6305 -48.5562 -48.5495 -48.4920 -48.4655
   -48.4592 -48.3912 -48.3809 -48.3746 -48.3583 -48.3410 -48.3399 -48.3215
   -21.5000 -21.0990 -21.0470 -21.0279 -20.4347 -20.4261 -20.3451 -20.3155
   -20.2749 -20.2566 -20.1653 -20.1368 -20.1354 -19.8133 -19.7073 -19.6407
   -19.0554 -18.9004 -10.5230 -10.4391 -10.1012  -9.5109  -9.3966  -9.2925
    -9.1249  -9.0744  -8.7949  -8.7686  -8.6553  -8.5546  -8.5291  -8.2335
    -8.2243  -8.1518  -8.1400  -8.1155  -7.9323  -7.7988  -7.5087  -7.4305
    -7.1190  -7.0883  -6.9620  -6.7534  -6.6029  -6.5263  -6.5090  -6.4494
    -6.3839  -6.0304  -6.0145  -5.8581  -5.8338  -5.7961  -5.6048  -5.4293
    -5.3286  -5.2630  -5.2318  -5.0614  -4.9316  -4.8679  -4.8461  -4.8394
    -4.8096  -4.7152  -4.7114  -4.6859  -4.6813  -4.6482  -4.5975  -4.4881
    -4.3891  -4.3569  -4.2799  -4.1564  -3.9670  -3.8977  -3.8846  -3.5976
    -3.5241  -3.3363  -3.3331  -3.1134  -2.9620  -2.8569  -2.7480  -2.6027
    -2.5870  -2.3274  -2.0424  -2.0273  -1.9750  -1.7084  -1.4406  -1.3129
    -1.3074  -1.0891   0.0943   0.2018   0.4671   0.5868   0.6370   0.6617
     0.9041   0.9751   1.3740   1.8208   1.9752   2.0193   2.1512   2.2625
     3.0144   3.5109   3.9957   4.4295   4.7743   5.5854   5.8070   6.0006
     6.2231   6.7512   6.7773   6.8106   7.0586   7.1837   7.2393   7.4244
     7.5866   7.6439   7.7183   7.8045   7.9233   7.9618   8.0402   8.0972
     8.1124   8.1625   8.3386   8.3526   8.4583   8.5124   8.5947   8.7485
     8.7806   8.8639   8.9834   9.1111   9.1338   9.3229   9.4217   9.5364
     9.6379   9.6472   9.8474   9.9877  10.0412  10.3162  10.4955  10.5273
    10.6274  10.7106  10.7196  10.8151  10.9590  11.0527  11.0568  11.0750
    11.0983  11.1282  11.2230  11.3423  11.4978  11.5229  11.5436  11.5543
    11.7541  11.7882  11.8173  11.8644  11.8945  11.9093  11.9676  12.0839
    12.1004  12.1404  12.2645  12.3157  12.3270  12.4156  12.4582  12.4987
    12.6143  12.6466  12.7319  12.8301  12.8656  12.9399  13.0188  13.1308
    13.3713  13.4172  13.4399  13.5731  13.6139  13.7409  13.7882  13.8889
    14.0381  14.0679  14.2485  14.2489  14.3309  14.3737  14.5475  14.7816
    14.8004  14.9636  14.9641  15.0454  15.2283  15.2352  15.3279  15.4171
    15.5247  15.5938  15.6850  15.7060  15.7566  15.9075  15.9691  16.1272
    16.1934  16.2738  16.4649  16.6017  16.6517  16.6613  16.9480  16.9734
    16.9878  17.0791  17.0820  17.1213  17.2358  17.4112  17.5545  17.6442
    17.6447  17.7152  17.9317  17.9818  18.0668  18.1608  18.1781  18.2008
    18.2731  18.3861  18.4080  18.4150  18.4742  18.5741  18.6276  18.6328
    18.7329  18.7390  18.8003  18.8648  18.9679  19.0452  19.0985  19.2227
    19.2285  19.3647  19.4205  19.4943  19.5144  19.6069  19.6212  19.6439
    19.7043  19.7644  19.7663  19.8571  19.8992  19.9240  19.9879  20.0891
    20.1692  20.2670  20.3056  20.3807  20.4477  20.4850  20.5073  20.5420
    20.5607  20.7059  20.8177  21.0339  21.0455  21.0806  21.1187  21.2239
    21.2673  21.4477  21.4645  21.4960  21.5561  21.6291  21.6552  21.7258
    21.7579  21.9858  21.9866  22.0755  22.1239  22.1494  22.1684  22.2296
    22.2736  22.3071  22.3790  22.3937

          k = 0.0000 0.2417 0.0000 ( 30538 PWs)   bands (ev):

   -48.8503 -48.7707 -48.7592 -48.7475 -48.7408 -48.7360 -48.6708 -48.6691
   -48.6512 -48.6407 -48.6388 -48.6306 -48.5554 -48.5504 -48.4917 -48.4667
   -48.4591 -48.3913 -48.3810 -48.3747 -48.3590 -48.3407 -48.3400 -48.3216
   -21.4403 -21.0455 -21.0270 -20.9631 -20.4765 -20.4501 -20.4206 -20.4075
   -20.3522 -20.1591 -20.1554 -20.0712 -20.0333 -19.8241 -19.8128 -19.7718
   -19.0539 -18.8980 -10.2374 -10.0828 -10.0322  -9.7228  -9.5147  -9.2977
    -9.2494  -9.1588  -8.8743  -8.6893  -8.5290  -8.4472  -8.3288  -8.2138
    -8.2070  -8.1584  -8.0007  -7.9972  -7.9069  -7.4954  -7.4259  -7.2532
    -7.2101  -7.1306  -7.0400  -6.9413  -6.6632  -6.5307  -6.4439  -6.4319
    -6.3624  -6.1563  -6.1379  -6.0412  -6.0208  -5.9842  -5.9137  -5.9012
    -5.7992  -5.4505  -5.4240  -5.3347  -5.1176  -4.9458  -4.8703  -4.7822
    -4.7736  -4.6475  -4.5796  -4.4952  -4.4564  -4.3546  -4.3185  -4.2953
    -4.2749  -4.1599  -4.1135  -4.0014  -3.8563  -3.7914  -3.7473  -3.6689
    -3.5622  -3.4721  -3.4221  -3.3598  -3.3200  -3.1552  -2.7908  -2.5919
    -2.5504  -2.0896  -2.0828  -1.9616  -1.8304  -1.6736  -1.5089  -1.4950
    -1.2300  -0.7765  -0.4937  -0.3257   0.2321   0.4719   0.6519   1.0438
     1.3728   1.6944   1.8096   1.8448   1.8631   1.8699   2.0297   2.2643
     3.3015   3.7069   4.2276   4.6352   4.9956   5.2113   5.7200   5.9131
     6.0517   6.1293   6.3832   6.5178   6.8630   6.9306   6.9440   7.1523
     7.3699   7.5105   7.5307   7.7131   7.7534   8.0124   8.1356   8.1445
     8.2902   8.4718   8.5080   8.6066   8.6705   8.8609   8.9035   8.9195
     9.1359   9.1982   9.2331   9.3736   9.4122   9.5439   9.5569   9.6322
     9.6473   9.7916   9.8903   9.9255   9.9843  10.0562  10.0603  10.2075
    10.3037  10.3487  10.3697  10.6713  10.6783  10.7593  10.7683  10.9084
    10.9419  11.0333  11.1130  11.1271  11.2466  11.2815  11.4503  11.5096
    11.7623  11.8929  12.0777  12.1250  12.1568  12.1648  12.2842  12.2845
    12.3403  12.4736  12.4860  12.6032  12.6265  12.7709  12.8303  12.9445
    13.0009  13.0199  13.1328  13.2121  13.3632  13.4836  13.5067  13.5289
    13.6850  13.7244  13.8074  13.8314  13.9097  13.9611  14.0016  14.0737
    14.1199  14.1265  14.3004  14.4032  14.4141  14.4777  14.6657  14.7036
    14.7407  14.8733  14.9581  15.1625  15.1798  15.2165  15.2705  15.2869
    15.4062  15.5338  15.6660  15.6838  15.7150  15.8334  15.8412  15.9812
    16.0013  16.1946  16.2502  16.3636  16.3661  16.4705  16.5073  16.6215
    16.7703  16.8522  16.8852  16.9489  17.0240  17.1036  17.1274  17.1754
    17.2417  17.2998  17.4911  17.5195  17.5854  17.7805  17.9965  17.9967
    18.0408  18.1936  18.2880  18.3778  18.3905  18.4212  18.4589  18.4901
    18.5860  18.7150  18.7745  18.7778  18.8520  18.8808  18.9756  18.9984
    19.0861  19.1922  19.2529  19.3004  19.4416  19.4721  19.5319  19.5787
    19.7031  19.7164  19.7529  19.7542  19.7916  19.8162  19.8322  19.8662
    19.9188  19.9978  20.0568  20.0757  20.1346  20.2549  20.3121  20.4003
    20.4250  20.4343  20.5585  20.7218  20.7465  20.8645  20.8790  20.8862
    20.9904  21.0222  21.1135  21.1166  21.1516  21.1826  21.2442  21.3425
    21.3615  21.4405  21.5799  21.5935  21.6120  21.6579  21.7130  21.7248
    21.8813  21.8983  21.9491  22.0268

          k = 0.0000-0.4833 0.0000 ( 30492 PWs)   bands (ev):

   -48.8504 -48.7706 -48.7591 -48.7470 -48.7423 -48.7358 -48.6697 -48.6684
   -48.6502 -48.6405 -48.6388 -48.6306 -48.5534 -48.5523 -48.4912 -48.4679
   -48.4587 -48.3914 -48.3810 -48.3746 -48.3596 -48.3402 -48.3400 -48.3215
   -21.3781 -21.0440 -20.9856 -20.8016 -20.5541 -20.4857 -20.4776 -20.4150
   -20.3879 -20.1794 -20.1598 -19.9968 -19.9607 -19.9603 -19.8948 -19.8109
   -19.0524 -18.8966 -10.1213  -9.9246  -9.7181  -9.5878  -9.5384  -9.4966
    -9.2993  -9.1920  -8.5643  -8.4949  -8.4167  -8.3165  -8.2361  -8.2249
    -8.1973  -8.1686  -8.0945  -8.0051  -7.8991  -7.5811  -7.4169  -7.4147
    -7.2847  -7.1275  -7.0478  -7.0264  -6.7593  -6.5212  -6.4740  -6.4525
    -6.4408  -6.3858  -6.3628  -6.2958  -6.1047  -6.0275  -5.9504  -5.8569
    -5.6087  -5.5502  -5.5468  -5.3653  -5.2701  -5.0467  -4.9333  -4.9216
    -4.7205  -4.5940  -4.4972  -4.3926  -4.3529  -4.2968  -4.2948  -4.2589
    -4.2222  -4.2133  -4.1858  -3.9634  -3.9012  -3.8770  -3.7304  -3.6423
    -3.6065  -3.4905  -3.3873  -3.3315  -3.0762  -3.0445  -2.8308  -2.5082
    -2.4965  -2.4002  -2.1729  -2.1067  -1.7089  -1.5537  -1.5299  -1.4995
    -1.1747  -0.9281  -0.7764  -0.5162   0.2580   0.6669   0.7664   1.3500
     1.3702   1.6325   1.6594   1.7538   1.9149   2.1788   2.2653   2.3200
     3.8351   4.0917   4.3670   4.8660   4.9285   5.0343   5.3083   5.5031
     5.7069   5.9407   6.4019   6.5292   6.5707   6.6934   6.8624   6.9924
     7.2586   7.3507   7.5400   7.6064   7.8170   7.8820   8.1806   8.4895
     8.6178   8.6454   8.6919   8.7558   8.7569   8.8123   8.9233   8.9907
     8.9982   9.1119   9.1552   9.1755   9.2702   9.3003   9.3766   9.5182
     9.5658   9.5732   9.7933   9.8438   9.9163  10.0102  10.0601  10.3893
    10.4284  10.4382  10.4924  10.6956  10.7403  11.0303  11.0310  11.1421
    11.3049  11.3126  11.3726  11.4125  11.4386  11.6192  11.6198  11.6731
    11.7557  11.8644  11.9700  12.1267  12.2059  12.2387  12.3408  12.3730
    12.5333  12.5976  12.7386  12.7496  12.7760  12.8860  12.9426  12.9784
    13.0842  13.2248  13.2559  13.3089  13.3387  13.3754  13.3787  13.5319
    13.6299  13.7302  13.7947  13.8696  13.9786  14.1189  14.1407  14.2190
    14.2610  14.3298  14.3970  14.4562  14.5074  14.7942  14.8479  14.9778
    15.1157  15.1803  15.2943  15.3323  15.3791  15.4307  15.4735  15.4940
    15.5347  15.6814  15.7241  15.8529  15.8714  15.9610  15.9684  16.0244
    16.1551  16.1795  16.2532  16.3007  16.3166  16.3708  16.4169  16.4234
    16.5827  16.6512  16.6840  16.7571  16.8054  16.9342  17.0154  17.0337
    17.1923  17.2340  17.2456  17.3126  17.4131  17.5304  17.5744  17.5823
    17.6746  17.7481  17.7986  17.9095  17.9149  17.9574  17.9717  18.0104
    18.1100  18.1846  18.2138  18.2672  18.2675  18.2910  18.4890  18.5437
    18.5482  18.6695  18.7185  18.8186  18.9516  19.0873  19.2554  19.3130
    19.5067  19.6007  19.6073  19.6461  19.6543  19.7140  19.8906  19.9364
    19.9916  20.1397  20.1678  20.1771  20.2871  20.3012  20.3348  20.3914
    20.4229  20.4494  20.4779  20.4875  20.5226  20.5448  20.5789  20.6678
    20.6933  20.7433  20.7779  20.7826  20.9107  20.9415  21.0335  21.0621
    21.1082  21.2258  21.2364  21.3494  21.4426  21.4723  21.4867  21.5062
    21.5491  21.5541  21.5877  21.5925

          k = 0.2500 0.0000 0.0000 ( 30502 PWs)   bands (ev):

   -48.8348 -48.7720 -48.7601 -48.7495 -48.7467 -48.7406 -48.6576 -48.6526
   -48.6521 -48.6434 -48.6376 -48.6318 -48.5750 -48.5680 -48.4774 -48.4646
   -48.4602 -48.3995 -48.3877 -48.3770 -48.3557 -48.3436 -48.3372 -48.3243
   -21.3955 -21.0566 -20.9979 -20.9283 -20.5542 -20.4314 -20.3842 -20.3583
   -20.3006 -20.1973 -20.1291 -20.0923 -20.0812 -19.8332 -19.7946 -19.7221
   -19.1008 -18.9734 -10.2643 -10.1917  -9.8859  -9.4087  -9.2565  -9.1494
    -8.9770  -8.9415  -8.8627  -8.8415  -8.7386  -8.6229  -8.5938  -8.5169
    -8.3392  -8.1584  -8.1062  -8.0265  -7.7681  -7.7654  -7.5561  -7.4618
    -7.2646  -7.1365  -7.0027  -6.8104  -6.6684  -6.5812  -6.5355  -6.4856
    -6.4359  -6.4133  -6.2085  -5.9545  -5.9240  -5.8591  -5.7943  -5.7236
    -5.6420  -5.5283  -5.3988  -5.3553  -5.3030  -5.2220  -5.0550  -4.8734
    -4.8640  -4.7446  -4.7197  -4.6246  -4.6196  -4.4143  -4.2889  -4.2635
    -4.1849  -4.1363  -3.9767  -3.9377  -3.7302  -3.6706  -3.5517  -3.5216
    -3.3320  -3.1973  -3.1889  -2.9603  -2.7626  -2.7174  -2.6985  -2.5836
    -2.5060  -2.3211  -2.2578  -2.1450  -2.0350  -1.8445  -1.6127  -1.4453
    -1.1008  -0.9463   0.2155   0.3146   0.5738   0.6073   0.7139   0.7159
     0.8397   1.0254   1.1805   1.6795   1.6959   1.7384   1.7940   2.1516
     3.3521   3.8077   4.2493   4.6806   5.0525   5.2440   5.6821   5.8209
     6.0773   6.1922   6.2933   6.5276   6.9195   7.0065   7.3007   7.3572
     7.4211   7.4715   7.8154   7.8382   7.8729   7.8934   7.9814   8.2313
     8.2937   8.4024   8.4525   8.4926   8.7008   8.8177   8.8766   8.9872
     9.0407   9.0436   9.2186   9.2395   9.3819   9.4358   9.6277   9.6599
     9.7687   9.8741   9.8883   9.9536  10.0274  10.1389  10.2052  10.2065
    10.2779  10.4077  10.4835  10.5281  10.7130  10.8426  10.9100  10.9131
    10.9763  11.0819  11.1489  11.2138  11.2203  11.2568  11.3158  11.4588
    11.5519  11.6674  11.8891  11.9628  12.0470  12.0780  12.2735  12.2802
    12.3100  12.3863  12.4067  12.5510  12.5949  12.7105  12.8059  12.9404
    12.9582  13.1227  13.2834  13.3118  13.3856  13.5159  13.5840  13.6578
    13.7386  13.7680  13.8613  13.8875  13.9020  13.9756  14.0240  14.1072
    14.1653  14.2648  14.3095  14.4477  14.5082  14.5520  14.6601  14.6925
    14.7710  14.8599  15.1570  15.1942  15.2452  15.3179  15.3375  15.4000
    15.4640  15.4951  15.6751  15.7374  15.8213  15.8558  15.9295  15.9298
    15.9993  16.0062  16.1770  16.2715  16.3241  16.3778  16.4567  16.5488
    16.5565  16.6822  16.9596  17.0166  17.0444  17.0520  17.2095  17.2786
    17.3389  17.3858  17.5146  17.5596  17.7433  17.7447  17.8946  18.0442
    18.0528  18.1344  18.1369  18.2860  18.3980  18.4118  18.5820  18.6160
    18.7511  18.8153  18.8835  18.9940  19.0184  19.0686  19.0754  19.1196
    19.1602  19.2003  19.2575  19.3422  19.3596  19.3847  19.4793  19.5073
    19.5385  19.6008  19.6428  19.7047  19.7321  19.7716  19.8128  19.8607
    19.9276  20.0037  20.0643  20.2256  20.2808  20.3558  20.3742  20.4125
    20.4169  20.4600  20.4821  20.5692  20.6476  20.6853  20.6939  20.7353
    20.7973  20.8473  20.8521  20.9461  20.9538  21.0507  21.1638  21.2072
    21.3293  21.3502  21.3757  21.3852  21.4500  21.5908  21.5945  21.6505
    21.7271  21.7795  21.8245  21.9377

          k = 0.2500 0.2417 0.0000 ( 30481 PWs)   bands (ev):

   -48.8349 -48.7721 -48.7601 -48.7496 -48.7464 -48.7415 -48.6564 -48.6524
   -48.6511 -48.6432 -48.6377 -48.6318 -48.5739 -48.5691 -48.4770 -48.4657
   -48.4601 -48.3996 -48.3878 -48.3770 -48.3562 -48.3433 -48.3373 -48.3243
   -21.3477 -21.0544 -20.9310 -20.8497 -20.5491 -20.4411 -20.4064 -20.3760
   -20.3090 -20.2261 -20.1073 -20.0925 -20.0746 -19.9044 -19.8396 -19.8338
   -19.1000 -18.9712  -9.9952  -9.8364  -9.8058  -9.5588  -9.3022  -9.1592
    -9.0678  -8.9734  -8.7944  -8.7519  -8.6787  -8.4953  -8.4942  -8.3885
    -8.3083  -8.1656  -8.0334  -8.0258  -7.7296  -7.6043  -7.4766  -7.3469
    -7.1541  -7.1479  -7.0678  -7.0186  -6.9099  -6.6709  -6.6126  -6.5353
    -6.5129  -6.4246  -6.4204  -6.2311  -6.1582  -6.0430  -6.0120  -5.9627
    -5.8618  -5.7166  -5.6667  -5.4820  -5.2305  -5.1055  -5.0407  -4.9935
    -4.8581  -4.7584  -4.6567  -4.5137  -4.3800  -4.2954  -4.2106  -4.1095
    -3.9997  -3.9716  -3.8230  -3.7293  -3.6681  -3.5958  -3.4616  -3.4421
    -3.3590  -3.2555  -3.1940  -3.1530  -3.0449  -3.0367  -2.7603  -2.5314
    -2.3279  -2.1968  -2.1822  -2.0734  -2.0518  -1.8761  -1.6768  -1.6308
    -1.0096  -0.7079  -0.2654  -0.1134   0.3545   0.5067   0.6347   0.9157
     1.1465   1.3869   1.5268   1.6130   1.7845   1.7887   1.9168   2.1218
     3.6196   3.9905   4.4798   4.8819   5.2516   5.4168   5.4802   5.8032
     5.9573   6.1992   6.3126   6.3878   6.3985   6.6857   6.7777   6.9808
     7.1759   7.3359   7.4274   7.6278   7.6794   7.8560   8.0032   8.0300
     8.0569   8.2150   8.3913   8.4355   8.6196   8.7545   8.8224   8.8943
     8.9117   9.1670   9.3067   9.4531   9.4938   9.6384   9.6784   9.7608
     9.8342   9.9089  10.0870  10.1448  10.2338  10.2862  10.3571  10.5552
    10.5764  10.6361  10.7968  10.8468  10.8678  11.0024  11.0267  11.1669
    11.2918  11.3084  11.4052  11.4783  11.4963  11.5846  11.6841  11.7321
    11.7972  11.9655  12.0759  12.1428  12.1662  12.1980  12.2544  12.3625
    12.4381  12.4659  12.5913  12.6087  12.6912  12.7866  12.8817  13.0083
    13.0692  13.1237  13.2339  13.2600  13.3418  13.3642  13.4825  13.5491
    13.6921  13.7077  13.7626  13.8391  13.9354  14.0650  14.0783  14.1303
    14.1645  14.2593  14.4169  14.4668  14.5591  14.5922  14.6414  14.7665
    14.8410  15.0931  15.1961  15.2463  15.3733  15.4217  15.5027  15.5092
    15.5421  15.6362  15.7081  15.7084  15.7788  15.9035  15.9487  15.9934
    16.0704  16.0792  16.1881  16.2794  16.3118  16.3723  16.4166  16.4902
    16.5315  16.5737  16.6403  16.6641  16.7562  16.8382  16.9471  16.9578
    17.1497  17.1794  17.2185  17.3054  17.3474  17.4057  17.4781  17.5177
    17.5734  17.6175  17.7506  17.7825  17.8421  17.8783  18.0005  18.0613
    18.0828  18.1690  18.2765  18.3721  18.3957  18.4882  18.5105  18.6221
    18.7136  18.8275  18.8480  18.9509  18.9764  19.0421  19.0732  19.1494
    19.1532  19.2630  19.3231  19.4801  19.4837  19.5619  19.6240  19.7543
    19.8233  19.8602  19.8988  20.0756  20.0803  20.2124  20.3493  20.4332
    20.4588  20.5243  20.5883  20.6382  20.6738  20.7791  20.8291  20.9541
    20.9974  21.0090  21.0765  21.1314  21.2063  21.2293  21.3172  21.3672
    21.4176  21.4249  21.6016  21.6164  21.6191  21.6681  21.7654  21.8288
    21.8448  21.9264  22.0189  22.1218

          k = 0.2500-0.4833 0.0000 ( 30510 PWs)   bands (ev):

   -48.8352 -48.7720 -48.7600 -48.7494 -48.7462 -48.7426 -48.6544 -48.6533
   -48.6504 -48.6428 -48.6376 -48.6318 -48.5721 -48.5708 -48.4767 -48.4667
   -48.4603 -48.3995 -48.3879 -48.3770 -48.3569 -48.3432 -48.3373 -48.3242
   -21.3007 -21.0519 -20.8621 -20.7041 -20.5431 -20.4261 -20.4098 -20.4022
   -20.3938 -20.2466 -20.1500 -20.0764 -20.0483 -20.0400 -19.9371 -19.8343
   -19.0993 -18.9698  -9.8968  -9.6862  -9.4631  -9.3372  -9.3290  -9.2413
    -9.1656  -9.0008  -8.6721  -8.5262  -8.4398  -8.4097  -8.3391  -8.3236
    -8.2370  -8.1602  -8.0099  -7.9921  -7.8930  -7.6133  -7.5237  -7.4874
    -7.2967  -7.1016  -7.0499  -7.0025  -6.9867  -6.9605  -6.8498  -6.7889
    -6.6241  -6.6176  -6.4967  -6.4456  -6.2452  -6.1462  -6.0870  -6.0489
    -5.9797  -5.9306  -5.5547  -5.4658  -5.2011  -5.1705  -5.0357  -5.0170
    -4.8888  -4.7325  -4.5995  -4.4360  -4.2778  -4.2629  -4.0762  -3.9541
    -3.9385  -3.8288  -3.8116  -3.7329  -3.7155  -3.6089  -3.5783  -3.4542
    -3.3691  -3.2688  -3.1513  -3.1471  -3.0028  -2.7383  -2.6986  -2.4765
    -2.4639  -2.2850  -2.2633  -2.1849  -1.9184  -1.8410  -1.7243  -1.6712
    -0.9371  -0.6857  -0.5464  -0.5127   0.3815   0.6490   0.7706   0.9253
     1.0933   1.1346   1.6605   1.7651   1.7789   2.0272   2.0692   2.2336
     4.1091   4.3182   4.6346   5.1178   5.1766   5.3019   5.5586   5.7182
     5.7737   5.9654   5.9836   6.2391   6.4235   6.6693   6.8345   7.0092
     7.0314   7.0757   7.1432   7.2206   7.3975   7.6609   7.7899   7.8098
     8.0983   8.1534   8.1884   8.2295   8.4542   8.4911   8.6296   8.7897
     8.9555   9.0045   9.1202   9.4206   9.4557   9.5768   9.8676   9.8942
     9.9870  10.0469  10.0906  10.4292  10.6889  10.7334  10.7809  10.8084
    10.9145  11.0381  11.1122  11.1806  11.2564  11.3115  11.3621  11.3703
    11.4118  11.5350  11.6263  11.7590  11.7649  11.8879  11.8882  11.9281
    12.0419  12.0432  12.1494  12.2253  12.3726  12.3832  12.5431  12.5477
    12.6813  12.6970  12.7778  12.8327  12.8734  12.8819  13.0730  13.1277
    13.2134  13.2410  13.2946  13.3420  13.3499  13.4512  13.4874  13.5090
    13.5391  13.7048  13.7552  13.9143  14.0394  14.0487  14.1777  14.2624
    14.3236  14.3547  14.4376  14.5369  14.5374  14.5576  14.5986  14.6048
    14.7450  14.7737  14.7901  14.8804  14.9601  14.9749  14.9990  15.1065
    15.1911  15.2656  15.4535  15.4597  15.5990  15.6265  15.6968  15.8826
    15.9309  16.0144  16.0295  16.1017  16.1931  16.2332  16.3469  16.4467
    16.5308  16.5990  16.6603  16.6713  16.7995  16.8403  16.8694  16.9072
    16.9708  17.0195  17.1337  17.1843  17.1944  17.2910  17.3288  17.4125
    17.4809  17.4976  17.5615  17.7555  17.8188  17.8946  17.9076  17.9459
    18.0581  18.1173  18.1608  18.1892  18.2749  18.3888  18.3903  18.4724
    18.5011  18.5505  18.6076  18.6465  18.6923  18.8061  18.8723  18.8735
    18.9732  18.9880  19.0483  19.2398  19.3133  19.3618  19.4370  19.5441
    19.5747  19.6420  19.7455  19.7549  19.7934  19.8091  19.9027  19.9031
    20.0358  20.0971  20.3059  20.4034  20.5144  20.5225  20.5522  20.6708
    20.7185  20.7776  20.8327  20.9150  20.9894  21.0386  21.0896  21.2343
    21.2694  21.3868  21.4053  21.4598  21.5455  21.7450  21.7739  21.8536
    21.9179  22.0107  22.0326  22.1042

          k =-0.5000 0.0000 0.0000 ( 30524 PWs)   bands (ev):

   -48.7976 -48.7975 -48.7613 -48.7612 -48.7438 -48.7438 -48.6490 -48.6488
   -48.6350 -48.6349 -48.6180 -48.6180 -48.6115 -48.6115 -48.4625 -48.4625
   -48.4398 -48.4398 -48.3826 -48.3826 -48.3497 -48.3497 -48.3308 -48.3308
   -21.1748 -21.1745 -20.7831 -20.7830 -20.6641 -20.6641 -20.4369 -20.4369
   -20.1888 -20.1888 -20.0002 -20.0002 -19.9323 -19.9322 -19.9113 -19.9113
   -19.0988 -19.0987  -9.5871  -9.5871  -9.5369  -9.5369  -9.4412  -9.4411
    -8.9708  -8.9708  -8.8472  -8.8472  -8.7226  -8.7226  -8.6021  -8.6021
    -8.3174  -8.3174  -8.1730  -8.1730  -7.7217  -7.7217  -7.2454  -7.2454
    -7.1157  -7.1157  -6.9310  -6.9310  -6.8317  -6.8317  -6.6558  -6.6558
    -6.5589  -6.5589  -6.3680  -6.3680  -6.0386  -6.0386  -5.9362  -5.9362
    -5.9040  -5.9040  -5.5723  -5.5723  -5.4899  -5.4899  -4.9035  -4.9034
    -4.8010  -4.8010  -4.5499  -4.5499  -4.2042  -4.2042  -4.1057  -4.1056
    -4.0384  -4.0384  -3.8911  -3.8910  -3.6120  -3.6120  -3.5392  -3.5392
    -3.0083  -3.0083  -2.9002  -2.9002  -2.6725  -2.6725  -2.5478  -2.5478
    -2.3332  -2.3331  -2.2858  -2.2858  -2.0034  -2.0033  -1.7783  -1.7783
    -0.8595  -0.8594   0.3876   0.3876   0.6250   0.6250   0.9964   0.9964
     1.0568   1.0569   1.0980   1.0980   1.1269   1.1270   1.9050   1.9050
     4.1609   4.1610   4.5731   4.5731   4.9958   4.9958   5.4027   5.4028
     5.8296   5.8296   6.4608   6.4609   6.8210   6.8210   6.9887   6.9888
     7.6282   7.6282   7.9787   7.9787   8.0719   8.0719   8.1312   8.1312
     8.5700   8.5700   8.6026   8.6026   8.7030   8.7030   9.0031   9.0031
     9.0701   9.0701   9.1542   9.1542   9.2755   9.2756   9.6889   9.6889
     9.7193   9.7194   9.8328   9.8329   9.9103   9.9103  10.0163  10.0163
    10.2265  10.2266  10.4782  10.4782  10.6856  10.6856  10.7879  10.7879
    11.3007  11.3007  11.4874  11.4874  11.6387  11.6388  11.7061  11.7061
    11.8018  11.8018  12.0790  12.0790  12.2566  12.2567  12.4422  12.4422
    12.5341  12.5341  12.7323  12.7323  12.8652  12.8652  13.0099  13.0099
    13.2579  13.2579  13.3637  13.3637  13.5032  13.5033  13.6754  13.6754
    13.7707  13.7707  13.9122  13.9122  14.0684  14.0684  14.2240  14.2240
    14.3124  14.3124  14.3829  14.3829  14.4724  14.4724  14.7391  14.7391
    14.8517  14.8517  15.0139  15.0139  15.1345  15.1345  15.5345  15.5345
    15.7983  15.7983  16.0612  16.0612  16.2144  16.2144  16.2525  16.2525
    16.2774  16.2774  16.3482  16.3482  16.4346  16.4346  16.5686  16.5686
    16.6095  16.6095  16.6546  16.6547  16.7417  16.7417  16.8237  16.8237
    17.0464  17.0464  17.1887  17.1887  17.4209  17.4209  17.6016  17.6016
    17.7971  17.7971  17.8957  17.8957  18.0879  18.0879  18.2913  18.2913
    18.3810  18.3810  18.4827  18.4828  18.7029  18.7029  18.8019  18.8020
    18.9110  18.9110  19.0474  19.0474  19.1500  19.1500  19.2297  19.2297
    19.3428  19.3428  19.4338  19.4338  19.5686  19.5687  19.6057  19.6057
    19.7240  19.7240  19.8250  19.8250  20.0063  20.0063  20.0847  20.0847
    20.1705  20.1705  20.2641  20.2641  20.3143  20.3143  20.4526  20.4526
    20.5713  20.5713  20.8146  20.8146  20.9567  20.9567  21.0175  21.0175
    21.1359  21.1359  21.1563  21.1563  21.3130  21.3130  21.3372  21.3372
    21.3880  21.3880  21.4883  21.4883

          k =-0.5000 0.2417 0.0000 ( 30500 PWs)   bands (ev):

   -48.7977 -48.7975 -48.7614 -48.7613 -48.7439 -48.7439 -48.6484 -48.6480
   -48.6350 -48.6349 -48.6170 -48.6166 -48.6123 -48.6120 -48.4631 -48.4629
   -48.4396 -48.4396 -48.3827 -48.3826 -48.3499 -48.3498 -48.3308 -48.3308
   -21.1572 -21.1567 -20.7179 -20.7174 -20.5816 -20.5815 -20.4449 -20.4448
   -20.2056 -20.1999 -20.0782 -20.0686 -20.0453 -20.0417 -19.9145 -19.9144
   -19.0975 -19.0974  -9.4691  -9.4668  -9.2537  -9.2435  -9.2169  -9.2131
    -8.9712  -8.9678  -8.8742  -8.8546  -8.7095  -8.7050  -8.5944  -8.5868
    -8.3769  -8.3027  -8.1097  -8.0045  -7.6936  -7.6727  -7.4188  -7.3999
    -7.2436  -7.2106  -7.1373  -7.0570  -6.9973  -6.8989  -6.8094  -6.7277
    -6.6512  -6.6456  -6.4615  -6.4598  -6.1992  -6.1442  -6.0077  -5.9994
    -5.9085  -5.8922  -5.7895  -5.6865  -5.4063  -5.3491  -5.1566  -5.0820
    -4.9486  -4.8447  -4.6742  -4.6012  -4.3239  -4.3045  -3.9389  -3.9249
    -3.6807  -3.6739  -3.5732  -3.5299  -3.5019  -3.4610  -3.4256  -3.4235
    -3.2036  -3.1441  -2.9470  -2.9466  -2.6758  -2.6652  -2.5244  -2.5238
    -2.3684  -2.3673  -2.2502  -2.2026  -2.1001  -2.0812  -1.9164  -1.9013
    -0.7402  -0.7399   0.3062   0.3169   0.4030   0.4037   0.6948   0.6980
     0.8024   0.8079   1.3373   1.3465   1.6196   1.6212   1.9985   2.0054
     4.3756   4.3867   4.7261   4.7261   5.2162   5.2163   5.5873   5.5943
     5.9371   5.9688   6.2259   6.2352   6.6407   6.6504   6.9639   6.9667
     7.0514   7.0611   7.0970   7.1072   7.5043   7.5194   7.8230   7.8314
     8.1118   8.1277   8.2783   8.3124   8.5606   8.6065   8.7382   8.7893
     9.0300   9.1272   9.4815   9.4891   9.7507   9.7621   9.8728   9.8781
    10.0285  10.0375  10.2120  10.2242  10.4213  10.4418  10.6213  10.6303
    10.7554  10.7644  10.9263  10.9316  10.9723  10.9745  11.1758  11.1880
    11.4950  11.5125  11.6628  11.6828  11.8793  11.8905  11.9567  11.9896
    12.0180  12.0398  12.1752  12.1778  12.3669  12.3765  12.5640  12.5669
    12.7234  12.7317  12.9392  12.9448  13.0103  13.0389  13.1299  13.1368
    13.2791  13.2922  13.4009  13.4300  13.5299  13.5423  13.6701  13.6795
    13.8633  13.8748  13.9161  13.9182  14.0770  14.0961  14.2531  14.2620
    14.3243  14.3384  14.5035  14.5305  14.5667  14.6149  14.6732  14.6854
    14.8034  14.8170  14.9347  14.9427  15.0190  15.0350  15.0917  15.0979
    15.2532  15.2624  15.4190  15.4343  15.4771  15.4812  15.7984  15.8054
    15.9336  15.9407  16.0798  16.0982  16.1549  16.1650  16.3412  16.3460
    16.3824  16.4316  16.4715  16.4848  16.5905  16.6042  16.7048  16.7231
    16.8731  16.8877  16.9953  17.0113  17.0220  17.1263  17.3049  17.3315
    17.5044  17.5190  17.6851  17.6904  17.7790  17.8148  17.8638  17.9358
    17.9814  18.0011  18.2843  18.2847  18.3296  18.3618  18.4452  18.4574
    18.5511  18.5549  18.7098  18.7218  18.7898  18.8080  18.9104  18.9192
    19.0531  19.0876  19.1726  19.1899  19.3833  19.4222  19.5126  19.5182
    19.5808  19.5988  19.6917  19.7026  19.8506  19.8670  20.0784  20.0836
    20.2063  20.2221  20.3578  20.3873  20.4825  20.4856  20.5977  20.6844
    20.7746  20.7844  20.8827  20.9184  21.0820  21.1201  21.3337  21.3348
    21.4609  21.4681  21.5613  21.5732  21.7261  21.7331  21.8562  21.8743
    21.9175  21.9694  22.1650  22.1748

          k =-0.5000-0.4833 0.0000 ( 30496 PWs)   bands (ev):

   -48.7977 -48.7976 -48.7614 -48.7613 -48.7441 -48.7441 -48.6476 -48.6475
   -48.6350 -48.6349 -48.6149 -48.6148 -48.6136 -48.6136 -48.4636 -48.4635
   -48.4394 -48.4394 -48.3827 -48.3827 -48.3500 -48.3500 -48.3309 -48.3309
   -21.1406 -21.1403 -20.5757 -20.5757 -20.5596 -20.5596 -20.3307 -20.3307
   -20.3059 -20.3059 -20.2280 -20.2280 -20.1212 -20.1212 -19.9168 -19.9167
   -19.0964 -19.0962  -9.4525  -9.4524  -9.0180  -9.0179  -8.9368  -8.9368
    -8.8141  -8.8141  -8.6803  -8.6803  -8.4831  -8.4830  -8.4739  -8.4739
    -8.3752  -8.3752  -8.1790  -8.1790  -7.9479  -7.9479  -7.6608  -7.6608
    -7.3586  -7.3586  -7.1974  -7.1974  -7.1122  -7.1122  -6.9034  -6.9034
    -6.6320  -6.6320  -6.5306  -6.5306  -6.3274  -6.3274  -6.2403  -6.2403
    -6.0611  -6.0611  -5.5194  -5.5193  -5.3597  -5.3597  -5.1592  -5.1592
    -5.0166  -5.0165  -4.5965  -4.5965  -4.2413  -4.2413  -3.8770  -3.8769
    -3.5617  -3.5617  -3.4875  -3.4875  -3.4051  -3.4051  -3.2229  -3.2229
    -3.1202  -3.1201  -3.1014  -3.1014  -2.5503  -2.5503  -2.4779  -2.4779
    -2.3210  -2.3209  -2.2387  -2.2387  -2.1210  -2.1210  -2.0574  -2.0573
    -0.6499  -0.6498   0.0136   0.0136   0.1028   0.1029   0.7332   0.7332
     0.7929   0.7930   1.5196   1.5196   1.8329   1.8329   2.0790   2.0790
     4.7829   4.7830   4.9654   4.9654   5.3561   5.3562   5.8460   5.8460
     5.8990   5.8990   6.0465   6.0465   6.2726   6.2726   6.5192   6.5192
     6.7220   6.7221   7.0266   7.0266   7.3874   7.3875   7.5932   7.5932
     7.7806   7.7806   7.8840   7.8840   8.4130   8.4131   8.8158   8.8158
     8.9646   8.9646   9.2657   9.2657   9.5521   9.5522  10.0178  10.0178
    10.2140  10.2140  10.4830  10.4830  10.7321  10.7321  11.0793  11.0793
    11.3463  11.3463  11.4248  11.4248  11.4705  11.4705  11.8413  11.8413
    11.9724  11.9724  12.1337  12.1337  12.2896  12.2896  12.4884  12.4884
    12.5857  12.5858  12.7288  12.7288  12.8402  12.8402  12.8993  12.8993
    12.9758  12.9758  13.1090  13.1090  13.2055  13.2055  13.2576  13.2576
    13.4214  13.4214  13.5028  13.5028  13.5497  13.5497  13.5927  13.5927
    13.6892  13.6892  13.7805  13.7805  13.9557  13.9557  13.9830  13.9830
    14.0723  14.0723  14.1500  14.1501  14.3049  14.3049  14.3312  14.3312
    14.4924  14.4924  14.5929  14.5929  14.7630  14.7631  14.9469  14.9469
    15.1073  15.1074  15.1503  15.1503  15.2065  15.2065  15.2897  15.2897
    15.4888  15.4888  15.5941  15.5941  15.6447  15.6447  15.8398  15.8398
    15.9629  15.9629  16.0518  16.0518  16.2221  16.2221  16.4317  16.4317
    16.5539  16.5539  16.7462  16.7463  16.9146  16.9146  16.9990  16.9990
    17.1100  17.1100  17.3363  17.3363  17.4857  17.4857  17.6313  17.6313
    18.0389  18.0390  18.0534  18.0535  18.2018  18.2018  18.2806  18.2806
    18.3750  18.3750  18.6076  18.6076  18.8112  18.8112  19.1461  19.1461
    19.3119  19.3119  19.4304  19.4304  19.5434  19.5434  19.6783  19.6783
    20.1254  20.1254  20.2338  20.2338  20.3206  20.3206  20.6196  20.6196
    20.6875  20.6875  20.7772  20.7772  20.8772  20.8772  20.9492  20.9492
    21.0301  21.0301  21.1278  21.1278  21.2435  21.2435  21.3352  21.3352
    21.4375  21.4375  21.4709  21.4709  21.5851  21.5851  21.6504  21.6504
    21.6761  21.6761  21.8584  21.8584

          k =-0.2500 0.2417 0.0000 ( 30481 PWs)   bands (ev):

   -48.8350 -48.7720 -48.7601 -48.7494 -48.7464 -48.7415 -48.6558 -48.6530
   -48.6514 -48.6429 -48.6377 -48.6318 -48.5740 -48.5690 -48.4770 -48.4656
   -48.4602 -48.3995 -48.3879 -48.3770 -48.3562 -48.3433 -48.3373 -48.3243
   -21.3479 -21.0541 -20.9307 -20.8496 -20.5483 -20.4411 -20.4067 -20.3758
   -20.3088 -20.2324 -20.1071 -20.0909 -20.0706 -19.9049 -19.8399 -19.8338
   -19.1000 -18.9712  -9.9915  -9.8370  -9.8099  -9.5612  -9.3022  -9.1611
    -9.0628  -8.9633  -8.8060  -8.7492  -8.6738  -8.5067  -8.4953  -8.4009
    -8.3178  -8.1394  -8.0542  -8.0130  -7.7378  -7.5370  -7.4853  -7.3313
    -7.2049  -7.1836  -7.0355  -7.0217  -6.9058  -6.7117  -6.6196  -6.5241
    -6.5058  -6.3952  -6.3603  -6.2355  -6.1505  -6.1120  -5.9951  -5.9480
    -5.8670  -5.7424  -5.6615  -5.5128  -5.2454  -5.1179  -5.0836  -4.9424
    -4.8038  -4.7074  -4.7069  -4.5888  -4.2844  -4.2685  -4.2144  -4.1091
    -4.0126  -3.9810  -3.8190  -3.7404  -3.6656  -3.6061  -3.4527  -3.4366
    -3.3823  -3.2806  -3.2132  -3.1656  -3.0413  -2.9994  -2.7425  -2.5369
    -2.3123  -2.2110  -2.1788  -2.0852  -2.0625  -1.8545  -1.6797  -1.6331
    -1.0099  -0.7081  -0.2684  -0.1131   0.3549   0.5115   0.6346   0.9155
     1.1469   1.3749   1.5380   1.6137   1.7818   1.7904   1.9100   2.1265
     3.6151   3.9905   4.4798   4.8843   5.2641   5.4361   5.4895   5.8032
     5.9534   6.1977   6.3210   6.3818   6.3901   6.6497   6.7843   6.9440
     7.1854   7.3400   7.4273   7.6156   7.6984   7.8410   8.0228   8.0253
     8.0662   8.2198   8.3929   8.4037   8.6213   8.7662   8.8283   8.8937
     8.8972   9.1730   9.3286   9.4422   9.5268   9.6389   9.6745   9.7251
     9.8413   9.9065  10.1160  10.1467  10.2444  10.2877  10.3517  10.4948
    10.5788  10.6392  10.7723  10.8443  10.8731  11.0044  11.0243  11.1946
    11.3080  11.3232  11.4380  11.4589  11.5021  11.5808  11.6925  11.7230
    11.8002  11.9891  12.0976  12.1468  12.1757  12.2026  12.2532  12.3602
    12.4341  12.5085  12.5774  12.6115  12.6951  12.7749  12.8835  12.9969
    13.0616  13.1073  13.2244  13.2547  13.3674  13.3763  13.4446  13.5523
    13.6804  13.7084  13.8002  13.8456  13.8620  14.0666  14.0817  14.1349
    14.1699  14.2703  14.3755  14.4790  14.5606  14.6000  14.6701  14.7346
    14.8004  15.0526  15.2214  15.3017  15.3763  15.4253  15.4755  15.4863
    15.5416  15.6175  15.6867  15.6976  15.7817  15.7827  15.9538  16.0004
    16.0623  16.0712  16.1834  16.3148  16.3325  16.3637  16.4119  16.4944
    16.5467  16.5628  16.6097  16.6468  16.7397  16.8371  16.9766  16.9926
    17.1304  17.2063  17.2164  17.3231  17.3333  17.4067  17.4980  17.5271
    17.5730  17.6175  17.7433  17.7645  17.8701  17.8891  18.0381  18.0708
    18.1056  18.1587  18.2451  18.3628  18.4204  18.5054  18.5113  18.6498
    18.7324  18.8674  18.8752  18.9308  18.9840  19.0381  19.0840  19.1545
    19.2067  19.2203  19.3190  19.4769  19.4837  19.5597  19.6785  19.7343
    19.7569  19.9193  19.9241  20.0403  20.1394  20.2349  20.3244  20.3566
    20.4585  20.5556  20.6067  20.6665  20.6734  20.7553  20.8554  20.9104
    20.9442  21.0268  21.1149  21.1221  21.1790  21.2309  21.3243  21.3822
    21.4117  21.4493  21.5648  21.6256  21.6572  21.7155  21.7850  21.8472
    21.8536  21.9208  22.0063  22.1110

     the Fermi energy is    -2.0723 ev

!    total energy              =   -1946.45842235 Ry
     Harris-Foulkes estimate   =   -1946.45842272 Ry
     estimated scf accuracy    <       0.00000041 Ry

     The total energy is the sum of the following terms:

     one-electron contribution =  -22568.21801138 Ry
     hartree contribution      =   11331.49915399 Ry
     xc contribution           =    -365.18201372 Ry
     ewald contribution        =    9653.72146861 Ry
     Hubbard energy            =       1.72230612 Ry
     smearing contrib. (-TS)   =      -0.00132596 Ry

     convergence has been achieved in  33 iterations

     Forces acting on atoms (Ry/au):


     negative rho (up, down):  0.685E+00 0.000E+00
     atom    1 type  1   force =    -0.00805053   -0.01315382    0.00401093
     atom    2 type  1   force =     0.00020965    0.00765575    0.00273788
     atom    3 type  2   force =    -0.00004666    0.00548470   -0.00713749
     atom    4 type  2   force =     0.00851170    0.00859943   -0.00305667
     atom    5 type  1   force =    -0.00234733   -0.02819440   -0.00004159
     atom    6 type  1   force =     0.00359523    0.02521312   -0.00032808
     atom    7 type  1   force =    -0.00029421   -0.00137439    0.01666767
     atom    8 type  1   force =    -0.00291436   -0.00064297    0.00134659
     atom    9 type  2   force =     0.00120812   -0.00013709   -0.00379506
     atom   10 type  2   force =     0.00003731   -0.00159831    0.00257495
     atom   11 type  1   force =    -0.00018737    0.01080044   -0.00885656
     atom   12 type  1   force =     0.00036326   -0.01017340   -0.00901990
     atom   13 type  1   force =    -0.00066773   -0.00000840    0.00212986
     atom   14 type  1   force =    -0.00807588   -0.01315616    0.00398991
     atom   15 type  1   force =     0.00020304    0.00756288    0.00278167
     atom   16 type  2   force =    -0.00005726    0.00548474   -0.00713450
     atom   17 type  2   force =     0.00850333    0.00858987   -0.00306355
     atom   18 type  1   force =    -0.00231708   -0.02819338   -0.00004156
     atom   19 type  1   force =     0.00362333    0.02521193   -0.00032658
     atom   20 type  1   force =    -0.00030235   -0.00137237    0.01668074
     atom   21 type  1   force =    -0.00291806   -0.00063983    0.00136584
     atom   22 type  2   force =     0.00120222   -0.00013721   -0.00379712
     atom   23 type  2   force =     0.00003649   -0.00159744    0.00256104
     atom   24 type  1   force =    -0.00020469    0.01080004   -0.00885490
     atom   25 type  1   force =     0.00034465   -0.01017363   -0.00901850
     atom   26 type  1   force =    -0.00066906   -0.00001141    0.00210947
     atom   27 type  3   force =    -0.00012919   -0.00323783    0.00229087
     atom   28 type  3   force =    -0.00012938   -0.00315049    0.00224905
     atom   29 type  3   force =     0.00073926    0.00077537    0.00048678
     atom   30 type  3   force =     0.00073355    0.00077429    0.00048881

     Total force =     0.033642     Total SCF correction =     0.003507
     SCF correction compared to forces is large: reduce conv_thr to get better values

     BFGS Geometry Optimization

     number of scf cycles    =   1
     number of bfgs steps    =   0

     energy   new            =   -1946.4584223488 Ry

     new trust radius        =       0.0166807445 bohr
     new conv_thr            =       0.0000010000 Ry


ATOMIC_POSITIONS (crystal)
O0       0.000000000   0.000000000   0.378730292    0   0   1
O0       0.000000000   0.500000000   0.400544808    0   0   1
Rh1      0.250000000   0.500000000   0.451847120    0   0   1
Rh1      0.000000000   0.000000000   0.453138811    0   0   1
O0       0.250000000   0.810000000   0.452789167    0   0   1
O0       0.250000000   0.190000000   0.452573432    0   0   1
O0       0.000000000   0.500000000   0.498813658    0   0   1
O0       0.000000000   0.000000000   0.528826956    0   0   1
Rh1      0.250000000   0.000000000   0.576374029    0   0   1
Rh1      0.000000000   0.500000000   0.571261546    0   0   1
O0       0.250000000   0.690000000   0.577712707    0   0   1
O0       0.250000000   0.310000000   0.577729437    0   0   1
O0       0.000000000   0.000000000   0.621722636    0   0   1
O0       0.500000000   0.000000000   0.378729871    0   0   1
O0       0.500000000   0.500000000   0.400545684    0   0   1
Rh1      0.750000000   0.500000000   0.451847179    0   0   1
Rh1      0.500000000   0.000000000   0.453138673    0   0   1
O0       0.750000000   0.810000000   0.452789168    0   0   1
O0       0.750000000   0.190000000   0.452573462    0   0   1
O0       0.500000000   0.500000000   0.498813920    0   0   1
O0       0.500000000   0.000000000   0.528827342    0   0   1
Rh1      0.750000000   0.000000000   0.576373988    0   0   1
Rh1      0.500000000   0.500000000   0.571261268    0   0   1
O0       0.750000000   0.690000000   0.577712740    0   0   1
O0       0.750000000   0.310000000   0.577729465    0   0   1
O0       0.500000000   0.000000000   0.621722228    0   0   1
H2      -0.000080991   0.638703726   0.384025859
H2       0.499918993   0.638700908   0.384025022
H2       0.148502894   0.032593765   0.367839745
H2       0.648502408   0.032593676   0.367839785


     Check: negative starting charge=   -0.642992
     NEW-OLD atomic charge density approx. for the potential

     Check: negative/imaginary core charge=   -0.000002    0.000000
     Check: negative starting charge=   -0.642987

     negative rho (up, down):  0.686E+00 0.000E+00
 Atomic wfc used for LDA+U Projector are NOT orthogonalized

     total cpu time spent up to now is     7148.1 secs

     per-process dynamical memory:   444.0 Mb

     Self-consistent Calculation

     iteration #  1     ecut=    40.00 Ry     beta=0.70
     Davidson diagonalization with overlap
     ethr =  1.00E-06,  avg # of iterations =  4.0
 --- enter write_ns ---
 LDA+U parameters:
U( 2)     =  4.50000000
alpha( 2) =  0.00000000
atom    3   Tr[ns(na)] =   8.06686
    eigenvalues: 
  0.580  0.598  0.916  0.966  0.974
    eigenvectors:
  0.000  0.209  0.002  0.000  0.789
  1.000  0.000  0.000  0.000  0.000
  0.000  0.000  0.997  0.000  0.002
  0.000  0.791  0.000  0.000  0.209
  0.000  0.000  0.000  1.000  0.000
    occupations:
  0.895 -0.000  0.001 -0.153 -0.000
 -0.000  0.580 -0.000 -0.000 -0.007
  0.001 -0.000  0.916 -0.005  0.001
 -0.153 -0.000 -0.005  0.677 -0.000
 -0.000 -0.007  0.001 -0.000  0.965
atom    4   Tr[ns(na)] =   8.06097
    eigenvalues: 
  0.599  0.649  0.877  0.926  0.979
    eigenvectors:
  0.001  0.991  0.000  0.000  0.008
  0.000  0.000  0.057  0.942  0.000
  0.000  0.000  0.943  0.057  0.000
  0.000  0.008  0.000  0.000  0.992
  0.999  0.001  0.000  0.000  0.000
    occupations:
  0.652 -0.005 -0.001  0.029  0.001
 -0.005  0.924  0.012  0.001 -0.001
 -0.001  0.012  0.880 -0.001  0.001
  0.029  0.001 -0.001  0.976  0.000
  0.001 -0.001  0.001  0.000  0.599
atom    9   Tr[ns(na)] =   8.05723
    eigenvalues: 
  0.634  0.646  0.870  0.898  0.980
    eigenvectors:
  0.000  0.155  0.000  0.000  0.845
  0.999  0.001  0.000  0.000  0.000
  0.000  0.000  1.000  0.000  0.000
  0.001  0.844  0.000  0.000  0.155
  0.000  0.000  0.000  1.000  0.000
    occupations:
  0.928  0.000 -0.000 -0.121 -0.001
  0.000  0.634  0.000  0.000 -0.000
 -0.000  0.000  0.870 -0.000 -0.000
 -0.121  0.000 -0.000  0.698  0.001
 -0.001 -0.000 -0.000  0.001  0.898
atom   10   Tr[ns(na)] =   8.03764
    eigenvalues: 
  0.586  0.593  0.931  0.932  0.977
    eigenvectors:
  0.995  0.000  0.000  0.000  0.005
  0.000  0.000  0.982  0.018  0.000
  0.000  0.000  0.018  0.982  0.000
  0.005  0.000  0.000  0.000  0.995
  0.000  1.000  0.000  0.000  0.000
    occupations:
  0.588  0.000  0.002  0.028 -0.000
  0.000  0.931 -0.000  0.000 -0.001
  0.002 -0.000  0.932  0.000  0.000
  0.028  0.000  0.000  0.975  0.000
 -0.000 -0.001  0.000  0.000  0.593
atom   16   Tr[ns(na)] =   8.06664
    eigenvalues: 
  0.580  0.598  0.916  0.966  0.974
    eigenvectors:
  0.000  0.209  0.002  0.000  0.789
  1.000  0.000  0.000  0.000  0.000
  0.000  0.000  0.997  0.000  0.002
  0.000  0.791  0.000  0.000  0.209
  0.000  0.000  0.000  0.999  0.000
    occupations:
  0.895 -0.000  0.001 -0.153 -0.000
 -0.000  0.580 -0.000 -0.000 -0.007
  0.001 -0.000  0.916 -0.005  0.001
 -0.153 -0.000 -0.005  0.677 -0.000
 -0.000 -0.007  0.001 -0.000  0.965
atom   17   Tr[ns(na)] =   8.05987
    eigenvalues: 
  0.599  0.649  0.876  0.926  0.979
    eigenvectors:
  0.001  0.991  0.000  0.000  0.008
  0.000  0.000  0.057  0.942  0.000
  0.000  0.000  0.943  0.057  0.000
  0.000  0.008  0.000  0.000  0.992
  0.999  0.001  0.000  0.000  0.000
    occupations:
  0.652 -0.005 -0.001  0.029  0.001
 -0.005  0.923  0.012  0.001 -0.001
 -0.001  0.012  0.879 -0.001  0.001
  0.029  0.001 -0.001  0.976  0.000
  0.001 -0.001  0.001  0.000  0.599
atom   22   Tr[ns(na)] =   8.05719
    eigenvalues: 
  0.634  0.646  0.870  0.898  0.980
    eigenvectors:
  0.000  0.155  0.000  0.000  0.845
  0.999  0.001  0.000  0.000  0.000
  0.000  0.000  1.000  0.000  0.000
  0.001  0.844  0.000  0.000  0.155
  0.000  0.000  0.000  1.000  0.000
    occupations:
  0.928  0.000 -0.000 -0.121 -0.001
  0.000  0.634  0.000  0.000 -0.000
 -0.000  0.000  0.870 -0.000 -0.000
 -0.121  0.000 -0.000  0.698  0.001
 -0.001 -0.000 -0.000  0.001  0.898
atom   23   Tr[ns(na)] =   8.03820
    eigenvalues: 
  0.586  0.593  0.931  0.932  0.977
    eigenvectors:
  0.995  0.000  0.000  0.000  0.005
  0.000  0.000  0.987  0.013  0.000
  0.000  0.000  0.013  0.987  0.000
  0.005  0.000  0.000  0.000  0.995
  0.000  1.000  0.000  0.000  0.000
    occupations:
  0.588  0.000  0.002  0.028 -0.000
  0.000  0.931 -0.000  0.000 -0.001
  0.002 -0.000  0.932  0.000  0.000
  0.028  0.000  0.000  0.975  0.000
 -0.000 -0.001  0.000  0.000  0.593
N of occupied +U levels =  64.4446001
 --- exit write_ns ---

     negative rho (up, down):  0.686E+00 0.000E+00

     total cpu time spent up to now is     7432.4 secs

     total energy              =   -1946.45871250 Ry
     Harris-Foulkes estimate   =   -1946.45926095 Ry
     estimated scf accuracy    <       0.00072781 Ry

     iteration #  2     ecut=    40.00 Ry     beta=0.70
     Davidson diagonalization with overlap
     ethr =  3.14E-07,  avg # of iterations =  5.0

     negative rho (up, down):  0.686E+00 0.000E+00

     total cpu time spent up to now is     7665.1 secs

     total energy              =   -1946.45063115 Ry
     Harris-Foulkes estimate   =   -1946.46775631 Ry
     estimated scf accuracy    <       0.34559643 Ry

     iteration #  3     ecut=    40.00 Ry     beta=0.70
     Davidson diagonalization with overlap
     ethr =  3.14E-07,  avg # of iterations =  4.2

     negative rho (up, down):  0.686E+00 0.000E+00

     total cpu time spent up to now is     7879.7 secs

     total energy              =   -1946.45862686 Ry
     Harris-Foulkes estimate   =   -1946.45975893 Ry
     estimated scf accuracy    <       0.01087290 Ry

     iteration #  4     ecut=    40.00 Ry     beta=0.70
     Davidson diagonalization with overlap
     ethr =  3.14E-07,  avg # of iterations =  1.0

[...]
    -4.0211  -4.0211  -3.8449  -3.8449  -3.5804  -3.5804  -3.5138  -3.5138
    -2.9962  -2.9962  -2.8552  -2.8552  -2.6428  -2.6428  -2.5161  -2.5161
    -2.3195  -2.3195  -2.2549  -2.2549  -1.9689  -1.9689  -1.7361  -1.7361
    -0.8190  -0.8190   0.4268   0.4268   0.6783   0.6783   1.0382   1.0382
     1.0925   1.0925   1.1267   1.1267   1.1533   1.1533   1.9535   1.9535
     4.1765   4.1765   4.5319   4.5320   4.9960   4.9960   5.3945   5.3945
     5.8358   5.8358   6.4522   6.4522   6.8722   6.8722   7.0072   7.0072
     7.6365   7.6365   7.9841   7.9841   8.0448   8.0448   8.1459   8.1459
     8.5700   8.5700   8.5977   8.5977   8.7060   8.7060   8.9993   8.9993
     9.1147   9.1147   9.1510   9.1510   9.2824   9.2824   9.6913   9.6913
     9.7302   9.7302   9.9073   9.9073   9.9283   9.9283  10.0587  10.0587
    10.2689  10.2689  10.4877  10.4877  10.6730  10.6730  10.8022  10.8022
    11.3095  11.3095  11.4906  11.4907  11.6479  11.6479  11.7377  11.7377
    11.8097  11.8097  12.1414  12.1414  12.2612  12.2612  12.4513  12.4513
    12.5470  12.5470  12.7410  12.7410  12.8618  12.8618  13.0157  13.0157
    13.2829  13.2829  13.3753  13.3753  13.5305  13.5305  13.6816  13.6816
    13.7971  13.7971  13.9315  13.9315  14.0998  14.0999  14.2415  14.2415
    14.3055  14.3055  14.4191  14.4191  14.5117  14.5117  14.7523  14.7523
    14.8518  14.8518  15.0135  15.0135  15.1354  15.1354  15.5509  15.5509
    15.7758  15.7758  16.0975  16.0975  16.2145  16.2145  16.2608  16.2608
    16.2869  16.2869  16.3385  16.3385  16.4444  16.4444  16.5627  16.5627
    16.6092  16.6092  16.6791  16.6791  16.7422  16.7422  16.8267  16.8267
    17.0401  17.0401  17.1802  17.1802  17.4207  17.4207  17.6059  17.6059
    17.7897  17.7897  17.8806  17.8806  18.0855  18.0855  18.3090  18.3090
    18.3732  18.3732  18.4720  18.4720  18.6964  18.6964  18.7912  18.7912
    18.9259  18.9259  19.0632  19.0632  19.1351  19.1351  19.2222  19.2222
    19.3443  19.3443  19.4315  19.4315  19.5634  19.5634  19.6067  19.6067
    19.7226  19.7226  19.8465  19.8465  19.9978  19.9978  20.0866  20.0866
    20.1648  20.1648  20.2566  20.2566  20.3070  20.3070  20.4592  20.4592
    20.5691  20.5691  20.8146  20.8146  20.9571  20.9571  21.0315  21.0315
    21.1481  21.1481  21.1657  21.1657  21.3060  21.3060  21.3626  21.3626
    21.4096  21.4096  21.5283  21.5283

          k =-0.5000 0.2417 0.0000 ( 30500 PWs)   bands (ev):

   -48.7645 -48.7643 -48.7346 -48.7346 -48.7309 -48.7309 -48.6688 -48.6688
   -48.6436 -48.6435 -48.6173 -48.6170 -48.5912 -48.5912 -48.4204 -48.4203
   -48.3996 -48.3996 -48.3699 -48.3699 -48.3483 -48.3482 -48.3155 -48.3154
   -21.1743 -21.1740 -20.7084 -20.7081 -20.5668 -20.5667 -20.4245 -20.4245
   -20.1965 -20.1912 -20.0551 -20.0464 -20.0345 -20.0312 -19.9077 -19.9077
   -19.0494 -19.0494  -9.4803  -9.4792  -9.2428  -9.2424  -9.2169  -9.2037
    -8.9744  -8.9742  -8.8737  -8.8582  -8.7226  -8.7180  -8.5805  -8.5745
    -8.3716  -8.3006  -8.1017  -7.9982  -7.6915  -7.6701  -7.3950  -7.3777
    -7.2535  -7.2264  -7.1568  -7.0703  -6.9893  -6.8853  -6.8061  -6.7158
    -6.6415  -6.6309  -6.4373  -6.4366  -6.1850  -6.1298  -5.9685  -5.9551
    -5.9013  -5.8868  -5.7593  -5.6475  -5.3935  -5.3315  -5.1547  -5.0814
    -4.9486  -4.8584  -4.6498  -4.5829  -4.3033  -4.2842  -3.9021  -3.8878
    -3.6465  -3.6403  -3.5322  -3.4903  -3.4666  -3.4364  -3.4226  -3.4079
    -3.1880  -3.1339  -2.9288  -2.9221  -2.6335  -2.6223  -2.4970  -2.4964
    -2.3490  -2.3486  -2.2192  -2.1702  -2.0649  -2.0456  -1.8729  -1.8570
    -0.7021  -0.7018   0.3381   0.3481   0.4223   0.4226   0.7382   0.7417
     0.8529   0.8582   1.3824   1.3925   1.6526   1.6542   2.0422   2.0496
     4.3900   4.4015   4.6791   4.6792   5.2162   5.2163   5.5805   5.5867
     5.9379   5.9711   6.2270   6.2383   6.6319   6.6421   6.9642   6.9692
     7.0881   7.0928   7.1238   7.1257   7.5009   7.5144   7.8356   7.8461
     8.1273   8.1471   8.2847   8.3216   8.6111   8.6600   8.7462   8.7947
     9.0323   9.1279   9.4973   9.5027   9.7639   9.7687   9.9061   9.9095
    10.0426  10.0544  10.2286  10.2381  10.4311  10.4536  10.6308  10.6407
    10.7933  10.8050  10.9327  10.9417  10.9717  10.9720  11.1861  11.1998
    11.5230  11.5464  11.6689  11.6972  11.9120  11.9141  11.9635  11.9980
    12.0310  12.0599  12.2025  12.2050  12.3793  12.3917  12.5673  12.5726
    12.7357  12.7528  12.9428  12.9461  13.0115  13.0435  13.1329  13.1405
    13.2864  13.3027  13.4253  13.4649  13.5421  13.5583  13.6958  13.7094
    13.8841  13.8927  13.9382  13.9440  14.1083  14.1309  14.2765  14.2988
    14.3323  14.3488  14.5171  14.5533  14.6080  14.6386  14.6913  14.6924
    14.8165  14.8284  14.9369  14.9530  15.0241  15.0505  15.0867  15.0962
    15.2573  15.2645  15.4244  15.4373  15.4763  15.4767  15.7948  15.8020
    15.9329  15.9413  16.0896  16.1085  16.1442  16.1533  16.3382  16.3482
    16.3842  16.4332  16.4749  16.4889  16.5840  16.5939  16.7060  16.7249
    16.8784  16.8923  16.9974  17.0162  17.0316  17.1432  17.2985  17.3242
    17.5074  17.5192  17.6792  17.6830  17.7776  17.8193  17.8816  17.9370
    17.9975  18.0048  18.2794  18.2813  18.3296  18.3599  18.4486  18.4608
    18.5561  18.5606  18.7082  18.7181  18.7872  18.8006  18.9045  18.9097
    19.0486  19.0800  19.1821  19.1935  19.3760  19.4184  19.5049  19.5095
    19.5751  19.5927  19.6947  19.7030  19.8372  19.8534  20.0779  20.0825
    20.2047  20.2139  20.3671  20.3991  20.4719  20.4726  20.5981  20.6803
    20.7770  20.7802  20.8832  20.9218  21.0959  21.1328  21.3409  21.3460
    21.4721  21.4740  21.5700  21.5764  21.7170  21.7194  21.8698  21.9097
    21.9373  21.9834  22.1815  22.2017

          k =-0.5000-0.4833 0.0000 ( 30496 PWs)   bands (ev):

   -48.7645 -48.7645 -48.7347 -48.7346 -48.7313 -48.7312 -48.6688 -48.6688
   -48.6429 -48.6429 -48.6166 -48.6165 -48.5912 -48.5912 -48.4208 -48.4208
   -48.3994 -48.3993 -48.3701 -48.3701 -48.3483 -48.3483 -48.3155 -48.3155
   -21.1598 -21.1598 -20.5646 -20.5646 -20.5405 -20.5405 -20.3192 -20.3192
   -20.3015 -20.3015 -20.1951 -20.1951 -20.1114 -20.1114 -19.9095 -19.9095
   -19.0485 -19.0484  -9.4685  -9.4685  -9.0087  -9.0087  -8.9489  -8.9489
    -8.8158  -8.8158  -8.6761  -8.6761  -8.4908  -8.4908  -8.4504  -8.4504
    -8.3814  -8.3814  -8.1704  -8.1704  -7.9379  -7.9379  -7.6884  -7.6884
    -7.3580  -7.3580  -7.1864  -7.1864  -7.1004  -7.1004  -6.8613  -6.8612
    -6.6058  -6.6058  -6.5046  -6.5046  -6.2994  -6.2994  -6.2593  -6.2593
    -6.0595  -6.0595  -5.5155  -5.5155  -5.3241  -5.3241  -5.1778  -5.1778
    -4.9981  -4.9981  -4.5645  -4.5645  -4.2208  -4.2208  -3.8417  -3.8416
    -3.5347  -3.5347  -3.4639  -3.4639  -3.3636  -3.3636  -3.1901  -3.1901
    -3.1167  -3.1166  -3.0641  -3.0641  -2.5119  -2.5119  -2.4603  -2.4603
    -2.3018  -2.3018  -2.2021  -2.2021  -2.0794  -2.0794  -2.0205  -2.0205
    -0.6132  -0.6132   0.0495   0.0495   0.1043   0.1043   0.7817   0.7817
     0.8434   0.8434   1.5707   1.5708   1.8725   1.8725   2.1130   2.1130
     4.7995   4.7995   4.9051   4.9051   5.3602   5.3602   5.8405   5.8405
     5.8965   5.8965   6.0414   6.0414   6.2651   6.2651   6.5143   6.5143
     6.7298   6.7298   7.0329   7.0329   7.3843   7.3843   7.6717   7.6717
     7.8245   7.8245   7.8991   7.8991   8.4457   8.4458   8.8078   8.8078
     8.9639   8.9640   9.2845   9.2845   9.5772   9.5772  10.0296  10.0296
    10.2446  10.2446  10.5162  10.5162  10.7281  10.7281  11.0781  11.0781
    11.3725  11.3725  11.4397  11.4397  11.4984  11.4984  11.8591  11.8591
    11.9809  11.9809  12.1395  12.1395  12.3140  12.3140  12.4809  12.4809
    12.5960  12.5960  12.7813  12.7813  12.8684  12.8684  12.9524  12.9524
    13.0240  13.0240  13.1222  13.1222  13.2137  13.2137  13.2635  13.2635
    13.4235  13.4235  13.5182  13.5182  13.5483  13.5483  13.6021  13.6021
    13.6890  13.6890  13.7951  13.7951  13.9621  13.9621  13.9861  13.9861
    14.0752  14.0752  14.1448  14.1448  14.3227  14.3227  14.3325  14.3325
    14.5022  14.5022  14.6020  14.6020  14.7771  14.7771  14.9498  14.9498
    15.0994  15.0994  15.1633  15.1633  15.2042  15.2042  15.2935  15.2935
    15.5127  15.5127  15.5899  15.5899  15.6485  15.6485  15.8582  15.8582
    15.9636  15.9636  16.0797  16.0797  16.2352  16.2352  16.4388  16.4388
    16.5548  16.5548  16.7664  16.7664  16.9142  16.9142  17.0172  17.0172
    17.0928  17.0928  17.3343  17.3343  17.4772  17.4772  17.6255  17.6255
    18.0325  18.0325  18.0758  18.0758  18.2117  18.2117  18.2780  18.2780
    18.3533  18.3533  18.6144  18.6144  18.8025  18.8025  19.1380  19.1380
    19.2944  19.2944  19.4033  19.4033  19.5239  19.5239  19.6738  19.6738
    20.1213  20.1213  20.2473  20.2473  20.3314  20.3314  20.6193  20.6193
    20.6872  20.6872  20.7765  20.7765  20.8878  20.8878  20.9390  20.9390
    21.0284  21.0284  21.1236  21.1236  21.2486  21.2486  21.3208  21.3208
    21.4259  21.4259  21.4740  21.4740  21.5843  21.5843  21.6531  21.6531
    21.7058  21.7059  21.8788  21.8788

          k =-0.2500 0.2417 0.0000 ( 30481 PWs)   bands (ev):

   -48.8009 -48.7446 -48.7340 -48.7333 -48.7293 -48.7176 -48.6829 -48.6715
   -48.6658 -48.6311 -48.6197 -48.6122 -48.6004 -48.5482 -48.4370 -48.4230
   -48.4174 -48.3764 -48.3634 -48.3599 -48.3530 -48.3427 -48.3219 -48.3089
   -21.3559 -21.0763 -20.9261 -20.8414 -20.5259 -20.4256 -20.4004 -20.3513
   -20.3003 -20.2156 -20.0959 -20.0904 -20.0519 -19.8700 -19.8323 -19.8264
   -19.0499 -18.9275  -9.9852  -9.8606  -9.8036  -9.5557  -9.3055  -9.1644
    -9.0634  -8.9956  -8.8025  -8.7296  -8.6619  -8.5230  -8.5088  -8.4009
    -8.3105  -8.1562  -8.0569  -8.0111  -7.7288  -7.5268  -7.4663  -7.3404
    -7.1879  -7.1720  -7.0237  -6.9986  -6.8977  -6.6870  -6.5943  -6.5007
    -6.4880  -6.3772  -6.3271  -6.2352  -6.1494  -6.0910  -5.9960  -5.9452
    -5.8593  -5.7510  -5.6455  -5.4751  -5.2501  -5.0886  -5.0577  -4.9406
    -4.7884  -4.6922  -4.6755  -4.5582  -4.2630  -4.2405  -4.1879  -4.0778
    -4.0072  -3.9867  -3.7860  -3.7131  -3.6346  -3.5839  -3.4271  -3.4101
    -3.3481  -3.2658  -3.1976  -3.1419  -3.0507  -2.9693  -2.7105  -2.5051
    -2.3003  -2.1729  -2.1379  -2.0328  -2.0240  -1.8117  -1.6499  -1.5918
    -0.9533  -0.6843  -0.2369  -0.1171   0.4060   0.5640   0.7032   0.9453
     1.1771   1.4192   1.5829   1.6573   1.8123   1.8328   1.9538   2.1691
     3.6318   3.9569   4.4806   4.8777   5.2704   5.4509   5.4989   5.7389
     5.9402   6.2105   6.3487   6.3859   6.3928   6.6479   6.7785   6.9357
     7.1976   7.3331   7.4532   7.6174   7.7027   7.8937   8.0352   8.0372
     8.1498   8.2182   8.3936   8.3984   8.6209   8.7537   8.8517   8.9117
     8.9148   9.1833   9.3213   9.4631   9.5465   9.6307   9.6916   9.7438
     9.8601   9.9340  10.1252  10.1524  10.2525  10.2987  10.3713  10.5179
    10.5782  10.6502  10.7915  10.8577  10.8790  11.0319  11.0413  11.2227
    11.3263  11.3438  11.4458  11.4784  11.5003  11.5850  11.6940  11.7666
    11.8231  12.0013  12.1254  12.1606  12.1967  12.2144  12.3110  12.3909
    12.4355  12.5115  12.5873  12.6148  12.7062  12.7889  12.9068  13.0067
    13.0804  13.1328  13.2231  13.2888  13.3800  13.3975  13.4630  13.5521
    13.6958  13.6964  13.8079  13.8701  13.9001  14.0777  14.1379  14.1847
    14.1869  14.2796  14.3809  14.4880  14.5698  14.6025  14.6774  14.7464
    14.8196  15.0548  15.2334  15.3130  15.3860  15.4198  15.4930  15.4955
    15.5443  15.6235  15.6840  15.6934  15.7818  15.7867  15.9478  16.0020
    16.0662  16.0763  16.1833  16.3336  16.3477  16.3708  16.4293  16.5078
    16.5500  16.5580  16.6278  16.6565  16.7501  16.8408  16.9763  17.0021
    17.1330  17.2027  17.2173  17.3192  17.3398  17.4002  17.5002  17.5202
    17.5776  17.6275  17.7398  17.7573  17.8697  17.8949  18.0338  18.0639
    18.1059  18.1520  18.2465  18.3477  18.4180  18.4975  18.4988  18.6502
    18.7548  18.8480  18.8879  18.9140  18.9750  19.0267  19.0863  19.1593
    19.2088  19.2401  19.3087  19.4897  19.5034  19.5522  19.6906  19.7232
    19.7633  19.9265  19.9298  20.0359  20.1385  20.2491  20.3271  20.3549
    20.4564  20.5557  20.6246  20.6641  20.6793  20.7764  20.8503  20.9161
    20.9383  21.0364  21.1132  21.1213  21.1749  21.2265  21.3294  21.4029
    21.4212  21.4475  21.5675  21.6230  21.6732  21.7147  21.7854  21.8570
    21.8636  21.9233  22.0003  22.1203

     the Fermi energy is    -2.0326 ev

!    total energy              =   -1946.46049840 Ry
     Harris-Foulkes estimate   =   -1946.46049840 Ry
     estimated scf accuracy    <          4.2E-09 Ry

     The total energy is the sum of the following terms:

     one-electron contribution =  -22639.03607624 Ry
     hartree contribution      =   11367.06813107 Ry
     xc contribution           =    -365.24435141 Ry
     ewald contribution        =    9689.03340977 Ry
     Hubbard energy            =       1.71993067 Ry
     smearing contrib. (-TS)   =      -0.00154225 Ry

     convergence has been achieved in  15 iterations

     Forces acting on atoms (Ry/au):


     negative rho (up, down):  0.687E+00 0.000E+00
     atom    1 type  1   force =    -0.00674528   -0.01251061    0.00021354
     atom    2 type  1   force =     0.00008297    0.00345464   -0.00057444
     atom    3 type  2   force =    -0.00005992    0.00576142   -0.00058682
     atom    4 type  2   force =     0.00820416    0.00855947   -0.00008468
     atom    5 type  1   force =    -0.00260724   -0.02808275    0.00003884
     atom    6 type  1   force =     0.00381256    0.02512040    0.00006746
     atom    7 type  1   force =    -0.00032718   -0.00139289    0.00050563
     atom    8 type  1   force =    -0.00293707   -0.00061027   -0.00027549
     atom    9 type  2   force =     0.00118710   -0.00014503   -0.00046321
     atom   10 type  2   force =     0.00001440   -0.00159014    0.00044761
     atom   11 type  1   force =    -0.00017264    0.01349245    0.00016358
     atom   12 type  1   force =     0.00032962   -0.01298241    0.00018959
     atom   13 type  1   force =    -0.00068540   -0.00001344   -0.00040241
     atom   14 type  1   force =    -0.00674464   -0.01251031    0.00020734
     atom   15 type  1   force =     0.00008460    0.00345148   -0.00057277
     atom   16 type  2   force =    -0.00005997    0.00576115   -0.00058688
     atom   17 type  2   force =     0.00820699    0.00855966   -0.00008253
     atom   18 type  1   force =    -0.00260425   -0.02808270    0.00004032
     atom   19 type  1   force =     0.00381534    0.02512079    0.00006928
     atom   20 type  1   force =    -0.00032286   -0.00139290    0.00050794
     atom   21 type  1   force =    -0.00293068   -0.00061028   -0.00026904
     atom   22 type  2   force =     0.00118718   -0.00014488   -0.00045996
     atom   23 type  2   force =     0.00001803   -0.00159013    0.00044691
     atom   24 type  1   force =    -0.00017251    0.01349340    0.00016145
     atom   25 type  1   force =     0.00032973   -0.01298328    0.00018749
     atom   26 type  1   force =    -0.00067982   -0.00001344   -0.00040591
     atom   27 type  3   force =     0.00000953    0.00058372    0.00074634
     atom   28 type  3   force =     0.00000952    0.00058590    0.00074595
     atom   29 type  3   force =    -0.00011986    0.00035579    0.00001181
     atom   30 type  3   force =    -0.00012240    0.00035520    0.00001306

     Total force =     0.002341     Total SCF correction =     0.000153

     bfgs converged in   9 scf cycles and   8 bfgs steps
     (criteria: energy < 0.10E-03, force < 0.10E-02)

     End of BFGS Geometry Optimization

     Final energy   =   -1946.4604983986 Ry
Begin final coordinates

ATOMIC_POSITIONS (crystal)
O0       0.000000000   0.000000000   0.378858389    0   0   1
O0       0.000000000   0.500000000   0.401392906    0   0   1
Rh1      0.250000000   0.500000000   0.452516404    0   0   1
Rh1      0.000000000   0.000000000   0.453150826    0   0   1
O0       0.250000000   0.810000000   0.452915501    0   0   1
O0       0.250000000   0.190000000   0.452656304    0   0   1
O0       0.000000000   0.500000000   0.499326860    0   0   1
O0       0.000000000   0.000000000   0.528560710    0   0   1
Rh1      0.250000000   0.000000000   0.575934037    0   0   1
Rh1      0.000000000   0.500000000   0.571387400    0   0   1
O0       0.250000000   0.690000000   0.576582124    0   0   1
O0       0.250000000   0.310000000   0.576592425    0   0   1
O0       0.000000000   0.000000000   0.621355404    0   0   1
O0       0.500000000   0.000000000   0.378858524    0   0   1
O0       0.500000000   0.500000000   0.401392814    0   0   1
Rh1      0.750000000   0.500000000   0.452516361    0   0   1
Rh1      0.500000000   0.000000000   0.453150752    0   0   1
O0       0.750000000   0.810000000   0.452915321    0   0   1
O0       0.750000000   0.190000000   0.452656118    0   0   1
O0       0.500000000   0.500000000   0.499326756    0   0   1
O0       0.500000000   0.000000000   0.528560479    0   0   1
Rh1      0.750000000   0.000000000   0.575933982    0   0   1
Rh1      0.500000000   0.500000000   0.571387344    0   0   1
O0       0.750000000   0.690000000   0.576582299    0   0   1
O0       0.750000000   0.310000000   0.576592602    0   0   1
O0       0.500000000   0.000000000   0.621355672    0   0   1
H2      -0.000235480   0.637851936   0.384556876
H2       0.499764513   0.637851247   0.384556573
H2       0.148401861   0.033544018   0.368144142
H2       0.648401856   0.033543955   0.368144094
End final coordinates



     init_run     :    116.76s CPU    118.54s WALL (       1 calls)
     electrons    :  32036.04s CPU  32805.36s WALL (       9 calls)
     update_pot   :    159.63s CPU    164.45s WALL (       8 calls)
     forces       :   1230.68s CPU   1243.40s WALL (       9 calls)

     Called by init_run:
     wfcinit      :     35.38s CPU     36.02s WALL (       1 calls)
     potinit      :      7.56s CPU      7.81s WALL (       1 calls)

     Called by electrons:
     c_bands      :  15837.53s CPU  16237.69s WALL (     170 calls)
     sum_band     :   6546.96s CPU   6695.69s WALL (     170 calls)
     v_of_rho     :    201.77s CPU    225.57s WALL (     176 calls)
     newd         :   9865.86s CPU   9924.28s WALL (     176 calls)
     mix_rho      :     34.10s CPU     34.88s WALL (     170 calls)

     Called by c_bands:
     init_us_2    :     38.74s CPU     38.95s WALL (    1104 calls)
     cegterg      :  15604.61s CPU  15969.12s WALL (     510 calls)

     Called by *egterg:
     h_psi        :   9123.90s CPU   9329.28s WALL (    1413 calls)
     s_psi        :    957.41s CPU    969.35s WALL (    1467 calls)
     g_psi        :     19.65s CPU     19.66s WALL (     900 calls)
     cdiaghg      :   1378.51s CPU   1381.90s WALL (    1377 calls)

     Called by h_psi:
     add_vuspsi   :    929.67s CPU    942.64s WALL (    1413 calls)
     vhpsi        :    927.85s CPU    940.08s WALL (    1413 calls)

     General routines
     calbec       :   2225.76s CPU   2251.96s WALL (   11244 calls)
     fft          :    243.17s CPU    292.43s WALL (    2899 calls)
     ffts         :      3.04s CPU      3.13s WALL (     346 calls)
     fftw         :   4955.41s CPU   5169.21s WALL (  928444 calls)
     interpolate  :     28.93s CPU     29.34s WALL (     346 calls)
     davcio       :      0.06s CPU     17.11s WALL (    1131 calls)

     Parallel routines
     fft_scatter  :   1863.33s CPU   2115.49s WALL (  931689 calls)
     Hubbard U routines
     new_ns       :    196.28s CPU    207.18s WALL (     170 calls)
     vhpsi        :    927.85s CPU    940.08s WALL (    1413 calls)
     force_hub    :    318.73s CPU    325.83s WALL (       9 calls)

     PWSCF        :     9h28m CPU        9h41m WALL


   This run was terminated on:   9: 5:43   9May2014            

=------------------------------------------------------------------------------=
   JOB DONE.
=------------------------------------------------------------------------------=
