ScientificPython/2.8-dl160g6-numpy-1.7.1-1(15):ERROR:151: Module 'ScientificPython/2.8-dl160g6-numpy-1.7.1-1' depends on one of the module(s) 'numpy/1.7.1-dl160g6-gfortran-internal-1'
ScientificPython/2.8-dl160g6-numpy-1.7.1-1(15):ERROR:102: Tcl command execution failed: prereq numpy/1.7.1-dl160g6-gfortran-internal-1


     Program PWSCF v.5.0.2 (svn rev. 9656) starts on 31May2014 at 23:40: 8 

     This program is part of the open-source Quantum ESPRESSO suite
     for quantum simulation of materials; please cite
         "P. Giannozzi et al., J. Phys.:Condens. Matter 21 395502 (2009);
          URL http://www.quantum-espresso.org", 
     in publications or presentations arising from this work. More details at
     http://www.quantum-espresso.org/quote.php

     Parallel version (MPI), running on    16 processors
     K-points division:     npool     =       4
     R & G space division:  proc/nbgrp/npool/nimage =       4

     Current dimensions of program PWSCF are:
     Max number of different atomic species (ntypx) = 10
     Max number of k-points (npk) =  40000
     Max angular momentum in pseudopotentials (lmaxx) =  3
     Reading input from pwscf.in
Warning: card &CELL ignored
Warning: card / ignored

     Subspace diagonalization in iterative solution of the eigenvalue problem:
     a serial algorithm will be used


     Parallelization info
     --------------------
     sticks:   dense  smooth     PW     G-vecs:    dense   smooth      PW
     Min        1386     442    124               330660    59845    8892
     Max        1388     443    125               330662    59871    8899
     Sum        5547    1771    497              1322643   239441   35575



     bravais-lattice index     =            0
     lattice parameter (alat)  =      11.2250  a.u.
     unit-cell volume          =    7005.5484 (a.u.)^3
     number of atoms/cell      =           33
     number of atomic types    =            3
     number of electrons       =       221.00
     number of Kohn-Sham states=          319
     kinetic-energy cutoff     =      40.0000  Ry
     charge density cutoff     =     500.0000  Ry
     convergence threshold     =      1.0E-06
     mixing beta               =       0.7000
     number of iterations used =            8  plain     mixing
     Exchange-correlation      = SLA  PW   PBE  PBE ( 1 4 3 4 0)
     EXX-fraction              =        0.00
     nstep                     =           50


     celldm(1)=  11.224973  celldm(2)=   0.000000  celldm(3)=   0.000000
     celldm(4)=   0.000000  celldm(5)=   0.000000  celldm(6)=   0.000000

     crystal axes: (cart. coord. in units of alat)
               a(1) = (   1.000000   0.000000   0.000000 )  
               a(2) = (   0.000000   1.107086   0.000000 )  
               a(3) = (   0.000000   0.000000   4.474090 )  

     reciprocal axes: (cart. coord. in units 2 pi/alat)
               b(1) = (  1.000000  0.000000  0.000000 )  
               b(2) = (  0.000000  0.903272  0.000000 )  
               b(3) = (  0.000000  0.000000  0.223509 )  


     PseudoPot. # 1 for O  read from file:
     /home/camp/zhonxu/pseudo/o_pbe_v1.01.uspp.F.UPF
     MD5 check sum: 2bcb18d16ea4b960afae9ec6d52f22d2
     Pseudo is Ultrasoft + core correction, Zval =  6.0
     Generated by new atomic code, or converted to UPF format
     Using radial grid of  737 points,  5 beta functions with: 
                l(1) =   0
                l(2) =   0
                l(3) =   1
                l(4) =   1
                l(5) =   2
     Q(r) pseudized with  8 coefficients,  rinner =    0.900   0.900   0.900
                                                       0.900   0.900

     PseudoPot. # 2 for Ti read from file:
     /home/camp/zhonxu/pseudo/ti_pbe_v1.uspp.F.UPF
     MD5 check sum: bcc8f6961b3b91f0cac3ca967d22d0fb
     Pseudo is Ultrasoft + core correction, Zval = 12.0
     Generated by new atomic code, or converted to UPF format
     Using radial grid of  851 points,  6 beta functions with: 
                l(1) =   0
                l(2) =   0
                l(3) =   1
                l(4) =   1
                l(5) =   2
                l(6) =   2
     Q(r) pseudized with  6 coefficients,  rinner =    1.000   1.000   1.000
                                                       1.000   1.000

     PseudoPot. # 3 for H  read from file:
     /home/camp/zhonxu/pseudo/h_pbe_v1.uspp.F.UPF
     MD5 check sum: 3408e3ff4ec8b0a4e358431e7e038a48
     Pseudo is Ultrasoft, Zval =  1.0
     Generated by new atomic code, or converted to UPF format
     Using radial grid of  615 points,  2 beta functions with: 
                l(1) =   0
                l(2) =   0
     Q(r) pseudized with  8 coefficients,  rinner =    0.700

     atomic species   valence    mass     pseudopotential
        O0             6.00    15.99940     O ( 1.00)
        Ti1           12.00    47.88000     Ti( 1.00)
        H2             1.00     1.00794     H ( 1.00)


     Simplified LDA+U calculation (l_max = 2) with parameters (eV):
     atomic species    L          U    alpha       J0     beta
        Ti1            2     8.0000   0.0000   0.0000   0.0000



     No symmetry found



   Cartesian axes

     site n.     atom                  positions (alat units)
         1           O0  tau(   1) = (   0.0000000   0.0000000   1.6912954  )
         2           O0  tau(   2) = (   0.0000000   0.5535432   1.7865040  )
         3           Ti1 tau(   3) = (   0.2500000   0.5535432   2.0182619  )
         4           Ti1 tau(   4) = (   0.0000000   0.0000000   2.0215280  )
         5           O0  tau(   5) = (   0.2500000   0.8967400   2.0132062  )
         6           O0  tau(   6) = (   0.2500000   0.2103464   2.0173223  )
         7           O0  tau(   7) = (   0.0000000   0.5535432   2.2297074  )
         8           O0  tau(   8) = (   0.0000000   0.0000000   2.3520737  )
         9           Ti1 tau(   9) = (   0.2500000   0.0000000   2.5974328  )
        10           Ti1 tau(  10) = (   0.0000000   0.5535432   2.5411040  )
        11           O0  tau(  11) = (   0.2500000   0.7638896   2.5876345  )
        12           O0  tau(  12) = (   0.2500000   0.3431968   2.5923323  )
        13           O0  tau(  13) = (   0.0000000   0.0000000   2.7826601  )
        14           O0  tau(  14) = (   0.5000000   0.0000000   1.6946510  )
        15           O0  tau(  15) = (   0.5000000   0.5535432   1.7849381  )
        16           Ti1 tau(  16) = (   0.7500000   0.5535432   2.0183066  )
        17           Ti1 tau(  17) = (   0.5000000   0.0000000   2.0277470  )
        18           O0  tau(  18) = (   0.7500000   0.8967400   2.0129377  )
        19           O0  tau(  19) = (   0.7500000   0.2103464   2.0175013  )
        20           O0  tau(  20) = (   0.5000000   0.5535432   2.2179405  )
        21           O0  tau(  21) = (   0.5000000   0.0000000   2.3528791  )
        22           Ti1 tau(  22) = (   0.7500000   0.0000000   2.5974328  )
        23           Ti1 tau(  23) = (   0.5000000   0.5535432   2.6181478  )
        24           O0  tau(  24) = (   0.7500000   0.7638896   2.5875898  )
        25           O0  tau(  25) = (   0.7500000   0.3431968   2.5922429  )
        26           O0  tau(  26) = (   0.5000000   0.0000000   2.7811837  )
        27           H2  tau(  27) = (  -0.0004600   0.6930693   1.6949194  )
        28           H2  tau(  28) = (   0.4997200   0.6918293   1.6916086  )
        29           H2  tau(  29) = (   0.1490000   0.0365781   1.6268238  )
        30           H2  tau(  30) = (   0.6482800   0.0381834   1.6297319  )
        31           O0  tau(  31) = (   0.5003100   0.5833902   2.9430115  )
        32           O0  tau(  32) = (   0.4991200   0.3876242   3.0783974  )
        33           H2  tau(  33) = (   0.5003600   0.4575034   3.2295322  )

     number of k points=    10  Methfessel-Paxton smearing, width (Ry)=  0.0100
                       cart. coord. in units 2pi/alat
        k(    1) = (   0.0000000   0.0000000   0.0000000), wk =   0.1250000
        k(    2) = (   0.0000000   0.2258180   0.0000000), wk =   0.2500000
        k(    3) = (   0.0000000  -0.4516359   0.0000000), wk =   0.1250000
        k(    4) = (   0.2500000   0.0000000   0.0000000), wk =   0.2500000
        k(    5) = (   0.2500000   0.2258180   0.0000000), wk =   0.2500000
        k(    6) = (   0.2500000  -0.4516359   0.0000000), wk =   0.2500000
        k(    7) = (  -0.5000000   0.0000000   0.0000000), wk =   0.1250000
        k(    8) = (  -0.5000000   0.2258180   0.0000000), wk =   0.2500000
        k(    9) = (  -0.5000000  -0.4516359   0.0000000), wk =   0.1250000
        k(   10) = (  -0.2500000   0.2258180   0.0000000), wk =   0.2500000

     Dense  grid:  1322643 G-vectors     FFT dimensions: (  80,  90, 360)

     Smooth grid:   239441 G-vectors     FFT dimensions: (  45,  54, 216)

     Largest allocated arrays     est. size (Mb)     dimensions
        Kohn-Sham Wavefunctions        36.83 Mb     (   7566,  319)
        Atomic wavefunctions           19.05 Mb     (   7566,  165)
        NL pseudopotentials            47.80 Mb     (   7566,  414)
        Each V/rho on FFT grid          9.89 Mb     ( 648000)
        Each G-vector array             2.52 Mb     ( 330661)
        G-vector shells                 1.08 Mb     ( 141764)
     Largest temporary arrays     est. size (Mb)     dimensions
        Auxiliary wavefunctions       147.31 Mb     (   7566, 1276)
        Each subspace H/S matrix       24.84 Mb     (1276,1276)
        Each <psi_i|beta_j> matrix      2.02 Mb     (    414,  319)
        Arrays for rho mixing          79.10 Mb     ( 648000,   8)

     Check: negative/imaginary core charge=   -0.000006    0.000000

     Initial potential from superposition of free atoms
     Check: negative starting charge=   -0.102033

     starting charge  212.99957, renormalised to  221.00000

     negative rho (up, down):  0.106E+00 0.000E+00
     Number of +U iterations with fixed ns =  0
     Starting occupations:
 --- enter write_ns ---
 LDA+U parameters:
U( 2)     =  8.00000000
alpha( 2) =  0.00000000
atom    3   Tr[ns(na)] =   2.00000
    eigenvalues: 
  0.200  0.200  0.200  0.200  0.200
    eigenvectors:
  1.000  0.000  0.000  0.000  0.000
  0.000  1.000  0.000  0.000  0.000
  0.000  0.000  1.000  0.000  0.000
  0.000  0.000  0.000  1.000  0.000
  0.000  0.000  0.000  0.000  1.000
    occupations:
  0.200  0.000  0.000  0.000  0.000
  0.000  0.200  0.000  0.000  0.000
  0.000  0.000  0.200  0.000  0.000
  0.000  0.000  0.000  0.200  0.000
  0.000  0.000  0.000  0.000  0.200
atom    4   Tr[ns(na)] =   2.00000
    eigenvalues: 
  0.200  0.200  0.200  0.200  0.200
    eigenvectors:
  1.000  0.000  0.000  0.000  0.000
  0.000  1.000  0.000  0.000  0.000
  0.000  0.000  1.000  0.000  0.000
  0.000  0.000  0.000  1.000  0.000
  0.000  0.000  0.000  0.000  1.000
    occupations:
  0.200  0.000  0.000  0.000  0.000
  0.000  0.200  0.000  0.000  0.000
  0.000  0.000  0.200  0.000  0.000
  0.000  0.000  0.000  0.200  0.000
  0.000  0.000  0.000  0.000  0.200
atom    9   Tr[ns(na)] =   2.00000
    eigenvalues: 
  0.200  0.200  0.200  0.200  0.200
    eigenvectors:
  1.000  0.000  0.000  0.000  0.000
  0.000  1.000  0.000  0.000  0.000
  0.000  0.000  1.000  0.000  0.000
  0.000  0.000  0.000  1.000  0.000
  0.000  0.000  0.000  0.000  1.000
    occupations:
  0.200  0.000  0.000  0.000  0.000
  0.000  0.200  0.000  0.000  0.000
  0.000  0.000  0.200  0.000  0.000
  0.000  0.000  0.000  0.200  0.000
  0.000  0.000  0.000  0.000  0.200
atom   10   Tr[ns(na)] =   2.00000
    eigenvalues: 
  0.200  0.200  0.200  0.200  0.200
    eigenvectors:
  1.000  0.000  0.000  0.000  0.000
  0.000  1.000  0.000  0.000  0.000
  0.000  0.000  1.000  0.000  0.000
  0.000  0.000  0.000  1.000  0.000
  0.000  0.000  0.000  0.000  1.000
    occupations:
  0.200  0.000  0.000  0.000  0.000
  0.000  0.200  0.000  0.000  0.000
  0.000  0.000  0.200  0.000  0.000
  0.000  0.000  0.000  0.200  0.000
  0.000  0.000  0.000  0.000  0.200
atom   16   Tr[ns(na)] =   2.00000
    eigenvalues: 
  0.200  0.200  0.200  0.200  0.200
    eigenvectors:
  1.000  0.000  0.000  0.000  0.000
  0.000  1.000  0.000  0.000  0.000
  0.000  0.000  1.000  0.000  0.000
  0.000  0.000  0.000  1.000  0.000
  0.000  0.000  0.000  0.000  1.000
    occupations:
  0.200  0.000  0.000  0.000  0.000
  0.000  0.200  0.000  0.000  0.000
  0.000  0.000  0.200  0.000  0.000
  0.000  0.000  0.000  0.200  0.000
  0.000  0.000  0.000  0.000  0.200
atom   17   Tr[ns(na)] =   2.00000
    eigenvalues: 
  0.200  0.200  0.200  0.200  0.200
    eigenvectors:
  1.000  0.000  0.000  0.000  0.000
  0.000  1.000  0.000  0.000  0.000
  0.000  0.000  1.000  0.000  0.000
  0.000  0.000  0.000  1.000  0.000
  0.000  0.000  0.000  0.000  1.000
    occupations:
  0.200  0.000  0.000  0.000  0.000
  0.000  0.200  0.000  0.000  0.000
  0.000  0.000  0.200  0.000  0.000
  0.000  0.000  0.000  0.200  0.000
  0.000  0.000  0.000  0.000  0.200
atom   22   Tr[ns(na)] =   2.00000
    eigenvalues: 
  0.200  0.200  0.200  0.200  0.200
    eigenvectors:
  1.000  0.000  0.000  0.000  0.000
  0.000  1.000  0.000  0.000  0.000
  0.000  0.000  1.000  0.000  0.000
  0.000  0.000  0.000  1.000  0.000
  0.000  0.000  0.000  0.000  1.000
    occupations:
  0.200  0.000  0.000  0.000  0.000
  0.000  0.200  0.000  0.000  0.000
  0.000  0.000  0.200  0.000  0.000
  0.000  0.000  0.000  0.200  0.000
  0.000  0.000  0.000  0.000  0.200
atom   23   Tr[ns(na)] =   2.00000
    eigenvalues: 
  0.200  0.200  0.200  0.200  0.200
    eigenvectors:
  1.000  0.000  0.000  0.000  0.000
  0.000  1.000  0.000  0.000  0.000
  0.000  0.000  1.000  0.000  0.000
  0.000  0.000  0.000  1.000  0.000
  0.000  0.000  0.000  0.000  1.000
    occupations:
  0.200  0.000  0.000  0.000  0.000
  0.000  0.200  0.000  0.000  0.000
  0.000  0.000  0.200  0.000  0.000
  0.000  0.000  0.000  0.200  0.000
  0.000  0.000  0.000  0.000  0.200
N of occupied +U levels =  16.0000000
 --- exit write_ns ---
 Atomic wfc used for LDA+U Projector are NOT orthogonalized
     Starting wfc are  165 randomized atomic wfcs

     total cpu time spent up to now is      103.9 secs

     per-process dynamical memory:   371.2 Mb

     Self-consistent Calculation

     iteration #  1     ecut=    40.00 Ry     beta=0.70
     Davidson diagonalization with overlap
     ethr =  1.00E-02,  avg # of iterations =  5.9
 --- enter write_ns ---
 LDA+U parameters:
U( 2)     =  8.00000000
alpha( 2) =  0.00000000
atom    3   Tr[ns(na)] =   1.55023
    eigenvalues: 
  0.077  0.091  0.101  0.236  0.270
    eigenvectors:
  0.066  0.037  0.747  0.147  0.003
  0.000  0.001  0.001  0.034  0.964
  0.864  0.031  0.105  0.000  0.000
  0.016  0.007  0.127  0.819  0.032
  0.054  0.924  0.021  0.000  0.002
    occupations:
  0.119  0.001 -0.005  0.049  0.000
  0.001  0.269  0.001 -0.007  0.007
 -0.005  0.001  0.080  0.005 -0.004
  0.049 -0.007  0.005  0.217 -0.000
  0.000  0.007 -0.004 -0.000  0.091
atom    4   Tr[ns(na)] =   1.82108
    eigenvalues: 
  0.097  0.113  0.130  0.270  0.300
    eigenvectors:
  0.013  0.003  0.000  0.000  0.984
  0.009  0.833  0.153  0.000  0.004
  0.001  0.152  0.846  0.000  0.000
  0.976  0.012  0.000  0.000  0.011
  0.000  0.000  0.000  1.000  0.000
    occupations:
  0.297  0.012  0.004 -0.022  0.000
  0.012  0.116 -0.006  0.000 -0.002
  0.004 -0.006  0.128  0.000  0.000
 -0.022  0.000  0.000  0.099 -0.000
  0.000 -0.002  0.000 -0.000  0.270
atom    9   Tr[ns(na)] =   1.78271
    eigenvalues: 
  0.100  0.122  0.129  0.254  0.286
    eigenvectors:
  0.000  0.001  0.941  0.057  0.000
  0.000  0.000  0.000  0.002  0.998
  1.000  0.000  0.000  0.000  0.000
  0.000  0.000  0.057  0.941  0.002
  0.000  0.999  0.001  0.000  0.000
    occupations:
  0.136  0.000 -0.000  0.029  0.000
  0.000  0.286 -0.000 -0.002  0.000
 -0.000 -0.000  0.100  0.002  0.000
  0.029 -0.002  0.002  0.247 -0.000
  0.000  0.000  0.000 -0.000  0.122
atom   10   Tr[ns(na)] =   1.75510
    eigenvalues: 
  0.097  0.118  0.188  0.211  0.263
    eigenvectors:
  0.000  0.000  0.406  0.594  0.000
  0.000  1.000  0.000  0.000  0.000
  1.000  0.000  0.000  0.000  0.000
  0.000  0.000  0.593  0.406  0.000
  0.000  0.000  0.000  0.000  1.000
    occupations:
  0.202  0.000 -0.000 -0.011 -0.000
  0.000  0.119 -0.000  0.000  0.001
 -0.000 -0.000  0.097 -0.001 -0.000
 -0.011  0.000 -0.001  0.197 -0.000
 -0.000  0.001 -0.000 -0.000  0.263
atom   16   Tr[ns(na)] =   1.55043
    eigenvalues: 
  0.077  0.091  0.101  0.236  0.270
    eigenvectors:
  0.066  0.038  0.746  0.147  0.003
  0.000  0.001  0.001  0.034  0.964
  0.864  0.031  0.105  0.000  0.000
  0.016  0.007  0.127  0.818  0.032
  0.054  0.924  0.021  0.000  0.002
    occupations:
  0.119 -0.001 -0.005  0.049 -0.001
 -0.001  0.269 -0.001  0.007  0.007
 -0.005 -0.001  0.080  0.005  0.003
  0.049  0.007  0.005  0.217  0.000
 -0.001  0.007  0.003  0.000  0.091
atom   17   Tr[ns(na)] =   1.81711
    eigenvalues: 
  0.096  0.113  0.129  0.269  0.301
    eigenvectors:
  0.013  0.003  0.000  0.000  0.984
  0.007  0.807  0.182  0.000  0.004
  0.001  0.180  0.818  0.000  0.000
  0.979  0.009  0.000  0.000  0.011
  0.000  0.000  0.000  1.000  0.000
    occupations:
  0.298  0.012  0.004 -0.022  0.000
  0.012  0.117 -0.006  0.000 -0.002
  0.004 -0.006  0.126  0.000  0.000
 -0.022  0.000  0.000  0.099 -0.000
  0.000 -0.002  0.000 -0.000  0.269
atom   22   Tr[ns(na)] =   1.78275
    eigenvalues: 
  0.100  0.122  0.129  0.254  0.286
    eigenvectors:
  0.000  0.001  0.942  0.057  0.000
  0.000  0.000  0.000  0.002  0.998
  1.000  0.000  0.000  0.000  0.000
  0.000  0.000  0.057  0.941  0.002
  0.000  0.999  0.001  0.000  0.000
    occupations:
  0.136 -0.000 -0.000  0.029 -0.000
 -0.000  0.286  0.000  0.002  0.000
 -0.000  0.000  0.100  0.002 -0.000
  0.029  0.002  0.002  0.247  0.000
 -0.000  0.000 -0.000  0.000  0.122
atom   23   Tr[ns(na)] =   1.89454
    eigenvalues: 
  0.090  0.114  0.184  0.259  0.300
    eigenvectors:
  0.006  0.001  0.000  0.000  0.993
  0.000  0.000  0.998  0.002  0.000
  0.958  0.038  0.000  0.000  0.005
  0.037  0.961  0.000  0.000  0.002
  0.000  0.000  0.002  0.998  0.000
    occupations:
  0.299 -0.000  0.014 -0.009 -0.000
 -0.000  0.184 -0.000 -0.001 -0.003
  0.014 -0.000  0.092  0.004  0.000
 -0.009 -0.001  0.004  0.114  0.000
 -0.000 -0.003  0.000  0.000  0.259
N of occupied +U levels =  13.9539565
 --- exit write_ns ---

     negative rho (up, down):  0.123E+00 0.000E+00

     total cpu time spent up to now is      436.1 secs

     total energy              =   -1590.16496350 Ry
     Harris-Foulkes estimate   =   -1598.34072957 Ry
     estimated scf accuracy    <      10.24663991 Ry

     iteration #  2     ecut=    40.00 Ry     beta=0.70
     Davidson diagonalization with overlap
     ethr =  4.64E-03,  avg # of iterations =  4.2

     negative rho (up, down):  0.110E+00 0.000E+00

     total cpu time spent up to now is      646.1 secs

     total energy              =   -1565.08977486 Ry
     Harris-Foulkes estimate   =   -1610.90766104 Ry
     estimated scf accuracy    <     264.42024237 Ry

     iteration #  3     ecut=    40.00 Ry     beta=0.70
     Davidson diagonalization with overlap
     ethr =  4.64E-03,  avg # of iterations =  4.3

     negative rho (up, down):  0.100E+00 0.000E+00

     total cpu time spent up to now is      876.9 secs

     total energy              =   -1576.36369568 Ry
     Harris-Foulkes estimate   =   -1609.89862996 Ry
     estimated scf accuracy    <     500.22826419 Ry

     iteration #  4     ecut=    40.00 Ry     beta=0.70
     Davidson diagonalization with overlap
     ethr =  4.64E-03,  avg # of iterations =  3.9

     negative rho (up, down):  0.954E-01 0.000E+00

     total cpu time spent up to now is     1077.0 secs

     total energy              =   -1593.30120014 Ry
     Harris-Foulkes estimate   =   -1597.73891838 Ry
     estimated scf accuracy    <      44.08255083 Ry

     iteration #  5     ecut=    40.00 Ry     beta=0.70
     Davidson diagonalization with overlap
     ethr =  4.64E-03,  avg # of iterations =  2.7

     negative rho (up, down):  0.964E-01 0.000E+00

     total cpu time spent up to now is     1249.3 secs

     total energy              =   -1596.16053608 Ry
     Harris-Foulkes estimate   =   -1596.76912712 Ry
     estimated scf accuracy    <       3.17713451 Ry

     iteration #  6     ecut=    40.00 Ry     beta=0.70
     Davidson diagonalization with overlap
     ethr =  1.44E-03,  avg # of iterations =  2.7

     negative rho (up, down):  0.985E-01 0.000E+00

     total cpu time spent up to now is     1419.7 secs

     total energy              =   -1596.09406073 Ry
     Harris-Foulkes estimate   =   -1596.33961658 Ry
     estimated scf accuracy    <       1.87633792 Ry

     iteration #  7     ecut=    40.00 Ry     beta=0.70
     Davidson diagonalization with overlap
     ethr =  8.49E-04,  avg # of iterations =  3.4

     negative rho (up, down):  0.998E-01 0.000E+00

     total cpu time spent up to now is     1587.7 secs

     total energy              =   -1596.10642881 Ry
     Harris-Foulkes estimate   =   -1596.19644165 Ry
     estimated scf accuracy    <       1.46701240 Ry

     iteration #  8     ecut=    40.00 Ry     beta=0.70
     Davidson diagonalization with overlap
     ethr =  6.64E-04,  avg # of iterations =  1.0

     negative rho (up, down):  0.102E+00 0.000E+00

     total cpu time spent up to now is     1747.3 secs

     total energy              =   -1596.00633501 Ry
     Harris-Foulkes estimate   =   -1596.15690254 Ry
     estimated scf accuracy    <       1.12681672 Ry

     iteration #  9     ecut=    40.00 Ry     beta=0.70
     Davidson diagonalization with overlap
     ethr =  5.10E-04,  avg # of iterations =  3.9

     negative rho (up, down):  0.105E+00 0.000E+00

     total cpu time spent up to now is     1924.1 secs

     total energy              =   -1595.98949610 Ry
     Harris-Foulkes estimate   =   -1596.08167903 Ry
     estimated scf accuracy    <       0.86867141 Ry

     iteration # 10     ecut=    40.00 Ry     beta=0.70
     Davidson diagonalization with overlap
     ethr =  3.93E-04,  avg # of iterations =  5.0

     negative rho (up, down):  0.107E+00 0.000E+00

     total cpu time spent up to now is     2103.7 secs

     total energy              =   -1595.97631664 Ry
     Harris-Foulkes estimate   =   -1596.02565827 Ry
     estimated scf accuracy    <       0.82498979 Ry

     iteration # 11     ecut=    40.00 Ry     beta=0.70
     Davidson diagonalization with overlap
     ethr =  3.73E-04,  avg # of iterations =  1.2

     negative rho (up, down):  0.110E+00 0.000E+00

     total cpu time spent up to now is     2260.4 secs

     total energy              =   -1595.94937513 Ry
     Harris-Foulkes estimate   =   -1596.01792188 Ry
     estimated scf accuracy    <       0.75460614 Ry

     iteration # 12     ecut=    40.00 Ry     beta=0.70
     Davidson diagonalization with overlap
     ethr =  3.41E-04,  avg # of iterations =  4.8

     negative rho (up, down):  0.109E+00 0.000E+00

     total cpu time spent up to now is     2435.4 secs

     total energy              =   -1595.96825101 Ry
     Harris-Foulkes estimate   =   -1595.99733279 Ry
     estimated scf accuracy    <       0.25676529 Ry

     iteration # 13     ecut=    40.00 Ry     beta=0.70
     Davidson diagonalization with overlap
     ethr =  1.16E-04,  avg # of iterations =  1.9

     negative rho (up, down):  0.110E+00 0.000E+00

     total cpu time spent up to now is     2592.6 secs

     total energy              =   -1595.94202181 Ry
     Harris-Foulkes estimate   =   -1595.98357657 Ry
     estimated scf accuracy    <       0.12482066 Ry

     iteration # 14     ecut=    40.00 Ry     beta=0.70
     Davidson diagonalization with overlap
     ethr =  5.65E-05,  avg # of iterations =  5.5

     negative rho (up, down):  0.109E+00 0.000E+00

     total cpu time spent up to now is     2783.8 secs

     total energy              =   -1595.88987088 Ry
     Harris-Foulkes estimate   =   -1596.02194878 Ry
     estimated scf accuracy    <       0.65723719 Ry

     iteration # 15     ecut=    40.00 Ry     beta=0.70
     Davidson diagonalization with overlap
     ethr =  5.65E-05,  avg # of iterations =  4.3

     negative rho (up, down):  0.109E+00 0.000E+00

     total cpu time spent up to now is     2961.1 secs

     total energy              =   -1595.95747747 Ry
     Harris-Foulkes estimate   =   -1595.98301769 Ry
     estimated scf accuracy    <       0.20571638 Ry

     iteration # 16     ecut=    40.00 Ry     beta=0.70
     Davidson diagonalization with overlap
     ethr =  5.65E-05,  avg # of iterations =  1.0

     negative rho (up, down):  0.108E+00 0.000E+00

     total cpu time spent up to now is     3118.2 secs

     total energy              =   -1595.96559350 Ry
     Harris-Foulkes estimate   =   -1595.96848916 Ry
     estimated scf accuracy    <       0.02881552 Ry

     iteration # 17     ecut=    40.00 Ry     beta=0.70
     Davidson diagonalization with overlap
     ethr =  1.30E-05,  avg # of iterations =  1.8

     negative rho (up, down):  0.108E+00 0.000E+00

     total cpu time spent up to now is     3282.4 secs

     total energy              =   -1595.96624553 Ry
     Harris-Foulkes estimate   =   -1595.96812161 Ry
     estimated scf accuracy    <       0.04955100 Ry

     iteration # 18     ecut=    40.00 Ry     beta=0.70
     Davidson diagonalization with overlap
     ethr =  1.30E-05,  avg # of iterations =  1.0

     negative rho (up, down):  0.108E+00 0.000E+00

     total cpu time spent up to now is     3445.4 secs

     total energy              =   -1595.96648359 Ry
     Harris-Foulkes estimate   =   -1595.96729484 Ry
     estimated scf accuracy    <       0.00371893 Ry

     iteration # 19     ecut=    40.00 Ry     beta=0.70
     Davidson diagonalization with overlap
     ethr =  1.68E-06,  avg # of iterations =  7.4

     negative rho (up, down):  0.109E+00 0.000E+00

     total cpu time spent up to now is     3629.7 secs

     total energy              =   -1595.96610476 Ry
     Harris-Foulkes estimate   =   -1595.96714124 Ry
     estimated scf accuracy    <       0.01988248 Ry

     iteration # 20     ecut=    40.00 Ry     beta=0.70
     Davidson diagonalization with overlap
     ethr =  1.68E-06,  avg # of iterations =  1.4

     negative rho (up, down):  0.109E+00 0.000E+00

     total cpu time spent up to now is     3788.1 secs

     total energy              =   -1595.96582842 Ry
     Harris-Foulkes estimate   =   -1595.96745119 Ry
     estimated scf accuracy    <       0.01985759 Ry

     iteration # 21     ecut=    40.00 Ry     beta=0.70
     Davidson diagonalization with overlap
     ethr =  1.68E-06,  avg # of iterations =  1.0

     negative rho (up, down):  0.109E+00 0.000E+00

     total cpu time spent up to now is     3950.3 secs

     total energy              =   -1595.96674253 Ry
     Harris-Foulkes estimate   =   -1595.96684044 Ry
     estimated scf accuracy    <       0.00155516 Ry

     iteration # 22     ecut=    40.00 Ry     beta=0.70
     Davidson diagonalization with overlap
     ethr =  7.04E-07,  avg # of iterations =  1.0

     negative rho (up, down):  0.109E+00 0.000E+00

     total cpu time spent up to now is     4107.3 secs

     total energy              =   -1595.96676840 Ry
     Harris-Foulkes estimate   =   -1595.96682832 Ry
     estimated scf accuracy    <       0.00023096 Ry

     iteration # 23     ecut=    40.00 Ry     beta=0.70
     Davidson diagonalization with overlap
     ethr =  1.05E-07,  avg # of iterations =  1.8

     negative rho (up, down):  0.109E+00 0.000E+00

     total cpu time spent up to now is     4267.9 secs

     total energy              =   -1595.96677904 Ry
     Harris-Foulkes estimate   =   -1595.96682486 Ry
     estimated scf accuracy    <       0.00025267 Ry

     iteration # 24     ecut=    40.00 Ry     beta=0.70
     Davidson diagonalization with overlap
     ethr =  1.05E-07,  avg # of iterations =  1.0

     negative rho (up, down):  0.109E+00 0.000E+00

     total cpu time spent up to now is     4429.0 secs

     total energy              =   -1595.96680085 Ry
     Harris-Foulkes estimate   =   -1595.96680567 Ry
     estimated scf accuracy    <       0.00004838 Ry

     iteration # 25     ecut=    40.00 Ry     beta=0.70
     Davidson diagonalization with overlap
     ethr =  2.19E-08,  avg # of iterations =  1.0

     negative rho (up, down):  0.109E+00 0.000E+00

     total cpu time spent up to now is     4589.1 secs

     total energy              =   -1595.96680399 Ry
     Harris-Foulkes estimate   =   -1595.96680525 Ry
     estimated scf accuracy    <       0.00001003 Ry

     iteration # 26     ecut=    40.00 Ry     beta=0.70
     Davidson diagonalization with overlap
     ethr =  4.54E-09,  avg # of iterations =  1.0

     negative rho (up, down):  0.109E+00 0.000E+00

     total cpu time spent up to now is     4749.5 secs

     total energy              =   -1595.96680454 Ry
     Harris-Foulkes estimate   =   -1595.96680572 Ry
     estimated scf accuracy    <       0.00000615 Ry

     iteration # 27     ecut=    40.00 Ry     beta=0.70
     Davidson diagonalization with overlap
     ethr =  2.78E-09,  avg # of iterations =  1.0

     negative rho (up, down):  0.109E+00 0.000E+00

     total cpu time spent up to now is     4908.9 secs

     total energy              =   -1595.96680435 Ry
     Harris-Foulkes estimate   =   -1595.96680632 Ry
     estimated scf accuracy    <       0.00005124 Ry

     iteration # 28     ecut=    40.00 Ry     beta=0.70
     Davidson diagonalization with overlap
     ethr =  2.78E-09,  avg # of iterations =  1.0

     negative rho (up, down):  0.109E+00 0.000E+00

     total cpu time spent up to now is     5075.2 secs

     total energy              =   -1595.96680537 Ry
     Harris-Foulkes estimate   =   -1595.96680561 Ry
     estimated scf accuracy    <       0.00000377 Ry

     iteration # 29     ecut=    40.00 Ry     beta=0.70
     Davidson diagonalization with overlap
     ethr =  1.71E-09,  avg # of iterations =  1.0

     negative rho (up, down):  0.109E+00 0.000E+00

     total cpu time spent up to now is     5240.4 secs

     End of self-consistent calculation
 --- enter write_ns ---
 LDA+U parameters:
U( 2)     =  8.00000000
alpha( 2) =  0.00000000
atom    3   Tr[ns(na)] =   2.52810
    eigenvalues: 
  0.113  0.122  0.142  0.423  0.464
    eigenvectors:
  0.443  0.337  0.040  0.145  0.036
  0.003  0.000  0.002  0.279  0.717
  0.341  0.204  0.455  0.000  0.000
  0.103  0.069  0.006  0.575  0.246
  0.110  0.390  0.498  0.001  0.002
    occupations:
  0.175  0.006 -0.004  0.120  0.001
  0.006  0.451  0.002 -0.023  0.015
 -0.004  0.002  0.128  0.008 -0.011
  0.120 -0.023  0.008  0.378 -0.001
  0.001  0.015 -0.011 -0.001  0.132
atom    4   Tr[ns(na)] =   2.63883
    eigenvalues: 
  0.112  0.143  0.155  0.441  0.468
    eigenvectors:
  0.007  0.002  0.000  0.000  0.991
  0.001  0.809  0.187  0.000  0.002
  0.001  0.186  0.813  0.000  0.000
  0.992  0.002  0.000  0.000  0.006
  0.000  0.000  0.000  1.000  0.000
    occupations:
  0.465  0.016  0.005 -0.028 -0.000
  0.016  0.146 -0.005 -0.000 -0.003
  0.005 -0.005  0.153  0.001 -0.000
 -0.028 -0.000  0.001  0.115 -0.000
 -0.000 -0.003 -0.000 -0.000  0.441
atom    9   Tr[ns(na)] =   2.63302
    eigenvalues: 
  0.114  0.160  0.174  0.393  0.475
    eigenvectors:
  0.000  0.000  0.925  0.075  0.000
  0.000  0.000  0.000  0.000  1.000
  1.000  0.000  0.000  0.000  0.000
  0.000  0.000  0.075  0.925  0.000
  0.000  0.999  0.001  0.000  0.000
    occupations:
  0.190  0.001  0.001  0.058  0.000
  0.001  0.475 -0.000 -0.001  0.000
  0.001 -0.000  0.114  0.002  0.000
  0.058 -0.001  0.002  0.377 -0.000
  0.000  0.000  0.000 -0.000  0.160
atom   10   Tr[ns(na)] =   2.57035
    eigenvalues: 
  0.117  0.163  0.179  0.346  0.480
    eigenvectors:
  0.017  0.000  0.000  0.983  0.000
  0.000  0.000  1.000  0.000  0.000
  0.000  1.000  0.000  0.000  0.000
  0.983  0.000  0.000  0.017  0.000
  0.000  0.000  0.000  0.000  1.000
    occupations:
  0.342 -0.000 -0.001 -0.030 -0.000
 -0.000  0.179 -0.000 -0.000  0.003
 -0.001 -0.000  0.163 -0.000  0.000
 -0.030 -0.000 -0.000  0.121 -0.000
 -0.000  0.003  0.000 -0.000  0.480
atom   16   Tr[ns(na)] =   2.52834
    eigenvalues: 
  0.114  0.122  0.142  0.423  0.464
    eigenvectors:
  0.448  0.332  0.039  0.145  0.035
  0.003  0.000  0.002  0.279  0.717
  0.337  0.207  0.456  0.000  0.000
  0.105  0.067  0.007  0.576  0.246
  0.107  0.394  0.496  0.001  0.001
    occupations:
  0.175 -0.006 -0.004  0.120 -0.001
 -0.006  0.451 -0.002  0.023  0.015
 -0.004 -0.002  0.128  0.007  0.011
  0.120  0.023  0.007  0.378  0.001
 -0.001  0.015  0.011  0.001  0.132
atom   17   Tr[ns(na)] =   2.63869
    eigenvalues: 
  0.111  0.145  0.157  0.435  0.471
    eigenvectors:
  0.006  0.002  0.000  0.000  0.992
  0.001  0.837  0.160  0.000  0.002
  0.000  0.160  0.840  0.000  0.000
  0.992  0.001  0.000  0.000  0.006
  0.000  0.000  0.000  1.000  0.000
    occupations:
  0.468  0.014  0.005 -0.028 -0.000
  0.014  0.148 -0.004 -0.000 -0.003
  0.005 -0.004  0.155  0.000 -0.000
 -0.028 -0.000  0.000  0.113 -0.000
 -0.000 -0.003 -0.000 -0.000  0.435
atom   22   Tr[ns(na)] =   2.63303
    eigenvalues: 
  0.114  0.160  0.174  0.393  0.475
    eigenvectors:
  0.000  0.000  0.925  0.075  0.000
  0.000  0.000  0.000  0.000  1.000
  1.000  0.000  0.000  0.000  0.000
  0.000  0.000  0.075  0.925  0.000
  0.000  0.999  0.000  0.000  0.000
    occupations:
  0.190 -0.001  0.001  0.058 -0.000
 -0.001  0.475  0.000  0.001  0.000
  0.001  0.000  0.114  0.002 -0.000
  0.058  0.001  0.002  0.377  0.000
 -0.000  0.000 -0.000  0.000  0.160
atom   23   Tr[ns(na)] =   2.54943
    eigenvalues: 
  0.109  0.120  0.181  0.386  0.479
    eigenvectors:
  0.001  0.008  0.000  0.991  0.000
  0.000  0.000  1.000  0.000  0.000
  0.964  0.036  0.000  0.000  0.000
  0.035  0.956  0.000  0.009  0.000
  0.000  0.000  0.000  0.000  1.000
    occupations:
  0.383 -0.000  0.004 -0.025 -0.000
 -0.000  0.181 -0.000 -0.000 -0.001
  0.004 -0.000  0.110  0.002  0.000
 -0.025 -0.000  0.002  0.122 -0.000
 -0.000 -0.001  0.000 -0.000  0.479
N of occupied +U levels =  20.7197924
 --- exit write_ns ---

          k = 0.0000 0.0000 0.0000 ( 29975 PWs)   bands (ev):

   -61.3206 -61.2855 -61.0773 -60.8026 -59.9944 -59.9529 -59.6775 -59.6400
   -37.7611 -37.5341 -37.4720 -37.4407 -37.3988 -37.3663 -37.3352 -37.2788
   -37.1784 -37.0376 -36.9773 -36.8533 -36.5120 -36.2857 -36.1915 -36.0966
   -36.0512 -36.0316 -35.9996 -35.9705 -35.9432 -35.8760 -35.7937 -35.5902
   -24.5497 -21.3294 -20.9963 -20.2619 -19.7488 -19.6809 -19.1075 -19.0182
   -18.9748 -18.9030 -18.8529 -18.7827 -18.6929 -18.5837 -18.4906 -18.3131
   -17.9124 -17.5791 -17.4619 -17.4342  -9.3792  -8.9574  -8.6431  -7.7788
    -7.4091  -7.3301  -7.1604  -7.1481  -7.1185  -6.7088  -6.4411  -6.4229
    -6.3711  -6.3528  -6.3262  -6.2279  -6.1641  -6.0895  -6.0264  -5.8591
    -5.8510  -5.6690  -5.4936  -5.4525  -5.2514  -5.2176  -5.0375  -5.0131
    -4.9845  -4.9345  -4.5499  -4.4595  -4.4513  -4.3145  -4.2397  -4.2197
    -3.9948  -3.9879  -3.8819  -3.7329  -3.6987  -3.6782  -3.5473  -3.4764
    -3.3396  -3.2675  -3.2427  -3.1185  -2.7923  -2.7567  -2.7006  -2.5212
    -2.4354  -2.3986  -2.2552  -2.2341  -2.1694  -2.0262  -1.9164   0.5523
     0.6539   1.0420   1.0624   1.0851   1.1380   1.2831   1.3479   1.3706
     1.6653   1.6952   1.8132   1.8235   1.9386   1.9582   2.0349   2.2198
     2.3551   2.3836   2.3841   2.4094   2.5048   2.5496   2.5854   2.6130
     2.7703   2.7795   2.8080   2.9441   3.0217   3.0817   3.2227   3.3156
     3.4166   3.5224   3.6103   3.6719   3.7343   3.7508   3.8999   4.1407
     4.1843   4.3265   4.3882   4.6610   4.7809   5.3506   5.7554   6.1661
     6.2645   6.4801   6.7425   6.8428   6.9585   7.1011   7.2053   7.2216
     7.3097   7.3142   7.5251   7.7403   7.8006   7.9337   7.9522   8.1845
     8.2716   8.2957   8.3939   8.5046   8.5787   8.7716   8.8115   8.8840
     9.0426   9.1161   9.2372   9.2993   9.4270   9.5025   9.5337   9.5817
     9.8074   9.8863  10.0771  10.1144  10.2394  10.2517  10.4114  10.4291
    10.6748  10.7758  10.7814  10.8723  10.9763  11.0494  11.1451  11.1614
    11.1817  11.2409  11.3382  11.3753  11.3965  11.4748  11.5177  11.6187
    11.7499  11.8188  11.8361  11.8721  11.9329  11.9675  12.0828  12.1052
    12.1389  12.2942  12.3054  12.3889  12.4614  12.4876  12.5576  12.6274
    12.6614  12.7901  12.8803  12.9316  13.0673  13.1707  13.1932  13.3805
    13.5110  13.5975  13.6143  13.6660  13.7189  13.7716  13.9728  14.0593
    14.1785  14.2017  14.2648  14.4044  14.5218  14.5610  14.6313  14.7359
    14.7956  14.8857  14.9066  15.0520  15.0935  15.1264  15.2791  15.3231
    15.5184  15.5512  15.6774  15.6971  15.8226  15.8530  15.9241  16.1610
    16.2431  16.3280  16.3766  16.4113  16.5725  16.7228  16.7802  16.8459
    16.9177  16.9706  17.0615  17.0722  17.2802  17.3041  17.3616  17.3820
    17.5003  17.5943  17.6063  17.6252  17.7448  17.8326  17.9238  17.9804
    18.0635  18.1513  18.2258  18.2898  18.3157  18.4126  18.4267  18.4872
    18.6205  18.6670  18.7159  18.7776  18.8667  18.9308  19.0484  19.0964
    19.1568  19.2263  19.2985  19.3548  19.4250  19.4551  19.5650

          k = 0.0000 0.2258 0.0000 ( 29933 PWs)   bands (ev):

   -61.3209 -61.2855 -61.0773 -60.8026 -59.9945 -59.9526 -59.6778 -59.6400
   -37.7614 -37.5340 -37.4720 -37.4407 -37.3971 -37.3675 -37.3352 -37.2795
   -37.1775 -37.0376 -36.9771 -36.8534 -36.5108 -36.2874 -36.1920 -36.0966
   -36.0511 -36.0317 -35.9997 -35.9720 -35.9423 -35.8759 -35.7937 -35.5902
   -24.5496 -21.3214 -20.9957 -20.2457 -19.7129 -19.6158 -19.1123 -19.1073
   -19.0133 -18.9778 -18.7625 -18.7564 -18.7508 -18.6167 -18.5563 -18.2282
   -17.9130 -17.5846 -17.4556 -17.4330  -9.3758  -8.9602  -8.6413  -7.7853
    -7.3060  -7.2116  -7.1443  -7.0061  -6.8992  -6.7048  -6.5041  -6.4362
    -6.4267  -6.4035  -6.2867  -6.2568  -6.1012  -6.0242  -6.0229  -5.8594
    -5.7405  -5.5282  -5.4438  -5.3623  -5.3091  -5.2505  -5.1284  -5.0585
    -5.0061  -4.8395  -4.6662  -4.5383  -4.4596  -4.4104  -4.3042  -4.2699
    -4.0884  -4.0825  -3.9902  -3.7645  -3.7554  -3.6574  -3.5651  -3.5518
    -3.3854  -3.3331  -3.1901  -3.0902  -2.8404  -2.7865  -2.7538  -2.7018
    -2.5216  -2.4186  -2.3299  -2.2494  -2.1916  -2.0394  -1.9504   0.5943
     0.9920   1.0002   1.0296   1.1324   1.2718   1.2727   1.3254   1.5014
     1.6423   1.6934   1.7041   1.8688   1.9421   1.9764   2.0501   2.0578
     2.2388   2.3641   2.3975   2.4290   2.5241   2.5675   2.5887   2.7478
     2.7509   2.8999   2.9500   2.9582   3.0560   3.0885   3.2997   3.4302
     3.4995   3.5260   3.5795   3.7218   3.8405   3.9318   3.9930   4.0900
     4.2381   4.3724   4.4534   4.6651   4.9662   5.1679   5.3602   5.5913
     5.7896   6.0793   6.3268   6.5881   6.6670   6.8935   7.2779   7.3473
     7.4922   7.5672   7.7378   7.8908   8.0838   8.1094   8.1727   8.2101
     8.3848   8.5003   8.6319   8.6761   8.8422   8.9542   9.0034   9.0812
     9.1339   9.1868   9.3305   9.4437   9.4677   9.4803   9.6113   9.6889
     9.7256   9.8202   9.8643   9.8805  10.0087  10.1016  10.2233  10.2743
    10.3350  10.4038  10.5205  10.7614  10.8526  10.9099  10.9376  11.0074
    11.0898  11.1582  11.1928  11.2991  11.3708  11.4018  11.4721  11.8355
    11.8687  11.9019  12.0137  12.0906  12.1188  12.1780  12.2560  12.3968
    12.4447  12.5045  12.5636  12.7363  12.8079  12.9532  13.0238  13.0809
    13.1452  13.2153  13.2386  13.3203  13.3262  13.4517  13.4795  13.4997
    13.7058  13.7589  13.7884  13.9110  13.9725  13.9976  14.0520  14.1010
    14.1388  14.1979  14.2379  14.2563  14.3586  14.5317  14.6519  14.6800
    14.6934  14.7353  14.8537  14.8705  15.0201  15.0264  15.1757  15.2148
    15.2378  15.2969  15.3660  15.4553  15.5484  15.6524  15.6897  15.8363
    15.9362  15.9787  16.1705  16.1878  16.2583  16.4122  16.4399  16.4765
    16.6619  16.6938  16.7727  16.8389  16.9672  17.0373  17.0964  17.1730
    17.2207  17.3100  17.4945  17.5291  17.5941  17.7404  17.8724  17.9087
    18.0509  18.1014  18.1556  18.2440  18.2980  18.3494  18.4073  18.4721
    18.4787  18.5192  18.6591  18.7370  18.7924  18.8442  18.8719  19.0434
    19.0663  19.1938  19.2117  19.2411  19.3070  19.3685  19.3848

          k = 0.0000-0.4516 0.0000 ( 29906 PWs)   bands (ev):

   -61.3211 -61.2854 -61.0773 -60.8025 -59.9946 -59.9524 -59.6781 -59.6400
   -37.7617 -37.5340 -37.4720 -37.4407 -37.3953 -37.3687 -37.3352 -37.2802
   -37.1766 -37.0375 -36.9769 -36.8535 -36.5096 -36.2891 -36.1924 -36.0966
   -36.0511 -36.0317 -35.9997 -35.9734 -35.9414 -35.8759 -35.7937 -35.5902
   -24.5494 -21.3135 -20.9951 -20.2300 -19.6694 -19.5300 -19.1640 -19.1064
   -19.0768 -18.9820 -18.9417 -18.7481 -18.6961 -18.6211 -18.5538 -18.1809
   -17.9135 -17.5897 -17.4502 -17.4316  -9.3723  -8.9614  -8.6395  -7.7921
    -7.2785  -7.1549  -7.1413  -6.7018  -6.6852  -6.5806  -6.5447  -6.5120
    -6.4200  -6.3853  -6.2462  -6.1971  -6.0194  -6.0066  -6.0046  -5.8705
    -5.5684  -5.5087  -5.4608  -5.3324  -5.2502  -5.2418  -5.2328  -5.0820
    -5.0008  -4.9593  -4.8898  -4.7424  -4.5483  -4.4979  -4.3788  -4.2881
    -4.2467  -4.1038  -4.0799  -3.8198  -3.7690  -3.7118  -3.6161  -3.5746
    -3.2792  -3.2414  -3.2021  -3.0184  -2.9684  -2.8757  -2.8045  -2.7939
    -2.6071  -2.4397  -2.3883  -2.2359  -2.1855  -2.0533  -1.9727   0.6039
     0.9451   0.9681   1.0436   1.2157   1.2966   1.3192   1.4511   1.5759
     1.5978   1.6350   1.6819   1.8403   1.9561   1.9805   2.0449   2.1301
     2.3439   2.3985   2.5410   2.5498   2.5510   2.5753   2.6666   2.7054
     2.7837   2.9095   3.0215   3.0346   3.0605   3.0897   3.1893   3.3227
     3.3703   3.4781   3.8280   3.8596   3.9538   3.9726   4.1721   4.3589
     4.3914   4.4176   4.5010   4.6099   4.6686   4.8718   5.0706   5.3936
     5.5271   5.8864   6.1119   6.5806   6.7199   6.8281   6.9886   7.1330
     7.5986   7.6913   7.8261   7.8338   7.9296   8.0988   8.3337   8.4370
     8.5787   8.6998   8.7163   8.8051   8.8446   8.8595   8.9438   9.0132
     9.0727   9.2616   9.2923   9.3777   9.4341   9.4892   9.5064   9.6224
     9.7613   9.9133  10.0067  10.0932  10.0944  10.1422  10.2804  10.4278
    10.5929  10.6793  10.7017  10.8111  10.8744  10.9182  11.0057  11.1090
    11.2795  11.3067  11.3291  11.4524  11.5216  11.5678  11.6184  11.6879
    11.7605  11.8598  11.8832  11.9765  12.0672  12.2353  12.2888  12.3461
    12.3683  12.4652  12.5723  12.8233  12.8508  12.8936  12.9007  12.9170
    13.0952  13.2251  13.2423  13.3083  13.3484  13.5356  13.5763  13.6180
    13.6654  13.7294  13.8160  13.8255  13.9861  14.1463  14.2291  14.2816
    14.2940  14.3696  14.4721  14.6327  14.7369  14.7697  14.8374  14.8615
    14.9221  15.1024  15.1470  15.2525  15.2988  15.3474  15.3725  15.4320
    15.4638  15.5107  15.5495  15.5749  15.5857  15.6619  15.7060  15.7325
    15.8027  15.8097  15.8415  16.0154  16.1494  16.1761  16.2526  16.2925
    16.3047  16.3145  16.3687  16.4960  16.6292  16.6940  16.7752  16.8453
    16.9865  17.0614  17.1050  17.2514  17.3194  17.4093  17.4913  17.5729
    17.6910  17.7557  17.7744  17.7924  17.8348  17.8946  17.9164  17.9587
    18.0362  18.1267  18.2672  18.3722  18.4867  18.5278  18.6272  18.7728
    18.8082  18.8409  18.9798  18.9943  19.1025  19.1281  19.2022

          k = 0.2500 0.0000 0.0000 ( 29937 PWs)   bands (ev):

   -61.3170 -61.2922 -61.0781 -60.8043 -59.9912 -59.9592 -59.6733 -59.6468
   -37.7075 -37.5219 -37.4945 -37.4375 -37.3937 -37.3804 -37.3707 -37.2386
   -37.1741 -37.0370 -36.9813 -36.8921 -36.4501 -36.2728 -36.2046 -36.1550
   -36.0482 -36.0192 -35.9663 -35.9556 -35.9469 -35.8659 -35.8034 -35.6506
   -24.5496 -21.2603 -21.0177 -20.2691 -19.6613 -19.5676 -19.1535 -18.9729
   -18.9589 -18.9519 -18.9268 -18.8306 -18.7031 -18.6464 -18.5480 -18.2086
   -17.8871 -17.5781 -17.5384 -17.4911  -9.3798  -8.9351  -8.7157  -7.7773
    -7.3118  -7.2701  -7.1539  -7.0609  -6.9580  -6.6134  -6.5574  -6.4994
    -6.4666  -6.3991  -6.3429  -6.3278  -6.2452  -6.0470  -6.0010  -5.9659
    -5.7625  -5.6716  -5.5354  -5.4258  -5.2962  -5.0129  -4.9565  -4.8481
    -4.7335  -4.6670  -4.6135  -4.3628  -4.3187  -4.2895  -4.2030  -4.1648
    -4.0975  -4.0457  -3.9756  -3.9342  -3.8653  -3.7117  -3.6594  -3.5247
    -3.4548  -3.3807  -3.2707  -3.1346  -2.8220  -2.7748  -2.7309  -2.6007
    -2.5787  -2.4119  -2.3060  -2.2578  -2.2054  -2.0374  -1.9818   0.6748
     0.7900   1.0003   1.0238   1.1617   1.2328   1.3112   1.3428   1.3600
     1.5952   1.6741   1.7268   1.7801   1.8856   1.9505   2.0246   2.0322
     2.2526   2.3137   2.3478   2.4051   2.4788   2.5393   2.7132   2.7651
     2.8881   2.9516   2.9818   2.9983   3.1250   3.2709   3.3011   3.4007
     3.4782   3.5254   3.5750   3.5892   3.7072   3.8805   3.8971   3.9689
     4.2020   4.2648   4.3828   4.5715   5.0415   5.1978   5.4950   5.8273
     6.0097   6.2069   6.5130   6.5367   6.7591   6.9953   7.0792   7.2216
     7.3126   7.3885   7.4697   7.5717   7.7655   7.9696   8.0341   8.1906
     8.3255   8.4640   8.5258   8.6605   8.7265   8.8519   8.9657   9.1080
     9.1739   9.2173   9.2979   9.3605   9.3943   9.4558   9.5862   9.6449
     9.7127   9.8027   9.8450   9.8969   9.9783  10.0828  10.2145  10.2907
    10.4573  10.4749  10.5689  10.7971  10.8557  10.9062  10.9280  11.0903
    11.1355  11.1761  11.2893  11.3459  11.4171  11.5319  11.6622  11.7537
    11.8533  11.9336  11.9690  12.0419  12.0975  12.2159  12.2625  12.2981
    12.4957  12.5674  12.6541  12.7045  12.8238  12.9092  13.0695  13.1018
    13.2288  13.2913  13.4076  13.4847  13.5110  13.6214  13.7062  13.7665
    13.8104  13.8713  13.8996  13.9889  14.0322  14.0588  14.1588  14.2922
    14.3767  14.4395  14.5569  14.5960  14.6686  14.7354  14.8473  14.9133
    15.0380  15.0596  15.1455  15.2044  15.2363  15.3598  15.3906  15.4439
    15.6036  15.6531  15.7234  15.7616  15.8722  15.9342  16.0207  16.1035
    16.1627  16.2389  16.3184  16.4292  16.4717  16.5588  16.5946  16.6910
    16.7645  16.8139  16.8868  16.9423  17.0178  17.0684  17.1533  17.2057
    17.4019  17.4132  17.4671  17.5164  17.6013  17.7163  17.7402  17.7651
    17.8453  17.8686  17.9711  18.0304  18.1218  18.1719  18.2286  18.3068
    18.3420  18.3889  18.5286  18.6353  18.6949  18.7161  18.7378  18.8325
    18.8557  18.9978  19.0789  19.1257  19.2413  19.2744  19.2807

          k = 0.2500 0.2258 0.0000 ( 29912 PWs)   bands (ev):

   -61.3172 -61.2922 -61.0781 -60.8043 -59.9912 -59.9590 -59.6735 -59.6468
   -37.7077 -37.5219 -37.4945 -37.4375 -37.3924 -37.3805 -37.3714 -37.2392
   -37.1734 -37.0370 -36.9809 -36.8924 -36.4491 -36.2744 -36.2052 -36.1548
   -36.0481 -36.0192 -35.9673 -35.9556 -35.9463 -35.8658 -35.8034 -35.6506
   -24.5495 -21.2544 -21.0169 -20.2585 -19.6107 -19.5110 -19.1613 -19.0662
   -18.9760 -18.9317 -18.8621 -18.8545 -18.7804 -18.6559 -18.6119 -18.1631
   -17.8873 -17.5911 -17.5286 -17.4872  -9.3762  -8.9335  -8.7094  -7.7829
    -7.2993  -7.1239  -7.0209  -6.9298  -6.8133  -6.5895  -6.5255  -6.4663
    -6.4241  -6.3851  -6.3533  -6.2722  -6.1757  -6.0648  -6.0371  -5.8475
    -5.7766  -5.6760  -5.5268  -5.4097  -5.3467  -5.0754  -4.9869  -4.8345
    -4.7462  -4.6803  -4.5974  -4.5029  -4.4544  -4.3994  -4.2802  -4.2365
    -4.2042  -4.1203  -4.0725  -4.0420  -3.9397  -3.7162  -3.6787  -3.6112
    -3.5445  -3.3534  -3.2363  -3.1464  -2.8562  -2.8176  -2.7452  -2.6445
    -2.5994  -2.4252  -2.3457  -2.2533  -2.2009  -2.0425  -1.9743   0.6903
     0.9850   1.0411   1.1273   1.1808   1.2357   1.3061   1.3864   1.5628
     1.6055   1.6369   1.7144   1.7579   1.8958   1.9379   1.9976   2.1379
     2.2102   2.3284   2.3578   2.4176   2.4491   2.5120   2.7048   2.8085
     2.8852   2.9403   2.9762   3.0015   3.1853   3.2453   3.2994   3.3384
     3.4622   3.5320   3.6133   3.6477   3.8479   3.9259   3.9803   4.1383
     4.2063   4.3334   4.4237   4.7049   5.1998   5.2438   5.5907   5.6312
     5.6947   6.0070   6.0983   6.2890   6.4238   6.6333   6.7319   7.0668
     7.1612   7.3444   7.5348   7.6202   7.7454   7.9900   8.0394   8.1186
     8.2444   8.3257   8.5125   8.5381   8.7381   8.7837   8.8794   9.0093
     9.1561   9.2090   9.2900   9.3919   9.5039   9.6437   9.7244   9.7736
     9.8626  10.0044  10.1376  10.2901  10.3345  10.4260  10.4860  10.5752
    10.6494  10.8210  10.8564  10.9607  11.0356  11.0944  11.2046  11.2900
    11.4003  11.4345  11.5037  11.5750  11.6457  11.7261  11.7817  11.9201
    11.9581  12.1064  12.1465  12.1817  12.2608  12.3092  12.3588  12.4495
    12.5131  12.5701  12.6362  12.6811  12.7981  12.9143  12.9714  13.0466
    13.0965  13.1417  13.2471  13.3417  13.4128  13.5264  13.6181  13.7552
    13.8410  13.9180  14.0050  14.0949  14.1294  14.1670  14.2261  14.2623
    14.3090  14.3732  14.5325  14.5804  14.6009  14.6556  14.7821  14.8219
    14.8646  15.0137  15.0912  15.1222  15.1865  15.2742  15.3461  15.3934
    15.4493  15.5328  15.6147  15.6424  15.6970  15.7694  15.8038  15.9290
    15.9965  16.0701  16.1331  16.1657  16.2207  16.3167  16.3866  16.4619
    16.5347  16.5898  16.6662  16.7108  16.8194  16.8428  16.8934  16.9840
    17.0484  17.1332  17.2117  17.2474  17.2911  17.3145  17.4376  17.4522
    17.5381  17.6208  17.6450  17.7918  17.8220  17.8863  17.9465  18.0519
    18.1273  18.1839  18.2761  18.3906  18.4222  18.4860  18.5946  18.6242
    18.6527  18.7261  18.8071  18.8559  18.9524  19.0506  19.0892

          k = 0.2500-0.4516 0.0000 ( 29882 PWs)   bands (ev):

   -61.3174 -61.2922 -61.0780 -60.8042 -59.9912 -59.9588 -59.6738 -59.6468
   -37.7080 -37.5219 -37.4945 -37.4375 -37.3911 -37.3805 -37.3722 -37.2398
   -37.1727 -37.0369 -36.9805 -36.8927 -36.4481 -36.2758 -36.2058 -36.1547
   -36.0481 -36.0192 -35.9683 -35.9557 -35.9457 -35.8658 -35.8034 -35.6507
   -24.5493 -21.2487 -21.0162 -20.2481 -19.5427 -19.4473 -19.1505 -19.1160
   -18.9895 -18.9431 -18.9253 -18.8811 -18.8146 -18.6777 -18.6204 -18.1313
   -17.8875 -17.6006 -17.5230 -17.4828  -9.3727  -8.9312  -8.7040  -7.7886
    -7.2978  -7.0923  -6.9519  -6.6317  -6.5682  -6.5183  -6.4052  -6.3933
    -6.3729  -6.3251  -6.2953  -6.2752  -6.2376  -6.2155  -6.0566  -5.7322
    -5.6252  -5.5976  -5.5106  -5.4653  -5.2755  -5.0200  -4.9861  -4.9504
    -4.9075  -4.8437  -4.7705  -4.7217  -4.6393  -4.5821  -4.4913  -4.3746
    -4.2289  -4.1850  -4.1108  -4.0700  -3.9578  -3.7431  -3.6895  -3.6143
    -3.5320  -3.3902  -3.1779  -3.0639  -2.8479  -2.7979  -2.7629  -2.7432
    -2.5759  -2.4489  -2.3944  -2.2710  -2.1878  -2.0398  -1.9746   0.6975
     0.9971   1.0377   1.0971   1.2415   1.3213   1.3758   1.4982   1.5585
     1.6113   1.6369   1.7040   1.7496   1.8962   1.9773   2.1395   2.2216
     2.3335   2.3788   2.4311   2.4635   2.4758   2.4825   2.6783   2.7131
     2.8222   2.9034   2.9508   3.0230   3.0386   3.1962   3.3433   3.3797
     3.3929   3.4624   3.5470   3.7824   3.9471   4.1065   4.1395   4.2719
     4.4128   4.4495   4.6101   4.7519   4.8478   5.1263   5.3340   5.4838
     5.6909   5.8355   5.9827   6.3061   6.5656   6.6709   6.7373   6.8796
     6.9628   7.0737   7.2229   7.3544   7.4818   7.6773   7.7986   7.9458
     8.0597   8.3292   8.3925   8.4522   8.6098   8.7244   8.9874   9.0797
     9.1131   9.2092   9.3035   9.4331   9.7506   9.8543  10.0261  10.0628
    10.1802  10.1861  10.3574  10.5254  10.7688  10.8574  10.9264  11.0272
    11.1172  11.1611  11.2069  11.2460  11.3158  11.3478  11.4492  11.4901
    11.6064  11.6394  11.7040  11.7432  11.8287  11.9128  11.9229  12.0583
    12.0792  12.1982  12.2415  12.2796  12.2950  12.4315  12.4590  12.5119
    12.5559  12.6715  12.7251  12.8288  12.8637  12.9374  12.9885  13.0655
    13.1258  13.2214  13.2587  13.3404  13.3901  13.5160  13.5614  13.6367
    13.6979  13.7422  13.7842  13.8218  13.9042  13.9510  13.9728  14.0353
    14.0858  14.1955  14.2796  14.3534  14.4268  14.5302  14.6085  14.7101
    14.7507  14.7712  14.8093  14.8615  14.9260  14.9880  15.0826  15.1575
    15.2617  15.2865  15.3366  15.4239  15.4934  15.5656  15.6240  15.6791
    15.7739  15.8557  15.8650  16.0412  16.0964  16.1745  16.3129  16.4152
    16.5248  16.5600  16.6266  16.6926  16.7492  16.8252  17.0035  17.0397
    17.0802  17.1702  17.2120  17.2908  17.3765  17.4304  17.4573  17.5002
    17.5248  17.6294  17.6999  17.7438  17.7750  17.8408  17.8752  17.9480
    17.9798  18.0697  18.1568  18.1893  18.2189  18.3449  18.4096  18.4731
    18.5285  18.6035  18.6470  18.6972  18.7525  18.8677  18.8911

          k =-0.5000 0.0000 0.0000 ( 29982 PWs)   bands (ev):

   -61.3066 -61.3056 -61.0789 -60.8061 -59.9856 -59.9678 -59.6614 -59.6612
   -37.6029 -37.5725 -37.4704 -37.4631 -37.4314 -37.3825 -37.3813 -37.1876
   -37.1695 -37.0345 -36.9850 -36.9444 -36.3081 -36.2960 -36.2480 -36.2284
   -36.0430 -36.0216 -35.9565 -35.9562 -35.8563 -35.8476 -35.7898 -35.7838
   -24.5495 -21.1436 -21.0848 -20.2820 -19.4932 -19.3104 -19.2819 -19.2576
   -19.0478 -18.8442 -18.8126 -18.7981 -18.7860 -18.6872 -18.6829 -17.9862
   -17.9663 -17.5984 -17.5781 -17.5768  -9.3804  -8.9004  -8.7960  -7.7762
    -7.3572  -7.0760  -7.0191  -6.9352  -6.7823  -6.7425  -6.6535  -6.6218
    -6.5907  -6.4291  -6.4242  -6.3807  -6.3247  -5.9784  -5.9212  -5.7354
    -5.7169  -5.5778  -5.5686  -5.2637  -5.0911  -5.0744  -4.9074  -4.8544
    -4.8237  -4.7408  -4.6725  -4.4389  -4.3903  -4.3042  -4.1640  -4.0586
    -3.9601  -3.9528  -3.8216  -3.8018  -3.7802  -3.7708  -3.6980  -3.6768
    -3.5810  -3.5726  -3.5158  -3.2639  -2.9119  -2.8870  -2.8376  -2.8077
    -2.4039  -2.3721  -2.2797  -2.2645  -2.1890  -2.1526  -2.0385   0.7128
     0.9034   1.0111   1.1893   1.2199   1.2468   1.3127   1.3303   1.3600
     1.4876   1.5482   1.6523   1.7545   1.8270   1.8541   1.9102   2.1158
     2.1337   2.2668   2.3021   2.3766   2.4142   2.7082   2.8219   2.9269
     2.9306   3.0416   3.1283   3.1519   3.2185   3.3776   3.3811   3.4530
     3.5126   3.5129   3.5991   3.6269   3.6297   3.7263   4.0824   4.1004
     4.2491   4.3925   4.4501   4.4577   4.7483   4.8341   5.2886   5.2959
     5.7833   5.9360   6.3841   6.6538   6.8837   6.9535   7.2579   7.2872
     7.4267   7.7194   7.7293   7.7729   7.8795   7.9977   8.0232   8.1372
     8.1593   8.2272   8.2433   8.3406   8.3942   8.5535   8.6620   8.7823
     8.8900   8.8921   9.0891   9.2649   9.3709   9.4668   9.6084   9.6268
     9.6866   9.8126   9.8844  10.0357  10.1316  10.2007  10.3557  10.4063
    10.4682  10.4955  10.6086  10.6900  10.8682  10.8799  10.9558  11.0995
    11.2121  11.2874  11.3661  11.6890  11.8076  11.8491  11.9294  11.9857
    12.0887  12.1308  12.2318  12.2727  12.3251  12.5012  12.5492  12.6656
    12.8255  12.8799  12.9999  13.0513  13.1130  13.1782  13.2348  13.2998
    13.3344  13.4291  13.5859  13.5955  13.6652  13.7168  13.8675  13.9166
    14.0478  14.1013  14.1822  14.2724  14.2910  14.4053  14.4280  14.5006
    14.5176  14.5369  14.6043  14.6910  14.9551  14.9762  15.0333  15.0791
    15.2565  15.4149  15.4743  15.4937  15.5705  15.6233  15.7285  15.7588
    15.8344  15.8957  15.9261  16.0374  16.1181  16.1271  16.1970  16.2539
    16.2828  16.3333  16.3944  16.4201  16.4690  16.5079  16.5578  16.6511
    16.6905  16.7059  16.7420  16.7794  16.7953  16.9398  16.9717  17.0124
    17.0641  17.1051  17.2187  17.2947  17.3146  17.4099  17.4214  17.6067
    17.6440  17.6723  17.7270  17.7650  17.8579  17.8952  18.1227  18.1704
    18.1891  18.2200  18.2788  18.3651  18.4552  18.4824  18.4890  18.5023
    18.5196  18.5421  18.5743  18.7000  18.7184  18.7679  18.8024

          k =-0.5000 0.2258 0.0000 ( 29954 PWs)   bands (ev):

   -61.3067 -61.3057 -61.0789 -60.8060 -59.9855 -59.9677 -59.6615 -59.6613
   -37.6030 -37.5726 -37.4704 -37.4631 -37.4314 -37.3822 -37.3810 -37.1880
   -37.1691 -37.0344 -36.9844 -36.9450 -36.3075 -36.2954 -36.2490 -36.2294
   -36.0430 -36.0216 -35.9565 -35.9564 -35.8563 -35.8476 -35.7899 -35.7838
   -24.5494 -21.1414 -21.0825 -20.2757 -19.4348 -19.2777 -19.2346 -19.2000
   -19.0745 -18.8841 -18.8581 -18.8477 -18.8021 -18.7322 -18.7207 -17.9815
   -17.9600 -17.6168 -17.5770 -17.5571  -9.3768  -8.8931  -8.7884  -7.7810
    -7.3609  -6.9896  -6.8286  -6.8056  -6.6821  -6.6393  -6.5974  -6.5740
    -6.4710  -6.4112  -6.3174  -6.2754  -6.2267  -5.9845  -5.9268  -5.7270
    -5.7111  -5.6161  -5.5476  -5.3696  -5.2361  -5.2168  -5.1494  -4.9932
    -4.8122  -4.6640  -4.5737  -4.4270  -4.3757  -4.3346  -4.2342  -4.2299
    -4.2091  -4.1532  -4.0740  -4.0518  -3.9271  -3.7880  -3.6905  -3.6644
    -3.5840  -3.5512  -3.5059  -3.2733  -2.8500  -2.8014  -2.7359  -2.7222
    -2.4218  -2.3838  -2.3579  -2.2997  -2.1818  -2.1207  -1.9989   0.7601
     0.9529   1.0207   1.1834   1.2698   1.2934   1.3265   1.4349   1.5240
     1.5315   1.6874   1.6911   1.7709   1.8233   1.8813   1.9455   2.1229
     2.1402   2.2851   2.3276   2.4210   2.4420   2.6741   2.7049   2.9157
     2.9259   3.0109   3.0290   3.0358   3.0483   3.3008   3.3131   3.4175
     3.4201   3.4922   3.6523   3.6787   3.8136   3.8382   4.1198   4.2099
     4.3203   4.5790   4.5983   4.6023   4.9366   5.0190   5.4510   5.4695
     5.9121   5.9722   6.2462   6.2992   6.3646   6.4802   6.7043   6.7845
     6.8325   7.0717   7.1501   7.3573   7.3793   7.4913   7.7946   7.9374
     8.0446   8.2994   8.3432   8.5530   8.7284   8.8018   8.9051   8.9312
     9.1764   9.2765   9.4014   9.5331   9.6621   9.7752   9.9437  10.0046
    10.0321  10.1180  10.1920  10.2263  10.2709  10.3959  10.5180  10.5492
    10.8079  10.8927  10.9362  11.0442  11.1289  11.2434  11.2684  11.4192
    11.4869  11.6228  11.7575  11.7885  11.8529  11.9627  12.1346  12.1989
    12.2171  12.3210  12.3674  12.4629  12.5783  12.6723  12.7975  12.8423
    12.9129  12.9837  13.0738  13.1632  13.2922  13.3337  13.4124  13.4445
    13.4938  13.5600  13.5840  13.6322  13.7413  13.7565  13.9146  13.9469
    13.9758  14.0324  14.1035  14.2039  14.2451  14.2831  14.2909  14.3604
    14.5221  14.5681  14.5974  14.6444  14.7277  14.8411  14.8909  14.9131
    14.9724  15.0264  15.0637  15.1134  15.1515  15.1708  15.2410  15.2691
    15.3501  15.4400  15.4683  15.5012  15.5520  15.6143  15.6435  15.7224
    15.7851  15.8002  15.8656  15.8873  15.9713  16.0829  16.1258  16.1966
    16.2709  16.3863  16.4089  16.4265  16.5477  16.5990  16.6344  16.7146
    16.8012  16.8414  16.9000  16.9545  17.0617  17.0927  17.1793  17.2663
    17.2936  17.3804  17.4214  17.4548  17.5543  17.6580  17.7802  17.8869
    17.9019  17.9292  18.0114  18.0996  18.2767  18.3562  18.4745  18.5579
    18.6022  18.6385  18.6764  18.6978  18.7295  18.7913  18.8407

          k =-0.5000-0.4516 0.0000 ( 29868 PWs)   bands (ev):

   -61.3069 -61.3058 -61.0788 -60.8059 -59.9854 -59.9676 -59.6617 -59.6615
   -37.6031 -37.5727 -37.4705 -37.4631 -37.4314 -37.3819 -37.3807 -37.1884
   -37.1686 -37.0343 -36.9839 -36.9456 -36.3069 -36.2948 -36.2500 -36.2304
   -36.0429 -36.0215 -35.9568 -35.9564 -35.8563 -35.8476 -35.7899 -35.7838
   -24.5493 -21.1393 -21.0803 -20.2693 -19.3381 -19.2361 -19.2250 -19.0860
   -19.0452 -19.0101 -18.9871 -18.8605 -18.8103 -18.7826 -18.7486 -17.9773
   -17.9543 -17.6271 -17.5760 -17.5454  -9.3730  -8.8857  -8.7807  -7.7857
    -7.3645  -6.9606  -6.7146  -6.7038  -6.5299  -6.4891  -6.4556  -6.4529
    -6.4200  -6.2920  -6.1416  -6.0700  -6.0351  -5.9429  -5.9032  -5.8251
    -5.7243  -5.6718  -5.5557  -5.5200  -5.4262  -5.3725  -5.2856  -5.0047
    -4.8354  -4.6573  -4.6502  -4.6454  -4.6080  -4.5802  -4.4460  -4.3776
    -4.3306  -4.2092  -4.1140  -4.1041  -3.9457  -3.9205  -3.7870  -3.6564
    -3.5355  -3.4988  -3.4594  -3.2129  -2.8229  -2.7553  -2.6392  -2.6322
    -2.4928  -2.4038  -2.3613  -2.3289  -2.1525  -2.1035  -1.9726   0.7870
     0.9684   1.1205   1.2405   1.2548   1.2908   1.3500   1.5034   1.5379
     1.6420   1.6599   1.8168   1.9039   1.9219   1.9479   1.9847   2.1123
     2.1345   2.2855   2.3515   2.4502   2.4538   2.5581   2.6577   2.7641
     2.7959   2.9439   2.9969   3.0023   3.0114   3.2320   3.2851   3.4640
     3.4655   3.5639   3.5865   3.6209   3.8861   3.9086   4.1930   4.3097
     4.3500   4.8888   4.8906   4.9902   5.3638   5.3764   5.5148   5.5175
     5.6019   5.6045   5.8579   5.8904   6.0272   6.1230   6.3636   6.4827
     6.5297   6.7981   6.9535   7.2143   7.2498   7.6133   7.6260   7.7987
     7.8932   8.0573   8.2188   8.3440   8.4315   8.7301   8.7406   8.8709
     9.1043   9.1942   9.4696   9.5167   9.7780   9.8058  10.0659  10.1582
    10.4408  10.4935  10.6679  10.7482  10.8002  10.8845  10.9628  11.2352
    11.4417  11.5800  11.6236  11.7747  11.8235  11.8469  11.8762  12.0332
    12.0702  12.1335  12.2143  12.2281  12.2567  12.4078  12.4803  12.4830
    12.5361  12.6140  12.6763  12.6921  12.7572  12.7770  12.8166  12.8310
    12.9660  12.9900  13.0409  13.0556  13.1027  13.1586  13.2232  13.2357
    13.4319  13.4718  13.4861  13.5757  13.6149  13.6310  13.6622  13.7307
    13.7549  13.8470  13.8741  13.9700  13.9854  14.0232  14.0626  14.1095
    14.1449  14.2300  14.2715  14.3097  14.3494  14.3936  14.4073  14.4371
    14.4872  14.5288  14.6314  14.6783  14.7210  14.7596  14.8239  14.9495
    14.9567  15.0227  15.0492  15.0944  15.1475  15.1848  15.2546  15.3078
    15.4895  15.5176  15.6255  15.7319  15.7994  15.8613  15.9264  15.9863
    16.0403  16.0652  16.1070  16.1599  16.2211  16.2443  16.4750  16.4940
    16.5270  16.7899  16.8395  16.8636  16.8837  16.9588  17.0174  17.0928
    17.2215  17.2312  17.2973  17.4129  17.4370  17.4627  17.5996  17.6070
    17.7917  17.9815  18.0269  18.0587  18.1220  18.1388  18.2419  18.2740
    18.3501  18.4648  18.5358  18.5642  18.8069  18.8103  18.9539

          k =-0.2500 0.2258 0.0000 ( 29912 PWs)   bands (ev):

   -61.3172 -61.2922 -61.0781 -60.8043 -59.9912 -59.9590 -59.6735 -59.6468
   -37.7077 -37.5219 -37.4945 -37.4375 -37.3924 -37.3805 -37.3714 -37.2392
   -37.1734 -37.0370 -36.9809 -36.8924 -36.4491 -36.2743 -36.2052 -36.1549
   -36.0481 -36.0192 -35.9673 -35.9556 -35.9463 -35.8658 -35.8034 -35.6506
   -24.5495 -21.2545 -21.0169 -20.2585 -19.6110 -19.5109 -19.1605 -19.0661
   -18.9724 -18.9322 -18.8677 -18.8550 -18.7805 -18.6538 -18.6115 -18.1631
   -17.8873 -17.5911 -17.5286 -17.4872  -9.3762  -8.9334  -8.7104  -7.7829
    -7.2974  -7.1160  -7.0221  -6.9337  -6.8137  -6.5977  -6.5242  -6.4695
    -6.4250  -6.3846  -6.3540  -6.2979  -6.1566  -6.0571  -6.0263  -5.8603
    -5.7705  -5.6698  -5.5191  -5.4118  -5.3301  -5.0707  -4.9799  -4.8434
    -4.7475  -4.7066  -4.6057  -4.5092  -4.4488  -4.3983  -4.2872  -4.2490
    -4.2054  -4.1347  -4.0946  -4.0050  -3.9219  -3.7137  -3.6776  -3.6365
    -3.5465  -3.3722  -3.2355  -3.0744  -2.8339  -2.8075  -2.7481  -2.6738
    -2.5859  -2.4399  -2.3479  -2.2723  -2.1942  -2.0388  -1.9854   0.6903
     0.9849   1.0417   1.1277   1.1837   1.2360   1.3058   1.3860   1.5621
     1.6055   1.6359   1.7129   1.7572   1.8954   1.9380   1.9970   2.1384
     2.2106   2.3256   2.3555   2.4215   2.4533   2.5087   2.7025   2.8068
     2.8817   2.9437   2.9798   3.0029   3.1851   3.2455   3.2998   3.3388
     3.4656   3.5301   3.6124   3.6476   3.8463   3.9265   3.9807   4.1383
     4.2074   4.3346   4.4242   4.7045   5.1988   5.2455   5.6002   5.6393
     5.6939   6.0116   6.0963   6.2864   6.4237   6.6330   6.7232   7.0495
     7.1571   7.3352   7.5379   7.6125   7.7429   7.9899   8.0449   8.1332
     8.2383   8.3403   8.4916   8.5247   8.7386   8.7904   8.8997   9.0064
     9.1504   9.2110   9.2825   9.3966   9.5148   9.6806   9.7192   9.7620
     9.8676   9.9924  10.1399  10.2919  10.3382  10.4047  10.4861  10.5977
    10.6321  10.8226  10.8465  10.9570  11.0374  11.1137  11.1921  11.2818
    11.3810  11.4292  11.4916  11.5900  11.6476  11.7376  11.7930  11.9105
    11.9831  12.1046  12.1485  12.2012  12.2515  12.2979  12.3557  12.4579
    12.5163  12.5705  12.6308  12.7146  12.7908  12.9578  12.9933  13.0342
    13.0920  13.1566  13.2267  13.3411  13.4423  13.5463  13.6122  13.7373
    13.8284  13.8877  13.9593  14.0526  14.1104  14.1762  14.2155  14.2833
    14.3367  14.3641  14.5282  14.5783  14.5965  14.6162  14.7520  14.8157
    14.8816  15.0383  15.0814  15.1372  15.1800  15.2858  15.3470  15.4134
    15.4909  15.5544  15.6024  15.6491  15.6748  15.7655  15.8215  15.9265
    16.0032  16.0792  16.1307  16.1712  16.2365  16.3094  16.3931  16.4558
    16.5141  16.5806  16.6178  16.7120  16.8139  16.8448  16.8852  16.9242
    17.0326  17.1030  17.1577  17.2491  17.2937  17.3173  17.4329  17.4665
    17.5339  17.5928  17.6636  17.8100  17.8717  17.9285  17.9734  18.0459
    18.1334  18.1791  18.2968  18.3711  18.4187  18.4882  18.5963  18.6164
    18.6594  18.7267  18.7961  18.8613  18.9639  19.0629  19.1015

     the Fermi energy is    -1.9681 ev

!    total energy              =   -1595.96680510 Ry
     Harris-Foulkes estimate   =   -1595.96680555 Ry
     estimated scf accuracy    <       0.00000050 Ry

     The total energy is the sum of the following terms:

     one-electron contribution =  -19192.93675107 Ry
     hartree contribution      =    9617.52672455 Ry
     xc contribution           =    -284.72506183 Ry
     ewald contribution        =    8260.18478952 Ry
     Hubbard energy            =       3.98532803 Ry
     smearing contrib. (-TS)   =      -0.00183429 Ry

     convergence has been achieved in  29 iterations

     Forces acting on atoms (Ry/au):


     negative rho (up, down):  0.109E+00 0.000E+00
     atom    1 type  1   force =    -0.00398187   -0.01391269   -0.02767403
     atom    2 type  1   force =    -0.00004322    0.01412728   -0.02135955
     atom    3 type  2   force =     0.04791128   -0.00412945   -0.02016168
     atom    4 type  2   force =     0.00337799    0.00919969   -0.00741823
     atom    5 type  1   force =    -0.00337278   -0.08935069   -0.00059959
     atom    6 type  1   force =    -0.00503511    0.08751314    0.00054581
     atom    7 type  1   force =     0.00006424   -0.00151150   -0.02148513
     atom    8 type  1   force =     0.00015135   -0.00076667    0.02181256
     atom    9 type  2   force =    -0.00091046   -0.00049256   -0.03831260
     atom   10 type  2   force =    -0.00001010   -0.00002347    0.05305220
     atom   11 type  1   force =    -0.02209508   -0.00999103   -0.00011658
     atom   12 type  1   force =    -0.01963482    0.01362833    0.00084300
     atom   13 type  1   force =    -0.00002879   -0.00161493    0.04535433
     atom   14 type  1   force =    -0.00556308   -0.01361100   -0.02676806
     atom   15 type  1   force =     0.00006068    0.01164358   -0.01972113
     atom   16 type  2   force =    -0.04774859   -0.00464408   -0.02017777
     atom   17 type  2   force =     0.00303042    0.00840707   -0.01153292
     atom   18 type  1   force =     0.00605900   -0.08943742   -0.00049123
     atom   19 type  1   force =     0.00537699    0.08787148    0.00060814
     atom   20 type  1   force =    -0.00009025   -0.00120713    0.04393521
     atom   21 type  1   force =     0.00014417   -0.00041812    0.02502347
     atom   22 type  2   force =     0.00092369   -0.00047964   -0.03830964
     atom   23 type  2   force =    -0.00003851   -0.00962372   -0.03131179
     atom   24 type  1   force =     0.02222686   -0.00992907   -0.00010279
     atom   25 type  1   force =     0.01952590    0.01352578    0.00083519
     atom   26 type  1   force =     0.00007025   -0.00446393    0.04484370
     atom   27 type  3   force =     0.00010265    0.00103255    0.00221161
     atom   28 type  3   force =     0.00000916    0.00157939    0.00361110
     atom   29 type  3   force =    -0.00045309   -0.00079708    0.00493867
     atom   30 type  3   force =    -0.00008823   -0.00075444    0.00431003
     atom   31 type  1   force =     0.00019817    0.01401290    0.03537229
     atom   32 type  1   force =    -0.00017462   -0.00632364   -0.00010310
     atom   33 type  3   force =     0.00003585    0.00094109   -0.00165149

     Total force =     0.138497     Total SCF correction =     0.002627


     entering subroutine stress ...


     negative rho (up, down):  0.109E+00 0.000E+00
          total   stress  (Ry/bohr**3)                   (kbar)     P=   30.94
   0.00036522   0.00000004   0.00000532         53.73      0.01      0.78
   0.00000004   0.00012830   0.00000494          0.01     18.87      0.73
   0.00000532   0.00000494   0.00013756          0.78      0.73     20.24


     BFGS Geometry Optimization

     number of scf cycles    =   1
     number of bfgs steps    =   0

     energy   new            =   -1595.9668050980 Ry

     new trust radius        =       0.0530522016 bohr
     new conv_thr            =       0.0000010000 Ry


ATOMIC_POSITIONS (crystal)
O0       0.000000000   0.000000000   0.377468961    0   0   1
O0       0.000000000   0.500000000   0.398874694    0   0   1
Ti1      0.250000000   0.500000000   0.450698545    0   0   1
Ti1      0.000000000   0.000000000   0.451682290    0   0   1
O0       0.250000000   0.810000000   0.449958061    0   0   1
O0       0.250000000   0.190000000   0.450900868    0   0   1
O0       0.000000000   0.500000000   0.497932193    0   0   1
O0       0.000000000   0.000000000   0.526144327    0   0   1
Ti1      0.250000000   0.000000000   0.579787128    0   0   1
Ti1      0.000000000   0.500000000   0.569016364    0   0   1
O0       0.250000000   0.690000000   0.578357679    0   0   1
O0       0.250000000   0.310000000   0.579426786    0   0   1
O0       0.000000000   0.000000000   0.622853085    0   0   1
O0       0.500000000   0.000000000   0.378237000    0   0   1
O0       0.500000000   0.500000000   0.398557317    0   0   1
Ti1      0.750000000   0.500000000   0.450708225    0   0   1
Ti1      0.500000000   0.000000000   0.452990359    0   0   1
O0       0.750000000   0.810000000   0.449900219    0   0   1
O0       0.750000000   0.190000000   0.450942109    0   0   1
O0       0.500000000   0.500000000   0.496604828    0   0   1
O0       0.500000000   0.000000000   0.526388262    0   0   1
Ti1      0.750000000   0.000000000   0.579787187    0   0   1
Ti1      0.500000000   0.500000000   0.584556527    0   0   1
O0       0.750000000   0.690000000   0.578347953    0   0   1
O0       0.750000000   0.310000000   0.579406630    0   0   1
O0       0.500000000   0.000000000   0.622512918    0   0   1
H2      -0.000450855   0.626113089   0.378874037
H2       0.499720816   0.625037093   0.378161903
H2       0.148959636   0.032975859   0.363708338
H2       0.648272140   0.034429291   0.364345820
O0       0.500327654   0.528087616   0.658494325
O0       0.499104443   0.349621137   0.688047947
H2       0.500363194   0.413325729   0.721797116


     Check: negative starting charge=   -0.102033
     NEW-OLD atomic charge density approx. for the potential

     Check: negative/imaginary core charge=   -0.000006    0.000000
     Check: negative starting charge=   -0.102038

     negative rho (up, down):  0.109E+00 0.000E+00
 Atomic wfc used for LDA+U Projector are NOT orthogonalized

     total cpu time spent up to now is     6066.6 secs

     per-process dynamical memory:   385.8 Mb

     Self-consistent Calculation

     iteration #  1     ecut=    40.00 Ry     beta=0.70
     Davidson diagonalization with overlap
     ethr =  1.00E-06,  avg # of iterations =  5.0
 --- enter write_ns ---
 LDA+U parameters:
U( 2)     =  8.00000000
alpha( 2) =  0.00000000
atom    3   Tr[ns(na)] =   2.51778
    eigenvalues: 
  0.113  0.122  0.139  0.424  0.462
    eigenvectors:
  0.595  0.181  0.042  0.148  0.034
  0.002  0.000  0.001  0.255  0.741
  0.222  0.287  0.491  0.000  0.000
  0.138  0.036  0.007  0.596  0.223
  0.043  0.496  0.459  0.000  0.002
    occupations:
  0.174  0.005 -0.004  0.122  0.001
  0.005  0.451  0.001 -0.021  0.014
 -0.004  0.001  0.128  0.007 -0.009
  0.122 -0.021  0.007  0.376 -0.001
  0.001  0.014 -0.009 -0.001  0.130
atom    4   Tr[ns(na)] =   2.61483
    eigenvalues: 
  0.112  0.140  0.151  0.441  0.464
    eigenvectors:
  0.007  0.002  0.000  0.000  0.991
  0.001  0.761  0.235  0.000  0.002
  0.001  0.234  0.765  0.000  0.000
  0.991  0.003  0.000  0.000  0.006
  0.000  0.000  0.000  1.000  0.000
    occupations:
  0.461  0.015  0.005 -0.028 -0.000
  0.015  0.143 -0.005 -0.000 -0.003
  0.005 -0.005  0.148  0.001 -0.000
 -0.028 -0.000  0.001  0.115 -0.000
 -0.000 -0.003 -0.000 -0.000  0.441
atom    9   Tr[ns(na)] =   2.62516
    eigenvalues: 
  0.117  0.158  0.168  0.391  0.479
    eigenvectors:
  0.000  0.001  0.912  0.087  0.000
  0.000  0.000  0.000  0.000  1.000
  1.000  0.000  0.000  0.000  0.000
  0.000  0.000  0.086  0.913  0.000
  0.000  0.999  0.001  0.000  0.000
    occupations:
  0.187  0.001  0.001  0.063  0.000
  0.001  0.478 -0.000 -0.001  0.000
  0.001 -0.000  0.117  0.002  0.000
  0.063 -0.001  0.002  0.372 -0.000
  0.000  0.000  0.000 -0.000  0.158
atom   10   Tr[ns(na)] =   2.53465
    eigenvalues: 
  0.119  0.156  0.173  0.337  0.483
    eigenvectors:
  0.019  0.000  0.000  0.981  0.000
  0.000  0.000  1.000  0.000  0.000
  0.000  1.000  0.000  0.000  0.000
  0.981  0.000  0.000  0.019  0.000
  0.000  0.000  0.000  0.000  1.000
    occupations:
  0.333 -0.000 -0.001 -0.030 -0.000
 -0.000  0.174 -0.000  0.000  0.003
 -0.001 -0.000  0.156 -0.000 -0.000
 -0.030  0.000 -0.000  0.123 -0.000
 -0.000  0.003 -0.000 -0.000  0.483
atom   16   Tr[ns(na)] =   2.51795
    eigenvalues: 
  0.113  0.122  0.139  0.424  0.462
    eigenvectors:
  0.600  0.176  0.042  0.148  0.034
  0.002  0.000  0.001  0.255  0.742
  0.218  0.290  0.492  0.000  0.000
  0.140  0.035  0.007  0.596  0.222
  0.041  0.499  0.458  0.001  0.001
    occupations:
  0.174 -0.005 -0.004  0.122 -0.001
 -0.005  0.451 -0.001  0.021  0.014
 -0.004 -0.001  0.128  0.007  0.009
  0.122  0.021  0.007  0.376  0.001
 -0.001  0.014  0.009  0.001  0.130
atom   17   Tr[ns(na)] =   2.61425
    eigenvalues: 
  0.111  0.142  0.153  0.436  0.466
    eigenvectors:
  0.007  0.002  0.000  0.000  0.991
  0.001  0.788  0.209  0.000  0.002
  0.001  0.209  0.791  0.000  0.000
  0.992  0.002  0.000  0.000  0.006
  0.000  0.000  0.000  1.000  0.000
    occupations:
  0.463  0.014  0.005 -0.028 -0.000
  0.014  0.145 -0.004 -0.000 -0.003
  0.005 -0.004  0.150  0.000 -0.000
 -0.028 -0.000  0.000  0.113 -0.000
 -0.000 -0.003 -0.000 -0.000  0.436
atom   22   Tr[ns(na)] =   2.62529
    eigenvalues: 
  0.117  0.158  0.168  0.391  0.479
    eigenvectors:
  0.000  0.001  0.912  0.087  0.000
  0.000  0.000  0.000  0.000  1.000
  1.000  0.000  0.000  0.000  0.000
  0.000  0.000  0.086  0.913  0.000
  0.000  0.999  0.001  0.000  0.000
    occupations:
  0.187 -0.001  0.001  0.063 -0.000
 -0.001  0.478  0.000  0.001  0.000
  0.001  0.000  0.117  0.002 -0.000
  0.063  0.001  0.002  0.372  0.000
 -0.000  0.000 -0.000  0.000  0.158
atom   23   Tr[ns(na)] =   2.52430
    eigenvalues: 
  0.107  0.120  0.171  0.385  0.479
    eigenvectors:
  0.001  0.009  0.000  0.991  0.000
  0.000  0.000  1.000  0.000  0.000
  0.984  0.016  0.000  0.000  0.000
  0.016  0.975  0.000  0.009  0.000
  0.000  0.000  0.000  0.000  1.000
    occupations:
  0.382 -0.000  0.003 -0.025 -0.000
 -0.000  0.171 -0.000 -0.000 -0.000
  0.003 -0.000  0.108  0.001  0.000
 -0.025 -0.000  0.001  0.123  0.000
 -0.000 -0.000  0.000  0.000  0.479
N of occupied +U levels =  20.5742023
 --- exit write_ns ---

     negative rho (up, down):  0.109E+00 0.000E+00

     total cpu time spent up to now is     6405.4 secs

     total energy              =   -1595.75974126 Ry
     Harris-Foulkes estimate   =   -1595.98709294 Ry
     estimated scf accuracy    <       0.26369030 Ry

     iteration #  2     ecut=    40.00 Ry     beta=0.70
     Davidson diagonalization with overlap
     ethr =  1.19E-04,  avg # of iterations =  5.1

     negative rho (up, down):  0.119E+00 0.000E+00

     total cpu time spent up to now is     6631.6 secs

     total energy              =   -1593.27029574 Ry
     Harris-Foulkes estimate   =   -1597.77872359 Ry
     estimated scf accuracy    <      65.18484753 Ry

     iteration #  3     ecut=    40.00 Ry     beta=0.70
     Davidson diagonalization with overlap
     ethr =  1.19E-04,  avg # of iterations =  5.9

     negative rho (up, down):  0.110E+00 0.000E+00

     total cpu time spent up to now is     6861.2 secs

     total energy              =   -1595.93764953 Ry
     Harris-Foulkes estimate   =   -1596.16464951 Ry
     estimated scf accuracy    <       0.98590560 Ry

     iteration #  4     ecut=    40.00 Ry     beta=0.70
     Davidson diagonalization with overlap
     ethr =  1.19E-04,  avg # of iterations =  5.0

     negative rho (up, down):  0.109E+00 0.000E+00

     total cpu time spent up to now is     7054.5 secs

     total energy              =   -1595.98344398 Ry
     Harris-Foulkes estimate   =   -1596.01996774 Ry
     estimated scf accuracy    <       0.25829134 Ry

     iteration #  5     ecut=    40.00 Ry     beta=0.70
     Davidson diagonalization with overlap
     ethr =  1.17E-04,  avg # of iterations =  1.0

     negative rho (up, down):  0.109E+00 0.000E+00

     total cpu time spent up to now is     7218.9 secs

     total energy              =   -1595.98634094 Ry
     Harris-Foulkes estimate   =   -1595.99967741 Ry
     estimated scf accuracy    <       0.26570770 Ry

     iteration #  6     ecut=    40.00 Ry     beta=0.70
     Davidson diagonalization with overlap
     ethr =  1.17E-04,  avg # of iterations =  1.0

     negative rho (up, down):  0.109E+00 0.000E+00

     total cpu time spent up to now is     7377.0 secs

     total energy              =   -1595.98307269 Ry
     Harris-Foulkes estimate   =   -1595.99182502 Ry
     estimated scf accuracy    <       0.19107657 Ry

     iteration #  7     ecut=    40.00 Ry     beta=0.70
     Davidson diagonalization with overlap
     ethr =  8.65E-05,  avg # of iterations =  1.0

     negative rho (up, down):  0.109E+00 0.000E+00

     total cpu time spent up to now is     7533.0 secs

     total energy              =   -1595.97795315 Ry
     Harris-Foulkes estimate   =   -1595.98649059 Ry
     estimated scf accuracy    <       0.11210308 Ry

     iteration #  8     ecut=    40.00 Ry     beta=0.70
     Davidson diagonalization with overlap
     ethr =  5.07E-05,  avg # of iterations =  2.2

     negative rho (up, down):  0.109E+00 0.000E+00

     total cpu time spent up to now is     7700.0 secs

     total energy              =   -1595.98006795 Ry
     Harris-Foulkes estimate   =   -1595.98069936 Ry
     estimated scf accuracy    <       0.00462701 Ry

     iteration #  9     ecut=    40.00 Ry     beta=0.70
     Davidson diagonalization with overlap
     ethr =  2.09E-06,  avg # of iterations =  7.6

     negative rho (up, down):  0.109E+00 0.000E+00

     total cpu time spent up to now is     7885.9 secs

     total energy              =   -1595.97998739 Ry
     Harris-Foulkes estimate   =   -1595.98068661 Ry
     estimated scf accuracy    <       0.01418354 Ry

     iteration # 10     ecut=    40.00 Ry     beta=0.70
     Davidson diagonalization with overlap
     ethr =  2.09E-06,  avg # of iterations =  1.0

     negative rho (up, down):  0.109E+00 0.000E+00

     total cpu time spent up to now is     8047.4 secs

     total energy              =   -1595.98031383 Ry
     Harris-Foulkes estimate   =   -1595.98070424 Ry
     estimated scf accuracy    <       0.01524360 Ry

     iteration # 11     ecut=    40.00 Ry     beta=0.70
     Davidson diagonalization with overlap
     ethr =  2.09E-06,  avg # of iterations =  1.0

     negative rho (up, down):  0.109E+00 0.000E+00

     total cpu time spent up to now is     8211.7 secs

     total energy              =   -1595.98036748 Ry
     Harris-Foulkes estimate   =   -1595.98047944 Ry
     estimated scf accuracy    <       0.00055728 Ry

[...]
   -24.9278 -21.3007 -21.2993 -20.1967 -19.6051 -19.3822 -19.3702 -19.3387
   -19.2881 -19.2636 -19.2325 -19.0658 -19.0245 -18.8290 -18.8236 -17.9680
   -17.9458 -17.6537 -17.5273 -17.4157  -9.6041  -8.9647  -8.9254  -7.9626
    -7.3554  -7.0501  -6.8943  -6.8293  -6.7598  -6.7410  -6.6413  -6.6118
    -6.5888  -6.3956  -6.3738  -6.2834  -6.2507  -6.1283  -6.0796  -5.8945
    -5.8428  -5.7517  -5.6748  -5.6072  -5.5540  -5.5251  -5.4415  -5.1014
    -4.9667  -4.8442  -4.8345  -4.8099  -4.7641  -4.7279  -4.6189  -4.5131
    -4.4594  -4.2830  -4.2217  -4.2078  -4.0784  -4.0323  -4.0075  -3.7056
    -3.6354  -3.5790  -3.5372  -3.3819  -2.8783  -2.8392  -2.6708  -2.6388
    -2.4684  -2.3618  -2.3349  -2.2921  -2.1874  -2.1702  -1.9826   0.4391
     0.6932   0.8725   0.9037   0.9528   0.9693   0.9823   1.1442   1.1873
     1.3413   1.4398   1.4477   1.5680   1.5863   1.6950   1.8535   1.8654
     1.9161   1.9242   2.1467   2.2863   2.3052   2.3754   2.3823   2.4967
     2.4992   2.6503   2.6544   2.7255   2.7774   3.0086   3.0287   3.1700
     3.1831   3.2667   3.2701   3.3694   3.5909   3.6091   3.9244   3.9443
     4.1043   4.8756   4.8862   5.2212   5.4110   5.4457   5.5722   5.6204
     5.6866   5.7136   5.8715   5.9505   6.0720   6.2250   6.4132   6.4584
     6.5666   6.8733   7.0137   7.1231   7.2964   7.6022   7.6750   7.7528
     7.8999   8.0431   8.0950   8.1632   8.3443   8.6967   8.7699   8.9587
     9.1497   9.2126   9.3938   9.3967   9.7526   9.8233   9.9668  10.0562
    10.3516  10.4238  10.6063  10.6381  10.7325  10.8017  10.8197  11.2536
    11.3651  11.4977  11.6750  11.7595  11.7753  11.8331  11.8805  11.9300
    12.0124  12.0597  12.0713  12.1115  12.3565  12.4310  12.4378  12.5032
    12.5259  12.5643  12.5913  12.6251  12.6658  12.6771  12.7283  12.8159
    12.8734  12.9516  12.9768  13.0252  13.0624  13.1078  13.1643  13.2328
    13.2968  13.3083  13.3870  13.4684  13.5735  13.6115  13.6293  13.6793
    13.7124  13.7707  13.8029  13.8341  13.8949  14.0604  14.0882  14.1210
    14.1650  14.1731  14.2291  14.3076  14.3552  14.3955  14.4248  14.4363
    14.4917  14.5327  14.5699  14.6372  14.7074  14.7209  14.7819  14.9012
    14.9490  15.0208  15.0523  15.0794  15.1558  15.2213  15.2575  15.2909
    15.4398  15.5571  15.6082  15.6362  15.7163  15.8454  15.8526  15.9116
    15.9343  16.0051  16.0422  16.0980  16.1693  16.2696  16.3365  16.3687
    16.4262  16.5372  16.6094  16.6718  16.7753  16.9055  16.9951  17.0716
    17.1557  17.1998  17.2658  17.3446  17.4903  17.5243  17.5921  17.6430
    17.8207  17.8814  17.9341  18.0000  18.0480  18.1133  18.2045  18.2255
    18.3294  18.3435  18.4415  18.5195  18.7024  19.0022  19.0828

          k =-0.2500 0.2258 0.0000 ( 29912 PWs)   bands (ev):

   -61.6637 -61.6398 -61.4395 -61.0513 -60.3028 -60.2726 -59.8637 -59.8382
   -38.0277 -37.8336 -37.8051 -37.7671 -37.7334 -37.7244 -37.7040 -37.5907
   -37.5190 -37.2370 -37.2136 -37.1810 -36.7527 -36.5827 -36.5158 -36.4593
   -36.3152 -36.2911 -36.1763 -36.1553 -36.0939 -36.0009 -35.9436 -35.8172
   -24.9280 -21.4275 -21.2103 -20.2239 -19.7831 -19.7282 -19.4028 -19.3519
   -19.1804 -19.1069 -19.0089 -19.0046 -18.9728 -18.8239 -18.7191 -18.1309
   -17.8939 -17.6465 -17.4702 -17.3531  -9.6032  -9.0416  -8.8434  -7.9647
    -7.3059  -7.2032  -7.1271  -7.0865  -6.9779  -6.8309  -6.7888  -6.7207
    -6.6773  -6.5830  -6.5065  -6.3504  -6.2920  -6.2629  -6.1348  -6.0581
    -5.9653  -5.7416  -5.6753  -5.4181  -5.3342  -5.1199  -5.0738  -4.9308
    -4.9075  -4.8314  -4.8032  -4.6934  -4.6273  -4.5846  -4.4753  -4.4084
    -4.3763  -4.2817  -4.2281  -4.1059  -4.0352  -3.9480  -3.8538  -3.6914
    -3.6334  -3.5191  -3.3648  -3.0912  -2.9592  -2.7852  -2.7244  -2.6699
    -2.6119  -2.4366  -2.3223  -2.2732  -2.2169  -2.1082  -2.0162   0.3643
     0.6996   0.7459   0.7865   0.8663   0.9152   0.9764   1.0168   1.2491
     1.2695   1.3726   1.4428   1.4715   1.5984   1.6608   1.8167   1.8685
     1.9411   2.0148   2.1084   2.1717   2.2465   2.2741   2.3556   2.5852
     2.6476   2.7173   2.7272   2.8060   2.9673   3.0475   3.1151   3.1595
     3.2009   3.2696   3.3040   3.3993   3.6964   3.7239   3.8281   3.8618
     3.9511   4.0306   4.2472   4.7418   5.2452   5.2945   5.6149   5.6655
     5.8021   6.0469   6.1517   6.3332   6.4401   6.6503   6.7806   7.0439
     7.1835   7.3662   7.4880   7.5839   7.7972   7.9998   8.0667   8.0890
     8.2116   8.2642   8.4411   8.4848   8.6185   8.7434   8.8600   8.9633
     9.0617   9.2253   9.3306   9.4851   9.5362   9.5921   9.7425   9.7698
     9.8802   9.9737  10.0591  10.2475  10.2989  10.4246  10.4873  10.5649
    10.6794  10.8010  10.8804  10.9292  11.0185  11.0735  11.1426  11.2222
    11.3321  11.4333  11.4955  11.5431  11.6139  11.7110  11.7541  11.8440
    11.9256  11.9738  12.0457  12.1003  12.2079  12.2459  12.3335  12.3906
    12.4996  12.5273  12.6180  12.7000  12.7915  12.8692  12.9648  12.9982
    13.0459  13.0847  13.1707  13.2754  13.4256  13.5434  13.5914  13.6869
    13.7120  13.7836  13.8939  13.9248  14.0261  14.0551  14.1432  14.1666
    14.2322  14.3029  14.3467  14.4385  14.5032  14.5561  14.5798  14.7092
    14.7796  14.8573  14.8841  14.9723  15.1062  15.2221  15.2604  15.3111
    15.4398  15.5022  15.5804  15.6299  15.6388  15.7209  15.7628  15.8555
    15.9231  16.0092  16.0173  16.1043  16.2266  16.2771  16.3242  16.4054
    16.4776  16.5725  16.6349  16.7145  16.7684  16.8666  16.9005  16.9288
    16.9946  17.0608  17.1360  17.1725  17.2982  17.3330  17.4347  17.4715
    17.5756  17.5955  17.6661  17.7427  17.7949  17.9152  17.9718  18.0448
    18.0805  18.1939  18.2954  18.3918  18.4274  18.5304  18.5778  18.6552
    18.7109  18.7645  18.8344  18.9076  18.9811  19.0561  19.1259

     the Fermi energy is    -2.0067 ev

!    total energy              =   -1596.00016240 Ry
     Harris-Foulkes estimate   =   -1596.00016241 Ry
     estimated scf accuracy    <       0.00000001 Ry

     The total energy is the sum of the following terms:

     one-electron contribution =  -19067.60200515 Ry
     hartree contribution      =    9553.29152233 Ry
     xc contribution           =    -284.38469247 Ry
     ewald contribution        =    8198.78174593 Ry
     Hubbard energy            =       3.91408054 Ry
     smearing contrib. (-TS)   =      -0.00081358 Ry

     convergence has been achieved in  14 iterations

     Forces acting on atoms (Ry/au):


     negative rho (up, down):  0.109E+00 0.000E+00
     atom    1 type  1   force =    -0.00393834   -0.01444468    0.00066805
     atom    2 type  1   force =     0.00008840    0.01388582   -0.00180861
     atom    3 type  2   force =     0.03173100   -0.00533551   -0.00062747
     atom    4 type  2   force =     0.00311791    0.00912478    0.00013838
     atom    5 type  1   force =    -0.00000415   -0.09157352    0.00031415
     atom    6 type  1   force =    -0.00310380    0.08902460    0.00081410
     atom    7 type  1   force =     0.00127693   -0.00140128    0.00002997
     atom    8 type  1   force =     0.00072658    0.00083471    0.00074599
     atom    9 type  2   force =    -0.00875704    0.00042129   -0.00122667
     atom   10 type  2   force =     0.00395140    0.00235848    0.00168616
     atom   11 type  1   force =    -0.02383475   -0.01324513    0.00047861
     atom   12 type  1   force =    -0.02067740    0.01510020   -0.00007316
     atom   13 type  1   force =    -0.00223833   -0.00072984   -0.00221826
     atom   14 type  1   force =    -0.00454450   -0.01476071    0.00041285
     atom   15 type  1   force =     0.00045875    0.01525963   -0.00096850
     atom   16 type  2   force =    -0.03178222   -0.00473674   -0.00074949
     atom   17 type  2   force =     0.00314866    0.00919022    0.00075513
     atom   18 type  1   force =     0.00386204   -0.09165286    0.00022987
     atom   19 type  1   force =     0.00133436    0.08871873    0.00025615
     atom   20 type  1   force =    -0.00130218   -0.00100832   -0.00098630
     atom   21 type  1   force =    -0.00028124    0.00062943    0.00061867
     atom   22 type  2   force =     0.00842265   -0.00156000   -0.00061099
     atom   23 type  2   force =    -0.00129301    0.00607082   -0.00090441
     atom   24 type  1   force =     0.02291221   -0.00779357    0.00273807
     atom   25 type  1   force =     0.02151007    0.00176392   -0.00105748
     atom   26 type  1   force =     0.00227530   -0.00223627   -0.00057241
     atom   27 type  3   force =    -0.00010091    0.00197800    0.00095721
     atom   28 type  3   force =    -0.00008690    0.00116542    0.00076213
     atom   29 type  3   force =    -0.00016760   -0.00129470   -0.00091558
     atom   30 type  3   force =     0.00005722   -0.00133564   -0.00071901
     atom   31 type  1   force =    -0.00001172    0.00079986    0.00003354
     atom   32 type  1   force =    -0.00420626   -0.00204728   -0.00217878
     atom   33 type  3   force =     0.00145687   -0.00116987    0.00397813

     Total force =     0.009329     Total SCF correction =     0.000440


     entering subroutine stress ...


     negative rho (up, down):  0.109E+00 0.000E+00
          total   stress  (Ry/bohr**3)                   (kbar)     P=   19.54
   0.00032178  -0.00000135   0.00000200         47.34     -0.20      0.29
  -0.00000135   0.00010867   0.00000067         -0.20     15.99      0.10
   0.00000200   0.00000067  -0.00003187          0.29      0.10     -4.69


     number of scf cycles    =  47
     number of bfgs steps    =  45

     energy   old            =   -1596.0000844413 Ry
     energy   new            =   -1596.0001623983 Ry

     CASE: energy  _new < energy  _old

     new trust radius        =       0.0504606552 bohr
     new conv_thr            =       0.0000000100 Ry


ATOMIC_POSITIONS (crystal)
O0       0.000000000   0.000000000   0.376038346    0   0   1
O0       0.000000000   0.500000000   0.397961392    0   0   1
Ti1      0.250000000   0.500000000   0.450661622    0   0   1
Ti1      0.000000000   0.000000000   0.450535188    0   0   1
O0       0.250000000   0.810000000   0.449768552    0   0   1
O0       0.250000000   0.190000000   0.450804765    0   0   1
O0       0.000000000   0.500000000   0.498548788    0   0   1
O0       0.000000000   0.000000000   0.527880676    0   0   1
Ti1      0.250000000   0.000000000   0.581554330    0   0   1
Ti1      0.000000000   0.500000000   0.571452036    0   0   1
O0       0.250000000   0.690000000   0.580375208    0   0   1
O0       0.250000000   0.310000000   0.581392683    0   0   1
O0       0.000000000   0.000000000   0.625839847    0   0   1
O0       0.500000000   0.000000000   0.376528840    0   0   1
O0       0.500000000   0.500000000   0.397991897    0   0   1
Ti1      0.750000000   0.500000000   0.450686750    0   0   1
Ti1      0.500000000   0.000000000   0.451363245    0   0   1
O0       0.750000000   0.810000000   0.449765516    0   0   1
O0       0.750000000   0.190000000   0.450939955    0   0   1
O0       0.500000000   0.500000000   0.498935234    0   0   1
O0       0.500000000   0.000000000   0.528195031    0   0   1
Ti1      0.750000000   0.000000000   0.581476179    0   0   1
Ti1      0.500000000   0.500000000   0.580166477    0   0   1
O0       0.750000000   0.690000000   0.579027066    0   0   1
O0       0.750000000   0.310000000   0.580428556    0   0   1
O0       0.500000000   0.000000000   0.626528714    0   0   1
H2       0.000169499   0.628658969   0.378400214
H2       0.500293167   0.630250980   0.379006156
H2       0.152099124   0.034488151   0.363614955
H2       0.651487426   0.035325070   0.363905847
O0       0.547246006   0.521062629   0.657043331
O0       0.399761946   0.392376702   0.683245750
H2       0.481353451   0.374913862   0.715406855


     Check: negative starting charge=   -0.101799
     NEW-OLD atomic charge density approx. for the potential

     Check: negative/imaginary core charge=   -0.000006    0.000000
     Check: negative starting charge=   -0.101845

     negative rho (up, down):  0.109E+00 0.000E+00
 Atomic wfc used for LDA+U Projector are NOT orthogonalized

     total cpu time spent up to now is   171538.4 secs

     per-process dynamical memory:   385.8 Mb

     Self-consistent Calculation

     iteration #  1     ecut=    40.00 Ry     beta=0.70
     Davidson diagonalization with overlap
     ethr =  1.00E-06,  avg # of iterations =  3.0
 --- enter write_ns ---
 LDA+U parameters:
U( 2)     =  8.00000000
alpha( 2) =  0.00000000
atom    3   Tr[ns(na)] =   2.48801
    eigenvalues: 
  0.107  0.121  0.132  0.433  0.451
    eigenvectors:
  0.725  0.022  0.056  0.149  0.047
  0.000  0.002  0.000  0.255  0.742
  0.090  0.143  0.767  0.000  0.000
  0.183  0.005  0.010  0.595  0.208
  0.002  0.829  0.167  0.001  0.002
    occupations:
  0.174 -0.001 -0.003  0.130  0.000
 -0.001  0.446  0.001 -0.008  0.015
 -0.003  0.001  0.128  0.008 -0.004
  0.130 -0.008  0.008  0.373 -0.001
  0.000  0.015 -0.004 -0.001  0.124
atom    4   Tr[ns(na)] =   2.59834
    eigenvalues: 
  0.113  0.134  0.147  0.443  0.462
    eigenvectors:
  0.007  0.002  0.000  0.000  0.990
  0.004  0.769  0.225  0.000  0.003
  0.002  0.223  0.775  0.000  0.000
  0.987  0.006  0.000  0.000  0.007
  0.000  0.000  0.000  1.000  0.000
    occupations:
  0.458  0.017  0.006 -0.029 -0.000
  0.017  0.138 -0.005 -0.000 -0.003
  0.006 -0.005  0.145  0.001 -0.000
 -0.029 -0.000  0.001  0.115 -0.000
 -0.000 -0.003 -0.000 -0.000  0.443
atom    9   Tr[ns(na)] =   2.58183
    eigenvalues: 
  0.112  0.151  0.157  0.387  0.484
    eigenvectors:
  0.000  0.000  0.882  0.117  0.000
  0.000  0.000  0.000  0.001  0.999
  0.989  0.010  0.000  0.000  0.000
  0.000  0.000  0.117  0.882  0.001
  0.010  0.989  0.000  0.000  0.000
    occupations:
  0.184 -0.002  0.001  0.074 -0.000
 -0.002  0.484  0.001  0.004 -0.000
  0.001  0.001  0.113  0.001  0.004
  0.074  0.004  0.001  0.360  0.000
 -0.000 -0.000  0.004  0.000  0.150
atom   10   Tr[ns(na)] =   2.51762
    eigenvalues: 
  0.123  0.147  0.173  0.320  0.496
    eigenvectors:
  0.022  0.000  0.000  0.978  0.000
  0.000  0.001  0.999  0.000  0.000
  0.000  0.999  0.001  0.000  0.000
  0.977  0.000  0.000  0.022  0.000
  0.000  0.000  0.000  0.000  1.000
    occupations:
  0.316 -0.001 -0.002 -0.029  0.001
 -0.001  0.173 -0.001  0.000  0.003
 -0.002 -0.001  0.148 -0.000 -0.003
 -0.029  0.000 -0.000  0.127 -0.000
  0.001  0.003 -0.003 -0.000  0.496
atom   16   Tr[ns(na)] =   2.48760
    eigenvalues: 
  0.107  0.121  0.132  0.433  0.451
    eigenvectors:
  0.726  0.022  0.055  0.151  0.046
  0.000  0.002  0.000  0.248  0.750
  0.089  0.146  0.764  0.000  0.000
  0.183  0.004  0.010  0.600  0.203
  0.002  0.825  0.171  0.001  0.002
    occupations:
  0.174  0.001 -0.003  0.130 -0.001
  0.001  0.446 -0.000  0.008  0.015
 -0.003 -0.000  0.128  0.008  0.004
  0.130  0.008  0.008  0.372  0.000
 -0.001  0.015  0.004  0.000  0.124
atom   17   Tr[ns(na)] =   2.59512
    eigenvalues: 
  0.113  0.134  0.147  0.442  0.462
    eigenvectors:
  0.007  0.002  0.000  0.000  0.990
  0.003  0.729  0.265  0.000  0.003
  0.002  0.263  0.735  0.000  0.000
  0.988  0.005  0.000  0.000  0.007
  0.000  0.000  0.000  1.000  0.000
    occupations:
  0.458  0.016  0.006 -0.029 -0.000
  0.016  0.138 -0.005 -0.000 -0.003
  0.006 -0.005  0.143  0.001 -0.000
 -0.029 -0.000  0.001  0.115 -0.000
 -0.000 -0.003 -0.000 -0.000  0.442
atom   22   Tr[ns(na)] =   2.58401
    eigenvalues: 
  0.113  0.152  0.156  0.385  0.485
    eigenvectors:
  0.000  0.000  0.882  0.117  0.000
  0.000  0.000  0.000  0.001  0.999
  0.989  0.011  0.000  0.000  0.000
  0.000  0.000  0.117  0.882  0.001
  0.011  0.989  0.000  0.000  0.000
    occupations:
  0.183  0.002  0.001  0.074 -0.000
  0.002  0.485 -0.001 -0.004  0.000
  0.001 -0.001  0.114  0.001 -0.004
  0.074 -0.004  0.001  0.358 -0.000
 -0.000  0.000 -0.004 -0.000  0.152
atom   23   Tr[ns(na)] =   2.53459
    eigenvalues: 
  0.114  0.124  0.147  0.394  0.488
    eigenvectors:
  0.001  0.014  0.002  0.982  0.000
  0.061  0.031  0.902  0.006  0.000
  0.937  0.000  0.062  0.000  0.000
  0.001  0.954  0.033  0.012  0.000
  0.000  0.000  0.000  0.000  1.000
    occupations:
  0.390 -0.019 -0.005 -0.029 -0.001
 -0.019  0.146 -0.008 -0.002  0.004
 -0.005 -0.008  0.116  0.002  0.003
 -0.029 -0.002  0.002  0.128  0.000
 -0.001  0.004  0.003  0.000  0.488
N of occupied +U levels =  20.3871252
 --- exit write_ns ---

     negative rho (up, down):  0.109E+00 0.000E+00

     total cpu time spent up to now is   171754.4 secs

     total energy              =   -1596.00011599 Ry
     Harris-Foulkes estimate   =   -1596.00026174 Ry
     estimated scf accuracy    <       0.00043507 Ry

     iteration #  2     ecut=    40.00 Ry     beta=0.70
     Davidson diagonalization with overlap
     ethr =  1.97E-07,  avg # of iterations =  2.9

     negative rho (up, down):  0.109E+00 0.000E+00

     total cpu time spent up to now is   171924.9 secs

     total energy              =   -1595.99955752 Ry
     Harris-Foulkes estimate   =   -1596.00055129 Ry
     estimated scf accuracy    <       0.00622922 Ry

     iteration #  3     ecut=    40.00 Ry     beta=0.70
     Davidson diagonalization with overlap
     ethr =  1.97E-07,  avg # of iterations =  3.5

     negative rho (up, down):  0.109E+00 0.000E+00

     total cpu time spent up to now is   172097.4 secs

     total energy              =   -1595.99839530 Ry
     Harris-Foulkes estimate   =   -1596.00183556 Ry
     estimated scf accuracy    <       0.12336302 Ry

     iteration #  4     ecut=    40.00 Ry     beta=0.70
     Davidson diagonalization with overlap
     ethr =  1.97E-07,  avg # of iterations =  3.1

     negative rho (up, down):  0.109E+00 0.000E+00

     total cpu time spent up to now is   172272.2 secs

     total energy              =   -1596.00011085 Ry
     Harris-Foulkes estimate   =   -1596.00032462 Ry
     estimated scf accuracy    <       0.00198580 Ry

     iteration #  5     ecut=    40.00 Ry     beta=0.70
     Davidson diagonalization with overlap
     ethr =  1.97E-07,  avg # of iterations =  1.8

     negative rho (up, down):  0.109E+00 0.000E+00

     total cpu time spent up to now is   172439.7 secs

     total energy              =   -1596.00018323 Ry
     Harris-Foulkes estimate   =   -1596.00030451 Ry
     estimated scf accuracy    <       0.00066948 Ry

     iteration #  6     ecut=    40.00 Ry     beta=0.70
     Davidson diagonalization with overlap
     ethr =  1.97E-07,  avg # of iterations =  1.4

     negative rho (up, down):  0.109E+00 0.000E+00

     total cpu time spent up to now is   172605.8 secs

     total energy              =   -1596.00022436 Ry
     Harris-Foulkes estimate   =   -1596.00026614 Ry
     estimated scf accuracy    <       0.00022716 Ry

     iteration #  7     ecut=    40.00 Ry     beta=0.70
     Davidson diagonalization with overlap
     ethr =  1.03E-07,  avg # of iterations =  1.0

     negative rho (up, down):  0.109E+00 0.000E+00

     total cpu time spent up to now is   172772.0 secs

     total energy              =   -1596.00024371 Ry
     Harris-Foulkes estimate   =   -1596.00024689 Ry
     estimated scf accuracy    <       0.00002619 Ry

     iteration #  8     ecut=    40.00 Ry     beta=0.70
     Davidson diagonalization with overlap
=>> PBS: job killed: walltime 172810 exceeded limit 172800
mpirun: killing job...

---------------------------------------
Running PBS batch system epilogue script
Job id: 373340.audhumbla.fysik.dtu.dk
Username: zhonxu
Groupname: campgst
Jobname: TiO2/Eads-2-layers/OOH-U-8.0
Sessionid: 3548
Resources limits: neednodes=2:ppn=8:xeon8,nodes=2:ppn=8:xeon8,walltime=48:00:00
Resources used: cput=765:31:28,mem=15651548kb,vmem=19253024kb,walltime=48:00:11
Queuename: verylong
Accounting:
This job has allocated the following 16 nodes:
d052 d052 d052 d052 d052 d052 d052 d052 d026 d026 d026 d026 d026 d026 d026 d026
Finished epilogue job 373340.audhumbla.fysik.dtu.dk for zhonxu
