
     Program PWSCF v.5.0.2 (svn rev. 9656) starts on 26Apr2014 at 21:32:15 

     This program is part of the open-source Quantum ESPRESSO suite
     for quantum simulation of materials; please cite
         "P. Giannozzi et al., J. Phys.:Condens. Matter 21 395502 (2009);
          URL http://www.quantum-espresso.org", 
     in publications or presentations arising from this work. More details at
     http://www.quantum-espresso.org/quote.php

     Parallel version (MPI), running on    16 processors
     K-points division:     npool     =       4
     R & G space division:  proc/nbgrp/npool/nimage =       4

     Current dimensions of program PWSCF are:
     Max number of different atomic species (ntypx) = 10
     Max number of k-points (npk) =  40000
     Max angular momentum in pseudopotentials (lmaxx) =  3
     Reading input from pwscf.in
Warning: card &CELL ignored
Warning: card / ignored

     Subspace diagonalization in iterative solution of the eigenvalue problem:
     a serial algorithm will be used


     Parallelization info
     --------------------
     sticks:   dense  smooth     PW     G-vecs:    dense   smooth      PW
     Min        1419     456    126               336167    60843    9016
     Max        1420     457    127               336172    60875    9024
     Sum        5677    1827    505              1344679   243423   36075



     bravais-lattice index     =            0
     lattice parameter (alat)  =      11.7919  a.u.
     unit-cell volume          =    7123.6633 (a.u.)^3
     number of atoms/cell      =           31
     number of atomic types    =            3
     number of electrons       =       246.00
     number of Kohn-Sham states=          357
     kinetic-energy cutoff     =      40.0000  Ry
     charge density cutoff     =     500.0000  Ry
     convergence threshold     =      1.0E-06
     mixing beta               =       0.7000
     number of iterations used =            8  plain     mixing
     Exchange-correlation      = SLA  PW   PBE  PBE ( 1 4 3 4 0)
     EXX-fraction              =        0.00
     nstep                     =           50


     celldm(1)=  11.791891  celldm(2)=   0.000000  celldm(3)=   0.000000
     celldm(4)=   0.000000  celldm(5)=   0.000000  celldm(6)=   0.000000

     crystal axes: (cart. coord. in units of alat)
               a(1) = (   1.000000   0.000000   0.000000 )  
               a(2) = (   0.000000   1.026665   0.000000 )  
               a(3) = (   0.000000   0.000000   4.231793 )  

     reciprocal axes: (cart. coord. in units 2 pi/alat)
               b(1) = (  1.000000  0.000000  0.000000 )  
               b(2) = (  0.000000  0.974028  0.000000 )  
               b(3) = (  0.000000  0.000000  0.236306 )  


     PseudoPot. # 1 for O  read from file:
     /home/camp/zhonxu/pseudo/o_pbe_v1.01.uspp.F.UPF
     MD5 check sum: 2bcb18d16ea4b960afae9ec6d52f22d2
     Pseudo is Ultrasoft + core correction, Zval =  6.0
     Generated by new atomic code, or converted to UPF format
     Using radial grid of  737 points,  5 beta functions with: 
                l(1) =   0
                l(2) =   0
                l(3) =   1
                l(4) =   1
                l(5) =   2
     Q(r) pseudized with  8 coefficients,  rinner =    0.900   0.900   0.900
                                                       0.900   0.900

     PseudoPot. # 2 for Ru read from file:
     /home/camp/zhonxu/pseudo/ru_pbe_v1.uspp.F.UPF
     MD5 check sum: df00be1c11b23341d9806d8f1dfa10cf
     Pseudo is Ultrasoft + core correction, Zval = 16.0
     Generated by new atomic code, or converted to UPF format
     Using radial grid of  967 points,  6 beta functions with: 
                l(1) =   0
                l(2) =   0
                l(3) =   1
                l(4) =   1
                l(5) =   2
                l(6) =   2
     Q(r) pseudized with  8 coefficients,  rinner =    1.300   1.300   1.300
                                                       1.300   1.300

     PseudoPot. # 3 for H  read from file:
     /home/camp/zhonxu/pseudo/h_pbe_v1.uspp.F.UPF
     MD5 check sum: 3408e3ff4ec8b0a4e358431e7e038a48
     Pseudo is Ultrasoft, Zval =  1.0
     Generated by new atomic code, or converted to UPF format
     Using radial grid of  615 points,  2 beta functions with: 
                l(1) =   0
                l(2) =   0
     Q(r) pseudized with  8 coefficients,  rinner =    0.700

     atomic species   valence    mass     pseudopotential
        O0             6.00    15.99940     O ( 1.00)
        Ru1           16.00   101.07000     Ru( 1.00)
        H2             1.00     1.00794     H ( 1.00)


     Simplified LDA+U calculation (l_max = 2) with parameters (eV):
     atomic species    L          U    alpha       J0     beta
        Ru1            2     4.0000   0.0000   0.0000   0.0000



     No symmetry found



   Cartesian axes

     site n.     atom                  positions (alat units)
         1           O0  tau(   1) = (   0.0000000   0.0000000   1.6006333  )
         2           O0  tau(   2) = (   0.0000000   0.5133323   1.7090519  )
         3           Ru1 tau(   3) = (   0.2500000   0.5133323   1.9249579  )
         4           Ru1 tau(   4) = (   0.0000000   0.0000000   1.9138706  )
         5           O0  tau(   5) = (   0.2500000   0.8315984   1.9151825  )
         6           O0  tau(   6) = (   0.2500000   0.1950663   1.9148016  )
         7           O0  tau(   7) = (   0.0000000   0.5133323   2.1086177  )
         8           O0  tau(   8) = (   0.0000000   0.0000000   2.2256691  )
         9           Ru1 tau(   9) = (   0.2500000   0.0000000   2.4381898  )
        10           Ru1 tau(  10) = (   0.0000000   0.5133323   2.4080594  )
        11           O0  tau(  11) = (   0.2500000   0.7083986   2.4344235  )
        12           O0  tau(  12) = (   0.2500000   0.3182660   2.4336618  )
        13           O0  tau(  13) = (   0.0000000   0.0000000   2.6157981  )
        14           O0  tau(  14) = (   0.5000000   0.0000000   1.6005064  )
        15           O0  tau(  15) = (   0.5000000   0.5133323   1.7116333  )
        16           Ru1 tau(  16) = (   0.7500000   0.5133323   1.9249156  )
        17           Ru1 tau(  17) = (   0.5000000   0.0000000   1.9130666  )
        18           O0  tau(  18) = (   0.7500000   0.8315984   1.9150979  )
        19           O0  tau(  19) = (   0.7500000   0.1950663   1.9148440  )
        20           O0  tau(  20) = (   0.5000000   0.5133323   2.1279570  )
        21           O0  tau(  21) = (   0.5000000   0.0000000   2.2254152  )
        22           Ru1 tau(  22) = (   0.7500000   0.0000000   2.4382321  )
        23           Ru1 tau(  23) = (   0.5000000   0.5133323   2.4678123  )
        24           O0  tau(  24) = (   0.7500000   0.7083986   2.4345927  )
        25           O0  tau(  25) = (   0.7500000   0.3182660   2.4334925  )
        26           O0  tau(  26) = (   0.5000000   0.0000000   2.6078847  )
        27           H2  tau(  27) = (  -0.0002600   0.6438727   1.6192532  )
        28           H2  tau(  28) = (   0.4995800   0.6393041   1.6156985  )
        29           H2  tau(  29) = (   0.1450800   0.0331921   1.5470588  )
        30           H2  tau(  30) = (   0.6459600   0.0301326   1.5471435  )
        31           O0  tau(  31) = (   0.5000500   0.5106527   2.7413977  )

     number of k points=    10  Methfessel-Paxton smearing, width (Ry)=  0.0100
                       cart. coord. in units 2pi/alat
        k(    1) = (   0.0000000   0.0000000   0.0000000), wk =   0.1250000
        k(    2) = (   0.0000000   0.2435070   0.0000000), wk =   0.2500000
        k(    3) = (   0.0000000  -0.4870139   0.0000000), wk =   0.1250000
        k(    4) = (   0.2500000   0.0000000   0.0000000), wk =   0.2500000
        k(    5) = (   0.2500000   0.2435070   0.0000000), wk =   0.2500000
        k(    6) = (   0.2500000  -0.4870139   0.0000000), wk =   0.2500000
        k(    7) = (  -0.5000000   0.0000000   0.0000000), wk =   0.1250000
        k(    8) = (  -0.5000000   0.2435070   0.0000000), wk =   0.2500000
        k(    9) = (  -0.5000000  -0.4870139   0.0000000), wk =   0.1250000
        k(   10) = (  -0.2500000   0.2435070   0.0000000), wk =   0.2500000

     Dense  grid:  1344679 G-vectors     FFT dimensions: (  90,  90, 360)

     Smooth grid:   243423 G-vectors     FFT dimensions: (  48,  50, 216)

     Largest allocated arrays     est. size (Mb)     dimensions
        Kohn-Sham Wavefunctions        41.57 Mb     (   7632,  357)
        Atomic wavefunctions           21.43 Mb     (   7632,  184)
        NL pseudopotentials            46.47 Mb     (   7632,  399)
        Each V/rho on FFT grid         11.12 Mb     ( 729000)
        Each G-vector array             2.56 Mb     ( 336169)
        G-vector shells                 1.12 Mb     ( 146910)
     Largest temporary arrays     est. size (Mb)     dimensions
        Auxiliary wavefunctions       166.30 Mb     (   7632, 1428)
        Each subspace H/S matrix       31.12 Mb     (1428,1428)
        Each <psi_i|beta_j> matrix      2.17 Mb     (    399,  357)
        Arrays for rho mixing          88.99 Mb     ( 729000,   8)

     Check: negative/imaginary core charge=   -0.000003    0.000000

     Initial potential from superposition of free atoms
     Check: negative starting charge=   -0.520948

     starting charge  237.99981, renormalised to  246.00000

     negative rho (up, down):  0.538E+00 0.000E+00
     Number of +U iterations with fixed ns =  0
     Starting occupations:
 --- enter write_ns ---
 LDA+U parameters:
U( 2)     =  4.00000000
alpha( 2) =  0.00000000
atom    3   Tr[ns(na)] =   6.00000
    eigenvalues: 
  0.600  0.600  0.600  0.600  0.600
    eigenvectors:
  1.000  0.000  0.000  0.000  0.000
  0.000  1.000  0.000  0.000  0.000
  0.000  0.000  1.000  0.000  0.000
  0.000  0.000  0.000  1.000  0.000
  0.000  0.000  0.000  0.000  1.000
    occupations:
  0.600  0.000  0.000  0.000  0.000
  0.000  0.600  0.000  0.000  0.000
  0.000  0.000  0.600  0.000  0.000
  0.000  0.000  0.000  0.600  0.000
  0.000  0.000  0.000  0.000  0.600
atom    4   Tr[ns(na)] =   6.00000
    eigenvalues: 
  0.600  0.600  0.600  0.600  0.600
    eigenvectors:
  1.000  0.000  0.000  0.000  0.000
  0.000  1.000  0.000  0.000  0.000
  0.000  0.000  1.000  0.000  0.000
  0.000  0.000  0.000  1.000  0.000
  0.000  0.000  0.000  0.000  1.000
    occupations:
  0.600  0.000  0.000  0.000  0.000
  0.000  0.600  0.000  0.000  0.000
  0.000  0.000  0.600  0.000  0.000
  0.000  0.000  0.000  0.600  0.000
  0.000  0.000  0.000  0.000  0.600
atom    9   Tr[ns(na)] =   6.00000
    eigenvalues: 
  0.600  0.600  0.600  0.600  0.600
    eigenvectors:
  1.000  0.000  0.000  0.000  0.000
  0.000  1.000  0.000  0.000  0.000
  0.000  0.000  1.000  0.000  0.000
  0.000  0.000  0.000  1.000  0.000
  0.000  0.000  0.000  0.000  1.000
    occupations:
  0.600  0.000  0.000  0.000  0.000
  0.000  0.600  0.000  0.000  0.000
  0.000  0.000  0.600  0.000  0.000
  0.000  0.000  0.000  0.600  0.000
  0.000  0.000  0.000  0.000  0.600
atom   10   Tr[ns(na)] =   6.00000
    eigenvalues: 
  0.600  0.600  0.600  0.600  0.600
    eigenvectors:
  1.000  0.000  0.000  0.000  0.000
  0.000  1.000  0.000  0.000  0.000
  0.000  0.000  1.000  0.000  0.000
  0.000  0.000  0.000  1.000  0.000
  0.000  0.000  0.000  0.000  1.000
    occupations:
  0.600  0.000  0.000  0.000  0.000
  0.000  0.600  0.000  0.000  0.000
  0.000  0.000  0.600  0.000  0.000
  0.000  0.000  0.000  0.600  0.000
  0.000  0.000  0.000  0.000  0.600
atom   16   Tr[ns(na)] =   6.00000
    eigenvalues: 
  0.600  0.600  0.600  0.600  0.600
    eigenvectors:
  1.000  0.000  0.000  0.000  0.000
  0.000  1.000  0.000  0.000  0.000
  0.000  0.000  1.000  0.000  0.000
  0.000  0.000  0.000  1.000  0.000
  0.000  0.000  0.000  0.000  1.000
    occupations:
  0.600  0.000  0.000  0.000  0.000
  0.000  0.600  0.000  0.000  0.000
  0.000  0.000  0.600  0.000  0.000
  0.000  0.000  0.000  0.600  0.000
  0.000  0.000  0.000  0.000  0.600
atom   17   Tr[ns(na)] =   6.00000
    eigenvalues: 
  0.600  0.600  0.600  0.600  0.600
    eigenvectors:
  1.000  0.000  0.000  0.000  0.000
  0.000  1.000  0.000  0.000  0.000
  0.000  0.000  1.000  0.000  0.000
  0.000  0.000  0.000  1.000  0.000
  0.000  0.000  0.000  0.000  1.000
    occupations:
  0.600  0.000  0.000  0.000  0.000
  0.000  0.600  0.000  0.000  0.000
  0.000  0.000  0.600  0.000  0.000
  0.000  0.000  0.000  0.600  0.000
  0.000  0.000  0.000  0.000  0.600
atom   22   Tr[ns(na)] =   6.00000
    eigenvalues: 
  0.600  0.600  0.600  0.600  0.600
    eigenvectors:
  1.000  0.000  0.000  0.000  0.000
  0.000  1.000  0.000  0.000  0.000
  0.000  0.000  1.000  0.000  0.000
  0.000  0.000  0.000  1.000  0.000
  0.000  0.000  0.000  0.000  1.000
    occupations:
  0.600  0.000  0.000  0.000  0.000
  0.000  0.600  0.000  0.000  0.000
  0.000  0.000  0.600  0.000  0.000
  0.000  0.000  0.000  0.600  0.000
  0.000  0.000  0.000  0.000  0.600
atom   23   Tr[ns(na)] =   6.00000
    eigenvalues: 
  0.600  0.600  0.600  0.600  0.600
    eigenvectors:
  1.000  0.000  0.000  0.000  0.000
  0.000  1.000  0.000  0.000  0.000
  0.000  0.000  1.000  0.000  0.000
  0.000  0.000  0.000  1.000  0.000
  0.000  0.000  0.000  0.000  1.000
    occupations:
  0.600  0.000  0.000  0.000  0.000
  0.000  0.600  0.000  0.000  0.000
  0.000  0.000  0.600  0.000  0.000
  0.000  0.000  0.000  0.600  0.000
  0.000  0.000  0.000  0.000  0.600
N of occupied +U levels =  48.0000000
 --- exit write_ns ---
 Atomic wfc used for LDA+U Projector are NOT orthogonalized
     Starting wfc are  184 randomized atomic wfcs

     total cpu time spent up to now is      111.1 secs

     per-process dynamical memory:   399.8 Mb

     Self-consistent Calculation

     iteration #  1     ecut=    40.00 Ry     beta=0.70
     Davidson diagonalization with overlap
     ethr =  1.00E-02,  avg # of iterations =  6.0
 --- enter write_ns ---
 LDA+U parameters:
U( 2)     =  4.00000000
alpha( 2) =  0.00000000
atom    3   Tr[ns(na)] =   4.47023
    eigenvalues: 
  0.388  0.411  0.422  0.454  0.561
    eigenvectors:
  0.074  0.080  0.137  0.416  0.293
  0.399  0.540  0.056  0.005  0.000
  0.023  0.007  0.000  0.336  0.634
  0.129  0.000  0.793  0.030  0.048
  0.375  0.372  0.014  0.213  0.025
    occupations:
  0.472 -0.006  0.050 -0.017  0.029
 -0.006  0.403  0.002  0.008  0.007
  0.050  0.002  0.520 -0.023  0.006
 -0.017  0.008 -0.023  0.425 -0.015
  0.029  0.007  0.006 -0.015  0.415
atom    4   Tr[ns(na)] =   3.71418
    eigenvalues: 
  0.305  0.320  0.366  0.412  0.455
    eigenvectors:
  0.002  0.007  0.007  0.000  0.983
  0.092  0.869  0.032  0.000  0.007
  0.905  0.093  0.001  0.000  0.001
  0.000  0.031  0.960  0.000  0.010
  0.000  0.000  0.000  1.000  0.000
    occupations:
  0.453  0.012  0.004  0.009  0.000
  0.012  0.321 -0.004 -0.007 -0.001
  0.004 -0.004  0.306  0.002  0.001
  0.009 -0.007  0.002  0.365  0.000
  0.000 -0.001  0.001  0.000  0.412
atom    9   Tr[ns(na)] =   7.51459
    eigenvalues: 
  0.433  0.457  0.944  0.959  0.964
    eigenvectors:
  0.004  0.129  0.000  0.866  0.001
  0.985  0.015  0.000  0.000  0.000
  0.000  0.000  0.011  0.001  0.988
  0.011  0.857  0.000  0.132  0.000
  0.000  0.000  0.989  0.000  0.011
    occupations:
  0.893 -0.010  0.000 -0.170  0.000
 -0.010  0.433  0.000  0.001 -0.000
  0.000  0.000  0.964  0.001  0.002
 -0.170  0.001  0.001  0.523 -0.000
  0.000 -0.000  0.002 -0.000  0.944
atom   10   Tr[ns(na)] =   7.87259
    eigenvalues: 
  0.432  0.627  0.947  0.963  0.967
    eigenvectors:
  0.000  0.979  0.000  0.021  0.000
  0.000  0.000  0.000  0.000  1.000
  0.000  0.000  0.999  0.001  0.000
  0.000  0.021  0.001  0.978  0.000
  1.000  0.000  0.000  0.000  0.000
    occupations:
  0.635 -0.000  0.001  0.049  0.000
 -0.000  0.967 -0.000 -0.000  0.001
  0.001 -0.000  0.947  0.000 -0.000
  0.049 -0.000  0.000  0.956  0.000
  0.000  0.001 -0.000  0.000  0.432
atom   16   Tr[ns(na)] =   4.46854
    eigenvalues: 
  0.388  0.411  0.421  0.451  0.563
    eigenvectors:
  0.071  0.074  0.128  0.437  0.289
  0.409  0.524  0.060  0.007  0.000
  0.015  0.002  0.001  0.357  0.626
  0.126  0.000  0.798  0.028  0.048
  0.380  0.400  0.013  0.171  0.037
    occupations:
  0.472  0.006  0.050 -0.017 -0.030
  0.006  0.403 -0.002 -0.008  0.007
  0.050 -0.002  0.520 -0.023 -0.011
 -0.017 -0.008 -0.023  0.425  0.015
 -0.030  0.007 -0.011  0.015  0.415
atom   17   Tr[ns(na)] =   3.63179
    eigenvalues: 
  0.299  0.318  0.337  0.407  0.455
    eigenvectors:
  0.001  0.008  0.000  0.000  0.991
  0.035  0.769  0.188  0.000  0.007
  0.960  0.021  0.018  0.000  0.000
  0.003  0.201  0.794  0.000  0.002
  0.000  0.000  0.000  1.000  0.000
    occupations:
  0.453  0.012  0.004  0.006  0.000
  0.012  0.322 -0.004 -0.007 -0.001
  0.004 -0.004  0.300  0.003  0.001
  0.006 -0.007  0.003  0.333 -0.000
  0.000 -0.001  0.001 -0.000  0.407
atom   22   Tr[ns(na)] =   7.51434
    eigenvalues: 
  0.433  0.457  0.944  0.959  0.964
    eigenvectors:
  0.003  0.129  0.000  0.867  0.001
  0.986  0.013  0.000  0.000  0.000
  0.000  0.000  0.012  0.001  0.988
  0.010  0.858  0.000  0.132  0.000
  0.000  0.000  0.988  0.000  0.011
    occupations:
  0.893  0.009  0.000 -0.170  0.000
  0.009  0.433 -0.001 -0.000 -0.000
  0.000 -0.001  0.964  0.001 -0.002
 -0.170 -0.000  0.001  0.523 -0.000
  0.000 -0.000 -0.002 -0.000  0.944
atom   23   Tr[ns(na)] =   7.40165
    eigenvalues: 
  0.411  0.508  0.899  0.928  0.955
    eigenvectors:
  0.000  0.991  0.000  0.000  0.009
  0.000  0.000  0.000  1.000  0.000
  0.000  0.000  0.999  0.000  0.001
  0.000  0.009  0.001  0.000  0.990
  1.000  0.000  0.000  0.000  0.000
    occupations:
  0.512  0.000 -0.005  0.042 -0.000
  0.000  0.928  0.000  0.000 -0.000
 -0.005  0.000  0.899 -0.001 -0.000
  0.042  0.000 -0.001  0.951  0.000
 -0.000 -0.000 -0.000  0.000  0.411
N of occupied +U levels =  46.5879130
 --- exit write_ns ---

     negative rho (up, down):  0.625E+00 0.000E+00

     total cpu time spent up to now is      494.4 secs

     total energy              =   -2115.34504640 Ry
     Harris-Foulkes estimate   =   -2164.86865565 Ry
     estimated scf accuracy    <      57.09114204 Ry

     iteration #  2     ecut=    40.00 Ry     beta=0.70
     Davidson diagonalization with overlap
     ethr =  1.00E-02,  avg # of iterations =  6.1

     negative rho (up, down):  0.607E+00 0.000E+00

     total cpu time spent up to now is      872.4 secs

     total energy              =   -1914.27968622 Ry
     Harris-Foulkes estimate   =   -2558.14222410 Ry
     estimated scf accuracy    <    6500.17280592 Ry

     iteration #  3     ecut=    40.00 Ry     beta=0.70
     Davidson diagonalization with overlap
     ethr =  1.00E-02,  avg # of iterations =  6.0

     negative rho (up, down):  0.571E+00 0.000E+00

     total cpu time spent up to now is     1290.0 secs

     total energy              =   -2142.95103874 Ry
     Harris-Foulkes estimate   =   -2200.32017021 Ry
     estimated scf accuracy    <     255.80863145 Ry

     iteration #  4     ecut=    40.00 Ry     beta=0.70
     Davidson diagonalization with overlap
     ethr =  1.00E-02,  avg # of iterations =  4.9

     negative rho (up, down):  0.555E+00 0.000E+00

     total cpu time spent up to now is     1526.4 secs

     total energy              =   -2156.15686707 Ry
     Harris-Foulkes estimate   =   -2167.61559168 Ry
     estimated scf accuracy    <      51.56026577 Ry

     iteration #  5     ecut=    40.00 Ry     beta=0.70
     Davidson diagonalization with overlap
     ethr =  1.00E-02,  avg # of iterations =  2.4

     negative rho (up, down):  0.558E+00 0.000E+00

     total cpu time spent up to now is     1711.4 secs

     total energy              =   -2162.10612161 Ry
     Harris-Foulkes estimate   =   -2163.16173810 Ry
     estimated scf accuracy    <      47.97655241 Ry

     iteration #  6     ecut=    40.00 Ry     beta=0.70
     Davidson diagonalization with overlap
     ethr =  1.00E-02,  avg # of iterations =  1.0

     negative rho (up, down):  0.560E+00 0.000E+00

     total cpu time spent up to now is     1892.1 secs

     total energy              =   -2161.96259480 Ry
     Harris-Foulkes estimate   =   -2162.27695254 Ry
     estimated scf accuracy    <      34.28644120 Ry

     iteration #  7     ecut=    40.00 Ry     beta=0.70
     Davidson diagonalization with overlap
     ethr =  1.00E-02,  avg # of iterations =  1.0

     negative rho (up, down):  0.566E+00 0.000E+00

     total cpu time spent up to now is     2076.3 secs

     total energy              =   -2161.27115474 Ry
     Harris-Foulkes estimate   =   -2162.03437319 Ry
     estimated scf accuracy    <      26.79816092 Ry

     iteration #  8     ecut=    40.00 Ry     beta=0.70
     Davidson diagonalization with overlap
     ethr =  1.00E-02,  avg # of iterations =  1.0

     negative rho (up, down):  0.569E+00 0.000E+00

     total cpu time spent up to now is     2266.1 secs

     total energy              =   -2161.12250893 Ry
     Harris-Foulkes estimate   =   -2161.62687308 Ry
     estimated scf accuracy    <       8.30520931 Ry

     iteration #  9     ecut=    40.00 Ry     beta=0.70
     Davidson diagonalization with overlap
     ethr =  3.38E-03,  avg # of iterations =  1.3

     negative rho (up, down):  0.574E+00 0.000E+00

     total cpu time spent up to now is     2451.7 secs

     total energy              =   -2161.19249979 Ry
     Harris-Foulkes estimate   =   -2161.41929202 Ry
     estimated scf accuracy    <       4.82039444 Ry

     iteration # 10     ecut=    40.00 Ry     beta=0.70
     Davidson diagonalization with overlap
     ethr =  1.96E-03,  avg # of iterations =  3.8

     negative rho (up, down):  0.578E+00 0.000E+00

     total cpu time spent up to now is     2658.8 secs

     total energy              =   -2161.05139851 Ry
     Harris-Foulkes estimate   =   -2161.51288581 Ry
     estimated scf accuracy    <       3.41615747 Ry

     iteration # 11     ecut=    40.00 Ry     beta=0.70
     Davidson diagonalization with overlap
     ethr =  1.39E-03,  avg # of iterations =  2.4

     negative rho (up, down):  0.576E+00 0.000E+00

     total cpu time spent up to now is     2853.0 secs

     total energy              =   -2161.24368381 Ry
     Harris-Foulkes estimate   =   -2161.41285225 Ry
     estimated scf accuracy    <       1.55459085 Ry

     iteration # 12     ecut=    40.00 Ry     beta=0.70
     Davidson diagonalization with overlap
     ethr =  6.32E-04,  avg # of iterations =  4.9

     negative rho (up, down):  0.574E+00 0.000E+00

     total cpu time spent up to now is     3064.2 secs

     total energy              =   -2161.27048234 Ry
     Harris-Foulkes estimate   =   -2161.33905523 Ry
     estimated scf accuracy    <       0.27174668 Ry

     iteration # 13     ecut=    40.00 Ry     beta=0.70
     Davidson diagonalization with overlap
     ethr =  1.10E-04,  avg # of iterations =  6.0

     negative rho (up, down):  0.573E+00 0.000E+00

     total cpu time spent up to now is     3283.5 secs

     total energy              =   -2161.25945427 Ry
     Harris-Foulkes estimate   =   -2161.36074593 Ry
     estimated scf accuracy    <       0.52938863 Ry

     iteration # 14     ecut=    40.00 Ry     beta=0.70
     Davidson diagonalization with overlap
     ethr =  1.10E-04,  avg # of iterations =  4.5

     negative rho (up, down):  0.574E+00 0.000E+00

     total cpu time spent up to now is     3493.7 secs

     total energy              =   -2161.26002153 Ry
     Harris-Foulkes estimate   =   -2161.38318956 Ry
     estimated scf accuracy    <       0.94823195 Ry

     iteration # 15     ecut=    40.00 Ry     beta=0.70
     Davidson diagonalization with overlap
     ethr =  1.10E-04,  avg # of iterations =  2.4

     negative rho (up, down):  0.574E+00 0.000E+00

     total cpu time spent up to now is     3681.3 secs

     total energy              =   -2161.30969947 Ry
     Harris-Foulkes estimate   =   -2161.32803139 Ry
     estimated scf accuracy    <       0.07659970 Ry

     iteration # 16     ecut=    40.00 Ry     beta=0.70
     Davidson diagonalization with overlap
     ethr =  3.11E-05,  avg # of iterations =  4.0

     negative rho (up, down):  0.574E+00 0.000E+00

     total cpu time spent up to now is     3873.9 secs

     total energy              =   -2161.31294686 Ry
     Harris-Foulkes estimate   =   -2161.32578446 Ry
     estimated scf accuracy    <       0.10117591 Ry

     iteration # 17     ecut=    40.00 Ry     beta=0.70
     Davidson diagonalization with overlap
     ethr =  3.11E-05,  avg # of iterations =  1.0

     negative rho (up, down):  0.574E+00 0.000E+00

     total cpu time spent up to now is     4062.1 secs

     total energy              =   -2161.31572662 Ry
     Harris-Foulkes estimate   =   -2161.32628713 Ry
     estimated scf accuracy    <       0.09114355 Ry

     iteration # 18     ecut=    40.00 Ry     beta=0.70
     Davidson diagonalization with overlap
     ethr =  3.11E-05,  avg # of iterations =  1.3

     negative rho (up, down):  0.574E+00 0.000E+00

     total cpu time spent up to now is     4250.8 secs

     total energy              =   -2161.31408090 Ry
     Harris-Foulkes estimate   =   -2161.33056098 Ry
     estimated scf accuracy    <       0.17579304 Ry

     iteration # 19     ecut=    40.00 Ry     beta=0.70
     Davidson diagonalization with overlap
     ethr =  3.11E-05,  avg # of iterations =  1.0

     negative rho (up, down):  0.574E+00 0.000E+00

     total cpu time spent up to now is     4431.3 secs

     total energy              =   -2161.31606110 Ry
     Harris-Foulkes estimate   =   -2161.32692881 Ry
     estimated scf accuracy    <       0.20225894 Ry

     iteration # 20     ecut=    40.00 Ry     beta=0.70
     Davidson diagonalization with overlap
     ethr =  3.11E-05,  avg # of iterations =  1.0

     negative rho (up, down):  0.574E+00 0.000E+00

     total cpu time spent up to now is     4608.7 secs

     total energy              =   -2161.32091815 Ry
     Harris-Foulkes estimate   =   -2161.32291409 Ry
     estimated scf accuracy    <       0.01390114 Ry

     iteration # 21     ecut=    40.00 Ry     beta=0.70
     Davidson diagonalization with overlap
     ethr =  5.65E-06,  avg # of iterations =  1.2

     negative rho (up, down):  0.574E+00 0.000E+00

     total cpu time spent up to now is     4787.5 secs

     total energy              =   -2161.32092400 Ry
     Harris-Foulkes estimate   =   -2161.32300777 Ry
     estimated scf accuracy    <       0.01721669 Ry

     iteration # 22     ecut=    40.00 Ry     beta=0.70
     Davidson diagonalization with overlap
     ethr =  5.65E-06,  avg # of iterations =  1.0

     negative rho (up, down):  0.574E+00 0.000E+00

     total cpu time spent up to now is     4965.6 secs

     total energy              =   -2161.32186953 Ry
     Harris-Foulkes estimate   =   -2161.32248843 Ry
     estimated scf accuracy    <       0.00713072 Ry

     iteration # 23     ecut=    40.00 Ry     beta=0.70
     Davidson diagonalization with overlap
     ethr =  2.90E-06,  avg # of iterations =  1.5

     negative rho (up, down):  0.574E+00 0.000E+00

     total cpu time spent up to now is     5148.1 secs

     total energy              =   -2161.32166249 Ry
     Harris-Foulkes estimate   =   -2161.32272890 Ry
     estimated scf accuracy    <       0.00528000 Ry

     iteration # 24     ecut=    40.00 Ry     beta=0.70
     Davidson diagonalization with overlap
     ethr =  2.15E-06,  avg # of iterations =  5.5

     negative rho (up, down):  0.574E+00 0.000E+00

     total cpu time spent up to now is     5350.4 secs

     total energy              =   -2161.32148218 Ry
     Harris-Foulkes estimate   =   -2161.32302553 Ry
     estimated scf accuracy    <       0.00875102 Ry

     iteration # 25     ecut=    40.00 Ry     beta=0.70
     Davidson diagonalization with overlap
     ethr =  2.15E-06,  avg # of iterations =  3.2

     negative rho (up, down):  0.574E+00 0.000E+00

     total cpu time spent up to now is     5536.5 secs

     total energy              =   -2161.32224042 Ry
     Harris-Foulkes estimate   =   -2161.32239914 Ry
     estimated scf accuracy    <       0.00208500 Ry

     iteration # 26     ecut=    40.00 Ry     beta=0.70
     Davidson diagonalization with overlap
     ethr =  8.48E-07,  avg # of iterations =  1.0

     negative rho (up, down):  0.574E+00 0.000E+00

     total cpu time spent up to now is     5713.9 secs

     total energy              =   -2161.32218390 Ry
     Harris-Foulkes estimate   =   -2161.32241122 Ry
     estimated scf accuracy    <       0.00202724 Ry

     iteration # 27     ecut=    40.00 Ry     beta=0.70
     Davidson diagonalization with overlap
     ethr =  8.24E-07,  avg # of iterations =  1.0

     negative rho (up, down):  0.574E+00 0.000E+00

     total cpu time spent up to now is     5892.6 secs

     total energy              =   -2161.32188895 Ry
     Harris-Foulkes estimate   =   -2161.32275092 Ry
     estimated scf accuracy    <       0.00780633 Ry

     iteration # 28     ecut=    40.00 Ry     beta=0.70
     Davidson diagonalization with overlap
     ethr =  8.24E-07,  avg # of iterations =  1.0

     negative rho (up, down):  0.574E+00 0.000E+00

     total cpu time spent up to now is     6072.4 secs

     total energy              =   -2161.32194503 Ry
     Harris-Foulkes estimate   =   -2161.32269124 Ry
     estimated scf accuracy    <       0.00738044 Ry

     iteration # 29     ecut=    40.00 Ry     beta=0.70
     Davidson diagonalization with overlap
     ethr =  8.24E-07,  avg # of iterations =  1.0

     negative rho (up, down):  0.574E+00 0.000E+00

     total cpu time spent up to now is     6251.3 secs

     total energy              =   -2161.32220579 Ry
     Harris-Foulkes estimate   =   -2161.32245940 Ry
     estimated scf accuracy    <       0.00365779 Ry

     iteration # 30     ecut=    40.00 Ry     beta=0.70
     Davidson diagonalization with overlap
     ethr =  8.24E-07,  avg # of iterations =  1.0

     negative rho (up, down):  0.574E+00 0.000E+00

     total cpu time spent up to now is     6429.6 secs

     total energy              =   -2161.32233754 Ry
     Harris-Foulkes estimate   =   -2161.32237858 Ry
     estimated scf accuracy    <       0.00056698 Ry

     iteration # 31     ecut=    40.00 Ry     beta=0.70
     Davidson diagonalization with overlap
     ethr =  2.30E-07,  avg # of iterations =  1.0

     negative rho (up, down):  0.574E+00 0.000E+00

     total cpu time spent up to now is     6609.2 secs

     total energy              =   -2161.32232745 Ry
     Harris-Foulkes estimate   =   -2161.32237065 Ry
     estimated scf accuracy    <       0.00042140 Ry

     iteration # 32     ecut=    40.00 Ry     beta=0.70
     Davidson diagonalization with overlap
     ethr =  1.71E-07,  avg # of iterations =  1.0

     negative rho (up, down):  0.574E+00 0.000E+00

     total cpu time spent up to now is     6788.3 secs

     total energy              =   -2161.32230349 Ry
     Harris-Foulkes estimate   =   -2161.32241634 Ry
     estimated scf accuracy    <       0.00097726 Ry

     iteration # 33     ecut=    40.00 Ry     beta=0.70
     Davidson diagonalization with overlap
     ethr =  1.71E-07,  avg # of iterations =  1.0

     negative rho (up, down):  0.574E+00 0.000E+00

     total cpu time spent up to now is     6965.4 secs

     total energy              =   -2161.32235060 Ry
     Harris-Foulkes estimate   =   -2161.32237902 Ry
     estimated scf accuracy    <       0.00016178 Ry

     iteration # 34     ecut=    40.00 Ry     beta=0.70
     Davidson diagonalization with overlap
     ethr =  6.58E-08,  avg # of iterations =  1.0

     negative rho (up, down):  0.574E+00 0.000E+00

     total cpu time spent up to now is     7145.4 secs

     total energy              =   -2161.32234729 Ry
     Harris-Foulkes estimate   =   -2161.32237650 Ry
     estimated scf accuracy    <       0.00016203 Ry

     iteration # 35     ecut=    40.00 Ry     beta=0.70
     Davidson diagonalization with overlap
     ethr =  6.58E-08,  avg # of iterations =  1.0

     negative rho (up, down):  0.574E+00 0.000E+00

     total cpu time spent up to now is     7324.3 secs

     total energy              =   -2161.32230699 Ry
     Harris-Foulkes estimate   =   -2161.32241887 Ry
     estimated scf accuracy    <       0.00095665 Ry

     iteration # 36     ecut=    40.00 Ry     beta=0.70
     Davidson diagonalization with overlap
     ethr =  6.58E-08,  avg # of iterations =  1.0

     negative rho (up, down):  0.574E+00 0.000E+00

     total cpu time spent up to now is     7502.1 secs

     total energy              =   -2161.32236276 Ry
     Harris-Foulkes estimate   =   -2161.32237128 Ry
     estimated scf accuracy    <       0.00007106 Ry

     iteration # 37     ecut=    40.00 Ry     beta=0.70
     Davidson diagonalization with overlap
     ethr =  2.89E-08,  avg # of iterations =  1.0

     negative rho (up, down):  0.574E+00 0.000E+00

     total cpu time spent up to now is     7680.8 secs

     total energy              =   -2161.32236454 Ry
     Harris-Foulkes estimate   =   -2161.32237371 Ry
     estimated scf accuracy    <       0.00007180 Ry

     iteration # 38     ecut=    40.00 Ry     beta=0.70
     Davidson diagonalization with overlap
     ethr =  2.89E-08,  avg # of iterations =  1.0

     negative rho (up, down):  0.574E+00 0.000E+00

     total cpu time spent up to now is     7854.6 secs

     total energy              =   -2161.32236703 Ry
     Harris-Foulkes estimate   =   -2161.32237161 Ry
     estimated scf accuracy    <       0.00005834 Ry

     iteration # 39     ecut=    40.00 Ry     beta=0.70
     Davidson diagonalization with overlap
     ethr =  2.37E-08,  avg # of iterations =  1.0

     negative rho (up, down):  0.574E+00 0.000E+00

     total cpu time spent up to now is     8027.0 secs

     total energy              =   -2161.32236144 Ry
     Harris-Foulkes estimate   =   -2161.32237245 Ry
     estimated scf accuracy    <       0.00008545 Ry

     iteration # 40     ecut=    40.00 Ry     beta=0.70
     Davidson diagonalization with overlap
     ethr =  2.37E-08,  avg # of iterations =  1.1

     negative rho (up, down):  0.574E+00 0.000E+00

     total cpu time spent up to now is     8199.2 secs

     total energy              =   -2161.32234283 Ry
     Harris-Foulkes estimate   =   -2161.32239428 Ry
     estimated scf accuracy    <       0.00063988 Ry

     iteration # 41     ecut=    40.00 Ry     beta=0.70
     Davidson diagonalization with overlap
     ethr =  2.37E-08,  avg # of iterations =  1.1

     negative rho (up, down):  0.574E+00 0.000E+00

     total cpu time spent up to now is     8371.6 secs

     total energy              =   -2161.32236740 Ry
     Harris-Foulkes estimate   =   -2161.32237065 Ry
     estimated scf accuracy    <       0.00003831 Ry

     iteration # 42     ecut=    40.00 Ry     beta=0.70
     Davidson diagonalization with overlap
     ethr =  1.56E-08,  avg # of iterations =  1.0

     negative rho (up, down):  0.574E+00 0.000E+00

     total cpu time spent up to now is     8543.7 secs

     total energy              =   -2161.32236822 Ry
     Harris-Foulkes estimate   =   -2161.32237097 Ry
     estimated scf accuracy    <       0.00002744 Ry

     iteration # 43     ecut=    40.00 Ry     beta=0.70
     Davidson diagonalization with overlap
     ethr =  1.12E-08,  avg # of iterations =  1.0

     negative rho (up, down):  0.574E+00 0.000E+00

     total cpu time spent up to now is     8716.5 secs

     total energy              =   -2161.32236882 Ry
     Harris-Foulkes estimate   =   -2161.32237032 Ry
     estimated scf accuracy    <       0.00000830 Ry

     iteration # 44     ecut=    40.00 Ry     beta=0.70
     Davidson diagonalization with overlap
     ethr =  3.38E-09,  avg # of iterations =  1.0

     negative rho (up, down):  0.574E+00 0.000E+00

     total cpu time spent up to now is     8888.9 secs

     total energy              =   -2161.32236792 Ry
     Harris-Foulkes estimate   =   -2161.32237141 Ry
     estimated scf accuracy    <       0.00002687 Ry

     iteration # 45     ecut=    40.00 Ry     beta=0.70
     Davidson diagonalization with overlap
     ethr =  3.38E-09,  avg # of iterations =  1.0

     negative rho (up, down):  0.574E+00 0.000E+00

     total cpu time spent up to now is     9061.6 secs

     total energy              =   -2161.32236914 Ry
     Harris-Foulkes estimate   =   -2161.32237037 Ry
     estimated scf accuracy    <       0.00000882 Ry

     iteration # 46     ecut=    40.00 Ry     beta=0.70
     Davidson diagonalization with overlap
     ethr =  3.38E-09,  avg # of iterations =  1.0

     negative rho (up, down):  0.574E+00 0.000E+00

     total cpu time spent up to now is     9233.7 secs

     total energy              =   -2161.32236901 Ry
     Harris-Foulkes estimate   =   -2161.32237066 Ry
     estimated scf accuracy    <       0.00001237 Ry

     iteration # 47     ecut=    40.00 Ry     beta=0.70
     Davidson diagonalization with overlap
     ethr =  3.38E-09,  avg # of iterations =  1.0

     negative rho (up, down):  0.574E+00 0.000E+00

     total cpu time spent up to now is     9406.1 secs

     total energy              =   -2161.32236978 Ry
     Harris-Foulkes estimate   =   -2161.32237006 Ry
     estimated scf accuracy    <       0.00000410 Ry

     iteration # 48     ecut=    40.00 Ry     beta=0.70
     Davidson diagonalization with overlap
     ethr =  1.67E-09,  avg # of iterations =  1.0

     negative rho (up, down):  0.574E+00 0.000E+00

     total cpu time spent up to now is     9584.5 secs

     total energy              =   -2161.32236972 Ry
     Harris-Foulkes estimate   =   -2161.32237007 Ry
     estimated scf accuracy    <       0.00000189 Ry

     iteration # 49     ecut=    40.00 Ry     beta=0.70
     Davidson diagonalization with overlap
     ethr =  7.68E-10,  avg # of iterations =  1.0

     negative rho (up, down):  0.574E+00 0.000E+00

     total cpu time spent up to now is     9763.0 secs

     total energy              =   -2161.32236958 Ry
     Harris-Foulkes estimate   =   -2161.32237020 Ry
     estimated scf accuracy    <       0.00000546 Ry

     iteration # 50     ecut=    40.00 Ry     beta=0.70
     Davidson diagonalization with overlap
     ethr =  7.68E-10,  avg # of iterations =  1.0

     negative rho (up, down):  0.574E+00 0.000E+00

     total cpu time spent up to now is     9943.2 secs

     total energy              =   -2161.32236902 Ry
     Harris-Foulkes estimate   =   -2161.32237076 Ry
     estimated scf accuracy    <       0.00002119 Ry

     iteration # 51     ecut=    40.00 Ry     beta=0.70
     Davidson diagonalization with overlap
     ethr =  7.68E-10,  avg # of iterations =  1.0

     negative rho (up, down):  0.574E+00 0.000E+00

     total cpu time spent up to now is    10116.5 secs

     total energy              =   -2161.32236977 Ry
     Harris-Foulkes estimate   =   -2161.32237016 Ry
     estimated scf accuracy    <       0.00000706 Ry

     iteration # 52     ecut=    40.00 Ry     beta=0.70
     Davidson diagonalization with overlap
     ethr =  7.68E-10,  avg # of iterations =  1.0

     negative rho (up, down):  0.574E+00 0.000E+00

     total cpu time spent up to now is    10289.7 secs

     End of self-consistent calculation
 --- enter write_ns ---
 LDA+U parameters:
U( 2)     =  4.00000000
alpha( 2) =  0.00000000
atom    3   Tr[ns(na)] =   7.21684
    eigenvalues: 
  0.520  0.562  0.676  0.876  0.974
    eigenvectors:
  0.000  0.174  0.005  0.000  0.821
  0.997  0.002  0.000  0.000  0.000
  0.000  0.004  0.984  0.001  0.011
  0.003  0.820  0.010  0.000  0.167
  0.000  0.000  0.001  0.998  0.000
    occupations:
  0.901  0.005  0.031 -0.154 -0.001
  0.005  0.520  0.001 -0.004 -0.004
  0.031  0.001  0.679 -0.007 -0.008
 -0.154 -0.004 -0.007  0.632  0.001
 -0.001 -0.004 -0.008  0.001  0.876
atom    4   Tr[ns(na)] =   7.22209
    eigenvalues: 
  0.552  0.599  0.663  0.817  0.980
    eigenvectors:
  0.002  0.986  0.000  0.000  0.013
  0.000  0.000  0.030  0.970  0.000
  0.000  0.000  0.970  0.030  0.000
  0.000  0.013  0.000  0.000  0.987
  0.998  0.002  0.000  0.000  0.000
    occupations:
  0.604 -0.001 -0.000  0.043  0.002
 -0.001  0.812  0.026 -0.001 -0.001
 -0.000  0.026  0.668  0.002  0.000
  0.043 -0.001  0.002  0.976  0.000
  0.002 -0.001  0.000  0.000  0.552
atom    9   Tr[ns(na)] =   7.23084
    eigenvalues: 
  0.573  0.592  0.783  0.830  0.838
    eigenvectors:
  0.001  0.163  0.000  0.561  0.276
  0.992  0.008  0.000  0.000  0.000
  0.000  0.000  0.989  0.002  0.008
  0.008  0.829  0.000  0.109  0.054
  0.000  0.000  0.011  0.328  0.662
    occupations:
  0.793 -0.002 -0.001 -0.089  0.003
 -0.002  0.573  0.001  0.003  0.000
 -0.001  0.001  0.783  0.000 -0.005
 -0.089  0.003  0.000  0.631 -0.002
  0.003  0.000 -0.005 -0.002  0.835
atom   10   Tr[ns(na)] =   7.25130
    eigenvalues: 
  0.517  0.526  0.758  0.860  0.965
    eigenvectors:
  0.987  0.000  0.000  0.000  0.013
  0.000  0.000  0.000  1.000  0.000
  0.000  0.000  1.000  0.000  0.000
  0.013  0.000  0.000  0.000  0.987
  0.000  1.000  0.000  0.000  0.000
    occupations:
  0.523  0.000 -0.001  0.051  0.000
  0.000  0.860  0.001  0.000  0.001
 -0.001  0.001  0.758 -0.001  0.000
  0.051  0.000 -0.001  0.959  0.000
  0.000  0.001  0.000  0.000  0.526
atom   16   Tr[ns(na)] =   7.21673
    eigenvalues: 
  0.520  0.561  0.676  0.877  0.974
    eigenvectors:
  0.000  0.174  0.005  0.001  0.821
  0.998  0.002  0.000  0.000  0.000
  0.000  0.004  0.982  0.002  0.012
  0.002  0.820  0.010  0.000  0.167
  0.000  0.000  0.002  0.997  0.000
    occupations:
  0.901 -0.005  0.032 -0.154  0.000
 -0.005  0.520 -0.002  0.004 -0.004
  0.032 -0.002  0.679 -0.007  0.010
 -0.154  0.004 -0.007  0.632 -0.001
  0.000 -0.004  0.010 -0.001  0.877
atom   17   Tr[ns(na)] =   7.21711
    eigenvalues: 
  0.551  0.601  0.662  0.812  0.982
    eigenvectors:
  0.001  0.987  0.000  0.000  0.012
  0.000  0.000  0.020  0.980  0.000
  0.000  0.000  0.980  0.020  0.000
  0.000  0.012  0.000  0.000  0.988
  0.999  0.001  0.000  0.000  0.000
    occupations:
  0.606 -0.001 -0.000  0.042  0.002
 -0.001  0.809  0.021 -0.001 -0.001
 -0.000  0.021  0.665  0.001  0.000
  0.042 -0.001  0.001  0.977  0.000
  0.002 -0.001  0.000  0.000  0.551
atom   22   Tr[ns(na)] =   7.23060
    eigenvalues: 
  0.573  0.591  0.781  0.831  0.839
    eigenvectors:
  0.000  0.164  0.005  0.511  0.320
  0.997  0.003  0.000  0.000  0.000
  0.000  0.000  0.984  0.000  0.016
  0.003  0.833  0.001  0.100  0.063
  0.000  0.000  0.010  0.389  0.602
    occupations:
  0.794  0.003  0.004 -0.090  0.003
  0.003  0.573  0.001 -0.003 -0.001
  0.004  0.001  0.782 -0.001  0.006
 -0.090 -0.003 -0.001  0.631 -0.002
  0.003 -0.001  0.006 -0.002  0.835
atom   23   Tr[ns(na)] =   7.21508
    eigenvalues: 
  0.577  0.661  0.671  0.716  0.983
    eigenvectors:
  0.000  0.982  0.011  0.000  0.007
  0.000  0.000  0.000  1.000  0.000
  0.000  0.011  0.989  0.000  0.000
  0.000  0.007  0.000  0.000  0.993
  1.000  0.000  0.000  0.000  0.000
    occupations:
  0.663  0.000 -0.001  0.027 -0.000
  0.000  0.716  0.000  0.000  0.001
 -0.001  0.000  0.671  0.002 -0.000
  0.027  0.000  0.002  0.981 -0.000
 -0.000  0.001 -0.000 -0.000  0.577
N of occupied +U levels =  57.8005941
 --- exit write_ns ---

          k = 0.0000 0.0000 0.0000 ( 30363 PWs)   bands (ev):

   -75.1143 -74.3754 -74.3636 -74.1657 -74.1447 -73.8041 -73.7934 -73.7829
   -45.6413 -44.9190 -44.7715 -44.5693 -44.4677 -44.4421 -44.3758 -44.3573
   -44.3479 -44.2942 -44.2645 -44.1496 -44.1172 -44.0691 -44.0223 -44.0011
   -43.9630 -43.8888 -43.7910 -43.7644 -43.7358 -43.6540 -43.6281 -43.5019
   -21.1792 -20.7753 -20.6409 -20.4245 -20.3566 -20.2714 -19.9710 -19.9428
   -19.8402 -19.7610 -19.7291 -19.6908 -19.5891 -19.5679 -19.3951 -19.2248
   -19.1251 -19.0864 -18.9739  -9.7975  -9.7096  -9.5114  -8.8476  -8.7192
    -8.6742  -8.5349  -8.2265  -8.1176  -8.0812  -7.9958  -7.9943  -7.9083
    -7.8667  -7.7453  -7.6393  -7.5114  -7.3804  -7.3515  -7.1941  -7.1209
    -7.0068  -6.6606  -6.5292  -6.4681  -6.0700  -5.7560  -5.7505  -5.7223
    -5.6312  -5.5613  -5.4657  -5.3982  -5.3395  -5.1207  -5.1025  -5.0429
    -4.9950  -4.9145  -4.7772  -4.7650  -4.5429  -4.4612  -4.3653  -4.2901
    -4.2043  -4.1492  -3.9646  -3.8988  -3.8274  -3.8126  -3.7878  -3.7191
    -3.6417  -3.5318  -3.3951  -3.3219  -3.3056  -3.2400  -2.9427  -2.8995
    -2.8851  -2.8631  -2.7998  -2.4581  -2.3938  -2.1591  -2.0060  -1.8759
    -1.7634  -1.5877  -1.4485  -1.4136  -1.3974  -0.9140  -0.7888  -0.6419
    -0.5366  -0.4415  -0.1796   0.2080   0.4784   1.2600   1.4878   1.7508
     1.9679   2.2418   2.3135   2.3414   2.5459   3.1995   3.2277   3.2360
     3.4275   3.5495   3.5531   3.7876   4.0158   4.2485   4.2772   4.8093
     5.2065   6.0035   6.2084   6.2974   6.5222   6.8985   7.1429   7.2891
     7.5307   7.6869   7.8658   7.9205   7.9386   8.0237   8.0353   8.1646
     8.2488   8.2604   8.3590   8.4565   8.5712   8.6500   8.6601   8.7769
     8.8246   9.1084   9.1382   9.1987   9.2780   9.3558   9.4016   9.4572
     9.6674   9.7841   9.8059   9.9024   9.9452  10.0137  10.1164  10.2680
    10.6082  10.7351  10.7532  11.0161  11.0790  11.1193  11.1794  11.2354
    11.2957  11.3304  11.4432  11.4652  11.6075  11.6339  11.7381  11.7609
    11.7932  11.8150  11.8759  12.0341  12.0757  12.0871  12.2099  12.2347
    12.2667  12.3433  12.4132  12.4771  12.5142  12.5173  12.6493  12.7159
    12.7735  12.7969  12.8756  12.9368  13.0191  13.0770  13.1988  13.2203
    13.3200  13.3505  13.4160  13.6488  13.7483  13.8409  13.8684  13.9601
    14.0389  14.1390  14.2332  14.2822  14.3217  14.4908  14.5585  14.5939
    14.6462  14.8486  14.9080  15.0604  15.0892  15.2195  15.3847  15.4533
    15.4987  15.5888  15.7758  15.8180  15.8926  15.9252  16.0152  16.0355
    16.2471  16.2838  16.3643  16.4927  16.5654  16.6811  16.8699  16.9038
    17.1167  17.1536  17.2511  17.2909  17.2991  17.3799  17.4827  17.5362
    17.6796  17.8448  17.9013  17.9290  18.0126  18.1238  18.2777  18.3791
    18.4616  18.5089  18.5472  18.5755  18.6826  18.7578  18.7660  18.7906
    18.8181  18.8697  18.9029  18.9758  19.0516  19.1163  19.1958  19.2396
    19.2928  19.3214  19.3547  19.4180  19.5943  19.6495  19.6586  19.7008
    19.7858  19.7958  19.9648  20.0278  20.0585  20.1128  20.1581  20.1846
    20.2222  20.2880  20.3641  20.4052  20.4267  20.5504  20.6173  20.6952
    20.7545  20.8122  20.8731  20.8973  20.9722  21.0486  21.1988  21.2151
    21.2997  21.3652  21.4634  21.4841  21.5966  21.6799  21.6983  21.7300
    21.7881  21.8235  21.8950  22.0425  22.1480  22.1990  22.2639  22.3028
    22.3227  22.3864  22.4145  22.5098  22.5298

          k = 0.0000 0.2435 0.0000 ( 30432 PWs)   bands (ev):

   -75.1144 -74.3752 -74.3636 -74.1657 -74.1448 -73.8042 -73.7932 -73.7829
   -45.6414 -44.9193 -44.7708 -44.5689 -44.4677 -44.4421 -44.3759 -44.3579
   -44.3477 -44.2942 -44.2645 -44.1496 -44.1205 -44.0590 -44.0196 -44.0108
   -43.9622 -43.8896 -43.7909 -43.7642 -43.7357 -43.6536 -43.6285 -43.5020
   -21.1398 -20.7088 -20.5624 -20.4266 -20.3515 -20.2640 -19.9974 -19.9738
   -19.9414 -19.9331 -19.6083 -19.5811 -19.5707 -19.4812 -19.3950 -19.3612
   -19.2796 -19.0799 -18.9751  -9.5993  -9.4021  -9.2708  -8.9319  -8.8364
    -8.7435  -8.7197  -8.5498  -8.0438  -7.9509  -7.9298  -7.9113  -7.7738
    -7.7418  -7.6335  -7.5094  -7.4477  -7.3664  -7.2592  -7.1179  -6.9830
    -6.7946  -6.5369  -6.4975  -6.4290  -6.2167  -6.0780  -5.8628  -5.7508
    -5.6946  -5.6475  -5.5769  -5.4712  -5.3725  -5.2459  -5.1858  -5.1466
    -5.1263  -5.0034  -4.9400  -4.9280  -4.6598  -4.5866  -4.5746  -4.4910
    -4.3497  -4.1821  -4.1345  -4.0648  -3.9852  -3.9434  -3.7969  -3.7562
    -3.6766  -3.4325  -3.3871  -3.2028  -3.0003  -2.8802  -2.8193  -2.7094
    -2.6790  -2.6173  -2.5135  -2.3827  -2.3705  -2.2984  -2.1684  -2.0883
    -2.0077  -1.5550  -1.5293  -1.4654  -1.4098  -0.8189  -0.6911  -0.5481
    -0.4026  -0.3475  -0.2395  -0.0046   0.6708   1.0493   1.2854   1.4021
     1.7481   2.2056   2.5339   3.0589   3.0925   3.1849   3.4104   3.4520
     3.4847   3.5294   3.5814   3.6124   3.9039   4.4119   4.5153   5.0146
     5.3558   5.4991   6.1661   6.3111   6.4388   6.5096   6.6651   6.8334
     7.0339   7.3049   7.5520   7.7547   7.9584   7.9782   8.0917   8.1363
     8.2261   8.3759   8.3866   8.4820   8.6875   8.8484   8.8733   9.0236
     9.1666   9.2114   9.3090   9.4293   9.5237   9.6046   9.6124   9.7267
     9.8502   9.8878  10.0152  10.0523  10.0862  10.0970  10.1500  10.2809
    10.3823  10.4103  10.4598  10.5858  10.6414  10.6818  10.8858  11.0173
    11.0786  11.1866  11.2718  11.3412  11.3801  11.4570  11.5133  11.5418
    11.5717  11.6833  11.9127  11.9812  12.0645  12.2678  12.4327  12.5214
    12.5856  12.6127  12.6587  12.6761  12.6962  12.8617  12.9264  13.1110
    13.1512  13.2027  13.2700  13.3444  13.4481  13.4790  13.6578  13.7315
    13.7502  13.7752  13.8876  13.9824  14.0286  14.1115  14.1553  14.2163
    14.3072  14.3726  14.4663  14.4792  14.6069  14.6760  14.6894  14.7352
    14.8319  14.9252  14.9763  15.0339  15.1619  15.1922  15.3573  15.4606
    15.5793  15.5937  15.6636  15.7045  15.8638  15.9165  15.9778  16.0164
    16.0964  16.1705  16.2752  16.3467  16.3875  16.4390  16.6050  16.6474
    16.7342  16.8449  16.8774  16.9288  17.0297  17.1518  17.2246  17.2762
    17.3893  17.4219  17.5583  17.5979  17.6762  17.7349  17.9345  18.0393
    18.0974  18.1995  18.2340  18.3354  18.4514  18.4884  18.5251  18.6763
    18.7473  18.8021  18.8233  18.8871  18.9436  18.9788  19.0562  19.0908
    19.1281  19.1939  19.2956  19.3524  19.4061  19.4885  19.5058  19.5882
    19.6254  19.7065  19.7993  19.8397  19.8509  19.9548  20.0008  20.0385
    20.0663  20.1512  20.1835  20.2370  20.2976  20.3204  20.3775  20.3952
    20.4539  20.5063  20.5894  20.6126  20.7647  20.8376  20.8843  20.9671
    21.0632  21.0943  21.1218  21.1587  21.2316  21.2616  21.2869  21.3334
    21.3618  21.4443  21.5283  21.5913  21.6624  21.7611  21.7959  21.8156
    21.8593  21.9818  22.0391  22.0660  22.1419

          k = 0.0000-0.4870 0.0000 ( 30448 PWs)   bands (ev):

   -75.1144 -74.3749 -74.3637 -74.1657 -74.1450 -73.8042 -73.7930 -73.7830
   -45.6414 -44.9196 -44.7702 -44.5685 -44.4677 -44.4421 -44.3760 -44.3584
   -44.3476 -44.2942 -44.2645 -44.1496 -44.1237 -44.0348 -44.0348 -44.0170
   -43.9612 -43.8903 -43.7908 -43.7639 -43.7357 -43.6533 -43.6288 -43.5020
   -21.1027 -20.6414 -20.4397 -20.4231 -20.3312 -20.2829 -20.0774 -20.0254
   -19.9730 -19.9246 -19.6124 -19.5740 -19.5209 -19.4975 -19.4516 -19.4022
   -19.3793 -19.0741 -18.9804  -9.5709  -9.1050  -9.0115  -8.8898  -8.8397
    -8.8128  -8.7210  -8.5699  -8.0375  -7.9043  -7.8255  -7.6727  -7.6545
    -7.6162  -7.5033  -7.4756  -7.4592  -7.3400  -7.1594  -7.0831  -7.0214
    -6.9359  -6.5430  -6.5392  -6.3134  -6.2715  -6.2288  -6.1270  -6.0506
    -5.7956  -5.7032  -5.5760  -5.5687  -5.4629  -5.4243  -5.4015  -5.3209
    -5.2244  -5.0948  -4.9441  -4.8797  -4.7696  -4.7186  -4.5852  -4.4910
    -4.2370  -4.2326  -4.1492  -3.9947  -3.9605  -3.9093  -3.8853  -3.7763
    -3.7172  -3.4205  -3.3763  -3.1504  -3.0982  -3.0005  -2.9682  -2.8816
    -2.6041  -2.5516  -2.3889  -2.2922  -2.2252  -2.2195  -2.1732  -2.0084
    -1.8282  -1.5147  -1.4639  -1.4540  -1.2413  -1.0100  -0.8440  -0.4711
    -0.4000  -0.3924  -0.1008  -0.0548   0.6625   0.8318   1.0300   1.3072
     1.9970   2.3704   2.7833   3.0104   3.1888   3.3118   3.3581   3.3775
     3.5408   3.5481   3.8170   3.8570   4.1315   4.5525   5.0017   5.1597
     5.2328   5.3329   5.6787   5.7986   6.1533   6.3100   6.8209   6.8663
     7.0654   7.1050   7.2345   7.3645   7.4743   7.9355   8.1903   8.3184
     8.4773   8.5738   8.6203   8.6400   8.8959   9.0021   9.0080   9.0337
     9.0616   9.1215   9.2567   9.3148   9.3272   9.4481   9.5522   9.6109
     9.6151   9.6825   9.8087   9.8238   9.9919  10.0704  10.1552  10.2018
    10.2139  10.3784  10.4458  10.7699  10.9047  10.9795  11.0152  11.0323
    11.2502  11.3337  11.3956  11.5998  11.6706  11.6870  11.7298  11.8617
    11.9150  12.0225  12.1893  12.2083  12.2208  12.2921  12.4042  12.4932
    12.6191  12.6547  12.7145  12.7890  12.8698  12.9777  13.0804  13.1926
    13.2189  13.2597  13.2689  13.3429  13.5042  13.5158  13.6076  13.6175
    13.7652  13.8055  13.8714  13.8776  14.0436  14.1156  14.3229  14.4147
    14.4591  14.5475  14.6064  14.6964  14.7740  14.7764  14.8566  15.0528
    15.0797  15.2308  15.3359  15.4625  15.5058  15.5469  15.6234  15.6642
    15.7032  15.8543  15.9357  15.9998  16.0290  16.0702  16.1618  16.1821
    16.2415  16.2994  16.3567  16.4408  16.5012  16.5179  16.5495  16.5873
    16.6068  16.6309  16.6556  16.7680  16.8667  16.9883  17.0092  17.0174
    17.1087  17.2381  17.2890  17.3734  17.4732  17.4794  17.6131  17.6485
    17.7327  17.8268  17.8665  18.0399  18.0953  18.1219  18.2561  18.2885
    18.3154  18.3701  18.4052  18.4438  18.4824  18.5382  18.5672  18.5817
    18.6647  18.7144  18.8135  18.8808  18.9070  18.9535  18.9923  19.0614
    19.2234  19.3866  19.4588  19.5253  19.6990  19.7265  19.7878  19.9583
    19.9916  19.9977  20.1285  20.2782  20.3429  20.3813  20.4695  20.4766
    20.5053  20.5671  20.5928  20.6299  20.6431  20.6959  20.7250  20.7384
    20.7527  20.7862  20.8263  20.8837  20.9722  20.9858  21.0277  21.0396
    21.0880  21.2422  21.2880  21.2917  21.4106  21.5151  21.5329  21.5762
    21.6425  21.6569  21.7020  21.7344  21.7724

          k = 0.2500 0.0000 0.0000 ( 30394 PWs)   bands (ev):

   -75.1138 -74.3732 -74.3648 -74.1644 -74.1447 -73.8035 -73.7914 -73.7837
   -45.6414 -44.9173 -44.7714 -44.5424 -44.4669 -44.4433 -44.4042 -44.3573
   -44.3495 -44.2896 -44.2688 -44.1494 -44.0969 -44.0655 -44.0264 -44.0055
   -43.9613 -43.9096 -43.7825 -43.7681 -43.7418 -43.6354 -43.6283 -43.5272
   -21.0824 -20.6561 -20.5646 -20.4628 -20.3502 -20.1709 -20.0495 -19.9456
   -19.9004 -19.7979 -19.6844 -19.6203 -19.5844 -19.5641 -19.4917 -19.3065
   -19.2136 -19.1625 -18.9897  -9.5707  -9.4638  -9.3229  -8.7621  -8.6852
    -8.6240  -8.4049  -8.2641  -8.1992  -8.1185  -8.0611  -7.9745  -7.9195
    -7.8464  -7.7226  -7.6307  -7.4836  -7.4565  -7.2430  -7.1778  -7.0378
    -6.9507  -6.7520  -6.5751  -6.3349  -6.1802  -6.0073  -5.9074  -5.8296
    -5.8212  -5.6694  -5.5269  -5.4548  -5.3743  -5.3386  -5.3051  -5.1447
    -5.0673  -4.9956  -4.9031  -4.8472  -4.6499  -4.5918  -4.5434  -4.4885
    -4.2826  -4.2448  -4.1811  -4.1013  -4.0183  -3.9537  -3.8808  -3.7035
    -3.5532  -3.4719  -3.3724  -3.3283  -3.1782  -2.8567  -2.7357  -2.7096
    -2.6967  -2.4265  -2.3426  -2.1545  -2.1388  -2.1005  -2.0452  -1.7956
    -1.6816  -1.5484  -1.3353  -1.2175  -1.1933  -1.0646  -0.8767  -0.7077
    -0.6472  -0.5617  -0.3357   0.0769   0.6092   1.4636   1.5964   1.8716
     2.0570   2.2300   2.3735   2.3978   2.6008   2.7997   3.0609   3.2419
     3.2651   3.4079   3.4443   3.5869   3.9876   4.4792   4.5479   5.0656
     5.4309   5.4867   6.1939   6.3885   6.4759   6.5403   6.5978   6.9200
     7.2821   7.4059   7.5999   7.7455   7.8663   7.8983   8.1168   8.1860
     8.2965   8.3741   8.4564   8.5944   8.6179   8.7081   8.8846   9.0444
     9.1485   9.1870   9.3415   9.4239   9.4569   9.5268   9.6158   9.6813
     9.8528   9.9369   9.9617  10.0616  10.1354  10.1693  10.2011  10.3056
    10.3410  10.4571  10.5475  10.6058  10.6903  10.7960  10.9785  11.0365
    11.1460  11.2419  11.3187  11.3558  11.4388  11.4879  11.5575  11.6581
    11.6799  11.7332  11.8820  11.9146  11.9948  12.1343  12.2089  12.3106
    12.4832  12.4943  12.6279  12.6682  12.6808  12.7742  12.9078  12.9560
    13.0614  13.1607  13.1945  13.3019  13.4576  13.5417  13.6764  13.7580
    13.8358  13.8913  13.9205  14.0133  14.1325  14.1796  14.2275  14.3027
    14.3258  14.3492  14.3769  14.4596  14.5550  14.6069  14.7305  14.7576
    14.7997  14.9750  15.0833  15.1196  15.1783  15.2731  15.4867  15.5031
    15.5673  15.6901  15.7606  15.7865  15.9116  15.9268  15.9915  16.0885
    16.1317  16.1654  16.2562  16.3221  16.4266  16.4851  16.5605  16.6678
    16.7127  16.7739  16.8661  16.9130  16.9557  17.0096  17.2514  17.2827
    17.3592  17.4429  17.5435  17.5610  17.5943  17.6647  17.7382  17.8626
    18.0352  18.1545  18.1878  18.3020  18.3436  18.4071  18.4847  18.5518
    18.7471  18.8297  18.8888  19.0540  19.0811  19.1215  19.1987  19.2623
    19.2778  19.3468  19.3780  19.4181  19.4633  19.5299  19.5672  19.6058
    19.6243  19.7113  19.7971  19.8061  19.8559  19.9198  19.9747  20.0000
    20.0451  20.1014  20.1547  20.2165  20.2433  20.3361  20.4251  20.5617
    20.6302  20.6751  20.6926  20.7017  20.7539  20.7932  20.8207  20.8468
    20.9252  20.9424  21.0400  21.0850  21.1352  21.1904  21.2146  21.2723
    21.3501  21.4131  21.4628  21.5322  21.5634  21.6019  21.6620  21.7427
    21.7759  21.7918  21.8899  21.9359  22.0339

          k = 0.2500 0.2435 0.0000 ( 30434 PWs)   bands (ev):

   -75.1139 -74.3730 -74.3648 -74.1644 -74.1448 -73.8036 -73.7912 -73.7837
   -45.6414 -44.9175 -44.7707 -44.5421 -44.4669 -44.4433 -44.4042 -44.3577
   -44.3496 -44.2896 -44.2688 -44.1494 -44.0983 -44.0595 -44.0266 -44.0097
   -43.9598 -43.9116 -43.7825 -43.7679 -43.7418 -43.6351 -43.6286 -43.5272
   -21.0522 -20.5913 -20.5053 -20.4496 -20.3339 -20.1588 -20.0527 -19.9625
   -19.9014 -19.8741 -19.6632 -19.6015 -19.5666 -19.5416 -19.4928 -19.4310
   -19.3581 -19.1587 -18.9896  -9.3938  -9.1949  -9.0389  -8.8377  -8.6870
    -8.6542  -8.5184  -8.4098  -8.1153  -7.9961  -7.9585  -7.8586  -7.8212
    -7.7723  -7.7131  -7.6138  -7.5056  -7.3350  -7.2461  -7.0583  -6.9829
    -6.8287  -6.5673  -6.5309  -6.3669  -6.2913  -6.1413  -6.0194  -5.9407
    -5.9097  -5.8771  -5.7697  -5.5538  -5.5129  -5.4026  -5.3635  -5.3150
    -5.2092  -5.1554  -5.1039  -4.9328  -4.8440  -4.7180  -4.6653  -4.5537
    -4.3997  -4.3102  -4.2415  -4.2035  -4.0720  -3.8718  -3.8373  -3.7637
    -3.4914  -3.4129  -3.3849  -3.0929  -3.0152  -2.6005  -2.5359  -2.5144
    -2.4544  -2.3468  -2.3094  -2.2497  -2.1380  -2.0704  -2.0034  -1.9657
    -1.8991  -1.4737  -1.4580  -1.3083  -1.2073  -0.8878  -0.7493  -0.6815
    -0.5350  -0.5000  -0.3876  -0.1152   0.7683   1.1884   1.5200   1.5803
     1.8380   2.2319   2.4377   2.7653   2.9047   3.0114   3.0615   3.2212
     3.2541   3.3734   3.5699   3.8278   3.9422   4.6824   4.7774   5.2631
     5.5658   5.6191   5.7813   6.3384   6.5495   6.6265   6.6873   6.7513
     6.8067   7.0128   7.0939   7.3150   7.5507   7.7617   7.8739   8.0049
     8.2287   8.3034   8.3683   8.4389   8.5178   8.5825   8.7281   8.7511
     8.9898   9.1524   9.2353   9.3401   9.4974   9.6043   9.7887   9.8343
     9.9817  10.0925  10.1352  10.1652  10.2980  10.3407  10.3948  10.4633
    10.5715  10.6590  10.7312  10.9110  10.9553  11.1074  11.1771  11.2495
    11.3826  11.4849  11.5052  11.5953  11.6750  11.7495  11.7980  11.8396
    11.9492  11.9960  12.1147  12.1549  12.2303  12.3134  12.4425  12.5175
    12.5775  12.6232  12.6717  12.7355  12.7874  12.8226  12.9381  13.0247
    13.0845  13.1634  13.2641  13.3618  13.4104  13.5092  13.5835  13.6287
    13.7764  13.8567  13.9444  14.0437  14.1311  14.1896  14.2454  14.3379
    14.4250  14.4648  14.5488  14.5848  14.6063  14.7619  14.8562  14.9020
    14.9961  15.0609  15.0955  15.2412  15.3191  15.4231  15.5276  15.5695
    15.6546  15.7287  15.7881  15.8448  15.8923  15.9267  15.9832  16.0890
    16.1206  16.2073  16.3023  16.3174  16.4097  16.4596  16.5475  16.6234
    16.6766  16.7334  16.7858  16.8243  16.9028  16.9433  16.9878  17.0554
    17.1580  17.2110  17.2878  17.3746  17.4075  17.4541  17.5186  17.5987
    17.7059  17.7473  17.8329  17.8444  17.9330  17.9820  18.0245  18.0566
    18.2200  18.2493  18.2817  18.3294  18.4534  18.5098  18.5576  18.6158
    18.7000  18.8273  18.8832  18.9006  19.0140  19.0910  19.1559  19.2013
    19.2588  19.3480  19.4253  19.4750  19.5192  19.6210  19.6991  19.7614
    19.8481  19.8943  19.9576  20.0346  20.0689  20.1838  20.3064  20.3744
    20.4400  20.5183  20.6168  20.7270  20.7576  20.8067  20.8725  20.9095
    20.9726  21.0417  21.1229  21.2064  21.2431  21.2864  21.3318  21.4075
    21.5296  21.5496  21.5794  21.6343  21.6736  21.8123  21.8315  21.9179
    21.9576  22.0043  22.0305  22.0933  22.1426

          k = 0.2500-0.4870 0.0000 ( 30468 PWs)   bands (ev):

   -75.1140 -74.3729 -74.3648 -74.1645 -74.1450 -73.8037 -73.7910 -73.7837
   -45.6415 -44.9178 -44.7700 -44.5418 -44.4669 -44.4433 -44.4042 -44.3583
   -44.3496 -44.2897 -44.2688 -44.1494 -44.1031 -44.0400 -44.0301 -44.0190
   -43.9621 -43.9113 -43.7824 -43.7676 -43.7417 -43.6348 -43.6290 -43.5272
   -21.0242 -20.5232 -20.4658 -20.4193 -20.2479 -20.1691 -20.0569 -19.9686
   -19.9428 -19.8811 -19.6563 -19.6128 -19.5826 -19.5747 -19.5101 -19.5013
   -19.4859 -19.1563 -18.9916  -9.3737  -8.9226  -8.7302  -8.6960  -8.6863
    -8.6575  -8.5867  -8.3838  -7.9610  -7.9186  -7.8543  -7.7708  -7.6943
    -7.6812  -7.5884  -7.5346  -7.4802  -7.3145  -7.1201  -7.0978  -6.9869
    -6.8778  -6.6656  -6.5215  -6.4688  -6.3858  -6.2915  -6.1959  -6.1096
    -6.0680  -6.0360  -5.9025  -5.7413  -5.6964  -5.5865  -5.5372  -5.4099
    -5.3186  -5.2776  -5.2561  -5.0178  -4.8456  -4.8323  -4.7563  -4.5687
    -4.4769  -4.2602  -4.1355  -4.0849  -3.9330  -3.8790  -3.7889  -3.5881
    -3.5412  -3.4139  -3.3349  -3.0279  -3.0142  -2.7697  -2.7054  -2.4697
    -2.4251  -2.3781  -2.2729  -2.1624  -2.1081  -2.0409  -1.9403  -1.8339
    -1.5792  -1.5032  -1.3753  -1.2512  -1.1210  -0.9932  -0.8732  -0.6403
    -0.5196  -0.4715  -0.2808  -0.2110   0.8000   0.9048   1.1928   1.5330
     2.0309   2.3097   2.5947   2.6226   2.8319   3.0219   3.0485   3.3444
     3.4320   3.5298   3.7334   3.7474   4.3902   4.8092   5.2258   5.4063
     5.4754   5.5880   5.9134   5.9237   6.0579   6.4005   6.5352   6.5876
     7.0152   7.2623   7.2991   7.3697   7.3900   7.4222   7.4954   7.5576
     7.7872   7.9456   8.1804   8.3273   8.4584   8.5020   8.5605   8.7094
     8.9038   8.9906   9.1093   9.2304   9.2919   9.3388   9.7082   9.9095
     9.9270  10.1813  10.2208  10.3020  10.3868  10.4860  10.6382  10.7521
    10.8990  11.1192  11.1601  11.2963  11.3632  11.4183  11.4950  11.5402
    11.5827  11.6730  11.7517  11.8762  11.8888  11.9224  11.9704  12.1031
    12.2455  12.3008  12.3331  12.4078  12.4520  12.5068  12.6250  12.6839
    12.7300  12.8251  12.8666  12.8983  12.9324  13.0006  13.1522  13.2453
    13.3222  13.3811  13.4075  13.4703  13.5589  13.6273  13.6425  13.7258
    13.8340  13.8657  13.9225  13.9980  14.0790  14.1675  14.2389  14.2960
    14.3811  14.5354  14.5861  14.5938  14.6385  14.7714  14.8238  14.8638
    14.9063  14.9225  14.9884  15.0575  15.1801  15.2256  15.2778  15.3788
    15.4056  15.4666  15.5335  15.5884  15.6299  15.8130  15.8922  15.9380
    15.9873  16.1229  16.1335  16.1885  16.2518  16.3387  16.4020  16.4260
    16.5376  16.6108  16.6430  16.6855  16.7493  16.8337  16.9104  17.0512
    17.0652  17.1279  17.1895  17.2454  17.2871  17.3604  17.4348  17.4811
    17.5059  17.5500  17.6355  17.7051  17.7277  17.8181  17.9790  18.1282
    18.2028  18.2563  18.2892  18.3343  18.4088  18.4444  18.4859  18.5334
    18.5800  18.6592  18.7076  18.7470  18.8375  18.8892  18.8945  18.9930
    19.0765  19.1029  19.1431  19.2263  19.2993  19.3494  19.3971  19.5819
    19.6467  19.6948  19.7564  19.7860  19.8539  19.9254  19.9750  19.9852
    20.0613  20.0783  20.1276  20.2551  20.2786  20.4830  20.5488  20.6679
    20.7624  20.8035  20.8686  20.9256  21.0233  21.0455  21.0621  21.1627
    21.2358  21.2731  21.3704  21.4967  21.6023  21.6320  21.7960  21.8513
    21.9571  22.0179  22.0599  22.1271  22.2334

          k =-0.5000 0.0000 0.0000 ( 30480 PWs)   bands (ev):

   -75.1134 -74.3693 -74.3679 -74.1630 -74.1448 -73.8029 -73.7882 -73.7857
   -45.6415 -44.9155 -44.7713 -44.4812 -44.4725 -44.4629 -44.4430 -44.3551
   -44.3524 -44.2797 -44.2786 -44.1492 -44.0649 -44.0640 -44.0250 -44.0228
   -43.9571 -43.9353 -43.7759 -43.7652 -43.7527 -43.6284 -43.5890 -43.5803
   -20.9399 -20.6223 -20.4406 -20.3921 -20.3165 -20.1880 -20.1668 -19.9628
   -19.9333 -19.7970 -19.7143 -19.5758 -19.5134 -19.4862 -19.4735 -19.4234
   -19.4179 -19.2836 -19.0025  -9.0319  -9.0154  -8.9157  -8.8714  -8.7797
    -8.7705  -8.5068  -8.4935  -8.3444  -8.1874  -8.1214  -8.0957  -7.8285
    -7.7435  -7.7217  -7.6636  -7.3736  -7.3014  -7.0876  -7.0080  -6.8179
    -6.7664  -6.6803  -6.5986  -6.4714  -6.3308  -6.2457  -6.1462  -6.0978
    -6.0629  -5.8087  -5.7298  -5.6729  -5.4464  -5.3828  -5.3127  -5.2913
    -5.2420  -5.1556  -5.1081  -5.0818  -4.7686  -4.6512  -4.6077  -4.5057
    -4.4081  -4.3761  -4.1686  -4.1605  -4.0815  -3.8401  -3.6449  -3.6003
    -3.5803  -3.4381  -3.3968  -3.3031  -3.2015  -2.7429  -2.6193  -2.5962
    -2.5411  -2.2922  -2.1267  -2.0678  -1.8103  -1.7748  -1.7345  -1.6118
    -1.5474  -1.4755  -1.2214  -1.2149  -1.1350  -1.1069  -1.0483  -0.9119
    -0.7160  -0.6727  -0.2761  -0.2550   0.7391   1.8194   1.9963   2.0355
     2.0805   2.1734   2.2485   2.4021   2.5234   2.7070   2.8081   2.8194
     2.8596   3.3089   3.5394   3.6462   4.3914   4.4173   5.0970   5.2303
     5.2790   5.4070   5.7387   5.8706   6.2077   6.3182   6.7899   6.9248
     7.1483   7.3084   7.3532   7.4447   7.9928   8.0831   8.1465   8.1864
     8.4371   8.4526   8.7464   8.8033   8.8319   8.8789   8.9043   8.9448
     8.9814   9.0769   9.2889   9.3497   9.4137   9.4587   9.5025   9.5297
     9.6366   9.8464  10.0161  10.1130  10.1777  10.1946  10.2139  10.3368
    10.3717  10.4164  10.4533  10.6162  10.7018  10.7364  10.8519  10.9164
    11.1022  11.1395  11.2272  11.4879  11.6964  11.7211  11.8373  11.9815
    12.0162  12.0646  12.1107  12.2252  12.3192  12.4260  12.4951  12.5383
    12.6201  12.7086  12.7655  12.7678  12.7993  12.8376  13.0544  13.0716
    13.1973  13.2271  13.3138  13.3456  13.6147  13.6761  13.7391  13.7710
    13.9141  13.9391  14.0196  14.0546  14.1562  14.3053  14.3333  14.4746
    14.5362  14.5687  14.6011  14.6655  14.7528  14.7653  14.8605  14.9262
    14.9461  15.0609  15.2114  15.2556  15.2868  15.3322  15.3893  15.4412
    15.4974  15.6573  15.9065  15.9101  16.0144  16.0697  16.3213  16.3526
    16.4263  16.4286  16.5143  16.5167  16.5687  16.6039  16.6190  16.6807
    16.7003  16.7302  16.7981  16.8052  16.8927  16.9182  16.9362  16.9917
    17.0067  17.0422  17.0804  17.2337  17.2741  17.4076  17.4371  17.6337
    17.7174  17.8052  17.8187  17.8652  18.0318  18.0534  18.1504  18.2226
    18.3123  18.3790  18.5478  18.5982  18.6149  18.7108  18.7250  18.8484
    18.9069  18.9585  19.1039  19.1703  19.2647  19.3572  19.3815  19.4296
    19.4372  19.4634  19.5630  19.6193  19.6448  19.6694  19.7305  19.8306
    19.8489  19.8751  20.0139  20.0257  20.0747  20.0940  20.1110  20.1944
    20.3316  20.3662  20.4355  20.4422  20.4671  20.5459  20.5776  20.5979
    20.6310  20.6909  20.7938  20.8430  20.8779  20.9718  21.1021  21.1714
    21.2061  21.2286  21.3569  21.4456  21.4808  21.5122  21.5518  21.5684
    21.6180  21.6293  21.6603  21.6680  21.7480

          k =-0.5000 0.2435 0.0000 ( 30444 PWs)   bands (ev):

   -75.1134 -74.3692 -74.3678 -74.1631 -74.1449 -73.8030 -73.7881 -73.7856
   -45.6415 -44.9157 -44.7706 -44.4810 -44.4725 -44.4628 -44.4430 -44.3546
   -44.3534 -44.2797 -44.2786 -44.1492 -44.0678 -44.0550 -44.0348 -44.0158
   -43.9595 -43.9363 -43.7756 -43.7652 -43.7526 -43.6287 -43.5888 -43.5801
   -20.9264 -20.5991 -20.4258 -20.3235 -20.2709 -20.1301 -20.1024 -19.9468
   -19.9014 -19.8012 -19.7323 -19.6287 -19.6064 -19.5363 -19.5303 -19.5248
   -19.4689 -19.2811 -19.0024  -9.0120  -8.8754  -8.7007  -8.6121  -8.5414
    -8.5209  -8.4333  -8.4227  -8.2793  -8.1994  -8.0878  -8.0801  -7.8756
    -7.7855  -7.7016  -7.6252  -7.3363  -7.2232  -7.0648  -6.9553  -6.8654
    -6.7729  -6.7145  -6.6764  -6.5892  -6.5260  -6.5017  -6.4095  -6.2221
    -5.9475  -5.9268  -5.7424  -5.6833  -5.6544  -5.5112  -5.4545  -5.2968
    -5.2113  -5.1453  -5.1278  -5.0676  -5.0471  -4.8980  -4.8032  -4.6024
    -4.5898  -4.5344  -4.3216  -4.2176  -4.0409  -3.9502  -3.6771  -3.5782
    -3.4396  -3.3853  -3.3315  -3.2786  -2.7599  -2.6111  -2.4746  -2.3053
    -2.2244  -2.1849  -2.1029  -2.0982  -1.9544  -1.8690  -1.7873  -1.6760
    -1.4522  -1.4484  -1.3542  -1.2363  -1.0585  -0.9788  -0.8733  -0.8667
    -0.7403  -0.6883  -0.3815  -0.3532   0.8578   1.5389   1.9090   1.9887
     2.0562   2.1265   2.1745   2.3094   2.3384   2.7214   2.7591   3.1059
     3.1208   3.3003   3.6398   3.7816   4.5843   4.6169   5.2735   5.4539
     5.4927   5.6279   5.9205   6.0289   6.2227   6.2824   6.5138   6.6704
     6.9337   7.2435   7.2597   7.3487   7.3855   7.4719   7.5001   7.6588
     7.7789   7.8767   8.1828   8.3548   8.4446   8.6127   8.6542   8.8676
     8.9378   9.0882   9.1419   9.2302   9.3217   9.4263   9.8605  10.0914
    10.1658  10.2607  10.2785  10.3848  10.4109  10.5504  10.6037  10.6699
    10.7436  10.8254  10.9919  11.0160  11.1937  11.2390  11.2899  11.3278
    11.4751  11.5035  11.6340  11.8201  11.9412  11.9902  12.0565  12.1430
    12.1852  12.2642  12.2953  12.4389  12.5054  12.5207  12.5763  12.6670
    12.7853  12.8480  12.9004  12.9517  13.0416  13.0755  13.2893  13.3309
    13.3746  13.4093  13.4284  13.5088  13.6256  13.7546  13.8258  13.9158
    13.9509  14.0407  14.0665  14.1517  14.2565  14.2881  14.3665  14.4005
    14.5504  14.5894  14.6009  14.6761  14.7346  14.7972  14.8096  14.8729
    14.9788  15.0095  15.0840  15.1512  15.1864  15.2467  15.2877  15.3121
    15.3753  15.3947  15.5488  15.5815  15.6377  15.6559  15.6820  15.7714
    15.8263  15.8428  15.9569  16.0727  16.1641  16.2141  16.3571  16.4221
    16.4426  16.5482  16.6053  16.6456  16.7014  16.7310  16.7881  16.8144
    16.8431  16.9204  17.0529  17.1230  17.2051  17.2522  17.3419  17.3812
    17.4408  17.5216  17.5776  17.6123  17.7882  17.9100  17.9509  17.9901
    18.0708  18.1211  18.2328  18.3172  18.3577  18.3914  18.5643  18.5865
    18.6643  18.7635  18.8065  18.8863  18.9074  18.9594  19.0218  19.0559
    19.0932  19.1178  19.1581  19.3190  19.3812  19.4941  19.5507  19.5965
    19.6542  19.6818  19.7698  19.8254  19.8572  19.9909  20.0961  20.1089
    20.1409  20.1831  20.3311  20.3681  20.3836  20.5906  20.6410  20.7123
    20.7670  20.8327  20.8898  20.9665  20.9969  21.1636  21.2090  21.3205
    21.3897  21.5041  21.5513  21.6110  21.6626  21.7562  21.7652  21.8879
    21.8922  21.9863  22.1242  22.1596  22.2418

          k =-0.5000-0.4870 0.0000 ( 30440 PWs)   bands (ev):

   -75.1135 -74.3691 -74.3677 -74.1631 -74.1450 -73.8031 -73.7880 -73.7855
   -45.6415 -44.9160 -44.7699 -44.4808 -44.4724 -44.4628 -44.4431 -44.3551
   -44.3534 -44.2797 -44.2786 -44.1492 -44.0618 -44.0607 -44.0252 -44.0232
   -43.9606 -43.9379 -43.7754 -43.7652 -43.7525 -43.6291 -43.5886 -43.5799
   -20.9133 -20.5778 -20.4118 -20.2360 -20.2269 -20.0153 -19.9527 -19.9132
   -19.9093 -19.7746 -19.7640 -19.7431 -19.7261 -19.6947 -19.6695 -19.5474
   -19.4683 -19.2800 -19.0030  -9.0053  -8.8731  -8.5243  -8.5012  -8.3601
    -8.3555  -8.2531  -8.1776  -7.9688  -7.9317  -7.8220  -7.8092  -7.6868
    -7.6678  -7.6510  -7.6048  -7.5201  -7.4641  -7.3085  -7.2191  -7.1463
    -6.9862  -6.8345  -6.7899  -6.7099  -6.5475  -6.5123  -6.4259  -6.1755
    -6.1322  -5.9401  -5.7740  -5.7218  -5.7153  -5.6953  -5.6403  -5.5964
    -5.5157  -5.4649  -5.3881  -5.1858  -5.1432  -5.0192  -4.9045  -4.4351
    -4.3826  -4.3360  -4.2517  -4.2064  -4.0758  -3.9544  -3.6781  -3.5515
    -3.4634  -3.3509  -3.1185  -3.1006  -2.6726  -2.5609  -2.4910  -2.4364
    -2.3579  -2.2671  -2.0191  -1.9517  -1.8849  -1.7586  -1.7040  -1.5503
    -1.3905  -1.3649  -1.3302  -1.2926  -1.0089  -0.9204  -0.8336  -0.7693
    -0.6748  -0.5508  -0.5207  -0.4891   0.9654   1.1423   1.7450   1.7498
     1.7702   2.1130   2.1866   2.2885   2.3378   2.8819   3.0000   3.0484
     3.4535   3.5776   3.5915   3.6593   4.9831   5.0265   5.4929   5.5061
     5.6376   6.1047   6.1208   6.1639   6.1708   6.2667   6.3013   6.3646
     6.5921   6.7364   6.7604   6.8597   7.0777   7.2416   7.3095   7.4288
     7.7416   8.0062   8.0289   8.1190   8.1992   8.2378   8.2863   8.3691
     8.8302   9.1111   9.1259   9.2533   9.2780   9.5570   9.6364   9.6637
     9.8524   9.8982  10.5041  10.5899  10.6066  10.9099  10.9260  10.9976
    11.0174  11.0884  11.4542  11.5543  11.8100  11.8423  11.8697  11.9408
    11.9978  12.0604  12.0767  12.1569  12.3882  12.5329  12.5406  12.5862
    12.6533  12.7500  12.7614  12.9316  13.0688  13.1282  13.1890  13.2332
    13.2833  13.3390  13.3524  13.3672  13.3979  13.4212  13.4932  13.5286
    13.5839  13.5893  13.6760  13.7495  13.7715  13.7889  13.7997  13.8402
    13.8647  13.8962  13.9017  13.9449  14.0049  14.0531  14.1153  14.1729
    14.2531  14.2588  14.2842  14.3090  14.3941  14.4013  14.5102  14.5628
    14.6169  14.6367  14.6848  14.6996  14.8339  14.9087  14.9791  15.0687
    15.1506  15.1646  15.2389  15.3074  15.3313  15.3895  15.4624  15.4782
    15.5129  15.5477  15.5913  15.6601  15.8212  15.9115  15.9366  15.9942
    16.0066  16.0996  16.2215  16.3369  16.4062  16.4584  16.4949  16.5067
    16.7452  16.7850  16.7881  16.8148  16.9548  17.0055  17.1103  17.1459
    17.2098  17.2376  17.3196  17.3516  17.3848  17.4916  17.5420  17.6348
    17.7321  17.7667  17.8663  17.9800  18.2345  18.3685  18.3880  18.4546
    18.5536  18.6520  18.7336  18.7381  18.7843  18.8508  18.8725  19.0269
    19.0348  19.2612  19.4338  19.4949  19.5220  19.5488  19.6730  19.7393
    19.7868  19.9206  20.0798  20.3395  20.3873  20.4608  20.4800  20.5620
    20.6301  20.6694  20.8025  20.8498  20.9256  20.9314  20.9664  21.0407
    21.0573  21.1144  21.2210  21.3003  21.3285  21.3434  21.3673  21.4037
    21.5255  21.5632  21.5796  21.6059  21.6293  21.6700  21.7078  21.7340
    21.7534  21.7895  21.8322  21.9027  22.0440

          k =-0.2500 0.2435 0.0000 ( 30434 PWs)   bands (ev):

   -75.1139 -74.3730 -74.3648 -74.1644 -74.1448 -73.8036 -73.7912 -73.7837
   -45.6414 -44.9175 -44.7707 -44.5421 -44.4669 -44.4433 -44.4042 -44.3578
   -44.3496 -44.2896 -44.2688 -44.1494 -44.1018 -44.0537 -44.0193 -44.0174
   -43.9639 -43.9093 -43.7824 -43.7679 -43.7418 -43.6351 -43.6286 -43.5272
   -21.0523 -20.5914 -20.5050 -20.4494 -20.3337 -20.1582 -20.0516 -19.9616
   -19.9007 -19.8815 -19.6636 -19.5973 -19.5674 -19.5402 -19.4929 -19.4309
   -19.3592 -19.1586 -18.9896  -9.3920  -9.1952  -9.0396  -8.8345  -8.6886
    -8.6537  -8.5404  -8.3809  -8.1204  -8.0286  -7.9406  -7.8743  -7.8354
    -7.7380  -7.7148  -7.6117  -7.5165  -7.3515  -7.2187  -7.0531  -6.9836
    -6.8134  -6.5747  -6.5157  -6.3572  -6.2845  -6.1803  -6.0065  -5.9405
    -5.9133  -5.8329  -5.7560  -5.5959  -5.5236  -5.4348  -5.3692  -5.3310
    -5.2257  -5.1206  -5.0838  -4.9960  -4.7977  -4.7206  -4.6529  -4.5440
    -4.4045  -4.3136  -4.2417  -4.1822  -4.0675  -3.9327  -3.8325  -3.7310
    -3.5279  -3.4352  -3.2997  -3.0948  -3.0159  -2.6056  -2.5429  -2.5132
    -2.4961  -2.3250  -2.2869  -2.2558  -2.1363  -2.1172  -2.0216  -1.9440
    -1.8420  -1.4864  -1.4557  -1.3093  -1.2147  -0.8796  -0.7676  -0.6917
    -0.5361  -0.4960  -0.3658  -0.1219   0.7681   1.1890   1.5264   1.5720
     1.8386   2.2356   2.4404   2.7637   2.9035   3.0068   3.0693   3.2132
     3.2666   3.3742   3.5524   3.8279   3.9458   4.6825   4.7771   5.2682
     5.5895   5.6356   5.7709   6.3355   6.5545   6.6201   6.6815   6.7442
     6.8046   6.9617   7.0921   7.3101   7.5628   7.7768   7.8782   7.9956
     8.2350   8.3147   8.3562   8.4508   8.5344   8.5811   8.7080   8.7564
     8.9768   9.1687   9.2237   9.3400   9.5012   9.6215   9.7911   9.8534
     9.9792  10.0755  10.1314  10.1503  10.2945  10.3340  10.3507  10.5041
    10.5926  10.6474  10.7123  10.8943  10.9524  11.0978  11.1793  11.2714
    11.4028  11.4973  11.5092  11.5856  11.6788  11.7508  11.7969  11.8399
    11.9477  12.0068  12.1251  12.1688  12.2361  12.3209  12.4804  12.5129
    12.5783  12.6181  12.6686  12.7441  12.8058  12.8574  12.9277  13.0229
    13.0814  13.1710  13.2830  13.3709  13.4059  13.5050  13.5468  13.6344
    13.7687  13.8298  13.9442  14.0033  14.1381  14.1861  14.2168  14.2980
    14.4330  14.4721  14.5694  14.5953  14.6153  14.7580  14.8547  14.9084
    15.0128  15.0561  15.0947  15.1965  15.3229  15.4188  15.5558  15.5879
    15.6481  15.7111  15.7883  15.8305  15.8683  15.9323  15.9736  16.0701
    16.1033  16.1694  16.3019  16.3252  16.3604  16.4533  16.5537  16.6187
    16.6697  16.7422  16.7874  16.8047  16.8774  16.9366  16.9881  17.0620
    17.1461  17.2180  17.2949  17.3854  17.4372  17.4752  17.5077  17.5989
    17.7079  17.7303  17.8324  17.8406  17.9263  17.9610  18.0442  18.0849
    18.2269  18.2477  18.2970  18.3288  18.4335  18.4885  18.6087  18.6413
    18.7052  18.8204  18.8653  18.9354  19.0556  19.1122  19.1752  19.1890
    19.2815  19.3491  19.4583  19.4941  19.5261  19.5890  19.7108  19.7538
    19.8359  19.8900  19.9460  20.0047  20.1482  20.1986  20.3043  20.3684
    20.4743  20.5570  20.5949  20.6683  20.7846  20.8152  20.8910  20.9039
    20.9683  21.0435  21.1102  21.1604  21.2401  21.3134  21.3544  21.4027
    21.5127  21.5441  21.5759  21.6243  21.6780  21.7655  21.8361  21.9501
    21.9652  22.0394  22.0559  22.0997  22.1495

     the Fermi energy is    -1.3665 ev

!    total energy              =   -2161.32236933 Ry
     Harris-Foulkes estimate   =   -2161.32237000 Ry
     estimated scf accuracy    <       0.00000082 Ry

     The total energy is the sum of the following terms:

     one-electron contribution =  -25070.75515764 Ry
     hartree contribution      =   12557.35211511 Ry
     xc contribution           =    -337.69196889 Ry
     ewald contribution        =   10687.69470232 Ry
     Hubbard energy            =       2.07813003 Ry
     smearing contrib. (-TS)   =      -0.00019026 Ry

     convergence has been achieved in  52 iterations

     Forces acting on atoms (Ry/au):


     negative rho (up, down):  0.574E+00 0.000E+00
     atom    1 type  1   force =    -0.00738064   -0.00878416    0.01217576
     atom    2 type  1   force =     0.00013129    0.00833086   -0.00036780
     atom    3 type  2   force =     0.03900076    0.00328970   -0.01580363
     atom    4 type  2   force =     0.00345525    0.00563627    0.00267483
     atom    5 type  1   force =     0.00143711   -0.03997811    0.00070414
     atom    6 type  1   force =     0.00392541    0.04114824    0.00055932
     atom    7 type  1   force =    -0.00003764   -0.00325853    0.03603342
     atom    8 type  1   force =    -0.00005472   -0.00163129   -0.01560414
     atom    9 type  2   force =    -0.00177921    0.00269247    0.00234530
     atom   10 type  2   force =     0.00004270   -0.00225942   -0.01557353
     atom   11 type  1   force =    -0.00334131    0.01155716   -0.00061793
     atom   12 type  1   force =    -0.00476208   -0.01218082    0.00002080
     atom   13 type  1   force =    -0.00128699   -0.00077370   -0.00131726
     atom   14 type  1   force =    -0.00540916   -0.00833708    0.01026328
     atom   15 type  1   force =    -0.00007630    0.00670165    0.00499511
     atom   16 type  2   force =    -0.03951574    0.00458150   -0.01566674
     atom   17 type  2   force =     0.00270976    0.00558212    0.00180892
     atom   18 type  1   force =    -0.00135094   -0.04103829    0.00059881
     atom   19 type  1   force =     0.00208104    0.04023707    0.00066475
     atom   20 type  1   force =    -0.00013018   -0.00342046    0.01228398
     atom   21 type  1   force =     0.00018546   -0.00160291   -0.01126226
[...]
    12.0541  12.1034  12.1530  12.2603  12.3513  12.4681  12.5725  12.5902
    12.6600  12.7245  12.7523  12.7639  12.8105  12.8556  13.0532  13.0666
    13.1902  13.2244  13.3025  13.3506  13.6117  13.6779  13.7495  13.7918
    13.9173  13.9414  14.0341  14.0715  14.2010  14.3327  14.4248  14.5258
    14.5879  14.6371  14.6557  14.7023  14.7763  14.8014  14.9057  14.9473
    14.9925  15.0621  15.2219  15.2838  15.3100  15.3348  15.4123  15.4715
    15.5770  15.7384  15.9210  15.9323  16.0134  16.0508  16.3042  16.3315
    16.4353  16.4378  16.4961  16.5030  16.5680  16.6004  16.6184  16.6961
    16.7079  16.7302  16.7885  16.7949  16.8870  16.9196  16.9368  16.9977
    17.0159  17.0486  17.0782  17.2349  17.2624  17.3992  17.4306  17.6424
    17.7237  17.7865  17.8012  17.8498  18.0282  18.0503  18.1387  18.2157
    18.2981  18.3431  18.5508  18.5865  18.6026  18.7021  18.7189  18.8616
    18.8939  18.9503  19.1193  19.1691  19.2632  19.3474  19.3716  19.4163
    19.4378  19.4523  19.5532  19.6198  19.6363  19.6626  19.7029  19.8175
    19.8363  19.8557  20.0070  20.0185  20.0731  20.0926  20.1035  20.1901
    20.3113  20.3484  20.4295  20.4383  20.4610  20.5357  20.5672  20.6001
    20.6432  20.6807  20.7966  20.8537  20.8879  20.9741  21.1021  21.1713
    21.2156  21.2353  21.3491  21.4434  21.4672  21.5038  21.5458  21.5894
    21.6259  21.6522  21.6685  21.6782  21.7471

          k =-0.5000 0.2435 0.0000 ( 30444 PWs)   bands (ev):

   -75.0812 -74.3227 -74.2827 -74.1526 -74.1495 -73.8101 -73.7143 -73.7083
   -45.6272 -44.8867 -44.7297 -44.4822 -44.4810 -44.4446 -44.3807 -44.2879
   -44.2819 -44.2386 -44.1965 -44.1927 -44.0480 -44.0358 -43.9710 -43.9487
   -43.9413 -43.9239 -43.7523 -43.7145 -43.7081 -43.6361 -43.4913 -43.4797
   -20.8691 -20.6775 -20.4333 -20.3135 -20.2792 -20.1032 -20.0585 -19.9215
   -19.8836 -19.7834 -19.7240 -19.6117 -19.5576 -19.5065 -19.4827 -19.4764
   -19.4562 -19.2646 -18.9203  -8.9879  -8.9352  -8.6587  -8.5977  -8.5627
    -8.5550  -8.4045  -8.3930  -8.2434  -8.1921  -8.0694  -8.0456  -7.8755
    -7.8159  -7.6932  -7.6357  -7.3607  -7.2398  -7.0739  -6.9422  -6.8320
    -6.7493  -6.6863  -6.6528  -6.5569  -6.5153  -6.4711  -6.3846  -6.2135
    -5.9212  -5.8744  -5.7683  -5.6822  -5.6468  -5.4774  -5.4197  -5.2304
    -5.1557  -5.1080  -5.0713  -5.0166  -5.0027  -4.8555  -4.7727  -4.5592
    -4.5376  -4.4768  -4.2720  -4.2009  -4.0421  -3.9031  -3.6656  -3.5577
    -3.4234  -3.3546  -3.3028  -3.2586  -2.6924  -2.5875  -2.4560  -2.2856
    -2.1947  -2.1411  -2.0686  -2.0658  -1.9357  -1.8562  -1.7643  -1.6516
    -1.4015  -1.3910  -1.2970  -1.1802  -0.9797  -0.9059  -0.8082  -0.7935
    -0.6670  -0.6299  -0.3176  -0.2817   0.9733   1.6127   1.9712   2.0354
     2.1158   2.1845   2.2328   2.3444   2.3507   2.7901   2.8511   3.1665
     3.2085   3.4250   3.7554   3.9156   4.5306   4.5773   5.3020   5.4324
     5.4708   5.6387   5.9051   6.0070   6.2013   6.2549   6.5073   6.6716
     6.9490   7.2327   7.2469   7.3414   7.3999   7.4960   7.5263   7.7085
     7.7707   7.8666   8.1941   8.3585   8.4713   8.6143   8.6650   8.8726
     8.9536   9.1149   9.1690   9.2547   9.3045   9.4057   9.8730  10.0946
    10.1859  10.2763  10.2945  10.3829  10.4195  10.5594  10.6119  10.6844
    10.7412  10.8367  10.9770  11.0046  11.2286  11.2713  11.2864  11.3612
    11.4678  11.5112  11.6351  11.8278  11.9874  12.0101  12.0917  12.1665
    12.2336  12.3006  12.3188  12.4581  12.5329  12.5434  12.5956  12.7076
    12.7969  12.8552  12.9064  12.9576  13.0377  13.0832  13.2854  13.3340
    13.3833  13.4116  13.4363  13.4943  13.6544  13.7607  13.8316  13.9380
    13.9752  14.0568  14.0889  14.1675  14.2733  14.3125  14.3913  14.4201
    14.5732  14.5945  14.6246  14.7229  14.7517  14.8382  14.8973  14.9174
    15.0005  15.0164  15.1048  15.1463  15.1891  15.2608  15.3037  15.3280
    15.3760  15.4086  15.5764  15.6063  15.6549  15.6643  15.7094  15.8002
    15.8477  15.8743  15.9713  16.0898  16.1686  16.2091  16.3506  16.4075
    16.4432  16.5521  16.6033  16.6402  16.6946  16.7275  16.7832  16.8075
    16.8358  16.9224  17.0523  17.1255  17.2107  17.2589  17.3422  17.3725
    17.4311  17.5242  17.5646  17.5898  17.7814  17.8949  17.9358  17.9847
    18.0629  18.1090  18.2225  18.3164  18.3576  18.3838  18.5468  18.5753
    18.6483  18.7674  18.8132  18.8879  18.9064  18.9440  19.0172  19.0608
    19.0929  19.1121  19.1558  19.3063  19.3868  19.4945  19.5304  19.5914
    19.6418  19.6731  19.7583  19.8255  19.8555  19.9990  20.0961  20.1042
    20.1369  20.1940  20.3270  20.3679  20.3764  20.6057  20.6514  20.7186
    20.7726  20.8442  20.8964  20.9829  21.0089  21.1700  21.2174  21.3254
    21.3940  21.4971  21.5502  21.5938  21.6462  21.7854  21.8055  21.8856
    21.8924  21.9987  22.1367  22.1654  22.2524

          k =-0.5000-0.4870 0.0000 ( 30440 PWs)   bands (ev):

   -75.0812 -74.3226 -74.2826 -74.1527 -74.1496 -73.8102 -73.7142 -73.7082
   -45.6272 -44.8869 -44.7291 -44.4822 -44.4810 -44.4444 -44.3806 -44.2882
   -44.2821 -44.2386 -44.1964 -44.1929 -44.0464 -44.0355 -43.9630 -43.9582
   -43.9361 -43.9296 -43.7519 -43.7145 -43.7081 -43.6365 -43.4911 -43.4795
   -20.8545 -20.6632 -20.4223 -20.2575 -20.2474 -19.9719 -19.9208 -19.8779
   -19.8474 -19.7398 -19.7315 -19.7019 -19.6794 -19.6527 -19.6482 -19.5501
   -19.4606 -19.2633 -18.9207  -8.9799  -8.9319  -8.5846  -8.5502  -8.3472
    -8.3263  -8.2194  -8.1324  -7.9652  -7.9105  -7.8496  -7.7946  -7.6734
    -7.6303  -7.6108  -7.5822  -7.4995  -7.4840  -7.2745  -7.1842  -7.1162
    -6.9751  -6.8474  -6.7763  -6.6821  -6.5149  -6.5045  -6.4141  -6.1906
    -6.1588  -5.8925  -5.8021  -5.6781  -5.6724  -5.6514  -5.5908  -5.5854
    -5.4950  -5.4254  -5.3511  -5.1176  -5.1114  -4.9565  -4.8752  -4.3886
    -4.3460  -4.2707  -4.1966  -4.1526  -4.0677  -3.9485  -3.6579  -3.5281
    -3.3966  -3.3243  -3.1029  -3.0907  -2.6496  -2.5226  -2.4438  -2.3869
    -2.3493  -2.2382  -2.0258  -1.9318  -1.8533  -1.7124  -1.6594  -1.5265
    -1.3452  -1.3108  -1.2625  -1.2379  -0.9383  -0.8464  -0.7457  -0.6833
    -0.6094  -0.5121  -0.4693  -0.4174   1.0817   1.2154   1.7790   1.7888
     1.8162   2.1740   2.2508   2.3026   2.3702   2.9907   3.1017   3.1701
     3.5001   3.6948   3.7196   3.7466   4.9076   4.9742   5.4529   5.4733
     5.6728   6.0976   6.0996   6.1527   6.1608   6.2608   6.3142   6.3718
     6.5809   6.7298   6.7488   6.8503   7.0794   7.2530   7.3077   7.4284
     7.7423   8.0216   8.0537   8.1459   8.2133   8.2906   8.3303   8.4330
     8.8766   9.1347   9.1371   9.2511   9.2779   9.5677   9.6438   9.6822
     9.8280   9.8837  10.5155  10.6052  10.6149  10.9333  10.9457  11.0108
    11.0471  11.1084  11.4534  11.6046  11.8381  11.8981  11.9037  11.9662
    12.0352  12.0403  12.0657  12.1812  12.3984  12.5434  12.5510  12.6022
    12.6811  12.7799  12.7957  12.9776  13.0746  13.1666  13.2083  13.2506
    13.3074  13.3348  13.3442  13.3705  13.4121  13.4276  13.5040  13.5204
    13.5794  13.5872  13.6737  13.7565  13.7791  13.7945  13.8088  13.8295
    13.8665  13.8911  13.9131  13.9435  14.0206  14.0656  14.1495  14.2139
    14.2517  14.2610  14.2891  14.3078  14.4143  14.4269  14.5083  14.5592
    14.6153  14.6526  14.6987  14.7144  14.8453  14.9135  14.9931  15.0745
    15.1531  15.1798  15.2534  15.2995  15.3242  15.3777  15.4643  15.4820
    15.5262  15.5657  15.5994  15.6639  15.8207  15.9019  15.9510  16.0011
    16.0091  16.1162  16.2253  16.3497  16.4227  16.4966  16.5163  16.5892
    16.7603  16.7842  16.8234  16.8408  16.9509  17.0026  17.1157  17.1444
    17.2096  17.2393  17.3324  17.3642  17.4015  17.5075  17.5526  17.6334
    17.7049  17.7471  17.8394  17.9471  18.2319  18.3638  18.4024  18.4631
    18.5628  18.6559  18.7400  18.7526  18.7908  18.8527  18.8703  19.0194
    19.0275  19.2406  19.4131  19.4817  19.5150  19.5325  19.6485  19.7271
    19.7739  19.9040  20.0712  20.3427  20.3625  20.4658  20.4806  20.5846
    20.6763  20.7190  20.8062  20.8607  20.9196  20.9373  20.9747  21.0487
    21.0641  21.1162  21.2117  21.2855  21.3167  21.3293  21.3537  21.3884
    21.5223  21.5407  21.5673  21.6041  21.6186  21.6754  21.7149  21.7476
    21.7530  21.7705  21.8304  21.9319  22.0920

          k =-0.2500 0.2435 0.0000 ( 30434 PWs)   bands (ev):

   -75.0817 -74.3236 -74.2828 -74.1557 -74.1477 -73.8107 -73.7165 -73.7074
   -45.6271 -44.8886 -44.7298 -44.4941 -44.4850 -44.4698 -44.3366 -44.2898
   -44.2795 -44.2410 -44.1966 -44.1906 -44.0806 -44.0309 -43.9616 -43.9537
   -43.9404 -43.8978 -43.7475 -43.7290 -43.6956 -43.6360 -43.5377 -43.4280
   -21.0220 -20.5813 -20.5356 -20.4577 -20.3160 -20.1340 -20.0670 -19.9266
   -19.9041 -19.8424 -19.6264 -19.5933 -19.5569 -19.4981 -19.4640 -19.3752
   -19.3065 -19.1532 -18.9098  -9.4051  -9.1595  -9.0040  -8.8290  -8.7214
    -8.7021  -8.5176  -8.3748  -8.0884  -8.0230  -7.9346  -7.8683  -7.8154
    -7.7272  -7.6938  -7.6063  -7.5201  -7.3566  -7.2339  -7.0402  -6.9762
    -6.7811  -6.5425  -6.5132  -6.3284  -6.2446  -6.1593  -5.9928  -5.9260
    -5.8869  -5.8115  -5.7358  -5.5917  -5.5050  -5.3864  -5.3231  -5.2854
    -5.2020  -5.0831  -5.0406  -4.9789  -4.7739  -4.7017  -4.6215  -4.5047
    -4.3601  -4.2925  -4.2073  -4.1460  -4.0168  -3.9038  -3.8145  -3.7074
    -3.4925  -3.4134  -3.2652  -3.0661  -2.9688  -2.5629  -2.5199  -2.4804
    -2.4657  -2.2854  -2.2505  -2.2240  -2.1039  -2.0837  -1.9753  -1.9114
    -1.7711  -1.4299  -1.4224  -1.2390  -1.1495  -0.8130  -0.7046  -0.6071
    -0.4876  -0.4340  -0.3102  -0.0500   0.8762   1.2478   1.5746   1.6139
     1.9093   2.3182   2.5047   2.7809   2.9657   3.0544   3.1731   3.2536
     3.3785   3.4271   3.6809   3.8221   4.0504   4.6939   4.7727   5.2575
     5.5438   5.5920   5.7674   6.3507   6.5392   6.5982   6.6843   6.7594
     6.8429   6.9487   7.0808   7.2993   7.5648   7.7829   7.8966   7.9932
     8.2309   8.3217   8.3711   8.4913   8.5308   8.6055   8.7081   8.7601
     8.9697   9.1738   9.2486   9.3651   9.5157   9.6192   9.8077   9.8646
    10.0053  10.0880  10.1233  10.1557  10.2777  10.3504  10.3680  10.4960
    10.5972  10.6483  10.7203  10.9061  10.9547  11.1094  11.2045  11.2913
    11.4022  11.5269  11.5432  11.6005  11.6756  11.7849  11.8256  11.8673
    11.9538  12.0171  12.1199  12.1858  12.2445  12.3272  12.4956  12.5291
    12.5992  12.6206  12.7055  12.7428  12.8334  12.8593  12.9364  13.0241
    13.0850  13.1932  13.2893  13.3705  13.4243  13.5142  13.5889  13.6580
    13.7837  13.8438  13.9663  14.0118  14.1488  14.2021  14.2494  14.3361
    14.4461  14.4995  14.5684  14.6194  14.6619  14.8118  14.8748  14.9527
    15.0516  15.0933  15.1377  15.2354  15.3338  15.4216  15.5459  15.5926
    15.6501  15.7155  15.7861  15.8414  15.9008  15.9424  15.9799  16.0796
    16.1090  16.1741  16.3030  16.3264  16.3612  16.4542  16.5517  16.6240
    16.6728  16.7389  16.7828  16.8153  16.8857  16.9338  16.9796  17.0769
    17.1593  17.2182  17.3008  17.3897  17.4259  17.4729  17.5067  17.6070
    17.7099  17.7252  17.8323  17.8631  17.9207  17.9578  18.0332  18.0802
    18.2227  18.2434  18.2988  18.3206  18.4252  18.5064  18.6136  18.6448
    18.6859  18.8226  18.8463  18.9263  19.0410  19.1024  19.1631  19.1901
    19.2879  19.3556  19.4561  19.4968  19.5262  19.6193  19.7369  19.7619
    19.8482  19.8929  19.9576  19.9958  20.1709  20.2008  20.3102  20.3829
    20.4902  20.5602  20.6273  20.6806  20.7938  20.8039  20.8861  20.9045
    20.9669  21.0472  21.1032  21.1706  21.2481  21.3057  21.3482  21.4001
    21.5179  21.5343  21.5873  21.6483  21.6999  21.7736  21.8275  21.9484
    21.9721  22.0348  22.0445  22.1025  22.1489

     the Fermi energy is    -1.3127 ev

!    total energy              =   -2161.32554096 Ry
     Harris-Foulkes estimate   =   -2161.32554096 Ry
     estimated scf accuracy    <          5.2E-09 Ry

     The total energy is the sum of the following terms:

     one-electron contribution =  -25166.35191488 Ry
     hartree contribution      =   12605.47197483 Ry
     xc contribution           =    -337.78905872 Ry
     ewald contribution        =   10735.27143957 Ry
     Hubbard energy            =       2.07210123 Ry
     smearing contrib. (-TS)   =      -0.00008299 Ry

     convergence has been achieved in  27 iterations

     Forces acting on atoms (Ry/au):


     negative rho (up, down):  0.575E+00 0.000E+00
     atom    1 type  1   force =    -0.00509704   -0.00804557   -0.00035084
     atom    2 type  1   force =     0.00017561    0.00242529   -0.00082408
     atom    3 type  2   force =     0.03290100    0.00374085   -0.00080220
     atom    4 type  2   force =     0.00263151    0.00508860    0.00035203
     atom    5 type  1   force =     0.00271984   -0.04101235   -0.00009165
     atom    6 type  1   force =     0.00389391    0.04186072   -0.00004079
     atom    7 type  1   force =    -0.00029320   -0.00257743    0.00072951
     atom    8 type  1   force =     0.00146544   -0.00174068    0.00096628
     atom    9 type  2   force =    -0.00245405    0.00338094    0.00085448
     atom   10 type  2   force =     0.00019215   -0.00242939   -0.00005452
     atom   11 type  1   force =    -0.00624066    0.01367211    0.00057355
     atom   12 type  1   force =    -0.00817122   -0.01450161    0.00058454
     atom   13 type  1   force =     0.00094541   -0.00100623   -0.00025338
     atom   14 type  1   force =    -0.00448609   -0.00776161   -0.00014770
     atom   15 type  1   force =    -0.00009686    0.00275204   -0.00053823
     atom   16 type  2   force =    -0.03317345    0.00485841   -0.00079815
     atom   17 type  2   force =     0.00229436    0.00514029    0.00020710
     atom   18 type  1   force =    -0.00130385   -0.04162998   -0.00009762
     atom   19 type  1   force =     0.00118565    0.04080103   -0.00000638
     atom   20 type  1   force =    -0.00051330   -0.00340898    0.00043764
     atom   21 type  1   force =    -0.00149843   -0.00164198    0.00077386
     atom   22 type  2   force =     0.00161082    0.00318089    0.00027595
     atom   23 type  2   force =    -0.00064189    0.00152076   -0.00024022
     atom   24 type  1   force =     0.00705737    0.01528345    0.00024186
     atom   25 type  1   force =     0.00864171   -0.01632968    0.00021773
     atom   26 type  1   force =    -0.00253247   -0.00149123   -0.00036793
     atom   27 type  3   force =     0.00001353    0.00034719   -0.00043098
     atom   28 type  3   force =     0.00000692   -0.00011179   -0.00075576
     atom   29 type  3   force =     0.00031069   -0.00021124   -0.00020277
     atom   30 type  3   force =     0.00018364   -0.00014512   -0.00012358
     atom   31 type  1   force =     0.00027296   -0.00000772   -0.00008774

     Total force =     0.002812     Total SCF correction =     0.000149

     bfgs converged in  14 scf cycles and  13 bfgs steps
     (criteria: energy < 0.10E-03, force < 0.10E-02)

     End of BFGS Geometry Optimization

     Final energy   =   -2161.3255409557 Ry
Begin final coordinates

ATOMIC_POSITIONS (crystal)
O0       0.000000000   0.000000000   0.379416293    0   0   1
O0       0.000000000   0.500000000   0.403850437    0   0   1
Ru1      0.250000000   0.500000000   0.454623130    0   0   1
Ru1      0.000000000   0.000000000   0.452847677    0   0   1
O0       0.250000000   0.810000000   0.452958531    0   0   1
O0       0.250000000   0.190000000   0.452821723    0   0   1
O0       0.000000000   0.500000000   0.499184748    0   0   1
O0       0.000000000   0.000000000   0.525263242    0   0   1
Ru1      0.250000000   0.000000000   0.576159457    0   0   1
Ru1      0.000000000   0.500000000   0.568835637    0   0   1
O0       0.250000000   0.690000000   0.574796786    0   0   1
O0       0.250000000   0.310000000   0.574704226    0   0   1
O0       0.000000000   0.000000000   0.617777737    0   0   1
O0       0.500000000   0.000000000   0.379268490    0   0   1
O0       0.500000000   0.500000000   0.405006718    0   0   1
Ru1      0.750000000   0.500000000   0.454615302    0   0   1
Ru1      0.500000000   0.000000000   0.452674875    0   0   1
O0       0.750000000   0.810000000   0.452959333    0   0   1
O0       0.750000000   0.190000000   0.452842156    0   0   1
O0       0.500000000   0.500000000   0.503581093    0   0   1
O0       0.500000000   0.000000000   0.525455448    0   0   1
Ru1      0.750000000   0.000000000   0.575793012    0   0   1
Ru1      0.500000000   0.500000000   0.581768831    0   0   1
O0       0.750000000   0.690000000   0.574702381    0   0   1
O0       0.750000000   0.310000000   0.574463908    0   0   1
O0       0.500000000   0.000000000   0.616024062    0   0   1
H2      -0.000491446   0.624970292   0.382079567
H2       0.499380890   0.617913509   0.381052790
H2       0.145682363   0.029881614   0.366685068
H2       0.646231859   0.027531241   0.366565853
O0       0.500384987   0.497208912   0.646191489
End final coordinates



     init_run     :    106.61s CPU    109.57s WALL (       1 calls)
     electrons    :  66808.08s CPU  68828.43s WALL (      14 calls)
     update_pot   :    287.34s CPU    300.07s WALL (      13 calls)
     forces       :   1760.88s CPU   1782.33s WALL (      14 calls)

     Called by init_run:
     wfcinit      :     39.93s CPU     41.72s WALL (       1 calls)
     potinit      :      8.04s CPU      8.22s WALL (       1 calls)

     Called by electrons:
     c_bands      :  36653.37s CPU  37764.86s WALL (     370 calls)
     sum_band     :  12924.95s CPU  13304.47s WALL (     370 calls)
     v_of_rho     :    433.50s CPU    462.20s WALL (     379 calls)
     newd         :  17072.09s CPU  17247.44s WALL (     379 calls)
     mix_rho      :     79.99s CPU     82.77s WALL (     370 calls)

     Called by c_bands:
     init_us_2    :     83.14s CPU     83.98s WALL (    2349 calls)
     cegterg      :  36278.42s CPU  37348.85s WALL (    1110 calls)

     Called by *egterg:
     h_psi        :  21124.80s CPU  21804.25s WALL (    2836 calls)
     s_psi        :   2145.08s CPU   2174.30s WALL (    2920 calls)
     g_psi        :     46.67s CPU     46.86s WALL (    1723 calls)
     cdiaghg      :   2971.05s CPU   2986.96s WALL (    2779 calls)

     Called by h_psi:
     add_vuspsi   :   2092.84s CPU   2123.36s WALL (    2836 calls)
     vhpsi        :   2275.59s CPU   2302.18s WALL (    2836 calls)

     General routines
     calbec       :   5001.28s CPU   5056.03s WALL (   19778 calls)
     fft          :    531.76s CPU    634.85s WALL (    6195 calls)
     ffts         :      6.71s CPU      6.87s WALL (     749 calls)
     fftw         :  12097.64s CPU  12824.92s WALL ( 2046170 calls)
     interpolate  :     66.24s CPU     67.29s WALL (     749 calls)
     davcio       :      0.24s CPU     38.57s WALL (    2391 calls)

     Parallel routines
     fft_scatter  :   4735.12s CPU   5522.11s WALL ( 2053114 calls)
     Hubbard U routines
     new_ns       :    502.83s CPU    525.81s WALL (     370 calls)
     vhpsi        :   2275.59s CPU   2302.18s WALL (    2836 calls)
     force_hub    :    519.57s CPU    530.35s WALL (      14 calls)

     PWSCF        :    19h20m CPU       19h55m WALL


   This run was terminated on:  17:27:24  27Apr2014            

=------------------------------------------------------------------------------=
   JOB DONE.
=------------------------------------------------------------------------------=
---------------------------------------
Running PBS batch system epilogue script
Job id: 340441.audhumbla.fysik.dtu.dk
Username: zhonxu
Groupname: campgst
Jobname: RuO2/Eads-2-layers/O-U-4.0
Sessionid: 27685
Resources limits: neednodes=2:ppn=8:xeon8,nodes=2:ppn=8:xeon8,walltime=48:00:00
Resources used: cput=317:43:06,mem=17630612kb,vmem=21431684kb,walltime=19:55:10
Queuename: verylong
Accounting:
This job has allocated the following 16 nodes:
d063 d063 d063 d063 d063 d063 d063 d063 d036 d036 d036 d036 d036 d036 d036 d036
Finished epilogue job 340441.audhumbla.fysik.dtu.dk for zhonxu
