
     Program PWSCF v.5.0.2 (svn rev. 9656) starts on 30Apr2014 at  4:50:39 

     This program is part of the open-source Quantum ESPRESSO suite
     for quantum simulation of materials; please cite
         "P. Giannozzi et al., J. Phys.:Condens. Matter 21 395502 (2009);
          URL http://www.quantum-espresso.org", 
     in publications or presentations arising from this work. More details at
     http://www.quantum-espresso.org/quote.php

     Parallel version (MPI), running on    16 processors
     K-points division:     npool     =       4
     R & G space division:  proc/nbgrp/npool/nimage =       4

     Current dimensions of program PWSCF are:
     Max number of different atomic species (ntypx) = 10
     Max number of k-points (npk) =  40000
     Max angular momentum in pseudopotentials (lmaxx) =  3
     Reading input from pwscf.in
Warning: card &CELL ignored
Warning: card / ignored

     Subspace diagonalization in iterative solution of the eigenvalue problem:
     a serial algorithm will be used


     Parallelization info
     --------------------
     sticks:   dense  smooth     PW     G-vecs:    dense   smooth      PW
     Min        1424     456    126               337026    61014    9038
     Max        1425     457    127               337029    61047    9044
     Sum        5697    1827    505              1348107   244131   36167



     bravais-lattice index     =            0
     lattice parameter (alat)  =      11.7541  a.u.
     unit-cell volume          =    7139.8207 (a.u.)^3
     number of atoms/cell      =           31
     number of atomic types    =            3
     number of electrons       =       238.00
     number of Kohn-Sham states=          357
     kinetic-energy cutoff     =      40.0000  Ry
     charge density cutoff     =     500.0000  Ry
     convergence threshold     =      1.0E-06
     mixing beta               =       0.7000
     number of iterations used =            8  plain     mixing
     Exchange-correlation      = SLA  PW   PBE  PBE ( 1 4 3 4 0)
     EXX-fraction              =        0.00
     nstep                     =           50


     celldm(1)=  11.754097  celldm(2)=   0.000000  celldm(3)=   0.000000
     celldm(4)=   0.000000  celldm(5)=   0.000000  celldm(6)=   0.000000

     crystal axes: (cart. coord. in units of alat)
               a(1) = (   1.000000   0.000000   0.000000 )  
               a(2) = (   0.000000   1.034513   0.000000 )  
               a(3) = (   0.000000   0.000000   4.249947 )  

     reciprocal axes: (cart. coord. in units 2 pi/alat)
               b(1) = (  1.000000  0.000000  0.000000 )  
               b(2) = (  0.000000  0.966638  0.000000 )  
               b(3) = (  0.000000  0.000000  0.235297 )  


     PseudoPot. # 1 for O  read from file:
     /home/camp/zhonxu/pseudo/o_pbe_v1.01.uspp.F.UPF
     MD5 check sum: 2bcb18d16ea4b960afae9ec6d52f22d2
     Pseudo is Ultrasoft + core correction, Zval =  6.0
     Generated by new atomic code, or converted to UPF format
     Using radial grid of  737 points,  5 beta functions with: 
                l(1) =   0
                l(2) =   0
                l(3) =   1
                l(4) =   1
                l(5) =   2
     Q(r) pseudized with  8 coefficients,  rinner =    0.900   0.900   0.900
                                                       0.900   0.900

     PseudoPot. # 2 for Rh read from file:
     /home/camp/zhonxu/pseudo/rh_pbe_v1.uspp.F.UPF
     MD5 check sum: 37b626987ad0dd8ec6bf4cc9ef289918
     Pseudo is Ultrasoft + core correction, Zval = 15.0
     Generated by new atomic code, or converted to UPF format
     Using radial grid of  969 points,  7 beta functions with: 
                l(1) =   0
                l(2) =   0
                l(3) =   1
                l(4) =   1
                l(5) =   2
                l(6) =   2
                l(7) =   2
     Q(r) pseudized with  6 coefficients,  rinner =    1.050   1.050   1.050
                                                       1.050   1.050

     PseudoPot. # 3 for H  read from file:
     /home/camp/zhonxu/pseudo/h_pbe_v1.uspp.F.UPF
     MD5 check sum: 3408e3ff4ec8b0a4e358431e7e038a48
     Pseudo is Ultrasoft, Zval =  1.0
     Generated by new atomic code, or converted to UPF format
     Using radial grid of  615 points,  2 beta functions with: 
                l(1) =   0
                l(2) =   0
     Q(r) pseudized with  8 coefficients,  rinner =    0.700

     atomic species   valence    mass     pseudopotential
        O0             6.00    15.99940     O ( 1.00)
        Rh1           15.00   102.90550     Rh( 1.00)
        H2             1.00     1.00794     H ( 1.00)


     Simplified LDA+U calculation (l_max = 2) with parameters (eV):
     atomic species    L          U    alpha       J0     beta
        Rh1            2     7.0000   0.0000   0.0000   0.0000



     No symmetry found



   Cartesian axes

     site n.     atom                  positions (alat units)
         1           O0  tau(   1) = (   0.0000000   0.0000000   1.6064375  )
         2           O0  tau(   2) = (   0.0000000   0.5172566   1.7091588  )
         3           Rh1 tau(   3) = (   0.2500000   0.5172566   1.9262886  )
         4           Rh1 tau(   4) = (   0.0000000   0.0000000   1.9228036  )
         5           O0  tau(   5) = (   0.2500000   0.8379556   1.9220386  )
         6           O0  tau(   6) = (   0.2500000   0.1965575   1.9215286  )
         7           O0  tau(   7) = (   0.0000000   0.5172566   2.1200437  )
         8           O0  tau(   8) = (   0.0000000   0.0000000   2.2432071  )
         9           Rh1 tau(   9) = (   0.2500000   0.0000000   2.4439746  )
        10           Rh1 tau(  10) = (   0.0000000   0.5172566   2.4253174  )
        11           O0  tau(  11) = (   0.2500000   0.7138141   2.4432947  )
        12           O0  tau(  12) = (   0.2500000   0.3206991   2.4432097  )
        13           O0  tau(  13) = (   0.0000000   0.0000000   2.6356898  )
        14           O0  tau(  14) = (   0.5000000   0.0000000   1.6064375  )
        15           O0  tau(  15) = (   0.5000000   0.5172566   1.7079263  )
        16           Rh1 tau(  16) = (   0.7500000   0.5172566   1.9262886  )
        17           Rh1 tau(  17) = (   0.5000000   0.0000000   1.9227611  )
        18           O0  tau(  18) = (   0.7500000   0.8379556   1.9219536  )
        19           O0  tau(  19) = (   0.7500000   0.1965575   1.9216136  )
        20           O0  tau(  20) = (   0.5000000   0.5172566   2.1284161  )
        21           O0  tau(  21) = (   0.5000000   0.0000000   2.2423572  )
        22           Rh1 tau(  22) = (   0.7500000   0.0000000   2.4439321  )
        23           Rh1 tau(  23) = (   0.5000000   0.5172566   2.4652244  )
        24           O0  tau(  24) = (   0.7500000   0.7138141   2.4431672  )
        25           O0  tau(  25) = (   0.7500000   0.3206991   2.4432097  )
        26           O0  tau(  26) = (   0.5000000   0.0000000   2.6354348  )
        27           H2  tau(  27) = (  -0.0000700   0.6590056   1.6354222  )
        28           H2  tau(  28) = (   0.4999300   0.6605366   1.6368247  )
        29           H2  tau(  29) = (   0.1480800   0.0354838   1.5606656  )
        30           H2  tau(  30) = (   0.6481100   0.0354321   1.5605806  )
        31           O0  tau(  31) = (   0.5000800   0.5160462   2.7479734  )

     number of k points=    10  Methfessel-Paxton smearing, width (Ry)=  0.0100
                       cart. coord. in units 2pi/alat
        k(    1) = (   0.0000000   0.0000000   0.0000000), wk =   0.1250000
        k(    2) = (   0.0000000   0.2416596   0.0000000), wk =   0.2500000
        k(    3) = (   0.0000000  -0.4833191   0.0000000), wk =   0.1250000
        k(    4) = (   0.2500000   0.0000000   0.0000000), wk =   0.2500000
        k(    5) = (   0.2500000   0.2416596   0.0000000), wk =   0.2500000
        k(    6) = (   0.2500000  -0.4833191   0.0000000), wk =   0.2500000
        k(    7) = (  -0.5000000   0.0000000   0.0000000), wk =   0.1250000
        k(    8) = (  -0.5000000   0.2416596   0.0000000), wk =   0.2500000
        k(    9) = (  -0.5000000  -0.4833191   0.0000000), wk =   0.1250000
        k(   10) = (  -0.2500000   0.2416596   0.0000000), wk =   0.2500000

     Dense  grid:  1348107 G-vectors     FFT dimensions: (  90,  90, 360)

     Smooth grid:   244131 G-vectors     FFT dimensions: (  48,  50, 216)

     Largest allocated arrays     est. size (Mb)     dimensions
        Kohn-Sham Wavefunctions        41.82 Mb     (   7677,  357)
        Atomic wavefunctions           20.62 Mb     (   7677,  176)
        NL pseudopotentials            51.43 Mb     (   7677,  439)
        Each V/rho on FFT grid         11.12 Mb     ( 729000)
        Each G-vector array             2.57 Mb     ( 337026)
        G-vector shells                 1.12 Mb     ( 146445)
     Largest temporary arrays     est. size (Mb)     dimensions
        Auxiliary wavefunctions       167.28 Mb     (   7677, 1428)
        Each subspace H/S matrix       31.12 Mb     (1428,1428)
        Each <psi_i|beta_j> matrix      2.39 Mb     (    439,  357)
        Arrays for rho mixing          88.99 Mb     ( 729000,   8)

     Check: negative/imaginary core charge=   -0.000003    0.000000

     Initial potential from superposition of free atoms
     Check: negative starting charge=   -0.645358

     starting charge  233.99915, renormalised to  238.00000

     negative rho (up, down):  0.656E+00 0.000E+00
     Number of +U iterations with fixed ns =  0
     Starting occupations:
 --- enter write_ns ---
 LDA+U parameters:
U( 2)     =  7.00000000
alpha( 2) =  0.00000000
atom    3   Tr[ns(na)] =   7.00000
    eigenvalues: 
  0.700  0.700  0.700  0.700  0.700
    eigenvectors:
  1.000  0.000  0.000  0.000  0.000
  0.000  1.000  0.000  0.000  0.000
  0.000  0.000  1.000  0.000  0.000
  0.000  0.000  0.000  1.000  0.000
  0.000  0.000  0.000  0.000  1.000
    occupations:
  0.700  0.000  0.000  0.000  0.000
  0.000  0.700  0.000  0.000  0.000
  0.000  0.000  0.700  0.000  0.000
  0.000  0.000  0.000  0.700  0.000
  0.000  0.000  0.000  0.000  0.700
atom    4   Tr[ns(na)] =   7.00000
    eigenvalues: 
  0.700  0.700  0.700  0.700  0.700
    eigenvectors:
  1.000  0.000  0.000  0.000  0.000
  0.000  1.000  0.000  0.000  0.000
  0.000  0.000  1.000  0.000  0.000
  0.000  0.000  0.000  1.000  0.000
  0.000  0.000  0.000  0.000  1.000
    occupations:
  0.700  0.000  0.000  0.000  0.000
  0.000  0.700  0.000  0.000  0.000
  0.000  0.000  0.700  0.000  0.000
  0.000  0.000  0.000  0.700  0.000
  0.000  0.000  0.000  0.000  0.700
atom    9   Tr[ns(na)] =   7.00000
    eigenvalues: 
  0.700  0.700  0.700  0.700  0.700
    eigenvectors:
  1.000  0.000  0.000  0.000  0.000
  0.000  1.000  0.000  0.000  0.000
  0.000  0.000  1.000  0.000  0.000
  0.000  0.000  0.000  1.000  0.000
  0.000  0.000  0.000  0.000  1.000
    occupations:
  0.700  0.000  0.000  0.000  0.000
  0.000  0.700  0.000  0.000  0.000
  0.000  0.000  0.700  0.000  0.000
  0.000  0.000  0.000  0.700  0.000
  0.000  0.000  0.000  0.000  0.700
atom   10   Tr[ns(na)] =   7.00000
    eigenvalues: 
  0.700  0.700  0.700  0.700  0.700
    eigenvectors:
  1.000  0.000  0.000  0.000  0.000
  0.000  1.000  0.000  0.000  0.000
  0.000  0.000  1.000  0.000  0.000
  0.000  0.000  0.000  1.000  0.000
  0.000  0.000  0.000  0.000  1.000
    occupations:
  0.700  0.000  0.000  0.000  0.000
  0.000  0.700  0.000  0.000  0.000
  0.000  0.000  0.700  0.000  0.000
  0.000  0.000  0.000  0.700  0.000
  0.000  0.000  0.000  0.000  0.700
atom   16   Tr[ns(na)] =   7.00000
    eigenvalues: 
  0.700  0.700  0.700  0.700  0.700
    eigenvectors:
  1.000  0.000  0.000  0.000  0.000
  0.000  1.000  0.000  0.000  0.000
  0.000  0.000  1.000  0.000  0.000
  0.000  0.000  0.000  1.000  0.000
  0.000  0.000  0.000  0.000  1.000
    occupations:
  0.700  0.000  0.000  0.000  0.000
  0.000  0.700  0.000  0.000  0.000
  0.000  0.000  0.700  0.000  0.000
  0.000  0.000  0.000  0.700  0.000
  0.000  0.000  0.000  0.000  0.700
atom   17   Tr[ns(na)] =   7.00000
    eigenvalues: 
  0.700  0.700  0.700  0.700  0.700
    eigenvectors:
  1.000  0.000  0.000  0.000  0.000
  0.000  1.000  0.000  0.000  0.000
  0.000  0.000  1.000  0.000  0.000
  0.000  0.000  0.000  1.000  0.000
  0.000  0.000  0.000  0.000  1.000
    occupations:
  0.700  0.000  0.000  0.000  0.000
  0.000  0.700  0.000  0.000  0.000
  0.000  0.000  0.700  0.000  0.000
  0.000  0.000  0.000  0.700  0.000
  0.000  0.000  0.000  0.000  0.700
atom   22   Tr[ns(na)] =   7.00000
    eigenvalues: 
  0.700  0.700  0.700  0.700  0.700
    eigenvectors:
  1.000  0.000  0.000  0.000  0.000
  0.000  1.000  0.000  0.000  0.000
  0.000  0.000  1.000  0.000  0.000
  0.000  0.000  0.000  1.000  0.000
  0.000  0.000  0.000  0.000  1.000
    occupations:
  0.700  0.000  0.000  0.000  0.000
  0.000  0.700  0.000  0.000  0.000
  0.000  0.000  0.700  0.000  0.000
  0.000  0.000  0.000  0.700  0.000
  0.000  0.000  0.000  0.000  0.700
atom   23   Tr[ns(na)] =   7.00000
    eigenvalues: 
  0.700  0.700  0.700  0.700  0.700
    eigenvectors:
  1.000  0.000  0.000  0.000  0.000
  0.000  1.000  0.000  0.000  0.000
  0.000  0.000  1.000  0.000  0.000
  0.000  0.000  0.000  1.000  0.000
  0.000  0.000  0.000  0.000  1.000
    occupations:
  0.700  0.000  0.000  0.000  0.000
  0.000  0.700  0.000  0.000  0.000
  0.000  0.000  0.700  0.000  0.000
  0.000  0.000  0.000  0.700  0.000
  0.000  0.000  0.000  0.000  0.700
N of occupied +U levels =  56.0000000
 --- exit write_ns ---
 Atomic wfc used for LDA+U Projector are NOT orthogonalized
     Starting wfc are  176 randomized atomic wfcs

     total cpu time spent up to now is      124.4 secs

     per-process dynamical memory:   411.8 Mb

     Self-consistent Calculation

     iteration #  1     ecut=    40.00 Ry     beta=0.70
     Davidson diagonalization with overlap
     ethr =  1.00E-02,  avg # of iterations =  5.8
 --- enter write_ns ---
 LDA+U parameters:
U( 2)     =  7.00000000
alpha( 2) =  0.00000000
atom    3   Tr[ns(na)] =   6.94814
    eigenvalues: 
  0.455  0.489  0.729  0.869  0.931
    eigenvectors:
  0.000  0.208  0.002  0.000  0.790
  1.000  0.000  0.000  0.000  0.000
  0.000  0.000  0.991  0.006  0.003
  0.000  0.792  0.001  0.000  0.207
  0.000  0.000  0.006  0.994  0.000
    occupations:
  0.839 -0.005  0.010 -0.179  0.000
 -0.005  0.456  0.001  0.003 -0.004
  0.010  0.001  0.731 -0.004 -0.011
 -0.179  0.003 -0.004  0.581  0.000
  0.000 -0.004 -0.011  0.000  0.868
atom    4   Tr[ns(na)] =   6.34305
    eigenvalues: 
  0.478  0.503  0.525  0.714  0.951
    eigenvectors:
  0.000  0.992  0.001  0.000  0.007
  0.000  0.000  0.012  0.988  0.000
  0.000  0.001  0.987  0.012  0.000
  0.000  0.007  0.000  0.000  0.993
  1.000  0.000  0.000  0.000  0.000
    occupations:
  0.506 -0.000  0.001  0.039  0.000
 -0.000  0.711  0.021 -0.000 -0.001
  0.001  0.021  0.528  0.000  0.000
  0.039 -0.000  0.000  0.948 -0.000
  0.000 -0.001  0.000 -0.000  0.478
atom    9   Tr[ns(na)] =   7.56540
    eigenvalues: 
  0.497  0.509  0.889  0.917  0.970
    eigenvectors:
  0.000  0.154  0.000  0.000  0.845
  0.999  0.001  0.000  0.000  0.000
  0.000  0.000  0.318  0.682  0.000
  0.001  0.844  0.000  0.000  0.155
  0.000  0.000  0.682  0.318  0.000
    occupations:
  0.899 -0.001 -0.000 -0.167  0.000
 -0.001  0.497  0.000 -0.000 -0.000
 -0.000  0.000  0.908 -0.000 -0.013
 -0.167 -0.000 -0.000  0.580  0.000
  0.000 -0.000 -0.013  0.000  0.898
atom   10   Tr[ns(na)] =   7.65412
    eigenvalues: 
  0.483  0.520  0.915  0.942  0.967
    eigenvectors:
  0.000  0.988  0.000  0.000  0.012
  0.000  0.000  0.000  1.000  0.000
  0.000  0.000  1.000  0.000  0.000
  0.000  0.012  0.000  0.000  0.988
  1.000  0.000  0.000  0.000  0.000
    occupations:
  0.525 -0.000  0.002  0.048 -0.000
 -0.000  0.942 -0.000  0.000 -0.000
  0.002 -0.000  0.915  0.000  0.000
  0.048  0.000  0.000  0.961  0.000
 -0.000 -0.000  0.000  0.000  0.483
atom   16   Tr[ns(na)] =   6.94712
    eigenvalues: 
  0.455  0.489  0.729  0.869  0.931
    eigenvectors:
  0.000  0.208  0.002  0.000  0.790
  1.000  0.000  0.000  0.000  0.000
  0.000  0.000  0.989  0.008  0.003
  0.000  0.792  0.001  0.000  0.207
  0.000  0.000  0.008  0.992  0.000
    occupations:
  0.839  0.005  0.010 -0.179 -0.000
  0.005  0.455 -0.001 -0.003 -0.004
  0.010 -0.001  0.730 -0.004  0.013
 -0.179 -0.003 -0.004  0.581 -0.000
 -0.000 -0.004  0.013 -0.000  0.868
atom   17   Tr[ns(na)] =   6.31045
    eigenvalues: 
  0.478  0.502  0.504  0.719  0.953
    eigenvectors:
  0.000  0.238  0.754  0.000  0.008
  0.000  0.010  0.003  0.987  0.000
  0.000  0.750  0.237  0.013  0.000
  0.000  0.002  0.006  0.000  0.992
  1.000  0.000  0.000  0.000  0.000
    occupations:
  0.507 -0.000  0.001  0.039  0.000
 -0.000  0.716  0.024  0.000 -0.000
  0.001  0.024  0.505  0.001  0.000
  0.039  0.000  0.001  0.949  0.000
  0.000 -0.000  0.000  0.000  0.478
atom   22   Tr[ns(na)] =   7.56539
    eigenvalues: 
  0.497  0.509  0.890  0.917  0.970
    eigenvectors:
  0.001  0.153  0.000  0.000  0.845
  0.992  0.008  0.000  0.000  0.000
  0.000  0.000  0.316  0.684  0.000
  0.007  0.838  0.000  0.000  0.155
  0.000  0.000  0.684  0.316  0.000
    occupations:
  0.899  0.001 -0.000 -0.167  0.000
  0.001  0.497  0.000  0.001 -0.000
 -0.000  0.000  0.908 -0.000  0.013
 -0.167  0.001 -0.000  0.580  0.000
  0.000 -0.000  0.013  0.000  0.898
atom   23   Tr[ns(na)] =   6.90937
    eigenvalues: 
  0.474  0.547  0.720  0.754  0.960
    eigenvectors:
  0.000  0.993  0.000  0.000  0.007
  0.000  0.000  0.000  1.000  0.000
  0.000  0.000  1.000  0.000  0.000
  0.000  0.007  0.000  0.000  0.993
  1.000  0.000  0.000  0.000  0.000
    occupations:
  0.550  0.000 -0.001  0.034 -0.000
  0.000  0.754  0.001  0.000 -0.001
 -0.001  0.001  0.720 -0.000 -0.000
  0.034  0.000 -0.000  0.957 -0.000
 -0.000 -0.001 -0.000 -0.000  0.474
N of occupied +U levels =  56.2430340
 --- exit write_ns ---

     negative rho (up, down):  0.676E+00 0.000E+00

     total cpu time spent up to now is      512.9 secs

     total energy              =   -1966.05169702 Ry
     Harris-Foulkes estimate   =   -1979.31418443 Ry
     estimated scf accuracy    <      16.77344184 Ry

     iteration #  2     ecut=    40.00 Ry     beta=0.70
     Davidson diagonalization with overlap
     ethr =  7.05E-03,  avg # of iterations =  5.0

     negative rho (up, down):  0.623E+00 0.000E+00

     total cpu time spent up to now is      837.2 secs

     total energy              =   -1905.60434938 Ry
     Harris-Foulkes estimate   =   -2041.39579538 Ry
     estimated scf accuracy    <    1431.09159778 Ry

     iteration #  3     ecut=    40.00 Ry     beta=0.70
     Davidson diagonalization with overlap
     ethr =  7.05E-03,  avg # of iterations =  5.0

     negative rho (up, down):  0.595E+00 0.000E+00

     total cpu time spent up to now is     1185.2 secs

     total energy              =   -1961.52309525 Ry
     Harris-Foulkes estimate   =   -1996.80291535 Ry
     estimated scf accuracy    <     338.03852990 Ry

     iteration #  4     ecut=    40.00 Ry     beta=0.70
     Davidson diagonalization with overlap
     ethr =  7.05E-03,  avg # of iterations =  3.6

     negative rho (up, down):  0.605E+00 0.000E+00

     total cpu time spent up to now is     1406.1 secs

     total energy              =   -1975.69718816 Ry
     Harris-Foulkes estimate   =   -1979.45738474 Ry
     estimated scf accuracy    <      18.12278014 Ry

     iteration #  5     ecut=    40.00 Ry     beta=0.70
     Davidson diagonalization with overlap
     ethr =  7.05E-03,  avg # of iterations =  2.6

     negative rho (up, down):  0.616E+00 0.000E+00

     total cpu time spent up to now is     1605.7 secs

     total energy              =   -1977.08391511 Ry
     Harris-Foulkes estimate   =   -1978.14575916 Ry
     estimated scf accuracy    <      12.83347955 Ry

     iteration #  6     ecut=    40.00 Ry     beta=0.70
     Davidson diagonalization with overlap
     ethr =  5.39E-03,  avg # of iterations =  1.0

     negative rho (up, down):  0.626E+00 0.000E+00

     total cpu time spent up to now is     1812.0 secs

     total energy              =   -1977.35137128 Ry
     Harris-Foulkes estimate   =   -1977.71757030 Ry
     estimated scf accuracy    <       3.24830953 Ry

     iteration #  7     ecut=    40.00 Ry     beta=0.70
     Davidson diagonalization with overlap
     ethr =  1.36E-03,  avg # of iterations =  1.6

     negative rho (up, down):  0.633E+00 0.000E+00

     total cpu time spent up to now is     2009.0 secs

     total energy              =   -1977.32311813 Ry
     Harris-Foulkes estimate   =   -1977.63904997 Ry
     estimated scf accuracy    <       1.94138194 Ry

     iteration #  8     ecut=    40.00 Ry     beta=0.70
     Davidson diagonalization with overlap
     ethr =  8.16E-04,  avg # of iterations =  2.8

     negative rho (up, down):  0.646E+00 0.000E+00

     total cpu time spent up to now is     2212.9 secs

     total energy              =   -1977.48840967 Ry
     Harris-Foulkes estimate   =   -1977.68600752 Ry
     estimated scf accuracy    <       5.06908128 Ry

     iteration #  9     ecut=    40.00 Ry     beta=0.70
     Davidson diagonalization with overlap
     ethr =  8.16E-04,  avg # of iterations =  1.2

     negative rho (up, down):  0.659E+00 0.000E+00

     total cpu time spent up to now is     2402.2 secs

     total energy              =   -1977.43654476 Ry
     Harris-Foulkes estimate   =   -1977.61493762 Ry
     estimated scf accuracy    <       1.44741575 Ry

     iteration # 10     ecut=    40.00 Ry     beta=0.70
     Davidson diagonalization with overlap
     ethr =  6.08E-04,  avg # of iterations =  1.6

     negative rho (up, down):  0.676E+00 0.000E+00

     total cpu time spent up to now is     2599.9 secs

     total energy              =   -1977.44237066 Ry
     Harris-Foulkes estimate   =   -1977.60528573 Ry
     estimated scf accuracy    <       1.21783866 Ry

     iteration # 11     ecut=    40.00 Ry     beta=0.70
     Davidson diagonalization with overlap
     ethr =  5.12E-04,  avg # of iterations =  2.3

     negative rho (up, down):  0.682E+00 0.000E+00

     total cpu time spent up to now is     2798.9 secs

     total energy              =   -1977.43706210 Ry
     Harris-Foulkes estimate   =   -1977.62377097 Ry
     estimated scf accuracy    <       1.51333762 Ry

     iteration # 12     ecut=    40.00 Ry     beta=0.70
     Davidson diagonalization with overlap
     ethr =  5.12E-04,  avg # of iterations =  1.5

     negative rho (up, down):  0.686E+00 0.000E+00

     total cpu time spent up to now is     2987.8 secs

     total energy              =   -1977.45625738 Ry
     Harris-Foulkes estimate   =   -1977.62794853 Ry
     estimated scf accuracy    <       2.56033861 Ry

     iteration # 13     ecut=    40.00 Ry     beta=0.70
     Davidson diagonalization with overlap
     ethr =  5.12E-04,  avg # of iterations =  1.0

     negative rho (up, down):  0.685E+00 0.000E+00

     total cpu time spent up to now is     3178.2 secs

     total energy              =   -1977.51588436 Ry
     Harris-Foulkes estimate   =   -1977.54953628 Ry
     estimated scf accuracy    <       0.17900845 Ry

     iteration # 14     ecut=    40.00 Ry     beta=0.70
     Davidson diagonalization with overlap
     ethr =  7.52E-05,  avg # of iterations =  5.9

     negative rho (up, down):  0.688E+00 0.000E+00

     total cpu time spent up to now is     3395.0 secs

     total energy              =   -1977.48476608 Ry
     Harris-Foulkes estimate   =   -1977.58388868 Ry
     estimated scf accuracy    <       0.57836085 Ry

     iteration # 15     ecut=    40.00 Ry     beta=0.70
     Davidson diagonalization with overlap
     ethr =  7.52E-05,  avg # of iterations =  3.2

     negative rho (up, down):  0.688E+00 0.000E+00

     total cpu time spent up to now is     3596.5 secs

     total energy              =   -1977.47813284 Ry
     Harris-Foulkes estimate   =   -1977.61820097 Ry
     estimated scf accuracy    <       1.07582872 Ry

     iteration # 16     ecut=    40.00 Ry     beta=0.70
     Davidson diagonalization with overlap
     ethr =  7.52E-05,  avg # of iterations =  1.7

     negative rho (up, down):  0.687E+00 0.000E+00

     total cpu time spent up to now is     3790.9 secs

     total energy              =   -1977.53557573 Ry
     Harris-Foulkes estimate   =   -1977.54539268 Ry
     estimated scf accuracy    <       0.11107361 Ry

     iteration # 17     ecut=    40.00 Ry     beta=0.70
     Davidson diagonalization with overlap
     ethr =  4.67E-05,  avg # of iterations =  1.6

     negative rho (up, down):  0.688E+00 0.000E+00

     total cpu time spent up to now is     3984.8 secs

     total energy              =   -1977.53718877 Ry
     Harris-Foulkes estimate   =   -1977.54342463 Ry
     estimated scf accuracy    <       0.03561130 Ry

     iteration # 18     ecut=    40.00 Ry     beta=0.70
     Davidson diagonalization with overlap
     ethr =  1.50E-05,  avg # of iterations =  1.8

     negative rho (up, down):  0.688E+00 0.000E+00

     total cpu time spent up to now is     4185.2 secs

     total energy              =   -1977.53924023 Ry
     Harris-Foulkes estimate   =   -1977.54277376 Ry
     estimated scf accuracy    <       0.02711858 Ry

     iteration # 19     ecut=    40.00 Ry     beta=0.70
     Davidson diagonalization with overlap
     ethr =  1.14E-05,  avg # of iterations =  2.5

     negative rho (up, down):  0.688E+00 0.000E+00

     total cpu time spent up to now is     4389.2 secs

     total energy              =   -1977.53994739 Ry
     Harris-Foulkes estimate   =   -1977.54243457 Ry
     estimated scf accuracy    <       0.02492188 Ry

     iteration # 20     ecut=    40.00 Ry     beta=0.70
     Davidson diagonalization with overlap
     ethr =  1.05E-05,  avg # of iterations =  1.0

     negative rho (up, down):  0.688E+00 0.000E+00

     total cpu time spent up to now is     4578.1 secs

     total energy              =   -1977.54084650 Ry
     Harris-Foulkes estimate   =   -1977.54136721 Ry
     estimated scf accuracy    <       0.01018927 Ry

     iteration # 21     ecut=    40.00 Ry     beta=0.70
     Davidson diagonalization with overlap
     ethr =  4.28E-06,  avg # of iterations =  1.3

     negative rho (up, down):  0.688E+00 0.000E+00

     total cpu time spent up to now is     4769.6 secs

     total energy              =   -1977.54041203 Ry
     Harris-Foulkes estimate   =   -1977.54154103 Ry
     estimated scf accuracy    <       0.00584951 Ry

     iteration # 22     ecut=    40.00 Ry     beta=0.70
     Davidson diagonalization with overlap
     ethr =  2.46E-06,  avg # of iterations =  5.7

     negative rho (up, down):  0.689E+00 0.000E+00

     total cpu time spent up to now is     4989.1 secs

     total energy              =   -1977.53913179 Ry
     Harris-Foulkes estimate   =   -1977.54317565 Ry
     estimated scf accuracy    <       0.05738984 Ry

     iteration # 23     ecut=    40.00 Ry     beta=0.70
     Davidson diagonalization with overlap
     ethr =  2.46E-06,  avg # of iterations =  1.1

     negative rho (up, down):  0.689E+00 0.000E+00

     total cpu time spent up to now is     5184.7 secs

     total energy              =   -1977.53987957 Ry
     Harris-Foulkes estimate   =   -1977.54252048 Ry
     estimated scf accuracy    <       0.04161942 Ry

     iteration # 24     ecut=    40.00 Ry     beta=0.70
     Davidson diagonalization with overlap
     ethr =  2.46E-06,  avg # of iterations =  1.0

     negative rho (up, down):  0.689E+00 0.000E+00

     total cpu time spent up to now is     5381.1 secs

     total energy              =   -1977.54109473 Ry
     Harris-Foulkes estimate   =   -1977.54129704 Ry
     estimated scf accuracy    <       0.00143986 Ry

     iteration # 25     ecut=    40.00 Ry     beta=0.70
     Davidson diagonalization with overlap
     ethr =  6.05E-07,  avg # of iterations =  1.0

     negative rho (up, down):  0.689E+00 0.000E+00

     total cpu time spent up to now is     5582.8 secs

     total energy              =   -1977.54113440 Ry
     Harris-Foulkes estimate   =   -1977.54124386 Ry
     estimated scf accuracy    <       0.00052619 Ry

     iteration # 26     ecut=    40.00 Ry     beta=0.70
     Davidson diagonalization with overlap
     ethr =  2.21E-07,  avg # of iterations =  1.8

     negative rho (up, down):  0.689E+00 0.000E+00

     total cpu time spent up to now is     5780.0 secs

     total energy              =   -1977.54111126 Ry
     Harris-Foulkes estimate   =   -1977.54129495 Ry
     estimated scf accuracy    <       0.00115090 Ry

     iteration # 27     ecut=    40.00 Ry     beta=0.70
     Davidson diagonalization with overlap
     ethr =  2.21E-07,  avg # of iterations =  1.0

     negative rho (up, down):  0.689E+00 0.000E+00

     total cpu time spent up to now is     5970.1 secs

     total energy              =   -1977.54119162 Ry
     Harris-Foulkes estimate   =   -1977.54122207 Ry
     estimated scf accuracy    <       0.00052177 Ry

     iteration # 28     ecut=    40.00 Ry     beta=0.70
     Davidson diagonalization with overlap
     ethr =  2.19E-07,  avg # of iterations =  1.0

     negative rho (up, down):  0.689E+00 0.000E+00

     total cpu time spent up to now is     6157.7 secs

     total energy              =   -1977.54118999 Ry
     Harris-Foulkes estimate   =   -1977.54122747 Ry
     estimated scf accuracy    <       0.00035886 Ry

     iteration # 29     ecut=    40.00 Ry     beta=0.70
     Davidson diagonalization with overlap
     ethr =  1.51E-07,  avg # of iterations =  1.0

     negative rho (up, down):  0.689E+00 0.000E+00

     total cpu time spent up to now is     6349.2 secs

     total energy              =   -1977.54120030 Ry
     Harris-Foulkes estimate   =   -1977.54121800 Ry
     estimated scf accuracy    <       0.00013259 Ry

     iteration # 30     ecut=    40.00 Ry     beta=0.70
     Davidson diagonalization with overlap
     ethr =  5.57E-08,  avg # of iterations =  1.0

     negative rho (up, down):  0.689E+00 0.000E+00

     total cpu time spent up to now is     6538.1 secs

     total energy              =   -1977.54120792 Ry
     Harris-Foulkes estimate   =   -1977.54121193 Ry
     estimated scf accuracy    <       0.00003127 Ry

     iteration # 31     ecut=    40.00 Ry     beta=0.70
     Davidson diagonalization with overlap
     ethr =  1.31E-08,  avg # of iterations =  1.0

     negative rho (up, down):  0.689E+00 0.000E+00

     total cpu time spent up to now is     6729.0 secs

     total energy              =   -1977.54120490 Ry
     Harris-Foulkes estimate   =   -1977.54121601 Ry
     estimated scf accuracy    <       0.00007404 Ry

     iteration # 32     ecut=    40.00 Ry     beta=0.70
     Davidson diagonalization with overlap
     ethr =  1.31E-08,  avg # of iterations =  1.1

     negative rho (up, down):  0.689E+00 0.000E+00

     total cpu time spent up to now is     6918.4 secs

     total energy              =   -1977.54119831 Ry
     Harris-Foulkes estimate   =   -1977.54122382 Ry
     estimated scf accuracy    <       0.00024173 Ry

     iteration # 33     ecut=    40.00 Ry     beta=0.70
     Davidson diagonalization with overlap
     ethr =  1.31E-08,  avg # of iterations =  1.3

     negative rho (up, down):  0.689E+00 0.000E+00

     total cpu time spent up to now is     7107.4 secs

     total energy              =   -1977.54120839 Ry
     Harris-Foulkes estimate   =   -1977.54121383 Ry
     estimated scf accuracy    <       0.00010564 Ry

     iteration # 34     ecut=    40.00 Ry     beta=0.70
     Davidson diagonalization with overlap
     ethr =  1.31E-08,  avg # of iterations =  1.0

     negative rho (up, down):  0.689E+00 0.000E+00

     total cpu time spent up to now is     7296.4 secs

     total energy              =   -1977.54120994 Ry
     Harris-Foulkes estimate   =   -1977.54121262 Ry
     estimated scf accuracy    <       0.00002488 Ry

     iteration # 35     ecut=    40.00 Ry     beta=0.70
     Davidson diagonalization with overlap
     ethr =  1.05E-08,  avg # of iterations =  1.0

     negative rho (up, down):  0.689E+00 0.000E+00

     total cpu time spent up to now is     7484.7 secs

     total energy              =   -1977.54121008 Ry
     Harris-Foulkes estimate   =   -1977.54121276 Ry
     estimated scf accuracy    <       0.00001727 Ry

     iteration # 36     ecut=    40.00 Ry     beta=0.70
     Davidson diagonalization with overlap
     ethr =  7.26E-09,  avg # of iterations =  1.0

     negative rho (up, down):  0.689E+00 0.000E+00

     total cpu time spent up to now is     7674.8 secs

     total energy              =   -1977.54120966 Ry
     Harris-Foulkes estimate   =   -1977.54121269 Ry
     estimated scf accuracy    <       0.00003537 Ry

     iteration # 37     ecut=    40.00 Ry     beta=0.70
     Davidson diagonalization with overlap
     ethr =  7.26E-09,  avg # of iterations =  1.0

     negative rho (up, down):  0.689E+00 0.000E+00

     total cpu time spent up to now is     7868.3 secs

     total energy              =   -1977.54120770 Ry
     Harris-Foulkes estimate   =   -1977.54121518 Ry
     estimated scf accuracy    <       0.00014341 Ry

     iteration # 38     ecut=    40.00 Ry     beta=0.70
     Davidson diagonalization with overlap
     ethr =  7.26E-09,  avg # of iterations =  1.0

     negative rho (up, down):  0.689E+00 0.000E+00

     total cpu time spent up to now is     8060.3 secs

     total energy              =   -1977.54121113 Ry
     Harris-Foulkes estimate   =   -1977.54121208 Ry
     estimated scf accuracy    <       0.00000630 Ry

     iteration # 39     ecut=    40.00 Ry     beta=0.70
     Davidson diagonalization with overlap
     ethr =  2.65E-09,  avg # of iterations =  1.0

     negative rho (up, down):  0.689E+00 0.000E+00

     total cpu time spent up to now is     8256.9 secs

     total energy              =   -1977.54121153 Ry
     Harris-Foulkes estimate   =   -1977.54121178 Ry
     estimated scf accuracy    <       0.00000224 Ry

     iteration # 40     ecut=    40.00 Ry     beta=0.70
     Davidson diagonalization with overlap
     ethr =  9.40E-10,  avg # of iterations =  1.0

     negative rho (up, down):  0.689E+00 0.000E+00

     total cpu time spent up to now is     8455.5 secs

     total energy              =   -1977.54121161 Ry
     Harris-Foulkes estimate   =   -1977.54121176 Ry
     estimated scf accuracy    <       0.00000187 Ry

     iteration # 41     ecut=    40.00 Ry     beta=0.70
     Davidson diagonalization with overlap
     ethr =  7.85E-10,  avg # of iterations =  1.0

     negative rho (up, down):  0.689E+00 0.000E+00

     total cpu time spent up to now is     8654.7 secs

     total energy              =   -1977.54121153 Ry
     Harris-Foulkes estimate   =   -1977.54121187 Ry
     estimated scf accuracy    <       0.00000325 Ry

     iteration # 42     ecut=    40.00 Ry     beta=0.70
     Davidson diagonalization with overlap
     ethr =  7.85E-10,  avg # of iterations =  1.0

     negative rho (up, down):  0.689E+00 0.000E+00

     total cpu time spent up to now is     8855.5 secs

     total energy              =   -1977.54121163 Ry
     Harris-Foulkes estimate   =   -1977.54121177 Ry
     estimated scf accuracy    <       0.00000111 Ry

     iteration # 43     ecut=    40.00 Ry     beta=0.70
     Davidson diagonalization with overlap
     ethr =  4.65E-10,  avg # of iterations =  1.0

     negative rho (up, down):  0.689E+00 0.000E+00

     total cpu time spent up to now is     9052.6 secs

     total energy              =   -1977.54121153 Ry
     Harris-Foulkes estimate   =   -1977.54121186 Ry
     estimated scf accuracy    <       0.00000497 Ry

     iteration # 44     ecut=    40.00 Ry     beta=0.70
     Davidson diagonalization with overlap
     ethr =  4.65E-10,  avg # of iterations =  1.0

     negative rho (up, down):  0.689E+00 0.000E+00

     total cpu time spent up to now is     9254.5 secs

     total energy              =   -1977.54121163 Ry
     Harris-Foulkes estimate   =   -1977.54121179 Ry
     estimated scf accuracy    <       0.00000215 Ry

     iteration # 45     ecut=    40.00 Ry     beta=0.70
     Davidson diagonalization with overlap
     ethr =  4.65E-10,  avg # of iterations =  1.0

     negative rho (up, down):  0.689E+00 0.000E+00

     total cpu time spent up to now is     9456.4 secs

     total energy              =   -1977.54121164 Ry
     Harris-Foulkes estimate   =   -1977.54121177 Ry
     estimated scf accuracy    <       0.00000105 Ry

     iteration # 46     ecut=    40.00 Ry     beta=0.70
     Davidson diagonalization with overlap
     ethr =  4.42E-10,  avg # of iterations =  1.0

     negative rho (up, down):  0.689E+00 0.000E+00

     total cpu time spent up to now is     9657.8 secs

     total energy              =   -1977.54121158 Ry
     Harris-Foulkes estimate   =   -1977.54121185 Ry
     estimated scf accuracy    <       0.00000254 Ry

     iteration # 47     ecut=    40.00 Ry     beta=0.70
     Davidson diagonalization with overlap
     ethr =  4.42E-10,  avg # of iterations =  1.0

     negative rho (up, down):  0.689E+00 0.000E+00

     total cpu time spent up to now is     9862.8 secs

     total energy              =   -1977.54121162 Ry
     Harris-Foulkes estimate   =   -1977.54121183 Ry
     estimated scf accuracy    <       0.00000177 Ry

     iteration # 48     ecut=    40.00 Ry     beta=0.70
     Davidson diagonalization with overlap
     ethr =  4.42E-10,  avg # of iterations =  1.0

     negative rho (up, down):  0.689E+00 0.000E+00

     total cpu time spent up to now is    10066.5 secs

     End of self-consistent calculation
 --- enter write_ns ---
 LDA+U parameters:
U( 2)     =  7.00000000
alpha( 2) =  0.00000000
atom    3   Tr[ns(na)] =   8.10259
    eigenvalues: 
  0.581  0.601  0.922  0.967  0.980
    eigenvectors:
  0.015  0.183  0.002  0.000  0.799
  0.932  0.067  0.000  0.000  0.000
  0.000  0.000  0.975  0.023  0.002
  0.052  0.749  0.000  0.000  0.198
  0.000  0.000  0.023  0.976  0.001
    occupations:
  0.905 -0.005  0.001 -0.152 -0.001
 -0.005  0.582 -0.001 -0.003 -0.005
  0.001 -0.001  0.923 -0.004  0.007
 -0.152 -0.003 -0.004  0.675 -0.001
 -0.001 -0.005  0.007 -0.001  0.966
atom    4   Tr[ns(na)] =   8.11804
    eigenvalues: 
  0.595  0.649  0.895  0.938  0.981
    eigenvectors:
  0.001  0.991  0.000  0.000  0.008
  0.000  0.000  0.065  0.935  0.000
  0.000  0.000  0.935  0.065  0.000
  0.000  0.008  0.000  0.000  0.992
  0.999  0.001  0.000  0.000  0.000
    occupations:
  0.652 -0.004 -0.001  0.030  0.001
 -0.004  0.935  0.011  0.001 -0.000
 -0.001  0.011  0.898 -0.000  0.001
  0.030  0.001 -0.000  0.979  0.000
  0.001 -0.000  0.001  0.000  0.595
atom    9   Tr[ns(na)] =   8.12331
    eigenvalues: 
  0.633  0.639  0.890  0.919  0.981
    eigenvectors:
  0.007  0.144  0.000  0.000  0.849
  0.953  0.047  0.000  0.000  0.000
  0.000  0.000  0.902  0.098  0.000
  0.039  0.809  0.000  0.000  0.151
  0.000  0.000  0.098  0.902  0.000
    occupations:
  0.930  0.001 -0.000 -0.123 -0.000
  0.001  0.633  0.001  0.001 -0.000
 -0.000  0.001  0.893  0.000 -0.009
 -0.123  0.001  0.000  0.691  0.001
 -0.000 -0.000 -0.009  0.001  0.916
atom   10   Tr[ns(na)] =   8.08470
    eigenvalues: 
  0.578  0.589  0.944  0.951  0.981
    eigenvectors:
  0.990  0.000  0.000  0.000  0.010
  0.000  0.000  0.000  1.000  0.000
  0.000  0.000  1.000  0.000  0.000
  0.010  0.000  0.000  0.000  0.990
  0.000  1.000  0.000  0.000  0.000
    occupations:
  0.582  0.000  0.001  0.039 -0.000
  0.000  0.951 -0.000  0.000 -0.000
  0.001 -0.000  0.944  0.000  0.000
  0.039  0.000  0.000  0.977 -0.000
 -0.000 -0.000  0.000 -0.000  0.589
atom   16   Tr[ns(na)] =   8.10262
    eigenvalues: 
  0.581  0.601  0.922  0.967  0.980
    eigenvectors:
  0.014  0.184  0.002  0.000  0.799
  0.937  0.063  0.000  0.000  0.000
  0.000  0.000  0.981  0.017  0.002
  0.049  0.753  0.000  0.000  0.198
  0.000  0.000  0.016  0.983  0.001
    occupations:
  0.905  0.005  0.001 -0.152  0.001
  0.005  0.582  0.001  0.003 -0.005
  0.001  0.001  0.922 -0.004 -0.006
 -0.152  0.003 -0.004  0.676  0.000
  0.001 -0.005 -0.006  0.000  0.966
atom   17   Tr[ns(na)] =   8.11709
    eigenvalues: 
  0.596  0.649  0.895  0.936  0.982
    eigenvectors:
  0.001  0.991  0.000  0.000  0.008
  0.000  0.000  0.083  0.917  0.000
  0.000  0.000  0.917  0.083  0.000
  0.000  0.008  0.000  0.000  0.992
  0.999  0.001  0.000  0.000  0.000
    occupations:
  0.652 -0.004 -0.001  0.029  0.002
 -0.004  0.933  0.011  0.001 -0.001
 -0.001  0.011  0.899 -0.000  0.001
  0.029  0.001 -0.000  0.979  0.000
  0.002 -0.001  0.001  0.000  0.596
atom   22   Tr[ns(na)] =   8.12334
    eigenvalues: 
  0.633  0.639  0.890  0.918  0.981
    eigenvectors:
  0.000  0.151  0.000  0.000  0.848
  0.997  0.003  0.000  0.000  0.000
  0.000  0.000  0.907  0.093  0.000
  0.002  0.846  0.000  0.000  0.151
  0.000  0.000  0.093  0.907  0.000
    occupations:
  0.930 -0.000  0.000 -0.123 -0.000
 -0.000  0.633  0.001 -0.000 -0.000
  0.000  0.001  0.893 -0.000  0.008
 -0.123 -0.000 -0.000  0.691  0.001
 -0.000 -0.000  0.008  0.001  0.916
atom   23   Tr[ns(na)] =   8.11054
    eigenvalues: 
  0.638  0.703  0.846  0.884  0.984
    eigenvectors:
  0.000  0.993  0.000  0.000  0.007
  0.000  0.000  0.000  1.000  0.000
  0.000  0.000  1.000  0.000  0.000
  0.000  0.007  0.000  0.000  0.993
  1.000  0.000  0.000  0.000  0.000
    occupations:
  0.705  0.000 -0.001  0.024 -0.000
  0.000  0.884 -0.000 -0.000 -0.000
 -0.001 -0.000  0.846  0.001  0.000
  0.024 -0.000  0.001  0.982  0.000
 -0.000 -0.000  0.000  0.000  0.638
N of occupied +U levels =  64.8822320
 --- exit write_ns ---

          k = 0.0000 0.0000 0.0000 ( 30479 PWs)   bands (ev):

   -49.7251 -49.4383 -49.3268 -48.6926 -48.6803 -48.6768 -48.5995 -48.5911
   -48.5739 -48.5681 -48.5553 -48.5401 -48.4575 -48.4476 -48.4408 -48.3876
   -48.3415 -48.3229 -48.3179 -48.2293 -48.2109 -48.2005 -48.1933 -48.1808
   -21.6423 -21.4576 -21.2138 -21.1337 -20.7524 -20.6621 -20.5805 -20.5724
   -20.4887 -20.4699 -20.4239 -20.3806 -20.2572 -20.0577 -19.9326 -19.8280
   -19.6149 -19.3572 -19.1793 -11.3880 -11.1773 -10.6446 -10.3093 -10.1378
   -10.0680 -10.0389  -9.9416  -9.6697  -9.2963  -9.1610  -9.0659  -8.9490
    -8.8845  -8.7673  -8.6308  -8.5754  -8.3505  -8.1946  -8.1639  -7.8602
    -7.8407  -7.7331  -7.7146  -7.4949  -7.4435  -7.3680  -7.2966  -6.9930
    -6.9773  -6.8136  -6.8031  -6.7660  -6.7262  -6.6284  -6.6153  -6.3037
    -6.0016  -5.8020  -5.7790  -5.7565  -5.5949  -5.5214  -5.4823  -5.4749
    -5.4581  -5.3806  -5.2945  -5.2102  -5.1602  -5.0616  -5.0227  -4.9629
    -4.8648  -4.8300  -4.7898  -4.7664  -4.5368  -4.4891  -4.3967  -4.3434
    -4.1834  -4.0115  -3.8225  -3.7794  -3.6417  -3.3783  -3.3132  -3.2887
    -3.1964  -3.1480  -2.9760  -2.9264  -2.7550  -2.5210  -2.3690  -2.2118
    -2.1843  -2.0311  -1.8146  -1.6582  -1.2855  -0.3416  -0.0370   0.0562
     0.1545   0.4134   0.5928   0.6727   0.8215   1.3851   1.4253   1.6723
     1.7220   1.9527   2.1347   2.3156   2.9278   3.8986   4.0894   4.5967
     4.9208   5.6928   5.9045   5.9569   6.1381   6.7025   6.7527   6.9875
     7.3140   7.5594   7.6329   7.7410   7.8191   7.8310   7.8701   7.8883
     8.0439   8.0772   8.1154   8.2025   8.2491   8.3736   8.4734   8.5064
     8.5457   8.6926   8.8376   8.9179   8.9513   9.0503   9.0987   9.1831
     9.3832   9.4736   9.5475   9.6791   9.7106   9.7648   9.9439  10.0000
    10.3683  10.4185  10.4671  10.6469  10.7647  10.7954  10.9203  10.9896
    11.0065  11.0195  11.0864  11.2113  11.2586  11.3475  11.3752  11.4233
    11.5530  11.6199  11.6379  11.7183  11.7686  11.8771  11.9253  11.9341
    11.9632  12.0652  12.0969  12.1633  12.1904  12.2311  12.3107  12.4270
    12.4833  12.5513  12.5735  12.5909  12.7275  12.7619  12.8254  12.8590
    12.8819  13.0194  13.0421  13.2790  13.5229  13.5377  13.5532  13.6571
    13.7146  13.8290  13.8636  13.9264  14.0948  14.1062  14.2525  14.2779
    14.3896  14.5111  14.5703  14.7213  14.8121  14.8897  15.0468  15.1890
    15.2170  15.2711  15.3778  15.4592  15.5372  15.6811  15.7033  15.7753
    15.8343  15.8650  15.9523  16.1755  16.3229  16.3608  16.5498  16.5947
    16.7912  16.8483  16.9023  16.9563  17.0026  17.0482  17.1158  17.1737
    17.2450  17.5204  17.6020  17.6409  17.6845  17.7794  17.9166  17.9604
    18.1405  18.1541  18.2083  18.2823  18.4050  18.4299  18.4342  18.4678
    18.4862  18.5511  18.6231  18.6800  18.7482  18.7928  18.9615  18.9697
    19.0420  19.1194  19.1522  19.1914  19.3370  19.3692  19.4586  19.5101
    19.5490  19.5741  19.6274  19.6787  19.7701  19.8000  19.8925  19.9600
    19.9980  20.0688  20.1073  20.1221  20.1374  20.3183  20.3573  20.4154
    20.4585  20.5087  20.5813  20.5885  20.7250  20.8900  21.0301  21.0419
    21.0640  21.1363  21.1542  21.3147  21.4009  21.4374  21.5056  21.6019
    21.6266  21.6530  21.6730  21.8041  21.8911  21.9245  22.0163  22.0957
    22.1022  22.1989  22.3140  22.3362  22.3473  22.3633  22.4120  22.4514
    22.4732  22.4999  22.5157  22.5920  22.6907

          k = 0.0000 0.2417 0.0000 ( 30538 PWs)   bands (ev):

   -49.7252 -49.4383 -49.3266 -48.6931 -48.6804 -48.6771 -48.5996 -48.5906
   -48.5739 -48.5681 -48.5553 -48.5402 -48.4562 -48.4477 -48.4404 -48.3879
   -48.3409 -48.3249 -48.3178 -48.2293 -48.2110 -48.2006 -48.1934 -48.1809
   -21.5653 -21.3421 -21.1992 -21.1321 -20.8030 -20.7670 -20.6793 -20.6555
   -20.4800 -20.3891 -20.3327 -20.2669 -20.2351 -20.0663 -20.0543 -19.9734
   -19.6115 -19.3551 -19.1807 -11.0730 -10.9055 -10.5963 -10.4539 -10.3268
   -10.2303 -10.1237 -10.0740  -9.7174  -9.1855  -8.9179  -8.8480  -8.7916
    -8.6666  -8.6104  -8.5344  -8.4069  -8.3518  -8.2094  -8.1758  -7.9345
    -7.8087  -7.7509  -7.7039  -7.5473  -7.4703  -7.3164  -7.1515  -7.0405
    -6.9893  -6.9256  -6.7971  -6.7408  -6.6478  -6.6335  -6.6116  -6.5666
    -6.5454  -6.5233  -6.4930  -6.2677  -5.8663  -5.4832  -5.4675  -5.4327
    -5.3843  -5.2143  -5.1165  -5.0304  -4.9988  -4.8954  -4.8612  -4.8205
    -4.7820  -4.6630  -4.5922  -4.5143  -4.4328  -4.3454  -4.3340  -4.2176
    -4.1804  -3.9705  -3.9473  -3.8900  -3.8124  -3.6778  -3.6428  -3.4516
    -3.3515  -2.9766  -2.9373  -2.9171  -2.7812  -2.4394  -2.2704  -2.2362
    -2.1164  -1.9576  -1.8921  -1.8029  -1.0470  -0.8812  -0.5404  -0.0732
     0.0885   0.4839   0.8248   1.3408   1.3680   1.3905   1.6324   1.7145
     1.7634   1.7861   2.1344   2.1458   3.2125   4.1451   4.3180   4.7939
     5.0712   5.1969   5.8869   6.1074   6.1723   6.2629   6.2961   6.6255
     6.8329   6.9875   7.2238   7.4688   7.5822   7.6441   7.8017   8.0239
     8.0491   8.1342   8.2472   8.2784   8.4759   8.5145   8.7132   8.7295
     8.9346   9.0029   9.0122   9.1235   9.1642   9.2958   9.4191   9.4973
     9.5277   9.6082   9.6920   9.7947   9.8496   9.8654   9.9733  10.1072
    10.1215  10.1939  10.2394  10.3715  10.4141  10.4352  10.6024  10.7498
    10.7858  10.8384  10.8917  10.9859  11.1310  11.1853  11.2218  11.2405
    11.3121  11.4000  11.4907  11.5793  11.7853  11.9847  12.1195  12.1828
    12.2414  12.2602  12.3478  12.3863  12.4156  12.5439  12.5821  12.6755
    12.7118  12.8671  12.8895  12.9145  13.0083  13.1362  13.2289  13.3850
    13.4598  13.5113  13.5505  13.6777  13.7954  13.8183  13.8614  13.8996
    13.9212  14.0403  14.1117  14.1395  14.2334  14.3329  14.3512  14.4362
    14.4701  14.5832  14.6774  14.7107  14.8296  14.9011  14.9788  15.2011
    15.2509  15.2753  15.3239  15.4011  15.4972  15.5986  15.7042  15.7418
    15.7926  15.8829  15.9744  16.0057  16.0929  16.1469  16.2954  16.3799
    16.4191  16.5241  16.6004  16.6070  16.6996  16.8710  16.9137  17.0330
    17.0777  17.1035  17.1793  17.2304  17.3069  17.4130  17.4820  17.6718
    17.8204  17.9328  17.9825  18.0367  18.0654  18.2218  18.2771  18.3349
    18.3721  18.4358  18.4670  18.5351  18.6002  18.7158  18.7836  18.8262
    18.8760  18.8803  19.0347  19.0933  19.1511  19.2370  19.3251  19.3683
    19.3920  19.5226  19.5294  19.5463  19.6198  19.7588  19.7791  19.7992
    19.8516  19.9130  19.9732  19.9980  20.0561  20.0703  20.1138  20.2111
    20.2548  20.3150  20.4040  20.4393  20.4922  20.5773  20.6873  20.7059
    20.8155  20.8791  20.9024  21.0149  21.0504  21.0952  21.1042  21.1666
    21.1937  21.2615  21.3219  21.4078  21.4492  21.5764  21.6414  21.7038
    21.7318  21.7468  21.8395  21.9292  21.9999  22.0180  22.0738  22.0901
    22.2383  22.2888  22.3423  22.3940  22.4466

          k = 0.0000-0.4833 0.0000 ( 30492 PWs)   bands (ev):

   -49.7252 -49.4382 -49.3262 -48.6934 -48.6804 -48.6772 -48.5994 -48.5899
   -48.5738 -48.5678 -48.5552 -48.5402 -48.4547 -48.4477 -48.4399 -48.3882
   -48.3402 -48.3269 -48.3173 -48.2293 -48.2111 -48.2006 -48.1933 -48.1808
   -21.4817 -21.1933 -21.1572 -21.1309 -20.8963 -20.8132 -20.7670 -20.6491
   -20.4830 -20.4080 -20.2827 -20.2329 -20.2031 -20.1538 -20.1283 -20.0435
   -19.6092 -19.3530 -19.1827 -10.7426 -10.6737 -10.6347 -10.5227 -10.4356
   -10.3370 -10.2100 -10.0840  -9.2229  -9.0654  -8.8925  -8.7474  -8.7161
    -8.6087  -8.5304  -8.5058  -8.4485  -8.3867  -8.3232  -8.1607  -7.8972
    -7.7977  -7.7882  -7.6810  -7.6170  -7.3830  -7.2634  -7.2272  -7.1697
    -7.1430  -7.1233  -7.1199  -7.0273  -6.6623  -6.5947  -6.5558  -6.4981
    -6.4473  -6.4124  -6.3741  -6.2938  -6.0930  -5.9713  -5.7306  -5.4473
    -5.4452  -5.3520  -5.2884  -5.1568  -4.9042  -4.8296  -4.7571  -4.6707
    -4.6195  -4.5637  -4.5380  -4.5138  -4.2864  -4.2110  -4.2064  -4.1287
    -4.0852  -4.0702  -3.9825  -3.8551  -3.8149  -3.7195  -3.6636  -3.5784
    -3.2602  -2.9995  -2.8547  -2.8515  -2.7763  -2.7286  -2.4883  -2.2480
    -2.0458  -1.8812  -1.8284  -1.8255  -1.3719  -0.9981  -0.8813   0.1110
     0.2214   0.6376   1.1106   1.2740   1.3720   1.5806   1.6081   1.6289
     1.8065   2.0915   2.1175   2.1488   3.7450   4.2665   4.6327   4.9856
     5.0640   5.2044   5.4691   5.6313   5.8427   6.0516   6.4766   6.5058
     6.7203   6.7540   6.9490   7.1484   7.2295   7.5375   7.9013   7.9986
     8.2042   8.3190   8.4315   8.6586   8.7048   8.7048   8.7937   8.8830
     8.9108   8.9386   9.0643   9.0865   9.1008   9.1821   9.2992   9.3116
     9.3670   9.4620   9.5171   9.5905   9.6703   9.7900   9.8748   9.9695
    10.0963  10.1950  10.2180  10.4425  10.5129  10.5742  10.5930  10.7711
    10.8771  11.0146  11.0688  11.2587  11.3626  11.3818  11.4266  11.5787
    11.5950  11.6705  11.7689  11.8980  11.9130  12.0065  12.0314  12.2336
    12.2775  12.3345  12.4092  12.4373  12.5912  12.7017  12.8501  12.8591
    12.9393  12.9629  12.9787  13.0927  13.1373  13.2048  13.2658  13.3658
    13.3863  13.4468  13.5209  13.5750  13.6165  13.7990  13.8180  13.9295
    14.0688  14.1846  14.2276  14.3653  14.3820  14.4121  14.4867  14.5507
    14.7169  14.7611  14.8815  15.0448  15.0870  15.1945  15.2417  15.3224
    15.3440  15.3760  15.4967  15.5073  15.5312  15.7542  15.8024  15.8690
    15.9711  16.0102  16.0894  16.2196  16.2681  16.2857  16.3326  16.3813
    16.4043  16.4456  16.4539  16.5167  16.5793  16.7511  16.7759  16.8163
    16.9198  16.9304  17.0899  17.1969  17.2207  17.2668  17.4061  17.4564
    17.5146  17.5870  17.6010  17.7160  17.7895  17.8417  17.8610  17.8733
    17.8944  17.9856  18.0150  18.1022  18.2026  18.2338  18.2888  18.3188
    18.4016  18.4797  18.5049  18.5340  18.5680  18.5968  18.7430  18.8504
    18.9026  19.1273  19.2633  19.3667  19.5069  19.5277  19.5367  19.6402
    19.6774  19.7197  19.8918  19.9389  20.1052  20.1509  20.2224  20.2624
    20.3103  20.3459  20.3857  20.4252  20.5001  20.5107  20.5256  20.5670
    20.5919  20.6689  20.7231  20.7526  20.7806  20.7928  20.8407  20.8776
    20.8948  21.0938  21.1722  21.1918  21.2589  21.2737  21.2970  21.4597
    21.4705  21.5224  21.5466  21.5849  21.6180  21.6282  21.6522  21.7400
    21.8476  22.0322  22.0653  22.2046  22.2373

          k = 0.2500 0.0000 0.0000 ( 30502 PWs)   bands (ev):

   -49.7253 -49.4380 -49.3269 -48.6971 -48.6804 -48.6623 -48.5986 -48.5925
   -48.5812 -48.5652 -48.5529 -48.5408 -48.4674 -48.4568 -48.4436 -48.3877
   -48.3273 -48.3224 -48.3187 -48.2476 -48.2084 -48.1977 -48.1961 -48.1839
   -21.5226 -21.3354 -21.1390 -21.1164 -20.7821 -20.6790 -20.6440 -20.5908
   -20.4908 -20.4365 -20.3707 -20.3343 -20.2698 -20.0806 -20.0328 -19.9265
   -19.6246 -19.4119 -19.2650 -11.1087 -10.8799 -10.4014 -10.0869 -10.0109
    -9.8710  -9.8095  -9.7856  -9.6028  -9.3595  -9.2708  -9.2271  -9.1160
    -8.9828  -8.7770  -8.7182  -8.5828  -8.5306  -8.4426  -8.3031  -7.9675
    -7.9256  -7.8127  -7.7218  -7.5379  -7.4583  -7.4029  -7.2774  -7.0880
    -6.9872  -6.9747  -6.9535  -6.8937  -6.7591  -6.6607  -6.5998  -6.4063
    -6.2859  -6.2329  -6.1792  -6.1175  -5.9137  -5.8324  -5.7772  -5.5968
    -5.4341  -5.2502  -5.2148  -5.1202  -5.0862  -5.0462  -4.9628  -4.8712
    -4.7740  -4.6107  -4.5444  -4.4277  -4.3418  -4.2633  -4.1366  -4.0045
    -3.8867  -3.8561  -3.6344  -3.6149  -3.5672  -3.5102  -3.2389  -3.2175
    -3.0954  -3.0230  -2.8344  -2.7507  -2.6905  -2.6674  -2.4166  -2.3478
    -2.2717  -2.1714  -1.9869  -1.7877  -1.1377  -0.2255   0.1060   0.1794
     0.2730   0.5409   0.5528   0.6768   0.8698   1.0499   1.3655   1.4366
     1.6248   1.6900   1.7382   2.2080   3.2672   4.2048   4.3419   4.8445
     5.1515   5.1933   5.8847   6.1588   6.2044   6.2554   6.4368   6.6851
     6.9924   7.1530   7.3106   7.5256   7.6486   7.7364   7.8947   7.9720
     8.0129   8.0704   8.1372   8.3498   8.4041   8.4540   8.5143   8.7087
     8.8351   8.9430   8.9755   9.1284   9.1939   9.2033   9.3047   9.4117
     9.5701   9.6531   9.7187   9.9098   9.9387   9.9509  10.0239  10.0978
    10.1203  10.2630  10.3024  10.3991  10.4191  10.5633  10.6088  10.7640
    10.8157  10.9172  10.9691  11.0034  11.0617  11.1810  11.2305  11.2589
    11.3268  11.4062  11.5126  11.5603  11.6543  11.7739  11.9382  11.9961
    12.0834  12.1572  12.2528  12.3537  12.4204  12.4784  12.5139  12.5769
    12.7518  12.7828  12.8143  12.9369  13.0824  13.1834  13.3093  13.3871
    13.4857  13.6201  13.7151  13.7777  13.8163  13.8514  13.9002  13.9290
    13.9891  14.0662  14.1216  14.2052  14.2369  14.3250  14.3790  14.4595
    14.5726  14.6004  14.7048  14.7894  14.8383  14.9501  15.1884  15.2343
    15.3060  15.3661  15.4545  15.4971  15.5933  15.6888  15.7021  15.8098
    15.8722  15.9789  15.9958  16.0208  16.0568  16.0913  16.1980  16.3049
    16.3712  16.4169  16.5069  16.5607  16.6374  16.7015  16.9664  16.9941
    17.0868  17.1883  17.2240  17.2974  17.3657  17.4116  17.5831  17.6778
    17.8051  17.8842  17.9473  18.0490  18.0761  18.0904  18.1891  18.2695
    18.4910  18.5715  18.5959  18.7872  18.8292  18.8739  18.9446  19.0065
    19.0440  19.0728  19.0973  19.1509  19.2299  19.3045  19.3196  19.3480
    19.3941  19.4593  19.5423  19.5744  19.6153  19.6553  19.7271  19.7702
    19.7904  19.8326  19.8553  19.9055  19.9546  20.0903  20.2125  20.2784
    20.3267  20.3474  20.4089  20.4300  20.4479  20.4808  20.5743  20.6309
    20.7063  20.7277  20.7669  20.7939  20.8365  20.8929  20.9460  21.0417
    21.1506  21.2017  21.2154  21.2613  21.3617  21.4017  21.4688  21.4995
    21.5762  21.5863  21.6526  21.7068  21.8777  21.9216  21.9383  22.0348
    22.0583  22.1260  22.1396  22.2262  22.2860

          k = 0.2500 0.2417 0.0000 ( 30481 PWs)   bands (ev):

   -49.7253 -49.4380 -49.3265 -48.6974 -48.6805 -48.6623 -48.5984 -48.5920
   -48.5813 -48.5653 -48.5527 -48.5409 -48.4674 -48.4553 -48.4429 -48.3879
   -48.3267 -48.3241 -48.3187 -48.2476 -48.2085 -48.1978 -48.1961 -48.1839
   -21.4593 -21.2266 -21.1370 -21.0860 -20.7965 -20.7289 -20.6672 -20.6167
   -20.4863 -20.4196 -20.3451 -20.2991 -20.2825 -20.1485 -20.0799 -20.0607
   -19.6207 -19.4114 -19.2664 -10.8082 -10.6309 -10.3379 -10.2436 -10.1169
    -9.9702  -9.9079  -9.8750  -9.5899  -9.2316  -9.1589  -9.0626  -8.9130
    -8.7828  -8.7286  -8.5544  -8.5198  -8.4852  -8.3560  -8.1241  -8.0472
    -7.8808  -7.7804  -7.6734  -7.5692  -7.4897  -7.4463  -7.3801  -7.2693
    -7.1982  -7.1347  -7.0182  -6.9782  -6.9060  -6.8330  -6.7253  -6.6588
    -6.5942  -6.5201  -6.4533  -6.2233  -6.1316  -5.7952  -5.5987  -5.5154
    -5.4192  -5.2614  -5.2076  -5.1711  -5.0356  -4.9815  -4.7917  -4.7340
    -4.6646  -4.4723  -4.4312  -4.2680  -4.1771  -4.0487  -3.9767  -3.9544
    -3.8660  -3.8098  -3.7663  -3.6611  -3.5881  -3.5538  -3.5039  -3.3896
    -3.3009  -2.9880  -2.8607  -2.7714  -2.6808  -2.5089  -2.3727  -2.3072
    -2.2682  -2.1261  -2.0598  -1.9463  -0.9554  -0.6513  -0.3259   0.0261
     0.2165   0.5088   0.7033   1.0290   1.1801   1.2830   1.4061   1.5216
     1.6131   1.7486   1.8171   2.1354   3.5326   4.4269   4.5706   5.0303
     5.3011   5.3276   5.4879   6.0575   6.3628   6.4265   6.4422   6.5140
     6.6404   6.8000   6.9022   7.1256   7.2795   7.4713   7.6055   7.7138
     7.9082   7.9981   8.0732   8.1661   8.2556   8.3316   8.4723   8.5001
     8.7832   8.8568   8.9042   8.9864   9.2110   9.3754   9.5186   9.5698
     9.6046   9.7841   9.8353   9.8782   9.9550  10.0878  10.1425  10.2575
    10.3347  10.4156  10.4929  10.6530  10.7188  10.7987  10.8589  10.9624
    10.9918  11.1085  11.1882  11.2502  11.3626  11.4209  11.4945  11.5706
    11.6045  11.7323  11.7670  11.8129  11.8669  11.9978  12.1462  12.1842
    12.2631  12.3120  12.3268  12.4560  12.5060  12.5992  12.6954  12.7308
    12.7853  12.8778  12.9563  13.0820  13.1022  13.1905  13.2366  13.3038
    13.3844  13.4644  13.5267  13.5847  13.7664  13.8067  13.8831  13.9040
    14.0136  14.1265  14.1915  14.2204  14.2805  14.3749  14.4243  14.5066
    14.6051  14.6778  14.7810  14.8430  15.0273  15.1547  15.2554  15.3222
    15.4119  15.4374  15.5358  15.5483  15.6065  15.6632  15.7398  15.8248
    15.8963  15.9643  16.0041  16.0715  16.1299  16.2122  16.3017  16.3529
    16.3853  16.4254  16.4612  16.5222  16.6105  16.6455  16.6912  16.7337
    16.8351  16.9045  16.9697  17.0266  17.1630  17.1880  17.2441  17.3125
    17.4079  17.4964  17.5123  17.5911  17.6420  17.7423  17.7878  17.8186
    17.9117  18.0183  18.0826  18.1256  18.1810  18.2935  18.3181  18.3526
    18.4306  18.5873  18.6555  18.6946  18.7676  18.8528  18.8714  18.9738
    19.0249  19.0782  19.1414  19.1897  19.2749  19.3221  19.3569  19.4812
    19.5510  19.6279  19.6896  19.7776  19.8151  19.8822  20.0513  20.0926
    20.1391  20.2452  20.2948  20.4554  20.4944  20.5662  20.6135  20.6605
    20.7341  20.7964  20.9011  20.9560  20.9757  21.0322  21.0787  21.2134
    21.2777  21.3428  21.3653  21.4121  21.4591  21.5906  21.6577  21.7133
    21.7457  21.8301  21.8693  21.8985  21.9517  22.0185  22.1000  22.1724
    22.2351  22.3153  22.4458  22.4604  22.5453

          k = 0.2500-0.4833 0.0000 ( 30510 PWs)   bands (ev):

   -49.7253 -49.4379 -49.3263 -48.6978 -48.6805 -48.6626 -48.5983 -48.5915
   -48.5812 -48.5652 -48.5525 -48.5408 -48.4674 -48.4542 -48.4421 -48.3883
   -48.3263 -48.3257 -48.3190 -48.2476 -48.2086 -48.1978 -48.1961 -48.1838
   -21.3961 -21.1347 -21.0649 -21.0366 -20.8241 -20.7456 -20.7165 -20.6408
   -20.5076 -20.3976 -20.3796 -20.3035 -20.2553 -20.2438 -20.2005 -20.0777
   -19.6174 -19.4109 -19.2681 -10.4890 -10.4203 -10.3951 -10.2463 -10.1664
   -10.1062  -9.9645  -9.8944  -9.2293  -9.0852  -8.9811  -8.7832  -8.7428
    -8.6757  -8.5679  -8.5503  -8.5121  -8.4565  -8.3831  -8.2273  -8.0319
    -7.9022  -7.8917  -7.8467  -7.7788  -7.7352  -7.5603  -7.4827  -7.4123
    -7.3393  -7.2148  -7.1483  -7.0786  -6.9769  -6.8742  -6.7701  -6.7178
    -6.6073  -6.4834  -6.4608  -6.2604  -6.1986  -5.9559  -5.8094  -5.6237
    -5.5465  -5.3608  -5.1691  -5.1392  -5.0083  -4.7698  -4.6846  -4.6179
    -4.5321  -4.3996  -4.3720  -4.1543  -4.1115  -4.0628  -4.0390  -3.9604
    -3.7913  -3.7465  -3.7113  -3.6438  -3.5593  -3.5264  -3.5168  -3.4027
    -3.2911  -2.9061  -2.8417  -2.7803  -2.7326  -2.6520  -2.5812  -2.2957
    -2.1825  -2.0905  -2.0090  -2.0022  -1.1186  -0.8330  -0.7508   0.2407
     0.2594   0.5503   0.8409   0.8985   1.0717   1.3159   1.5972   1.6745
     1.7038   1.8802   2.0178   2.0323   4.0216   4.5346   4.8433   5.2344
     5.3151   5.4644   5.6303   5.7085   5.8938   6.1052   6.3067   6.3393
     6.6908   7.0067   7.0529   7.1085   7.1897   7.2369   7.2460   7.3746
     7.5579   7.7841   7.8910   8.0244   8.1780   8.2290   8.2769   8.4132
     8.5298   8.6971   8.7786   8.9786   9.0194   9.0591   9.4247   9.4999
     9.6295   9.8281   9.9677  10.0373  10.0621  10.2068  10.3931  10.4818
    10.6869  10.7876  10.8757  10.9029  10.9752  11.1056  11.1666  11.2349
    11.3017  11.3943  11.4496  11.4716  11.5684  11.6119  11.6719  11.8486
    11.8953  11.9350  11.9965  12.0576  12.1805  12.2067  12.3107  12.3207
    12.4578  12.4648  12.6089  12.6322  12.6917  12.7472  12.8924  12.9262
    12.9489  13.0339  13.1136  13.2036  13.2501  13.3086  13.3465  13.4283
    13.4753  13.5224  13.5869  13.6509  13.7083  13.7794  13.8530  13.9564
    14.0386  14.1531  14.3050  14.3391  14.3835  14.4202  14.5388  14.5517
    14.5930  14.6278  14.6445  14.7207  14.8201  14.8677  14.9598  14.9846
    15.0226  15.0449  15.1772  15.2599  15.2826  15.3969  15.4390  15.5277
    15.5879  15.6410  15.8540  15.8945  16.0124  16.0693  16.0947  16.1527
    16.2468  16.3593  16.3837  16.4614  16.5529  16.6204  16.7137  16.7339
    16.8414  16.8993  16.9219  16.9576  17.0496  17.1079  17.1712  17.2260
    17.2741  17.3440  17.4062  17.4206  17.4474  17.5375  17.7046  17.8199
    17.8420  17.9074  17.9693  18.0406  18.0938  18.1487  18.2219  18.3059
    18.4050  18.4235  18.4666  18.5086  18.5361  18.6450  18.6707  18.7045
    18.7543  18.8614  18.9333  18.9538  19.0115  19.0529  19.1192  19.2939
    19.3590  19.3886  19.5396  19.5668  19.6596  19.6942  19.7384  19.7658
    19.8397  19.8663  19.9065  19.9425  20.0449  20.1937  20.3216  20.4129
    20.4945  20.5781  20.6189  20.6538  20.7697  20.8587  20.9259  20.9461
    21.0415  21.1146  21.2192  21.2844  21.3625  21.4052  21.5239  21.6120
    21.7548  21.7844  21.8515  21.9293  22.0029  22.0589  22.0970  22.1516
    22.1982  22.2824  22.3073  22.5042  22.5380

          k =-0.5000 0.0000 0.0000 ( 30524 PWs)   bands (ev):

   -49.7254 -49.4377 -49.3269 -48.7016 -48.6805 -48.6328 -48.6116 -48.5968
   -48.5948 -48.5659 -48.5439 -48.5123 -48.5117 -48.4547 -48.4474 -48.3878
   -48.3217 -48.3197 -48.2918 -48.2875 -48.2033 -48.2015 -48.1911 -48.1907
   -21.2870 -21.2456 -21.0697 -21.0406 -20.8805 -20.8780 -20.7269 -20.5080
   -20.4887 -20.3091 -20.2968 -20.2409 -20.1891 -20.1773 -20.1541 -20.1482
   -19.6359 -19.4177 -19.4065 -10.4182 -10.3010 -10.0769 -10.0713  -9.9291
    -9.8253  -9.7004  -9.6399  -9.5671  -9.5177  -9.4117  -9.4014  -9.2441
    -9.1311  -9.0048  -8.9277  -8.8112  -8.7596  -8.3923  -8.2362  -8.1606
    -7.8546  -7.7459  -7.7219  -7.4331  -7.3116  -7.2807  -7.2486  -7.1887
    -7.1731  -7.1469  -7.1337  -6.9991  -6.9736  -6.8737  -6.6931  -6.6002
    -6.5408  -6.4917  -6.4069  -6.3288  -6.2942  -6.1352  -5.9236  -5.7928
    -5.2359  -5.2168  -5.0179  -5.0169  -4.9325  -4.8954  -4.7924  -4.7351
    -4.6347  -4.6083  -4.4299  -4.3018  -4.2345  -4.1084  -4.0668  -3.8073
    -3.8002  -3.6704  -3.6342  -3.5190  -3.4714  -3.2629  -3.1101  -2.9819
    -2.9624  -2.8964  -2.7252  -2.7183  -2.6516  -2.5518  -2.5433  -2.4712
    -2.4023  -2.3526  -2.1035  -2.0991  -0.9911   0.0032   0.2942   0.3818
     0.4358   0.5689   0.5865   0.8831   0.9086   0.9329   0.9593   0.9931
     1.0025   1.6038   1.8198   1.9102   4.0732   4.0769   4.7640   5.0778
     5.0865   5.2867   5.5271   5.7034   5.9270   6.0749   6.4887   6.6711
     6.8814   6.9348   6.9927   7.1426   7.6512   7.8659   7.9059   8.0247
     8.1609   8.1987   8.5026   8.6213   8.6478   8.6857   8.7367   8.7521
     8.7851   8.9325   9.0847   9.1013   9.1173   9.1670   9.2460   9.3341
     9.3437   9.5531   9.7552   9.7735   9.8202   9.8495   9.9023   9.9508
     9.9839  10.0815  10.0908  10.1645  10.2959  10.3139  10.5174  10.5316
    10.8422  10.8478  10.8886  11.2429  11.3428  11.4532  11.5630  11.5826
    11.6424  11.6768  11.6889  11.8205  11.9905  12.0169  12.1192  12.1288
    12.3230  12.3876  12.5203  12.5444  12.5706  12.6915  12.8120  12.8480
    12.9989  13.0212  13.0563  13.0832  13.3425  13.3487  13.4341  13.4878
    13.5326  13.5624  13.6280  13.7120  13.7754  13.8148  13.9726  14.0062
    14.0721  14.1454  14.1707  14.2991  14.3273  14.3869  14.4374  14.6659
    14.6746  14.7801  14.8260  14.9241  14.9440  15.0358  15.0621  15.0781
    15.1603  15.1887  15.4505  15.5448  15.7535  15.8975  16.0700  16.1156
    16.1514  16.1810  16.2291  16.2781  16.3366  16.3620  16.3757  16.4268
    16.4768  16.5525  16.6232  16.6453  16.6887  16.7297  16.7412  16.7475
    16.7780  16.8484  16.8554  16.9405  17.1147  17.1493  17.2685  17.3927
    17.4752  17.6306  17.6643  17.6847  17.8420  17.8528  17.9617  18.0320
    18.1107  18.2775  18.2926  18.3578  18.4258  18.4547  18.4790  18.6096
    18.6290  18.6914  18.8061  18.9292  18.9755  19.0776  19.0870  19.1674
    19.1824  19.1873  19.2230  19.2870  19.3549  19.3578  19.4148  19.5597
    19.6201  19.6417  19.7388  19.7504  19.8357  19.8587  19.8922  20.0420
    20.0993  20.1112  20.1496  20.2484  20.2722  20.2756  20.3292  20.3589
    20.3708  20.4437  20.4896  20.5044  20.6285  20.6490  20.8591  20.9257
    20.9309  20.9690  21.0024  21.1220  21.1337  21.1560  21.1964  21.3062
    21.3208  21.3299  21.3681  21.3915  21.4171  21.4540  21.5571  21.5604
    21.7895  21.8131  21.8908  21.9670  22.0559

          k =-0.5000 0.2417 0.0000 ( 30500 PWs)   bands (ev):

   -49.7255 -49.4377 -49.3265 -48.7019 -48.6806 -48.6328 -48.6117 -48.5961
   -48.5946 -48.5659 -48.5440 -48.5122 -48.5115 -48.4536 -48.4462 -48.3880
   -48.3226 -48.3206 -48.2915 -48.2872 -48.2033 -48.2016 -48.1912 -48.1908
   -21.2628 -21.2230 -20.9767 -20.9717 -20.8171 -20.8102 -20.7327 -20.5252
   -20.4942 -20.3908 -20.3648 -20.3124 -20.2641 -20.2439 -20.1759 -20.1646
   -19.6305 -19.4211 -19.4058 -10.1805 -10.1246 -10.0157 -10.0019  -9.7631
    -9.6855  -9.6397  -9.6056  -9.5398  -9.4561  -9.4223  -9.4017  -9.2346
    -9.1540  -8.9771  -8.8508  -8.7273  -8.6405  -8.2959  -8.1889  -8.0770
    -7.9254  -7.8022  -7.7844  -7.6707  -7.6216  -7.5404  -7.5104  -7.3786
    -7.3267  -7.2441  -7.1673  -7.0077  -6.9529  -6.8439  -6.8103  -6.7363
    -6.6083  -6.5322  -6.4597  -6.3351  -6.1881  -6.0632  -5.9977  -5.8279
    -5.5487  -5.4278  -5.3143  -5.2310  -5.0081  -4.9700  -4.6459  -4.3657
    -4.3207  -4.2551  -4.1276  -4.0937  -4.0147  -3.9704  -3.9189  -3.8841
    -3.7714  -3.7425  -3.6314  -3.5340  -3.4419  -3.3478  -3.1910  -3.1503
    -2.9167  -2.8935  -2.7603  -2.7307  -2.6079  -2.5563  -2.4957  -2.4580
    -2.4393  -2.4245  -2.2318  -2.1804  -0.8669  -0.1793   0.0561   0.2214
     0.2367   0.4663   0.5646   0.6336   0.7340   1.0528   1.2074   1.3948
     1.4046   1.5980   1.8960   2.0200   4.2868   4.3002   4.9174   5.2957
     5.3032   5.5093   5.6947   5.8316   5.9751   6.0977   6.2505   6.4060
     6.7063   7.0435   7.0669   7.1283   7.1835   7.2044   7.2386   7.3439
     7.5931   7.7074   7.8854   8.0773   8.1587   8.3263   8.3712   8.5505
     8.6310   8.7373   8.7964   8.9482   9.0544   9.1934   9.5387   9.7553
     9.7723   9.8924   9.9623  10.0381  10.0915  10.2071  10.2478  10.3577
    10.4537  10.6460  10.6891  10.7093  10.8099  10.8283  10.9169  11.0092
    11.2278  11.2523  11.3231  11.4520  11.5340  11.5493  11.6754  11.7486
    11.8633  11.9153  11.9987  12.0755  12.1824  12.1979  12.2453  12.3175
    12.5053  12.5283  12.5822  12.6939  12.7185  12.8516  13.0452  13.0945
    13.1424  13.1680  13.1938  13.2310  13.3312  13.4399  13.4856  13.5965
    13.6574  13.6799  13.7369  13.8356  13.9173  13.9419  14.0251  14.1044
    14.1312  14.2195  14.2818  14.2914  14.3688  14.4682  14.5198  14.5520
    14.6176  14.6893  14.7494  14.8340  14.9087  14.9214  14.9831  15.0095
    15.0448  15.1040  15.1560  15.1868  15.2999  15.3705  15.3914  15.4866
    15.5221  15.5529  15.7820  15.8893  15.9366  15.9794  16.1362  16.1767
    16.1840  16.3119  16.3774  16.4207  16.4472  16.4837  16.5406  16.5650
    16.5719  16.6675  16.7757  16.8099  16.9208  16.9828  17.0349  17.0834
    17.1804  17.2774  17.3291  17.3417  17.5647  17.6736  17.7103  17.7353
    17.8216  17.8703  17.9025  17.9416  18.0081  18.1235  18.3427  18.3912
    18.4657  18.4784  18.5132  18.5759  18.6234  18.7210  18.7804  18.8096
    18.8450  18.9340  18.9597  19.0479  19.0781  19.1903  19.2287  19.3601
    19.3762  19.4372  19.5069  19.5249  19.5909  19.6580  19.7460  19.7935
    19.8729  19.9683  20.1335  20.1462  20.1960  20.3371  20.3726  20.4285
    20.4607  20.5777  20.6432  20.7443  20.7855  20.8813  20.9409  21.0921
    21.1273  21.2595  21.3212  21.4535  21.4889  21.5359  21.6028  21.6742
    21.7002  21.7218  21.8379  21.9208  21.9733  22.0621  22.1792  22.2250
    22.2540  22.3259  22.3609  22.4197  22.4457

          k =-0.5000-0.4833 0.0000 ( 30496 PWs)   bands (ev):

   -49.7255 -49.4377 -49.3263 -48.7023 -48.6806 -48.6329 -48.6118 -48.5956
   -48.5945 -48.5660 -48.5441 -48.5121 -48.5113 -48.4525 -48.4451 -48.3884
   -48.3236 -48.3216 -48.2911 -48.2869 -48.2033 -48.2016 -48.1912 -48.1908
   -21.2404 -21.2029 -20.8527 -20.7766 -20.7743 -20.7590 -20.6334 -20.6116
   -20.5963 -20.4850 -20.4447 -20.4143 -20.4068 -20.2722 -20.1814 -20.1664
   -19.6253 -19.4247 -19.4053 -10.0846 -10.0106  -9.9831  -9.9163  -9.7253
    -9.6787  -9.6536  -9.5715  -9.3424  -9.2296  -9.1048  -8.9871  -8.9445
    -8.8115  -8.7782  -8.6982  -8.6713  -8.6305  -8.5483  -8.5218  -8.4413
    -8.3831  -8.0754  -8.0489  -7.9664  -7.9097  -7.6134  -7.6085  -7.4618
    -7.3408  -7.1999  -7.1495  -7.0965  -7.0658  -6.8704  -6.7791  -6.7024
    -6.6693  -6.5629  -6.3897  -6.3746  -6.2325  -5.9910  -5.9754  -5.8160
    -5.7999  -5.6109  -5.5547  -5.3636  -4.9601  -4.9061  -4.6041  -4.2569
    -4.2325  -4.1085  -3.9672  -3.9361  -3.9190  -3.8869  -3.7834  -3.7461
    -3.6369  -3.6029  -3.5870  -3.5126  -3.4449  -3.4097  -3.3418  -3.3171
    -2.9049  -2.7925  -2.7687  -2.6752  -2.6298  -2.5776  -2.5193  -2.4604
    -2.4214  -2.3613  -2.3181  -2.3098  -0.7667  -0.5821  -0.1117  -0.0931
    -0.0592   0.4330   0.6656   0.6694   0.6972   1.2948   1.3545   1.4238
     1.7732   1.8589   1.8682   1.9386   4.6958   4.6993   5.1613   5.2529
     5.2545   5.9535   5.9568   6.0346   6.0417   6.1364   6.1734   6.2588
     6.4009   6.5609   6.6040   6.7199   6.8119   6.9795   7.0784   7.1923
     7.4328   7.7020   7.7271   7.8133   7.8408   7.8545   7.9310   8.0476
     8.4533   8.7642   8.8487   8.9802   9.0510   9.2574   9.2946   9.3209
     9.5490   9.6050  10.1381  10.2496  10.2685  10.5100  10.5404  10.6817
    10.7348  10.8075  11.0410  11.1518  11.3196  11.3473  11.3937  11.4611
    11.5641  11.5763  11.8184  11.8458  11.9493  12.0455  12.1911  12.2612
    12.3217  12.4556  12.4945  12.5934  12.7396  12.7668  12.8256  12.9188
    12.9305  12.9814  13.0314  13.1001  13.1217  13.1340  13.1846  13.2251
    13.3057  13.3267  13.4751  13.5041  13.5291  13.5691  13.6045  13.6165
    13.6260  13.6487  13.7051  13.7678  13.7992  13.8149  13.8566  13.8650
    14.0740  14.0940  14.1156  14.1311  14.1547  14.1640  14.2442  14.3047
    14.3769  14.3914  14.4030  14.4386  14.5199  14.6112  14.6726  14.7840
    14.8445  14.9171  15.0100  15.0771  15.1178  15.1431  15.1824  15.2280
    15.2424  15.2701  15.3120  15.3642  15.4796  15.5104  15.5877  15.6641
    15.7187  15.7823  15.8886  15.9428  15.9882  15.9967  16.1170  16.1608
    16.2846  16.3097  16.4314  16.4822  16.5783  16.6257  16.7316  16.7890
    16.8735  16.9441  17.0063  17.0449  17.0985  17.1629  17.1932  17.3230
    17.5338  17.6251  17.6794  17.8150  17.9884  18.0084  18.1065  18.1484
    18.1717  18.2158  18.2568  18.3129  18.4847  18.5515  18.5981  18.7597
    18.8322  19.0967  19.1939  19.2550  19.2783  19.3781  19.4517  19.4546
    19.5059  19.6755  19.7913  20.0822  20.1412  20.1836  20.2447  20.2587
    20.3116  20.3696  20.5373  20.6163  20.6683  20.7231  20.7493  20.7753
    20.7953  20.8766  21.0376  21.1313  21.1408  21.1862  21.2073  21.2656
    21.3151  21.3504  21.4004  21.4864  21.5083  21.5150  21.5407  21.6014
    21.6129  21.6439  21.6941  21.7359  21.8379  21.9303  21.9673  21.9917
    22.0308  22.0992  22.1246  22.2457  22.3250

          k =-0.2500 0.2417 0.0000 ( 30481 PWs)   bands (ev):

   -49.7253 -49.4380 -49.3265 -48.6974 -48.6805 -48.6625 -48.5984 -48.5919
   -48.5812 -48.5653 -48.5527 -48.5409 -48.4674 -48.4556 -48.4426 -48.3879
   -48.3268 -48.3240 -48.3188 -48.2476 -48.2085 -48.1978 -48.1961 -48.1839
   -21.4594 -21.2266 -21.1367 -21.0854 -20.7963 -20.7288 -20.6664 -20.6164
   -20.4925 -20.4200 -20.3451 -20.2943 -20.2820 -20.1483 -20.0796 -20.0620
   -19.6207 -19.4114 -19.2664 -10.8080 -10.6284 -10.3429 -10.2450 -10.1013
    -9.9964  -9.8921  -9.8733  -9.6003  -9.2325  -9.1566  -9.0621  -8.9073
    -8.8015  -8.7300  -8.5714  -8.4835  -8.4690  -8.3727  -8.1098  -8.0244
    -7.9017  -7.7679  -7.7024  -7.5708  -7.4972  -7.4319  -7.3964  -7.2892
    -7.1936  -7.0859  -7.0376  -6.9430  -6.8770  -6.8284  -6.7484  -6.6851
    -6.6325  -6.4741  -6.4356  -6.3049  -6.1287  -5.7989  -5.5804  -5.5273
    -5.4292  -5.2726  -5.1978  -5.0962  -5.0561  -4.9627  -4.8112  -4.7298
    -4.6806  -4.4701  -4.4078  -4.2693  -4.1943  -4.0368  -3.9851  -3.9504
    -3.8817  -3.8130  -3.7751  -3.6614  -3.6075  -3.5466  -3.4931  -3.3887
    -3.2949  -2.9699  -2.8574  -2.7689  -2.6858  -2.5253  -2.3857  -2.3015
    -2.2596  -2.1221  -2.0583  -1.9483  -0.9557  -0.6519  -0.3291   0.0277
     0.2173   0.5123   0.7041   1.0280   1.1760   1.2823   1.4036   1.5307
     1.6156   1.7469   1.8071   2.1401   3.5271   4.4270   4.5714   5.0389
     5.3261   5.3495   5.4797   6.0546   6.3638   6.4124   6.4356   6.5080
     6.6255   6.7613   6.9035   7.1231   7.2900   7.4820   7.6100   7.7057
     7.8896   8.0108   8.0891   8.1700   8.2419   8.3287   8.4452   8.5289
     8.7600   8.8746   8.9022   8.9963   9.2166   9.3943   9.5106   9.5700
     9.6399   9.7719   9.8100   9.8840   9.9493  10.0969  10.1486  10.2706
    10.3386  10.4192  10.4408  10.6122  10.7357  10.8036  10.8470  10.9697
    10.9989  11.1299  11.1839  11.2609  11.3693  11.4729  11.4971  11.5589
    11.5864  11.7367  11.7658  11.8097  11.8708  12.0353  12.1668  12.2104
    12.2503  12.3076  12.3353  12.4556  12.5114  12.6198  12.6768  12.7432
    12.7915  12.8505  12.9688  13.0651  13.1155  13.1795  13.2325  13.2832
    13.3991  13.4524  13.5312  13.5774  13.7565  13.8144  13.8802  13.9029
    13.9418  14.1524  14.1983  14.2143  14.2932  14.3727  14.4140  14.5096
    14.6214  14.6555  14.7507  14.8178  15.0249  15.1570  15.3130  15.3334
    15.3768  15.4436  15.5032  15.5340  15.5955  15.6574  15.7176  15.7851
    15.8640  15.9238  16.0247  16.0632  16.1313  16.2214  16.2926  16.3608
    16.3936  16.4404  16.4770  16.5121  16.5850  16.6358  16.6622  16.7426
    16.8199  16.9028  16.9948  17.0612  17.1374  17.2083  17.2501  17.3294
    17.3929  17.4968  17.5276  17.5889  17.6397  17.7383  17.8013  17.8509
    17.9474  18.0127  18.0727  18.1446  18.1659  18.2858  18.3196  18.4042
    18.4602  18.5691  18.6592  18.7062  18.8273  18.8588  18.9054  18.9589
    19.0223  19.0717  19.1411  19.2196  19.2728  19.3060  19.3531  19.4929
    19.5545  19.6285  19.7064  19.7511  19.7998  19.9145  20.0340  20.0744
    20.2073  20.2820  20.2927  20.3603  20.5233  20.5789  20.6244  20.6800
    20.7273  20.8079  20.8709  20.9337  20.9548  21.0545  21.1143  21.2017
    21.3012  21.3419  21.3769  21.4086  21.4489  21.5356  21.6758  21.7451
    21.7662  21.8382  21.8687  21.9170  21.9508  22.0522  22.1045  22.1812
    22.2327  22.3354  22.4048  22.4586  22.5464

     the Fermi energy is    -2.4105 ev

!    total energy              =   -1977.54121142 Ry
     Harris-Foulkes estimate   =   -1977.54121173 Ry
     estimated scf accuracy    <       0.00000033 Ry

     The total energy is the sum of the following terms:

     one-electron contribution =  -23256.51905651 Ry
     hartree contribution      =   11677.03123268 Ry
     xc contribution           =    -372.19269001 Ry
     ewald contribution        =    9971.51990613 Ry
     Hubbard energy            =       2.61976354 Ry
     smearing contrib. (-TS)   =      -0.00036725 Ry

     convergence has been achieved in  48 iterations

     Forces acting on atoms (Ry/au):


     negative rho (up, down):  0.689E+00 0.000E+00
     atom    1 type  1   force =    -0.00800554   -0.01199120    0.00427923
     atom    2 type  1   force =     0.00016852    0.00651089    0.00177455
     atom    3 type  2   force =     0.03880474    0.00842416   -0.01525171
     atom    4 type  2   force =     0.00830601    0.00882607   -0.00307698
     atom    5 type  1   force =    -0.00343429   -0.02796875    0.00207159
     atom    6 type  1   force =     0.00372216    0.02490204    0.00119646
     atom    7 type  1   force =    -0.00030118   -0.00237923    0.02164186
     atom    8 type  1   force =    -0.00295784   -0.00119541   -0.00026005
     atom    9 type  2   force =     0.00174036    0.00032490   -0.01006600
     atom   10 type  2   force =    -0.00002902   -0.00104374   -0.00480080
     atom   11 type  1   force =     0.00556880    0.01025349    0.00018082
     atom   12 type  1   force =     0.00510536   -0.01083773    0.00000809
     atom   13 type  1   force =    -0.00070545    0.00008675    0.00351239
     atom   14 type  1   force =    -0.00755157   -0.01201611    0.00410567
     atom   15 type  1   force =     0.00024026    0.00700355    0.00295830
     atom   16 type  2   force =    -0.03894716    0.00698055   -0.01512726
     atom   17 type  2   force =     0.00811412    0.00895332   -0.00606234
     atom   18 type  1   force =    -0.00225517   -0.02769500    0.00198416
     atom   19 type  1   force =     0.00477615    0.02540840    0.00117754
     atom   20 type  1   force =    -0.00020708   -0.00498620    0.02278936
     atom   21 type  1   force =    -0.00292818   -0.00078111    0.00235852
     atom   22 type  2   force =     0.00073818    0.00053201   -0.00992067
     atom   23 type  2   force =    -0.00007690    0.00141246   -0.01630516
     atom   24 type  1   force =    -0.00599829    0.01031833    0.00012075
     atom   25 type  1   force =    -0.00423805   -0.01090704    0.00013361
     atom   26 type  1   force =    -0.00060520   -0.00004856    0.00592242
     atom   27 type  3   force =    -0.00012185   -0.00399101    0.00217611
     atom   28 type  3   force =    -0.00015377   -0.00475601    0.00277476
     atom   29 type  3   force =     0.00065151    0.00044457    0.00009179
     atom   30 type  3   force =     0.00058444    0.00060017    0.00012034
     atom   31 type  1   force =    -0.00000407   -0.00038455   -0.00050733

     Total force =     0.046347     Total SCF correction =     0.003455

     BFGS Geometry Optimization

     number of scf cycles    =   1
     number of bfgs steps    =   0

     energy   new            =   -1977.5412114152 Ry

     new trust radius        =       0.0227893642 bohr
     new conv_thr            =       0.0000010000 Ry


ATOMIC_POSITIONS (crystal)
O0       0.000000000   0.000000000   0.378075663    0   0   1
O0       0.000000000   0.500000000   0.402195523    0   0   1
Rh1      0.250000000   0.500000000   0.452944687    0   0   1
Rh1      0.000000000   0.000000000   0.452368404    0   0   1
O0       0.250000000   0.810000000   0.452291470    0   0   1
O0       0.250000000   0.190000000   0.452153951    0   0   1
O0       0.000000000   0.500000000   0.499273233    0   0   1
O0       0.000000000   0.000000000   0.527814794    0   0   1
[...]
    12.3372  12.3883  12.5196  12.5361  12.5751  12.6974  12.8255  12.8341
    12.9998  13.0205  13.0549  13.0962  13.3580  13.3849  13.4365  13.4988
    13.5369  13.5658  13.6805  13.7251  13.7857  13.8214  13.9943  14.0337
    14.0659  14.1597  14.1945  14.3027  14.3621  14.4066  14.4410  14.6746
    14.6820  14.7859  14.8267  14.9416  14.9533  15.0417  15.0621  15.0872
    15.1652  15.1904  15.4480  15.5383  15.7462  15.9006  16.0701  16.1115
    16.1595  16.1889  16.2281  16.2725  16.3343  16.3569  16.3884  16.4237
    16.4863  16.5511  16.6206  16.6383  16.6908  16.7308  16.7444  16.7475
    16.7751  16.8401  16.8493  16.9357  17.1162  17.1521  17.2607  17.3963
    17.4850  17.6307  17.6616  17.6764  17.8426  17.8519  17.9604  18.0349
    18.1082  18.2652  18.3025  18.3563  18.4249  18.4521  18.4727  18.6146
    18.6273  18.6803  18.8004  18.9311  18.9903  19.0744  19.0783  19.1584
    19.1749  19.1765  19.2262  19.2859  19.3494  19.3525  19.4034  19.5541
    19.6172  19.6367  19.7369  19.7496  19.8362  19.8582  19.8939  20.0326
    20.0974  20.1077  20.1433  20.2489  20.2725  20.2759  20.3249  20.3570
    20.3630  20.4360  20.4902  20.5033  20.6344  20.6440  20.8580  20.9373
    20.9418  20.9704  20.9970  21.1202  21.1373  21.1583  21.1950  21.3034
    21.3154  21.3350  21.3762  21.4079  21.4214  21.4769  21.5650  21.5938
    21.7870  21.8097  21.8969  21.9686  22.0538

          k =-0.5000 0.2417 0.0000 ( 30500 PWs)   bands (ev):

   -49.7662 -49.4449 -49.3719 -48.6962 -48.6909 -48.6285 -48.6127 -48.5880
   -48.5865 -48.5669 -48.5563 -48.4944 -48.4935 -48.4533 -48.4504 -48.3793
   -48.3050 -48.3026 -48.2725 -48.2687 -48.1947 -48.1927 -48.1850 -48.1847
   -21.3028 -21.2818 -20.9709 -20.9640 -20.8164 -20.8051 -20.6914 -20.5451
   -20.5070 -20.4108 -20.3817 -20.3335 -20.2571 -20.2519 -20.1916 -20.1811
   -19.5844 -19.3753 -19.3720 -10.1743 -10.1207 -10.0245 -10.0083  -9.7669
    -9.7099  -9.6584  -9.6162  -9.5516  -9.4727  -9.4412  -9.4281  -9.2549
    -9.1634  -8.9928  -8.8725  -8.7488  -8.6559  -8.3429  -8.1993  -8.0729
    -7.9271  -7.8083  -7.7916  -7.6724  -7.6273  -7.5314  -7.5052  -7.3773
    -7.3295  -7.2430  -7.1620  -7.0187  -6.9674  -6.8436  -6.7992  -6.7202
    -6.5947  -6.5212  -6.4496  -6.3174  -6.1830  -6.0441  -5.9829  -5.8010
    -5.5426  -5.4188  -5.3054  -5.2097  -4.9924  -4.9554  -4.6729  -4.3686
    -4.3088  -4.2296  -4.1269  -4.0809  -3.9932  -3.9626  -3.9062  -3.8827
    -3.7695  -3.7469  -3.6389  -3.5563  -3.4718  -3.3438  -3.2047  -3.1334
    -2.9016  -2.8913  -2.7576  -2.7348  -2.6060  -2.5527  -2.4898  -2.4525
    -2.4244  -2.4099  -2.2211  -2.1616  -0.8150  -0.1663   0.0729   0.2343
     0.2394   0.4519   0.5725   0.6559   0.7362   1.0923   1.2332   1.4055
     1.4262   1.6444   1.9136   2.0805   4.2611   4.2747   4.9287   5.2859
     5.2924   5.5233   5.6867   5.8236   5.9617   6.0874   6.2468   6.4102
     6.7112   7.0520   7.0656   7.1377   7.1884   7.2206   7.2447   7.3546
     7.5901   7.7070   7.8905   8.0831   8.1665   8.3317   8.3769   8.5554
     8.6423   8.7407   8.7996   8.9527   9.0482   9.1921   9.5434   9.7536
     9.7735   9.8939   9.9744  10.0304  10.0933  10.2075  10.2716  10.3525
    10.4607  10.6730  10.7003  10.7117  10.8223  10.8329  10.9384  11.0153
    11.2306  11.2525  11.3277  11.4816  11.5499  11.5682  11.6748  11.7545
    11.8578  11.9159  11.9990  12.0858  12.1897  12.2061  12.2521  12.3340
    12.5056  12.5435  12.5820  12.6883  12.7143  12.8587  13.0577  13.1053
    13.1472  13.1669  13.1942  13.2324  13.3468  13.4451  13.5056  13.6134
    13.6824  13.6966  13.7401  13.8546  13.9234  13.9568  14.0421  14.1258
    14.1458  14.2376  14.2969  14.3059  14.3796  14.4777  14.5097  14.5451
    14.6190  14.6929  14.7583  14.8281  14.9117  14.9243  14.9805  15.0108
    15.0613  15.1156  15.1794  15.1966  15.3000  15.3729  15.3900  15.4946
    15.5225  15.5541  15.7861  15.8828  15.9391  15.9801  16.1315  16.1730
    16.1911  16.3140  16.3787  16.4215  16.4455  16.4816  16.5401  16.5680
    16.5764  16.6682  16.7735  16.8168  16.9227  16.9836  17.0322  17.0855
    17.1839  17.2690  17.3222  17.3338  17.5631  17.6698  17.7050  17.7319
    17.8216  17.8738  17.9047  17.9467  18.0044  18.1147  18.3383  18.3897
    18.4617  18.4747  18.5101  18.5765  18.6237  18.7218  18.7812  18.8050
    18.8421  18.9328  18.9602  19.0514  19.0716  19.1840  19.2245  19.3559
    19.3735  19.4302  19.5059  19.5250  19.5885  19.6528  19.7410  19.7939
    19.8709  19.9658  20.1333  20.1474  20.1998  20.3414  20.3737  20.4315
    20.4640  20.5747  20.6419  20.7468  20.7848  20.8777  20.9402  21.0983
    21.1282  21.2572  21.3209  21.4414  21.4844  21.5397  21.6080  21.6694
    21.6941  21.7272  21.8410  21.9237  21.9721  22.0572  22.1878  22.2323
    22.2597  22.3463  22.3620  22.4313  22.4600

          k =-0.5000-0.4833 0.0000 ( 30496 PWs)   bands (ev):

   -49.7662 -49.4448 -49.3716 -48.6965 -48.6910 -48.6285 -48.6127 -48.5874
   -48.5864 -48.5670 -48.5563 -48.4942 -48.4932 -48.4523 -48.4494 -48.3796
   -48.3058 -48.3035 -48.2721 -48.2684 -48.1948 -48.1927 -48.1850 -48.1847
   -21.2854 -21.2660 -20.8225 -20.7853 -20.7813 -20.7552 -20.6228 -20.5813
   -20.5774 -20.4943 -20.4405 -20.4260 -20.4119 -20.3470 -20.1987 -20.1848
   -19.5792 -19.3757 -19.3746 -10.0961 -10.0401  -9.9772  -9.9063  -9.7292
    -9.7000  -9.6782  -9.5821  -9.3894  -9.2525  -9.1171  -9.0025  -8.9653
    -8.8310  -8.7730  -8.6929  -8.6659  -8.6266  -8.5636  -8.5274  -8.4477
    -8.3920  -8.1054  -8.0531  -7.9942  -7.9207  -7.6200  -7.6118  -7.4547
    -7.3386  -7.1968  -7.1379  -7.0954  -7.0651  -6.8709  -6.7882  -6.6902
    -6.6702  -6.5405  -6.3799  -6.3661  -6.2057  -5.9819  -5.9709  -5.8040
    -5.7713  -5.6077  -5.5506  -5.3264  -4.9450  -4.8855  -4.6369  -4.2964
    -4.2189  -4.1022  -3.9266  -3.9102  -3.8894  -3.8682  -3.7840  -3.7445
    -3.6433  -3.6185  -3.6102  -3.5094  -3.4651  -3.4080  -3.3691  -3.2845
    -2.8912  -2.8022  -2.7646  -2.6699  -2.6213  -2.5635  -2.5102  -2.4467
    -2.4165  -2.3490  -2.3230  -2.2900  -0.7165  -0.5709  -0.0931  -0.0872
    -0.0555   0.4169   0.6738   0.6943   0.6955   1.3800   1.3860   1.4404
     1.7754   1.8770   1.9165   1.9571   4.6698   4.6746   5.1691   5.2228
     5.2261   5.9432   5.9462   6.0337   6.0376   6.1470   6.1899   6.2716
     6.3996   6.5628   6.6035   6.7212   6.8171   6.9905   7.0827   7.1976
     7.4336   7.7282   7.7450   7.8334   7.8555   7.8664   7.9334   8.0501
     8.4651   8.7663   8.8476   8.9821   9.0533   9.2695   9.3012   9.3313
     9.5417   9.6023  10.1442  10.2474  10.2708  10.5320  10.5457  10.7074
    10.7369  10.8154  11.0827  11.1502  11.2976  11.3284  11.4072  11.4680
    11.5797  11.5932  11.8222  11.8584  11.9346  12.0577  12.2052  12.2797
    12.3412  12.4407  12.4926  12.6030  12.7498  12.7779  12.8455  12.9303
    12.9507  13.0091  13.0500  13.1130  13.1244  13.1387  13.1812  13.2294
    13.3007  13.3217  13.4801  13.5097  13.5384  13.5867  13.6051  13.6191
    13.6274  13.6518  13.7021  13.7723  13.8075  13.8150  13.8605  13.8703
    14.0763  14.0967  14.1189  14.1365  14.1556  14.1692  14.2528  14.3203
    14.3769  14.3968  14.4275  14.4402  14.5294  14.6264  14.6771  14.7920
    14.8489  14.9165  15.0102  15.0725  15.1168  15.1472  15.1699  15.2274
    15.2424  15.2812  15.3129  15.3629  15.4882  15.5098  15.5949  15.6686
    15.7174  15.7954  15.8933  15.9487  15.9943  16.0202  16.1178  16.1593
    16.2795  16.3023  16.4487  16.4821  16.5726  16.6153  16.7327  16.7988
    16.8741  16.9529  17.0183  17.0501  17.0967  17.1593  17.1976  17.3191
    17.5302  17.6194  17.6718  17.7970  17.9849  18.0053  18.1123  18.1493
    18.1738  18.2149  18.2637  18.3204  18.4876  18.5573  18.6080  18.7507
    18.8271  19.0905  19.1883  19.2387  19.2757  19.3715  19.4432  19.4494
    19.5025  19.6649  19.7840  20.0789  20.1458  20.1721  20.2442  20.2672
    20.3054  20.3748  20.5642  20.6277  20.6678  20.7200  20.7457  20.7653
    20.7879  20.8680  21.0290  21.1268  21.1361  21.1806  21.2039  21.2704
    21.3154  21.3406  21.3942  21.4836  21.5044  21.5112  21.5450  21.5992
    21.6116  21.6311  21.6894  21.7477  21.8241  21.9418  21.9720  21.9906
    22.0414  22.1233  22.1283  22.2444  22.3359

          k =-0.2500 0.2417 0.0000 ( 30481 PWs)   bands (ev):

   -49.7660 -49.4451 -49.3718 -48.6918 -48.6906 -48.6599 -48.5903 -48.5838
   -48.5814 -48.5651 -48.5554 -48.5329 -48.4561 -48.4493 -48.4458 -48.3792
   -48.3077 -48.3062 -48.3009 -48.2293 -48.1997 -48.1916 -48.1875 -48.1778
   -21.4857 -21.2247 -21.1992 -21.0896 -20.7816 -20.7109 -20.6729 -20.5991
   -20.5163 -20.4193 -20.3708 -20.3489 -20.2888 -20.1347 -20.0991 -20.0531
   -19.5761 -19.3692 -19.2343 -10.8088 -10.6324 -10.3580 -10.2500 -10.1335
   -10.0031  -9.9310  -9.8965  -9.6170  -9.2358  -9.1529  -9.0519  -8.9153
    -8.8202  -8.7364  -8.5857  -8.5269  -8.4909  -8.3935  -8.1195  -8.0393
    -7.9074  -7.7718  -7.6944  -7.5749  -7.5033  -7.4305  -7.3870  -7.2933
    -7.1749  -7.0949  -7.0269  -6.9505  -6.8676  -6.8203  -6.7452  -6.6792
    -6.6347  -6.4727  -6.4273  -6.2884  -6.1347  -5.7645  -5.5776  -5.5255
    -5.4232  -5.2590  -5.1781  -5.0869  -5.0496  -4.9285  -4.8091  -4.7238
    -4.6754  -4.4839  -4.4052  -4.2668  -4.1887  -4.0445  -3.9746  -3.9377
    -3.8780  -3.8138  -3.7728  -3.6654  -3.6173  -3.5495  -3.4802  -3.3852
    -3.2972  -2.9730  -2.8396  -2.7571  -2.6913  -2.5160  -2.3851  -2.2776
    -2.2579  -2.1141  -2.0456  -1.9386  -0.9105  -0.6377  -0.3254   0.0317
     0.2456   0.5399   0.7183   1.0008   1.1874   1.3385   1.4169   1.5590
     1.6272   1.7692   1.8243   2.1967   3.5031   4.4474   4.5613   5.0344
     5.3094   5.3246   5.4767   6.0581   6.3659   6.3962   6.4472   6.5172
     6.6312   6.7578   6.9011   7.1194   7.2923   7.4812   7.6186   7.7066
     7.8990   8.0103   8.0965   8.1920   8.2493   8.3241   8.4474   8.5244
     8.7579   8.8745   8.9053   9.0088   9.2208   9.3971   9.5176   9.5768
     9.6531   9.7762   9.8187   9.8808   9.9589  10.1036  10.1498  10.2637
    10.3374  10.4241  10.4436  10.6217  10.7434  10.8173  10.8477  10.9877
    11.0095  11.1314  11.2131  11.2756  11.3731  11.4764  11.5057  11.5691
    11.5959  11.7410  11.7677  11.8196  11.8791  12.0389  12.1757  12.2156
    12.2662  12.3258  12.3455  12.4671  12.5107  12.6253  12.6836  12.7397
    12.8003  12.8582  12.9845  13.0716  13.1232  13.1832  13.2267  13.2885
    13.3924  13.4487  13.5403  13.5880  13.7571  13.8217  13.8896  13.9314
    13.9755  14.1546  14.2154  14.2364  14.3030  14.3778  14.4224  14.5124
    14.6257  14.6769  14.7489  14.8197  15.0314  15.1637  15.3153  15.3291
    15.3776  15.4370  15.5092  15.5325  15.5964  15.6635  15.7224  15.7857
    15.8754  15.9246  16.0246  16.0630  16.1392  16.2197  16.2905  16.3600
    16.3913  16.4498  16.4773  16.5173  16.5866  16.6396  16.6662  16.7443
    16.8264  16.9037  16.9986  17.0598  17.1292  17.2093  17.2453  17.3338
    17.3975  17.4972  17.5271  17.5945  17.6413  17.7351  17.7977  17.8444
    17.9468  18.0133  18.0706  18.1453  18.1653  18.2898  18.3173  18.4076
    18.4512  18.5667  18.6461  18.7085  18.8329  18.8580  18.9054  18.9557
    19.0173  19.0741  19.1416  19.2199  19.2786  19.3138  19.3614  19.4980
    19.5497  19.6360  19.7090  19.7521  19.8033  19.9161  20.0295  20.0778
    20.2103  20.2852  20.2918  20.3554  20.5252  20.5726  20.6198  20.6777
    20.7234  20.7983  20.8790  20.9280  20.9489  21.0526  21.0979  21.1974
    21.3077  21.3388  21.3844  21.4114  21.4552  21.5440  21.6707  21.7523
    21.7625  21.8368  21.8693  21.9233  21.9502  22.0558  22.1110  22.1899
    22.2340  22.3259  22.4044  22.4577  22.5464

     the Fermi energy is    -2.4016 ev

!    total energy              =   -1977.54320231 Ry
     Harris-Foulkes estimate   =   -1977.54320232 Ry
     estimated scf accuracy    <          3.5E-09 Ry

     The total energy is the sum of the following terms:

     one-electron contribution =  -23312.92430760 Ry
     hartree contribution      =   11705.25768063 Ry
     xc contribution           =    -372.23278201 Ry
     ewald contribution        =    9999.73955989 Ry
     Hubbard energy            =       2.61698007 Ry
     smearing contrib. (-TS)   =      -0.00033330 Ry

     convergence has been achieved in  19 iterations

     Forces acting on atoms (Ry/au):


     negative rho (up, down):  0.687E+00 0.000E+00
     atom    1 type  1   force =    -0.00707919   -0.01166860    0.00021081
     atom    2 type  1   force =     0.00003622    0.00244243    0.00037010
     atom    3 type  2   force =     0.03429416    0.00863397   -0.00006240
     atom    4 type  2   force =     0.00839498    0.00880016    0.00009585
     atom    5 type  1   force =    -0.00356170   -0.02711902    0.00005575
     atom    6 type  1   force =     0.00421561    0.02379647    0.00015688
     atom    7 type  1   force =    -0.00033040   -0.00241056   -0.00058913
     atom    8 type  1   force =    -0.00310966   -0.00109045   -0.00039579
     atom    9 type  2   force =     0.00213727    0.00044741   -0.00016167
     atom   10 type  2   force =    -0.00004092   -0.00110080   -0.00071793
     atom   11 type  1   force =     0.00350361    0.01245567   -0.00039492
     atom   12 type  1   force =     0.00288633   -0.01327703   -0.00052122
     atom   13 type  1   force =    -0.00067637    0.00009089    0.00020535
     atom   14 type  1   force =    -0.00654787   -0.01168678    0.00020293
     atom   15 type  1   force =     0.00010914    0.00187285   -0.00031285
     atom   16 type  2   force =    -0.03450633    0.00705596   -0.00005419
     atom   17 type  2   force =     0.00815744    0.00895842   -0.00002281
     atom   18 type  1   force =    -0.00287665   -0.02668978    0.00007429
     atom   19 type  1   force =     0.00477186    0.02441365    0.00014833
     atom   20 type  1   force =    -0.00017881   -0.00503309    0.00096173
     atom   21 type  1   force =    -0.00295834   -0.00068731   -0.00039315
     atom   22 type  2   force =     0.00034262    0.00065024   -0.00015177
     atom   23 type  2   force =    -0.00011146    0.00147463    0.00050540
     atom   24 type  1   force =    -0.00402850    0.01253918   -0.00038722
     atom   25 type  1   force =    -0.00192650   -0.01331536   -0.00052951
     atom   26 type  1   force =    -0.00062283    0.00000668    0.00011712
     atom   27 type  3   force =    -0.00000973   -0.00002880    0.00061160
     atom   28 type  3   force =    -0.00000337    0.00032926    0.00041840
     atom   29 type  3   force =    -0.00008821    0.00013401    0.00012339
     atom   30 type  3   force =    -0.00017883    0.00028047    0.00007715
     atom   31 type  1   force =    -0.00001358   -0.00027476    0.00035945

     Total force =     0.002175     Total SCF correction =     0.000165

     bfgs converged in   9 scf cycles and   8 bfgs steps
     (criteria: energy < 0.10E-03, force < 0.10E-02)

     End of BFGS Geometry Optimization

     Final energy   =   -1977.5432023118 Ry
Begin final coordinates

ATOMIC_POSITIONS (crystal)
O0       0.000000000   0.000000000   0.378217262    0   0   1
O0       0.000000000   0.500000000   0.402568896    0   0   1
Rh1      0.250000000   0.500000000   0.453372574    0   0   1
Rh1      0.000000000   0.000000000   0.452405300    0   0   1
O0       0.250000000   0.810000000   0.452528920    0   0   1
O0       0.250000000   0.190000000   0.452237109    0   0   1
O0       0.000000000   0.500000000   0.499771628    0   0   1
O0       0.000000000   0.000000000   0.527526484    0   0   1
Rh1      0.250000000   0.000000000   0.574571416    0   0   1
Rh1      0.000000000   0.500000000   0.571092054    0   0   1
O0       0.250000000   0.690000000   0.574658906    0   0   1
O0       0.250000000   0.310000000   0.574583671    0   0   1
O0       0.000000000   0.000000000   0.619873806    0   0   1
O0       0.500000000   0.000000000   0.378123011    0   0   1
O0       0.500000000   0.500000000   0.402435732    0   0   1
Rh1      0.750000000   0.500000000   0.453375593    0   0   1
Rh1      0.500000000   0.000000000   0.452296106    0   0   1
O0       0.750000000   0.810000000   0.452496324    0   0   1
O0       0.750000000   0.190000000   0.452252935    0   0   1
O0       0.500000000   0.500000000   0.501863512    0   0   1
O0       0.500000000   0.000000000   0.527440890    0   0   1
Rh1      0.750000000   0.000000000   0.574569054    0   0   1
Rh1      0.500000000   0.500000000   0.578775411    0   0   1
O0       0.750000000   0.690000000   0.574622319    0   0   1
O0       0.750000000   0.310000000   0.574610901    0   0   1
O0       0.500000000   0.000000000   0.620006498    0   0   1
H2      -0.000230030   0.636187690   0.385036271
H2       0.499750730   0.637317134   0.385421671
H2       0.147975789   0.034678688   0.367394552
H2       0.647988833   0.034944037   0.367328080
O0       0.500061596   0.498207557   0.645363115
End final coordinates



     init_run     :    118.32s CPU    122.27s WALL (       1 calls)
     electrons    :  42691.86s CPU  44003.75s WALL (       9 calls)
     update_pot   :    174.71s CPU    179.46s WALL (       8 calls)
     forces       :   1321.34s CPU   1344.29s WALL (       9 calls)

     Called by init_run:
     wfcinit      :     39.23s CPU     41.25s WALL (       1 calls)
     potinit      :      8.02s CPU      8.47s WALL (       1 calls)

     Called by electrons:
     c_bands      :  21359.29s CPU  22051.77s WALL (     216 calls)
     sum_band     :   8567.47s CPU   8826.26s WALL (     216 calls)
     v_of_rho     :    258.05s CPU    279.69s WALL (     222 calls)
     newd         :  12792.16s CPU  12906.57s WALL (     222 calls)
     mix_rho      :     43.91s CPU     45.43s WALL (     216 calls)

     Called by c_bands:
     init_us_2    :     46.75s CPU     47.22s WALL (    1380 calls)
     cegterg      :  21038.39s CPU  21658.36s WALL (     648 calls)

     Called by *egterg:
     h_psi        :  12026.14s CPU  12419.13s WALL (    1667 calls)
     s_psi        :   1371.82s CPU   1390.02s WALL (    1721 calls)
     g_psi        :     27.32s CPU     27.43s WALL (    1016 calls)
     cdiaghg      :   1800.08s CPU   1810.39s WALL (    1631 calls)

     Called by h_psi:
     add_vuspsi   :   1335.87s CPU   1355.41s WALL (    1667 calls)
     vhpsi        :   1201.28s CPU   1220.91s WALL (    1667 calls)

     General routines
     calbec       :   3118.92s CPU   3163.29s WALL (   12271 calls)
     fft          :    323.24s CPU    397.46s WALL (    3635 calls)
     ffts         :      3.98s CPU      4.07s WALL (     438 calls)
     fftw         :   6768.10s CPU   7195.46s WALL ( 1195912 calls)
     interpolate  :     38.45s CPU     39.00s WALL (     438 calls)
     davcio       :      0.14s CPU     20.43s WALL (    1407 calls)

     Parallel routines
     fft_scatter  :   2534.83s CPU   3009.81s WALL ( 1199985 calls)
     Hubbard U routines
     new_ns       :    281.53s CPU    295.78s WALL (     216 calls)
     vhpsi        :   1201.28s CPU   1220.91s WALL (    1667 calls)
     force_hub    :    353.57s CPU    365.12s WALL (       9 calls)

     PWSCF        :    12h27m CPU       12h49m WALL


   This run was terminated on:  17:40:13  30Apr2014            

=------------------------------------------------------------------------------=
   JOB DONE.
=------------------------------------------------------------------------------=
---------------------------------------
Running PBS batch system epilogue script
Job id: 340549.audhumbla.fysik.dtu.dk
Username: zhonxu
Groupname: campgst
Jobname: RhO2/Eads-2-layers/O-U-7.0
Sessionid: 20127
Resources limits: neednodes=2:ppn=8:xeon8,nodes=2:ppn=8:xeon8,walltime=48:00:00
Resources used: cput=204:34:45,mem=17570120kb,vmem=21294688kb,walltime=12:49:37
Queuename: verylong
Accounting:
This job has allocated the following 16 nodes:
d064 d064 d064 d064 d064 d064 d064 d064 d063 d063 d063 d063 d063 d063 d063 d063
Finished epilogue job 340549.audhumbla.fysik.dtu.dk for zhonxu
