ScientificPython/2.8-dl160g6-numpy-1.7.1-1(15):ERROR:151: Module 'ScientificPython/2.8-dl160g6-numpy-1.7.1-1' depends on one of the module(s) 'numpy/1.7.1-dl160g6-gfortran-internal-1'
ScientificPython/2.8-dl160g6-numpy-1.7.1-1(15):ERROR:102: Tcl command execution failed: prereq numpy/1.7.1-dl160g6-gfortran-internal-1


     Program PWSCF v.5.0.2 (svn rev. 9656) starts on 20May2014 at  9:44:36 

     This program is part of the open-source Quantum ESPRESSO suite
     for quantum simulation of materials; please cite
         "P. Giannozzi et al., J. Phys.:Condens. Matter 21 395502 (2009);
          URL http://www.quantum-espresso.org", 
     in publications or presentations arising from this work. More details at
     http://www.quantum-espresso.org/quote.php

     Parallel version (MPI), running on    16 processors
     K-points division:     npool     =       4
     R & G space division:  proc/nbgrp/npool/nimage =       4

     Current dimensions of program PWSCF are:
     Max number of different atomic species (ntypx) = 10
     Max number of k-points (npk) =  40000
     Max angular momentum in pseudopotentials (lmaxx) =  3
     Reading input from pwscf.in
Warning: card &CELL ignored
Warning: card / ignored

     Subspace diagonalization in iterative solution of the eigenvalue problem:
     a serial algorithm will be used


     Parallelization info
     --------------------
     sticks:   dense  smooth     PW     G-vecs:    dense   smooth      PW
     Min        1244     397    112               291872    52833    7934
     Max        1245     398    113               291883    52857    7939
     Sum        4979    1589    451              1167509   211387   31747



     bravais-lattice index     =            0
     lattice parameter (alat)  =      10.7336  a.u.
     unit-cell volume          =    6184.1966 (a.u.)^3
     number of atoms/cell      =           31
     number of atomic types    =            3
     number of electrons       =       238.00 (up: 130.00, down: 108.00)
     number of Kohn-Sham states=          345
     kinetic-energy cutoff     =      40.0000  Ry
     charge density cutoff     =     500.0000  Ry
     convergence threshold     =      1.0E-06
     mixing beta               =       0.7000
     number of iterations used =            8  plain     mixing
     Exchange-correlation      = SLA  PW   PBE  PBE ( 1 4 3 4 0)
     EXX-fraction              =        0.00
     nstep                     =           50


     celldm(1)=  10.733644  celldm(2)=   0.000000  celldm(3)=   0.000000
     celldm(4)=   0.000000  celldm(5)=   0.000000  celldm(6)=   0.000000

     crystal axes: (cart. coord. in units of alat)
               a(1) = (   1.000000   0.000000   0.000000 )  
               a(2) = (   0.000000   1.085558   0.000000 )  
               a(3) = (   0.000000   0.000000   4.606685 )  

     reciprocal axes: (cart. coord. in units 2 pi/alat)
               b(1) = (  1.000000  0.000000  0.000000 )  
               b(2) = (  0.000000  0.921185  0.000000 )  
               b(3) = (  0.000000  0.000000  0.217076 )  


     PseudoPot. # 1 for O  read from file:
     /home/camp/zhonxu/pseudo/o_pbe_v1.01.uspp.F.UPF
     MD5 check sum: 2bcb18d16ea4b960afae9ec6d52f22d2
     Pseudo is Ultrasoft + core correction, Zval =  6.0
     Generated by new atomic code, or converted to UPF format
     Using radial grid of  737 points,  5 beta functions with: 
                l(1) =   0
                l(2) =   0
                l(3) =   1
                l(4) =   1
                l(5) =   2
     Q(r) pseudized with  8 coefficients,  rinner =    0.900   0.900   0.900
                                                       0.900   0.900

     PseudoPot. # 2 for Mn read from file:
     /home/camp/zhonxu/pseudo/mn_pbe_v1.uspp.F.UPF
     MD5 check sum: 5fd7c7b5c956fd19902447332617373a
     Pseudo is Ultrasoft + core correction, Zval = 15.0
     Generated by new atomic code, or converted to UPF format
     Using radial grid of  859 points,  6 beta functions with: 
                l(1) =   0
                l(2) =   0
                l(3) =   1
                l(4) =   1
                l(5) =   2
                l(6) =   2
     Q(r) pseudized with  6 coefficients,  rinner =    1.150   1.150   1.150
                                                       1.150   1.150

     PseudoPot. # 3 for H  read from file:
     /home/camp/zhonxu/pseudo/h_pbe_v1.uspp.F.UPF
     MD5 check sum: 3408e3ff4ec8b0a4e358431e7e038a48
     Pseudo is Ultrasoft, Zval =  1.0
     Generated by new atomic code, or converted to UPF format
     Using radial grid of  615 points,  2 beta functions with: 
                l(1) =   0
                l(2) =   0
     Q(r) pseudized with  8 coefficients,  rinner =    0.700

     atomic species   valence    mass     pseudopotential
        O0             6.00    15.99940     O ( 1.00)
        Mn1           15.00    54.93800     Mn( 1.00)
        H2             1.00     1.00794     H ( 1.00)

     Starting magnetic structure 
     atomic species   magnetization
        O0           0.000
        Mn1          0.600
        H2           0.000


     Simplified LDA+U calculation (l_max = 2) with parameters (eV):
     atomic species    L          U    alpha       J0     beta
        Mn1            2     6.0000   0.0000   0.0000   0.0000



     No symmetry found



   Cartesian axes

     site n.     atom                  positions (alat units)
         1           O0  tau(   1) = (   0.0000000   0.0000000   1.7399910  )
         2           O0  tau(   2) = (   0.0000000   0.5427791   1.8336449  )
         3           Mn1 tau(   3) = (   0.2500000   0.5427791   2.0703364  )
         4           Mn1 tau(   4) = (   0.0000000   0.0000000   2.0664668  )
         5           O0  tau(   5) = (   0.2500000   0.8684466   2.0675263  )
         6           O0  tau(   6) = (   0.2500000   0.2171117   2.0713959  )
         7           O0  tau(   7) = (   0.0000000   0.5427791   2.2853304  )
         8           O0  tau(   8) = (   0.0000000   0.0000000   2.4130738  )
         9           Mn1 tau(   9) = (   0.2500000   0.0000000   2.6404597  )
        10           Mn1 tau(  10) = (   0.0000000   0.5427791   2.6100556  )
        11           O0  tau(  11) = (   0.2500000   0.7598908   2.6550169  )
        12           O0  tau(  12) = (   0.2500000   0.3256675   2.6553393  )
        13           O0  tau(  13) = (   0.0000000   0.0000000   2.8422786  )
        14           O0  tau(  14) = (   0.5000000   0.0000000   1.7417876  )
        15           O0  tau(  15) = (   0.5000000   0.5427791   1.8324472  )
        16           Mn1 tau(  16) = (   0.7500000   0.5427791   2.0703364  )
        17           Mn1 tau(  17) = (   0.5000000   0.0000000   2.0689544  )
        18           O0  tau(  18) = (   0.7500000   0.8684466   2.0673421  )
        19           O0  tau(  19) = (   0.7500000   0.2171117   2.0716263  )
        20           O0  tau(  20) = (   0.5000000   0.5427791   2.2770384  )
        21           O0  tau(  21) = (   0.5000000   0.0000000   2.4133962  )
        22           Mn1 tau(  22) = (   0.7500000   0.0000000   2.6405058  )
        23           Mn1 tau(  23) = (   0.5000000   0.5427791   2.7093297  )
        24           O0  tau(  24) = (   0.7500000   0.7598908   2.6549708  )
        25           O0  tau(  25) = (   0.7500000   0.3256675   2.6552472  )
        26           O0  tau(  26) = (   0.5000000   0.0000000   2.8420483  )
        27           H2  tau(  27) = (   0.0000300   0.7005108   1.7564369  )
        28           H2  tau(  28) = (   0.5000400   0.7015529   1.7568515  )
        29           H2  tau(  29) = (   0.1610500   0.0407627   1.6853097  )
        30           H2  tau(  30) = (   0.6609300   0.0408604   1.6868759  )
        31           O0  tau(  31) = (   0.5000700   0.5432134   2.9889094  )

     number of k points=    20  Methfessel-Paxton smearing, width (Ry)=  0.0100
                       cart. coord. in units 2pi/alat
        k(    1) = (   0.0000000   0.0000000   0.0000000), wk =   0.0625000
        k(    2) = (   0.0000000   0.2302962   0.0000000), wk =   0.1250000
        k(    3) = (   0.0000000  -0.4605925   0.0000000), wk =   0.0625000
        k(    4) = (   0.2500000   0.0000000   0.0000000), wk =   0.1250000
        k(    5) = (   0.2500000   0.2302962   0.0000000), wk =   0.1250000
        k(    6) = (   0.2500000  -0.4605925   0.0000000), wk =   0.1250000
        k(    7) = (  -0.5000000   0.0000000   0.0000000), wk =   0.0625000
        k(    8) = (  -0.5000000   0.2302962   0.0000000), wk =   0.1250000
        k(    9) = (  -0.5000000  -0.4605925   0.0000000), wk =   0.0625000
        k(   10) = (  -0.2500000   0.2302962   0.0000000), wk =   0.1250000
        k(   11) = (   0.0000000   0.0000000   0.0000000), wk =   0.0625000
        k(   12) = (   0.0000000   0.2302962   0.0000000), wk =   0.1250000
        k(   13) = (   0.0000000  -0.4605925   0.0000000), wk =   0.0625000
        k(   14) = (   0.2500000   0.0000000   0.0000000), wk =   0.1250000
        k(   15) = (   0.2500000   0.2302962   0.0000000), wk =   0.1250000
        k(   16) = (   0.2500000  -0.4605925   0.0000000), wk =   0.1250000
        k(   17) = (  -0.5000000   0.0000000   0.0000000), wk =   0.0625000
        k(   18) = (  -0.5000000   0.2302962   0.0000000), wk =   0.1250000
        k(   19) = (  -0.5000000  -0.4605925   0.0000000), wk =   0.0625000
        k(   20) = (  -0.2500000   0.2302962   0.0000000), wk =   0.1250000

     Dense  grid:  1167509 G-vectors     FFT dimensions: (  80,  90, 360)

     Smooth grid:   211387 G-vectors     FFT dimensions: (  45,  48, 200)

     Largest allocated arrays     est. size (Mb)     dimensions
        Kohn-Sham Wavefunctions        34.96 Mb     (   6641,  345)
        Atomic wavefunctions           18.65 Mb     (   6641,  184)
        NL pseudopotentials            40.43 Mb     (   6641,  399)
        Each V/rho on FFT grid         19.78 Mb     ( 648000,   2)
        Each G-vector array             2.23 Mb     ( 291883)
        G-vector shells                 0.97 Mb     ( 127585)
     Largest temporary arrays     est. size (Mb)     dimensions
        Auxiliary wavefunctions       139.84 Mb     (   6641, 1380)
        Each subspace H/S matrix       29.06 Mb     (1380,1380)
        Each <psi_i|beta_j> matrix      2.10 Mb     (    399,  345)
        Arrays for rho mixing          79.10 Mb     ( 648000,   8)

     Check: negative/imaginary core charge=   -0.000022    0.000000

     Initial potential from superposition of free atoms
     Check: negative starting charge=(component1):   -0.000737
     Check: negative starting charge=(component2):   -0.000364

     starting charge  229.99987, renormalised to  238.00000

     negative rho (up, down):  0.762E-03 0.377E-03
     Number of +U iterations with fixed ns =  0
     Starting occupations:
 --- enter write_ns ---
 LDA+U parameters:
U( 2)     =  6.00000000
alpha( 2) =  0.00000000
atom    3   Tr[ns(na)] (up, down, total) =   5.00000  0.00000  5.00000
   spin  1
    eigenvalues: 
  1.000  1.000  1.000  1.000  1.000
    eigenvectors:
  1.000  0.000  0.000  0.000  0.000
  0.000  1.000  0.000  0.000  0.000
  0.000  0.000  1.000  0.000  0.000
  0.000  0.000  0.000  1.000  0.000
  0.000  0.000  0.000  0.000  1.000
    occupations:
  1.000  0.000  0.000  0.000  0.000
  0.000  1.000  0.000  0.000  0.000
  0.000  0.000  1.000  0.000  0.000
  0.000  0.000  0.000  1.000  0.000
  0.000  0.000  0.000  0.000  1.000
   spin  2
    eigenvalues: 
  0.000  0.000  0.000  0.000  0.000
    eigenvectors:
  1.000  0.000  0.000  0.000  0.000
  0.000  1.000  0.000  0.000  0.000
  0.000  0.000  1.000  0.000  0.000
  0.000  0.000  0.000  1.000  0.000
  0.000  0.000  0.000  0.000  1.000
    occupations:
  0.000  0.000  0.000  0.000  0.000
  0.000  0.000  0.000  0.000  0.000
  0.000  0.000  0.000  0.000  0.000
  0.000  0.000  0.000  0.000  0.000
  0.000  0.000  0.000  0.000  0.000
atomic mag. moment =     5.000000
atom    4   Tr[ns(na)] (up, down, total) =   5.00000  0.00000  5.00000
   spin  1
    eigenvalues: 
  1.000  1.000  1.000  1.000  1.000
    eigenvectors:
  1.000  0.000  0.000  0.000  0.000
  0.000  1.000  0.000  0.000  0.000
  0.000  0.000  1.000  0.000  0.000
  0.000  0.000  0.000  1.000  0.000
  0.000  0.000  0.000  0.000  1.000
    occupations:
  1.000  0.000  0.000  0.000  0.000
  0.000  1.000  0.000  0.000  0.000
  0.000  0.000  1.000  0.000  0.000
  0.000  0.000  0.000  1.000  0.000
  0.000  0.000  0.000  0.000  1.000
   spin  2
    eigenvalues: 
  0.000  0.000  0.000  0.000  0.000
    eigenvectors:
  1.000  0.000  0.000  0.000  0.000
  0.000  1.000  0.000  0.000  0.000
  0.000  0.000  1.000  0.000  0.000
  0.000  0.000  0.000  1.000  0.000
  0.000  0.000  0.000  0.000  1.000
    occupations:
  0.000  0.000  0.000  0.000  0.000
  0.000  0.000  0.000  0.000  0.000
  0.000  0.000  0.000  0.000  0.000
  0.000  0.000  0.000  0.000  0.000
  0.000  0.000  0.000  0.000  0.000
atomic mag. moment =     5.000000
atom    9   Tr[ns(na)] (up, down, total) =   5.00000  0.00000  5.00000
   spin  1
    eigenvalues: 
  1.000  1.000  1.000  1.000  1.000
    eigenvectors:
  1.000  0.000  0.000  0.000  0.000
  0.000  1.000  0.000  0.000  0.000
  0.000  0.000  1.000  0.000  0.000
  0.000  0.000  0.000  1.000  0.000
  0.000  0.000  0.000  0.000  1.000
    occupations:
  1.000  0.000  0.000  0.000  0.000
  0.000  1.000  0.000  0.000  0.000
  0.000  0.000  1.000  0.000  0.000
  0.000  0.000  0.000  1.000  0.000
  0.000  0.000  0.000  0.000  1.000
   spin  2
    eigenvalues: 
  0.000  0.000  0.000  0.000  0.000
    eigenvectors:
  1.000  0.000  0.000  0.000  0.000
  0.000  1.000  0.000  0.000  0.000
  0.000  0.000  1.000  0.000  0.000
  0.000  0.000  0.000  1.000  0.000
  0.000  0.000  0.000  0.000  1.000
    occupations:
  0.000  0.000  0.000  0.000  0.000
  0.000  0.000  0.000  0.000  0.000
  0.000  0.000  0.000  0.000  0.000
  0.000  0.000  0.000  0.000  0.000
  0.000  0.000  0.000  0.000  0.000
atomic mag. moment =     5.000000
atom   10   Tr[ns(na)] (up, down, total) =   5.00000  0.00000  5.00000
   spin  1
    eigenvalues: 
  1.000  1.000  1.000  1.000  1.000
    eigenvectors:
  1.000  0.000  0.000  0.000  0.000
  0.000  1.000  0.000  0.000  0.000
  0.000  0.000  1.000  0.000  0.000
  0.000  0.000  0.000  1.000  0.000
  0.000  0.000  0.000  0.000  1.000
    occupations:
  1.000  0.000  0.000  0.000  0.000
  0.000  1.000  0.000  0.000  0.000
  0.000  0.000  1.000  0.000  0.000
  0.000  0.000  0.000  1.000  0.000
  0.000  0.000  0.000  0.000  1.000
   spin  2
    eigenvalues: 
  0.000  0.000  0.000  0.000  0.000
    eigenvectors:
  1.000  0.000  0.000  0.000  0.000
  0.000  1.000  0.000  0.000  0.000
  0.000  0.000  1.000  0.000  0.000
  0.000  0.000  0.000  1.000  0.000
  0.000  0.000  0.000  0.000  1.000
    occupations:
  0.000  0.000  0.000  0.000  0.000
  0.000  0.000  0.000  0.000  0.000
  0.000  0.000  0.000  0.000  0.000
  0.000  0.000  0.000  0.000  0.000
  0.000  0.000  0.000  0.000  0.000
atomic mag. moment =     5.000000
atom   16   Tr[ns(na)] (up, down, total) =   5.00000  0.00000  5.00000
   spin  1
    eigenvalues: 
  1.000  1.000  1.000  1.000  1.000
    eigenvectors:
  1.000  0.000  0.000  0.000  0.000
  0.000  1.000  0.000  0.000  0.000
  0.000  0.000  1.000  0.000  0.000
  0.000  0.000  0.000  1.000  0.000
  0.000  0.000  0.000  0.000  1.000
    occupations:
  1.000  0.000  0.000  0.000  0.000
  0.000  1.000  0.000  0.000  0.000
  0.000  0.000  1.000  0.000  0.000
  0.000  0.000  0.000  1.000  0.000
  0.000  0.000  0.000  0.000  1.000
   spin  2
    eigenvalues: 
  0.000  0.000  0.000  0.000  0.000
    eigenvectors:
  1.000  0.000  0.000  0.000  0.000
  0.000  1.000  0.000  0.000  0.000
  0.000  0.000  1.000  0.000  0.000
  0.000  0.000  0.000  1.000  0.000
  0.000  0.000  0.000  0.000  1.000
    occupations:
  0.000  0.000  0.000  0.000  0.000
  0.000  0.000  0.000  0.000  0.000
  0.000  0.000  0.000  0.000  0.000
  0.000  0.000  0.000  0.000  0.000
  0.000  0.000  0.000  0.000  0.000
atomic mag. moment =     5.000000
atom   17   Tr[ns(na)] (up, down, total) =   5.00000  0.00000  5.00000
   spin  1
    eigenvalues: 
  1.000  1.000  1.000  1.000  1.000
    eigenvectors:
  1.000  0.000  0.000  0.000  0.000
  0.000  1.000  0.000  0.000  0.000
  0.000  0.000  1.000  0.000  0.000
  0.000  0.000  0.000  1.000  0.000
  0.000  0.000  0.000  0.000  1.000
    occupations:
  1.000  0.000  0.000  0.000  0.000
  0.000  1.000  0.000  0.000  0.000
  0.000  0.000  1.000  0.000  0.000
  0.000  0.000  0.000  1.000  0.000
  0.000  0.000  0.000  0.000  1.000
   spin  2
    eigenvalues: 
  0.000  0.000  0.000  0.000  0.000
    eigenvectors:
  1.000  0.000  0.000  0.000  0.000
  0.000  1.000  0.000  0.000  0.000
  0.000  0.000  1.000  0.000  0.000
  0.000  0.000  0.000  1.000  0.000
  0.000  0.000  0.000  0.000  1.000
    occupations:
  0.000  0.000  0.000  0.000  0.000
  0.000  0.000  0.000  0.000  0.000
  0.000  0.000  0.000  0.000  0.000
  0.000  0.000  0.000  0.000  0.000
  0.000  0.000  0.000  0.000  0.000
atomic mag. moment =     5.000000
atom   22   Tr[ns(na)] (up, down, total) =   5.00000  0.00000  5.00000
   spin  1
    eigenvalues: 
  1.000  1.000  1.000  1.000  1.000
    eigenvectors:
  1.000  0.000  0.000  0.000  0.000
  0.000  1.000  0.000  0.000  0.000
  0.000  0.000  1.000  0.000  0.000
  0.000  0.000  0.000  1.000  0.000
  0.000  0.000  0.000  0.000  1.000
    occupations:
  1.000  0.000  0.000  0.000  0.000
  0.000  1.000  0.000  0.000  0.000
  0.000  0.000  1.000  0.000  0.000
  0.000  0.000  0.000  1.000  0.000
  0.000  0.000  0.000  0.000  1.000
   spin  2
    eigenvalues: 
  0.000  0.000  0.000  0.000  0.000
    eigenvectors:
  1.000  0.000  0.000  0.000  0.000
  0.000  1.000  0.000  0.000  0.000
  0.000  0.000  1.000  0.000  0.000
  0.000  0.000  0.000  1.000  0.000
  0.000  0.000  0.000  0.000  1.000
    occupations:
  0.000  0.000  0.000  0.000  0.000
  0.000  0.000  0.000  0.000  0.000
  0.000  0.000  0.000  0.000  0.000
  0.000  0.000  0.000  0.000  0.000
  0.000  0.000  0.000  0.000  0.000
atomic mag. moment =     5.000000
atom   23   Tr[ns(na)] (up, down, total) =   5.00000  0.00000  5.00000
   spin  1
    eigenvalues: 
  1.000  1.000  1.000  1.000  1.000
    eigenvectors:
  1.000  0.000  0.000  0.000  0.000
  0.000  1.000  0.000  0.000  0.000
  0.000  0.000  1.000  0.000  0.000
  0.000  0.000  0.000  1.000  0.000
  0.000  0.000  0.000  0.000  1.000
    occupations:
  1.000  0.000  0.000  0.000  0.000
  0.000  1.000  0.000  0.000  0.000
  0.000  0.000  1.000  0.000  0.000
  0.000  0.000  0.000  1.000  0.000
  0.000  0.000  0.000  0.000  1.000
   spin  2
    eigenvalues: 
  0.000  0.000  0.000  0.000  0.000
    eigenvectors:
  1.000  0.000  0.000  0.000  0.000
  0.000  1.000  0.000  0.000  0.000
  0.000  0.000  1.000  0.000  0.000
  0.000  0.000  0.000  1.000  0.000
  0.000  0.000  0.000  0.000  1.000
    occupations:
  0.000  0.000  0.000  0.000  0.000
  0.000  0.000  0.000  0.000  0.000
  0.000  0.000  0.000  0.000  0.000
  0.000  0.000  0.000  0.000  0.000
  0.000  0.000  0.000  0.000  0.000
atomic mag. moment =     5.000000
N of occupied +U levels =  40.0000000
 --- exit write_ns ---
 Atomic wfc used for LDA+U Projector are NOT orthogonalized
     Starting wfc are  184 randomized atomic wfcs

     total cpu time spent up to now is      120.1 secs

     per-process dynamical memory:   417.7 Mb

     Self-consistent Calculation

     iteration #  1     ecut=    40.00 Ry     beta=0.70
     Davidson diagonalization with overlap
     ethr =  1.00E-02,  avg # of iterations =  5.5
 --- enter write_ns ---
 LDA+U parameters:
U( 2)     =  6.00000000
alpha( 2) =  0.00000000
atom    3   Tr[ns(na)] (up, down, total) =   4.36666  0.47941  4.84607
   spin  1
    eigenvalues: 
  0.699  0.761  0.942  0.981  0.984
    eigenvectors:
  0.267  0.004  0.025  0.441  0.263
  0.014  0.984  0.000  0.001  0.001
  0.002  0.000  0.948  0.046  0.004
  0.717  0.010  0.021  0.164  0.088
  0.000  0.002  0.006  0.348  0.644
    occupations:
  0.904  0.004  0.012 -0.124 -0.004
  0.004  0.761 -0.002  0.006 -0.009
  0.012 -0.002  0.943  0.004  0.003
 -0.124  0.006  0.004  0.776 -0.002
 -0.004 -0.009  0.003 -0.002  0.982
   spin  2
    eigenvalues: 
  0.047  0.050  0.053  0.158  0.172
    eigenvectors:
  0.384  0.344  0.087  0.017  0.169
  0.000  0.000  0.001  0.925  0.074
  0.487  0.219  0.293  0.000  0.000
  0.089  0.077  0.019  0.057  0.757
  0.040  0.360  0.600  0.001  0.000
    occupations:
  0.071  0.000 -0.002  0.047  0.000
  0.000  0.159  0.000 -0.004  0.003
 -0.002  0.000  0.049  0.001 -0.001
  0.047 -0.004  0.001  0.148 -0.000
  0.000  0.003 -0.001 -0.000  0.052
atomic mag. moment =     3.887248
atom    4   Tr[ns(na)] (up, down, total) =   4.28635  0.48594  4.77229
   spin  1
    eigenvalues: 
  0.656  0.770  0.931  0.947  0.983
    eigenvectors:
  0.000  0.985  0.012  0.001  0.002
  0.000  0.012  0.985  0.001  0.002
  0.000  0.001  0.001  0.995  0.002
  0.000  0.002  0.001  0.002  0.994
  1.000  0.000  0.000  0.000  0.000
    occupations:
  0.772  0.017  0.005  0.010  0.001
  0.017  0.929  0.000 -0.003  0.002
  0.005  0.000  0.947 -0.002  0.000
  0.010 -0.003 -0.002  0.982 -0.000
  0.001  0.002  0.000 -0.000  0.656
   spin  2
    eigenvalues: 
  0.047  0.051  0.057  0.161  0.170
    eigenvectors:
  0.009  0.000  0.000  0.000  0.990
  0.015  0.755  0.229  0.000  0.001
  0.005  0.224  0.771  0.000  0.000
  0.971  0.021  0.000  0.000  0.008
  0.000  0.000  0.000  1.000  0.000
    occupations:
  0.168  0.004  0.002 -0.011  0.000
  0.004  0.053 -0.002  0.000 -0.001
  0.002 -0.002  0.056  0.000  0.000
 -0.011  0.000  0.000  0.048  0.000
  0.000 -0.001  0.000  0.000  0.161
atomic mag. moment =     3.800406
atom    9   Tr[ns(na)] (up, down, total) =   4.55694  0.53379  5.09073
   spin  1
    eigenvalues: 
  0.772  0.789  0.994  0.998  1.004
    eigenvectors:
  0.144  0.012  0.844  0.000  0.000
  0.074  0.926  0.000  0.000  0.000
  0.000  0.000  0.000  0.113  0.887
  0.782  0.063  0.156  0.000  0.000
  0.000  0.000  0.000  0.887  0.113
    occupations:
  0.960  0.002 -0.000 -0.080  0.000
  0.002  0.787  0.000  0.004  0.000
 -0.000  0.000  1.004 -0.000  0.002
 -0.080  0.004 -0.000  0.807  0.000
  0.000  0.000  0.002  0.000  0.999
   spin  2
    eigenvalues: 
  0.055  0.060  0.063  0.177  0.179
    eigenvectors:
  0.000  0.854  0.000  0.146  0.000
  0.000  0.000  0.000  0.000  1.000
  0.998  0.000  0.002  0.000  0.000
  0.000  0.146  0.000  0.854  0.000
  0.002  0.000  0.998  0.000  0.000
    occupations:
  0.077  0.000  0.000  0.041 -0.000
  0.000  0.179  0.000 -0.000 -0.000
  0.000  0.000  0.055  0.000  0.000
  0.041 -0.000  0.000  0.160 -0.000
 -0.000 -0.000  0.000 -0.000  0.063
atomic mag. moment =     4.023156
atom   10   Tr[ns(na)] (up, down, total) =   4.91563  0.40944  5.32507
   spin  1
    eigenvalues: 
  0.928  0.984  0.998  1.001  1.005
    eigenvectors:
  0.000  0.863  0.135  0.000  0.002
  0.000  0.000  0.000  1.000  0.000
  0.000  0.001  0.001  0.000  0.998
  0.000  0.136  0.864  0.000  0.000
  1.000  0.000  0.000  0.000  0.000
    occupations:
  0.986 -0.000  0.001  0.005  0.000
 -0.000  1.001  0.000  0.000 -0.000
  0.001  0.000  1.005 -0.000 -0.000
  0.005  0.000 -0.000  0.996 -0.000
  0.000 -0.000 -0.000 -0.000  0.928
   spin  2
    eigenvalues: 
  0.044  0.047  0.052  0.112  0.155
    eigenvectors:
  0.019  0.000  0.000  0.981  0.000
  0.000  0.000  1.000  0.000  0.000
  0.000  1.000  0.000  0.000  0.000
  0.981  0.000  0.000  0.019  0.000
  0.000  0.000  0.000  0.000  1.000
    occupations:
  0.111  0.000 -0.000 -0.009 -0.000
  0.000  0.052 -0.000 -0.000  0.000
 -0.000 -0.000  0.047 -0.000 -0.000
 -0.009 -0.000 -0.000  0.046  0.000
 -0.000  0.000 -0.000  0.000  0.155
atomic mag. moment =     4.506190
atom   16   Tr[ns(na)] (up, down, total) =   4.36756  0.47941  4.84697
   spin  1
    eigenvalues: 
  0.699  0.761  0.942  0.981  0.984
    eigenvectors:
  0.268  0.003  0.026  0.479  0.224
  0.011  0.987  0.000  0.001  0.001
  0.002  0.000  0.946  0.050  0.003
  0.719  0.008  0.022  0.177  0.074
  0.000  0.002  0.006  0.293  0.698
    occupations:
  0.904 -0.003  0.012 -0.124  0.004
 -0.003  0.761  0.001 -0.006 -0.009
  0.012  0.001  0.943  0.005 -0.003
 -0.124 -0.006  0.005  0.776  0.002
  0.004 -0.009 -0.003  0.002  0.983
   spin  2
    eigenvalues: 
  0.047  0.050  0.053  0.158  0.172
    eigenvectors:
  0.387  0.341  0.086  0.017  0.169
  0.000  0.000  0.001  0.926  0.073
  0.485  0.225  0.290  0.000  0.000
  0.090  0.077  0.019  0.057  0.758
  0.038  0.358  0.604  0.001  0.000
    occupations:
  0.071 -0.000 -0.002  0.047 -0.000
 -0.000  0.159 -0.000  0.004  0.003
 -0.002 -0.000  0.049  0.001  0.001
  0.047  0.004  0.001  0.148  0.000
 -0.000  0.003  0.001  0.000  0.052
atomic mag. moment =     3.888155
atom   17   Tr[ns(na)] (up, down, total) =   4.28275  0.48523  4.76797
   spin  1
    eigenvalues: 
  0.655  0.768  0.931  0.947  0.982
    eigenvectors:
  0.000  0.986  0.011  0.001  0.002
  0.000  0.011  0.984  0.003  0.003
  0.000  0.001  0.003  0.994  0.002
  0.000  0.002  0.002  0.002  0.994
  1.000  0.000  0.000  0.000  0.000
    occupations:
  0.770  0.017  0.005  0.009  0.000
  0.017  0.930  0.001 -0.003  0.003
  0.005  0.001  0.947 -0.002  0.000
  0.009 -0.003 -0.002  0.981 -0.000
  0.000  0.003  0.000 -0.000  0.655
   spin  2
    eigenvalues: 
  0.047  0.051  0.057  0.160  0.170
    eigenvectors:
  0.009  0.000  0.000  0.000  0.990
  0.014  0.743  0.242  0.000  0.001
  0.005  0.237  0.758  0.000  0.000
  0.972  0.020  0.000  0.000  0.008
  0.000  0.000  0.000  1.000  0.000
    occupations:
  0.169  0.004  0.001 -0.011  0.000
  0.004  0.053 -0.002  0.000 -0.001
  0.001 -0.002  0.055  0.000  0.000
 -0.011  0.000  0.000  0.048  0.000
  0.000 -0.001  0.000  0.000  0.160
atomic mag. moment =     3.797519
atom   22   Tr[ns(na)] (up, down, total) =   4.55542  0.53383  5.08925
   spin  1
    eigenvalues: 
  0.772  0.787  0.994  0.998  1.004
    eigenvectors:
  0.149  0.006  0.845  0.000  0.000
  0.045  0.955  0.000  0.000  0.000
  0.000  0.000  0.000  0.112  0.888
  0.806  0.039  0.155  0.000  0.000
  0.000  0.000  0.000  0.888  0.112
    occupations:
  0.960  0.002 -0.000 -0.080  0.000
  0.002  0.786  0.000  0.002  0.000
 -0.000  0.000  1.004 -0.000 -0.002
 -0.080  0.002 -0.000  0.807  0.000
  0.000  0.000 -0.002  0.000  0.999
   spin  2
    eigenvalues: 
  0.055  0.060  0.063  0.177  0.179
    eigenvectors:
  0.000  0.854  0.000  0.146  0.000
  0.000  0.000  0.000  0.000  1.000
  0.998  0.000  0.002  0.000  0.000
  0.000  0.146  0.000  0.854  0.000
  0.002  0.000  0.998  0.000  0.000
    occupations:
  0.077 -0.000  0.000  0.041  0.000
 -0.000  0.179 -0.000  0.000 -0.000
  0.000 -0.000  0.055  0.000 -0.000
  0.041  0.000  0.000  0.160 -0.000
  0.000 -0.000 -0.000 -0.000  0.063
atomic mag. moment =     4.021582
atom   23   Tr[ns(na)] (up, down, total) =   4.67813  0.57987  5.25799
   spin  1
    eigenvalues: 
  0.766  0.916  0.995  0.996  1.004
    eigenvectors:
  0.999  0.000  0.000  0.001  0.000
  0.000  0.000  1.000  0.000  0.000
  0.000  0.000  0.000  0.000  1.000
  0.001  0.000  0.000  0.999  0.000
  0.000  1.000  0.000  0.000  0.000
    occupations:
  0.766  0.000  0.001  0.006  0.000
  0.000  0.995  0.000  0.000  0.000
  0.001  0.000  1.004 -0.000 -0.000
  0.006  0.000 -0.000  0.996 -0.000
  0.000  0.000 -0.000 -0.000  0.916
   spin  2
    eigenvalues: 
  0.041  0.093  0.099  0.145  0.201
    eigenvectors:
  0.004  0.000  0.000  0.000  0.996
  0.000  0.000  1.000  0.000  0.000
  0.000  1.000  0.000  0.000  0.000
  0.996  0.000  0.000  0.000  0.004
  0.000  0.000  0.000  1.000  0.000
    occupations:
  0.201 -0.000 -0.000 -0.010 -0.000
 -0.000  0.099 -0.000 -0.000 -0.000
 -0.000 -0.000  0.093  0.000 -0.000
 -0.010 -0.000  0.000  0.042  0.000
 -0.000 -0.000 -0.000  0.000  0.145
atomic mag. moment =     4.098264
N of occupied +U levels =  39.9963577
 --- exit write_ns ---

     negative rho (up, down):  0.989E-03 0.108E-02

     total cpu time spent up to now is      579.7 secs

     total energy              =   -2297.70401068 Ry
     Harris-Foulkes estimate   =   -2316.38570808 Ry
     estimated scf accuracy    <      30.74222605 Ry

     total magnetization       =    22.00 Bohr mag/cell
     absolute magnetization    =    42.10 Bohr mag/cell

     iteration #  2     ecut=    40.00 Ry     beta=0.70
     Davidson diagonalization with overlap
     ethr =  1.00E-02,  avg # of iterations =  6.8

     negative rho (up, down):  0.798E-02 0.418E-02

     total cpu time spent up to now is     1030.2 secs

     total energy              =   -2164.97173986 Ry
     Harris-Foulkes estimate   =   -2585.42061444 Ry
     estimated scf accuracy    <    5114.26679769 Ry

     total magnetization       =    22.00 Bohr mag/cell
     absolute magnetization    =    22.41 Bohr mag/cell

     iteration #  3     ecut=    40.00 Ry     beta=0.70
     Davidson diagonalization with overlap
     ethr =  1.00E-02,  avg # of iterations =  6.0

     negative rho (up, down):  0.674E-02 0.427E-02

     total cpu time spent up to now is     1512.6 secs

     total energy              =   -2311.03152637 Ry
     Harris-Foulkes estimate   =   -2322.42003425 Ry
     estimated scf accuracy    <      46.77434620 Ry

     total magnetization       =    22.00 Bohr mag/cell
     absolute magnetization    =    35.22 Bohr mag/cell

     iteration #  4     ecut=    40.00 Ry     beta=0.70
     Davidson diagonalization with overlap
     ethr =  1.00E-02,  avg # of iterations =  3.1

     negative rho (up, down):  0.497E-02 0.253E-02

     total cpu time spent up to now is     1757.4 secs

     total energy              =   -2316.17637796 Ry
     Harris-Foulkes estimate   =   -2321.09478550 Ry
     estimated scf accuracy    <      20.96606116 Ry

     total magnetization       =    22.00 Bohr mag/cell
     absolute magnetization    =    37.83 Bohr mag/cell

     iteration #  5     ecut=    40.00 Ry     beta=0.70
     Davidson diagonalization with overlap
     ethr =  8.81E-03,  avg # of iterations =  2.4

     negative rho (up, down):  0.456E-02 0.201E-02

     total cpu time spent up to now is     1992.8 secs

     total energy              =   -2317.21149262 Ry
     Harris-Foulkes estimate   =   -2319.64057022 Ry
     estimated scf accuracy    <      10.21756196 Ry

     total magnetization       =    22.00 Bohr mag/cell
     absolute magnetization    =    36.89 Bohr mag/cell

     iteration #  6     ecut=    40.00 Ry     beta=0.70
     Davidson diagonalization with overlap
     ethr =  4.29E-03,  avg # of iterations =  3.1

     negative rho (up, down):  0.395E-02 0.167E-02

     total cpu time spent up to now is     2235.3 secs

     total energy              =   -2317.91717001 Ry
     Harris-Foulkes estimate   =   -2319.12459637 Ry
     estimated scf accuracy    <       8.66200698 Ry

     total magnetization       =    22.00 Bohr mag/cell
     absolute magnetization    =    34.49 Bohr mag/cell

     iteration #  7     ecut=    40.00 Ry     beta=0.70
     Davidson diagonalization with overlap
     ethr =  3.64E-03,  avg # of iterations =  1.0

     negative rho (up, down):  0.247E-02 0.174E-02

     total cpu time spent up to now is     2461.4 secs

     total energy              =   -2318.12983696 Ry
     Harris-Foulkes estimate   =   -2318.88314559 Ry
     estimated scf accuracy    <       3.83228447 Ry

     total magnetization       =    22.00 Bohr mag/cell
     absolute magnetization    =    36.66 Bohr mag/cell

     iteration #  8     ecut=    40.00 Ry     beta=0.70
     Davidson diagonalization with overlap
     ethr =  1.61E-03,  avg # of iterations =  1.1

     negative rho (up, down):  0.352E-02 0.166E-02

     total cpu time spent up to now is     2678.0 secs

     total energy              =   -2318.47498936 Ry
     Harris-Foulkes estimate   =   -2318.69021825 Ry
     estimated scf accuracy    <       1.23304915 Ry

     total magnetization       =    22.00 Bohr mag/cell
     absolute magnetization    =    35.14 Bohr mag/cell

     iteration #  9     ecut=    40.00 Ry     beta=0.70
     Davidson diagonalization with overlap
     ethr =  5.18E-04,  avg # of iterations =  4.7

     negative rho (up, down):  0.267E-02 0.128E-02

     total cpu time spent up to now is     2918.7 secs

     total energy              =   -2318.49419530 Ry
     Harris-Foulkes estimate   =   -2318.65156175 Ry
     estimated scf accuracy    <       1.16730681 Ry

     total magnetization       =    22.00 Bohr mag/cell
     absolute magnetization    =    34.51 Bohr mag/cell

     iteration # 10     ecut=    40.00 Ry     beta=0.70
     Davidson diagonalization with overlap
     ethr =  4.90E-04,  avg # of iterations =  1.5

     negative rho (up, down):  0.211E-02 0.118E-02

     total cpu time spent up to now is     3136.6 secs

     total energy              =   -2318.55646297 Ry
     Harris-Foulkes estimate   =   -2318.60429041 Ry
     estimated scf accuracy    <       0.50914192 Ry

     total magnetization       =    22.00 Bohr mag/cell
     absolute magnetization    =    34.71 Bohr mag/cell

     iteration # 11     ecut=    40.00 Ry     beta=0.70
     Davidson diagonalization with overlap
     ethr =  2.14E-04,  avg # of iterations =  4.8

     negative rho (up, down):  0.139E-02 0.119E-02

     total cpu time spent up to now is     3383.0 secs

     total energy              =   -2318.54093745 Ry
     Harris-Foulkes estimate   =   -2318.57887959 Ry
     estimated scf accuracy    <       0.15579612 Ry

     total magnetization       =    22.00 Bohr mag/cell
     absolute magnetization    =    34.63 Bohr mag/cell

     iteration # 12     ecut=    40.00 Ry     beta=0.70
     Davidson diagonalization with overlap
     ethr =  6.55E-05,  avg # of iterations =  6.3

     negative rho (up, down):  0.159E-02 0.119E-02

     total cpu time spent up to now is     3663.7 secs

     total energy              =   -2318.54382639 Ry
     Harris-Foulkes estimate   =   -2318.60692221 Ry
     estimated scf accuracy    <       0.53148007 Ry

     total magnetization       =    22.00 Bohr mag/cell
     absolute magnetization    =    34.54 Bohr mag/cell

     iteration # 13     ecut=    40.00 Ry     beta=0.70
     Davidson diagonalization with overlap
     ethr =  6.55E-05,  avg # of iterations =  3.7

     negative rho (up, down):  0.147E-02 0.123E-02

     total cpu time spent up to now is     3902.2 secs

     total energy              =   -2318.56008389 Ry
     Harris-Foulkes estimate   =   -2318.58983221 Ry
     estimated scf accuracy    <       0.14176645 Ry

     total magnetization       =    22.00 Bohr mag/cell
     absolute magnetization    =    34.06 Bohr mag/cell

     iteration # 14     ecut=    40.00 Ry     beta=0.70
     Davidson diagonalization with overlap
     ethr =  5.96E-05,  avg # of iterations =  1.0

     negative rho (up, down):  0.147E-02 0.124E-02

     total cpu time spent up to now is     4118.9 secs

     total energy              =   -2318.57079278 Ry
     Harris-Foulkes estimate   =   -2318.58180407 Ry
     estimated scf accuracy    <       0.08160674 Ry

     total magnetization       =    22.00 Bohr mag/cell
     absolute magnetization    =    34.21 Bohr mag/cell

     iteration # 15     ecut=    40.00 Ry     beta=0.70
     Davidson diagonalization with overlap
     ethr =  3.43E-05,  avg # of iterations =  1.0

     negative rho (up, down):  0.146E-02 0.126E-02

     total cpu time spent up to now is     4335.8 secs

     total energy              =   -2318.57325130 Ry
     Harris-Foulkes estimate   =   -2318.57918528 Ry
     estimated scf accuracy    <       0.10118327 Ry

     total magnetization       =    22.00 Bohr mag/cell
     absolute magnetization    =    34.12 Bohr mag/cell

     iteration # 16     ecut=    40.00 Ry     beta=0.70
     Davidson diagonalization with overlap
     ethr =  3.43E-05,  avg # of iterations =  1.9

     negative rho (up, down):  0.156E-02 0.129E-02

     total cpu time spent up to now is     4558.1 secs

     total energy              =   -2318.57365398 Ry
     Harris-Foulkes estimate   =   -2318.57951143 Ry
     estimated scf accuracy    <       0.04377128 Ry

     total magnetization       =    22.00 Bohr mag/cell
     absolute magnetization    =    34.02 Bohr mag/cell

     iteration # 17     ecut=    40.00 Ry     beta=0.70
     Davidson diagonalization with overlap
     ethr =  1.84E-05,  avg # of iterations =  1.4

     negative rho (up, down):  0.156E-02 0.133E-02

     total cpu time spent up to now is     4782.1 secs

     total energy              =   -2318.57470643 Ry
     Harris-Foulkes estimate   =   -2318.58012199 Ry
     estimated scf accuracy    <       0.06288540 Ry

     total magnetization       =    22.00 Bohr mag/cell
     absolute magnetization    =    34.01 Bohr mag/cell

     iteration # 18     ecut=    40.00 Ry     beta=0.70
     Davidson diagonalization with overlap
     ethr =  1.84E-05,  avg # of iterations =  1.0

     negative rho (up, down):  0.155E-02 0.136E-02

     total cpu time spent up to now is     4997.3 secs

     total energy              =   -2318.57658068 Ry
     Harris-Foulkes estimate   =   -2318.57757868 Ry
     estimated scf accuracy    <       0.01447676 Ry

     total magnetization       =    22.00 Bohr mag/cell
     absolute magnetization    =    34.05 Bohr mag/cell

     iteration # 19     ecut=    40.00 Ry     beta=0.70
     Davidson diagonalization with overlap
     ethr =  6.08E-06,  avg # of iterations =  4.2

     negative rho (up, down):  0.306E-02 0.189E-02

     total cpu time spent up to now is     5234.8 secs

     total energy              =   -2318.57584929 Ry
     Harris-Foulkes estimate   =   -2318.57772007 Ry
     estimated scf accuracy    <       0.01050333 Ry

     total magnetization       =    22.00 Bohr mag/cell
     absolute magnetization    =    33.99 Bohr mag/cell

     iteration # 20     ecut=    40.00 Ry     beta=0.70
     Davidson diagonalization with overlap
     ethr =  4.41E-06,  avg # of iterations =  5.7

     negative rho (up, down):  0.189E-02 0.147E-02

     total cpu time spent up to now is     5497.7 secs

     total energy              =   -2318.57335624 Ry
     Harris-Foulkes estimate   =   -2318.58201791 Ry
     estimated scf accuracy    <       0.08894182 Ry

     total magnetization       =    22.00 Bohr mag/cell
     absolute magnetization    =    33.76 Bohr mag/cell

     iteration # 21     ecut=    40.00 Ry     beta=0.70
     Davidson diagonalization with overlap
     ethr =  4.41E-06,  avg # of iterations =  3.3

     negative rho (up, down):  0.181E-02 0.146E-02

     total cpu time spent up to now is     5746.4 secs

     total energy              =   -2318.57767083 Ry
     Harris-Foulkes estimate   =   -2318.57772767 Ry
     estimated scf accuracy    <       0.00101354 Ry

     total magnetization       =    22.00 Bohr mag/cell
     absolute magnetization    =    33.91 Bohr mag/cell

     iteration # 22     ecut=    40.00 Ry     beta=0.70
     Davidson diagonalization with overlap
     ethr =  4.26E-07,  avg # of iterations =  1.1

     negative rho (up, down):  0.182E-02 0.147E-02

     total cpu time spent up to now is     5973.5 secs

     total energy              =   -2318.57761218 Ry
     Harris-Foulkes estimate   =   -2318.57798281 Ry
     estimated scf accuracy    <       0.00229436 Ry

     total magnetization       =    22.00 Bohr mag/cell
     absolute magnetization    =    33.85 Bohr mag/cell

     iteration # 23     ecut=    40.00 Ry     beta=0.70
     Davidson diagonalization with overlap
     ethr =  4.26E-07,  avg # of iterations =  1.0

     negative rho (up, down):  0.182E-02 0.147E-02

     total cpu time spent up to now is     6201.1 secs

     total energy              =   -2318.57786307 Ry
     Harris-Foulkes estimate   =   -2318.57786148 Ry
     estimated scf accuracy    <       0.00047660 Ry

     total magnetization       =    22.00 Bohr mag/cell
     absolute magnetization    =    33.86 Bohr mag/cell

     iteration # 24     ecut=    40.00 Ry     beta=0.70
     Davidson diagonalization with overlap
     ethr =  2.00E-07,  avg # of iterations =  1.6

     negative rho (up, down):  0.182E-02 0.147E-02

     total cpu time spent up to now is     6436.1 secs

     total energy              =   -2318.57787802 Ry
     Harris-Foulkes estimate   =   -2318.57802384 Ry
     estimated scf accuracy    <       0.00091861 Ry

     total magnetization       =    22.00 Bohr mag/cell
     absolute magnetization    =    33.84 Bohr mag/cell

     iteration # 25     ecut=    40.00 Ry     beta=0.70
     Davidson diagonalization with overlap
     ethr =  2.00E-07,  avg # of iterations =  1.4

     negative rho (up, down):  0.183E-02 0.147E-02

     total cpu time spent up to now is     6664.6 secs

     total energy              =   -2318.57788435 Ry
     Harris-Foulkes estimate   =   -2318.57809268 Ry
     estimated scf accuracy    <       0.00214861 Ry

     total magnetization       =    22.00 Bohr mag/cell
     absolute magnetization    =    33.81 Bohr mag/cell

     iteration # 26     ecut=    40.00 Ry     beta=0.70
     Davidson diagonalization with overlap
     ethr =  2.00E-07,  avg # of iterations =  1.0

     negative rho (up, down):  0.182E-02 0.147E-02

     total cpu time spent up to now is     6892.1 secs

     total energy              =   -2318.57799685 Ry
     Harris-Foulkes estimate   =   -2318.57802246 Ry
     estimated scf accuracy    <       0.00025236 Ry

     total magnetization       =    22.00 Bohr mag/cell
     absolute magnetization    =    33.79 Bohr mag/cell

     iteration # 27     ecut=    40.00 Ry     beta=0.70
     Davidson diagonalization with overlap
     ethr =  1.06E-07,  avg # of iterations =  1.5

     negative rho (up, down):  0.179E-02 0.146E-02

     total cpu time spent up to now is     7129.2 secs

     total energy              =   -2318.57801831 Ry
     Harris-Foulkes estimate   =   -2318.57803193 Ry
     estimated scf accuracy    <       0.00007380 Ry

     total magnetization       =    22.00 Bohr mag/cell
     absolute magnetization    =    33.76 Bohr mag/cell

     iteration # 28     ecut=    40.00 Ry     beta=0.70
     Davidson diagonalization with overlap
     ethr =  3.10E-08,  avg # of iterations =  1.2

     negative rho (up, down):  0.179E-02 0.146E-02

     total cpu time spent up to now is     7355.8 secs

     total energy              =   -2318.57799637 Ry
     Harris-Foulkes estimate   =   -2318.57807140 Ry
     estimated scf accuracy    <       0.00070747 Ry

     total magnetization       =    22.00 Bohr mag/cell
     absolute magnetization    =    33.76 Bohr mag/cell

     iteration # 29     ecut=    40.00 Ry     beta=0.70
     Davidson diagonalization with overlap
     ethr =  3.10E-08,  avg # of iterations =  1.0

     negative rho (up, down):  0.179E-02 0.146E-02

     total cpu time spent up to now is     7583.0 secs

     total energy              =   -2318.57801891 Ry
     Harris-Foulkes estimate   =   -2318.57803324 Ry
     estimated scf accuracy    <       0.00004333 Ry

     total magnetization       =    22.00 Bohr mag/cell
     absolute magnetization    =    33.77 Bohr mag/cell

     iteration # 30     ecut=    40.00 Ry     beta=0.70
     Davidson diagonalization with overlap
     ethr =  1.82E-08,  avg # of iterations =  1.9

     negative rho (up, down):  0.179E-02 0.146E-02

     total cpu time spent up to now is     7816.9 secs

     total energy              =   -2318.57800873 Ry
     Harris-Foulkes estimate   =   -2318.57804660 Ry
     estimated scf accuracy    <       0.00039220 Ry

     total magnetization       =    22.00 Bohr mag/cell
     absolute magnetization    =    33.78 Bohr mag/cell

     iteration # 31     ecut=    40.00 Ry     beta=0.70
     Davidson diagonalization with overlap
     ethr =  1.82E-08,  avg # of iterations =  2.0

     negative rho (up, down):  0.178E-02 0.146E-02

     total cpu time spent up to now is     8052.8 secs

     total energy              =   -2318.57802339 Ry
     Harris-Foulkes estimate   =   -2318.57804022 Ry
     estimated scf accuracy    <       0.00014428 Ry

     total magnetization       =    22.00 Bohr mag/cell
     absolute magnetization    =    33.77 Bohr mag/cell

     iteration # 32     ecut=    40.00 Ry     beta=0.70
     Davidson diagonalization with overlap
     ethr =  1.82E-08,  avg # of iterations =  1.1

     negative rho (up, down):  0.178E-02 0.146E-02

     total cpu time spent up to now is     8279.5 secs

     total energy              =   -2318.57803097 Ry
     Harris-Foulkes estimate   =   -2318.57803456 Ry
     estimated scf accuracy    <       0.00002708 Ry

     total magnetization       =    22.00 Bohr mag/cell
     absolute magnetization    =    33.76 Bohr mag/cell

     iteration # 33     ecut=    40.00 Ry     beta=0.70
     Davidson diagonalization with overlap
     ethr =  1.14E-08,  avg # of iterations =  1.0

     negative rho (up, down):  0.178E-02 0.146E-02

     total cpu time spent up to now is     8507.0 secs

     total energy              =   -2318.57803243 Ry
     Harris-Foulkes estimate   =   -2318.57803442 Ry
     estimated scf accuracy    <       0.00002364 Ry

     total magnetization       =    22.00 Bohr mag/cell
     absolute magnetization    =    33.76 Bohr mag/cell

     iteration # 34     ecut=    40.00 Ry     beta=0.70
     Davidson diagonalization with overlap
     ethr =  9.93E-09,  avg # of iterations =  1.0

     negative rho (up, down):  0.178E-02 0.145E-02

     total cpu time spent up to now is     8737.2 secs

     total energy              =   -2318.57803330 Ry
     Harris-Foulkes estimate   =   -2318.57803397 Ry
     estimated scf accuracy    <       0.00000745 Ry

     total magnetization       =    22.00 Bohr mag/cell
     absolute magnetization    =    33.76 Bohr mag/cell

     iteration # 35     ecut=    40.00 Ry     beta=0.70
     Davidson diagonalization with overlap
     ethr =  3.13E-09,  avg # of iterations =  1.0

     negative rho (up, down):  0.178E-02 0.145E-02

     total cpu time spent up to now is     8963.4 secs

     total energy              =   -2318.57803188 Ry
     Harris-Foulkes estimate   =   -2318.57803422 Ry
     estimated scf accuracy    <       0.00000975 Ry

     total magnetization       =    22.00 Bohr mag/cell
     absolute magnetization    =    33.76 Bohr mag/cell

     iteration # 36     ecut=    40.00 Ry     beta=0.70
     Davidson diagonalization with overlap
     ethr =  3.13E-09,  avg # of iterations =  2.0

     negative rho (up, down):  0.178E-02 0.145E-02

     total cpu time spent up to now is     9203.9 secs

     total energy              =   -2318.57802738 Ry
     Harris-Foulkes estimate   =   -2318.57804045 Ry
     estimated scf accuracy    <       0.00009626 Ry

     total magnetization       =    22.00 Bohr mag/cell
     absolute magnetization    =    33.76 Bohr mag/cell

     iteration # 37     ecut=    40.00 Ry     beta=0.70
     Davidson diagonalization with overlap
     ethr =  3.13E-09,  avg # of iterations =  2.0

     negative rho (up, down):  0.178E-02 0.145E-02

     total cpu time spent up to now is     9439.0 secs

     total energy              =   -2318.57803364 Ry
     Harris-Foulkes estimate   =   -2318.57803415 Ry
     estimated scf accuracy    <       0.00000290 Ry

     total magnetization       =    22.00 Bohr mag/cell
     absolute magnetization    =    33.76 Bohr mag/cell

     iteration # 38     ecut=    40.00 Ry     beta=0.70
     Davidson diagonalization with overlap
     ethr =  1.22E-09,  avg # of iterations =  1.9

     negative rho (up, down):  0.178E-02 0.145E-02

     total cpu time spent up to now is     9671.3 secs

     total energy              =   -2318.57803261 Ry
     Harris-Foulkes estimate   =   -2318.57803534 Ry
     estimated scf accuracy    <       0.00001669 Ry

     total magnetization       =    22.00 Bohr mag/cell
     absolute magnetization    =    33.76 Bohr mag/cell

     iteration # 39     ecut=    40.00 Ry     beta=0.70
     Davidson diagonalization with overlap
     ethr =  1.22E-09,  avg # of iterations =  1.8

     negative rho (up, down):  0.178E-02 0.145E-02

     total cpu time spent up to now is     9902.3 secs

     total energy              =   -2318.57803386 Ry
     Harris-Foulkes estimate   =   -2318.57803431 Ry
     estimated scf accuracy    <       0.00000382 Ry

     total magnetization       =    22.00 Bohr mag/cell
     absolute magnetization    =    33.76 Bohr mag/cell

     iteration # 40     ecut=    40.00 Ry     beta=0.70
     Davidson diagonalization with overlap
     ethr =  1.22E-09,  avg # of iterations =  1.0

     negative rho (up, down):  0.178E-02 0.145E-02

     total cpu time spent up to now is    10129.5 secs

     total energy              =   -2318.57803407 Ry
     Harris-Foulkes estimate   =   -2318.57803418 Ry
     estimated scf accuracy    <       0.00000186 Ry

     total magnetization       =    22.00 Bohr mag/cell
     absolute magnetization    =    33.76 Bohr mag/cell

     iteration # 41     ecut=    40.00 Ry     beta=0.70
     Davidson diagonalization with overlap
     ethr =  7.81E-10,  avg # of iterations =  1.0

     negative rho (up, down):  0.178E-02 0.145E-02

     total cpu time spent up to now is    10353.6 secs

     total energy              =   -2318.57803411 Ry
     Harris-Foulkes estimate   =   -2318.57803422 Ry
     estimated scf accuracy    <       0.00000123 Ry

     total magnetization       =    22.00 Bohr mag/cell
     absolute magnetization    =    33.76 Bohr mag/cell

     iteration # 42     ecut=    40.00 Ry     beta=0.70
     Davidson diagonalization with overlap
     ethr =  5.17E-10,  avg # of iterations =  1.0

     negative rho (up, down):  0.178E-02 0.145E-02

     total cpu time spent up to now is    10583.0 secs

     End of self-consistent calculation
 --- enter write_ns ---
 LDA+U parameters:
U( 2)     =  6.00000000
alpha( 2) =  0.00000000
atom    3   Tr[ns(na)] (up, down, total) =   4.40722  0.98612  5.39334
   spin  1
    eigenvalues: 
  0.699  0.710  0.998  0.999  1.002
    eigenvectors:
  0.169  0.049  0.079  0.652  0.052
  0.176  0.822  0.000  0.002  0.000
  0.000  0.000  0.144  0.014  0.843
  0.655  0.128  0.024  0.182  0.011
  0.000  0.001  0.753  0.151  0.095
    occupations:
  0.934 -0.007 -0.003 -0.122 -0.000
 -0.007  0.709 -0.001  0.008 -0.008
 -0.003 -0.001  1.001 -0.004  0.001
 -0.122  0.008 -0.004  0.766  0.001
 -0.000 -0.008  0.001  0.001  0.998
   spin  2
    eigenvalues: 
  0.083  0.099  0.112  0.333  0.359
    eigenvectors:
  0.793  0.002  0.008  0.092  0.105
  0.001  0.001  0.000  0.604  0.393
  0.011  0.159  0.830  0.000  0.000
  0.195  0.000  0.001  0.303  0.501
  0.000  0.838  0.161  0.001  0.001
    occupations:
  0.135  0.003 -0.001  0.105  0.000
  0.003  0.342  0.000 -0.016  0.010
 -0.001  0.000  0.110  0.004 -0.005
  0.105 -0.016  0.004  0.297 -0.001
  0.000  0.010 -0.005 -0.001  0.102
atomic mag. moment =     3.421092
atom    4   Tr[ns(na)] (up, down, total) =   4.40342  0.97871  5.38214
   spin  1
    eigenvalues: 
  0.683  0.714  0.997  1.004  1.005
    eigenvectors:
  0.000  0.998  0.001  0.001  0.000
  0.000  0.001  0.000  0.641  0.358
  0.000  0.000  0.000  0.358  0.642
  0.000  0.001  0.999  0.000  0.000
  1.000  0.000  0.000  0.000  0.000
    occupations:
  0.714 -0.010 -0.004  0.007 -0.000
 -0.010  1.004 -0.000  0.000 -0.000
 -0.004 -0.000  1.004 -0.000  0.000
  0.007  0.000 -0.000  0.997  0.000
 -0.000 -0.000  0.000  0.000  0.683
   spin  2
    eigenvalues: 
  0.076  0.099  0.111  0.345  0.348
    eigenvectors:
  0.004  0.002  0.000  0.002  0.992
  0.002  0.831  0.166  0.000  0.002
  0.001  0.165  0.834  0.000  0.000
  0.994  0.002  0.000  0.000  0.004
  0.000  0.000  0.000  0.998  0.002
    occupations:
  0.347  0.011  0.004 -0.016 -0.000
  0.011  0.101 -0.004  0.000 -0.002
  0.004 -0.004  0.109  0.000  0.000
 -0.016  0.000  0.000  0.077 -0.000
 -0.000 -0.002  0.000 -0.000  0.345
atomic mag. moment =     3.424709
atom    9   Tr[ns(na)] (up, down, total) =   4.38082  1.05127  5.43209
   spin  1
    eigenvalues: 
  0.703  0.716  0.975  0.987  0.999
    eigenvectors:
  0.005  0.168  0.000  0.000  0.827
  0.973  0.027  0.000  0.000  0.000
  0.000  0.000  0.012  0.987  0.000
  0.022  0.805  0.000  0.000  0.173
  0.000  0.000  0.988  0.012  0.000
    occupations:
  0.950 -0.001 -0.000 -0.107  0.000
 -0.001  0.703  0.000 -0.002 -0.000
 -0.000  0.000  0.987 -0.000  0.001
 -0.107 -0.002 -0.000  0.765  0.000
  0.000 -0.000  0.001  0.000  0.976
   spin  2
    eigenvalues: 
  0.102  0.108  0.112  0.354  0.376
    eigenvectors:
  0.843  0.000  0.000  0.156  0.002
  0.000  0.000  0.000  0.013  0.987
  0.000  0.952  0.048  0.000  0.000
  0.157  0.000  0.000  0.832  0.011
  0.000  0.048  0.952  0.000  0.000
    occupations:
  0.141 -0.001  0.000  0.092  0.000
 -0.001  0.375 -0.000 -0.002 -0.000
  0.000 -0.000  0.108  0.000  0.001
  0.092 -0.002  0.000  0.315 -0.000
  0.000 -0.000  0.001 -0.000  0.112
atomic mag. moment =     3.329556
atom   10   Tr[ns(na)] (up, down, total) =   4.60592  0.72197  5.32789
   spin  1
    eigenvalues: 
  0.721  0.891  0.996  0.997  1.002
    eigenvectors:
  0.000  0.974  0.000  0.026  0.000
  0.000  0.000  1.000  0.000  0.000
  0.000  0.000  0.000  0.000  1.000
  0.000  0.026  0.000  0.974  0.000
  1.000  0.000  0.000  0.000  0.000
    occupations:
  0.893 -0.000  0.000  0.017  0.000
 -0.000  0.996  0.000  0.000 -0.000
  0.000  0.000  1.002 -0.000 -0.000
  0.017  0.000 -0.000  0.994 -0.000
  0.000 -0.000 -0.000 -0.000  0.721
   spin  2
    eigenvalues: 
  0.064  0.087  0.088  0.187  0.297
    eigenvectors:
  0.015  0.000  0.000  0.985  0.000
  0.000  0.000  1.000  0.000  0.000
  0.000  1.000  0.000  0.000  0.000
  0.985  0.000  0.000  0.015  0.000
  0.000  0.000  0.000  0.000  1.000
    occupations:
  0.185  0.000 -0.000 -0.015 -0.000
  0.000  0.088 -0.000 -0.000  0.000
 -0.000 -0.000  0.087  0.000 -0.000
 -0.015 -0.000  0.000  0.065 -0.000
 -0.000  0.000 -0.000 -0.000  0.297
atomic mag. moment =     3.883943
atom   16   Tr[ns(na)] (up, down, total) =   4.40713  0.98627  5.39340
   spin  1
    eigenvalues: 
  0.699  0.710  0.998  0.999  1.001
    eigenvectors:
  0.172  0.046  0.064  0.670  0.048
  0.164  0.834  0.000  0.002  0.000
  0.000  0.000  0.138  0.015  0.847
  0.664  0.119  0.019  0.188  0.010
  0.000  0.001  0.778  0.126  0.096
    occupations:
  0.934  0.007 -0.003 -0.122  0.000
  0.007  0.709  0.001 -0.008 -0.008
 -0.003  0.001  1.001 -0.004 -0.001
 -0.122 -0.008 -0.004  0.766  0.000
  0.000 -0.008 -0.001  0.000  0.998
   spin  2
    eigenvalues: 
  0.083  0.099  0.112  0.333  0.359
    eigenvectors:
  0.793  0.002  0.008  0.092  0.105
  0.001  0.001  0.000  0.605  0.392
  0.011  0.159  0.829  0.000  0.000
  0.195  0.000  0.001  0.302  0.502
  0.000  0.838  0.161  0.001  0.001
    occupations:
  0.135 -0.003 -0.001  0.105 -0.001
 -0.003  0.342 -0.000  0.016  0.010
 -0.001 -0.000  0.110  0.004  0.005
  0.105  0.016  0.004  0.297  0.001
 -0.001  0.010  0.005  0.001  0.102
atomic mag. moment =     3.420859
atom   17   Tr[ns(na)] (up, down, total) =   4.39984  0.98102  5.38086
   spin  1
    eigenvalues: 
  0.682  0.713  0.997  1.003  1.004
    eigenvectors:
  0.000  0.998  0.001  0.000  0.001
  0.000  0.001  0.000  0.015  0.984
  0.000  0.000  0.000  0.984  0.015
  0.000  0.001  0.999  0.000  0.000
  1.000  0.000  0.000  0.000  0.000
    occupations:
  0.714 -0.009 -0.003  0.007 -0.000
 -0.009  1.004 -0.000  0.000  0.000
 -0.003 -0.000  1.003  0.000  0.000
  0.007  0.000  0.000  0.997  0.000
 -0.000  0.000  0.000  0.000  0.682
   spin  2
    eigenvalues: 
  0.076  0.099  0.111  0.345  0.350
    eigenvectors:
  0.004  0.002  0.000  0.002  0.992
  0.001  0.822  0.174  0.000  0.002
  0.001  0.173  0.826  0.000  0.000
  0.994  0.002  0.000  0.000  0.003
  0.000  0.000  0.000  0.998  0.002
    occupations:
  0.348  0.011  0.004 -0.016 -0.000
  0.011  0.102 -0.004  0.000 -0.002
  0.004 -0.004  0.109  0.000  0.000
 -0.016  0.000  0.000  0.077 -0.000
 -0.000 -0.002  0.000 -0.000  0.345
atomic mag. moment =     3.418817
atom   22   Tr[ns(na)] (up, down, total) =   4.38079  1.05134  5.43213
   spin  1
    eigenvalues: 
  0.702  0.717  0.975  0.987  0.999
    eigenvectors:
  0.008  0.165  0.000  0.000  0.827
  0.955  0.045  0.000  0.000  0.000
  0.000  0.000  0.013  0.987  0.000
  0.037  0.790  0.000  0.000  0.173
  0.000  0.000  0.987  0.013  0.000
    occupations:
  0.950  0.001  0.000 -0.107 -0.000
  0.001  0.703  0.000  0.003 -0.000
  0.000  0.000  0.987  0.000 -0.001
 -0.107  0.003  0.000  0.765  0.000
 -0.000 -0.000 -0.001  0.000  0.976
   spin  2
    eigenvalues: 
  0.102  0.108  0.112  0.354  0.376
    eigenvectors:
  0.843  0.000  0.000  0.155  0.002
  0.000  0.000  0.000  0.013  0.987
  0.000  0.950  0.050  0.000  0.000
  0.157  0.000  0.000  0.832  0.011
  0.000  0.050  0.950  0.000  0.000
    occupations:
  0.141  0.001  0.000  0.092 -0.000
  0.001  0.375 -0.000  0.002 -0.000
  0.000 -0.000  0.108  0.000 -0.001
  0.092  0.002  0.000  0.315  0.000
 -0.000 -0.000 -0.001  0.000  0.112
atomic mag. moment =     3.329456
atom   23   Tr[ns(na)] (up, down, total) =   4.32526  1.19771  5.52297
   spin  1
    eigenvalues: 
  0.720  0.752  0.903  0.951  1.000
    eigenvectors:
  0.999  0.000  0.000  0.000  0.001
  0.000  0.000  0.000  1.000  0.000
  0.000  0.000  1.000  0.000  0.000
  0.001  0.000  0.000  0.000  0.999
  0.000  1.000  0.000  0.000  0.000
    occupations:
  0.720  0.000  0.000  0.009  0.000
  0.000  0.951 -0.000 -0.000  0.000
  0.000 -0.000  0.903 -0.000  0.000
  0.009 -0.000 -0.000  0.999  0.000
  0.000  0.000  0.000  0.000  0.752
   spin  2
    eigenvalues: 
  0.070  0.182  0.216  0.325  0.406
    eigenvectors:
  0.002  0.000  0.000  0.000  0.998
  0.000  0.000  1.000  0.000  0.000
  0.000  1.000  0.000  0.000  0.000
  0.998  0.000  0.000  0.000  0.002
  0.000  0.000  0.000  1.000  0.000
    occupations:
  0.405 -0.000 -0.001 -0.014 -0.000
 -0.000  0.216 -0.000 -0.000 -0.000
 -0.001 -0.000  0.182  0.000 -0.000
 -0.014 -0.000  0.000  0.070 -0.000
 -0.000 -0.000 -0.000 -0.000  0.325
atomic mag. moment =     3.127553
N of occupied +U levels =  43.2648164
 --- exit write_ns ---

 ------ SPIN UP ------------


          k = 0.0000 0.0000 0.0000 ( 26393 PWs)   bands (ev):

   -84.5239 -84.4914 -84.4812 -84.3673 -84.3267 -84.2603 -84.2497 -84.0365
   -53.3192 -53.2756 -53.2045 -53.1674 -53.1641 -53.1627 -53.1532 -53.1499
   -53.1271 -53.1034 -53.0568 -53.0388 -53.0322 -53.0137 -52.9740 -52.9652
   -52.9436 -52.9086 -52.9032 -52.8774 -52.8585 -52.7920 -52.7126 -52.7123
   -21.8839 -21.2807 -21.2218 -21.0059 -20.4075 -20.2151 -20.1986 -20.1668
   -20.0809 -20.0166 -19.9433 -19.8402 -19.7200 -19.6591 -19.5426 -19.5036
   -19.3845 -19.2610 -18.9908 -11.2552 -10.9706 -10.8748 -10.6047 -10.4321
   -10.2696 -10.1377 -10.1280  -9.7801  -9.4838  -9.3394  -9.3210  -9.2173
    -9.1935  -9.1256  -9.0914  -8.8407  -8.7162  -8.6299  -8.6095  -8.5785
    -8.5580  -8.4505  -8.3473  -8.3111  -8.3079  -8.2303  -8.1544  -8.1377
    -7.9906  -7.7240  -7.6768  -7.5873  -7.5667  -7.4243  -7.3726  -7.3028
    -7.2324  -7.1677  -7.1273  -6.9349  -6.5228  -6.3529  -6.2981  -6.2235
    -6.0575  -5.8564  -5.5939  -5.5358  -5.5039  -5.4299  -5.3928  -5.2349
    -5.1167  -5.0396  -4.9679  -4.8620  -4.6233  -4.5238  -4.4231  -4.2865
    -4.1454  -3.7827  -3.6279  -3.4197  -3.3920  -3.3308  -3.1748  -3.1583
    -3.0463  -3.0097  -2.9486  -2.8653  -2.8236  -2.7802  -2.7028  -2.5325
    -2.5114  -2.4014  -2.2599  -2.1124  -1.8740  -1.6629  -1.2764  -1.2604
    -1.2256  -0.9231  -0.7611  -0.6834  -0.3611  -0.1378  -0.0697   0.0407
     0.2783   0.3886   0.5797   0.6712   3.0450   3.7753   3.9072   4.4045
     4.8385   5.5982   6.0896   6.2491   6.6467   7.0664   7.1297   7.2054
     7.3516   7.6317   7.7364   7.8321   7.9544   8.1904   8.2444   8.2709
     8.3195   8.3826   8.5184   8.5305   8.6339   8.9332   8.9676   9.0110
     9.0378   9.1848   9.3503   9.3844   9.4715   9.5097   9.6258   9.7013
     9.8488   9.9562  10.0441  10.2797  10.3066  10.3836  10.5448  10.5511
    10.6891  10.7617  10.9815  11.0137  11.0709  11.1114  11.3034  11.3755
    11.5513  11.6035  11.6777  11.8351  11.8834  12.0575  12.1749  12.2429
    12.2588  12.3337  12.3479  12.3666  12.4040  12.4548  12.5547  12.6028
    12.6476  12.7177  12.8145  12.8431  12.8964  12.9743  13.0290  13.1356
    13.1762  13.2170  13.2804  13.2850  13.3793  13.4932  13.5786  13.6298
    13.7577  13.8222  13.8578  13.9260  13.9633  13.9832  14.1721  14.2015
    14.2708  14.2905  14.3858  14.4325  14.6061  14.6726  14.7515  14.8298
    14.8940  14.9056  15.1957  15.1988  15.2771  15.3119  15.3445  15.3527
    15.5301  15.7740  15.8156  15.8580  15.9496  16.0941  16.2025  16.3122
    16.3975  16.5517  16.5808  16.6568  16.7194  16.7795  17.0636  17.1616
    17.1787  17.2962  17.4233  17.4803  17.5921  17.6989  17.7333  17.8357
    17.9609  18.1436  18.2122  18.2477  18.3094  18.3892  18.4624  18.6442
    18.7075  18.8473  18.9189  18.9974  19.0437  19.1433  19.2199  19.3563
    19.4780  19.5443  19.5755  19.5871  19.6850  19.7432  19.7769  19.8788
    19.9302  19.9652  20.0422  20.0644  20.1749  20.2630  20.3672  20.3734
    20.4690  20.5805  20.7005  20.7866  20.9577  20.9705  21.1388  21.1948
    21.2852  21.3091  21.3539  21.4230  21.4767  21.5044  21.6010  21.6298
    21.7360  21.8413  22.0434  22.1429  22.2168  22.2482  22.3376  22.3865
    22.3990  22.4296  22.4622  22.5700  22.6100  22.6128  22.7083  22.8015
    22.8683

          k = 0.0000 0.2303 0.0000 ( 26455 PWs)   bands (ev):

   -84.5238 -84.4914 -84.4812 -84.3673 -84.3267 -84.2603 -84.2497 -84.0365
   -53.3193 -53.2757 -53.2043 -53.1686 -53.1652 -53.1619 -53.1534 -53.1474
   -53.1271 -53.1034 -53.0576 -53.0389 -53.0322 -53.0138 -52.9742 -52.9649
   -52.9437 -52.9087 -52.9032 -52.8774 -52.8586 -52.7919 -52.7126 -52.7125
   -21.8155 -21.2227 -21.1678 -20.9840 -20.4289 -20.3052 -20.2753 -20.2462
   -20.1898 -19.9329 -19.8843 -19.8284 -19.8072 -19.6796 -19.5216 -19.4984
   -19.3771 -19.2628 -18.9838 -11.0384 -10.8554 -10.8027 -10.6921 -10.4776
   -10.4596 -10.1630 -10.0689  -9.8273  -9.4308  -9.2596  -9.1991  -8.9793
    -8.9579  -8.9312  -8.8898  -8.8557  -8.7040  -8.6584  -8.6039  -8.5745
    -8.5378  -8.5091  -8.4932  -8.2915  -8.2565  -8.1782  -8.1659  -8.1402
    -7.9489  -7.9350  -7.8039  -7.7873  -7.6462  -7.6047  -7.5535  -7.3761
    -7.3399  -7.1145  -6.8492  -6.8080  -6.5700  -6.3342  -6.3043  -6.2318
    -5.9945  -5.8496  -5.7641  -5.6849  -5.5780  -5.4833  -5.4611  -5.2762
    -5.1676  -5.0483  -4.7372  -4.6799  -4.5803  -4.4213  -4.3114  -4.2127
    -4.0558  -3.8111  -3.7417  -3.5433  -3.4750  -3.3843  -3.3198  -3.3079
    -3.1971  -3.1590  -2.9671  -2.9200  -2.7767  -2.6772  -2.6476  -2.6181
    -2.5275  -2.3989  -2.3328  -2.2039  -2.1467  -2.1139  -2.0142  -1.2072
    -1.1672  -1.0594  -0.4222  -0.2053  -0.1108  -0.1016   0.1622   0.3995
     0.4227   0.5028   0.5461   0.6799   3.3162   4.0222   4.1735   4.6330
     5.0519   5.2813   5.8020   6.0097   6.2593   6.4118   6.6871   6.8426
     7.1771   7.3544   7.4306   7.5635   8.0065   8.1344   8.3126   8.4727
     8.5397   8.6120   8.7146   8.7390   8.8629   9.0326   9.0855   9.2206
     9.2510   9.5857   9.6350   9.6961   9.7611   9.8588   9.8853   9.9145
    10.0130  10.1377  10.1808  10.2662  10.3501  10.4932  10.5191  10.5480
    10.6236  10.7293  10.8655  10.8947  10.9622  11.0108  11.0502  11.1332
    11.2548  11.4288  11.4747  11.5508  11.5841  11.5976  11.7428  11.8548
    11.9661  12.0497  12.1069  12.3845  12.4194  12.6011  12.6318  12.6637
    12.7674  12.8046  12.8872  12.9745  13.0745  13.1491  13.2246  13.3401
    13.4202  13.4821  13.6022  13.6747  13.6903  13.8373  13.8584  13.9845
    14.0561  14.1336  14.2636  14.3422  14.3598  14.3773  14.4160  14.4549
    14.5514  14.5919  14.6323  14.7208  14.7541  14.7807  14.9507  15.0207
    15.0750  15.0937  15.2248  15.3437  15.3798  15.4209  15.4701  15.4732
    15.5610  15.6671  15.8573  15.8875  15.9329  16.0356  16.0913  16.1972
    16.2662  16.3337  16.4111  16.5112  16.5951  16.6617  16.7774  16.8494
    16.9753  17.1225  17.1716  17.3087  17.3956  17.4640  17.4997  17.5999
    17.6641  17.7627  17.7957  17.8518  18.0815  18.0974  18.3269  18.4713
    18.5902  18.7470  18.7845  18.8270  18.9003  18.9751  19.0008  19.1048
    19.1994  19.2478  19.3257  19.3897  19.4645  19.5003  19.5338  19.6108
    19.8947  19.9609  20.1106  20.1841  20.2745  20.3135  20.3603  20.3935
    20.5103  20.5222  20.5409  20.6573  20.7016  20.7851  20.8604  20.9852
    21.0329  21.0756  21.1002  21.1720  21.2182  21.3240  21.3660  21.4509
    21.4716  21.6051  21.7245  21.7626  21.8909  21.9237  21.9655  22.0536
    22.2625  22.2861  22.3657  22.4817  22.5214  22.5626  22.6420  22.7242
    22.7627

          k = 0.0000-0.4606 0.0000 ( 26364 PWs)   bands (ev):

   -84.5239 -84.4913 -84.4812 -84.3673 -84.3267 -84.2602 -84.2497 -84.0366
   -53.3192 -53.2756 -53.2040 -53.1699 -53.1655 -53.1610 -53.1533 -53.1454
   -53.1269 -53.1033 -53.0584 -53.0388 -53.0320 -53.0139 -52.9743 -52.9647
   -52.9436 -52.9086 -52.9031 -52.8773 -52.8585 -52.7917 -52.7126 -52.7125
   -21.7372 -21.2153 -21.0926 -20.7959 -20.6480 -20.3895 -20.3695 -20.2939
   -20.1901 -19.9535 -19.9088 -19.8391 -19.7708 -19.6727 -19.5104 -19.4933
   -19.3723 -19.2651 -18.9797 -11.0142 -10.9143 -10.6872 -10.6029 -10.5142
   -10.3464 -10.1603  -9.8715  -9.7502  -9.4923  -9.1770  -9.1505  -8.9605
    -8.9424  -8.9365  -8.8404  -8.7193  -8.6585  -8.6332  -8.5705  -8.5494
    -8.4980  -8.4430  -8.3514  -8.3360  -8.3003  -8.1836  -8.1388  -8.1282
    -8.1154  -7.9292  -7.9095  -7.8721  -7.8194  -7.6414  -7.6092  -7.4622
    -7.4209  -7.3533  -6.6205  -6.5532  -6.4968  -6.3161  -6.3126  -6.2611
    -6.1493  -6.1097  -5.9683  -5.7458  -5.6187  -5.5091  -5.4928  -5.2383
    -5.1890  -4.9429  -4.6149  -4.5711  -4.4923  -4.2759  -4.2139  -3.9399
    -3.8706  -3.8584  -3.7799  -3.6444  -3.6397  -3.5823  -3.4625  -3.3994
    -3.3225  -3.1722  -3.0800  -3.0045  -2.8763  -2.8256  -2.7944  -2.7713
    -2.7156  -2.4987  -2.3700  -2.3257  -2.2372  -2.2237  -2.1369  -1.1557
    -1.0535  -0.6666  -0.2395  -0.2241  -0.2106   0.0219   0.0608   0.2815
     0.4660   0.6781   0.9255   0.9904   3.8732   4.2593   4.6667   4.7603
     4.8584   5.0816   5.3164   5.5480   5.8569   6.1565   6.5401   6.9491
     7.0706   7.1453   7.5051   7.7147   7.7718   7.9423   7.9862   8.2176
     8.6501   8.9968   9.0147   9.1451   9.2048   9.2483   9.2536   9.3334
     9.3342   9.3880   9.5097   9.5787   9.6104   9.7458   9.8122   9.8745
     9.9533   9.9721  10.1525  10.1766  10.2011  10.3485  10.4768  10.6565
    10.6993  10.7553  10.7973  10.9173  11.0294  11.0847  11.2838  11.3343
    11.4302  11.4462  11.6366  11.7411  11.8222  12.1219  12.2114  12.2563
    12.3015  12.3673  12.5358  12.5529  12.5804  12.5875  12.6594  12.7907
    12.8676  12.9113  12.9775  13.1161  13.1371  13.1995  13.2196  13.2621
    13.3125  13.4590  13.4795  13.5683  13.6179  13.6782  13.7665  13.9732
    13.9854  14.0468  14.0633  14.1292  14.2437  14.2785  14.3549  14.4487
    14.4706  14.4998  14.5656  14.6180  14.6675  14.7289  14.8221  14.8426
    14.9250  15.0462  15.1797  15.2018  15.2301  15.5180  15.7843  15.7984
    15.8829  15.9423  15.9937  16.0642  16.1852  16.2164  16.3888  16.4862
    16.6535  16.7297  16.7841  16.8498  16.9912  17.0259  17.1209  17.1659
    17.2705  17.2955  17.4113  17.4603  17.4781  17.5494  17.6921  17.7304
    17.8208  17.8379  17.8845  17.9247  17.9674  18.0431  18.0670  18.1554
    18.3823  18.4240  18.5264  18.5506  18.5886  18.6484  18.6631  18.6701
    18.7023  18.7734  18.7979  18.9331  19.0015  19.1115  19.1835  19.2708
    19.2902  19.5651  19.6259  19.6476  19.6926  19.9462  19.9771  20.0338
    20.1409  20.1507  20.1644  20.1987  20.2281  20.3914  20.4942  20.5496
    20.6691  20.7039  20.8502  20.8976  20.9902  21.0753  21.1108  21.1708
    21.2610  21.3704  21.4178  21.4995  21.5421  21.6547  21.7420  21.8421
    21.9064  21.9933  22.1530  22.3256  22.3691  22.4386  22.4860  22.7146
    22.7722

          k = 0.2500 0.0000 0.0000 ( 26392 PWs)   bands (ev):

   -84.5236 -84.4896 -84.4823 -84.3667 -84.3267 -84.2584 -84.2509 -84.0363
   -53.3193 -53.2596 -53.2044 -53.1823 -53.1611 -53.1524 -53.1506 -53.1482
   -53.1242 -53.1079 -53.0599 -53.0517 -53.0148 -53.0147 -52.9728 -52.9665
   -52.9434 -52.9274 -52.9034 -52.8746 -52.8613 -52.7953 -52.7125 -52.7123
   -21.7656 -21.2839 -21.1507 -20.9105 -20.5027 -20.3447 -20.3069 -20.1427
   -19.9805 -19.9720 -19.9056 -19.8647 -19.7616 -19.7026 -19.5340 -19.4923
   -19.4022 -19.3203 -19.0579 -11.0052 -10.7959 -10.6813 -10.4935 -10.1881
   -10.1092 -10.0192  -9.9351  -9.7354  -9.6614  -9.5762  -9.4823  -9.3614
    -9.3211  -9.1778  -9.0865  -8.9353  -8.8215  -8.7710  -8.7192  -8.6088
    -8.5630  -8.4722  -8.4463  -8.3213  -8.2954  -8.2454  -8.1716  -8.0490
    -7.9559  -7.7425  -7.7130  -7.6668  -7.5547  -7.4599  -7.4209  -7.4073
    -7.3646  -7.2568  -7.2050  -7.0154  -6.6714  -6.4454  -6.2986  -6.1041
    -6.0430  -5.9991  -5.7839  -5.5320  -5.2776  -5.1922  -5.0876  -5.0147
    -4.9815  -4.8345  -4.7724  -4.7310  -4.6103  -4.5056  -4.4260  -4.2204
    -4.0658  -3.9097  -3.7009  -3.4850  -3.4669  -3.2552  -3.1614  -3.1054
    -3.0658  -3.0098  -2.9803  -2.9293  -2.8344  -2.7332  -2.6625  -2.6293
    -2.6132  -2.4613  -2.4256  -2.2956  -1.9183  -1.4608  -1.2637  -1.1912
    -1.0581  -0.8732  -0.7301  -0.7017  -0.5117  -0.2933  -0.2030  -0.0581
    -0.0233   0.2268   0.3487   0.6126   3.3681   4.0716   4.2341   4.7055
     5.1619   5.4657   5.8498   6.3407   6.3707   6.6215   6.6403   6.9385
     7.2919   7.3791   7.5322   7.6713   7.9328   8.0070   8.0182   8.0997
     8.2612   8.4615   8.5691   8.5986   8.8066   8.8575   9.0665   9.2065
     9.3400   9.4709   9.5790   9.6605   9.7415   9.7682   9.8089   9.9976
    10.0585  10.1290  10.1871  10.2498  10.3499  10.4603  10.5625  10.6321
    10.7018  10.7579  10.8653  10.9194  11.0056  11.0822  11.1292  11.2080
    11.3609  11.4271  11.4675  11.5597  11.5773  11.6111  11.7726  11.8306
    11.9567  12.1442  12.2475  12.3654  12.4509  12.4894  12.5364  12.5667
    12.6803  12.7405  12.8396  12.9365  13.1320  13.1627  13.1981  13.2573
    13.4054  13.4175  13.5349  13.6108  13.7494  13.8006  13.8844  13.9826
    14.0594  14.0905  14.1463  14.2756  14.3199  14.3369  14.4004  14.5277
    14.5877  14.6625  14.7947  14.8346  14.9709  15.1069  15.1419  15.1594
    15.2170  15.2720  15.4567  15.5002  15.6048  15.6994  15.7396  15.8068
    15.8569  15.8944  16.0264  16.0462  16.0706  16.1058  16.2672  16.4474
    16.4982  16.6233  16.6421  16.7027  16.7356  16.9234  16.9978  17.0750
    17.2397  17.3430  17.3896  17.4757  17.5836  17.6028  17.7770  17.8676
    17.8991  17.9967  18.0115  18.1140  18.1496  18.1791  18.3842  18.4103
    18.4740  18.6845  18.7423  18.9205  18.9372  18.9913  19.0710  19.1052
    19.2555  19.3635  19.3715  19.4909  19.5932  19.7198  19.7440  19.7967
    19.8271  19.9088  19.9689  20.0045  20.0770  20.1991  20.3121  20.3479
    20.4200  20.5143  20.5413  20.6187  20.6801  20.7579  20.7932  20.8173
    20.9168  20.9641  21.0940  21.1921  21.2924  21.3291  21.4078  21.4741
    21.5244  21.5982  21.6905  21.7480  21.8255  21.8770  21.8884  21.9646
    22.0241  22.0729  22.1061  22.1391  22.2150  22.2482  22.2823  22.3339
    22.3595

          k = 0.2500 0.2303 0.0000 ( 26396 PWs)   bands (ev):

   -84.5236 -84.4896 -84.4824 -84.3667 -84.3267 -84.2584 -84.2509 -84.0363
   -53.3193 -53.2596 -53.2042 -53.1823 -53.1604 -53.1564 -53.1507 -53.1438
   -53.1242 -53.1079 -53.0606 -53.0518 -53.0149 -53.0146 -52.9729 -52.9663
   -52.9434 -52.9273 -52.9035 -52.8746 -52.8614 -52.7952 -52.7126 -52.7124
   -21.7093 -21.2774 -21.0511 -20.8673 -20.4892 -20.3456 -20.3035 -20.1830
   -20.1375 -20.0601 -19.9492 -19.8538 -19.8103 -19.6909 -19.5142 -19.4874
   -19.3937 -19.3228 -19.0527 -10.8158 -10.6540 -10.5857 -10.5495 -10.2843
   -10.2282 -10.0079  -9.9050  -9.6790  -9.5549  -9.4301  -9.3924  -9.2807
    -9.1953  -9.1146  -8.9465  -8.9286  -8.7729  -8.7150  -8.6831  -8.5746
    -8.5384  -8.4239  -8.4129  -8.3562  -8.2777  -8.2140  -8.1874  -8.1382
    -7.9908  -7.9483  -7.8455  -7.7898  -7.6796  -7.6455  -7.6104  -7.5161
    -7.4497  -7.3224  -7.2047  -6.9775  -6.5781  -6.3644  -6.2272  -6.0101
    -5.9938  -5.8847  -5.7333  -5.5087  -5.4612  -5.3725  -5.2949  -5.2066
    -4.9181  -4.8260  -4.6890  -4.6119  -4.5414  -4.4445  -4.3698  -4.1740
    -4.0956  -3.8992  -3.7068  -3.5524  -3.4608  -3.4031  -3.2750  -3.2175
    -3.1773  -3.0756  -2.9630  -2.9409  -2.8014  -2.7737  -2.6855  -2.6293
    -2.5743  -2.5275  -2.3594  -2.3374  -2.0575  -1.9336  -1.7889  -1.1796
    -1.0927  -1.0121  -0.6972  -0.5133  -0.2877  -0.2263   0.0425   0.1581
     0.2608   0.4648   0.5215   0.6157   3.6249   4.3164   4.4807   4.9230
     5.3316   5.5856   5.6616   6.0594   6.3008   6.5374   6.5855   6.7284
     6.8525   6.9957   7.1165   7.4036   7.5177   7.7088   7.8726   8.0124
     8.3088   8.4116   8.5382   8.6258   8.8001   8.8650   8.9709   9.1150
     9.1499   9.2578   9.4071   9.5304   9.6074   9.7995   9.9218  10.0438
    10.1540  10.1968  10.3036  10.3956  10.5465  10.5856  10.6726  10.8637
    10.8943  11.0687  11.1384  11.1953  11.2959  11.4006  11.4265  11.4606
    11.6240  11.6886  11.7444  11.7984  11.9344  12.0244  12.1875  12.2711
    12.3199  12.4163  12.5175  12.5735  12.5894  12.7163  12.7786  12.9121
    12.9366  12.9696  13.0354  13.1207  13.1536  13.2676  13.2896  13.3849
    13.4236  13.5127  13.5660  13.6573  13.7351  13.8027  13.8323  13.9192
    14.0068  14.0329  14.1077  14.1195  14.2158  14.2805  14.3757  14.4186
    14.5292  14.6436  14.7048  14.7499  14.8164  14.8633  14.9500  15.0485
    15.2055  15.2826  15.3720  15.4255  15.5080  15.6041  15.7437  15.8020
    15.8926  15.9744  16.0611  16.1618  16.2365  16.2845  16.3532  16.4085
    16.5084  16.5829  16.6161  16.6840  16.7613  16.8981  16.9455  17.0215
    17.1020  17.1555  17.2355  17.2658  17.3949  17.4537  17.5385  17.6131
    17.7191  17.7778  17.8557  17.9056  18.0250  18.0560  18.1529  18.2363
    18.3117  18.4023  18.4645  18.5497  18.6239  18.6611  18.7087  18.8648
    18.9465  18.9723  19.0176  19.1045  19.1500  19.1945  19.2791  19.3653
    19.4684  19.5191  19.5715  19.6443  19.7124  19.7940  19.8732  19.9431
    19.9930  20.0567  20.1096  20.1721  20.2722  20.3315  20.4196  20.5394
    20.7160  20.7660  20.8593  20.8907  20.9374  21.0222  21.0682  21.1134
    21.1998  21.3331  21.3615  21.3906  21.5047  21.5553  21.6246  21.7090
    21.8229  21.8672  21.9607  22.0374  22.1512  22.2645  22.2884  22.4058
    22.4957

          k = 0.2500-0.4606 0.0000 ( 26462 PWs)   bands (ev):

   -84.5236 -84.4895 -84.4824 -84.3667 -84.3267 -84.2584 -84.2509 -84.0364
   -53.3193 -53.2597 -53.2040 -53.1823 -53.1599 -53.1582 -53.1508 -53.1417
   -53.1241 -53.1079 -53.0606 -53.0524 -53.0152 -53.0147 -52.9729 -52.9662
   -52.9435 -52.9274 -52.9035 -52.8746 -52.8614 -52.7951 -52.7127 -52.7124
   -21.6482 -21.2702 -20.9540 -20.6905 -20.5484 -20.4478 -20.3145 -20.2887
   -20.1361 -20.1180 -20.0212 -19.9607 -19.7780 -19.6722 -19.5006 -19.4830
   -19.3870 -19.3256 -19.0500 -10.7708 -10.7105 -10.4407 -10.3735 -10.2985
   -10.2718  -9.9894  -9.7132  -9.6537  -9.4751  -9.2169  -9.1980  -9.1092
    -9.0391  -8.9751  -8.9014  -8.8757  -8.8119  -8.7488  -8.7206  -8.6804
    -8.6044  -8.5248  -8.4833  -8.4265  -8.3578  -8.3411  -8.2555  -8.2082
    -8.1770  -8.1312  -8.1218  -7.7327  -7.6164  -7.5992  -7.5192  -7.4969
    -7.2709  -7.1670  -7.1151  -7.0464  -6.6344  -6.4932  -6.1792  -6.1530
    -6.0478  -5.9923  -5.8709  -5.7801  -5.7161  -5.3504  -5.2722  -5.1970
    -4.8508  -4.7461  -4.5474  -4.4478  -4.4061  -4.3139  -4.2931  -4.1828
    -4.0410  -3.8323  -3.7197  -3.5531  -3.5436  -3.4957  -3.3980  -3.2995
    -3.2180  -3.1581  -3.0147  -2.9239  -2.8287  -2.8234  -2.7474  -2.6924
    -2.6261  -2.5594  -2.4346  -2.4089  -2.2288  -2.1951  -2.1174  -1.0801
    -1.0667  -0.7788  -0.7316  -0.5762  -0.4371  -0.1238   0.2251   0.2509
     0.3252   0.5540   0.8171   0.9210   4.1536   4.5541   4.9327   5.0502
     5.1444   5.3736   5.5918   5.8453   6.0075   6.1261   6.4602   6.6651
     6.8032   7.2438   7.2939   7.3972   7.4666   7.5603   7.6270   7.8578
     7.9028   8.0886   8.2503   8.2831   8.5139   8.5933   8.7333   8.9435
     9.0704   9.2069   9.3441   9.4872   9.5884   9.7465   9.7625   9.8685
    10.0114  10.2928  10.4953  10.5462  10.8384  10.8549  10.9405  11.1920
    11.2682  11.3437  11.5569  11.6416  11.7643  11.8228  11.9070  11.9362
    11.9998  12.0136  12.1191  12.2173  12.2743  12.3865  12.5251  12.5833
    12.6043  12.6296  12.7443  12.8545  12.8765  12.9063  12.9894  13.0108
    13.0670  13.1209  13.1917  13.2848  13.3021  13.3812  13.4078  13.4567
    13.5205  13.6253  13.6611  13.6946  13.7894  13.8045  13.8383  13.9492
    14.0363  14.1093  14.2491  14.2697  14.3168  14.3546  14.3865  14.4620
    14.5427  14.6041  14.6385  14.6776  14.8616  14.8959  14.9993  15.0239
    15.0317  15.1012  15.1800  15.2369  15.2608  15.3622  15.4505  15.5325
    15.5629  15.6582  15.7169  15.8083  15.8270  15.8369  15.9966  16.0782
    16.2269  16.2685  16.3389  16.3730  16.4533  16.5604  16.6894  16.7403
    16.8398  16.8959  17.0041  17.0769  17.1642  17.2263  17.3756  17.4659
    17.5486  17.6530  17.7645  17.8537  17.8992  17.9801  18.0031  18.1986
    18.3026  18.3490  18.4049  18.4607  18.5113  18.6160  18.6584  18.8215
    18.8700  18.9751  19.0443  19.0542  19.1302  19.1399  19.2231  19.2444
    19.2975  19.5728  19.6263  19.6813  19.7364  19.7890  19.8313  19.8526
    19.9797  20.0160  20.0428  20.1217  20.1413  20.1730  20.2173  20.2739
    20.3309  20.4652  20.5376  20.6987  20.7421  20.7981  20.9837  20.9984
    21.0687  21.0933  21.1518  21.1897  21.2016  21.2681  21.3026  21.3520
    21.3847  21.4337  21.6377  21.6692  21.9874  22.0601  22.0979  22.3289
    22.3581

          k =-0.5000 0.0000 0.0000 ( 26466 PWs)   bands (ev):

   -84.5234 -84.4862 -84.4851 -84.3660 -84.3267 -84.2545 -84.2542 -84.0361
   -53.3194 -53.2213 -53.2202 -53.2044 -53.1578 -53.1563 -53.1480 -53.1212
   -53.1178 -53.1155 -53.0855 -53.0537 -53.0158 -52.9720 -52.9715 -52.9702
   -52.9692 -52.9431 -52.9037 -52.8683 -52.8676 -52.7987 -52.7125 -52.7122
   -21.5161 -21.4736 -20.8566 -20.8207 -20.6597 -20.6503 -20.3381 -20.0411
   -19.9915 -19.8681 -19.8617 -19.8061 -19.8056 -19.7095 -19.6962 -19.5243
   -19.4252 -19.2441 -19.1908 -10.3690 -10.3439 -10.3348 -10.3266 -10.3040
   -10.2891  -9.9555  -9.8140  -9.7908  -9.6996  -9.6868  -9.6290  -9.6227
    -9.5414  -9.1729  -9.1181  -9.0804  -8.9931  -8.9814  -8.9148  -8.7395
    -8.3759  -8.3529  -8.3391  -8.2846  -8.2398  -8.1968  -8.1246  -8.0133
    -7.9931  -7.9639  -7.8467  -7.6849  -7.5337  -7.5219  -7.4854  -7.4777
    -7.4017  -7.3705  -7.2752  -7.0450  -6.8307  -6.5012  -6.4493  -6.2725
    -6.1172  -5.7245  -5.6179  -5.5372  -5.4213  -5.0964  -4.9556  -4.8591
    -4.7966  -4.7671  -4.6333  -4.4984  -4.4649  -4.3533  -4.1933  -4.1344
    -4.0640  -3.8484  -3.7696  -3.6971  -3.4820  -3.2080  -3.1988  -3.1257
    -3.0758  -3.0253  -2.9897  -2.9270  -2.8944  -2.7449  -2.7406  -2.6386
    -2.6290  -2.5589  -2.4795  -2.4746  -1.9531  -1.3221  -1.1598  -1.1247
    -0.9557  -0.9008  -0.7959  -0.5521  -0.5336  -0.5215  -0.5005  -0.4747
    -0.2269   0.1569   0.4065   0.4201   4.2159   4.2213   4.8638   4.9479
     5.0031   5.2582   5.4783   5.7158   5.9896   6.2484   6.5705   6.8965
     7.0879   7.4263   7.5425   7.7159   8.0850   8.2388   8.2554   8.3724
     8.4820   8.5032   8.7922   8.8182   8.9220   8.9347   8.9444   9.0638
     9.0862   9.2412   9.3520   9.4200   9.4591   9.6505   9.6787   9.9189
[...]
O0       0.000000000   0.500000000   0.394602640    0   0   1
Mn1      0.250000000   0.500000000   0.447437222    0   0   1
Mn1      0.000000000   0.000000000   0.447136678    0   0   1
O0       0.250000000   0.800000000   0.445775463    0   0   1
O0       0.250000000   0.200000000   0.449340137    0   0   1
O0       0.000000000   0.500000000   0.494981707    0   0   1
O0       0.000000000   0.000000000   0.525577402    0   0   1
Mn1      0.250000000   0.000000000   0.574938311    0   0   1
Mn1      0.000000000   0.500000000   0.573604693    0   0   1
O0       0.250000000   0.700000000   0.583091849    0   0   1
O0       0.250000000   0.300000000   0.583459141    0   0   1
O0       0.000000000   0.000000000   0.623522182    0   0   1
O0       0.500000000   0.000000000   0.373269942    0   0   1
O0       0.500000000   0.500000000   0.394432453    0   0   1
Mn1      0.750000000   0.500000000   0.447429663    0   0   1
Mn1      0.500000000   0.000000000   0.446885744    0   0   1
O0       0.750000000   0.800000000   0.445788173    0   0   1
O0       0.750000000   0.200000000   0.449368670    0   0   1
O0       0.500000000   0.500000000   0.497256213    0   0   1
O0       0.500000000   0.000000000   0.525690241    0   0   1
Mn1      0.750000000   0.000000000   0.574938048    0   0   1
Mn1      0.500000000   0.500000000   0.573478279    0   0   1
O0       0.750000000   0.700000000   0.583115002    0   0   1
O0       0.750000000   0.300000000   0.583450261    0   0   1
O0       0.500000000   0.000000000   0.624113903    0   0   1
H2       0.000574803   0.648478115   0.379244620
H2       0.500556467   0.647654807   0.378839267
H2       0.161245527   0.043928712   0.362914320
H2       0.661181188   0.044517696   0.362839697
O0       0.499860454   0.500535954   0.647204402


     Check: negative starting charge=(component1):   -0.001051
     NEW-OLD atomic charge density approx. for the potential

     Check: negative/imaginary core charge=   -0.000023    0.000000
     Check: negative starting charge=(component1):   -0.001052

     negative rho (up, down):  0.187E-02 0.183E-02
 Atomic wfc used for LDA+U Projector are NOT orthogonalized

     total cpu time spent up to now is   168664.9 secs

     per-process dynamical memory:   467.3 Mb

     Self-consistent Calculation

     iteration #  1     ecut=    40.00 Ry     beta=0.70
     Davidson diagonalization with overlap
     ethr =  1.00E-06,  avg # of iterations =  3.3
 --- enter write_ns ---
 LDA+U parameters:
U( 2)     =  6.00000000
alpha( 2) =  0.00000000
atom    3   Tr[ns(na)] (up, down, total) =   4.43774  0.92229  5.36003
   spin  1
    eigenvalues: 
  0.704  0.730  0.999  1.001  1.004
    eigenvectors:
  0.220  0.028  0.001  0.669  0.082
  0.159  0.839  0.001  0.001  0.000
  0.000  0.000  0.002  0.104  0.894
  0.621  0.132  0.001  0.222  0.023
  0.000  0.001  0.995  0.003  0.001
    occupations:
  0.928  0.014 -0.002 -0.126  0.001
  0.014  0.726  0.000  0.003 -0.008
 -0.002  0.000  1.003 -0.002  0.000
 -0.126  0.003 -0.002  0.781  0.001
  0.001 -0.008  0.000  0.001  0.999
   spin  2
    eigenvalues: 
  0.073  0.092  0.105  0.313  0.340
    eigenvectors:
  0.776  0.000  0.002  0.012  0.210
  0.000  0.001  0.000  0.958  0.040
  0.003  0.026  0.971  0.000  0.000
  0.220  0.000  0.001  0.029  0.750
  0.000  0.973  0.026  0.001  0.000
    occupations:
  0.132 -0.001 -0.002  0.110 -0.000
 -0.001  0.313  0.000  0.007  0.009
 -0.002  0.000  0.105 -0.001  0.002
  0.110  0.007 -0.001  0.280  0.000
 -0.000  0.009  0.002  0.000  0.092
atomic mag. moment =     3.515451
atom    4   Tr[ns(na)] (up, down, total) =   4.44751  0.90359  5.35110
   spin  1
    eigenvalues: 
  0.692  0.751  0.997  1.004  1.004
    eigenvectors:
  0.000  0.998  0.001  0.002  0.000
  0.000  0.001  0.000  0.715  0.284
  0.000  0.001  0.000  0.283  0.716
  0.000  0.001  0.999  0.000  0.000
  1.000  0.000  0.000  0.000  0.000
    occupations:
  0.751 -0.008 -0.006  0.006 -0.001
 -0.008  1.004 -0.000  0.000  0.002
 -0.006 -0.000  1.004  0.000 -0.000
  0.006  0.000  0.000  0.996 -0.000
 -0.001  0.002 -0.000 -0.000  0.692
   spin  2
    eigenvalues: 
  0.075  0.090  0.097  0.301  0.340
    eigenvectors:
  0.005  0.002  0.000  0.993  0.000
  0.003  0.572  0.422  0.001  0.001
  0.006  0.417  0.577  0.001  0.000
  0.986  0.009  0.000  0.005  0.000
  0.000  0.000  0.000  0.000  0.999
    occupations:
  0.299  0.008  0.006 -0.015  0.000
  0.008  0.094 -0.004  0.000 -0.007
  0.006 -0.004  0.094  0.001  0.000
 -0.015  0.000  0.001  0.076 -0.000
  0.000 -0.007  0.000 -0.000  0.340
atomic mag. moment =     3.543928
atom    9   Tr[ns(na)] (up, down, total) =   4.42857  0.95672  5.38529
   spin  1
    eigenvalues: 
  0.716  0.733  0.987  0.993  1.000
    eigenvectors:
  0.226  0.000  0.000  0.000  0.774
  0.000  1.000  0.000  0.000  0.000
  0.000  0.000  0.062  0.938  0.000
  0.774  0.000  0.000  0.000  0.226
  0.000  0.000  0.938  0.062  0.000
    occupations:
  0.935  0.002 -0.000 -0.119  0.000
  0.002  0.733 -0.000 -0.001  0.000
 -0.000 -0.000  0.993 -0.000 -0.001
 -0.119 -0.001 -0.000  0.780  0.000
  0.000  0.000 -0.001  0.000  0.987
   spin  2
    eigenvalues: 
  0.084  0.097  0.100  0.332  0.344
    eigenvectors:
  0.807  0.000  0.000  0.185  0.008
  0.000  0.000  0.000  0.046  0.954
  0.000  0.010  0.990  0.000  0.000
  0.193  0.000  0.000  0.769  0.038
  0.000  0.990  0.010  0.000  0.000
    occupations:
  0.132 -0.000  0.000  0.098  0.000
 -0.000  0.343 -0.000  0.003 -0.000
  0.000 -0.000  0.100  0.000 -0.000
  0.098  0.003  0.000  0.285 -0.000
  0.000 -0.000 -0.000 -0.000  0.097
atomic mag. moment =     3.471845
atom   10   Tr[ns(na)] (up, down, total) =   4.65436  0.63204  5.28640
   spin  1
    eigenvalues: 
  0.694  0.970  0.995  0.997  0.998
    eigenvectors:
  0.000  0.970  0.000  0.030  0.000
  0.000  0.000  1.000  0.000  0.000
  0.000  0.000  0.000  0.000  1.000
  0.000  0.030  0.000  0.969  0.000
  1.000  0.000  0.000  0.000  0.000
    occupations:
  0.971  0.000  0.000  0.004  0.000
  0.000  0.995  0.000  0.000 -0.001
  0.000  0.000  0.998  0.000 -0.000
  0.004  0.000  0.000  0.996 -0.000
  0.000 -0.001 -0.000 -0.000  0.694
   spin  2
    eigenvalues: 
  0.065  0.065  0.074  0.132  0.297
    eigenvectors:
  0.025  0.012  0.000  0.963  0.000
  0.000  0.000  1.000  0.000  0.000
  0.331  0.669  0.000  0.000  0.000
  0.644  0.319  0.000  0.037  0.000
  0.000  0.000  0.000  0.000  1.000
    occupations:
  0.129  0.000 -0.000 -0.013 -0.000
  0.000  0.074  0.000 -0.000  0.001
 -0.000  0.000  0.065 -0.000  0.000
 -0.013 -0.000 -0.000  0.067 -0.000
 -0.000  0.001  0.000 -0.000  0.297
atomic mag. moment =     4.022322
atom   16   Tr[ns(na)] (up, down, total) =   4.43751  0.92241  5.35992
   spin  1
    eigenvalues: 
  0.704  0.730  0.999  1.001  1.004
    eigenvectors:
  0.222  0.026  0.000  0.678  0.073
  0.150  0.848  0.001  0.001  0.000
  0.000  0.000  0.000  0.094  0.906
  0.628  0.125  0.000  0.226  0.021
  0.000  0.001  0.999  0.000  0.000
    occupations:
  0.928 -0.014 -0.002 -0.127 -0.000
 -0.014  0.727 -0.001 -0.003 -0.008
 -0.002 -0.001  1.003 -0.002 -0.000
 -0.127 -0.003 -0.002  0.780 -0.000
 -0.000 -0.008 -0.000 -0.000  0.999
   spin  2
    eigenvalues: 
  0.073  0.092  0.105  0.312  0.340
    eigenvectors:
  0.776  0.000  0.002  0.013  0.209
  0.000  0.001  0.000  0.955  0.043
  0.003  0.029  0.968  0.000  0.000
  0.220  0.000  0.001  0.030  0.748
  0.000  0.970  0.028  0.001  0.000
    occupations:
  0.132  0.001 -0.002  0.110  0.000
  0.001  0.313  0.000 -0.007  0.009
 -0.002  0.000  0.105 -0.001 -0.002
  0.110 -0.007 -0.001  0.280 -0.001
  0.000  0.009 -0.002 -0.001  0.092
atomic mag. moment =     3.515094
atom   17   Tr[ns(na)] (up, down, total) =   4.44917  0.90201  5.35118
   spin  1
    eigenvalues: 
  0.693  0.751  0.996  1.004  1.005
    eigenvectors:
  0.000  0.998  0.001  0.001  0.000
  0.000  0.001  0.000  0.916  0.083
  0.000  0.001  0.000  0.082  0.917
  0.000  0.001  0.999  0.000  0.000
  1.000  0.000  0.000  0.000  0.000
    occupations:
  0.751 -0.008 -0.006  0.006 -0.001
 -0.008  1.004 -0.000  0.000  0.002
 -0.006 -0.000  1.005  0.000 -0.000
  0.006  0.000  0.000  0.996 -0.000
 -0.001  0.002 -0.000 -0.000  0.693
   spin  2
    eigenvalues: 
  0.075  0.090  0.097  0.299  0.340
    eigenvectors:
  0.005  0.002  0.000  0.993  0.000
  0.003  0.563  0.432  0.002  0.001
  0.006  0.426  0.568  0.001  0.000
  0.986  0.009  0.000  0.005  0.000
  0.000  0.000  0.000  0.000  0.999
    occupations:
  0.298  0.008  0.006 -0.015  0.000
  0.008  0.093 -0.004  0.000 -0.007
  0.006 -0.004  0.094  0.001  0.000
 -0.015  0.000  0.001  0.076 -0.000
  0.000 -0.007  0.000 -0.000  0.340
atomic mag. moment =     3.547163
atom   22   Tr[ns(na)] (up, down, total) =   4.42861  0.95663  5.38525
   spin  1
    eigenvalues: 
  0.715  0.733  0.987  0.993  1.000
    eigenvectors:
  0.225  0.000  0.000  0.000  0.774
  0.001  0.999  0.000  0.000  0.000
  0.000  0.000  0.062  0.938  0.000
  0.774  0.001  0.000  0.000  0.226
  0.000  0.000  0.938  0.062  0.000
    occupations:
  0.935 -0.001 -0.000 -0.119 -0.000
 -0.001  0.733  0.000  0.001  0.000
 -0.000  0.000  0.993 -0.000  0.001
 -0.119  0.001 -0.000  0.780 -0.000
 -0.000  0.000  0.001 -0.000  0.987
   spin  2
    eigenvalues: 
  0.084  0.097  0.100  0.332  0.344
    eigenvectors:
  0.807  0.000  0.000  0.185  0.008
  0.000  0.000  0.000  0.046  0.954
  0.000  0.008  0.992  0.000  0.000
  0.193  0.000  0.000  0.769  0.038
  0.000  0.992  0.008  0.000  0.000
    occupations:
  0.132  0.000  0.000  0.098 -0.000
  0.000  0.343 -0.000 -0.003 -0.000
  0.000 -0.000  0.100  0.000  0.000
  0.098 -0.003  0.000  0.285  0.000
 -0.000 -0.000  0.000  0.000  0.097
atomic mag. moment =     3.471984
atom   23   Tr[ns(na)] (up, down, total) =   4.50236  0.84218  5.34454
   spin  1
    eigenvalues: 
  0.728  0.775  0.998  1.000  1.001
    eigenvectors:
  0.000  0.999  0.000  0.001  0.000
  0.000  0.000  0.000  0.000  1.000
  0.000  0.000  0.999  0.001  0.000
  0.000  0.001  0.001  0.999  0.000
  1.000  0.000  0.000  0.000  0.000
    occupations:
  0.776 -0.000  0.001  0.007  0.000
 -0.000  1.001 -0.000  0.000 -0.001
  0.001 -0.000  0.998 -0.000  0.000
  0.007  0.000 -0.000  1.000  0.000
  0.000 -0.001  0.000  0.000  0.728
   spin  2
    eigenvalues: 
  0.071  0.085  0.089  0.279  0.318
    eigenvectors:
  0.006  0.000  0.000  0.994  0.000
  0.000  0.000  1.000  0.000  0.000
  0.000  1.000  0.000  0.000  0.000
  0.994  0.000  0.000  0.006  0.000
  0.000  0.000  0.000  0.000  1.000
    occupations:
  0.278  0.000 -0.001 -0.016  0.000
  0.000  0.089 -0.000  0.000  0.001
 -0.001 -0.000  0.085 -0.000 -0.000
 -0.016  0.000 -0.000  0.072 -0.000
  0.000  0.001 -0.000 -0.000  0.318
atomic mag. moment =     3.660182
N of occupied +U levels =  42.8237042
 --- exit write_ns ---

     negative rho (up, down):  0.351E-02 0.336E-02

     total cpu time spent up to now is   169018.3 secs

     total energy              =   -2318.65312959 Ry
     Harris-Foulkes estimate   =   -2318.65385590 Ry
     estimated scf accuracy    <       0.00099772 Ry

     total magnetization       =    22.00 Bohr mag/cell
     absolute magnetization    =    36.55 Bohr mag/cell

     iteration #  2     ecut=    40.00 Ry     beta=0.70
     Davidson diagonalization with overlap
     ethr =  4.19E-07,  avg # of iterations =  5.5

     negative rho (up, down):  0.243E-02 0.210E-02

     total cpu time spent up to now is   169299.2 secs

     total energy              =   -2318.64712317 Ry
     Harris-Foulkes estimate   =   -2318.66121872 Ry
     estimated scf accuracy    <       0.17437490 Ry

     total magnetization       =    22.00 Bohr mag/cell
     absolute magnetization    =    36.77 Bohr mag/cell

     iteration #  3     ecut=    40.00 Ry     beta=0.70
     Davidson diagonalization with overlap
     ethr =  4.19E-07,  avg # of iterations =  5.5

     negative rho (up, down):  0.242E-02 0.213E-02

     total cpu time spent up to now is   169579.8 secs

     total energy              =   -2318.65299727 Ry
     Harris-Foulkes estimate   =   -2318.65456152 Ry
     estimated scf accuracy    <       0.02600956 Ry

     total magnetization       =    22.00 Bohr mag/cell
     absolute magnetization    =    36.48 Bohr mag/cell

     iteration #  4     ecut=    40.00 Ry     beta=0.70
     Davidson diagonalization with overlap
     ethr =  4.19E-07,  avg # of iterations =  3.5

     negative rho (up, down):  0.232E-02 0.205E-02

     total cpu time spent up to now is   169831.6 secs

     total energy              =   -2318.65378917 Ry
     Harris-Foulkes estimate   =   -2318.65390064 Ry
     estimated scf accuracy    <       0.00113069 Ry

     total magnetization       =    22.00 Bohr mag/cell
     absolute magnetization    =    36.57 Bohr mag/cell

     iteration #  5     ecut=    40.00 Ry     beta=0.70
     Davidson diagonalization with overlap
     ethr =  4.19E-07,  avg # of iterations =  1.0

     negative rho (up, down):  0.203E-02 0.174E-02

     total cpu time spent up to now is   170052.5 secs

     total energy              =   -2318.65383617 Ry
     Harris-Foulkes estimate   =   -2318.65387377 Ry
     estimated scf accuracy    <       0.00030485 Ry

     total magnetization       =    22.00 Bohr mag/cell
     absolute magnetization    =    36.56 Bohr mag/cell

     iteration #  6     ecut=    40.00 Ry     beta=0.70
     Davidson diagonalization with overlap
     ethr =  1.28E-07,  avg # of iterations =  1.0

     negative rho (up, down):  0.178E-02 0.147E-02

     total cpu time spent up to now is   170278.1 secs

     total energy              =   -2318.65385853 Ry
     Harris-Foulkes estimate   =   -2318.65387999 Ry
     estimated scf accuracy    <       0.00019158 Ry

     total magnetization       =    22.00 Bohr mag/cell
     absolute magnetization    =    36.57 Bohr mag/cell

     iteration #  7     ecut=    40.00 Ry     beta=0.70
     Davidson diagonalization with overlap
     ethr =  8.05E-08,  avg # of iterations =  1.0

     negative rho (up, down):  0.176E-02 0.144E-02

     total cpu time spent up to now is   170507.3 secs

     total energy              =   -2318.65387001 Ry
     Harris-Foulkes estimate   =   -2318.65387605 Ry
     estimated scf accuracy    <       0.00004321 Ry

     total magnetization       =    22.00 Bohr mag/cell
     absolute magnetization    =    36.56 Bohr mag/cell

     iteration #  8     ecut=    40.00 Ry     beta=0.70
     Davidson diagonalization with overlap
     ethr =  1.82E-08,  avg # of iterations =  1.0

     negative rho (up, down):  0.175E-02 0.143E-02

     total cpu time spent up to now is   170738.7 secs

     total energy              =   -2318.65387274 Ry
     Harris-Foulkes estimate   =   -2318.65387451 Ry
     estimated scf accuracy    <       0.00001901 Ry

     total magnetization       =    22.00 Bohr mag/cell
     absolute magnetization    =    36.56 Bohr mag/cell

     iteration #  9     ecut=    40.00 Ry     beta=0.70
     Davidson diagonalization with overlap
     ethr =  7.99E-09,  avg # of iterations =  1.0

     negative rho (up, down):  0.175E-02 0.142E-02

     total cpu time spent up to now is   170977.2 secs

     total energy              =   -2318.65387348 Ry
     Harris-Foulkes estimate   =   -2318.65387465 Ry
     estimated scf accuracy    <       0.00001608 Ry

     total magnetization       =    22.00 Bohr mag/cell
     absolute magnetization    =    36.56 Bohr mag/cell

     iteration # 10     ecut=    40.00 Ry     beta=0.70
     Davidson diagonalization with overlap
     ethr =  6.75E-09,  avg # of iterations =  1.0

     negative rho (up, down):  0.175E-02 0.143E-02

     total cpu time spent up to now is   171215.9 secs

     total energy              =   -2318.65387402 Ry
     Harris-Foulkes estimate   =   -2318.65387433 Ry
     estimated scf accuracy    <       0.00000487 Ry

     total magnetization       =    22.00 Bohr mag/cell
     absolute magnetization    =    36.56 Bohr mag/cell

     iteration # 11     ecut=    40.00 Ry     beta=0.70
     Davidson diagonalization with overlap
     ethr =  2.05E-09,  avg # of iterations =  1.0

     negative rho (up, down):  0.175E-02 0.143E-02

     total cpu time spent up to now is   171454.5 secs

     total energy              =   -2318.65387403 Ry
     Harris-Foulkes estimate   =   -2318.65387423 Ry
     estimated scf accuracy    <       0.00000245 Ry

     total magnetization       =    22.00 Bohr mag/cell
     absolute magnetization    =    36.56 Bohr mag/cell

     iteration # 12     ecut=    40.00 Ry     beta=0.70
     Davidson diagonalization with overlap
     ethr =  1.03E-09,  avg # of iterations =  1.0

     negative rho (up, down):  0.175E-02 0.143E-02

     total cpu time spent up to now is   171693.3 secs

     total energy              =   -2318.65387392 Ry
     Harris-Foulkes estimate   =   -2318.65387430 Ry
     estimated scf accuracy    <       0.00000576 Ry

     total magnetization       =    22.00 Bohr mag/cell
     absolute magnetization    =    36.56 Bohr mag/cell

     iteration # 13     ecut=    40.00 Ry     beta=0.70
     Davidson diagonalization with overlap
     ethr =  1.03E-09,  avg # of iterations =  1.0

     negative rho (up, down):  0.175E-02 0.143E-02

     total cpu time spent up to now is   171932.2 secs

     total energy              =   -2318.65387423 Ry
     Harris-Foulkes estimate   =   -2318.65387417 Ry
     estimated scf accuracy    <       0.00000084 Ry

     total magnetization       =    22.00 Bohr mag/cell
     absolute magnetization    =    36.56 Bohr mag/cell

     iteration # 14     ecut=    40.00 Ry     beta=0.70
     Davidson diagonalization with overlap
     ethr =  3.54E-10,  avg # of iterations =  2.0

     negative rho (up, down):  0.175E-02 0.143E-02

     total cpu time spent up to now is   172176.4 secs

     total energy              =   -2318.65387426 Ry
     Harris-Foulkes estimate   =   -2318.65387433 Ry
     estimated scf accuracy    <       0.00000046 Ry

     total magnetization       =    22.00 Bohr mag/cell
     absolute magnetization    =    36.56 Bohr mag/cell

     iteration # 15     ecut=    40.00 Ry     beta=0.70
     Davidson diagonalization with overlap
     ethr =  1.93E-10,  avg # of iterations =  1.5

     negative rho (up, down):  0.175E-02 0.143E-02

     total cpu time spent up to now is   172428.0 secs

     total energy              =   -2318.65387412 Ry
     Harris-Foulkes estimate   =   -2318.65387453 Ry
     estimated scf accuracy    <       0.00000286 Ry

     total magnetization       =    22.00 Bohr mag/cell
     absolute magnetization    =    36.56 Bohr mag/cell

     iteration # 16     ecut=    40.00 Ry     beta=0.70
     Davidson diagonalization with overlap
     ethr =  1.93E-10,  avg # of iterations =  1.3

     negative rho (up, down):  0.175E-02 0.142E-02

     total cpu time spent up to now is   172662.5 secs

     total energy              =   -2318.65387435 Ry
     Harris-Foulkes estimate   =   -2318.65387435 Ry
     estimated scf accuracy    <       0.00000029 Ry

     total magnetization       =    22.00 Bohr mag/cell
     absolute magnetization    =    36.56 Bohr mag/cell

     iteration # 17     ecut=    40.00 Ry     beta=0.70
     Davidson diagonalization with overlap
     ethr =  1.23E-10,  avg # of iterations =  1.5
=>> PBS: job killed: walltime 172818 exceeded limit 172800
mpirun: killing job...

---------------------------------------
Running PBS batch system epilogue script
Job id: 363684.audhumbla.fysik.dtu.dk
Username: zhonxu
Groupname: campgst
Jobname: MnO2/Eads-2-layers/O-U-6.0
Sessionid: 18938
Resources limits: neednodes=2:ppn=8:xeon8,nodes=2:ppn=8:xeon8,walltime=48:00:00
Resources used: cput=767:19:10,mem=17440872kb,vmem=21489856kb,walltime=48:00:19
Queuename: verylong
Accounting:
This job has allocated the following 16 nodes:
b060 b060 b060 b060 b060 b060 b060 b060 b006 b006 b006 b006 b006 b006 b006 b006
Finished epilogue job 363684.audhumbla.fysik.dtu.dk for zhonxu
