ScientificPython/2.8-dl160g6-numpy-1.7.1-1(15):ERROR:151: Module 'ScientificPython/2.8-dl160g6-numpy-1.7.1-1' depends on one of the module(s) 'numpy/1.7.1-dl160g6-gfortran-internal-1'
ScientificPython/2.8-dl160g6-numpy-1.7.1-1(15):ERROR:102: Tcl command execution failed: prereq numpy/1.7.1-dl160g6-gfortran-internal-1


     Program PWSCF v.5.0.2 (svn rev. 9656) starts on 21May2014 at  6: 1:43 

     This program is part of the open-source Quantum ESPRESSO suite
     for quantum simulation of materials; please cite
         "P. Giannozzi et al., J. Phys.:Condens. Matter 21 395502 (2009);
          URL http://www.quantum-espresso.org", 
     in publications or presentations arising from this work. More details at
     http://www.quantum-espresso.org/quote.php

     Parallel version (MPI), running on    16 processors
     K-points division:     npool     =       4
     R & G space division:  proc/nbgrp/npool/nimage =       4

     Current dimensions of program PWSCF are:
     Max number of different atomic species (ntypx) = 10
     Max number of k-points (npk) =  40000
     Max angular momentum in pseudopotentials (lmaxx) =  3
     Reading input from pwscf.in
Warning: card &CELL ignored
Warning: card / ignored

     Subspace diagonalization in iterative solution of the eigenvalue problem:
     a serial algorithm will be used


     Parallelization info
     --------------------
     sticks:   dense  smooth     PW     G-vecs:    dense   smooth      PW
     Min        1419     456    126               336167    60843    9016
     Max        1420     457    127               336172    60875    9024
     Sum        5677    1827    505              1344679   243423   36075



     bravais-lattice index     =            0
     lattice parameter (alat)  =      11.7919  a.u.
     unit-cell volume          =    7123.6633 (a.u.)^3
     number of atoms/cell      =           30
     number of atomic types    =            3
     number of electrons       =       240.00
     number of Kohn-Sham states=          348
     kinetic-energy cutoff     =      40.0000  Ry
     charge density cutoff     =     500.0000  Ry
     convergence threshold     =      1.0E-06
     mixing beta               =       0.1000
     number of iterations used =            8  plain     mixing
     Exchange-correlation      = SLA  PW   PBE  PBE ( 1 4 3 4 0)
     EXX-fraction              =        0.00
     nstep                     =           50


     celldm(1)=  11.791891  celldm(2)=   0.000000  celldm(3)=   0.000000
     celldm(4)=   0.000000  celldm(5)=   0.000000  celldm(6)=   0.000000

     crystal axes: (cart. coord. in units of alat)
               a(1) = (   1.000000   0.000000   0.000000 )  
               a(2) = (   0.000000   1.026665   0.000000 )  
               a(3) = (   0.000000   0.000000   4.231793 )  

     reciprocal axes: (cart. coord. in units 2 pi/alat)
               b(1) = (  1.000000  0.000000  0.000000 )  
               b(2) = (  0.000000  0.974028  0.000000 )  
               b(3) = (  0.000000  0.000000  0.236306 )  


     PseudoPot. # 1 for O  read from file:
     /home/camp/zhonxu/pseudo/o_pbe_v1.01.uspp.F.UPF
     MD5 check sum: 2bcb18d16ea4b960afae9ec6d52f22d2
     Pseudo is Ultrasoft + core correction, Zval =  6.0
     Generated by new atomic code, or converted to UPF format
     Using radial grid of  737 points,  5 beta functions with: 
                l(1) =   0
                l(2) =   0
                l(3) =   1
                l(4) =   1
                l(5) =   2
     Q(r) pseudized with  8 coefficients,  rinner =    0.900   0.900   0.900
                                                       0.900   0.900

     PseudoPot. # 2 for Ru read from file:
     /home/camp/zhonxu/pseudo/ru_pbe_v1.uspp.F.UPF
     MD5 check sum: df00be1c11b23341d9806d8f1dfa10cf
     Pseudo is Ultrasoft + core correction, Zval = 16.0
     Generated by new atomic code, or converted to UPF format
     Using radial grid of  967 points,  6 beta functions with: 
                l(1) =   0
                l(2) =   0
                l(3) =   1
                l(4) =   1
                l(5) =   2
                l(6) =   2
     Q(r) pseudized with  8 coefficients,  rinner =    1.300   1.300   1.300
                                                       1.300   1.300

     PseudoPot. # 3 for H  read from file:
     /home/camp/zhonxu/pseudo/h_pbe_v1.uspp.F.UPF
     MD5 check sum: 3408e3ff4ec8b0a4e358431e7e038a48
     Pseudo is Ultrasoft, Zval =  1.0
     Generated by new atomic code, or converted to UPF format
     Using radial grid of  615 points,  2 beta functions with: 
                l(1) =   0
                l(2) =   0
     Q(r) pseudized with  8 coefficients,  rinner =    0.700

     atomic species   valence    mass     pseudopotential
        O0             6.00    15.99940     O ( 1.00)
        Ru1           16.00   101.07000     Ru( 1.00)
        H2             1.00     1.00794     H ( 1.00)


     Simplified LDA+U calculation (l_max = 2) with parameters (eV):
     atomic species    L          U    alpha       J0     beta
        Ru1            2     8.0000   0.0000   0.0000   0.0000



     No symmetry found



   Cartesian axes

     site n.     atom                  positions (alat units)
         1           O0  tau(   1) = (   0.0000000   0.0000000   1.6080390  )
         2           O0  tau(   2) = (   0.0000000   0.5133323   1.7023233  )
         3           Ru1 tau(   3) = (   0.2500000   0.5133323   1.9175523  )
         4           Ru1 tau(   4) = (   0.0000000   0.0000000   1.9215302  )
         5           O0  tau(   5) = (   0.2500000   0.8315984   1.9195836  )
         6           O0  tau(   6) = (   0.2500000   0.1950663   1.9193297  )
         7           O0  tau(   7) = (   0.0000000   0.5133323   2.1106490  )
         8           O0  tau(   8) = (   0.0000000   0.0000000   2.2345136  )
         9           Ru1 tau(   9) = (   0.2500000   0.0000000   2.4487269  )
        10           Ru1 tau(  10) = (   0.0000000   0.5133323   2.4113179  )
        11           O0  tau(  11) = (   0.2500000   0.7083986   2.4387399  )
        12           O0  tau(  12) = (   0.2500000   0.3182660   2.4402210  )
        13           O0  tau(  13) = (   0.0000000   0.0000000   2.6238385  )
        14           O0  tau(  14) = (   0.5000000   0.0000000   1.6080390  )
        15           O0  tau(  15) = (   0.5000000   0.5133323   1.7023233  )
        16           Ru1 tau(  16) = (   0.7500000   0.5133323   1.9175523  )
        17           Ru1 tau(  17) = (   0.5000000   0.0000000   1.9215302  )
        18           O0  tau(  18) = (   0.7500000   0.8315984   1.9195836  )
        19           O0  tau(  19) = (   0.7500000   0.1950663   1.9193297  )
        20           O0  tau(  20) = (   0.5000000   0.5133323   2.1106490  )
        21           O0  tau(  21) = (   0.5000000   0.0000000   2.2345136  )
        22           Ru1 tau(  22) = (   0.7500000   0.0000000   2.4487269  )
        23           Ru1 tau(  23) = (   0.5000000   0.5133323   2.4113179  )
        24           O0  tau(  24) = (   0.7500000   0.7083986   2.4387399  )
        25           O0  tau(  25) = (   0.7500000   0.3182660   2.4401787  )
        26           O0  tau(  26) = (   0.5000000   0.0000000   2.6238385  )
        27           H2  tau(  27) = (  -0.0004100   0.6466653   1.6162063  )
        28           H2  tau(  28) = (   0.4995900   0.6466653   1.6162063  )
        29           H2  tau(  29) = (   0.1464700   0.0296706   1.5559879  )
        30           H2  tau(  30) = (   0.6464700   0.0296706   1.5559879  )

     number of k points=    10  Methfessel-Paxton smearing, width (Ry)=  0.0100
                       cart. coord. in units 2pi/alat
        k(    1) = (   0.0000000   0.0000000   0.0000000), wk =   0.1250000
        k(    2) = (   0.0000000   0.2435070   0.0000000), wk =   0.2500000
        k(    3) = (   0.0000000  -0.4870139   0.0000000), wk =   0.1250000
        k(    4) = (   0.2500000   0.0000000   0.0000000), wk =   0.2500000
        k(    5) = (   0.2500000   0.2435070   0.0000000), wk =   0.2500000
        k(    6) = (   0.2500000  -0.4870139   0.0000000), wk =   0.2500000
        k(    7) = (  -0.5000000   0.0000000   0.0000000), wk =   0.1250000
        k(    8) = (  -0.5000000   0.2435070   0.0000000), wk =   0.2500000
        k(    9) = (  -0.5000000  -0.4870139   0.0000000), wk =   0.1250000
        k(   10) = (  -0.2500000   0.2435070   0.0000000), wk =   0.2500000

     Dense  grid:  1344679 G-vectors     FFT dimensions: (  90,  90, 360)

     Smooth grid:   243423 G-vectors     FFT dimensions: (  48,  50, 216)

     Largest allocated arrays     est. size (Mb)     dimensions
        Kohn-Sham Wavefunctions        40.53 Mb     (   7632,  348)
        Atomic wavefunctions           20.96 Mb     (   7632,  180)
        NL pseudopotentials            44.95 Mb     (   7632,  386)
        Each V/rho on FFT grid         11.12 Mb     ( 729000)
        Each G-vector array             2.56 Mb     ( 336169)
        G-vector shells                 1.12 Mb     ( 146910)
     Largest temporary arrays     est. size (Mb)     dimensions
        Auxiliary wavefunctions       162.11 Mb     (   7632, 1392)
        Each subspace H/S matrix       29.57 Mb     (1392,1392)
        Each <psi_i|beta_j> matrix      2.05 Mb     (    386,  348)
        Arrays for rho mixing          88.99 Mb     ( 729000,   8)

     Check: negative/imaginary core charge=   -0.000003    0.000000

     Initial potential from superposition of free atoms
     Check: negative starting charge=   -0.522083

     starting charge  231.99981, renormalised to  240.00000

     negative rho (up, down):  0.540E+00 0.000E+00
     Number of +U iterations with fixed ns =  0
     Starting occupations:
 --- enter write_ns ---
 LDA+U parameters:
U( 2)     =  8.00000000
alpha( 2) =  0.00000000
atom    3   Tr[ns(na)] =   6.00000
    eigenvalues: 
  0.600  0.600  0.600  0.600  0.600
    eigenvectors:
  1.000  0.000  0.000  0.000  0.000
  0.000  1.000  0.000  0.000  0.000
  0.000  0.000  1.000  0.000  0.000
  0.000  0.000  0.000  1.000  0.000
  0.000  0.000  0.000  0.000  1.000
    occupations:
  0.600  0.000  0.000  0.000  0.000
  0.000  0.600  0.000  0.000  0.000
  0.000  0.000  0.600  0.000  0.000
  0.000  0.000  0.000  0.600  0.000
  0.000  0.000  0.000  0.000  0.600
atom    4   Tr[ns(na)] =   6.00000
    eigenvalues: 
  0.600  0.600  0.600  0.600  0.600
    eigenvectors:
  1.000  0.000  0.000  0.000  0.000
  0.000  1.000  0.000  0.000  0.000
  0.000  0.000  1.000  0.000  0.000
  0.000  0.000  0.000  1.000  0.000
  0.000  0.000  0.000  0.000  1.000
    occupations:
  0.600  0.000  0.000  0.000  0.000
  0.000  0.600  0.000  0.000  0.000
  0.000  0.000  0.600  0.000  0.000
  0.000  0.000  0.000  0.600  0.000
  0.000  0.000  0.000  0.000  0.600
atom    9   Tr[ns(na)] =   6.00000
    eigenvalues: 
  0.600  0.600  0.600  0.600  0.600
    eigenvectors:
  1.000  0.000  0.000  0.000  0.000
  0.000  1.000  0.000  0.000  0.000
  0.000  0.000  1.000  0.000  0.000
  0.000  0.000  0.000  1.000  0.000
  0.000  0.000  0.000  0.000  1.000
    occupations:
  0.600  0.000  0.000  0.000  0.000
  0.000  0.600  0.000  0.000  0.000
  0.000  0.000  0.600  0.000  0.000
  0.000  0.000  0.000  0.600  0.000
  0.000  0.000  0.000  0.000  0.600
atom   10   Tr[ns(na)] =   6.00000
    eigenvalues: 
  0.600  0.600  0.600  0.600  0.600
    eigenvectors:
  1.000  0.000  0.000  0.000  0.000
  0.000  1.000  0.000  0.000  0.000
  0.000  0.000  1.000  0.000  0.000
  0.000  0.000  0.000  1.000  0.000
  0.000  0.000  0.000  0.000  1.000
    occupations:
  0.600  0.000  0.000  0.000  0.000
  0.000  0.600  0.000  0.000  0.000
  0.000  0.000  0.600  0.000  0.000
  0.000  0.000  0.000  0.600  0.000
  0.000  0.000  0.000  0.000  0.600
atom   16   Tr[ns(na)] =   6.00000
    eigenvalues: 
  0.600  0.600  0.600  0.600  0.600
    eigenvectors:
  1.000  0.000  0.000  0.000  0.000
  0.000  1.000  0.000  0.000  0.000
  0.000  0.000  1.000  0.000  0.000
  0.000  0.000  0.000  1.000  0.000
  0.000  0.000  0.000  0.000  1.000
    occupations:
  0.600  0.000  0.000  0.000  0.000
  0.000  0.600  0.000  0.000  0.000
  0.000  0.000  0.600  0.000  0.000
  0.000  0.000  0.000  0.600  0.000
  0.000  0.000  0.000  0.000  0.600
atom   17   Tr[ns(na)] =   6.00000
    eigenvalues: 
  0.600  0.600  0.600  0.600  0.600
    eigenvectors:
  1.000  0.000  0.000  0.000  0.000
  0.000  1.000  0.000  0.000  0.000
  0.000  0.000  1.000  0.000  0.000
  0.000  0.000  0.000  1.000  0.000
  0.000  0.000  0.000  0.000  1.000
    occupations:
  0.600  0.000  0.000  0.000  0.000
  0.000  0.600  0.000  0.000  0.000
  0.000  0.000  0.600  0.000  0.000
  0.000  0.000  0.000  0.600  0.000
  0.000  0.000  0.000  0.000  0.600
atom   22   Tr[ns(na)] =   6.00000
    eigenvalues: 
  0.600  0.600  0.600  0.600  0.600
    eigenvectors:
  1.000  0.000  0.000  0.000  0.000
  0.000  1.000  0.000  0.000  0.000
  0.000  0.000  1.000  0.000  0.000
  0.000  0.000  0.000  1.000  0.000
  0.000  0.000  0.000  0.000  1.000
    occupations:
  0.600  0.000  0.000  0.000  0.000
  0.000  0.600  0.000  0.000  0.000
  0.000  0.000  0.600  0.000  0.000
  0.000  0.000  0.000  0.600  0.000
  0.000  0.000  0.000  0.000  0.600
atom   23   Tr[ns(na)] =   6.00000
    eigenvalues: 
  0.600  0.600  0.600  0.600  0.600
    eigenvectors:
  1.000  0.000  0.000  0.000  0.000
  0.000  1.000  0.000  0.000  0.000
  0.000  0.000  1.000  0.000  0.000
  0.000  0.000  0.000  1.000  0.000
  0.000  0.000  0.000  0.000  1.000
    occupations:
  0.600  0.000  0.000  0.000  0.000
  0.000  0.600  0.000  0.000  0.000
  0.000  0.000  0.600  0.000  0.000
  0.000  0.000  0.000  0.600  0.000
  0.000  0.000  0.000  0.000  0.600
N of occupied +U levels =  48.0000000
 --- exit write_ns ---
 Atomic wfc used for LDA+U Projector are NOT orthogonalized
     Starting wfc are  180 randomized atomic wfcs

     total cpu time spent up to now is      101.7 secs

     per-process dynamical memory:   392.5 Mb

     Self-consistent Calculation

     iteration #  1     ecut=    40.00 Ry     beta=0.10
     Davidson diagonalization with overlap
     ethr =  1.00E-02,  avg # of iterations =  5.7
 --- enter write_ns ---
 LDA+U parameters:
U( 2)     =  8.00000000
alpha( 2) =  0.00000000
atom    3   Tr[ns(na)] =   4.15145
    eigenvalues: 
  0.312  0.405  0.419  0.432  0.507
    eigenvectors:
  0.000  0.261  0.000  0.290  0.449
  0.008  0.000  0.992  0.000  0.000
  0.001  0.263  0.000  0.189  0.547
  0.000  0.476  0.000  0.521  0.003
  0.991  0.000  0.008  0.000  0.000
    occupations:
  0.459  0.000  0.044  0.007 -0.001
  0.000  0.418  0.000  0.000  0.010
  0.044  0.000  0.466 -0.012 -0.004
  0.007  0.000 -0.012  0.420  0.000
 -0.001  0.010 -0.004  0.000  0.313
atom    4   Tr[ns(na)] =   3.66155
    eigenvalues: 
  0.300  0.311  0.341  0.417  0.463
    eigenvectors:
  0.000  0.002  0.012  0.000  0.986
  0.009  0.045  0.933  0.000  0.013
  0.004  0.952  0.044  0.000  0.000
  0.987  0.002  0.010  0.000  0.001
  0.000  0.000  0.000  1.000  0.000
    occupations:
  0.461  0.014  0.004 -0.005  0.000
  0.014  0.341 -0.006 -0.005 -0.001
  0.004 -0.006  0.312  0.001  0.001
 -0.005 -0.005  0.001  0.300 -0.000
  0.000 -0.001  0.001 -0.000  0.417
atom    9   Tr[ns(na)] =   7.61437
    eigenvalues: 
  0.447  0.464  0.953  0.962  0.981
    eigenvectors:
  0.000  0.138  0.000  0.862  0.000
  1.000  0.000  0.000  0.000  0.000
  0.000  0.000  0.000  0.000  1.000
  0.000  0.862  0.000  0.138  0.000
  0.000  0.000  1.000  0.000  0.000
    occupations:
  0.893 -0.000 -0.001 -0.172  0.000
 -0.000  0.447 -0.000  0.000 -0.000
 -0.001 -0.000  0.981 -0.002 -0.000
 -0.172  0.000 -0.002  0.532  0.000
  0.000 -0.000 -0.000  0.000  0.953
atom   10   Tr[ns(na)] =   8.31811
    eigenvalues: 
  0.441  0.808  0.966  0.968  0.976
    eigenvectors:
  0.000  0.948  0.001  0.052  0.000
  0.000  0.000  0.000  0.000  1.000
  0.000  0.000  0.977  0.023  0.000
  0.000  0.052  0.023  0.925  0.000
  1.000  0.000  0.000  0.000  0.000
    occupations:
  0.816 -0.000 -0.001  0.036  0.000
 -0.000  0.976 -0.000  0.000 -0.002
 -0.001 -0.000  0.966 -0.000 -0.000
  0.036  0.000 -0.000  0.960 -0.000
  0.000 -0.002 -0.000 -0.000  0.441
atom   16   Tr[ns(na)] =   4.15135
    eigenvalues: 
  0.312  0.405  0.419  0.432  0.507
    eigenvectors:
  0.000  0.261  0.000  0.290  0.449
  0.008  0.000  0.992  0.000  0.000
  0.001  0.263  0.000  0.189  0.547
  0.000  0.475  0.000  0.521  0.003
  0.991  0.000  0.008  0.000  0.000
    occupations:
  0.459  0.000  0.044  0.007 -0.001
  0.000  0.418  0.000  0.000  0.010
  0.044  0.000  0.466 -0.012 -0.004
  0.007  0.000 -0.012  0.420  0.000
 -0.001  0.010 -0.004  0.000  0.313
atom   17   Tr[ns(na)] =   3.66155
    eigenvalues: 
  0.300  0.311  0.341  0.417  0.463
    eigenvectors:
  0.000  0.002  0.012  0.000  0.986
  0.009  0.045  0.933  0.000  0.013
  0.004  0.952  0.044  0.000  0.000
  0.987  0.002  0.010  0.000  0.001
  0.000  0.000  0.000  1.000  0.000
    occupations:
  0.461  0.014  0.004 -0.005  0.000
  0.014  0.341 -0.006 -0.005 -0.001
  0.004 -0.006  0.312  0.001  0.001
 -0.005 -0.005  0.001  0.300 -0.000
  0.000 -0.001  0.001 -0.000  0.417
atom   22   Tr[ns(na)] =   7.61438
    eigenvalues: 
  0.447  0.464  0.953  0.962  0.981
    eigenvectors:
  0.000  0.138  0.000  0.862  0.000
  1.000  0.000  0.000  0.000  0.000
  0.000  0.000  0.000  0.000  1.000
  0.000  0.862  0.000  0.138  0.000
  0.000  0.000  1.000  0.000  0.000
    occupations:
  0.893 -0.000 -0.001 -0.172  0.000
 -0.000  0.447 -0.000  0.000 -0.000
 -0.001 -0.000  0.981 -0.002 -0.000
 -0.172  0.000 -0.002  0.532  0.000
  0.000 -0.000 -0.000  0.000  0.953
atom   23   Tr[ns(na)] =   8.31810
    eigenvalues: 
  0.441  0.808  0.966  0.968  0.976
    eigenvectors:
  0.000  0.948  0.001  0.052  0.000
  0.000  0.000  0.000  0.000  1.000
  0.000  0.000  0.977  0.023  0.000
  0.000  0.052  0.023  0.925  0.000
  1.000  0.000  0.000  0.000  0.000
    occupations:
  0.816  0.000 -0.001  0.036 -0.000
  0.000  0.976 -0.000 -0.000 -0.002
 -0.001 -0.000  0.966 -0.000 -0.000
  0.036 -0.000 -0.000  0.960 -0.000
 -0.000 -0.002 -0.000 -0.000  0.441
N of occupied +U levels =  47.4908538
 --- exit write_ns ---

     negative rho (up, down):  0.550E+00 0.000E+00

     total cpu time spent up to now is      417.6 secs

     total energy              =   -2119.06516775 Ry
     Harris-Foulkes estimate   =   -2130.42621775 Ry
     estimated scf accuracy    <      70.48719058 Ry

     iteration #  2     ecut=    40.00 Ry     beta=0.10
     Davidson diagonalization with overlap
     ethr =  1.00E-02,  avg # of iterations =  3.0

     negative rho (up, down):  0.551E+00 0.000E+00

     total cpu time spent up to now is      589.5 secs

     total energy              =   -2118.28975594 Ry
     Harris-Foulkes estimate   =   -2132.79627959 Ry
     estimated scf accuracy    <     229.00113741 Ry

     iteration #  3     ecut=    40.00 Ry     beta=0.10
     Davidson diagonalization with overlap
     ethr =  1.00E-02,  avg # of iterations =  2.0

     negative rho (up, down):  0.560E+00 0.000E+00

     total cpu time spent up to now is      755.6 secs

     total energy              =   -2124.23766985 Ry
     Harris-Foulkes estimate   =   -2126.88547134 Ry
     estimated scf accuracy    <      25.81119434 Ry

     iteration #  4     ecut=    40.00 Ry     beta=0.10
     Davidson diagonalization with overlap
     ethr =  1.00E-02,  avg # of iterations =  1.0

     negative rho (up, down):  0.563E+00 0.000E+00

     total cpu time spent up to now is      911.8 secs

     total energy              =   -2126.20162392 Ry
     Harris-Foulkes estimate   =   -2126.67019750 Ry
     estimated scf accuracy    <      27.16806044 Ry

     iteration #  5     ecut=    40.00 Ry     beta=0.10
     Davidson diagonalization with overlap
     ethr =  1.00E-02,  avg # of iterations =  1.0

     negative rho (up, down):  0.563E+00 0.000E+00

     total cpu time spent up to now is     1068.2 secs

     total energy              =   -2125.93715122 Ry
     Harris-Foulkes estimate   =   -2126.33699596 Ry
     estimated scf accuracy    <      11.81664478 Ry

     iteration #  6     ecut=    40.00 Ry     beta=0.10
     Davidson diagonalization with overlap
     ethr =  4.92E-03,  avg # of iterations =  1.0

     negative rho (up, down):  0.564E+00 0.000E+00

     total cpu time spent up to now is     1226.9 secs

     total energy              =   -2126.40743455 Ry
     Harris-Foulkes estimate   =   -2126.38020610 Ry
     estimated scf accuracy    <       3.00149995 Ry

     iteration #  7     ecut=    40.00 Ry     beta=0.10
     Davidson diagonalization with overlap
     ethr =  1.25E-03,  avg # of iterations =  1.0

     negative rho (up, down):  0.566E+00 0.000E+00

     total cpu time spent up to now is     1383.3 secs

     total energy              =   -2126.65852323 Ry
     Harris-Foulkes estimate   =   -2126.41457715 Ry
     estimated scf accuracy    <       1.86499020 Ry

     iteration #  8     ecut=    40.00 Ry     beta=0.10
     Davidson diagonalization with overlap
     ethr =  7.77E-04,  avg # of iterations =  3.2

     negative rho (up, down):  0.575E+00 0.000E+00

     total cpu time spent up to now is     1550.9 secs

     total energy              =   -2127.07088323 Ry
     Harris-Foulkes estimate   =   -2126.69404449 Ry
     estimated scf accuracy    <       0.61371293 Ry

     iteration #  9     ecut=    40.00 Ry     beta=0.10
     Davidson diagonalization with overlap
     ethr =  2.56E-04,  avg # of iterations =  7.3

     negative rho (up, down):  0.575E+00 0.000E+00

     total cpu time spent up to now is     1740.8 secs

     total energy              =   -2127.12617180 Ry
     Harris-Foulkes estimate   =   -2127.12494271 Ry
     estimated scf accuracy    <       0.23055049 Ry

     iteration # 10     ecut=    40.00 Ry     beta=0.10
     Davidson diagonalization with overlap
     ethr =  9.61E-05,  avg # of iterations =  1.2

     negative rho (up, down):  0.574E+00 0.000E+00

     total cpu time spent up to now is     1901.0 secs

     total energy              =   -2127.15570107 Ry
     Harris-Foulkes estimate   =   -2127.14896115 Ry
     estimated scf accuracy    <       0.43326862 Ry

     iteration # 11     ecut=    40.00 Ry     beta=0.10
     Davidson diagonalization with overlap
     ethr =  9.61E-05,  avg # of iterations =  1.0

     negative rho (up, down):  0.574E+00 0.000E+00

     total cpu time spent up to now is     2066.4 secs

     total energy              =   -2127.17545252 Ry
     Harris-Foulkes estimate   =   -2127.16466656 Ry
     estimated scf accuracy    <       0.08928543 Ry

     iteration # 12     ecut=    40.00 Ry     beta=0.10
     Davidson diagonalization with overlap
     ethr =  3.72E-05,  avg # of iterations =  1.2

     negative rho (up, down):  0.573E+00 0.000E+00

     total cpu time spent up to now is     2230.5 secs

     total energy              =   -2127.18683892 Ry
     Harris-Foulkes estimate   =   -2127.17695582 Ry
     estimated scf accuracy    <       0.06121980 Ry

     iteration # 13     ecut=    40.00 Ry     beta=0.10
     Davidson diagonalization with overlap
     ethr =  2.55E-05,  avg # of iterations =  6.6

     negative rho (up, down):  0.572E+00 0.000E+00

     total cpu time spent up to now is     2428.1 secs

     total energy              =   -2127.19344636 Ry
     Harris-Foulkes estimate   =   -2127.18979047 Ry
     estimated scf accuracy    <       0.02519978 Ry

     iteration # 14     ecut=    40.00 Ry     beta=0.10
     Davidson diagonalization with overlap
     ethr =  1.05E-05,  avg # of iterations =  4.8

     negative rho (up, down):  0.571E+00 0.000E+00

     total cpu time spent up to now is     2607.5 secs

     total energy              =   -2127.19690491 Ry
     Harris-Foulkes estimate   =   -2127.19538135 Ry
     estimated scf accuracy    <       0.01242099 Ry

     iteration # 15     ecut=    40.00 Ry     beta=0.10
     Davidson diagonalization with overlap
     ethr =  5.18E-06,  avg # of iterations =  5.2

     negative rho (up, down):  0.569E+00 0.000E+00

     total cpu time spent up to now is     2788.8 secs

     total energy              =   -2127.19990417 Ry
     Harris-Foulkes estimate   =   -2127.19718096 Ry
     estimated scf accuracy    <       0.00636257 Ry

     iteration # 16     ecut=    40.00 Ry     beta=0.10
     Davidson diagonalization with overlap
     ethr =  2.65E-06,  avg # of iterations =  3.3

     negative rho (up, down):  0.568E+00 0.000E+00

     total cpu time spent up to now is     2957.6 secs

     total energy              =   -2127.20228568 Ry
     Harris-Foulkes estimate   =   -2127.20065936 Ry
     estimated scf accuracy    <       0.00379591 Ry

     iteration # 17     ecut=    40.00 Ry     beta=0.10
     Davidson diagonalization with overlap
     ethr =  1.58E-06,  avg # of iterations =  2.8

     negative rho (up, down):  0.568E+00 0.000E+00

     total cpu time spent up to now is     3125.8 secs

     total energy              =   -2127.20360301 Ry
     Harris-Foulkes estimate   =   -2127.20291178 Ry
     estimated scf accuracy    <       0.00180979 Ry

     iteration # 18     ecut=    40.00 Ry     beta=0.10
     Davidson diagonalization with overlap
     ethr =  7.54E-07,  avg # of iterations =  1.0

     negative rho (up, down):  0.567E+00 0.000E+00

     total cpu time spent up to now is     3288.1 secs

     total energy              =   -2127.20424257 Ry
     Harris-Foulkes estimate   =   -2127.20376327 Ry
     estimated scf accuracy    <       0.00132116 Ry

     iteration # 19     ecut=    40.00 Ry     beta=0.10
     Davidson diagonalization with overlap
     ethr =  5.50E-07,  avg # of iterations =  1.0

     negative rho (up, down):  0.567E+00 0.000E+00

     total cpu time spent up to now is     3448.9 secs

     total energy              =   -2127.20481893 Ry
     Harris-Foulkes estimate   =   -2127.20437588 Ry
     estimated scf accuracy    <       0.00104963 Ry

     iteration # 20     ecut=    40.00 Ry     beta=0.10
     Davidson diagonalization with overlap
     ethr =  4.37E-07,  avg # of iterations =  2.0

     negative rho (up, down):  0.567E+00 0.000E+00

     total cpu time spent up to now is     3614.2 secs

     total energy              =   -2127.20536264 Ry
     Harris-Foulkes estimate   =   -2127.20517567 Ry
     estimated scf accuracy    <       0.00073921 Ry

     iteration # 21     ecut=    40.00 Ry     beta=0.10
     Davidson diagonalization with overlap
     ethr =  3.08E-07,  avg # of iterations =  1.0

     negative rho (up, down):  0.567E+00 0.000E+00

     total cpu time spent up to now is     3779.1 secs

     total energy              =   -2127.20566593 Ry
     Harris-Foulkes estimate   =   -2127.20539832 Ry
     estimated scf accuracy    <       0.00053850 Ry

     iteration # 22     ecut=    40.00 Ry     beta=0.10
     Davidson diagonalization with overlap
     ethr =  2.24E-07,  avg # of iterations =  1.9

     negative rho (up, down):  0.567E+00 0.000E+00

     total cpu time spent up to now is     3943.9 secs

     total energy              =   -2127.20606949 Ry
     Harris-Foulkes estimate   =   -2127.20595884 Ry
     estimated scf accuracy    <       0.00036173 Ry

     iteration # 23     ecut=    40.00 Ry     beta=0.10
     Davidson diagonalization with overlap
     ethr =  1.51E-07,  avg # of iterations =  1.1

     negative rho (up, down):  0.567E+00 0.000E+00

     total cpu time spent up to now is     4114.3 secs

     total energy              =   -2127.20637594 Ry
     Harris-Foulkes estimate   =   -2127.20630391 Ry
     estimated scf accuracy    <       0.00022044 Ry

     iteration # 24     ecut=    40.00 Ry     beta=0.10
     Davidson diagonalization with overlap
     ethr =  9.18E-08,  avg # of iterations =  1.0

     negative rho (up, down):  0.567E+00 0.000E+00

     total cpu time spent up to now is     4281.3 secs

     total energy              =   -2127.20648143 Ry
     Harris-Foulkes estimate   =   -2127.20642687 Ry
     estimated scf accuracy    <       0.00020345 Ry

     iteration # 25     ecut=    40.00 Ry     beta=0.10
     Davidson diagonalization with overlap
     ethr =  8.48E-08,  avg # of iterations =  2.0

     negative rho (up, down):  0.567E+00 0.000E+00

     total cpu time spent up to now is     4450.4 secs

     total energy              =   -2127.20663397 Ry
     Harris-Foulkes estimate   =   -2127.20660587 Ry
     estimated scf accuracy    <       0.00012882 Ry

     iteration # 26     ecut=    40.00 Ry     beta=0.10
     Davidson diagonalization with overlap
     ethr =  5.37E-08,  avg # of iterations =  2.0

     negative rho (up, down):  0.567E+00 0.000E+00

     total cpu time spent up to now is     4634.1 secs

     total energy              =   -2127.20672760 Ry
     Harris-Foulkes estimate   =   -2127.20671375 Ry
     estimated scf accuracy    <       0.00005813 Ry

     iteration # 27     ecut=    40.00 Ry     beta=0.10
     Davidson diagonalization with overlap
     ethr =  2.42E-08,  avg # of iterations =  2.0

     negative rho (up, down):  0.566E+00 0.000E+00

     total cpu time spent up to now is     4800.2 secs

     total energy              =   -2127.20677365 Ry
     Harris-Foulkes estimate   =   -2127.20675870 Ry
     estimated scf accuracy    <       0.00003638 Ry

     iteration # 28     ecut=    40.00 Ry     beta=0.10
     Davidson diagonalization with overlap
     ethr =  1.52E-08,  avg # of iterations =  1.3

     negative rho (up, down):  0.566E+00 0.000E+00

     total cpu time spent up to now is     4958.2 secs

     total energy              =   -2127.20677966 Ry
     Harris-Foulkes estimate   =   -2127.20678329 Ry
     estimated scf accuracy    <       0.00002766 Ry

     iteration # 29     ecut=    40.00 Ry     beta=0.10
     Davidson diagonalization with overlap
     ethr =  1.15E-08,  avg # of iterations =  2.0

     negative rho (up, down):  0.566E+00 0.000E+00

     total cpu time spent up to now is     5121.1 secs

     total energy              =   -2127.20682067 Ry
     Harris-Foulkes estimate   =   -2127.20681529 Ry
     estimated scf accuracy    <       0.00001608 Ry

     iteration # 30     ecut=    40.00 Ry     beta=0.10
     Davidson diagonalization with overlap
     ethr =  6.70E-09,  avg # of iterations =  2.0

     negative rho (up, down):  0.566E+00 0.000E+00

     total cpu time spent up to now is     5282.8 secs

     total energy              =   -2127.20683859 Ry
     Harris-Foulkes estimate   =   -2127.20683211 Ry
     estimated scf accuracy    <       0.00001124 Ry

     iteration # 31     ecut=    40.00 Ry     beta=0.10
     Davidson diagonalization with overlap
     ethr =  4.68E-09,  avg # of iterations =  1.0

     negative rho (up, down):  0.566E+00 0.000E+00

     total cpu time spent up to now is     5439.7 secs

     total energy              =   -2127.20684468 Ry
     Harris-Foulkes estimate   =   -2127.20684019 Ry
     estimated scf accuracy    <       0.00000886 Ry

     iteration # 32     ecut=    40.00 Ry     beta=0.10
     Davidson diagonalization with overlap
     ethr =  3.69E-09,  avg # of iterations =  1.0

     negative rho (up, down):  0.566E+00 0.000E+00

     total cpu time spent up to now is     5591.4 secs

     total energy              =   -2127.20684816 Ry
     Harris-Foulkes estimate   =   -2127.20684581 Ry
     estimated scf accuracy    <       0.00000610 Ry

     iteration # 33     ecut=    40.00 Ry     beta=0.10
     Davidson diagonalization with overlap
     ethr =  2.54E-09,  avg # of iterations =  1.0

     negative rho (up, down):  0.566E+00 0.000E+00

     total cpu time spent up to now is     5764.4 secs

     total energy              =   -2127.20685371 Ry
     Harris-Foulkes estimate   =   -2127.20685173 Ry
     estimated scf accuracy    <       0.00000441 Ry

     iteration # 34     ecut=    40.00 Ry     beta=0.10
     Davidson diagonalization with overlap
     ethr =  1.84E-09,  avg # of iterations =  1.0

     negative rho (up, down):  0.566E+00 0.000E+00

     total cpu time spent up to now is     5932.1 secs

     total energy              =   -2127.20685819 Ry
     Harris-Foulkes estimate   =   -2127.20685611 Ry
     estimated scf accuracy    <       0.00000256 Ry

     iteration # 35     ecut=    40.00 Ry     beta=0.10
     Davidson diagonalization with overlap
     ethr =  1.07E-09,  avg # of iterations =  2.0

     negative rho (up, down):  0.566E+00 0.000E+00

     total cpu time spent up to now is     6098.0 secs

     total energy              =   -2127.20686034 Ry
     Harris-Foulkes estimate   =   -2127.20685912 Ry
     estimated scf accuracy    <       0.00000176 Ry

     iteration # 36     ecut=    40.00 Ry     beta=0.10
     Davidson diagonalization with overlap
     ethr =  7.33E-10,  avg # of iterations =  1.0

     negative rho (up, down):  0.566E+00 0.000E+00

     total cpu time spent up to now is     6267.4 secs

     total energy              =   -2127.20686148 Ry
     Harris-Foulkes estimate   =   -2127.20686063 Ry
     estimated scf accuracy    <       0.00000116 Ry

     iteration # 37     ecut=    40.00 Ry     beta=0.10
     Davidson diagonalization with overlap
     ethr =  4.82E-10,  avg # of iterations =  1.0

     negative rho (up, down):  0.566E+00 0.000E+00

     total cpu time spent up to now is     6435.0 secs

     End of self-consistent calculation
 --- enter write_ns ---
 LDA+U parameters:
U( 2)     =  8.00000000
alpha( 2) =  0.00000000
atom    3   Tr[ns(na)] =   7.28396
    eigenvalues: 
  0.498  0.545  0.681  0.933  0.985
    eigenvectors:
  0.000  0.168  0.006  0.000  0.827
  1.000  0.000  0.000  0.000  0.000
  0.000  0.006  0.980  0.000  0.014
  0.000  0.826  0.014  0.000  0.160
  0.000  0.000  0.000  1.000  0.000
    occupations:
  0.909 -0.000  0.037 -0.161 -0.000
 -0.000  0.499  0.000 -0.000 -0.006
  0.037  0.000  0.684 -0.004  0.001
 -0.161 -0.000 -0.004  0.617 -0.000
 -0.000 -0.006  0.001 -0.000  0.933
atom    4   Tr[ns(na)] =   7.27343
    eigenvalues: 
  0.545  0.600  0.614  0.889  0.988
    eigenvectors:
  0.005  0.976  0.000  0.000  0.018
  0.000  0.000  0.030  0.970  0.000
  0.000  0.000  0.970  0.030  0.000
  0.000  0.018  0.000  0.000  0.982
  0.995  0.005  0.000  0.000  0.000
    occupations:
  0.607 -0.002  0.000  0.052  0.004
 -0.002  0.881  0.047 -0.000 -0.002
  0.000  0.047  0.622  0.002  0.001
  0.052 -0.000  0.002  0.981  0.000
  0.004 -0.002  0.001  0.000  0.545
atom    9   Tr[ns(na)] =   7.34320
    eigenvalues: 
  0.549  0.575  0.777  0.873  0.897
    eigenvectors:
  0.000  0.136  0.005  0.460  0.399
  1.000  0.000  0.000  0.000  0.000
  0.000  0.000  0.993  0.005  0.001
  0.000  0.863  0.002  0.070  0.065
  0.000  0.000  0.000  0.465  0.534
    occupations:
  0.842  0.001 -0.008 -0.106  0.010
  0.001  0.549  0.003  0.000  0.001
 -0.008  0.003  0.778  0.001  0.001
 -0.106  0.000  0.001  0.617 -0.006
  0.010  0.001  0.001 -0.006  0.886
atom   10   Tr[ns(na)] =   7.31398
    eigenvalues: 
  0.466  0.512  0.811  0.890  0.978
    eigenvectors:
  0.985  0.000  0.000  0.000  0.015
  0.000  0.000  0.000  1.000  0.000
  0.000  0.000  1.000  0.000  0.000
  0.015  0.000  0.000  0.000  0.985
  0.000  1.000  0.000  0.000  0.000
    occupations:
  0.474  0.000  0.004  0.063  0.000
  0.000  0.890 -0.001  0.000 -0.002
  0.004 -0.001  0.811 -0.003 -0.000
  0.063  0.000 -0.003  0.970 -0.001
  0.000 -0.002 -0.000 -0.001  0.512
atom   16   Tr[ns(na)] =   7.28396
    eigenvalues: 
  0.498  0.545  0.681  0.933  0.985
    eigenvectors:
  0.000  0.168  0.006  0.000  0.827
  1.000  0.000  0.000  0.000  0.000
  0.000  0.006  0.980  0.000  0.014
  0.000  0.826  0.014  0.000  0.160
  0.000  0.000  0.000  1.000  0.000
    occupations:
  0.909 -0.000  0.037 -0.161 -0.000
 -0.000  0.499  0.000 -0.000 -0.006
  0.037  0.000  0.684 -0.004  0.001
 -0.161 -0.000 -0.004  0.617 -0.000
 -0.000 -0.006  0.001 -0.000  0.933
atom   17   Tr[ns(na)] =   7.27343
    eigenvalues: 
  0.545  0.600  0.614  0.889  0.988
    eigenvectors:
  0.005  0.976  0.000  0.000  0.018
  0.000  0.000  0.030  0.970  0.000
  0.000  0.000  0.970  0.030  0.000
  0.000  0.018  0.000  0.000  0.982
  0.995  0.005  0.000  0.000  0.000
    occupations:
  0.607 -0.002  0.000  0.052  0.004
 -0.002  0.881  0.047 -0.000 -0.002
  0.000  0.047  0.622  0.002  0.001
  0.052 -0.000  0.002  0.981  0.000
  0.004 -0.002  0.001  0.000  0.545
atom   22   Tr[ns(na)] =   7.34317
    eigenvalues: 
  0.549  0.575  0.777  0.873  0.897
    eigenvectors:
  0.000  0.136  0.004  0.460  0.399
  1.000  0.000  0.000  0.000  0.000
  0.000  0.000  0.993  0.005  0.001
  0.000  0.863  0.002  0.070  0.065
  0.000  0.000  0.000  0.466  0.534
    occupations:
  0.842  0.001 -0.008 -0.106  0.010
  0.001  0.549  0.003  0.000  0.001
 -0.008  0.003  0.778  0.001  0.001
 -0.106  0.000  0.001  0.617 -0.006
  0.010  0.001  0.001 -0.006  0.886
atom   23   Tr[ns(na)] =   7.31398
    eigenvalues: 
  0.466  0.512  0.811  0.890  0.978
    eigenvectors:
  0.985  0.000  0.000  0.000  0.015
  0.000  0.000  0.000  1.000  0.000
  0.000  0.000  1.000  0.000  0.000
  0.015  0.000  0.000  0.000  0.985
  0.000  1.000  0.000  0.000  0.000
    occupations:
  0.474  0.000  0.004  0.063  0.000
  0.000  0.890 -0.001  0.000 -0.002
  0.004 -0.001  0.811 -0.003 -0.000
  0.063  0.000 -0.003  0.970 -0.001
  0.000 -0.002 -0.000 -0.001  0.512
N of occupied +U levels =  58.4291160
 --- exit write_ns ---

          k = 0.0000 0.0000 0.0000 ( 30363 PWs)   bands (ev):

   -73.5733 -73.5628 -73.3594 -73.3470 -73.1596 -73.1493 -73.0543 -73.0417
   -43.8700 -43.8578 -43.5962 -43.5919 -43.5520 -43.4328 -43.4161 -43.4124
   -43.3853 -43.3845 -43.3790 -43.3769 -43.3437 -43.3255 -43.2956 -43.2202
   -43.2076 -43.1904 -43.1691 -43.0527 -42.9864 -42.8728 -42.8501 -42.8207
   -20.8734 -20.4175 -20.3966 -20.2356 -20.0584 -20.0220 -19.8683 -19.8279
   -19.8178 -19.5542 -19.5354 -19.4885 -19.3959 -19.3912 -19.0533 -18.9411
   -18.8832 -18.8703 -10.3797 -10.0396  -9.7324  -9.4216  -9.2172  -9.0145
    -8.9075  -8.7194  -8.3643  -8.0969  -7.8415  -7.7411  -7.5592  -7.4593
    -7.4408  -7.3993  -7.3675  -7.3511  -7.1964  -7.1436  -7.1326  -6.8279
    -6.4812  -6.2845  -6.2559  -5.9524  -5.8810  -5.7818  -5.6137  -5.5583
    -5.3334  -5.1943  -5.1543  -5.1120  -5.0259  -4.9105  -4.8618  -4.8554
    -4.6163  -4.6068  -4.4645  -4.3651  -4.2760  -4.2021  -4.0657  -3.9841
    -3.9819  -3.9277  -3.8985  -3.8897  -3.8094  -3.7963  -3.7849  -3.7132
    -3.6060  -3.5814  -3.4445  -3.3436  -3.3085  -3.2825  -3.1474  -2.9525
    -2.7918  -2.6735  -2.4608  -2.4114  -1.9464  -1.8183  -1.6249  -1.5700
    -1.4329  -1.3133  -0.9607  -0.8413  -0.8385  -0.3570  -0.2523   0.2927
     1.0226   1.0468   1.8120   2.0821   2.5812   2.7658   2.7827   2.8592
     2.9568   3.0123   3.3854   3.6138   3.6801   3.6993   4.0667   4.0821
     4.1056   4.2407   4.2853   4.6545   5.0712   5.8690   6.2037   6.3351
     6.6831   7.0256   7.1786   7.2072   7.2847   7.3339   7.3895   7.4575
     7.7029   7.7707   7.8850   7.9186   7.9761   8.1819   8.2091   8.2858
     8.3978   8.4181   8.6055   8.6846   8.8136   8.8842   9.0136   9.0385
     9.2587   9.2626   9.3670   9.4138   9.4565   9.6470   9.7787   9.8817
     9.9009   9.9386  10.0345  10.2374  10.2669  10.6826  10.7298  10.7917
    10.8591  10.9432  10.9965  11.0839  11.2854  11.3350  11.3844  11.4273
    11.4729  11.5183  11.6076  11.6138  11.6672  11.6772  11.7762  11.8811
    11.8841  12.0232  12.0340  12.0514  12.2197  12.3146  12.4490  12.4828
    12.5276  12.5377  12.5761  12.6182  12.6584  12.7527  12.9172  13.0057
    13.0279  13.0442  13.0924  13.2085  13.2871  13.3872  13.4284  13.5608
    13.7185  13.7366  13.8718  13.9378  13.9662  14.1181  14.1810  14.2624
    14.2789  14.4963  14.6293  14.6684  14.7334  14.7403  14.9849  15.0560
    15.0628  15.2274  15.3895  15.4925  15.5450  15.6651  15.6730  15.8732
    15.9632  16.0381  16.0857  16.1486  16.1726  16.2666  16.3796  16.5422
    16.6158  16.8877  16.9192  16.9492  16.9963  17.1732  17.2051  17.3754
    17.3930  17.4011  17.4305  17.4636  17.5682  17.8645  17.8972  17.9561
    18.0552  18.1574  18.2755  18.3559  18.3929  18.4732  18.5892  18.6099
    18.6364  18.7105  18.7401  18.7509  18.8938  18.9493  19.0112  19.0357
    19.0771  19.0941  19.1299  19.2184  19.3094  19.3580  19.4262  19.4906
    19.5178  19.5232  19.6905  19.7415  19.7562  19.7821  19.8649  19.8815
    19.9214  19.9884  20.1128  20.1828  20.2230  20.3416  20.3700  20.4145
    20.5116  20.5783  20.6855  20.7064  20.7391  20.7667  20.7883  20.8832
    20.9509  20.9946  21.0452  21.1940  21.2532  21.3636  21.3653  21.4235
    21.5719  21.6552  21.7133  21.7378  21.7482  21.7904  21.9354  21.9717
    22.0192  22.2297  22.2624  22.2931

          k = 0.0000 0.2435 0.0000 ( 30432 PWs)   bands (ev):

   -73.5731 -73.5634 -73.3590 -73.3471 -73.1591 -73.1494 -73.0541 -73.0422
   -43.8701 -43.8578 -43.5933 -43.5918 -43.5517 -43.4332 -43.4161 -43.4114
   -43.3948 -43.3880 -43.3871 -43.3603 -43.3436 -43.3256 -43.2957 -43.2203
   -43.2081 -43.1895 -43.1677 -43.0520 -42.9865 -42.8729 -42.8519 -42.8197
   -20.8140 -20.4055 -20.2888 -20.2341 -20.0365 -20.0120 -19.8576 -19.8318
   -19.8269 -19.7512 -19.6710 -19.4092 -19.2668 -19.2583 -19.0841 -19.0501
   -19.0478 -18.8699 -10.1516  -9.7748  -9.6024  -9.5902  -9.4166  -9.1385
    -9.0733  -8.9089  -8.1433  -7.8835  -7.6736  -7.5466  -7.5453  -7.3734
    -7.3388  -7.3151  -7.2787  -7.1660  -7.1182  -7.1048  -6.8377  -6.6036
    -6.5617  -6.4386  -6.2840  -6.2015  -5.9852  -5.6565  -5.4757  -5.4365
    -5.4149  -5.3896  -5.3659  -5.3150  -5.2867  -5.2832  -5.1636  -4.9302
    -4.7838  -4.7197  -4.7019  -4.5903  -4.5018  -4.3894  -4.2266  -4.2202
    -4.1549  -3.9808  -3.8824  -3.8775  -3.7617  -3.7385  -3.5538  -3.4445
    -3.4308  -3.3241  -3.2984  -3.1443  -3.1389  -3.0202  -2.8260  -2.7988
    -2.7652  -2.6972  -2.6741  -2.4557  -2.2774  -2.2271  -1.8246  -1.5702
    -1.5679  -1.0225  -0.7864  -0.6245  -0.5423  -0.4587  -0.3611   0.0744
     1.1014   1.2530   1.7628   1.8489   2.0574   2.3993   2.7976   3.0846
     3.6124   3.6532   3.7298   3.7802   3.7939   3.9066   3.9503   3.9913
     4.1385   4.1825   4.3813   4.8208   5.2724   5.5465   5.8661   6.0984
     6.2498   6.4295   6.6589   6.8342   7.1651   7.1890   7.4329   7.4975
     7.5142   7.6859   7.9159   8.1140   8.1404   8.1507   8.1886   8.3969
     8.4804   8.5720   8.8286   8.9270   8.9668   9.0181   9.2290   9.2756
     9.3653   9.5154   9.6039   9.6997   9.7342   9.7575   9.8220   9.8228
     9.9651  10.0429  10.0552  10.0888  10.1722  10.3202  10.3245  10.3638
    10.4582  10.5753  10.6691  10.9666  11.0771  11.1352  11.1584  11.1674
    11.3078  11.3125  11.4715  11.4782  11.5057  11.6184  11.8825  11.9031
    11.9726  12.3018  12.4074  12.4136  12.5649  12.5718  12.6527  12.7036
    12.8183  12.8718  12.9568  13.0667  13.2146  13.2309  13.3178  13.3431
    13.4311  13.5112  13.5723  13.6468  13.6679  13.7032  13.8327  13.8796
    13.9170  14.0632  14.1188  14.2213  14.2332  14.3429  14.4062  14.4710
    14.5222  14.6219  14.6793  14.7661  14.7795  15.0000  15.0294  15.0834
    15.1143  15.2045  15.2648  15.3795  15.4792  15.5613  15.6715  15.7574
    15.8023  15.8689  15.9347  15.9837  15.9994  16.1941  16.3263  16.4065
    16.4248  16.5851  16.6480  16.6762  16.7284  16.8558  16.8636  16.8840
    17.1862  17.2862  17.3195  17.3524  17.3624  17.4189  17.4866  17.5161
    17.5337  17.6558  17.7619  17.7856  18.1761  18.2031  18.3282  18.3383
    18.5316  18.5733  18.5859  18.6779  18.7608  18.8263  18.9122  18.9204
    18.9932  19.0535  19.1071  19.1155  19.1296  19.1987  19.2163  19.2419
    19.3650  19.3908  19.5384  19.6004  19.6398  19.6455  19.6669  19.7465
    19.8190  19.9182  19.9384  19.9991  20.0075  20.0423  20.1237  20.1508
    20.2016  20.3396  20.3851  20.4068  20.4959  20.5014  20.6163  20.6552
    20.7201  20.7214  20.9148  20.9241  21.0131  21.0855  21.0890  21.1670
    21.1929  21.2506  21.2880  21.3136  21.4144  21.4668  21.4800  21.5079
    21.5513  21.5855  21.5936  21.7391

          k = 0.0000-0.4870 0.0000 ( 30448 PWs)   bands (ev):

   -73.5730 -73.5639 -73.3586 -73.3471 -73.1586 -73.1494 -73.0540 -73.0426
   -43.8701 -43.8578 -43.5917 -43.5902 -43.5514 -43.4335 -43.4161 -43.4105
   -43.4013 -43.3915 -43.3889 -43.3527 -43.3435 -43.3255 -43.2957 -43.2204
   -43.2085 -43.1887 -43.1663 -43.0512 -42.9866 -42.8730 -42.8536 -42.8186
   -20.7508 -20.4014 -20.2327 -20.0944 -20.0590 -20.0010 -19.8571 -19.8542
   -19.8282 -19.8045 -19.7441 -19.4101 -19.2522 -19.2406 -19.1874 -19.1610
   -19.0468 -18.8726  -9.9798  -9.8381  -9.5475  -9.4200  -9.3955  -9.2467
    -9.1363  -8.9280  -7.8141  -7.7306  -7.5251  -7.4777  -7.4175  -7.3595
    -7.3205  -7.1889  -7.1701  -7.1096  -7.0388  -7.0100  -6.9238  -6.7623
    -6.6391  -6.1832  -6.1589  -6.1124  -6.0671  -5.9203  -5.9101  -5.9037
    -5.5550  -5.5200  -5.5099  -5.4642  -5.3584  -5.2822  -5.0986  -5.0551
    -4.8492  -4.7593  -4.6756  -4.6464  -4.4698  -4.4502  -4.2231  -4.1316
    -4.0965  -4.0418  -3.9735  -3.8760  -3.7599  -3.6906  -3.5333  -3.4636
    -3.4460  -3.4236  -3.2526  -3.2260  -3.1342  -3.0832  -2.9740  -2.9269
    -2.8329  -2.7795  -2.4441  -2.3809  -2.2948  -1.9697  -1.5958  -1.4676
    -1.3587  -1.1903  -1.1272  -0.6073  -0.4650  -0.3014  -0.2305  -0.1482
     1.1515   1.4099   1.4674   1.7221   1.8657   2.6835   2.8125   3.2898
     3.6038   3.6783   3.7247   3.8190   3.8241   4.1152   4.2136   4.2886
     4.4060   4.5447   4.6796   4.8722   5.0441   5.1406   5.4602   5.6091
     5.9986   6.1613   6.6857   6.9233   7.0225   7.0349   7.2690   7.4599
     7.6370   7.6773   7.6875   7.9555   8.1227   8.1974   8.4936   8.5850
     8.6400   8.6795   8.8203   8.8422   8.8986   9.0109   9.1233   9.1439
     9.1918   9.3072   9.4443   9.5773   9.5828   9.5953   9.6383   9.7633
     9.9691  10.0017  10.0269  10.0858  10.1677  10.2147  10.3494  10.6039
    10.7475  10.8683  10.9387  11.1016  11.1823  11.3614  11.4134  11.4708
    11.6156  11.6402  11.6864  11.7460  11.8244  11.8756  11.9458  12.0957
    12.2469  12.2554  12.3330  12.3626  12.5449  12.6423  12.6804  12.7810
    12.8110  12.8261  13.0035  13.0462  13.1752  13.1883  13.2150  13.4753
    13.5070  13.5331  13.6508  13.6609  13.7058  13.8721  13.8934  13.9342
    14.0183  14.1748  14.3010  14.3283  14.4016  14.5468  14.6151  14.6251
    14.7982  14.8652  14.9663  15.1994  15.3083  15.3393  15.3581  15.4117
    15.4717  15.5393  15.6288  15.6683  15.7671  15.7907  15.8896  15.9810
    16.0020  16.0778  16.0928  16.1397  16.1533  16.1879  16.3237  16.3311
    16.4004  16.4377  16.4421  16.4608  16.5077  16.6509  16.6783  16.7950
    16.8703  16.9036  16.9105  16.9300  16.9489  17.2593  17.3436  17.3456
    17.3823  17.4514  17.4821  17.5229  17.5677  17.8043  17.9309  17.9492
    18.0303  18.0313  18.1156  18.1545  18.2456  18.3667  18.3741  18.4188
    18.4549  18.4899  18.5333  18.6333  18.6595  18.7031  18.8382  18.8863
    18.9654  19.0620  19.1321  19.1671  19.2976  19.3275  19.4620  19.4713
    19.7121  19.7808  19.9602  19.9648  20.1259  20.2013  20.2177  20.2496
    20.2871  20.3525  20.3732  20.4259  20.4357  20.4600  20.4992  20.5262
    20.5412  20.5771  20.6584  20.6857  20.7402  20.7626  20.7848  20.7946
    20.9225  21.0276  21.0300  21.0668  21.0979  21.1215  21.1924  21.2195
    21.3620  21.4072  21.5196  21.5559

          k = 0.2500 0.0000 0.0000 ( 30394 PWs)   bands (ev):

   -73.5704 -73.5631 -73.3566 -73.3478 -73.1569 -73.1496 -73.0513 -73.0424
   -43.8684 -43.8598 -43.5938 -43.5900 -43.5264 -43.4305 -43.4187 -43.4170
   -43.3872 -43.3842 -43.3824 -43.3678 -43.3575 -43.3221 -43.3002 -43.2478
   -43.2044 -43.1888 -43.1493 -43.0294 -43.0171 -42.9023 -42.8458 -42.8250
   -20.7479 -20.3038 -20.2801 -20.1994 -20.1424 -20.0091 -19.8646 -19.8599
   -19.7627 -19.6539 -19.6004 -19.4456 -19.3646 -19.3224 -19.1570 -19.0287
   -18.9653 -18.9510 -10.0513  -9.7327  -9.4625  -9.1724  -9.0742  -8.8009
    -8.7498  -8.5560  -8.2885  -8.2012  -8.0685  -7.8977  -7.8393  -7.7196
    -7.6485  -7.6392  -7.4818  -7.2801  -7.1638  -7.0350  -6.9768  -6.8747
    -6.5200  -6.4578  -6.1775  -6.1728  -6.1184  -5.9940  -5.8742  -5.6762
    -5.5098  -5.4125  -5.3289  -5.2246  -5.1749  -4.9815  -4.9665  -4.9027
    -4.8595  -4.7873  -4.6373  -4.5212  -4.4402  -4.4180  -4.3417  -4.1589
    -4.1399  -3.9287  -3.8385  -3.8226  -3.7893  -3.6683  -3.4997  -3.4649
    -3.4437  -3.2736  -3.2227  -3.2129  -2.9948  -2.9430  -2.8072  -2.6554
    -2.5661  -2.4075  -2.3335  -2.2116  -1.9232  -1.7598  -1.5483  -1.4934
    -1.4164  -1.3369  -1.1583  -0.9563  -0.7106  -0.5037  -0.3999   0.1456
     1.1433   1.1439   1.9971   2.1793   2.6681   2.7072   2.7877   2.8960
     3.0542   3.0893   3.2219   3.5394   3.7016   3.7388   3.7640   3.8922
     3.9415   4.2857   4.4788   4.8848   5.3388   5.5853   5.8920   6.1015
     6.3090   6.4870   6.6105   6.6986   7.1994   7.4114   7.4407   7.5588
     7.5830   7.6986   7.9490   8.0109   8.0792   8.1422   8.4301   8.4952
     8.5383   8.6812   8.7227   8.8471   9.0856   9.1076   9.2238   9.2621
     9.3023   9.4216   9.5435   9.5814   9.6860   9.7536   9.8243   9.8601
    10.0256  10.0270  10.0815  10.1812  10.1865  10.2955  10.4186  10.4424
    10.4806  10.6934  10.8112  10.9123  11.0796  11.1463  11.2399  11.3108
    11.3670  11.4037  11.5246  11.5654  11.6341  11.7489  11.8203  11.9431
    11.9638  12.1371  12.2300  12.2867  12.3304  12.5142  12.5485  12.7031
    12.7121  12.7913  12.9080  12.9897  13.1215  13.1475  13.1837  13.3538
    13.4702  13.4805  13.5638  13.7424  13.7424  13.7559  13.8582  13.9669
    14.0483  14.0859  14.1634  14.1663  14.2882  14.3842  14.4405  14.4540
    14.5224  14.5804  14.6186  14.7998  14.8245  14.9866  15.0300  15.1562
    15.1863  15.2770  15.4351  15.5648  15.6168  15.6862  15.7758  15.8518
    15.8619  15.9618  16.0078  16.0098  16.0925  16.1337  16.2594  16.2956
    16.3311  16.3706  16.5185  16.5914  16.6832  16.8174  16.9154  16.9901
    17.0000  17.0807  17.2478  17.3354  17.3623  17.4341  17.5229  17.6148
    17.6193  17.7112  17.7635  17.7904  17.9803  18.0657  18.2349  18.2872
    18.3087  18.3881  18.5206  18.5642  18.7014  18.7666  18.8515  18.9322
    18.9608  19.0742  19.1412  19.2505  19.2593  19.3231  19.3276  19.4136
    19.4401  19.4406  19.5126  19.5244  19.5677  19.6182  19.6702  19.7222
    19.7818  19.8407  19.9388  19.9745  20.0179  20.0349  20.1054  20.2039
    20.2670  20.3115  20.3304  20.4575  20.5210  20.6391  20.6846  20.7067
    20.7869  20.7942  20.8199  20.8451  20.8479  20.8614  20.9617  21.0344
    21.0825  21.1303  21.1994  21.2413  21.2547  21.4005  21.4044  21.5694
    21.6133  21.6420  21.6452  21.7193

          k = 0.2500 0.2435 0.0000 ( 30434 PWs)   bands (ev):

   -73.5704 -73.5635 -73.3563 -73.3478 -73.1564 -73.1495 -73.0512 -73.0428
   -43.8685 -43.8598 -43.5916 -43.5886 -43.5261 -43.4310 -43.4188 -43.4162
   -43.3941 -43.3882 -43.3861 -43.3677 -43.3465 -43.3222 -43.3002 -43.2485
   -43.2047 -43.1886 -43.1479 -43.0288 -43.0171 -42.9023 -42.8471 -42.8244
   -20.6971 -20.2908 -20.1960 -20.1811 -20.1340 -19.9805 -19.8707 -19.8397
   -19.7702 -19.6867 -19.6719 -19.3872 -19.3431 -19.3093 -19.1637 -19.1551
   -19.1177 -18.9505  -9.8455  -9.4792  -9.3644  -9.3313  -9.1627  -8.9340
    -8.8225  -8.7480  -8.0845  -7.9818  -7.9597  -7.8156  -7.6316  -7.6217
    -7.5323  -7.5279  -7.4832  -7.1882  -7.1757  -6.9219  -6.8581  -6.6112
    -6.4717  -6.3762  -6.2770  -6.1649  -6.1573  -6.0377  -5.9537  -5.8270
    -5.7781  -5.6931  -5.5798  -5.4206  -5.3257  -5.2212  -5.1838  -5.1510
    -5.0234  -4.9595  -4.8615  -4.6221  -4.5197  -4.3848  -4.3805  -4.2098
    -4.2039  -4.0208  -3.8790  -3.8108  -3.7111  -3.6050  -3.3874  -3.3230
    -3.1804  -3.1412  -3.1067  -2.9482  -2.9148  -2.8088  -2.7329  -2.5731
    -2.5011  -2.4493  -2.3588  -2.3265  -2.0847  -1.9388  -1.8384  -1.5279
    -1.3331  -1.0487  -0.9015  -0.7831  -0.6512  -0.5750  -0.5369  -0.0453
     1.2078   1.3298   1.9275   2.0232   2.2219   2.4453   2.7653   3.0237
     3.2405   3.4130   3.4529   3.6248   3.7254   3.8310   3.9590   3.9613
     4.0719   4.3961   4.6337   5.0686   5.5245   5.7551   5.7835   6.0559
     6.0938   6.3591   6.5140   6.5170   6.7303   6.8726   6.9151   7.2037
     7.4370   7.5101   7.7715   7.8620   7.9393   8.1988   8.2190   8.3131
     8.4618   8.5473   8.7340   8.7600   8.8169   9.0369   9.1857   9.2353
     9.3074   9.4625   9.5215   9.7660   9.7746   9.9670   9.9883  10.0649
    10.0690  10.2941  10.3380  10.4559  10.4675  10.5745  10.6005  10.8014
    10.8749  10.8854  11.0375  11.1748  11.3143  11.3505  11.4343  11.5385
    11.5796  11.6741  11.7079  11.8124  11.8931  11.9731  12.0106  12.0520
    12.1459  12.2796  12.3952  12.4651  12.5515  12.5984  12.6803  12.7146
    12.7533  12.8881  12.9084  13.0111  13.0634  13.1194  13.1944  13.3668
    13.4427  13.4556  13.6319  13.6701  13.7628  13.8076  13.8894  14.0265
    14.0656  14.1594  14.2426  14.3516  14.3995  14.4224  14.5700  14.5841
    14.6313  14.7958  14.8444  14.9278  14.9561  15.0502  15.1257  15.1871
    15.2970  15.4074  15.4632  15.5445  15.6585  15.6944  15.7669  15.8215
    15.8474  15.9188  15.9447  15.9690  16.0582  16.1068  16.1876  16.2017
    16.3455  16.4317  16.4426  16.5814  16.5950  16.7241  16.7509  16.8547
    16.8870  16.9217  17.0183  17.0840  17.1372  17.2340  17.2824  17.4150
    17.4297  17.4914  17.4967  17.5927  17.6174  17.6628  17.7667  17.8456
    17.8868  17.9230  17.9899  18.0187  18.0641  18.1311  18.1815  18.3268
    18.3538  18.4434  18.5870  18.6313  18.6711  18.7637  18.8001  18.8764
    18.9388  19.0297  19.1770  19.1775  19.2447  19.2629  19.3671  19.4055
    19.5079  19.6111  19.7057  19.7819  19.8645  19.9073  19.9543  20.0028
    20.0974  20.1988  20.2240  20.3298  20.4611  20.5507  20.7062  20.7399
    20.7788  20.8710  20.9153  20.9196  21.0569  21.0976  21.1350  21.1667
    21.2921  21.2925  21.3164  21.3407  21.3768  21.5203  21.5236  21.6262
    21.7111  21.7276  21.7845  21.9006

          k = 0.2500-0.4870 0.0000 ( 30468 PWs)   bands (ev):

   -73.5704 -73.5639 -73.3559 -73.3477 -73.1560 -73.1495 -73.0512 -73.0431
   -43.8685 -43.8598 -43.5887 -43.5884 -43.5258 -43.4313 -43.4188 -43.4156
   -43.3947 -43.3905 -43.3894 -43.3673 -43.3449 -43.3222 -43.3002 -43.2480
   -43.2047 -43.1884 -43.1464 -43.0282 -43.0170 -42.9022 -42.8485 -42.8237
   -20.6443 -20.2824 -20.1927 -20.1235 -20.0441 -19.9353 -19.8774 -19.7983
   -19.7770 -19.7489 -19.6904 -19.3788 -19.3377 -19.3028 -19.3002 -19.2896
   -19.1532 -18.9530  -9.6914  -9.5658  -9.2796  -9.1697  -9.1316  -8.9851
    -8.9040  -8.7714  -7.9561  -7.8683  -7.7103  -7.6801  -7.4498  -7.3333
    -7.2839  -7.2409  -7.1988  -7.1552  -7.1478  -7.1076  -6.8848  -6.8787
    -6.6538  -6.6242  -6.3704  -6.1979  -6.1908  -6.1596  -6.1213  -6.0012
    -5.9691  -5.7992  -5.7498  -5.4949  -5.4367  -5.3673  -5.3125  -5.1874
    -5.1713  -5.1028  -4.9378  -4.7415  -4.7217  -4.4971  -4.1519  -4.0806
    -4.0131  -4.0091  -3.9450  -3.7302  -3.6603  -3.4892  -3.4695  -3.3365
    -3.1793  -3.1502  -3.0128  -2.9694  -2.9638  -2.8963  -2.7291  -2.7285
    -2.5939  -2.5784  -2.3332  -2.1851  -1.9881  -1.5889  -1.4935  -1.3978
    -1.2660  -1.2522  -1.1553  -0.6785  -0.6227  -0.5390  -0.3583  -0.3051
     1.2634   1.5004   1.5805   1.8253   2.0866   2.7511   2.7794   3.0080
     3.1709   3.2372   3.6003   3.6425   3.6595   3.9856   4.0896   4.3135
     4.5456   4.7426   4.9329   5.1308   5.2859   5.4027   5.7086   5.8789
     6.0757   6.2530   6.3350   6.4498   6.6617   6.9507   6.9896   7.1692
     7.2200   7.2873   7.3633   7.5362   7.6006   7.7570   8.0353   8.2275
     8.3509   8.4152   8.4922   8.5637   8.8822   8.9240   9.0335   9.0919
     9.2325   9.3934   9.4599   9.8582   9.8585   9.9619  10.0886  10.2703
    10.2882  10.3924  10.3945  10.6530  10.7331  10.9703  11.0538  11.2729
    11.3636  11.3877  11.4444  11.4468  11.5373  11.6312  11.7211  11.7637
    11.9005  11.9314  11.9916  12.0738  12.1117  12.1607  12.1902  12.3229
    12.4551  12.4701  12.5355  12.5599  12.6614  12.7921  12.8251  12.9709
    12.9890  13.0131  13.0472  13.0841  13.2559  13.3333  13.3493  13.4788
    13.5752  13.5866  13.6949  13.7032  13.7764  13.8399  13.9316  13.9633
    14.0569  14.1141  14.2022  14.3288  14.3943  14.4488  14.4820  14.5196
    14.5989  14.6656  14.7163  14.8037  14.8045  14.9248  14.9582  15.0293
    15.0888  15.1922  15.2157  15.2626  15.3139  15.3580  15.4519  15.5214
    15.6919  15.7486  15.8828  15.8940  16.0306  16.1760  16.1839  16.2677
    16.2987  16.4019  16.4293  16.4950  16.4981  16.5259  16.6110  16.6697
    16.6952  16.7769  16.8374  16.9318  16.9827  17.0433  17.0826  17.2277
    17.2502  17.3600  17.3703  17.4515  17.5000  17.5397  17.5918  17.6517
    17.7533  17.8510  17.8580  17.9145  18.1591  18.2170  18.3206  18.3266
    18.3419  18.3789  18.3909  18.4719  18.5409  18.6435  18.7310  18.7735
    18.8263  18.8470  18.8692  18.9085  18.9558  19.0042  19.1690  19.2539
    19.3173  19.3934  19.4154  19.4572  19.6707  19.7091  19.7390  19.8046
    19.8713  19.8724  19.9553  20.0171  20.0680  20.1193  20.1701  20.3256
    20.3298  20.4116  20.5515  20.6887  20.7182  20.7716  20.8106  20.9611
    20.9996  21.0746  21.1100  21.1528  21.1609  21.2106  21.3080  21.4911
    21.5514  21.6681  21.6702  21.8103

          k =-0.5000 0.0000 0.0000 ( 30480 PWs)   bands (ev):

   -73.5654 -73.5654 -73.3512 -73.3512 -73.1520 -73.1519 -73.0457 -73.0457
   -43.8643 -43.8643 -43.5898 -43.5898 -43.4632 -43.4631 -43.4248 -43.4248
   -43.3890 -43.3890 -43.3834 -43.3833 -43.3137 -43.3137 -43.3059 -43.3058
   -43.1960 -43.1959 -43.0868 -43.0868 -42.9689 -42.9689 -42.8355 -42.8355
   -20.4479 -20.4479 -20.1251 -20.1251 -20.0485 -20.0485 -19.9099 -19.9098
   -19.7768 -19.7768 -19.5143 -19.5143 -19.2408 -19.2407 -19.1497 -19.1496
   -19.1304 -19.1304  -9.2042  -9.2042  -8.9156  -8.9156  -8.8681  -8.8681
    -8.6144  -8.6144  -8.4905  -8.4905  -8.2197  -8.2197  -8.1026  -8.1026
    -7.9064  -7.9064  -7.5373  -7.5372  -6.8968  -6.8968  -6.7367  -6.7367
    -6.5110  -6.5110  -6.3092  -6.3092  -6.0806  -6.0805  -5.8902  -5.8902
    -5.7722  -5.7722  -5.5013  -5.5013  -5.2859  -5.2858  -5.1674  -5.1674
    -5.0943  -5.0942  -4.6972  -4.6972  -4.5221  -4.5221  -4.1898  -4.1897
    -3.9651  -3.9651  -3.6563  -3.6563  -3.5217  -3.5217  -3.2954  -3.2954
    -3.1783  -3.1782  -3.1225  -3.1225  -3.0491  -3.0491  -2.6467  -2.6467
    -2.0951  -2.0951  -1.9269  -1.9267  -1.7600  -1.7599  -1.6519  -1.6519
    -1.3505  -1.3505  -1.1774  -1.1773  -0.6780  -0.6778  -0.2401  -0.2401
     1.2583   1.2584   2.3444   2.3444   2.6665   2.6665   2.8481   2.8481
     3.1305   3.1305   3.1555   3.1555   3.4047   3.4048   3.8288   3.8289
     4.5416   4.5416   4.8318   4.8318   5.1428   5.1428   5.5671   5.5671
     6.0956   6.0956   6.7341   6.7341   7.1528   7.1528   7.4072   7.4073
     8.0147   8.0148   8.0948   8.0949   8.2276   8.2277   8.3722   8.3722
     8.6725   8.6725   8.7133   8.7133   8.8471   8.8471   9.1367   9.1368
     9.2628   9.2628   9.4637   9.4638   9.6122   9.6123   9.9540   9.9541
    10.0469  10.0470  10.1697  10.1698  10.3920  10.3921  10.6530  10.6531
    10.7103  10.7103  10.8761  10.8761  11.0709  11.0710  11.2588  11.2588
    11.5814  11.5814  11.7029  11.7029  11.9678  11.9679  12.2515  12.2515
    12.3668  12.3668  12.5059  12.5060  12.6209  12.6209  12.7408  12.7408
    12.8192  12.8192  12.9308  12.9308  13.1140  13.1140  13.2970  13.2970
    13.5104  13.5104  13.6856  13.6856  13.8540  13.8541  14.0184  14.0184
    14.3572  14.3572  14.4239  14.4239  14.6371  14.6372  14.6576  14.6576
    14.6829  14.6829  14.9090  14.9091  14.9388  14.9388  15.2043  15.2043
    15.3404  15.3405  15.4131  15.4131  15.6987  15.6988  15.9565  15.9565
    16.1363  16.1363  16.3228  16.3228  16.3663  16.3663  16.4271  16.4272
    16.5202  16.5202  16.6275  16.6275  16.6800  16.6800  16.7269  16.7269
    16.8607  16.8607  16.9401  16.9402  16.9976  16.9976  17.1354  17.1354
    17.2466  17.2466  17.4166  17.4166  17.6734  17.6734  17.8192  17.8192
    17.9572  17.9573  18.0541  18.0542  18.2650  18.2650  18.5113  18.5114
    18.5819  18.5819  18.7654  18.7655  18.9498  18.9499  18.9863  18.9864
    19.2997  19.2998  19.3994  19.3995  19.4381  19.4382  19.4864  19.4864
    19.6327  19.6327  19.6828  19.6828  19.7532  19.7532  19.8500  19.8501
    19.9660  19.9660  20.0840  20.0840  20.2273  20.2273  20.3330  20.3330
    20.4060  20.4060  20.4876  20.4876  20.6274  20.6274  20.7475  20.7475
    20.8103  20.8104  21.1622  21.1622  21.2400  21.2400  21.3810  21.3810
    21.4684  21.4684  21.5661  21.5661

          k =-0.5000 0.2435 0.0000 ( 30444 PWs)   bands (ev):

   -73.5656 -73.5656 -73.3510 -73.3510 -73.1517 -73.1517 -73.0459 -73.0459
   -43.8643 -43.8643 -43.5888 -43.5872 -43.4630 -43.4629 -43.4250 -43.4249
   -43.3897 -43.3891 -43.3885 -43.3830 -43.3141 -43.3129 -43.3066 -43.3031
   -43.1960 -43.1959 -43.0862 -43.0862 -42.9686 -42.9686 -42.8358 -42.8358
   -20.4192 -20.4186 -20.1111 -20.1100 -20.0371 -20.0369 -19.8320 -19.8303
   -19.7384 -19.7320 -19.5213 -19.5196 -19.3463 -19.3394 -19.2618 -19.2617
   -19.1293 -19.1291  -9.1646  -9.1609  -8.8360  -8.8128  -8.7027  -8.6900
    -8.6059  -8.5989  -8.3953  -8.3911  -8.2000  -8.1776  -8.0569  -8.0492
    -7.9214  -7.8874  -7.4081  -7.3117  -6.8739  -6.8562  -6.7210  -6.7165
    -6.5336  -6.5267  -6.4765  -6.4181  -6.1985  -6.1812  -6.0082  -5.9930
    -5.8774  -5.8748  -5.6132  -5.5978  -5.4428  -5.3644  -5.2401  -5.1896
    -5.1059  -5.1018  -4.9933  -4.9320  -4.5600  -4.5346  -4.4417  -4.4239
    -4.1377  -4.0714  -3.7318  -3.7068  -3.5221  -3.4803  -3.4162  -3.3572
    -3.1107  -3.0927  -2.8654  -2.8496  -2.5768  -2.5320  -2.5175  -2.5109
    -2.2409  -2.2347  -2.1247  -2.1215  -1.6414  -1.6310  -1.5901  -1.5725
    -1.3474  -1.3318  -1.0386  -0.9146  -0.8070  -0.7923  -0.3939  -0.3231
     1.3594   1.3598   2.3763   2.4343   2.5319   2.5461   2.5785   2.6163
     2.8890   2.8913   3.2128   3.2561   3.6767   3.6878   3.9947   4.0170
     4.7389   4.7465   4.9968   4.9974   5.3462   5.3471   5.7599   5.7624
     6.1970   6.2236   6.4556   6.4661   6.7660   6.7738   7.0898   7.0949
     7.2221   7.2377   7.5101   7.5238   7.6422   7.6529   8.1129   8.1405
     8.4367   8.4436   8.5648   8.6026   8.9390   8.9519   9.1459   9.1665
     9.2953   9.3908   9.8325   9.8368  10.0842  10.1004  10.2805  10.2873
    10.4190  10.4239  10.5473  10.5612  10.7332  10.7550  10.8934  10.9146
    11.2130  11.2139  11.2480  11.2633  11.3516  11.3634  11.5627  11.5700
    11.8390  11.8409  12.1302  12.1457  12.2506  12.2803  12.4334  12.4545
    12.5040  12.5326  12.6371  12.6400  12.6549  12.6703  12.8948  12.9074
    13.0039  13.0271  13.1119  13.1462  13.3112  13.3402  13.3692  13.3914
    13.5465  13.5943  13.7129  13.7406  13.9624  14.0038  14.0476  14.0651
    14.1647  14.1867  14.3229  14.3335  14.5822  14.5826  14.6026  14.6695
    14.7218  14.7497  14.8310  14.8524  14.9895  15.0085  15.0884  15.1122
    15.1592  15.1688  15.2277  15.2495  15.3533  15.3705  15.5830  15.5984
    15.7399  15.7442  15.7856  15.8117  15.8697  15.8705  15.9858  15.9958
    16.1432  16.1450  16.3168  16.3252  16.3981  16.3982  16.5577  16.5929
    16.6177  16.7045  16.7163  16.7623  16.7813  16.7835  17.0543  17.0626
    17.1840  17.1923  17.2823  17.2842  17.4975  17.4993  17.5466  17.6500
    17.7826  17.7841  17.9104  17.9307  18.0610  18.0728  18.1887  18.2295
    18.3756  18.3791  18.4288  18.4340  18.5142  18.5209  18.7612  18.7924
    18.8310  18.8499  18.9644  18.9793  19.0635  19.0747  19.1194  19.1339
    19.3909  19.4091  19.5167  19.5263  19.6933  19.7206  19.7564  19.7573
    19.8650  19.8774  20.0588  20.0786  20.1520  20.1636  20.3265  20.3289
    20.4824  20.4841  20.7117  20.7283  20.7824  20.7865  20.9281  20.9639
    21.0871  21.0874  21.1772  21.2449  21.3603  21.3983  21.5929  21.5950
    21.6752  21.6940  21.9064  21.9101

          k =-0.5000-0.4870 0.0000 ( 30440 PWs)   bands (ev):

   -73.5658 -73.5658 -73.3508 -73.3508 -73.1515 -73.1515 -73.0460 -73.0460
   -43.8644 -43.8644 -43.5862 -43.5862 -43.4628 -43.4627 -43.4251 -43.4251
   -43.3895 -43.3895 -43.3886 -43.3886 -43.3132 -43.3131 -43.3040 -43.3040
   -43.1960 -43.1959 -43.0856 -43.0856 -42.9683 -42.9683 -42.8361 -42.8361
   -20.3890 -20.3889 -20.1017 -20.1017 -20.0254 -20.0254 -19.6765 -19.6765
   -19.6034 -19.6034 -19.5686 -19.5686 -19.5359 -19.5359 -19.3990 -19.3990
   -19.1306 -19.1306  -9.1619  -9.1619  -8.8026  -8.8025  -8.6563  -8.6562
    -8.6271  -8.6271  -8.2751  -8.2750  -7.9568  -7.9568  -7.5204  -7.5204
    -7.3845  -7.3845  -7.2911  -7.2911  -7.2642  -7.2641  -7.1597  -7.1596
    -6.7625  -6.7625  -6.5215  -6.5215  -6.3947  -6.3946  -6.2471  -6.2471
    -5.8344  -5.8344  -5.6280  -5.6280  -5.4638  -5.4637  -5.3621  -5.3621
    -5.2222  -5.2222  -4.8939  -4.8939  -4.4605  -4.4605  -4.4332  -4.4331
    -4.1643  -4.1642  -3.9746  -3.9746  -3.5267  -3.5267  -3.1426  -3.1426
    -2.9902  -2.9902  -2.8529  -2.8529  -2.7549  -2.7548  -2.4080  -2.4079
    -2.2257  -2.2257  -2.0537  -2.0537  -1.5523  -1.5522  -1.4004  -1.4003
    -1.2595  -1.2595  -0.9563  -0.9561  -0.7012  -0.7012  -0.5681  -0.5681
     1.4472   1.4473   2.1545   2.1545   2.3262   2.3263   2.6079   2.6080
     2.8575   2.8575   3.3564   3.3564   3.8113   3.8113   4.1335   4.1335
     5.1562   5.1562   5.3430   5.3431   5.6158   5.6158   5.8354   5.8354
     5.9930   5.9931   6.1248   6.1248   6.4060   6.4060   6.6098   6.6099
     6.9525   6.9525   7.2125   7.2126   7.6536   7.6537   7.9840   7.9840
     8.1295   8.1296   8.3630   8.3631   8.8758   8.8760   9.1185   9.1186
     9.2248   9.2248   9.6211   9.6212   9.9213   9.9213  10.4500  10.4500
    10.6709  10.6709  10.9506  10.9507  11.0047  11.0047  11.4100  11.4101
    11.8266  11.8267  12.0245  12.0245  12.2050  12.2050  12.2611  12.2611
    12.3623  12.3624  12.5564  12.5564  12.6520  12.6521  12.7866  12.7866
    12.9850  12.9850  13.1880  13.1880  13.2194  13.2195  13.2776  13.2776
    13.3258  13.3259  13.4423  13.4424  13.4904  13.4904  13.5683  13.5683
    13.6303  13.6303  13.6584  13.6584  13.7227  13.7227  13.7847  13.7847
    13.8300  13.8300  14.0897  14.0897  14.1338  14.1338  14.1821  14.1822
    14.3295  14.3295  14.4056  14.4056  14.5475  14.5475  14.5928  14.5928
    14.7965  14.7966  14.8633  14.8634  15.0909  15.0909  15.2062  15.2063
    15.3326  15.3326  15.4343  15.4343  15.4769  15.4769  15.5890  15.5890
    15.7870  15.7870  15.9787  15.9788  16.0650  16.0650  16.2405  16.2405
    16.3782  16.3783  16.5308  16.5309  16.8115  16.8115  16.8818  16.8818
    17.0439  17.0441  17.1948  17.1948  17.3202  17.3202  17.3712  17.3712
    17.4928  17.4928  17.6520  17.6520  17.7090  17.7090  17.8808  17.8808
    18.3229  18.3229  18.5441  18.5441  18.5841  18.5841  18.6790  18.6790
    18.8451  18.8451  18.9673  18.9674  19.0465  19.0465  19.4134  19.4134
    19.5270  19.5271  19.6260  19.6260  19.7588  19.7589  20.0400  20.0401
    20.3431  20.3432  20.4949  20.4949  20.7945  20.7945  20.8544  20.8544
    20.9209  20.9210  21.0182  21.0182  21.1057  21.1057  21.1498  21.1498
    21.2146  21.2146  21.2957  21.2958  21.4266  21.4266  21.4936  21.4937
    21.5249  21.5249  21.7198  21.7199

          k =-0.2500 0.2435 0.0000 ( 30434 PWs)   bands (ev):

   -73.5704 -73.5635 -73.3563 -73.3478 -73.1564 -73.1496 -73.0512 -73.0428
   -43.8685 -43.8598 -43.5907 -43.5901 -43.5261 -43.4309 -43.4187 -43.4164
   -43.3885 -43.3884 -43.3840 -43.3675 -43.3549 -43.3221 -43.3002 -43.2472
   -43.2045 -43.1887 -43.1478 -43.0288 -43.0170 -42.9022 -42.8472 -42.8244
   -20.6971 -20.2906 -20.1959 -20.1794 -20.1329 -19.9802 -19.8707 -19.8397
   -19.7702 -19.6972 -19.6711 -19.3818 -19.3408 -19.3080 -19.1659 -19.1551
   -19.1179 -18.9507  -9.8431  -9.4822  -9.3723  -9.3286  -9.1608  -8.9200
    -8.8259  -8.7545  -8.1173  -7.9886  -7.9791  -7.7398  -7.6558  -7.6340
    -7.5686  -7.5389  -7.3974  -7.2084  -7.1669  -6.9149  -6.8535  -6.6032
    -6.4669  -6.3690  -6.2904  -6.1819  -6.1755  -5.9771  -5.9154  -5.8706
    -5.7893  -5.7063  -5.5719  -5.4171  -5.3549  -5.2465  -5.1718  -5.1375
    -5.0344  -5.0079  -4.8578  -4.6342  -4.4904  -4.3822  -4.3535  -4.2038
    -4.1906  -3.9789  -3.9496  -3.8786  -3.6498  -3.5650  -3.4292  -3.2243
    -3.1943  -3.1397  -3.1361  -2.9494  -2.8812  -2.8098  -2.8089  -2.5747
    -2.5005  -2.4582  -2.3961  -2.3570  -1.9915  -1.9324  -1.7977  -1.5458
    -1.3215  -1.1220  -0.8694  -0.8303  -0.6644  -0.6082  -0.4285  -0.0657
     1.2075   1.3296   1.9436   2.0005   2.2277   2.4606   2.7648   3.0220
     3.2422   3.3692   3.4991   3.6231   3.7379   3.8038   3.9458   3.9708
     4.0689   4.3998   4.6327   5.0705   5.5336   5.7694   5.7928   6.0560
     6.0903   6.3593   6.5097   6.5168   6.7317   6.8564   6.9154   7.1494
     7.4505   7.5154   7.7707   7.8773   7.9254   8.2073   8.2226   8.3411
     8.4720   8.5439   8.7216   8.7257   8.8439   9.0428   9.1603   9.2339
     9.3064   9.4779   9.5245   9.7733   9.7825   9.9754   9.9780  10.0587
    10.0693  10.2823  10.3400  10.4222  10.4575  10.6026  10.6276  10.7892
    10.8341  10.8852  11.0546  11.1523  11.3195  11.3561  11.4721  11.5378
    11.5820  11.6539  11.7034  11.8157  11.8874  11.9959  12.0106  12.0709
    12.1536  12.3147  12.3978  12.4500  12.5378  12.6066  12.6965  12.7135
    12.8033  12.8971  12.9015  12.9855  13.0562  13.1362  13.2255  13.3774
    13.4300  13.4582  13.6189  13.7156  13.7370  13.7823  13.9018  14.0003
    14.0184  14.1440  14.2448  14.3454  14.3608  14.4243  14.5863  14.5864
    14.6294  14.7754  14.8521  14.9351  14.9783  15.0653  15.0993  15.1917
    15.2773  15.4049  15.4689  15.5301  15.6674  15.7371  15.7808  15.8176
    15.8310  15.9289  15.9373  15.9808  16.0349  16.0927  16.1459  16.1970
    16.2896  16.4079  16.4474  16.5536  16.5950  16.7433  16.7484  16.8430
    16.8599  16.8960  17.0270  17.0370  17.1437  17.2448  17.3387  17.4194
    17.4306  17.4951  17.5247  17.5861  17.6497  17.6591  17.7328  17.8441
    17.9012  17.9057  17.9810  18.0050  18.0640  18.1454  18.1762  18.3455
    18.3539  18.4656  18.5668  18.6456  18.6708  18.7693  18.8055  18.9014
    18.9780  19.0503  19.1289  19.1983  19.2756  19.2808  19.3973  19.4309
    19.4934  19.6475  19.6969  19.7751  19.8664  19.8680  19.9390  20.0168
    20.1012  20.2265  20.2468  20.4273  20.4500  20.5921  20.6599  20.7445
    20.8011  20.8572  20.9100  20.9422  21.0079  21.1092  21.1110  21.1370
    21.2597  21.2633  21.3286  21.3731  21.3901  21.4934  21.5228  21.6098
    21.6885  21.7159  21.8211  21.8864

     the Fermi energy is    -1.4357 ev

!    total energy              =   -2127.20686477 Ry
     Harris-Foulkes estimate   =   -2127.20686173 Ry
     estimated scf accuracy    <       0.00000093 Ry

     The total energy is the sum of the following terms:

     one-electron contribution =  -24456.53338000 Ry
     hartree contribution      =   12252.72291675 Ry
     xc contribution           =    -330.96651862 Ry
     ewald contribution        =   10403.72718313 Ry
     Hubbard energy            =       3.84230463 Ry
     smearing contrib. (-TS)   =       0.00062934 Ry

     convergence has been achieved in  37 iterations

     Forces acting on atoms (Ry/au):


     negative rho (up, down):  0.566E+00 0.000E+00
     atom    1 type  1   force =    -0.00857015   -0.00873710    0.01982378
     atom    2 type  1   force =     0.00001837    0.01308875    0.00226816
     atom    3 type  2   force =    -0.00029495    0.00285166   -0.02956583
     atom    4 type  2   force =     0.00503606    0.00616734    0.00354894
     atom    5 type  1   force =    -0.00560765   -0.04745021    0.00042103
     atom    6 type  1   force =     0.00827760    0.04646564    0.00005661
     atom    7 type  1   force =    -0.00011505   -0.00233904    0.03335051
     atom    8 type  1   force =    -0.00035921   -0.00040847   -0.02769401
     atom    9 type  2   force =     0.00104207   -0.00033187    0.01061220
     atom   10 type  2   force =     0.00030802   -0.00205831    0.00580756
     atom   11 type  1   force =    -0.00179917    0.03419016   -0.00868837
     atom   12 type  1   force =     0.00153186   -0.03377913   -0.00916141
     atom   13 type  1   force =    -0.00198257    0.00041922    0.00034467
     atom   14 type  1   force =    -0.00857070   -0.00873761    0.01982371
     atom   15 type  1   force =     0.00002067    0.01308874    0.00226838
     atom   16 type  2   force =    -0.00029435    0.00283274   -0.02956438
     atom   17 type  2   force =     0.00503951    0.00616732    0.00354815
     atom   18 type  1   force =    -0.00560758   -0.04744592    0.00042322
     atom   19 type  1   force =     0.00827817    0.04646343    0.00005674
     atom   20 type  1   force =    -0.00012460   -0.00233894    0.03335162
     atom   21 type  1   force =    -0.00036439   -0.00040909   -0.02769405
     atom   22 type  2   force =     0.00104137   -0.00032206    0.01057384
     atom   23 type  2   force =     0.00029253   -0.00205856    0.00580630
     atom   24 type  1   force =    -0.00179865    0.03418205   -0.00868595
     atom   25 type  1   force =     0.00153297   -0.03380120   -0.00910406
     atom   26 type  1   force =    -0.00197928    0.00041842    0.00034963
     atom   27 type  3   force =    -0.00010629   -0.00830339   -0.00080347
     atom   28 type  3   force =    -0.00010759   -0.00830340   -0.00080351
     atom   29 type  3   force =     0.00263165    0.00024419   -0.00033507
     atom   30 type  3   force =     0.00263133    0.00024465   -0.00033492

     Total force =     0.084213     Total SCF correction =     0.000694


     entering subroutine stress ...


     negative rho (up, down):  0.566E+00 0.000E+00
          total   stress  (Ry/bohr**3)                   (kbar)     P=   -7.06
  -0.00001067   0.00001127   0.00000273         -1.57      1.66      0.40
   0.00001127  -0.00006883   0.00000314          1.66    -10.13      0.46
   0.00000273   0.00000314  -0.00006448          0.40      0.46     -9.49


     BFGS Geometry Optimization

     number of scf cycles    =   1
     number of bfgs steps    =   0

     energy   new            =   -2127.2068647650 Ry

     new trust radius        =       0.0333516162 bohr
     new conv_thr            =       0.0000010000 Ry


ATOMIC_POSITIONS (crystal)
O0       0.000000000   0.000000000   0.380387264    0   0   1
O0       0.000000000   0.500000000   0.402315453    0   0   1
Ru1      0.250000000   0.500000000   0.452537508    0   0   1
Ru1      0.000000000   0.000000000   0.454141120    0   0   1
O0       0.250000000   0.810000000   0.453618437    0   0   1
O0       0.250000000   0.190000000   0.453551134    0   0   1
O0       0.000000000   0.500000000   0.499428336    0   0   1
O0       0.000000000   0.000000000   0.527475019    0   0   1
Ru1      0.250000000   0.000000000   0.578862666    0   0   1
Ru1      0.000000000   0.500000000   0.569926382    0   0   1
O0       0.250000000   0.690000000   0.576115887    0   0   1
O0       0.250000000   0.310000000   0.576456408    0   0   1
O0       0.000000000   0.000000000   0.620036907    0   0   1
O0       0.500000000   0.000000000   0.380387262    0   0   1
O0       0.500000000   0.500000000   0.402315458    0   0   1
Ru1      0.750000000   0.500000000   0.452537537    0   0   1
Ru1      0.500000000   0.000000000   0.454141104    0   0   1
O0       0.750000000   0.810000000   0.453618481    0   0   1
O0       0.750000000   0.190000000   0.453551137    0   0   1
O0       0.500000000   0.500000000   0.499428358    0   0   1
O0       0.500000000   0.000000000   0.527475018    0   0   1
Ru1      0.750000000   0.000000000   0.578861897    0   0   1
Ru1      0.500000000   0.500000000   0.569926357    0   0   1
O0       0.750000000   0.690000000   0.576115936    0   0   1
O0       0.750000000   0.310000000   0.576447557    0   0   1
O0       0.500000000   0.000000000   0.620037007    0   0   1
H2      -0.000419014   0.629184127   0.381903899
H2       0.499580876   0.629184127   0.381903898
H2       0.146693175   0.028920171   0.367683285
H2       0.646693147   0.028920209   0.367683288


     Check: negative starting charge=   -0.522083
     NEW-OLD atomic charge density approx. for the potential

     Check: negative/imaginary core charge=   -0.000003    0.000000
     Check: negative starting charge=   -0.522860

     negative rho (up, down):  0.566E+00 0.000E+00
 Atomic wfc used for LDA+U Projector are NOT orthogonalized

     total cpu time spent up to now is     7221.6 secs

     per-process dynamical memory:   407.2 Mb

     Self-consistent Calculation

     iteration #  1     ecut=    40.00 Ry     beta=0.10
     Davidson diagonalization with overlap
     ethr =  1.00E-06,  avg # of iterations =  5.5
 --- enter write_ns ---
 LDA+U parameters:
U( 2)     =  8.00000000
alpha( 2) =  0.00000000
atom    3   Tr[ns(na)] =   7.29583
    eigenvalues: 
  0.496  0.544  0.684  0.939  0.986
    eigenvectors:
  0.000  0.170  0.006  0.000  0.824
  1.000  0.000  0.000  0.000  0.000
  0.000  0.006  0.980  0.000  0.014
  0.000  0.825  0.014  0.000  0.162
  0.000  0.000  0.000  1.000  0.000
    occupations:
  0.909 -0.000  0.037 -0.163 -0.000
 -0.000  0.496  0.000 -0.000 -0.006
  0.037  0.000  0.687 -0.005  0.001
 -0.163 -0.000 -0.005  0.617 -0.000
 -0.000 -0.006  0.001 -0.000  0.939
atom    4   Tr[ns(na)] =   7.27447
    eigenvalues: 
  0.545  0.602  0.614  0.888  0.988
    eigenvectors:
  0.005  0.977  0.001  0.000  0.018
  0.000  0.000  0.029  0.971  0.000
  0.000  0.001  0.971  0.029  0.000
  0.000  0.018  0.000  0.000  0.982
  0.995  0.005  0.000  0.000  0.000
    occupations:
  0.609 -0.002  0.000  0.051  0.004
 -0.002  0.880  0.046 -0.000 -0.002
  0.000  0.046  0.622  0.002  0.001
  0.051 -0.000  0.002  0.981  0.000
  0.004 -0.002  0.001  0.000  0.546
atom    9   Tr[ns(na)] =   7.34708
    eigenvalues: 
  0.547  0.574  0.780  0.875  0.898
    eigenvectors:
  0.000  0.135  0.005  0.533  0.327
  1.000  0.000  0.000  0.000  0.000
  0.000  0.000  0.993  0.006  0.001
  0.000  0.865  0.002  0.080  0.053
  0.000  0.000  0.000  0.381  0.618
    occupations:
  0.841  0.001 -0.009 -0.105  0.010
  0.001  0.547  0.003  0.000  0.001
 -0.009  0.003  0.781  0.001  0.001
 -0.105  0.000  0.001  0.616 -0.006
  0.010  0.001  0.001 -0.006  0.889
atom   10   Tr[ns(na)] =   7.29808
    eigenvalues: 
  0.469  0.512  0.803  0.887  0.978
    eigenvectors:
  0.985  0.000  0.000  0.000  0.015
  0.000  0.000  0.000  1.000  0.000
  0.000  0.000  1.000  0.000  0.000
  0.015  0.000  0.000  0.000  0.985
  0.000  1.000  0.000  0.000  0.000
    occupations:
  0.477  0.000  0.003  0.062  0.000
  0.000  0.887 -0.001  0.000 -0.002
  0.003 -0.001  0.803 -0.003 -0.000
  0.062  0.000 -0.003  0.970 -0.000
  0.000 -0.002 -0.000 -0.000  0.512
atom   16   Tr[ns(na)] =   7.29585
    eigenvalues: 
  0.496  0.544  0.684  0.939  0.986
    eigenvectors:
  0.000  0.170  0.006  0.000  0.824
  1.000  0.000  0.000  0.000  0.000
  0.000  0.006  0.980  0.000  0.014
  0.000  0.825  0.014  0.000  0.162
  0.000  0.000  0.000  1.000  0.000
    occupations:
  0.909 -0.000  0.037 -0.163 -0.000
 -0.000  0.496  0.000 -0.000 -0.006
  0.037  0.000  0.687 -0.005  0.001
 -0.163 -0.000 -0.005  0.617 -0.000
 -0.000 -0.006  0.001 -0.000  0.939
atom   17   Tr[ns(na)] =   7.27447
    eigenvalues: 
  0.545  0.602  0.614  0.888  0.988
    eigenvectors:
  0.005  0.977  0.001  0.000  0.018
  0.000  0.000  0.029  0.971  0.000
  0.000  0.001  0.971  0.029  0.000
  0.000  0.018  0.000  0.000  0.982
  0.995  0.005  0.000  0.000  0.000
    occupations:
  0.609 -0.002  0.000  0.051  0.004
 -0.002  0.880  0.046 -0.000 -0.002
  0.000  0.046  0.622  0.002  0.001
  0.051 -0.000  0.002  0.981  0.000
  0.004 -0.002  0.001  0.000  0.546
[...]
     Davidson diagonalization with overlap
     ethr =  1.90E-09,  avg # of iterations =  3.0

     negative rho (up, down):  0.566E+00 0.000E+00

     total cpu time spent up to now is    90920.5 secs

     total energy              =   -2127.21640417 Ry
     Harris-Foulkes estimate   =   -2127.21665610 Ry
     estimated scf accuracy    <       0.00022816 Ry

     iteration # 63     ecut=    40.00 Ry     beta=0.10
     Davidson diagonalization with overlap
     ethr =  1.90E-09,  avg # of iterations =  4.0

     negative rho (up, down):  0.566E+00 0.000E+00

     total cpu time spent up to now is    91126.3 secs

     total energy              =   -2127.21668818 Ry
     Harris-Foulkes estimate   =   -2127.21675392 Ry
     estimated scf accuracy    <       0.00041958 Ry

     iteration # 64     ecut=    40.00 Ry     beta=0.10
     Davidson diagonalization with overlap
     ethr =  1.90E-09,  avg # of iterations =  3.0

     negative rho (up, down):  0.566E+00 0.000E+00

     total cpu time spent up to now is    91312.0 secs

     total energy              =   -2127.21615943 Ry
     Harris-Foulkes estimate   =   -2127.21671972 Ry
     estimated scf accuracy    <       0.00031803 Ry

     iteration # 65     ecut=    40.00 Ry     beta=0.10
     Davidson diagonalization with overlap
     ethr =  1.90E-09,  avg # of iterations =  4.0

     negative rho (up, down):  0.566E+00 0.000E+00

     total cpu time spent up to now is    91519.1 secs

     total energy              =   -2127.21646645 Ry
     Harris-Foulkes estimate   =   -2127.21662220 Ry
     estimated scf accuracy    <       0.00013868 Ry

     iteration # 66     ecut=    40.00 Ry     beta=0.10
     Davidson diagonalization with overlap
     ethr =  1.90E-09,  avg # of iterations =  3.0

     negative rho (up, down):  0.565E+00 0.000E+00

     total cpu time spent up to now is    91709.2 secs

     total energy              =   -2127.21540040 Ry
     Harris-Foulkes estimate   =   -2127.21658672 Ry
     estimated scf accuracy    <       0.00008093 Ry

     iteration # 67     ecut=    40.00 Ry     beta=0.10
     Davidson diagonalization with overlap
     ethr =  1.90E-09,  avg # of iterations =  4.0

     negative rho (up, down):  0.565E+00 0.000E+00

     total cpu time spent up to now is    91922.6 secs

     total energy              =   -2127.21584207 Ry
     Harris-Foulkes estimate   =   -2127.21649393 Ry
     estimated scf accuracy    <       0.00011294 Ry

     iteration # 68     ecut=    40.00 Ry     beta=0.10
     Davidson diagonalization with overlap
     ethr =  1.90E-09,  avg # of iterations =  4.0

     negative rho (up, down):  0.566E+00 0.000E+00

     total cpu time spent up to now is    92137.3 secs

     total energy              =   -2127.21589382 Ry
     Harris-Foulkes estimate   =   -2127.21657092 Ry
     estimated scf accuracy    <       0.00006647 Ry

     iteration # 69     ecut=    40.00 Ry     beta=0.10
     Davidson diagonalization with overlap
     ethr =  1.90E-09,  avg # of iterations =  4.0

     negative rho (up, down):  0.566E+00 0.000E+00

     total cpu time spent up to now is    92354.0 secs

     total energy              =   -2127.21654037 Ry
     Harris-Foulkes estimate   =   -2127.21666763 Ry
     estimated scf accuracy    <       0.00023163 Ry

     iteration # 70     ecut=    40.00 Ry     beta=0.10
     Davidson diagonalization with overlap
     ethr =  1.90E-09,  avg # of iterations =  3.0

     negative rho (up, down):  0.566E+00 0.000E+00

     total cpu time spent up to now is    92554.6 secs

     total energy              =   -2127.21674977 Ry
     Harris-Foulkes estimate   =   -2127.21674413 Ry
     estimated scf accuracy    <       0.00041698 Ry

     iteration # 71     ecut=    40.00 Ry     beta=0.10
     Davidson diagonalization with overlap
     ethr =  1.90E-09,  avg # of iterations =  3.0

     negative rho (up, down):  0.566E+00 0.000E+00

     total cpu time spent up to now is    92743.2 secs

     total energy              =   -2127.21671952 Ry
     Harris-Foulkes estimate   =   -2127.21677765 Ry
     estimated scf accuracy    <       0.00049565 Ry

     iteration # 72     ecut=    40.00 Ry     beta=0.10
     Davidson diagonalization with overlap
     ethr =  1.90E-09,  avg # of iterations =  3.0

     negative rho (up, down):  0.566E+00 0.000E+00

     total cpu time spent up to now is    92930.9 secs

     total energy              =   -2127.21662148 Ry
     Harris-Foulkes estimate   =   -2127.21674570 Ry
     estimated scf accuracy    <       0.00042712 Ry

     iteration # 73     ecut=    40.00 Ry     beta=0.10
     Davidson diagonalization with overlap
     ethr =  1.90E-09,  avg # of iterations =  3.0

     negative rho (up, down):  0.566E+00 0.000E+00

     total cpu time spent up to now is    93123.9 secs

     total energy              =   -2127.21664658 Ry
     Harris-Foulkes estimate   =   -2127.21669683 Ry
     estimated scf accuracy    <       0.00032419 Ry

     iteration # 74     ecut=    40.00 Ry     beta=0.10
     Davidson diagonalization with overlap
     ethr =  1.90E-09,  avg # of iterations =  3.0

     negative rho (up, down):  0.566E+00 0.000E+00

     total cpu time spent up to now is    93319.2 secs

     total energy              =   -2127.21675743 Ry
     Harris-Foulkes estimate   =   -2127.21675653 Ry
     estimated scf accuracy    <       0.00043191 Ry

     iteration # 75     ecut=    40.00 Ry     beta=0.10
     Davidson diagonalization with overlap
     ethr =  1.90E-09,  avg # of iterations =  3.0

     negative rho (up, down):  0.566E+00 0.000E+00

     total cpu time spent up to now is    93511.1 secs

     total energy              =   -2127.21680929 Ry
     Harris-Foulkes estimate   =   -2127.21679836 Ry
     estimated scf accuracy    <       0.00053938 Ry

     iteration # 76     ecut=    40.00 Ry     beta=0.10
     Davidson diagonalization with overlap
     ethr =  1.90E-09,  avg # of iterations =  2.0

     negative rho (up, down):  0.565E+00 0.000E+00

     total cpu time spent up to now is    93681.2 secs

     total energy              =   -2127.21174277 Ry
     Harris-Foulkes estimate   =   -2127.21681551 Ry
     estimated scf accuracy    <       0.00057954 Ry

     iteration # 77     ecut=    40.00 Ry     beta=0.10
     Davidson diagonalization with overlap
     ethr =  1.90E-09,  avg # of iterations =  4.2

     negative rho (up, down):  0.565E+00 0.000E+00

     total cpu time spent up to now is    93897.0 secs

     total energy              =   -2127.21649097 Ry
     Harris-Foulkes estimate   =   -2127.21652864 Ry
     estimated scf accuracy    <       0.00006207 Ry

     iteration # 78     ecut=    40.00 Ry     beta=0.10
     Davidson diagonalization with overlap
     ethr =  1.90E-09,  avg # of iterations =  3.0

     negative rho (up, down):  0.565E+00 0.000E+00

     total cpu time spent up to now is    94075.3 secs

     total energy              =   -2127.21654972 Ry
     Harris-Foulkes estimate   =   -2127.21654889 Ry
     estimated scf accuracy    <       0.00005562 Ry

     iteration # 79     ecut=    40.00 Ry     beta=0.10
     Davidson diagonalization with overlap
     ethr =  1.90E-09,  avg # of iterations =  2.0

     negative rho (up, down):  0.565E+00 0.000E+00

     total cpu time spent up to now is    94239.1 secs

     total energy              =   -2127.21650512 Ry
     Harris-Foulkes estimate   =   -2127.21655391 Ry
     estimated scf accuracy    <       0.00005833 Ry

     iteration # 80     ecut=    40.00 Ry     beta=0.10
     Davidson diagonalization with overlap
     ethr =  1.90E-09,  avg # of iterations =  3.0

     negative rho (up, down):  0.565E+00 0.000E+00

     total cpu time spent up to now is    94418.0 secs

     total energy              =   -2127.21591312 Ry
     Harris-Foulkes estimate   =   -2127.21657576 Ry
     estimated scf accuracy    <       0.00006630 Ry

     iteration # 81     ecut=    40.00 Ry     beta=0.10
     Davidson diagonalization with overlap
     ethr =  1.90E-09,  avg # of iterations =  4.0

     negative rho (up, down):  0.565E+00 0.000E+00

     total cpu time spent up to now is    94617.4 secs

     total energy              =   -2127.21546089 Ry
     Harris-Foulkes estimate   =   -2127.21651001 Ry
     estimated scf accuracy    <       0.00008552 Ry

     iteration # 82     ecut=    40.00 Ry     beta=0.10
     Davidson diagonalization with overlap
     ethr =  1.90E-09,  avg # of iterations =  4.0

     negative rho (up, down):  0.566E+00 0.000E+00

     total cpu time spent up to now is    94818.8 secs

     total energy              =   -2127.21332723 Ry
     Harris-Foulkes estimate   =   -2127.21635227 Ry
     estimated scf accuracy    <       0.00059346 Ry

     iteration # 83     ecut=    40.00 Ry     beta=0.10
     Davidson diagonalization with overlap
     ethr =  1.90E-09,  avg # of iterations =  4.1

     negative rho (up, down):  0.566E+00 0.000E+00

     total cpu time spent up to now is    95032.5 secs

     total energy              =   -2127.21658288 Ry
     Harris-Foulkes estimate   =   -2127.21658684 Ry
     estimated scf accuracy    <       0.00008702 Ry

     iteration # 84     ecut=    40.00 Ry     beta=0.10
     Davidson diagonalization with overlap
     ethr =  1.90E-09,  avg # of iterations =  2.7

     negative rho (up, down):  0.566E+00 0.000E+00

     total cpu time spent up to now is    95202.8 secs

     total energy              =   -2127.21658631 Ry
     Harris-Foulkes estimate   =   -2127.21659897 Ry
     estimated scf accuracy    <       0.00010697 Ry

     iteration # 85     ecut=    40.00 Ry     beta=0.10
     Davidson diagonalization with overlap
     ethr =  1.90E-09,  avg # of iterations =  3.0

     negative rho (up, down):  0.566E+00 0.000E+00

     total cpu time spent up to now is    95385.5 secs

     total energy              =   -2127.21659500 Ry
     Harris-Foulkes estimate   =   -2127.21661691 Ry
     estimated scf accuracy    <       0.00013237 Ry

     iteration # 86     ecut=    40.00 Ry     beta=0.10
     Davidson diagonalization with overlap
     ethr =  1.90E-09,  avg # of iterations =  2.0

     negative rho (up, down):  0.566E+00 0.000E+00

     total cpu time spent up to now is    95561.0 secs

     total energy              =   -2127.21656431 Ry
     Harris-Foulkes estimate   =   -2127.21660589 Ry
     estimated scf accuracy    <       0.00011481 Ry

     iteration # 87     ecut=    40.00 Ry     beta=0.10
     Davidson diagonalization with overlap
     ethr =  1.90E-09,  avg # of iterations =  3.0

     negative rho (up, down):  0.566E+00 0.000E+00

     total cpu time spent up to now is    95749.6 secs

     total energy              =   -2127.21657896 Ry
     Harris-Foulkes estimate   =   -2127.21659015 Ry
     estimated scf accuracy    <       0.00009009 Ry

     iteration # 88     ecut=    40.00 Ry     beta=0.10
     Davidson diagonalization with overlap
     ethr =  1.90E-09,  avg # of iterations =  2.0

     negative rho (up, down):  0.566E+00 0.000E+00

     total cpu time spent up to now is    95922.1 secs

     total energy              =   -2127.21657988 Ry
     Harris-Foulkes estimate   =   -2127.21658383 Ry
     estimated scf accuracy    <       0.00008145 Ry

     iteration # 89     ecut=    40.00 Ry     beta=0.10
     Davidson diagonalization with overlap
     ethr =  1.90E-09,  avg # of iterations =  2.0

     negative rho (up, down):  0.566E+00 0.000E+00

     total cpu time spent up to now is    96089.2 secs

     total energy              =   -2127.21647052 Ry
     Harris-Foulkes estimate   =   -2127.21659555 Ry
     estimated scf accuracy    <       0.00009955 Ry

     iteration # 90     ecut=    40.00 Ry     beta=0.10
     Davidson diagonalization with overlap
     ethr =  1.90E-09,  avg # of iterations =  3.0

     negative rho (up, down):  0.566E+00 0.000E+00

     total cpu time spent up to now is    96275.9 secs

     total energy              =   -2127.21659985 Ry
     Harris-Foulkes estimate   =   -2127.21664101 Ry
     estimated scf accuracy    <       0.00017376 Ry

     iteration # 91     ecut=    40.00 Ry     beta=0.10
     Davidson diagonalization with overlap
     ethr =  1.90E-09,  avg # of iterations =  3.0

     negative rho (up, down):  0.565E+00 0.000E+00

     total cpu time spent up to now is    96452.6 secs

     total energy              =   -2127.21342461 Ry
     Harris-Foulkes estimate   =   -2127.21662270 Ry
     estimated scf accuracy    <       0.00013753 Ry

     iteration # 92     ecut=    40.00 Ry     beta=0.10
     Davidson diagonalization with overlap
     ethr =  1.90E-09,  avg # of iterations =  4.2

     negative rho (up, down):  0.566E+00 0.000E+00

     total cpu time spent up to now is    96683.4 secs

     total energy              =   -2127.20820036 Ry
     Harris-Foulkes estimate   =   -2127.21644978 Ry
     estimated scf accuracy    <       0.00023745 Ry

     iteration # 93     ecut=    40.00 Ry     beta=0.10
     Davidson diagonalization with overlap
     ethr =  1.90E-09,  avg # of iterations =  4.6

     negative rho (up, down):  0.566E+00 0.000E+00

     total cpu time spent up to now is    96913.5 secs

     total energy              =   -2127.21655005 Ry
     Harris-Foulkes estimate   =   -2127.21684066 Ry
     estimated scf accuracy    <       0.00064296 Ry

     iteration # 94     ecut=    40.00 Ry     beta=0.10
     Davidson diagonalization with overlap
     ethr =  1.90E-09,  avg # of iterations =  3.0

     negative rho (up, down):  0.566E+00 0.000E+00

     total cpu time spent up to now is    97108.6 secs

     total energy              =   -2127.21665897 Ry
     Harris-Foulkes estimate   =   -2127.21674491 Ry
     estimated scf accuracy    <       0.00040992 Ry

     iteration # 95     ecut=    40.00 Ry     beta=0.10
     Davidson diagonalization with overlap
     ethr =  1.90E-09,  avg # of iterations =  3.0

     negative rho (up, down):  0.566E+00 0.000E+00

     total cpu time spent up to now is    97295.2 secs

     total energy              =   -2127.21671078 Ry
     Harris-Foulkes estimate   =   -2127.21670561 Ry
     estimated scf accuracy    <       0.00031769 Ry

     iteration # 96     ecut=    40.00 Ry     beta=0.10
     Davidson diagonalization with overlap
     ethr =  1.90E-09,  avg # of iterations =  2.0

     negative rho (up, down):  0.566E+00 0.000E+00

     total cpu time spent up to now is    97467.1 secs

     total energy              =   -2127.21670857 Ry
     Harris-Foulkes estimate   =   -2127.21671231 Ry
     estimated scf accuracy    <       0.00033214 Ry

     iteration # 97     ecut=    40.00 Ry     beta=0.10
     Davidson diagonalization with overlap
     ethr =  1.90E-09,  avg # of iterations =  1.0

     negative rho (up, down):  0.566E+00 0.000E+00

     total cpu time spent up to now is    97634.5 secs

     total energy              =   -2127.21650207 Ry
     Harris-Foulkes estimate   =   -2127.21670894 Ry
     estimated scf accuracy    <       0.00032577 Ry

     iteration # 98     ecut=    40.00 Ry     beta=0.10
     Davidson diagonalization with overlap
     ethr =  1.90E-09,  avg # of iterations =  3.0

     negative rho (up, down):  0.566E+00 0.000E+00

     total cpu time spent up to now is    97826.0 secs

     total energy              =   -2127.21665250 Ry
     Harris-Foulkes estimate   =   -2127.21665042 Ry
     estimated scf accuracy    <       0.00019406 Ry

     iteration # 99     ecut=    40.00 Ry     beta=0.10
     Davidson diagonalization with overlap
     ethr =  1.90E-09,  avg # of iterations =  1.0

     negative rho (up, down):  0.566E+00 0.000E+00

     total cpu time spent up to now is    97993.5 secs

     total energy              =   -2127.21664325 Ry
     Harris-Foulkes estimate   =   -2127.21665282 Ry
     estimated scf accuracy    <       0.00020029 Ry

     iteration #100     ecut=    40.00 Ry     beta=0.10
     Davidson diagonalization with overlap
     ethr =  1.90E-09,  avg # of iterations =  3.0

     negative rho (up, down):  0.565E+00 0.000E+00

     total cpu time spent up to now is    98179.6 secs

     total energy              =   -2127.20604457 Ry
     Harris-Foulkes estimate   =   -2127.21668156 Ry
     estimated scf accuracy    <       0.00026983 Ry

     End of self-consistent calculation

     convergence NOT achieved after 100 iterations: stopping

     init_run     :     99.65s CPU    101.03s WALL (       1 calls)
     electrons    :  81486.58s CPU  83671.27s WALL (      19 calls)
     update_pot   :    359.97s CPU    370.27s WALL (      18 calls)
     forces       :   2165.76s CPU   2204.32s WALL (      18 calls)
     stress       :  10699.08s CPU  10963.36s WALL (      18 calls)

     Called by init_run:
     wfcinit      :     34.49s CPU     35.13s WALL (       1 calls)
     potinit      :      7.41s CPU      7.61s WALL (       1 calls)

     Called by electrons:
     c_bands      :  43587.73s CPU  44772.68s WALL (     484 calls)
     sum_band     :  16175.82s CPU  16587.83s WALL (     484 calls)
     v_of_rho     :    529.84s CPU    556.34s WALL (     498 calls)
     newd         :  21562.39s CPU  21684.56s WALL (     498 calls)
     mix_rho      :    101.83s CPU    104.46s WALL (     484 calls)

     Called by c_bands:
     init_us_2    :    130.24s CPU    131.34s WALL (    3612 calls)
     cegterg      :  42986.45s CPU  43991.00s WALL (    1452 calls)

     Called by *egterg:
     h_psi        :  25144.36s CPU  25704.68s WALL (    4044 calls)
     s_psi        :   2836.11s CPU   2869.06s WALL (    4641 calls)
     g_psi        :     55.00s CPU     55.05s WALL (    2589 calls)
     cdiaghg      :   3776.44s CPU   3787.10s WALL (    3972 calls)

     Called by h_psi:
     add_vuspsi   :   2403.78s CPU   2437.14s WALL (    4044 calls)
     vhpsi        :   2659.77s CPU   2684.06s WALL (    4044 calls)

     General routines
     calbec       :   6507.43s CPU   6575.23s WALL (   27303 calls)
     fft          :    690.09s CPU    821.66s WALL (    8382 calls)
     ffts         :      8.64s CPU      8.98s WALL (     982 calls)
     fftw         :  13997.82s CPU  14604.67s WALL ( 2624244 calls)
     interpolate  :     81.96s CPU     83.40s WALL (     982 calls)
     davcio       :      0.28s CPU     61.84s WALL (    4104 calls)

     Parallel routines
     fft_scatter  :   5222.35s CPU   5928.85s WALL ( 2633608 calls)
     Hubbard U routines
     new_ns       :    583.22s CPU    623.14s WALL (     484 calls)
     vhpsi        :   2659.77s CPU   2684.06s WALL (    4044 calls)
     force_hub    :    602.39s CPU    615.81s WALL (      18 calls)
     stres_hub    :   5662.55s CPU   5743.30s WALL (      18 calls)

     PWSCF        :     1d    2h34m CPU        1d    3h16m WALL


   This run was terminated on:   9:18:19  22May2014            

=------------------------------------------------------------------------------=
   JOB DONE.
=------------------------------------------------------------------------------=
STOP 1
STOP 1
STOP 1
STOP 1
STOP 1
STOP 1
STOP 1
STOP 1
STOP 1
STOP 1
STOP 1
STOP 1
STOP 1
STOP 1
STOP 1
STOP 1
--------------------------------------------------------------------------
mpirun noticed that the job aborted, but has no info as to the process
that caused that situation.
--------------------------------------------------------------------------
---------------------------------------
Running PBS batch system epilogue script
Job id: 363698.audhumbla.fysik.dtu.dk
Username: zhonxu
Groupname: campgst
Jobname: RuO2/Eads-2-layers/bare-U-8.0
Sessionid: 17903
Resources limits: neednodes=2:ppn=8:xeon8,nodes=2:ppn=8:xeon8,walltime=48:00:00
Resources used: cput=435:58:44,mem=17114156kb,vmem=20708732kb,walltime=27:16:39
Queuename: verylong
Accounting:
This job has allocated the following 16 nodes:
c140 c140 c140 c140 c140 c140 c140 c140 c138 c138 c138 c138 c138 c138 c138 c138
Finished epilogue job 363698.audhumbla.fysik.dtu.dk for zhonxu
