ScientificPython/2.8-dl160g6-numpy-1.7.1-1(15):ERROR:151: Module 'ScientificPython/2.8-dl160g6-numpy-1.7.1-1' depends on one of the module(s) 'numpy/1.7.1-dl160g6-gfortran-internal-1'
ScientificPython/2.8-dl160g6-numpy-1.7.1-1(15):ERROR:102: Tcl command execution failed: prereq numpy/1.7.1-dl160g6-gfortran-internal-1


     Program PWSCF v.5.0.2 (svn rev. 9656) starts on 17May2014 at  7:26:53 

     This program is part of the open-source Quantum ESPRESSO suite
     for quantum simulation of materials; please cite
         "P. Giannozzi et al., J. Phys.:Condens. Matter 21 395502 (2009);
          URL http://www.quantum-espresso.org", 
     in publications or presentations arising from this work. More details at
     http://www.quantum-espresso.org/quote.php

     Parallel version (MPI), running on    16 processors
     K-points division:     npool     =       4
     R & G space division:  proc/nbgrp/npool/nimage =       4

     Current dimensions of program PWSCF are:
     Max number of different atomic species (ntypx) = 10
     Max number of k-points (npk) =  40000
     Max angular momentum in pseudopotentials (lmaxx) =  3
     Reading input from pwscf.in
Warning: card &CELL ignored
Warning: card / ignored

     Subspace diagonalization in iterative solution of the eigenvalue problem:
     a serial algorithm will be used


     Parallelization info
     --------------------
     sticks:   dense  smooth     PW     G-vecs:    dense   smooth      PW
     Min        1419     456    126               336167    60843    9016
     Max        1420     457    127               336172    60875    9024
     Sum        5677    1827    505              1344679   243423   36075



     bravais-lattice index     =            0
     lattice parameter (alat)  =      11.7919  a.u.
     unit-cell volume          =    7123.6633 (a.u.)^3
     number of atoms/cell      =           30
     number of atomic types    =            3
     number of electrons       =       240.00
     number of Kohn-Sham states=          348
     kinetic-energy cutoff     =      40.0000  Ry
     charge density cutoff     =     500.0000  Ry
     convergence threshold     =      1.0E-06
     mixing beta               =       0.3000
     number of iterations used =            8  plain     mixing
     Exchange-correlation      = SLA  PW   PBE  PBE ( 1 4 3 4 0)
     EXX-fraction              =        0.00
     nstep                     =           50


     celldm(1)=  11.791891  celldm(2)=   0.000000  celldm(3)=   0.000000
     celldm(4)=   0.000000  celldm(5)=   0.000000  celldm(6)=   0.000000

     crystal axes: (cart. coord. in units of alat)
               a(1) = (   1.000000   0.000000   0.000000 )  
               a(2) = (   0.000000   1.026665   0.000000 )  
               a(3) = (   0.000000   0.000000   4.231793 )  

     reciprocal axes: (cart. coord. in units 2 pi/alat)
               b(1) = (  1.000000  0.000000  0.000000 )  
               b(2) = (  0.000000  0.974028  0.000000 )  
               b(3) = (  0.000000  0.000000  0.236306 )  


     PseudoPot. # 1 for O  read from file:
     /home/camp/zhonxu/pseudo/o_pbe_v1.01.uspp.F.UPF
     MD5 check sum: 2bcb18d16ea4b960afae9ec6d52f22d2
     Pseudo is Ultrasoft + core correction, Zval =  6.0
     Generated by new atomic code, or converted to UPF format
     Using radial grid of  737 points,  5 beta functions with: 
                l(1) =   0
                l(2) =   0
                l(3) =   1
                l(4) =   1
                l(5) =   2
     Q(r) pseudized with  8 coefficients,  rinner =    0.900   0.900   0.900
                                                       0.900   0.900

     PseudoPot. # 2 for Ru read from file:
     /home/camp/zhonxu/pseudo/ru_pbe_v1.uspp.F.UPF
     MD5 check sum: df00be1c11b23341d9806d8f1dfa10cf
     Pseudo is Ultrasoft + core correction, Zval = 16.0
     Generated by new atomic code, or converted to UPF format
     Using radial grid of  967 points,  6 beta functions with: 
                l(1) =   0
                l(2) =   0
                l(3) =   1
                l(4) =   1
                l(5) =   2
                l(6) =   2
     Q(r) pseudized with  8 coefficients,  rinner =    1.300   1.300   1.300
                                                       1.300   1.300

     PseudoPot. # 3 for H  read from file:
     /home/camp/zhonxu/pseudo/h_pbe_v1.uspp.F.UPF
     MD5 check sum: 3408e3ff4ec8b0a4e358431e7e038a48
     Pseudo is Ultrasoft, Zval =  1.0
     Generated by new atomic code, or converted to UPF format
     Using radial grid of  615 points,  2 beta functions with: 
                l(1) =   0
                l(2) =   0
     Q(r) pseudized with  8 coefficients,  rinner =    0.700

     atomic species   valence    mass     pseudopotential
        O0             6.00    15.99940     O ( 1.00)
        Ru1           16.00   101.07000     Ru( 1.00)
        H2             1.00     1.00794     H ( 1.00)


     Simplified LDA+U calculation (l_max = 2) with parameters (eV):
     atomic species    L          U    alpha       J0     beta
        Ru1            2     8.0000   0.0000   0.0000   0.0000



     No symmetry found



   Cartesian axes

     site n.     atom                  positions (alat units)
         1           O0  tau(   1) = (   0.0000000   0.0000000   1.6080390  )
         2           O0  tau(   2) = (   0.0000000   0.5133323   1.7023233  )
         3           Ru1 tau(   3) = (   0.2500000   0.5133323   1.9175523  )
         4           Ru1 tau(   4) = (   0.0000000   0.0000000   1.9215302  )
         5           O0  tau(   5) = (   0.2500000   0.8315984   1.9195836  )
         6           O0  tau(   6) = (   0.2500000   0.1950663   1.9193297  )
         7           O0  tau(   7) = (   0.0000000   0.5133323   2.1106490  )
         8           O0  tau(   8) = (   0.0000000   0.0000000   2.2345136  )
         9           Ru1 tau(   9) = (   0.2500000   0.0000000   2.4487269  )
        10           Ru1 tau(  10) = (   0.0000000   0.5133323   2.4113179  )
        11           O0  tau(  11) = (   0.2500000   0.7083986   2.4387399  )
        12           O0  tau(  12) = (   0.2500000   0.3182660   2.4402210  )
        13           O0  tau(  13) = (   0.0000000   0.0000000   2.6238385  )
        14           O0  tau(  14) = (   0.5000000   0.0000000   1.6080390  )
        15           O0  tau(  15) = (   0.5000000   0.5133323   1.7023233  )
        16           Ru1 tau(  16) = (   0.7500000   0.5133323   1.9175523  )
        17           Ru1 tau(  17) = (   0.5000000   0.0000000   1.9215302  )
        18           O0  tau(  18) = (   0.7500000   0.8315984   1.9195836  )
        19           O0  tau(  19) = (   0.7500000   0.1950663   1.9193297  )
        20           O0  tau(  20) = (   0.5000000   0.5133323   2.1106490  )
        21           O0  tau(  21) = (   0.5000000   0.0000000   2.2345136  )
        22           Ru1 tau(  22) = (   0.7500000   0.0000000   2.4487269  )
        23           Ru1 tau(  23) = (   0.5000000   0.5133323   2.4113179  )
        24           O0  tau(  24) = (   0.7500000   0.7083986   2.4387399  )
        25           O0  tau(  25) = (   0.7500000   0.3182660   2.4401787  )
        26           O0  tau(  26) = (   0.5000000   0.0000000   2.6238385  )
        27           H2  tau(  27) = (  -0.0004100   0.6466653   1.6162063  )
        28           H2  tau(  28) = (   0.4995900   0.6466653   1.6162063  )
        29           H2  tau(  29) = (   0.1464700   0.0296706   1.5559879  )
        30           H2  tau(  30) = (   0.6464700   0.0296706   1.5559879  )

     number of k points=    10  Methfessel-Paxton smearing, width (Ry)=  0.0100
                       cart. coord. in units 2pi/alat
        k(    1) = (   0.0000000   0.0000000   0.0000000), wk =   0.1250000
        k(    2) = (   0.0000000   0.2435070   0.0000000), wk =   0.2500000
        k(    3) = (   0.0000000  -0.4870139   0.0000000), wk =   0.1250000
        k(    4) = (   0.2500000   0.0000000   0.0000000), wk =   0.2500000
        k(    5) = (   0.2500000   0.2435070   0.0000000), wk =   0.2500000
        k(    6) = (   0.2500000  -0.4870139   0.0000000), wk =   0.2500000
        k(    7) = (  -0.5000000   0.0000000   0.0000000), wk =   0.1250000
        k(    8) = (  -0.5000000   0.2435070   0.0000000), wk =   0.2500000
        k(    9) = (  -0.5000000  -0.4870139   0.0000000), wk =   0.1250000
        k(   10) = (  -0.2500000   0.2435070   0.0000000), wk =   0.2500000

     Dense  grid:  1344679 G-vectors     FFT dimensions: (  90,  90, 360)

     Smooth grid:   243423 G-vectors     FFT dimensions: (  48,  50, 216)

     Largest allocated arrays     est. size (Mb)     dimensions
        Kohn-Sham Wavefunctions        40.53 Mb     (   7632,  348)
        Atomic wavefunctions           20.96 Mb     (   7632,  180)
        NL pseudopotentials            44.95 Mb     (   7632,  386)
        Each V/rho on FFT grid         11.12 Mb     ( 729000)
        Each G-vector array             2.56 Mb     ( 336169)
        G-vector shells                 1.12 Mb     ( 146910)
     Largest temporary arrays     est. size (Mb)     dimensions
        Auxiliary wavefunctions       162.11 Mb     (   7632, 1392)
        Each subspace H/S matrix       29.57 Mb     (1392,1392)
        Each <psi_i|beta_j> matrix      2.05 Mb     (    386,  348)
        Arrays for rho mixing          88.99 Mb     ( 729000,   8)

     Check: negative/imaginary core charge=   -0.000003    0.000000

     Initial potential from superposition of free atoms
     Check: negative starting charge=   -0.522083

     starting charge  231.99981, renormalised to  240.00000

     negative rho (up, down):  0.540E+00 0.000E+00
     Number of +U iterations with fixed ns =  0
     Starting occupations:
 --- enter write_ns ---
 LDA+U parameters:
U( 2)     =  8.00000000
alpha( 2) =  0.00000000
atom    3   Tr[ns(na)] =   6.00000
    eigenvalues: 
  0.600  0.600  0.600  0.600  0.600
    eigenvectors:
  1.000  0.000  0.000  0.000  0.000
  0.000  1.000  0.000  0.000  0.000
  0.000  0.000  1.000  0.000  0.000
  0.000  0.000  0.000  1.000  0.000
  0.000  0.000  0.000  0.000  1.000
    occupations:
  0.600  0.000  0.000  0.000  0.000
  0.000  0.600  0.000  0.000  0.000
  0.000  0.000  0.600  0.000  0.000
  0.000  0.000  0.000  0.600  0.000
  0.000  0.000  0.000  0.000  0.600
atom    4   Tr[ns(na)] =   6.00000
    eigenvalues: 
  0.600  0.600  0.600  0.600  0.600
    eigenvectors:
  1.000  0.000  0.000  0.000  0.000
  0.000  1.000  0.000  0.000  0.000
  0.000  0.000  1.000  0.000  0.000
  0.000  0.000  0.000  1.000  0.000
  0.000  0.000  0.000  0.000  1.000
    occupations:
  0.600  0.000  0.000  0.000  0.000
  0.000  0.600  0.000  0.000  0.000
  0.000  0.000  0.600  0.000  0.000
  0.000  0.000  0.000  0.600  0.000
  0.000  0.000  0.000  0.000  0.600
atom    9   Tr[ns(na)] =   6.00000
    eigenvalues: 
  0.600  0.600  0.600  0.600  0.600
    eigenvectors:
  1.000  0.000  0.000  0.000  0.000
  0.000  1.000  0.000  0.000  0.000
  0.000  0.000  1.000  0.000  0.000
  0.000  0.000  0.000  1.000  0.000
  0.000  0.000  0.000  0.000  1.000
    occupations:
  0.600  0.000  0.000  0.000  0.000
  0.000  0.600  0.000  0.000  0.000
  0.000  0.000  0.600  0.000  0.000
  0.000  0.000  0.000  0.600  0.000
  0.000  0.000  0.000  0.000  0.600
atom   10   Tr[ns(na)] =   6.00000
    eigenvalues: 
  0.600  0.600  0.600  0.600  0.600
    eigenvectors:
  1.000  0.000  0.000  0.000  0.000
  0.000  1.000  0.000  0.000  0.000
  0.000  0.000  1.000  0.000  0.000
  0.000  0.000  0.000  1.000  0.000
  0.000  0.000  0.000  0.000  1.000
    occupations:
  0.600  0.000  0.000  0.000  0.000
  0.000  0.600  0.000  0.000  0.000
  0.000  0.000  0.600  0.000  0.000
  0.000  0.000  0.000  0.600  0.000
  0.000  0.000  0.000  0.000  0.600
atom   16   Tr[ns(na)] =   6.00000
    eigenvalues: 
  0.600  0.600  0.600  0.600  0.600
    eigenvectors:
  1.000  0.000  0.000  0.000  0.000
  0.000  1.000  0.000  0.000  0.000
  0.000  0.000  1.000  0.000  0.000
  0.000  0.000  0.000  1.000  0.000
  0.000  0.000  0.000  0.000  1.000
    occupations:
  0.600  0.000  0.000  0.000  0.000
  0.000  0.600  0.000  0.000  0.000
  0.000  0.000  0.600  0.000  0.000
  0.000  0.000  0.000  0.600  0.000
  0.000  0.000  0.000  0.000  0.600
atom   17   Tr[ns(na)] =   6.00000
    eigenvalues: 
  0.600  0.600  0.600  0.600  0.600
    eigenvectors:
  1.000  0.000  0.000  0.000  0.000
  0.000  1.000  0.000  0.000  0.000
  0.000  0.000  1.000  0.000  0.000
  0.000  0.000  0.000  1.000  0.000
  0.000  0.000  0.000  0.000  1.000
    occupations:
  0.600  0.000  0.000  0.000  0.000
  0.000  0.600  0.000  0.000  0.000
  0.000  0.000  0.600  0.000  0.000
  0.000  0.000  0.000  0.600  0.000
  0.000  0.000  0.000  0.000  0.600
atom   22   Tr[ns(na)] =   6.00000
    eigenvalues: 
  0.600  0.600  0.600  0.600  0.600
    eigenvectors:
  1.000  0.000  0.000  0.000  0.000
  0.000  1.000  0.000  0.000  0.000
  0.000  0.000  1.000  0.000  0.000
  0.000  0.000  0.000  1.000  0.000
  0.000  0.000  0.000  0.000  1.000
    occupations:
  0.600  0.000  0.000  0.000  0.000
  0.000  0.600  0.000  0.000  0.000
  0.000  0.000  0.600  0.000  0.000
  0.000  0.000  0.000  0.600  0.000
  0.000  0.000  0.000  0.000  0.600
atom   23   Tr[ns(na)] =   6.00000
    eigenvalues: 
  0.600  0.600  0.600  0.600  0.600
    eigenvectors:
  1.000  0.000  0.000  0.000  0.000
  0.000  1.000  0.000  0.000  0.000
  0.000  0.000  1.000  0.000  0.000
  0.000  0.000  0.000  1.000  0.000
  0.000  0.000  0.000  0.000  1.000
    occupations:
  0.600  0.000  0.000  0.000  0.000
  0.000  0.600  0.000  0.000  0.000
  0.000  0.000  0.600  0.000  0.000
  0.000  0.000  0.000  0.600  0.000
  0.000  0.000  0.000  0.000  0.600
N of occupied +U levels =  48.0000000
 --- exit write_ns ---
 Atomic wfc used for LDA+U Projector are NOT orthogonalized
     Starting wfc are  180 randomized atomic wfcs

     total cpu time spent up to now is      103.2 secs

     per-process dynamical memory:   407.0 Mb

     Self-consistent Calculation

     iteration #  1     ecut=    40.00 Ry     beta=0.30
     Davidson diagonalization with overlap
     ethr =  1.00E-02,  avg # of iterations =  5.7
 --- enter write_ns ---
 LDA+U parameters:
U( 2)     =  8.00000000
alpha( 2) =  0.00000000
atom    3   Tr[ns(na)] =   4.15145
    eigenvalues: 
  0.312  0.405  0.419  0.432  0.507
    eigenvectors:
  0.000  0.261  0.000  0.290  0.449
  0.008  0.000  0.992  0.000  0.000
  0.001  0.263  0.000  0.189  0.547
  0.000  0.476  0.000  0.521  0.003
  0.991  0.000  0.008  0.000  0.000
    occupations:
  0.459  0.000  0.044  0.007 -0.001
  0.000  0.418  0.000  0.000  0.010
  0.044  0.000  0.466 -0.012 -0.004
  0.007  0.000 -0.012  0.420  0.000
 -0.001  0.010 -0.004  0.000  0.313
atom    4   Tr[ns(na)] =   3.66155
    eigenvalues: 
  0.300  0.311  0.341  0.417  0.463
    eigenvectors:
  0.000  0.002  0.012  0.000  0.986
  0.009  0.045  0.933  0.000  0.013
  0.004  0.952  0.044  0.000  0.000
  0.987  0.002  0.010  0.000  0.001
  0.000  0.000  0.000  1.000  0.000
    occupations:
  0.461  0.014  0.004 -0.005  0.000
  0.014  0.341 -0.006 -0.005 -0.001
  0.004 -0.006  0.312  0.001  0.001
 -0.005 -0.005  0.001  0.300 -0.000
  0.000 -0.001  0.001 -0.000  0.417
atom    9   Tr[ns(na)] =   7.61437
    eigenvalues: 
  0.447  0.464  0.953  0.962  0.981
    eigenvectors:
  0.000  0.138  0.000  0.862  0.000
  1.000  0.000  0.000  0.000  0.000
  0.000  0.000  0.000  0.000  1.000
  0.000  0.862  0.000  0.138  0.000
  0.000  0.000  1.000  0.000  0.000
    occupations:
  0.893 -0.000 -0.001 -0.172  0.000
 -0.000  0.447 -0.000  0.000 -0.000
 -0.001 -0.000  0.981 -0.002 -0.000
 -0.172  0.000 -0.002  0.532  0.000
  0.000 -0.000 -0.000  0.000  0.953
atom   10   Tr[ns(na)] =   8.31811
    eigenvalues: 
  0.441  0.808  0.966  0.968  0.976
    eigenvectors:
  0.000  0.948  0.001  0.052  0.000
  0.000  0.000  0.000  0.000  1.000
  0.000  0.000  0.977  0.023  0.000
  0.000  0.052  0.023  0.925  0.000
  1.000  0.000  0.000  0.000  0.000
    occupations:
  0.816 -0.000 -0.001  0.036  0.000
 -0.000  0.976 -0.000  0.000 -0.002
 -0.001 -0.000  0.966 -0.000 -0.000
  0.036  0.000 -0.000  0.960 -0.000
  0.000 -0.002 -0.000 -0.000  0.441
atom   16   Tr[ns(na)] =   4.15135
    eigenvalues: 
  0.312  0.405  0.419  0.432  0.507
    eigenvectors:
  0.000  0.261  0.000  0.290  0.449
  0.008  0.000  0.992  0.000  0.000
  0.001  0.263  0.000  0.189  0.547
  0.000  0.475  0.000  0.521  0.003
  0.991  0.000  0.008  0.000  0.000
    occupations:
  0.459  0.000  0.044  0.007 -0.001
  0.000  0.418  0.000  0.000  0.010
  0.044  0.000  0.466 -0.012 -0.004
  0.007  0.000 -0.012  0.420  0.000
 -0.001  0.010 -0.004  0.000  0.313
atom   17   Tr[ns(na)] =   3.66155
    eigenvalues: 
  0.300  0.311  0.341  0.417  0.463
    eigenvectors:
  0.000  0.002  0.012  0.000  0.986
  0.009  0.045  0.933  0.000  0.013
  0.004  0.952  0.044  0.000  0.000
  0.987  0.002  0.010  0.000  0.001
  0.000  0.000  0.000  1.000  0.000
    occupations:
  0.461  0.014  0.004 -0.005  0.000
  0.014  0.341 -0.006 -0.005 -0.001
  0.004 -0.006  0.312  0.001  0.001
 -0.005 -0.005  0.001  0.300 -0.000
  0.000 -0.001  0.001 -0.000  0.417
atom   22   Tr[ns(na)] =   7.61438
    eigenvalues: 
  0.447  0.464  0.953  0.962  0.981
    eigenvectors:
  0.000  0.138  0.000  0.862  0.000
  1.000  0.000  0.000  0.000  0.000
  0.000  0.000  0.000  0.000  1.000
  0.000  0.862  0.000  0.138  0.000
  0.000  0.000  1.000  0.000  0.000
    occupations:
  0.893 -0.000 -0.001 -0.172  0.000
 -0.000  0.447 -0.000  0.000 -0.000
 -0.001 -0.000  0.981 -0.002 -0.000
 -0.172  0.000 -0.002  0.532  0.000
  0.000 -0.000 -0.000  0.000  0.953
atom   23   Tr[ns(na)] =   8.31810
    eigenvalues: 
  0.441  0.808  0.966  0.968  0.976
    eigenvectors:
  0.000  0.948  0.001  0.052  0.000
  0.000  0.000  0.000  0.000  1.000
  0.000  0.000  0.977  0.023  0.000
  0.000  0.052  0.023  0.925  0.000
  1.000  0.000  0.000  0.000  0.000
    occupations:
  0.816  0.000 -0.001  0.036 -0.000
  0.000  0.976 -0.000 -0.000 -0.002
 -0.001 -0.000  0.966 -0.000 -0.000
  0.036 -0.000 -0.000  0.960 -0.000
 -0.000 -0.002 -0.000 -0.000  0.441
N of occupied +U levels =  47.4908538
 --- exit write_ns ---

     negative rho (up, down):  0.570E+00 0.000E+00

     total cpu time spent up to now is      428.7 secs

     total energy              =   -2097.14800584 Ry
     Harris-Foulkes estimate   =   -2130.42621775 Ry
     estimated scf accuracy    <      70.48719058 Ry

     iteration #  2     ecut=    40.00 Ry     beta=0.30
     Davidson diagonalization with overlap
     ethr =  1.00E-02,  avg # of iterations =  4.9

     negative rho (up, down):  0.573E+00 0.000E+00

     total cpu time spent up to now is      705.2 secs

     total energy              =   -2054.14507174 Ry
     Harris-Foulkes estimate   =   -2227.94523264 Ry
     estimated scf accuracy    <    2171.96412538 Ry

     iteration #  3     ecut=    40.00 Ry     beta=0.30
     Davidson diagonalization with overlap
     ethr =  1.00E-02,  avg # of iterations =  5.0

     negative rho (up, down):  0.569E+00 0.000E+00

     total cpu time spent up to now is      997.3 secs

     total energy              =   -2121.66031252 Ry
     Harris-Foulkes estimate   =   -2130.73960974 Ry
     estimated scf accuracy    <      67.12393603 Ry

     iteration #  4     ecut=    40.00 Ry     beta=0.30
     Davidson diagonalization with overlap
     ethr =  1.00E-02,  avg # of iterations =  2.1

     negative rho (up, down):  0.568E+00 0.000E+00

     total cpu time spent up to now is     1161.4 secs

     total energy              =   -2126.11137497 Ry
     Harris-Foulkes estimate   =   -2126.49563054 Ry
     estimated scf accuracy    <       6.19269335 Ry

     iteration #  5     ecut=    40.00 Ry     beta=0.30
     Davidson diagonalization with overlap
     ethr =  2.58E-03,  avg # of iterations =  2.8

     negative rho (up, down):  0.570E+00 0.000E+00

     total cpu time spent up to now is     1326.9 secs

     total energy              =   -2126.26869213 Ry
     Harris-Foulkes estimate   =   -2126.49861688 Ry
     estimated scf accuracy    <       3.40453384 Ry

     iteration #  6     ecut=    40.00 Ry     beta=0.30
     Davidson diagonalization with overlap
     ethr =  1.42E-03,  avg # of iterations =  3.7

     negative rho (up, down):  0.568E+00 0.000E+00

     total cpu time spent up to now is     1498.0 secs

     total energy              =   -2126.74934842 Ry
     Harris-Foulkes estimate   =   -2126.59371640 Ry
     estimated scf accuracy    <       3.69378208 Ry

     iteration #  7     ecut=    40.00 Ry     beta=0.30
     Davidson diagonalization with overlap
     ethr =  1.42E-03,  avg # of iterations =  4.5

     negative rho (up, down):  0.567E+00 0.000E+00

     total cpu time spent up to now is     1678.5 secs

     total energy              =   -2126.98173145 Ry
     Harris-Foulkes estimate   =   -2126.87746135 Ry
     estimated scf accuracy    <       1.14739532 Ry

     iteration #  8     ecut=    40.00 Ry     beta=0.30
     Davidson diagonalization with overlap
     ethr =  4.78E-04,  avg # of iterations =  3.1

     negative rho (up, down):  0.566E+00 0.000E+00

     total cpu time spent up to now is     1849.6 secs

     total energy              =   -2127.03905739 Ry
     Harris-Foulkes estimate   =   -2127.10418129 Ry
     estimated scf accuracy    <       2.38138115 Ry

     iteration #  9     ecut=    40.00 Ry     beta=0.30
     Davidson diagonalization with overlap
     ethr =  4.78E-04,  avg # of iterations =  5.1

     negative rho (up, down):  0.575E+00 0.000E+00

     total cpu time spent up to now is     2023.7 secs

     total energy              =   -2127.15389274 Ry
     Harris-Foulkes estimate   =   -2127.16145427 Ry
     estimated scf accuracy    <       0.60504531 Ry

     iteration # 10     ecut=    40.00 Ry     beta=0.30
     Davidson diagonalization with overlap
     ethr =  2.52E-04,  avg # of iterations =  6.2

     negative rho (up, down):  0.575E+00 0.000E+00

     total cpu time spent up to now is     2207.5 secs

     total energy              =   -2127.18849580 Ry
     Harris-Foulkes estimate   =   -2127.19524352 Ry
     estimated scf accuracy    <       0.08828573 Ry

     iteration # 11     ecut=    40.00 Ry     beta=0.30
     Davidson diagonalization with overlap
     ethr =  3.68E-05,  avg # of iterations =  5.3

     negative rho (up, down):  0.571E+00 0.000E+00

     total cpu time spent up to now is     2401.2 secs

     total energy              =   -2127.19604909 Ry
     Harris-Foulkes estimate   =   -2127.19797421 Ry
     estimated scf accuracy    <       0.02792828 Ry

     iteration # 12     ecut=    40.00 Ry     beta=0.30
     Davidson diagonalization with overlap
     ethr =  1.16E-05,  avg # of iterations =  6.6

     negative rho (up, down):  0.568E+00 0.000E+00

     total cpu time spent up to now is     2595.0 secs

     total energy              =   -2127.20013779 Ry
     Harris-Foulkes estimate   =   -2127.19908524 Ry
     estimated scf accuracy    <       0.01789652 Ry

     iteration # 13     ecut=    40.00 Ry     beta=0.30
     Davidson diagonalization with overlap
     ethr =  7.46E-06,  avg # of iterations =  3.8

     negative rho (up, down):  0.567E+00 0.000E+00

     total cpu time spent up to now is     2777.9 secs

     total energy              =   -2127.20245581 Ry
     Harris-Foulkes estimate   =   -2127.20167493 Ry
     estimated scf accuracy    <       0.00626159 Ry

     iteration # 14     ecut=    40.00 Ry     beta=0.30
     Davidson diagonalization with overlap
     ethr =  2.61E-06,  avg # of iterations =  6.5

     negative rho (up, down):  0.566E+00 0.000E+00

     total cpu time spent up to now is     2996.8 secs

     total energy              =   -2127.20270671 Ry
     Harris-Foulkes estimate   =   -2127.20400846 Ry
     estimated scf accuracy    <       0.02276550 Ry

     iteration # 15     ecut=    40.00 Ry     beta=0.30
     Davidson diagonalization with overlap
     ethr =  2.61E-06,  avg # of iterations =  2.5

     negative rho (up, down):  0.565E+00 0.000E+00

     total cpu time spent up to now is     3175.7 secs

     total energy              =   -2127.20414108 Ry
     Harris-Foulkes estimate   =   -2127.20358270 Ry
     estimated scf accuracy    <       0.00342273 Ry

     iteration # 16     ecut=    40.00 Ry     beta=0.30
     Davidson diagonalization with overlap
     ethr =  1.43E-06,  avg # of iterations =  1.0

     negative rho (up, down):  0.565E+00 0.000E+00

     total cpu time spent up to now is     3342.8 secs

     total energy              =   -2127.20495128 Ry
     Harris-Foulkes estimate   =   -2127.20455843 Ry
     estimated scf accuracy    <       0.00333878 Ry

     iteration # 17     ecut=    40.00 Ry     beta=0.30
     Davidson diagonalization with overlap
     ethr =  1.39E-06,  avg # of iterations =  1.7

     negative rho (up, down):  0.565E+00 0.000E+00

     total cpu time spent up to now is     3515.1 secs

     total energy              =   -2127.20526802 Ry
     Harris-Foulkes estimate   =   -2127.20521058 Ry
     estimated scf accuracy    <       0.00203721 Ry

     iteration # 18     ecut=    40.00 Ry     beta=0.30
     Davidson diagonalization with overlap
     ethr =  8.49E-07,  avg # of iterations =  1.0

     negative rho (up, down):  0.565E+00 0.000E+00

     total cpu time spent up to now is     3691.2 secs

     total energy              =   -2127.20557012 Ry
     Harris-Foulkes estimate   =   -2127.20551297 Ry
     estimated scf accuracy    <       0.00198937 Ry

     iteration # 19     ecut=    40.00 Ry     beta=0.30
     Davidson diagonalization with overlap
     ethr =  8.29E-07,  avg # of iterations =  1.0

     negative rho (up, down):  0.565E+00 0.000E+00

     total cpu time spent up to now is     3862.3 secs

     total energy              =   -2127.20598419 Ry
     Harris-Foulkes estimate   =   -2127.20583095 Ry
     estimated scf accuracy    <       0.00197860 Ry

     iteration # 20     ecut=    40.00 Ry     beta=0.30
     Davidson diagonalization with overlap
     ethr =  8.24E-07,  avg # of iterations =  1.0

     negative rho (up, down):  0.565E+00 0.000E+00

     total cpu time spent up to now is     4031.5 secs

     total energy              =   -2127.20625367 Ry
     Harris-Foulkes estimate   =   -2127.20616456 Ry
     estimated scf accuracy    <       0.00086434 Ry

     iteration # 21     ecut=    40.00 Ry     beta=0.30
     Davidson diagonalization with overlap
     ethr =  3.60E-07,  avg # of iterations =  1.0

     negative rho (up, down):  0.566E+00 0.000E+00

     total cpu time spent up to now is     4190.1 secs

     total energy              =   -2127.20638687 Ry
     Harris-Foulkes estimate   =   -2127.20631737 Ry
     estimated scf accuracy    <       0.00028272 Ry

     iteration # 22     ecut=    40.00 Ry     beta=0.30
     Davidson diagonalization with overlap
     ethr =  1.18E-07,  avg # of iterations =  2.0

     negative rho (up, down):  0.566E+00 0.000E+00

     total cpu time spent up to now is     4353.5 secs

     total energy              =   -2127.20658961 Ry
     Harris-Foulkes estimate   =   -2127.20655031 Ry
     estimated scf accuracy    <       0.00020948 Ry

     iteration # 23     ecut=    40.00 Ry     beta=0.30
     Davidson diagonalization with overlap
     ethr =  8.73E-08,  avg # of iterations =  1.0

     negative rho (up, down):  0.566E+00 0.000E+00

     total cpu time spent up to now is     4520.5 secs

     total energy              =   -2127.20664155 Ry
     Harris-Foulkes estimate   =   -2127.20663581 Ry
     estimated scf accuracy    <       0.00018016 Ry

     iteration # 24     ecut=    40.00 Ry     beta=0.30
     Davidson diagonalization with overlap
     ethr =  7.51E-08,  avg # of iterations =  1.3

     negative rho (up, down):  0.566E+00 0.000E+00

     total cpu time spent up to now is     4697.8 secs

     total energy              =   -2127.20675386 Ry
     Harris-Foulkes estimate   =   -2127.20674219 Ry
     estimated scf accuracy    <       0.00007853 Ry

     iteration # 25     ecut=    40.00 Ry     beta=0.30
     Davidson diagonalization with overlap
     ethr =  3.27E-08,  avg # of iterations =  1.0

     negative rho (up, down):  0.566E+00 0.000E+00

     total cpu time spent up to now is     4875.7 secs

     total energy              =   -2127.20675675 Ry
     Harris-Foulkes estimate   =   -2127.20676527 Ry
     estimated scf accuracy    <       0.00008710 Ry

     iteration # 26     ecut=    40.00 Ry     beta=0.30
     Davidson diagonalization with overlap
     ethr =  3.27E-08,  avg # of iterations =  2.0

     negative rho (up, down):  0.566E+00 0.000E+00

     total cpu time spent up to now is     5058.6 secs

     total energy              =   -2127.20681347 Ry
     Harris-Foulkes estimate   =   -2127.20680672 Ry
     estimated scf accuracy    <       0.00005401 Ry

     iteration # 27     ecut=    40.00 Ry     beta=0.30
     Davidson diagonalization with overlap
     ethr =  2.25E-08,  avg # of iterations =  1.0

     negative rho (up, down):  0.566E+00 0.000E+00

     total cpu time spent up to now is     5237.2 secs

     total energy              =   -2127.20682511 Ry
     Harris-Foulkes estimate   =   -2127.20682055 Ry
     estimated scf accuracy    <       0.00004040 Ry

     iteration # 28     ecut=    40.00 Ry     beta=0.30
     Davidson diagonalization with overlap
     ethr =  1.68E-08,  avg # of iterations =  1.0

     negative rho (up, down):  0.566E+00 0.000E+00

     total cpu time spent up to now is     5419.9 secs

     total energy              =   -2127.20683155 Ry
     Harris-Foulkes estimate   =   -2127.20683154 Ry
     estimated scf accuracy    <       0.00003222 Ry

     iteration # 29     ecut=    40.00 Ry     beta=0.30
     Davidson diagonalization with overlap
     ethr =  1.34E-08,  avg # of iterations =  1.0

     negative rho (up, down):  0.566E+00 0.000E+00

     total cpu time spent up to now is     5593.7 secs

     total energy              =   -2127.20684022 Ry
     Harris-Foulkes estimate   =   -2127.20683851 Ry
     estimated scf accuracy    <       0.00004346 Ry

     iteration # 30     ecut=    40.00 Ry     beta=0.30
     Davidson diagonalization with overlap
     ethr =  1.34E-08,  avg # of iterations =  1.0

     negative rho (up, down):  0.566E+00 0.000E+00

     total cpu time spent up to now is     5764.0 secs

     total energy              =   -2127.20684613 Ry
     Harris-Foulkes estimate   =   -2127.20684360 Ry
     estimated scf accuracy    <       0.00002053 Ry

     iteration # 31     ecut=    40.00 Ry     beta=0.30
     Davidson diagonalization with overlap
     ethr =  8.55E-09,  avg # of iterations =  1.0

     negative rho (up, down):  0.566E+00 0.000E+00

     total cpu time spent up to now is     5950.0 secs

     total energy              =   -2127.20685118 Ry
     Harris-Foulkes estimate   =   -2127.20684846 Ry
     estimated scf accuracy    <       0.00001364 Ry

     iteration # 32     ecut=    40.00 Ry     beta=0.30
     Davidson diagonalization with overlap
     ethr =  5.68E-09,  avg # of iterations =  1.0

     negative rho (up, down):  0.566E+00 0.000E+00

     total cpu time spent up to now is     6140.0 secs

     total energy              =   -2127.20685650 Ry
     Harris-Foulkes estimate   =   -2127.20685607 Ry
     estimated scf accuracy    <       0.00002370 Ry

     iteration # 33     ecut=    40.00 Ry     beta=0.30
     Davidson diagonalization with overlap
     ethr =  5.68E-09,  avg # of iterations =  1.0

     negative rho (up, down):  0.566E+00 0.000E+00

     total cpu time spent up to now is     6317.3 secs

     total energy              =   -2127.20685965 Ry
     Harris-Foulkes estimate   =   -2127.20685998 Ry
     estimated scf accuracy    <       0.00000894 Ry

     iteration # 34     ecut=    40.00 Ry     beta=0.30
     Davidson diagonalization with overlap
     ethr =  3.73E-09,  avg # of iterations =  1.0

     negative rho (up, down):  0.566E+00 0.000E+00

     total cpu time spent up to now is     6494.8 secs

     total energy              =   -2127.20686177 Ry
     Harris-Foulkes estimate   =   -2127.20686167 Ry
     estimated scf accuracy    <       0.00000634 Ry

     iteration # 35     ecut=    40.00 Ry     beta=0.30
     Davidson diagonalization with overlap
     ethr =  2.64E-09,  avg # of iterations =  2.0

     negative rho (up, down):  0.566E+00 0.000E+00

     total cpu time spent up to now is     6673.8 secs

     total energy              =   -2127.20686407 Ry
     Harris-Foulkes estimate   =   -2127.20686427 Ry
     estimated scf accuracy    <       0.00000261 Ry

     iteration # 36     ecut=    40.00 Ry     beta=0.30
     Davidson diagonalization with overlap
     ethr =  1.09E-09,  avg # of iterations =  2.0

     negative rho (up, down):  0.566E+00 0.000E+00

     total cpu time spent up to now is     6854.8 secs

     total energy              =   -2127.20686538 Ry
     Harris-Foulkes estimate   =   -2127.20686561 Ry
     estimated scf accuracy    <       0.00000282 Ry

     iteration # 37     ecut=    40.00 Ry     beta=0.30
     Davidson diagonalization with overlap
     ethr =  1.09E-09,  avg # of iterations =  1.0

     negative rho (up, down):  0.566E+00 0.000E+00

     total cpu time spent up to now is     7020.2 secs

     total energy              =   -2127.20686566 Ry
     Harris-Foulkes estimate   =   -2127.20686561 Ry
     estimated scf accuracy    <       0.00000229 Ry

     iteration # 38     ecut=    40.00 Ry     beta=0.30
     Davidson diagonalization with overlap
     ethr =  9.53E-10,  avg # of iterations =  1.0

     negative rho (up, down):  0.566E+00 0.000E+00

     total cpu time spent up to now is     7182.6 secs

     total energy              =   -2127.20686617 Ry
     Harris-Foulkes estimate   =   -2127.20686610 Ry
     estimated scf accuracy    <       0.00000107 Ry

     iteration # 39     ecut=    40.00 Ry     beta=0.30
     Davidson diagonalization with overlap
     ethr =  4.47E-10,  avg # of iterations =  1.0

     negative rho (up, down):  0.566E+00 0.000E+00

     total cpu time spent up to now is     7344.6 secs

     total energy              =   -2127.20686668 Ry
     Harris-Foulkes estimate   =   -2127.20686671 Ry
     estimated scf accuracy    <       0.00000133 Ry

     iteration # 40     ecut=    40.00 Ry     beta=0.30
     Davidson diagonalization with overlap
     ethr =  4.47E-10,  avg # of iterations =  1.0

     negative rho (up, down):  0.566E+00 0.000E+00

     total cpu time spent up to now is     7510.2 secs

     total energy              =   -2127.20686677 Ry
     Harris-Foulkes estimate   =   -2127.20686679 Ry
     estimated scf accuracy    <       0.00000169 Ry

     iteration # 41     ecut=    40.00 Ry     beta=0.30
     Davidson diagonalization with overlap
     ethr =  4.47E-10,  avg # of iterations =  1.0

     negative rho (up, down):  0.566E+00 0.000E+00

     total cpu time spent up to now is     7676.7 secs

     End of self-consistent calculation
 --- enter write_ns ---
 LDA+U parameters:
U( 2)     =  8.00000000
alpha( 2) =  0.00000000
atom    3   Tr[ns(na)] =   7.28414
    eigenvalues: 
  0.498  0.545  0.681  0.933  0.985
    eigenvectors:
  0.000  0.168  0.006  0.000  0.827
  1.000  0.000  0.000  0.000  0.000
  0.000  0.006  0.980  0.000  0.014
  0.000  0.826  0.014  0.000  0.160
  0.000  0.000  0.000  1.000  0.000
    occupations:
  0.909 -0.000  0.037 -0.161 -0.001
 -0.000  0.499 -0.000 -0.000 -0.006
  0.037 -0.000  0.684 -0.004  0.002
 -0.161 -0.000 -0.004  0.617 -0.000
 -0.001 -0.006  0.002 -0.000  0.933
atom    4   Tr[ns(na)] =   7.27329
    eigenvalues: 
  0.545  0.600  0.614  0.890  0.988
    eigenvectors:
  0.005  0.976  0.000  0.000  0.018
  0.000  0.000  0.030  0.970  0.000
  0.000  0.000  0.969  0.030  0.000
  0.000  0.018  0.000  0.000  0.982
  0.994  0.005  0.000  0.000  0.000
    occupations:
  0.607 -0.002  0.000  0.052  0.004
 -0.002  0.881  0.047 -0.000 -0.002
  0.000  0.047  0.622  0.002  0.001
  0.052 -0.000  0.002  0.981  0.000
  0.004 -0.002  0.001  0.000  0.545
atom    9   Tr[ns(na)] =   7.34303
    eigenvalues: 
  0.549  0.575  0.777  0.873  0.897
    eigenvectors:
  0.000  0.136  0.005  0.461  0.398
  1.000  0.000  0.000  0.000  0.000
  0.000  0.000  0.993  0.005  0.001
  0.000  0.863  0.002  0.070  0.065
  0.000  0.000  0.001  0.464  0.535
    occupations:
  0.841  0.001 -0.008 -0.106  0.011
  0.001  0.549  0.003  0.000  0.001
 -0.008  0.003  0.778  0.001  0.002
 -0.106  0.000  0.001  0.617 -0.006
  0.011  0.001  0.002 -0.006  0.886
atom   10   Tr[ns(na)] =   7.31407
    eigenvalues: 
  0.466  0.512  0.811  0.890  0.978
    eigenvectors:
  0.985  0.000  0.000  0.000  0.015
  0.000  0.000  0.000  1.000  0.000
  0.000  0.000  1.000  0.000  0.000
  0.015  0.000  0.000  0.000  0.985
  0.000  1.000  0.000  0.000  0.000
    occupations:
  0.474  0.000  0.004  0.063  0.000
  0.000  0.890 -0.001  0.000 -0.002
  0.004 -0.001  0.811 -0.003 -0.000
  0.063  0.000 -0.003  0.970 -0.001
  0.000 -0.002 -0.000 -0.001  0.512
atom   16   Tr[ns(na)] =   7.28415
    eigenvalues: 
  0.498  0.545  0.681  0.933  0.985
    eigenvectors:
  0.000  0.168  0.006  0.000  0.827
  1.000  0.000  0.000  0.000  0.000
  0.000  0.006  0.980  0.000  0.014
  0.000  0.826  0.014  0.000  0.160
  0.000  0.000  0.000  1.000  0.000
    occupations:
  0.909 -0.000  0.037 -0.161 -0.001
 -0.000  0.499 -0.000 -0.000 -0.006
  0.037 -0.000  0.684 -0.004  0.002
 -0.161 -0.000 -0.004  0.617 -0.000
 -0.001 -0.006  0.002 -0.000  0.933
atom   17   Tr[ns(na)] =   7.27328
    eigenvalues: 
  0.545  0.600  0.614  0.890  0.988
    eigenvectors:
  0.005  0.976  0.000  0.000  0.018
  0.000  0.000  0.030  0.970  0.000
  0.000  0.000  0.969  0.030  0.000
  0.000  0.018  0.000  0.000  0.982
  0.994  0.005  0.000  0.000  0.000
    occupations:
  0.607 -0.002  0.000  0.052  0.004
 -0.002  0.881  0.047 -0.000 -0.002
  0.000  0.047  0.622  0.002  0.001
  0.052 -0.000  0.002  0.981  0.000
  0.004 -0.002  0.001  0.000  0.545
atom   22   Tr[ns(na)] =   7.34304
    eigenvalues: 
  0.549  0.575  0.777  0.873  0.897
    eigenvectors:
  0.000  0.136  0.005  0.460  0.399
  1.000  0.000  0.000  0.000  0.000
  0.000  0.000  0.993  0.005  0.001
  0.000  0.863  0.002  0.070  0.065
  0.000  0.000  0.001  0.465  0.535
    occupations:
  0.841  0.001 -0.008 -0.106  0.011
  0.001  0.549  0.003  0.000  0.001
 -0.008  0.003  0.778  0.001  0.002
 -0.106  0.000  0.001  0.617 -0.006
  0.011  0.001  0.002 -0.006  0.886
atom   23   Tr[ns(na)] =   7.31406
    eigenvalues: 
  0.466  0.512  0.811  0.890  0.978
    eigenvectors:
  0.985  0.000  0.000  0.000  0.015
  0.000  0.000  0.000  1.000  0.000
  0.000  0.000  1.000  0.000  0.000
  0.015  0.000  0.000  0.000  0.985
  0.000  1.000  0.000  0.000  0.000
    occupations:
  0.474  0.000  0.004  0.063  0.000
  0.000  0.890 -0.001  0.000 -0.002
  0.004 -0.001  0.811 -0.003 -0.000
  0.063  0.000 -0.003  0.970 -0.001
  0.000 -0.002 -0.000 -0.001  0.512
N of occupied +U levels =  58.4290526
 --- exit write_ns ---

          k = 0.0000 0.0000 0.0000 ( 30363 PWs)   bands (ev):

   -73.5746 -73.5642 -73.3586 -73.3463 -73.1582 -73.1479 -73.0533 -73.0407
   -43.8714 -43.8592 -43.5981 -43.5941 -43.5520 -43.4316 -43.4149 -43.4120
   -43.3840 -43.3831 -43.3775 -43.3771 -43.3434 -43.3240 -43.2947 -43.2206
   -43.2058 -43.1888 -43.1678 -43.0521 -42.9855 -42.8723 -42.8494 -42.8200
   -20.8731 -20.4171 -20.3963 -20.2353 -20.0582 -20.0216 -19.8679 -19.8277
   -19.8178 -19.5539 -19.5353 -19.4883 -19.3954 -19.3903 -19.0529 -18.9407
   -18.8827 -18.8699 -10.3801 -10.0393  -9.7321  -9.4214  -9.2156  -9.0137
    -8.9068  -8.7185  -8.3644  -8.0976  -7.8423  -7.7407  -7.5590  -7.4581
    -7.4405  -7.3992  -7.3666  -7.3504  -7.1960  -7.1430  -7.1328  -6.8280
    -6.4808  -6.2844  -6.2553  -5.9521  -5.8811  -5.7824  -5.6130  -5.5577
    -5.3339  -5.1936  -5.1538  -5.1123  -5.0251  -4.9098  -4.8614  -4.8548
    -4.6163  -4.6056  -4.4641  -4.3646  -4.2756  -4.2018  -4.0660  -3.9836
    -3.9793  -3.9284  -3.8990  -3.8890  -3.8089  -3.7970  -3.7836  -3.7129
    -3.6055  -3.5811  -3.4442  -3.3432  -3.3081  -3.2816  -3.1462  -2.9521
    -2.7914  -2.6727  -2.4605  -2.4115  -1.9461  -1.8185  -1.6241  -1.5690
    -1.4332  -1.3127  -0.9600  -0.8401  -0.8381  -0.3560  -0.2520   0.2933
     1.0228   1.0471   1.8120   2.0819   2.5795   2.7666   2.7836   2.8600
     2.9581   3.0133   3.3852   3.6146   3.6800   3.6987   4.0671   4.0814
     4.1046   4.2418   4.2851   4.6540   5.0708   5.8687   6.2036   6.3349
     6.6831   7.0253   7.1784   7.2073   7.2849   7.3338   7.3895   7.4573
     7.7023   7.7700   7.8845   7.9179   7.9754   8.1813   8.2086   8.2852
     8.3973   8.4180   8.6051   8.6843   8.8135   8.8840   9.0130   9.0382
     9.2587   9.2622   9.3672   9.4138   9.4568   9.6470   9.7784   9.8820
     9.9005   9.9386  10.0343  10.2374  10.2666  10.6823  10.7300  10.7914
    10.8592  10.9428  10.9962  11.0836  11.2854  11.3345  11.3840  11.4271
    11.4726  11.5179  11.6068  11.6131  11.6666  11.6770  11.7760  11.8804
    11.8837  12.0229  12.0336  12.0508  12.2196  12.3143  12.4487  12.4825
    12.5270  12.5381  12.5757  12.6179  12.6582  12.7525  12.9171  13.0056
    13.0282  13.0440  13.0920  13.2083  13.2868  13.3869  13.4282  13.5604
    13.7183  13.7366  13.8717  13.9375  13.9660  14.1179  14.1806  14.2621
    14.2785  14.4961  14.6292  14.6687  14.7330  14.7401  14.9847  15.0559
    15.0626  15.2271  15.3891  15.4920  15.5447  15.6654  15.6726  15.8732
    15.9630  16.0380  16.0861  16.1487  16.1723  16.2663  16.3796  16.5419
    16.6159  16.8878  16.9190  16.9490  16.9963  17.1729  17.2048  17.3757
    17.3934  17.4011  17.4302  17.4634  17.5679  17.8642  17.8968  17.9559
    18.0553  18.1574  18.2755  18.3557  18.3930  18.4731  18.5887  18.6095
    18.6362  18.7101  18.7399  18.7503  18.8942  18.9490  19.0110  19.0354
    19.0769  19.0940  19.1297  19.2178  19.3092  19.3580  19.4256  19.4901
    19.5173  19.5231  19.6900  19.7413  19.7559  19.7823  19.8649  19.8809
    19.9211  19.9879  20.1126  20.1824  20.2227  20.3414  20.3699  20.4143
    20.5113  20.5780  20.6853  20.7060  20.7387  20.7665  20.7879  20.8830
    20.9508  20.9942  21.0455  21.1936  21.2530  21.3636  21.3650  21.4231
    21.5719  21.6551  21.7132  21.7374  21.7481  21.7901  21.9352  21.9714
    22.0190  22.2295  22.2624  22.2925

          k = 0.0000 0.2435 0.0000 ( 30432 PWs)   bands (ev):

   -73.5745 -73.5647 -73.3582 -73.3463 -73.1577 -73.1479 -73.0532 -73.0412
   -43.8714 -43.8592 -43.5952 -43.5940 -43.5517 -43.4320 -43.4150 -43.4110
   -43.3941 -43.3865 -43.3858 -43.3596 -43.3433 -43.3240 -43.2947 -43.2208
   -43.2062 -43.1879 -43.1664 -43.0514 -42.9856 -42.8724 -42.8512 -42.8190
   -20.8136 -20.4052 -20.2885 -20.2338 -20.0363 -20.0117 -19.8574 -19.8316
   -19.8269 -19.7514 -19.6701 -19.4087 -19.2663 -19.2579 -19.0838 -19.0497
   -19.0473 -18.8695 -10.1518  -9.7748  -9.6022  -9.5892  -9.4165  -9.1376
    -9.0725  -8.9082  -8.1435  -7.8835  -7.6746  -7.5463  -7.5449  -7.3729
    -7.3383  -7.3150  -7.2774  -7.1658  -7.1184  -7.1040  -6.8375  -6.6034
    -6.5619  -6.4384  -6.2836  -6.2008  -5.9848  -5.6560  -5.4751  -5.4361
    -5.4144  -5.3893  -5.3658  -5.3134  -5.2865  -5.2834  -5.1629  -4.9304
    -4.7833  -4.7184  -4.7018  -4.5894  -4.5018  -4.3891  -4.2264  -4.2196
    -4.1545  -3.9802  -3.8834  -3.8769  -3.7619  -3.7378  -3.5534  -3.4441
    -3.4305  -3.3233  -3.2975  -3.1433  -3.1389  -3.0206  -2.8257  -2.7980
    -2.7651  -2.6965  -2.6737  -2.4557  -2.2767  -2.2273  -1.8243  -1.5692
    -1.5670  -1.0217  -0.7862  -0.6240  -0.5419  -0.4583  -0.3600   0.0752
     1.1017   1.2532   1.7619   1.8491   2.0586   2.3990   2.7984   3.0854
     3.6132   3.6532   3.7295   3.7802   3.7937   3.9055   3.9513   3.9922
     4.1394   4.1823   4.3808   4.8203   5.2720   5.5462   5.8660   6.0980
     6.2493   6.4293   6.6583   6.8342   7.1649   7.1886   7.4331   7.4974
     7.5143   7.6855   7.9158   8.1138   8.1400   8.1508   8.1879   8.3964
     8.4802   8.5714   8.8283   8.9269   8.9668   9.0180   9.2288   9.2754
     9.3648   9.5152   9.6039   9.6997   9.7339   9.7573   9.8217   9.8223
     9.9645  10.0428  10.0547  10.0883  10.1718  10.3199  10.3241  10.3634
    10.4579  10.5750  10.6688  10.9664  11.0769  11.1349  11.1581  11.1673
    11.3074  11.3124  11.4713  11.4781  11.5055  11.6181  11.8823  11.9029
    11.9723  12.3016  12.4071  12.4132  12.5651  12.5715  12.6525  12.7033
    12.8186  12.8717  12.9568  13.0664  13.2144  13.2310  13.3181  13.3430
    13.4311  13.5110  13.5722  13.6461  13.6674  13.7030  13.8329  13.8790
    13.9166  14.0629  14.1186  14.2211  14.2329  14.3427  14.4059  14.4707
    14.5220  14.6217  14.6791  14.7659  14.7793  14.9998  15.0292  15.0830
    15.1143  15.2042  15.2642  15.3792  15.4787  15.5611  15.6713  15.7571
    15.8020  15.8687  15.9345  15.9834  15.9992  16.1938  16.3262  16.4066
    16.4246  16.5850  16.6479  16.6760  16.7283  16.8554  16.8634  16.8837
    17.1860  17.2864  17.3193  17.3524  17.3622  17.4190  17.4866  17.5159
    17.5339  17.6556  17.7617  17.7853  18.1761  18.2026  18.3280  18.3382
    18.5319  18.5729  18.5855  18.6776  18.7609  18.8262  18.9120  18.9200
    18.9928  19.0534  19.1064  19.1155  19.1296  19.1989  19.2158  19.2414
    19.3645  19.3906  19.5379  19.6001  19.6394  19.6450  19.6666  19.7461
    19.8187  19.9181  19.9379  19.9988  20.0070  20.0419  20.1233  20.1505
    20.2012  20.3395  20.3848  20.4064  20.4956  20.5011  20.6162  20.6551
    20.7200  20.7215  20.9144  20.9239  21.0129  21.0851  21.0887  21.1667
    21.1926  21.2503  21.2877  21.3133  21.4139  21.4665  21.4799  21.5074
    21.5508  21.5849  21.5933  21.7386

          k = 0.0000-0.4870 0.0000 ( 30448 PWs)   bands (ev):

   -73.5744 -73.5653 -73.3578 -73.3463 -73.1572 -73.1480 -73.0530 -73.0416
   -43.8715 -43.8592 -43.5939 -43.5922 -43.5514 -43.4324 -43.4150 -43.4101
   -43.4007 -43.3900 -43.3876 -43.3521 -43.3432 -43.3240 -43.2948 -43.2209
   -43.2065 -43.1870 -43.1650 -43.0506 -42.9857 -42.8724 -42.8529 -42.8179
   -20.7503 -20.4012 -20.2323 -20.0939 -20.0587 -20.0007 -19.8572 -19.8545
   -19.8281 -19.8042 -19.7430 -19.4096 -19.2519 -19.2398 -19.1867 -19.1608
   -19.0464 -18.8722  -9.9793  -9.8372  -9.5484  -9.4196  -9.3951  -9.2464
    -9.1354  -8.9273  -7.8141  -7.7310  -7.5247  -7.4783  -7.4172  -7.3599
    -7.3208  -7.1879  -7.1700  -7.1095  -7.0386  -7.0088  -6.9236  -6.7618
    -6.6388  -6.1825  -6.1591  -6.1114  -6.0666  -5.9189  -5.9098  -5.9027
    -5.5540  -5.5203  -5.5092  -5.4639  -5.3577  -5.2821  -5.0985  -5.0551
    -4.8478  -4.7589  -4.6747  -4.6465  -4.4694  -4.4501  -4.2230  -4.1309
    -4.0964  -4.0414  -3.9730  -3.8774  -3.7598  -3.6901  -3.5329  -3.4634
    -3.4455  -3.4229  -3.2522  -3.2252  -3.1336  -3.0826  -2.9738  -2.9266
    -2.8328  -2.7804  -2.4432  -2.3810  -2.2939  -1.9688  -1.5949  -1.4666
    -1.3585  -1.1896  -1.1270  -0.6072  -0.4642  -0.3008  -0.2294  -0.1477
     1.1518   1.4089   1.4677   1.7235   1.8659   2.6831   2.8133   3.2906
     3.6043   3.6778   3.7245   3.8183   3.8252   4.1158   4.2139   4.2885
     4.4070   4.5446   4.6791   4.8718   5.0437   5.1400   5.4596   5.6085
     5.9982   6.1608   6.6854   6.9230   7.0225   7.0349   7.2690   7.4598
     7.6374   7.6771   7.6878   7.9554   8.1225   8.1971   8.4937   8.5847
     8.6396   8.6791   8.8198   8.8417   8.8977   9.0103   9.1230   9.1437
     9.1911   9.3066   9.4438   9.5774   9.5826   9.5951   9.6381   9.7628
     9.9690  10.0014  10.0264  10.0852  10.1675  10.2146  10.3492  10.6035
    10.7474  10.8680  10.9384  11.1015  11.1823  11.3612  11.4133  11.4707
    11.6153  11.6399  11.6863  11.7456  11.8243  11.8757  11.9458  12.0958
    12.2467  12.2547  12.3323  12.3624  12.5444  12.6421  12.6804  12.7805
    12.8109  12.8258  13.0031  13.0457  13.1752  13.1885  13.2148  13.4754
    13.5067  13.5329  13.6507  13.6609  13.7056  13.8720  13.8932  13.9339
    14.0181  14.1750  14.3006  14.3283  14.4012  14.5465  14.6149  14.6250
    14.7980  14.8656  14.9659  15.1994  15.3084  15.3391  15.3582  15.4117
    15.4719  15.5390  15.6285  15.6680  15.7667  15.7904  15.8893  15.9810
    16.0016  16.0776  16.0922  16.1389  16.1526  16.1874  16.3235  16.3307
    16.3999  16.4372  16.4413  16.4606  16.5074  16.6507  16.6783  16.7948
    16.8698  16.9031  16.9106  16.9297  16.9484  17.2598  17.3436  17.3452
    17.3818  17.4511  17.4817  17.5233  17.5672  17.8040  17.9308  17.9495
    18.0301  18.0311  18.1152  18.1543  18.2452  18.3665  18.3737  18.4184
    18.4545  18.4893  18.5331  18.6329  18.6593  18.7027  18.8382  18.8863
    18.9649  19.0620  19.1324  19.1670  19.2972  19.3279  19.4615  19.4709
    19.7123  19.7804  19.9600  19.9646  20.1259  20.2009  20.2175  20.2493
    20.2866  20.3522  20.3728  20.4252  20.4354  20.4593  20.4989  20.5258
    20.5408  20.5769  20.6580  20.6852  20.7399  20.7622  20.7846  20.7940
    20.9221  21.0275  21.0298  21.0671  21.0976  21.1210  21.1920  21.2191
    21.3616  21.4068  21.5191  21.5552

          k = 0.2500 0.0000 0.0000 ( 30394 PWs)   bands (ev):

   -73.5718 -73.5644 -73.3558 -73.3471 -73.1554 -73.1481 -73.0503 -73.0414
   -43.8698 -43.8612 -43.5957 -43.5922 -43.5264 -43.4294 -43.4176 -43.4170
   -43.3858 -43.3828 -43.3811 -43.3667 -43.3576 -43.3210 -43.2992 -43.2482
   -43.2024 -43.1870 -43.1483 -43.0288 -43.0161 -42.9017 -42.8451 -42.8244
   -20.7475 -20.3034 -20.2797 -20.1990 -20.1420 -20.0089 -19.8645 -19.8597
   -19.7624 -19.6532 -19.6002 -19.4459 -19.3641 -19.3215 -19.1566 -19.0284
   -18.9647 -18.9505 -10.0516  -9.7324  -9.4622  -9.1721  -9.0729  -8.8002
    -8.7493  -8.5552  -8.2886  -8.2012  -8.0686  -7.8974  -7.8391  -7.7190
    -7.6485  -7.6384  -7.4816  -7.2796  -7.1634  -7.0349  -6.9767  -6.8746
    -6.5196  -6.4577  -6.1769  -6.1728  -6.1182  -5.9935  -5.8739  -5.6751
    -5.5103  -5.4127  -5.3293  -5.2237  -5.1744  -4.9811  -4.9662  -4.9023
    -4.8590  -4.7870  -4.6366  -4.5204  -4.4397  -4.4169  -4.3415  -4.1581
    -4.1392  -3.9282  -3.8375  -3.8223  -3.7893  -3.6681  -3.5004  -3.4647
    -3.4436  -3.2732  -3.2228  -3.2125  -2.9944  -2.9425  -2.8067  -2.6551
    -2.5659  -2.4072  -2.3326  -2.2109  -1.9228  -1.7596  -1.5480  -1.4933
    -1.4153  -1.3360  -1.1579  -0.9558  -0.7098  -0.5026  -0.3996   0.1462
     1.1436   1.1441   1.9972   2.1790   2.6685   2.7059   2.7885   2.8969
     3.0555   3.0903   3.2224   3.5399   3.7012   3.7381   3.7635   3.8921
     3.9426   4.2852   4.4785   4.8843   5.3384   5.5851   5.8920   6.1012
     6.3084   6.4868   6.6104   6.6980   7.1991   7.4113   7.4407   7.5587
     7.5828   7.6984   7.9483   8.0102   8.0789   8.1417   8.4295   8.4954
     8.5377   8.6812   8.7227   8.8467   9.0854   9.1077   9.2237   9.2620
     9.3019   9.4214   9.5433   9.5813   9.6860   9.7540   9.8238   9.8595
    10.0253  10.0264  10.0809  10.1809  10.1861  10.2949  10.4181  10.4419
    10.4803  10.6930  10.8111  10.9121  11.0793  11.1460  11.2397  11.3105
    11.3667  11.4035  11.5243  11.5650  11.6339  11.7491  11.8201  11.9434
    11.9636  12.1370  12.2298  12.2865  12.3302  12.5139  12.5482  12.7027
    12.7126  12.7910  12.9082  12.9898  13.1214  13.1474  13.1835  13.3538
    13.4700  13.4805  13.5634  13.7417  13.7422  13.7552  13.8578  13.9669
    14.0477  14.0855  14.1631  14.1662  14.2880  14.3839  14.4403  14.4540
    14.5222  14.5802  14.6182  14.7998  14.8243  14.9863  15.0296  15.1560
    15.1865  15.2771  15.4346  15.5645  15.6166  15.6863  15.7756  15.8514
    15.8615  15.9616  16.0075  16.0097  16.0925  16.1338  16.2592  16.2954
    16.3312  16.3701  16.5183  16.5912  16.6830  16.8172  16.9152  16.9898
    16.9999  17.0807  17.2475  17.3351  17.3623  17.4339  17.5228  17.6149
    17.6190  17.7110  17.7634  17.7902  17.9800  18.0654  18.2346  18.2871
    18.3085  18.3880  18.5204  18.5639  18.7013  18.7665  18.8514  18.9316
    18.9601  19.0738  19.1410  19.2504  19.2590  19.3226  19.3273  19.4130
    19.4399  19.4403  19.5123  19.5241  19.5674  19.6176  19.6698  19.7215
    19.7814  19.8405  19.9386  19.9741  20.0176  20.0346  20.1050  20.2036
    20.2668  20.3113  20.3301  20.4571  20.5206  20.6386  20.6845  20.7065
    20.7866  20.7938  20.8195  20.8445  20.8477  20.8611  20.9614  21.0342
    21.0824  21.1299  21.1991  21.2409  21.2543  21.4001  21.4041  21.5690
    21.6130  21.6417  21.6448  21.7191

          k = 0.2500 0.2435 0.0000 ( 30434 PWs)   bands (ev):

   -73.5717 -73.5648 -73.3555 -73.3470 -73.1550 -73.1481 -73.0503 -73.0418
   -43.8698 -43.8612 -43.5935 -43.5908 -43.5262 -43.4298 -43.4177 -43.4161
   -43.3931 -43.3868 -43.3846 -43.3666 -43.3462 -43.3210 -43.2992 -43.2490
   -43.2027 -43.1867 -43.1469 -43.0282 -43.0161 -42.9017 -42.8465 -42.8237
   -20.6967 -20.2905 -20.1956 -20.1806 -20.1336 -19.9803 -19.8706 -19.8396
   -19.7699 -19.6868 -19.6711 -19.3869 -19.3428 -19.3086 -19.1635 -19.1547
   -19.1171 -18.9500  -9.8457  -9.4792  -9.3634  -9.3311  -9.1628  -8.9330
    -8.8217  -8.7474  -8.0840  -7.9826  -7.9598  -7.8155  -7.6313  -7.6210
    -7.5314  -7.5277  -7.4830  -7.1876  -7.1754  -6.9218  -6.8578  -6.6112
    -6.4722  -6.3762  -6.2767  -6.1647  -6.1574  -6.0366  -5.9530  -5.8260
    -5.7766  -5.6925  -5.5791  -5.4214  -5.3264  -5.2207  -5.1833  -5.1506
    -5.0225  -4.9587  -4.8609  -4.6222  -4.5192  -4.3847  -4.3796  -4.2096
    -4.2034  -4.0200  -3.8782  -3.8108  -3.7109  -3.6041  -3.3873  -3.3224
    -3.1808  -3.1412  -3.1060  -2.9477  -2.9148  -2.8084  -2.7323  -2.5728
    -2.5005  -2.4495  -2.3586  -2.3258  -2.0847  -1.9378  -1.8382  -1.5270
    -1.3324  -1.0477  -0.9013  -0.7824  -0.6508  -0.5747  -0.5361  -0.0444
     1.2081   1.3301   1.9267   2.0234   2.2229   2.4448   2.7660   3.0246
     3.2412   3.4128   3.4524   3.6248   3.7260   3.8316   3.9596   3.9614
     4.0719   4.3959   4.6332   5.0680   5.5242   5.7549   5.7832   6.0560
     6.0936   6.3586   6.5135   6.5164   6.7301   6.8720   6.9145   7.2034
     7.4365   7.5098   7.7713   7.8618   7.9390   8.1986   8.2186   8.3125
     8.4618   8.5471   8.7337   8.7598   8.8170   9.0368   9.1856   9.2352
     9.3072   9.4623   9.5213   9.7659   9.7743   9.9668   9.9881  10.0647
    10.0685  10.2934  10.3378  10.4556  10.4674  10.5741  10.6002  10.8012
    10.8748  10.8851  11.0375  11.1746  11.3142  11.3504  11.4342  11.5381
    11.5793  11.6738  11.7078  11.8121  11.8928  11.9728  12.0102  12.0518
    12.1454  12.2793  12.3950  12.4647  12.5514  12.5981  12.6800  12.7143
    12.7533  12.8883  12.9081  13.0108  13.0635  13.1191  13.1942  13.3665
    13.4428  13.4554  13.6319  13.6699  13.7627  13.8073  13.8895  14.0261
    14.0655  14.1594  14.2423  14.3515  14.3994  14.4222  14.5698  14.5839
    14.6313  14.7959  14.8443  14.9277  14.9560  15.0502  15.1257  15.1870
    15.2969  15.4072  15.4627  15.5442  15.6581  15.6942  15.7666  15.8211
    15.8472  15.9185  15.9445  15.9687  16.0579  16.1063  16.1873  16.2013
    16.3451  16.4314  16.4424  16.5811  16.5946  16.7238  16.7506  16.8545
    16.8867  16.9214  17.0180  17.0838  17.1371  17.2337  17.2822  17.4148
    17.4291  17.4912  17.4965  17.5923  17.6171  17.6626  17.7664  17.8453
    17.8868  17.9227  17.9896  18.0184  18.0635  18.1306  18.1811  18.3264
    18.3538  18.4431  18.5867  18.6310  18.6710  18.7633  18.7999  18.8762
    18.9385  19.0293  19.1766  19.1771  19.2444  19.2627  19.3669  19.4053
    19.5078  19.6109  19.7057  19.7815  19.8642  19.9071  19.9539  20.0027
    20.0972  20.1987  20.2236  20.3296  20.4608  20.5504  20.7058  20.7398
    20.7786  20.8707  20.9152  20.9194  21.0568  21.0974  21.1349  21.1665
    21.2919  21.2923  21.3159  21.3404  21.3764  21.5201  21.5235  21.6257
    21.7107  21.7274  21.7839  21.8999

          k = 0.2500-0.4870 0.0000 ( 30468 PWs)   bands (ev):

   -73.5717 -73.5653 -73.3551 -73.3470 -73.1546 -73.1481 -73.0502 -73.0422
   -43.8699 -43.8612 -43.5909 -43.5904 -43.5258 -43.4301 -43.4177 -43.4156
   -43.3938 -43.3890 -43.3880 -43.3662 -43.3446 -43.3210 -43.2993 -43.2484
   -43.2028 -43.1866 -43.1454 -43.0276 -43.0160 -42.9017 -42.8478 -42.8231
   -20.6439 -20.2822 -20.1923 -20.1232 -20.0436 -19.9350 -19.8773 -19.7984
   -19.7766 -19.7491 -19.6895 -19.3783 -19.3376 -19.3021 -19.2994 -19.2894
   -19.1527 -18.9525  -9.6910  -9.5650  -9.2803  -9.1695  -9.1311  -8.9848
    -8.9031  -8.7708  -7.9561  -7.8684  -7.7099  -7.6798  -7.4509  -7.3336
    -7.2833  -7.2405  -7.1988  -7.1541  -7.1475  -7.1070  -6.8844  -6.8783
    -6.6535  -6.6234  -6.3706  -6.1980  -6.1904  -6.1585  -6.1209  -6.0010
    -5.9676  -5.7989  -5.7491  -5.4947  -5.4357  -5.3671  -5.3119  -5.1873
    -5.1709  -5.1030  -4.9371  -4.7419  -4.7215  -4.4962  -4.1512  -4.0800
    -4.0125  -4.0084  -3.9451  -3.7298  -3.6601  -3.4890  -3.4688  -3.3364
    -3.1787  -3.1501  -3.0126  -2.9694  -2.9631  -2.8965  -2.7287  -2.7279
    -2.5940  -2.5779  -2.3328  -2.1844  -1.9880  -1.5882  -1.4929  -1.3970
    -1.2654  -1.2514  -1.1550  -0.6785  -0.6219  -0.5384  -0.3571  -0.3046
     1.2637   1.5007   1.5795   1.8265   2.0869   2.7507   2.7802   3.0076
     3.1716   3.2378   3.6004   3.6433   3.6590   3.9861   4.0899   4.3143
     4.5455   4.7426   4.9324   5.1304   5.2854   5.4022   5.7080   5.8784
     6.0756   6.2527   6.3351   6.4492   6.6613   6.9504   6.9893   7.1687
     7.2197   7.2866   7.3633   7.5356   7.6005   7.7564   8.0349   8.2275
     8.3503   8.4150   8.4920   8.5634   8.8820   8.9239   9.0339   9.0916
     9.2326   9.3933   9.4599   9.8583   9.8583   9.9617  10.0884  10.2702
    10.2879  10.3922  10.3943  10.6525  10.7329  10.9696  11.0531  11.2724
    11.3635  11.3873  11.4445  11.4464  11.5372  11.6311  11.7211  11.7635
    11.9004  11.9313  11.9913  12.0739  12.1117  12.1602  12.1903  12.3226
    12.4550  12.4695  12.5353  12.5592  12.6613  12.7919  12.8250  12.9704
    12.9894  13.0127  13.0472  13.0836  13.2557  13.3330  13.3491  13.4786
    13.5749  13.5867  13.6950  13.7031  13.7762  13.8397  13.9317  13.9634
    14.0569  14.1139  14.2021  14.3284  14.3941  14.4482  14.4818  14.5191
    14.5985  14.6651  14.7160  14.8035  14.8041  14.9245  14.9581  15.0289
    15.0889  15.1922  15.2154  15.2625  15.3137  15.3576  15.4516  15.5212
    15.6917  15.7484  15.8825  15.8938  16.0305  16.1756  16.1842  16.2675
    16.2984  16.4018  16.4292  16.4949  16.4979  16.5258  16.6106  16.6695
    16.6947  16.7763  16.8372  16.9312  16.9821  17.0431  17.0824  17.2274
    17.2499  17.3598  17.3701  17.4510  17.4997  17.5394  17.5914  17.6514
    17.7530  17.8507  17.8577  17.9140  18.1587  18.2165  18.3199  18.3264
    18.3413  18.3786  18.3905  18.4713  18.5406  18.6435  18.7307  18.7731
    18.8261  18.8464  18.8688  18.9081  18.9558  19.0038  19.1688  19.2535
    19.3173  19.3936  19.4152  19.4569  19.6703  19.7089  19.7387  19.8045
    19.8709  19.8724  19.9549  20.0168  20.0676  20.1190  20.1700  20.3253
    20.3298  20.4115  20.5511  20.6883  20.7181  20.7716  20.8102  20.9610
    20.9993  21.0742  21.1098  21.1527  21.1606  21.2105  21.3078  21.4911
    21.5513  21.6680  21.6701  21.8099

          k =-0.5000 0.0000 0.0000 ( 30480 PWs)   bands (ev):

   -73.5668 -73.5668 -73.3504 -73.3504 -73.1505 -73.1505 -73.0448 -73.0447
   -43.8657 -43.8657 -43.5918 -43.5918 -43.4634 -43.4634 -43.4237 -43.4236
   -43.3875 -43.3875 -43.3819 -43.3819 -43.3131 -43.3131 -43.3058 -43.3058
   -43.1940 -43.1940 -43.0858 -43.0858 -42.9684 -42.9684 -42.8348 -42.8348
   -20.4475 -20.4475 -20.1246 -20.1246 -20.0483 -20.0483 -19.9095 -19.9094
   -19.7768 -19.7767 -19.5138 -19.5138 -19.2408 -19.2408 -19.1489 -19.1488
   -19.1300 -19.1299  -9.2044  -9.2044  -8.9153  -8.9152  -8.8676  -8.8676
    -8.6141  -8.6141  -8.4901  -8.4901  -8.2194  -8.2194  -8.1016  -8.1016
    -7.9062  -7.9062  -7.5369  -7.5369  -6.8966  -6.8966  -6.7364  -6.7364
    -6.5105  -6.5105  -6.3097  -6.3097  -6.0804  -6.0803  -5.8896  -5.8896
    -5.7723  -5.7723  -5.5008  -5.5008  -5.2854  -5.2854  -5.1665  -5.1664
    -5.0936  -5.0936  -4.6965  -4.6965  -4.5219  -4.5219  -4.1892  -4.1892
    -3.9647  -3.9647  -3.6560  -3.6560  -3.5217  -3.5216  -3.2950  -3.2950
    -3.1776  -3.1775  -3.1231  -3.1231  -3.0488  -3.0488  -2.6463  -2.6463
    -2.0949  -2.0949  -1.9263  -1.9260  -1.7593  -1.7593  -1.6513  -1.6513
    -1.3496  -1.3495  -1.1771  -1.1771  -0.6774  -0.6773  -0.2394  -0.2394
     1.2586   1.2587   2.3441   2.3441   2.6672   2.6673   2.8488   2.8488
     3.1292   3.1292   3.1563   3.1563   3.4059   3.4060   3.8289   3.8289
     4.5413   4.5413   4.8316   4.8316   5.1422   5.1422   5.5665   5.5665
     6.0953   6.0953   6.7338   6.7339   7.1526   7.1526   7.4072   7.4072
     8.0148   8.0148   8.0949   8.0950   8.2274   8.2274   8.3720   8.3720
     8.6718   8.6718   8.7126   8.7126   8.8466   8.8466   9.1361   9.1361
     9.2622   9.2622   9.4634   9.4635   9.6122   9.6122   9.9538   9.9538
    10.0466  10.0466  10.1694  10.1695  10.3919  10.3919  10.6533  10.6534
    10.7101  10.7101  10.8759  10.8760  11.0709  11.0709  11.2588  11.2589
    11.5812  11.5812  11.7026  11.7027  11.9676  11.9677  12.2513  12.2513
    12.3667  12.3668  12.5058  12.5059  12.6207  12.6208  12.7403  12.7403
    12.8194  12.8194  12.9304  12.9304  13.1137  13.1137  13.2967  13.2968
    13.5101  13.5101  13.6853  13.6853  13.8537  13.8537  14.0183  14.0183
    14.3569  14.3569  14.4242  14.4242  14.6370  14.6371  14.6576  14.6577
    14.6827  14.6828  14.9089  14.9090  14.9386  14.9387  15.2040  15.2040
    15.3402  15.3403  15.4131  15.4131  15.6989  15.6989  15.9563  15.9563
    16.1362  16.1363  16.3221  16.3222  16.3658  16.3658  16.4268  16.4268
    16.5198  16.5198  16.6271  16.6271  16.6796  16.6796  16.7265  16.7265
    16.8604  16.8605  16.9400  16.9401  16.9973  16.9973  17.1352  17.1353
    17.2463  17.2463  17.4163  17.4164  17.6732  17.6732  17.8189  17.8189
    17.9568  17.9568  18.0537  18.0538  18.2646  18.2646  18.5109  18.5109
    18.5816  18.5817  18.7653  18.7653  18.9495  18.9496  18.9863  18.9863
    19.2995  19.2996  19.3991  19.3991  19.4378  19.4378  19.4860  19.4860
    19.6323  19.6323  19.6821  19.6821  19.7528  19.7528  19.8497  19.8497
    19.9655  19.9655  20.0837  20.0838  20.2268  20.2269  20.3325  20.3325
    20.4058  20.4058  20.4873  20.4873  20.6271  20.6272  20.7472  20.7472
    20.8099  20.8100  21.1619  21.1619  21.2396  21.2396  21.3808  21.3808
    21.4680  21.4681  21.5655  21.5656

          k =-0.5000 0.2435 0.0000 ( 30444 PWs)   bands (ev):

   -73.5670 -73.5670 -73.3502 -73.3502 -73.1503 -73.1503 -73.0449 -73.0449
   -43.8657 -43.8657 -43.5909 -43.5893 -43.4633 -43.4631 -43.4239 -43.4237
   -43.3883 -43.3876 -43.3870 -43.3816 -43.3136 -43.3121 -43.3065 -43.3032
   -43.1940 -43.1939 -43.0852 -43.0852 -42.9681 -42.9680 -42.8352 -42.8351
   -20.4188 -20.4183 -20.1106 -20.1097 -20.0369 -20.0368 -19.8315 -19.8298
   -19.7384 -19.7319 -19.5209 -19.5191 -19.3464 -19.3393 -19.2610 -19.2609
   -19.1288 -19.1287  -9.1646  -9.1608  -8.8358  -8.8124  -8.7025  -8.6896
    -8.6056  -8.5986  -8.3947  -8.3910  -8.1995  -8.1776  -8.0560  -8.0483
    -7.9210  -7.8871  -7.4079  -7.3115  -6.8737  -6.8561  -6.7206  -6.7164
    -6.5331  -6.5264  -6.4766  -6.4182  -6.1980  -6.1800  -6.0088  -5.9925
    -5.8771  -5.8749  -5.6123  -5.5967  -5.4419  -5.3637  -5.2409  -5.1895
    -5.1050  -5.1015  -4.9927  -4.9315  -4.5597  -4.5342  -4.4411  -4.4232
    -4.1373  -4.0710  -3.7312  -3.7069  -3.5220  -3.4799  -3.4155  -3.3568
    -3.1103  -3.0921  -2.8649  -2.8489  -2.5762  -2.5321  -2.5178  -2.5113
    -2.2401  -2.2347  -2.1240  -2.1214  -1.6411  -1.6301  -1.5901  -1.5711
    -1.3469  -1.3308  -1.0386  -0.9139  -0.8063  -0.7920  -0.3935  -0.3221
     1.3597   1.3601   2.3755   2.4343   2.5320   2.5470   2.5786   2.6166
     2.8897   2.8921   3.2126   3.2562   3.6772   3.6886   3.9948   4.0174
     4.7387   4.7463   4.9967   4.9973   5.3456   5.3466   5.7593   5.7619
     6.1967   6.2233   6.4553   6.4659   6.7659   6.7737   7.0892   7.0943
     7.2215   7.2372   7.5099   7.5236   7.6417   7.6524   8.1125   8.1401
     8.4366   8.4435   8.5644   8.6023   8.9388   8.9518   9.1459   9.1666
     9.2950   9.3906   9.8324   9.8367  10.0841  10.1002  10.2803  10.2871
    10.4188  10.4236  10.5473  10.5612  10.7327  10.7545  10.8931  10.9144
    11.2126  11.2136  11.2479  11.2632  11.3514  11.3632  11.5626  11.5700
    11.8389  11.8407  12.1299  12.1455  12.2504  12.2801  12.4335  12.4545
    12.5041  12.5325  12.6370  12.6399  12.6549  12.6704  12.8944  12.9070
    13.0036  13.0267  13.1115  13.1459  13.3110  13.3399  13.3690  13.3912
    13.5464  13.5943  13.7128  13.7405  13.9623  14.0038  14.0474  14.0649
    14.1645  14.1864  14.3226  14.3334  14.5820  14.5824  14.6023  14.6692
    14.7214  14.7491  14.8305  14.8521  14.9894  15.0084  15.0882  15.1119
    15.1589  15.1685  15.2275  15.2492  15.3532  15.3704  15.5828  15.5982
    15.7396  15.7439  15.7854  15.8117  15.8696  15.8703  15.9856  15.9957
    16.1428  16.1447  16.3164  16.3248  16.3978  16.3980  16.5573  16.5924
    16.6173  16.7041  16.7159  16.7619  16.7809  16.7831  17.0539  17.0623
    17.1837  17.1920  17.2821  17.2840  17.4973  17.4990  17.5464  17.6498
    17.7823  17.7838  17.9101  17.9304  18.0607  18.0725  18.1884  18.2293
    18.3753  18.3786  18.4283  18.4335  18.5136  18.5204  18.7607  18.7918
    18.8308  18.8497  18.9640  18.9790  19.0632  19.0744  19.1190  19.1336
    19.3906  19.4088  19.5164  19.5260  19.6931  19.7203  19.7562  19.7570
    19.8647  19.8772  20.0584  20.0782  20.1516  20.1633  20.3261  20.3285
    20.4823  20.4840  20.7115  20.7281  20.7822  20.7863  20.9281  20.9638
    21.0870  21.0873  21.1769  21.2447  21.3600  21.3980  21.5926  21.5947
    21.6749  21.6938  21.9060  21.9098

          k =-0.5000-0.4870 0.0000 ( 30440 PWs)   bands (ev):

   -73.5672 -73.5672 -73.3500 -73.3500 -73.1501 -73.1501 -73.0451 -73.0450
   -43.8658 -43.8657 -43.5883 -43.5883 -43.4630 -43.4630 -43.4239 -43.4239
   -43.3880 -43.3880 -43.3871 -43.3871 -43.3124 -43.3124 -43.3041 -43.3041
   -43.1940 -43.1940 -43.0847 -43.0846 -42.9677 -42.9677 -42.8355 -42.8355
   -20.3886 -20.3885 -20.1014 -20.1014 -20.0252 -20.0252 -19.6760 -19.6760
   -19.6035 -19.6035 -19.5681 -19.5680 -19.5359 -19.5359 -19.3983 -19.3983
   -19.1302 -19.1302  -9.1616  -9.1616  -8.8023  -8.8022  -8.6559  -8.6559
    -8.6269  -8.6269  -8.2745  -8.2745  -7.9565  -7.9565  -7.5207  -7.5207
    -7.3849  -7.3849  -7.2900  -7.2900  -7.2637  -7.2635  -7.1596  -7.1595
    -6.7619  -6.7619  -6.5208  -6.5207  -6.3947  -6.3947  -6.2466  -6.2466
    -5.8341  -5.8341  -5.6270  -5.6270  -5.4633  -5.4632  -5.3618  -5.3618
    -5.2218  -5.2218  -4.8948  -4.8947  -4.4601  -4.4600  -4.4324  -4.4323
    -4.1626  -4.1625  -3.9751  -3.9750  -3.5266  -3.5266  -3.1416  -3.1415
    -2.9899  -2.9899  -2.8532  -2.8532  -2.7542  -2.7541  -2.4076  -2.4075
    -2.2254  -2.2253  -2.0538  -2.0538  -1.5516  -1.5516  -1.3998  -1.3997
    -1.2589  -1.2589  -0.9559  -0.9557  -0.7012  -0.7011  -0.5668  -0.5668
     1.4474   1.4476   2.1536   2.1536   2.3273   2.3274   2.6080   2.6080
     2.8582   2.8582   3.3563   3.3563   3.8117   3.8117   4.1341   4.1342
     5.1560   5.1560   5.3431   5.3432   5.6153   5.6153   5.8350   5.8350
     5.9926   5.9926   6.1243   6.1243   6.4054   6.4054   6.6093   6.6093
     6.9521   6.9521   7.2120   7.2120   7.6533   7.6533   7.9836   7.9836
     8.1295   8.1296   8.3630   8.3631   8.8759   8.8760   9.1183   9.1184
     9.2245   9.2245   9.6209   9.6210   9.9213   9.9213  10.4500  10.4501
    10.6707  10.6707  10.9504  10.9504  11.0044  11.0045  11.4100  11.4100
    11.8266  11.8267  12.0244  12.0245  12.2050  12.2050  12.2611  12.2612
    12.3625  12.3625  12.5567  12.5568  12.6521  12.6522  12.7865  12.7866
    12.9851  12.9852  13.1877  13.1878  13.2189  13.2190  13.2771  13.2771
    13.3256  13.3256  13.4421  13.4421  13.4900  13.4900  13.5680  13.5681
    13.6297  13.6297  13.6579  13.6579  13.7223  13.7223  13.7843  13.7844
    13.8297  13.8297  14.0892  14.0893  14.1332  14.1333  14.1820  14.1820
    14.3292  14.3292  14.4053  14.4053  14.5471  14.5472  14.5924  14.5924
    14.7962  14.7962  14.8631  14.8632  15.0905  15.0906  15.2058  15.2059
    15.3324  15.3324  15.4338  15.4338  15.4765  15.4765  15.5887  15.5887
    15.7866  15.7866  15.9785  15.9785  16.0649  16.0649  16.2403  16.2403
    16.3778  16.3778  16.5305  16.5305  16.8113  16.8114  16.8815  16.8815
    17.0437  17.0438  17.1946  17.1946  17.3201  17.3201  17.3708  17.3709
    17.4928  17.4928  17.6517  17.6517  17.7088  17.7088  17.8806  17.8806
    18.3225  18.3226  18.5439  18.5440  18.5838  18.5839  18.6789  18.6789
    18.8450  18.8450  18.9672  18.9673  19.0462  19.0462  19.4130  19.4131
    19.5267  19.5268  19.6258  19.6258  19.7585  19.7585  20.0399  20.0399
    20.3428  20.3428  20.4946  20.4946  20.7942  20.7943  20.8539  20.8539
    20.9206  20.9206  21.0177  21.0178  21.1054  21.1054  21.1494  21.1494
    21.2143  21.2143  21.2954  21.2954  21.4262  21.4263  21.4931  21.4932
    21.5245  21.5245  21.7195  21.7196

          k =-0.2500 0.2435 0.0000 ( 30434 PWs)   bands (ev):

   -73.5717 -73.5648 -73.3555 -73.3470 -73.1550 -73.1481 -73.0503 -73.0418
   -43.8698 -43.8612 -43.5927 -43.5922 -43.5261 -43.4297 -43.4176 -43.4164
   -43.3870 -43.3870 -43.3829 -43.3663 -43.3549 -43.3210 -43.2993 -43.2477
   -43.2025 -43.1868 -43.1468 -43.0282 -43.0161 -42.9017 -42.8465 -42.8237
   -20.6967 -20.2904 -20.1956 -20.1790 -20.1325 -19.9800 -19.8707 -19.8395
   -19.7698 -19.6973 -19.6703 -19.3814 -19.3405 -19.3073 -19.1657 -19.1547
   -19.1173 -18.9502  -9.8432  -9.4822  -9.3715  -9.3283  -9.1606  -8.9193
    -8.8252  -8.7541  -8.1178  -7.9883  -7.9785  -7.7393  -7.6558  -7.6336
    -7.5688  -7.5380  -7.3972  -7.2082  -7.1665  -6.9152  -6.8531  -6.6032
    -6.4666  -6.3685  -6.2898  -6.1815  -6.1756  -5.9755  -5.9155  -5.8700
    -5.7894  -5.7064  -5.5715  -5.4158  -5.3541  -5.2460  -5.1713  -5.1372
    -5.0340  -5.0077  -4.8578  -4.6349  -4.4896  -4.3815  -4.3528  -4.2033
    -4.1900  -3.9783  -3.9495  -3.8775  -3.6498  -3.5652  -3.4286  -3.2239
    -3.1943  -3.1393  -3.1364  -2.9489  -2.8801  -2.8096  -2.8085  -2.5747
    -2.5004  -2.4582  -2.3956  -2.3564  -1.9909  -1.9319  -1.7971  -1.5450
    -1.3206  -1.1215  -0.8690  -0.8301  -0.6640  -0.6077  -0.4273  -0.0650
     1.2078   1.3299   1.9428   2.0008   2.2288   2.4604   2.7656   3.0228
     3.2426   3.3686   3.4992   3.6232   3.7387   3.8039   3.9463   3.9714
     4.0686   4.3997   4.6322   5.0699   5.5332   5.7692   5.7926   6.0560
     6.0902   6.3588   6.5092   6.5162   6.7316   6.8559   6.9148   7.1491
     7.4501   7.5151   7.7706   7.8771   7.9250   8.2071   8.2221   8.3406
     8.4720   8.5437   8.7215   8.7255   8.8439   9.0427   9.1602   9.2338
     9.3062   9.4777   9.5243   9.7731   9.7822   9.9752   9.9777  10.0586
    10.0688  10.2817  10.3398  10.4220  10.4572  10.6023  10.6272  10.7891
    10.8339  10.8849  11.0546  11.1522  11.3194  11.3559  11.4720  11.5374
    11.5817  11.6536  11.7033  11.8154  11.8871  11.9955  12.0102  12.0707
    12.1531  12.3144  12.3976  12.4495  12.5378  12.6064  12.6962  12.7132
    12.8030  12.8974  12.9012  12.9853  13.0563  13.1360  13.2252  13.3772
    13.4301  13.4580  13.6189  13.7155  13.7370  13.7821  13.9018  14.0001
    14.0184  14.1439  14.2448  14.3452  14.3606  14.4241  14.5861  14.5862
    14.6293  14.7754  14.8520  14.9349  14.9784  15.0652  15.0992  15.1917
    15.2771  15.4050  15.4684  15.5296  15.6670  15.7368  15.7806  15.8171
    15.8308  15.9285  15.9371  15.9805  16.0346  16.0924  16.1455  16.1968
    16.2892  16.4077  16.4471  16.5531  16.5946  16.7430  16.7482  16.8428
    16.8596  16.8957  17.0266  17.0366  17.1435  17.2444  17.3386  17.4187
    17.4303  17.4949  17.5245  17.5857  17.6495  17.6589  17.7325  17.8439
    17.9010  17.9054  17.9805  18.0047  18.0636  18.1449  18.1758  18.3452
    18.3535  18.4654  18.5667  18.6453  18.6705  18.7690  18.8053  18.9011
    18.9776  19.0498  19.1286  19.1980  19.2754  19.2806  19.3971  19.4306
    19.4932  19.6474  19.6968  19.7747  19.8662  19.8677  19.9386  20.0165
    20.1012  20.2262  20.2466  20.4271  20.4497  20.5919  20.6597  20.7442
    20.8010  20.8570  20.9099  20.9420  21.0077  21.1090  21.1108  21.1367
    21.2596  21.2631  21.3281  21.3727  21.3896  21.4933  21.5226  21.6092
    21.6883  21.7156  21.8207  21.8850

     the Fermi energy is    -1.4351 ev

!    total energy              =   -2127.20686667 Ry
     Harris-Foulkes estimate   =   -2127.20686691 Ry
     estimated scf accuracy    <       0.00000061 Ry

     The total energy is the sum of the following terms:

     one-electron contribution =  -24456.54031996 Ry
     hartree contribution      =   12252.72953987 Ry
     xc contribution           =    -330.96619854 Ry
     ewald contribution        =   10403.72718313 Ry
     Hubbard energy            =       3.84229462 Ry
     smearing contrib. (-TS)   =       0.00063420 Ry

     convergence has been achieved in  41 iterations

     Forces acting on atoms (Ry/au):


     negative rho (up, down):  0.566E+00 0.000E+00
     atom    1 type  1   force =    -0.00864397   -0.00877439    0.01979290
     atom    2 type  1   force =     0.00025821    0.01301445    0.00227535
     atom    3 type  2   force =     0.00014041    0.00285451   -0.02954171
     atom    4 type  2   force =     0.00517189    0.00617657    0.00350444
     atom    5 type  1   force =    -0.00576775   -0.04741283    0.00045281
     atom    6 type  1   force =     0.00830712    0.04642948    0.00008616
     atom    7 type  1   force =    -0.00076994   -0.00230721    0.03342138
     atom    8 type  1   force =    -0.00028671   -0.00041020   -0.02757749
     atom    9 type  2   force =     0.00119979   -0.00035132    0.01064834
     atom   10 type  2   force =     0.00034860   -0.00207060    0.00580202
     atom   11 type  1   force =    -0.00190844    0.03424094   -0.00867421
     atom   12 type  1   force =     0.00157207   -0.03379470   -0.00914988
     atom   13 type  1   force =    -0.00216977    0.00043254    0.00014227
     atom   14 type  1   force =    -0.00864361   -0.00877469    0.01979529
     atom   15 type  1   force =     0.00025911    0.01301520    0.00227620
     atom   16 type  2   force =     0.00014081    0.00283558   -0.02954059
     atom   17 type  2   force =     0.00517602    0.00617667    0.00350320
     atom   18 type  1   force =    -0.00577061   -0.04740885    0.00045394
     atom   19 type  1   force =     0.00830486    0.04642723    0.00008506
     atom   20 type  1   force =    -0.00078231   -0.00230688    0.03342450
     atom   21 type  1   force =    -0.00030412   -0.00041084   -0.02757377
     atom   22 type  2   force =     0.00120090   -0.00034145    0.01060134
     atom   23 type  2   force =     0.00033203   -0.00207075    0.00580435
     atom   24 type  1   force =    -0.00191503    0.03422755   -0.00867155
     atom   25 type  1   force =     0.00156657   -0.03381169   -0.00909219
     atom   26 type  1   force =    -0.00218120    0.00043173    0.00012794
     atom   27 type  3   force =    -0.00006911   -0.00828534   -0.00083359
     atom   28 type  3   force =    -0.00007043   -0.00828524   -0.00083366
     atom   29 type  3   force =     0.00265235    0.00027702   -0.00035446
     atom   30 type  3   force =     0.00265226    0.00027754   -0.00035441

     Total force =     0.084157     Total SCF correction =     0.003181

     BFGS Geometry Optimization

     number of scf cycles    =   1
     number of bfgs steps    =   0

     energy   new            =   -2127.2068666655 Ry

     new trust radius        =       0.0334245029 bohr
     new conv_thr            =       0.0000010000 Ry


ATOMIC_POSITIONS (crystal)
O0       0.000000000   0.000000000   0.380386645    0   0   1
O0       0.000000000   0.500000000   0.402315597    0   0   1
Ru1      0.250000000   0.500000000   0.452537992    0   0   1
Ru1      0.000000000   0.000000000   0.454140228    0   0   1
O0       0.250000000   0.810000000   0.453619074    0   0   1
O0       0.250000000   0.190000000   0.453551727    0   0   1
O0       0.000000000   0.500000000   0.499429756    0   0   1
O0       0.000000000   0.000000000   0.527477354    0   0   1
Ru1      0.250000000   0.000000000   0.578863390    0   0   1
Ru1      0.000000000   0.500000000   0.569926271    0   0   1
O0       0.250000000   0.690000000   0.576116171    0   0   1
O0       0.250000000   0.310000000   0.576456639    0   0   1
O0       0.000000000   0.000000000   0.620032851    0   0   1
O0       0.500000000   0.000000000   0.380386693    0   0   1
O0       0.500000000   0.500000000   0.402315614    0   0   1
Ru1      0.750000000   0.500000000   0.452538014    0   0   1
Ru1      0.500000000   0.000000000   0.454140203    0   0   1
O0       0.750000000   0.810000000   0.453619097    0   0   1
O0       0.750000000   0.190000000   0.453551705    0   0   1
O0       0.500000000   0.500000000   0.499429818    0   0   1
O0       0.500000000   0.000000000   0.527477429    0   0   1
Ru1      0.750000000   0.000000000   0.578862448    0   0   1
Ru1      0.500000000   0.500000000   0.569926318    0   0   1
O0       0.750000000   0.690000000   0.576116224    0   0   1
O0       0.750000000   0.310000000   0.576447795    0   0   1
O0       0.500000000   0.000000000   0.620032564    0   0   1
H2      -0.000415861   0.629185618   0.381903295
H2       0.499584027   0.629185627   0.381903294
H2       0.146694930   0.028922883   0.367682897
H2       0.646694922   0.028922925   0.367682898


     Check: negative starting charge=   -0.522083
     NEW-OLD atomic charge density approx. for the potential

     Check: negative/imaginary core charge=   -0.000003    0.000000
     Check: negative starting charge=   -0.522863

     negative rho (up, down):  0.566E+00 0.000E+00
 Atomic wfc used for LDA+U Projector are NOT orthogonalized

     total cpu time spent up to now is     7874.5 secs

     per-process dynamical memory:   435.1 Mb

     Self-consistent Calculation

     iteration #  1     ecut=    40.00 Ry     beta=0.30
     Davidson diagonalization with overlap
     ethr =  1.00E-06,  avg # of iterations =  5.8
 --- enter write_ns ---
 LDA+U parameters:
U( 2)     =  8.00000000
alpha( 2) =  0.00000000
atom    3   Tr[ns(na)] =   7.29201
    eigenvalues: 
  0.496  0.544  0.682  0.939  0.985
    eigenvectors:
  0.000  0.170  0.006  0.000  0.824
  1.000  0.000  0.000  0.000  0.000
  0.000  0.006  0.980  0.000  0.014
  0.000  0.824  0.014  0.000  0.162
  0.000  0.000  0.000  1.000  0.000
    occupations:
  0.909 -0.000  0.037 -0.163 -0.001
 -0.000  0.496 -0.000 -0.000 -0.006
  0.037 -0.000  0.686 -0.005  0.003
 -0.163 -0.000 -0.005  0.617 -0.000
 -0.001 -0.006  0.003 -0.000  0.939
atom    4   Tr[ns(na)] =   7.27160
    eigenvalues: 
  0.545  0.602  0.613  0.887  0.988
    eigenvectors:
  0.005  0.977  0.001  0.000  0.018
  0.000  0.000  0.029  0.971  0.000
  0.000  0.001  0.970  0.029  0.000
  0.000  0.018  0.000  0.000  0.982
  0.995  0.005  0.000  0.000  0.000
    occupations:
  0.609 -0.002  0.000  0.051  0.004
 -0.002  0.879  0.046 -0.000 -0.002
  0.000  0.046  0.621  0.002  0.001
  0.051 -0.000  0.002  0.981  0.000
  0.004 -0.002  0.001  0.000  0.546
atom    9   Tr[ns(na)] =   7.35321
    eigenvalues: 
  0.547  0.574  0.781  0.876  0.899
    eigenvectors:
  0.000  0.134  0.005  0.520  0.340
  1.000  0.000  0.000  0.000  0.000
  0.000  0.000  0.992  0.006  0.001
  0.000  0.865  0.002  0.078  0.055
  0.000  0.000  0.001  0.396  0.603
    occupations:
  0.843  0.001 -0.009 -0.106  0.010
  0.001  0.547  0.003  0.000  0.001
 -0.009  0.003  0.781  0.001  0.002
 -0.106  0.000  0.001  0.616 -0.006
  0.010  0.001  0.002 -0.006  0.890
atom   10   Tr[ns(na)] =   7.29748
    eigenvalues: 
  0.469  0.512  0.803  0.887  0.978
    eigenvectors:
  0.985  0.000  0.000  0.000  0.015
  0.000  0.000  0.000  1.000  0.000
[...]
     Harris-Foulkes estimate   =   -2127.21759662 Ry
     estimated scf accuracy    <       0.00004326 Ry

     iteration # 62     ecut=    40.00 Ry     beta=0.30
     Davidson diagonalization with overlap
     ethr =  2.85E-09,  avg # of iterations =  3.0

     negative rho (up, down):  0.566E+00 0.000E+00

     total cpu time spent up to now is    98283.3 secs

     total energy              =   -2127.21760955 Ry
     Harris-Foulkes estimate   =   -2127.21761663 Ry
     estimated scf accuracy    <       0.00006079 Ry

     iteration # 63     ecut=    40.00 Ry     beta=0.30
     Davidson diagonalization with overlap
     ethr =  2.85E-09,  avg # of iterations =  2.0

     negative rho (up, down):  0.566E+00 0.000E+00

     total cpu time spent up to now is    98453.9 secs

     total energy              =   -2127.21761264 Ry
     Harris-Foulkes estimate   =   -2127.21761273 Ry
     estimated scf accuracy    <       0.00005647 Ry

     iteration # 64     ecut=    40.00 Ry     beta=0.30
     Davidson diagonalization with overlap
     ethr =  2.85E-09,  avg # of iterations =  2.0

     negative rho (up, down):  0.566E+00 0.000E+00

     total cpu time spent up to now is    98624.2 secs

     total energy              =   -2127.21761923 Ry
     Harris-Foulkes estimate   =   -2127.21761834 Ry
     estimated scf accuracy    <       0.00006501 Ry

     iteration # 65     ecut=    40.00 Ry     beta=0.30
     Davidson diagonalization with overlap
     ethr =  2.85E-09,  avg # of iterations =  1.0

     negative rho (up, down):  0.566E+00 0.000E+00

     total cpu time spent up to now is    98789.1 secs

     total energy              =   -2127.21756920 Ry
     Harris-Foulkes estimate   =   -2127.21761949 Ry
     estimated scf accuracy    <       0.00006706 Ry

     iteration # 66     ecut=    40.00 Ry     beta=0.30
     Davidson diagonalization with overlap
     ethr =  2.85E-09,  avg # of iterations =  3.0

     negative rho (up, down):  0.566E+00 0.000E+00

     total cpu time spent up to now is    98974.0 secs

     total energy              =   -2127.21755724 Ry
     Harris-Foulkes estimate   =   -2127.21764187 Ry
     estimated scf accuracy    <       0.00010196 Ry

     iteration # 67     ecut=    40.00 Ry     beta=0.30
     Davidson diagonalization with overlap
     ethr =  2.85E-09,  avg # of iterations =  3.0

     negative rho (up, down):  0.566E+00 0.000E+00

     total cpu time spent up to now is    99160.9 secs

     total energy              =   -2127.21754242 Ry
     Harris-Foulkes estimate   =   -2127.21767789 Ry
     estimated scf accuracy    <       0.00017506 Ry

     iteration # 68     ecut=    40.00 Ry     beta=0.30
     Davidson diagonalization with overlap
     ethr =  2.85E-09,  avg # of iterations =  3.0

     negative rho (up, down):  0.566E+00 0.000E+00

     total cpu time spent up to now is    99349.1 secs

     total energy              =   -2127.21771913 Ry
     Harris-Foulkes estimate   =   -2127.21773928 Ry
     estimated scf accuracy    <       0.00030876 Ry

     iteration # 69     ecut=    40.00 Ry     beta=0.30
     Davidson diagonalization with overlap
     ethr =  2.85E-09,  avg # of iterations =  2.0

     negative rho (up, down):  0.566E+00 0.000E+00

     total cpu time spent up to now is    99530.1 secs

     total energy              =   -2127.21355065 Ry
     Harris-Foulkes estimate   =   -2127.21772725 Ry
     estimated scf accuracy    <       0.00028007 Ry

     iteration # 70     ecut=    40.00 Ry     beta=0.30
     Davidson diagonalization with overlap
     ethr =  2.85E-09,  avg # of iterations =  4.0

     negative rho (up, down):  0.566E+00 0.000E+00

     total cpu time spent up to now is    99758.2 secs

     total energy              =   -2127.21726177 Ry
     Harris-Foulkes estimate   =   -2127.21755029 Ry
     estimated scf accuracy    <       0.00005558 Ry

     iteration # 71     ecut=    40.00 Ry     beta=0.30
     Davidson diagonalization with overlap
     ethr =  2.85E-09,  avg # of iterations =  3.0

     negative rho (up, down):  0.566E+00 0.000E+00

     total cpu time spent up to now is    99957.9 secs

     total energy              =   -2127.21669704 Ry
     Harris-Foulkes estimate   =   -2127.21749864 Ry
     estimated scf accuracy    <       0.00017884 Ry

     iteration # 72     ecut=    40.00 Ry     beta=0.30
     Davidson diagonalization with overlap
     ethr =  2.85E-09,  avg # of iterations =  4.0

     negative rho (up, down):  0.566E+00 0.000E+00

     total cpu time spent up to now is   100174.3 secs

     total energy              =   -2127.21693857 Ry
     Harris-Foulkes estimate   =   -2127.21758307 Ry
     estimated scf accuracy    <       0.00003598 Ry

     iteration # 73     ecut=    40.00 Ry     beta=0.30
     Davidson diagonalization with overlap
     ethr =  2.85E-09,  avg # of iterations =  4.0

     negative rho (up, down):  0.566E+00 0.000E+00

     total cpu time spent up to now is   100393.1 secs

     total energy              =   -2127.21759353 Ry
     Harris-Foulkes estimate   =   -2127.21764368 Ry
     estimated scf accuracy    <       0.00010996 Ry

     iteration # 74     ecut=    40.00 Ry     beta=0.30
     Davidson diagonalization with overlap
     ethr =  2.85E-09,  avg # of iterations =  3.0

     negative rho (up, down):  0.566E+00 0.000E+00

     total cpu time spent up to now is   100587.7 secs

     total energy              =   -2127.21767338 Ry
     Harris-Foulkes estimate   =   -2127.21767315 Ry
     estimated scf accuracy    <       0.00016949 Ry

     iteration # 75     ecut=    40.00 Ry     beta=0.30
     Davidson diagonalization with overlap
     ethr =  2.85E-09,  avg # of iterations =  1.0

     negative rho (up, down):  0.566E+00 0.000E+00

     total cpu time spent up to now is   100761.8 secs

     total energy              =   -2127.21764386 Ry
     Harris-Foulkes estimate   =   -2127.21767341 Ry
     estimated scf accuracy    <       0.00017218 Ry

     iteration # 76     ecut=    40.00 Ry     beta=0.30
     Davidson diagonalization with overlap
     ethr =  2.85E-09,  avg # of iterations =  3.0

     negative rho (up, down):  0.566E+00 0.000E+00

     total cpu time spent up to now is   100954.7 secs

     total energy              =   -2127.21769544 Ry
     Harris-Foulkes estimate   =   -2127.21770494 Ry
     estimated scf accuracy    <       0.00024642 Ry

     iteration # 77     ecut=    40.00 Ry     beta=0.30
     Davidson diagonalization with overlap
     ethr =  2.85E-09,  avg # of iterations =  2.0

     negative rho (up, down):  0.566E+00 0.000E+00

     total cpu time spent up to now is   101132.2 secs

     total energy              =   -2127.21769772 Ry
     Harris-Foulkes estimate   =   -2127.21769808 Ry
     estimated scf accuracy    <       0.00022789 Ry

     iteration # 78     ecut=    40.00 Ry     beta=0.30
     Davidson diagonalization with overlap
     ethr =  2.85E-09,  avg # of iterations =  2.0

     negative rho (up, down):  0.566E+00 0.000E+00

     total cpu time spent up to now is   101314.5 secs

     total energy              =   -2127.21771480 Ry
     Harris-Foulkes estimate   =   -2127.21771746 Ry
     estimated scf accuracy    <       0.00028006 Ry

     iteration # 79     ecut=    40.00 Ry     beta=0.30
     Davidson diagonalization with overlap
     ethr =  2.85E-09,  avg # of iterations =  1.0

     negative rho (up, down):  0.566E+00 0.000E+00

     total cpu time spent up to now is   101488.4 secs

     total energy              =   -2127.21642212 Ry
     Harris-Foulkes estimate   =   -2127.21771507 Ry
     estimated scf accuracy    <       0.00027275 Ry

     iteration # 80     ecut=    40.00 Ry     beta=0.30
     Davidson diagonalization with overlap
     ethr =  2.85E-09,  avg # of iterations =  4.0

     negative rho (up, down):  0.566E+00 0.000E+00

     total cpu time spent up to now is   101706.7 secs

     total energy              =   -2127.20908937 Ry
     Harris-Foulkes estimate   =   -2127.21794237 Ry
     estimated scf accuracy    <       0.00080854 Ry

     iteration # 81     ecut=    40.00 Ry     beta=0.30
     Davidson diagonalization with overlap
     ethr =  2.85E-09,  avg # of iterations =  4.2

     negative rho (up, down):  0.566E+00 0.000E+00

     total cpu time spent up to now is   101935.7 secs

     total energy              =   -2127.21750526 Ry
     Harris-Foulkes estimate   =   -2127.21756656 Ry
     estimated scf accuracy    <       0.00004759 Ry

     iteration # 82     ecut=    40.00 Ry     beta=0.30
     Davidson diagonalization with overlap
     ethr =  2.85E-09,  avg # of iterations =  3.0

     negative rho (up, down):  0.566E+00 0.000E+00

     total cpu time spent up to now is   102123.8 secs

     total energy              =   -2127.21660343 Ry
     Harris-Foulkes estimate   =   -2127.21755090 Ry
     estimated scf accuracy    <       0.00007003 Ry

     iteration # 83     ecut=    40.00 Ry     beta=0.30
     Davidson diagonalization with overlap
     ethr =  2.85E-09,  avg # of iterations =  4.0

     negative rho (up, down):  0.566E+00 0.000E+00

     total cpu time spent up to now is   102336.1 secs

     total energy              =   -2127.21519259 Ry
     Harris-Foulkes estimate   =   -2127.21742612 Ry
     estimated scf accuracy    <       0.00052884 Ry

     iteration # 84     ecut=    40.00 Ry     beta=0.30
     Davidson diagonalization with overlap
     ethr =  2.85E-09,  avg # of iterations =  4.0

     negative rho (up, down):  0.566E+00 0.000E+00

     total cpu time spent up to now is   102555.7 secs

     total energy              =   -2127.21631377 Ry
     Harris-Foulkes estimate   =   -2127.21759578 Ry
     estimated scf accuracy    <       0.00004949 Ry

     iteration # 85     ecut=    40.00 Ry     beta=0.30
     Davidson diagonalization with overlap
     ethr =  2.85E-09,  avg # of iterations =  4.0

     negative rho (up, down):  0.566E+00 0.000E+00

     total cpu time spent up to now is   102770.2 secs

     total energy              =   -2127.21761529 Ry
     Harris-Foulkes estimate   =   -2127.21770702 Ry
     estimated scf accuracy    <       0.00025777 Ry

     iteration # 86     ecut=    40.00 Ry     beta=0.30
     Davidson diagonalization with overlap
     ethr =  2.85E-09,  avg # of iterations =  3.0

     negative rho (up, down):  0.566E+00 0.000E+00

     total cpu time spent up to now is   102959.2 secs

     total energy              =   -2127.21766160 Ry
     Harris-Foulkes estimate   =   -2127.21767547 Ry
     estimated scf accuracy    <       0.00017205 Ry

     iteration # 87     ecut=    40.00 Ry     beta=0.30
     Davidson diagonalization with overlap
     ethr =  2.85E-09,  avg # of iterations =  2.0

     negative rho (up, down):  0.566E+00 0.000E+00

     total cpu time spent up to now is   103133.5 secs

     total energy              =   -2127.21726029 Ry
     Harris-Foulkes estimate   =   -2127.21766703 Ry
     estimated scf accuracy    <       0.00015788 Ry

     iteration # 88     ecut=    40.00 Ry     beta=0.30
     Davidson diagonalization with overlap
     ethr =  2.85E-09,  avg # of iterations =  3.1

     negative rho (up, down):  0.566E+00 0.000E+00

     total cpu time spent up to now is   103334.1 secs

     total energy              =   -2127.21733827 Ry
     Harris-Foulkes estimate   =   -2127.21776943 Ry
     estimated scf accuracy    <       0.00040186 Ry

     iteration # 89     ecut=    40.00 Ry     beta=0.30
     Davidson diagonalization with overlap
     ethr =  2.85E-09,  avg # of iterations =  4.0

     negative rho (up, down):  0.566E+00 0.000E+00

     total cpu time spent up to now is   103541.2 secs

     total energy              =   -2127.21757879 Ry
     Harris-Foulkes estimate   =   -2127.21791539 Ry
     estimated scf accuracy    <       0.00070948 Ry

     iteration # 90     ecut=    40.00 Ry     beta=0.30
     Davidson diagonalization with overlap
     ethr =  2.85E-09,  avg # of iterations =  3.0

     negative rho (up, down):  0.566E+00 0.000E+00

     total cpu time spent up to now is   103736.4 secs

     total energy              =   -2127.21777634 Ry
     Harris-Foulkes estimate   =   -2127.21781800 Ry
     estimated scf accuracy    <       0.00051246 Ry

     iteration # 91     ecut=    40.00 Ry     beta=0.30
     Davidson diagonalization with overlap
     ethr =  2.85E-09,  avg # of iterations =  2.0

     negative rho (up, down):  0.566E+00 0.000E+00

     total cpu time spent up to now is   103915.1 secs

     total energy              =   -2127.21676180 Ry
     Harris-Foulkes estimate   =   -2127.21779343 Ry
     estimated scf accuracy    <       0.00045849 Ry

     iteration # 92     ecut=    40.00 Ry     beta=0.30
     Davidson diagonalization with overlap
     ethr =  2.85E-09,  avg # of iterations =  4.0

     negative rho (up, down):  0.566E+00 0.000E+00

     total cpu time spent up to now is   104128.3 secs

     total energy              =   -2127.20952199 Ry
     Harris-Foulkes estimate   =   -2127.21800266 Ry
     estimated scf accuracy    <       0.00098604 Ry

     iteration # 93     ecut=    40.00 Ry     beta=0.30
     Davidson diagonalization with overlap
     ethr =  2.85E-09,  avg # of iterations =  4.2

     negative rho (up, down):  0.566E+00 0.000E+00

     total cpu time spent up to now is   104355.4 secs

     total energy              =   -2127.21751766 Ry
     Harris-Foulkes estimate   =   -2127.21759218 Ry
     estimated scf accuracy    <       0.00004312 Ry

     iteration # 94     ecut=    40.00 Ry     beta=0.30
     Davidson diagonalization with overlap
     ethr =  2.85E-09,  avg # of iterations =  3.0

     negative rho (up, down):  0.566E+00 0.000E+00

     total cpu time spent up to now is   104544.2 secs

     total energy              =   -2127.21750475 Ry
     Harris-Foulkes estimate   =   -2127.21757712 Ry
     estimated scf accuracy    <       0.00004294 Ry

     iteration # 95     ecut=    40.00 Ry     beta=0.30
     Davidson diagonalization with overlap
     ethr =  2.85E-09,  avg # of iterations =  3.0

     negative rho (up, down):  0.566E+00 0.000E+00

     total cpu time spent up to now is   104733.0 secs

     total energy              =   -2127.21743465 Ry
     Harris-Foulkes estimate   =   -2127.21756117 Ry
     estimated scf accuracy    <       0.00005371 Ry

     iteration # 96     ecut=    40.00 Ry     beta=0.30
     Davidson diagonalization with overlap
     ethr =  2.85E-09,  avg # of iterations =  3.0

     negative rho (up, down):  0.566E+00 0.000E+00

     total cpu time spent up to now is   104924.0 secs

     total energy              =   -2127.21747275 Ry
     Harris-Foulkes estimate   =   -2127.21753454 Ry
     estimated scf accuracy    <       0.00009403 Ry

     iteration # 97     ecut=    40.00 Ry     beta=0.30
     Davidson diagonalization with overlap
     ethr =  2.85E-09,  avg # of iterations =  3.0

     negative rho (up, down):  0.566E+00 0.000E+00

     total cpu time spent up to now is   105111.6 secs

     total energy              =   -2127.21751343 Ry
     Harris-Foulkes estimate   =   -2127.21751261 Ry
     estimated scf accuracy    <       0.00015472 Ry

     iteration # 98     ecut=    40.00 Ry     beta=0.30
     Davidson diagonalization with overlap
     ethr =  2.85E-09,  avg # of iterations =  1.0

     negative rho (up, down):  0.566E+00 0.000E+00

     total cpu time spent up to now is   105281.1 secs

     total energy              =   -2127.21747399 Ry
     Harris-Foulkes estimate   =   -2127.21751348 Ry
     estimated scf accuracy    <       0.00015158 Ry

     iteration # 99     ecut=    40.00 Ry     beta=0.30
     Davidson diagonalization with overlap
     ethr =  2.85E-09,  avg # of iterations =  3.0

     negative rho (up, down):  0.566E+00 0.000E+00

     total cpu time spent up to now is   105470.3 secs

     total energy              =   -2127.21747684 Ry
     Harris-Foulkes estimate   =   -2127.21754107 Ry
     estimated scf accuracy    <       0.00008416 Ry

     iteration #100     ecut=    40.00 Ry     beta=0.30
     Davidson diagonalization with overlap
     ethr =  2.85E-09,  avg # of iterations =  3.0

     negative rho (up, down):  0.566E+00 0.000E+00

     total cpu time spent up to now is   105660.7 secs

     total energy              =   -2127.21710212 Ry
     Harris-Foulkes estimate   =   -2127.21756484 Ry
     estimated scf accuracy    <       0.00004878 Ry

     End of self-consistent calculation

     convergence NOT achieved after 100 iterations: stopping

     init_run     :     99.27s CPU    102.56s WALL (       1 calls)
     electrons    :  97796.25s CPU 101555.11s WALL (      21 calls)
     update_pot   :    400.05s CPU    414.18s WALL (      20 calls)
     forces       :   2447.85s CPU   2537.90s WALL (      20 calls)

     Called by init_run:
     wfcinit      :     36.07s CPU     38.60s WALL (       1 calls)
     potinit      :      7.30s CPU      7.43s WALL (       1 calls)

     Called by electrons:
     c_bands      :  51948.57s CPU  53796.52s WALL (     576 calls)
     sum_band     :  19358.30s CPU  20234.77s WALL (     576 calls)
     v_of_rho     :    633.70s CPU    671.35s WALL (     595 calls)
     newd         :  26311.56s CPU  26789.44s WALL (     595 calls)
     mix_rho      :    122.78s CPU    126.79s WALL (     576 calls)

     Called by c_bands:
     init_us_2    :    116.18s CPU    117.31s WALL (    3642 calls)
     cegterg      :  51125.32s CPU  52634.24s WALL (    1728 calls)

     Called by *egterg:
     h_psi        :  29875.06s CPU  30843.41s WALL (    4843 calls)
     s_psi        :   2915.25s CPU   2956.34s WALL (    4966 calls)
     g_psi        :     65.28s CPU     65.33s WALL (    3112 calls)
     cdiaghg      :   4549.94s CPU   4562.22s WALL (    4774 calls)

     Called by h_psi:
     add_vuspsi   :   2869.87s CPU   2913.80s WALL (    4843 calls)
     vhpsi        :   2993.04s CPU   3032.17s WALL (    4843 calls)

     General routines
     calbec       :   6795.37s CPU   6873.93s WALL (   29585 calls)
     fft          :    993.26s CPU   1331.94s WALL (    9686 calls)
     ffts         :     10.57s CPU     11.02s WALL (    1171 calls)
     fftw         :  17426.42s CPU  18523.51s WALL ( 3119314 calls)
     interpolate  :    100.15s CPU    102.23s WALL (    1171 calls)
     davcio       :      0.30s CPU     60.54s WALL (    3708 calls)

     Parallel routines
     fft_scatter  :   7275.40s CPU   8657.80s WALL ( 3130171 calls)
     Hubbard U routines
     new_ns       :    692.79s CPU    735.69s WALL (     576 calls)
     vhpsi        :   2993.04s CPU   3032.17s WALL (    4843 calls)
     force_hub    :    679.85s CPU    704.70s WALL (      20 calls)

     PWSCF        :     1d    4h16m CPU        1d    5h21m WALL


   This run was terminated on:  12:48:10  18May2014            

=------------------------------------------------------------------------------=
   JOB DONE.
=------------------------------------------------------------------------------=
STOP 1
STOP 1
STOP 1
STOP 1
STOP 1
STOP 1
STOP 1
STOP 1
STOP 1
STOP 1
STOP 1
STOP 1
STOP 1
STOP 1
STOP 1
STOP 1
--------------------------------------------------------------------------
mpirun noticed that the job aborted, but has no info as to the process
that caused that situation.
--------------------------------------------------------------------------
---------------------------------------
Running PBS batch system epilogue script
Job id: 361770.audhumbla.fysik.dtu.dk
Username: zhonxu
Groupname: campgst
Jobname: RuO2/Eads-2-layers/bare-U-8.0
Sessionid: 29783
Resources limits: neednodes=2:ppn=8:xeon8,nodes=2:ppn=8:xeon8,walltime=48:00:00
Resources used: cput=469:11:30,mem=17128472kb,vmem=20708952kb,walltime=29:21:21
Queuename: verylong
Accounting:
This job has allocated the following 16 nodes:
a114 a114 a114 a114 a114 a114 a114 a114 a036 a036 a036 a036 a036 a036 a036 a036
Finished epilogue job 361770.audhumbla.fysik.dtu.dk for zhonxu
