
     Program PWSCF v.5.0.2 (svn rev. 9656) starts on 24Jan2014 at 14:12:22 

     This program is part of the open-source Quantum ESPRESSO suite
     for quantum simulation of materials; please cite
         "P. Giannozzi et al., J. Phys.:Condens. Matter 21 395502 (2009);
          URL http://www.quantum-espresso.org", 
     in publications or presentations arising from this work. More details at
     http://www.quantum-espresso.org/quote.php

     Parallel version (MPI), running on     4 processors
     R & G space division:  proc/nbgrp/npool/nimage =       4

     Current dimensions of program PWSCF are:
     Max number of different atomic species (ntypx) = 10
     Max number of k-points (npk) =  40000
     Max angular momentum in pseudopotentials (lmaxx) =  3
     Reading input from SnO2-v-1.00.in

     Subspace diagonalization in iterative solution of the eigenvalue problem:
     a serial algorithm will be used


     Parallelization info
     --------------------
     sticks:   dense  smooth     PW     G-vecs:    dense   smooth      PW
     Min         849     273     80                24101     4357     704
     Max         850     274     82                24104     4370     705
     Sum        3397    1093    325                96407    17453    2817



     bravais-lattice index     =            0
     lattice parameter (alat)  =       9.2556  a.u.
     unit-cell volume          =     510.9771 (a.u.)^3
     number of atoms/cell      =            6
     number of atomic types    =            2
     number of electrons       =        52.00
     number of Kohn-Sham states=           75
     kinetic-energy cutoff     =      40.0000  Ry
     charge density cutoff     =     500.0000  Ry
     convergence threshold     =      1.0E-06
     mixing beta               =       0.3000
     number of iterations used =            8  plain     mixing
     Exchange-correlation      = SLA  PW   PBE  PBE ( 1 4 3 4 0)
     EXX-fraction              =        0.00
     nstep                     =           50


     celldm(1)=   9.255616  celldm(2)=   0.000000  celldm(3)=   0.000000
     celldm(4)=   0.000000  celldm(5)=   0.000000  celldm(6)=   0.000000

     crystal axes: (cart. coord. in units of alat)
               a(1) = (   1.000000   0.000000   0.000000 )  
               a(2) = (   0.000000   1.000000   0.000000 )  
               a(3) = (   0.000000   0.000000   0.644444 )  

     reciprocal axes: (cart. coord. in units 2 pi/alat)
               b(1) = (  1.000000  0.000000  0.000000 )  
               b(2) = (  0.000000  1.000000  0.000000 )  
               b(3) = (  0.000000  0.000000  1.551724 )  


     PseudoPot. # 1 for Sn read from file:
     /home/camp/zhonxu/pseudo/sn_pbe_v1.uspp.F.UPF
     MD5 check sum: 4cf58ce39ec5d5d420df3dd08604eb00
     Pseudo is Ultrasoft + core correction, Zval = 14.0
     Generated by new atomic code, or converted to UPF format
     Using radial grid of  891 points,  6 beta functions with: 
                l(1) =   0
                l(2) =   0
                l(3) =   1
                l(4) =   1
                l(5) =   2
                l(6) =   2
     Q(r) pseudized with  6 coefficients,  rinner =    1.200   1.200   1.200
                                                       1.200   1.200

     PseudoPot. # 2 for O  read from file:
     /home/camp/zhonxu/pseudo/o_pbe_v1.01.uspp.F.UPF
     MD5 check sum: 2bcb18d16ea4b960afae9ec6d52f22d2
     Pseudo is Ultrasoft + core correction, Zval =  6.0
     Generated by new atomic code, or converted to UPF format
     Using radial grid of  737 points,  5 beta functions with: 
                l(1) =   0
                l(2) =   0
                l(3) =   1
                l(4) =   1
                l(5) =   2
     Q(r) pseudized with  8 coefficients,  rinner =    0.900   0.900   0.900
                                                       0.900   0.900

     atomic species   valence    mass     pseudopotential
        Sn0           14.00   118.71000     Sn( 1.00)
        O1             6.00    15.99940     O ( 1.00)

     Starting magnetic structure 
     atomic species   magnetization
        Sn0          0.000
        O1           0.000

      8 Sym. Ops., with inversion, found
          (note:  8 additional sym.ops. were found but ignored
           their fractional translations are incommensurate with FFT grid)


   Cartesian axes

     site n.     atom                  positions (alat units)
         1           Sn0 tau(   1) = (   0.0000000   0.0000000   0.0000000  )
         2           Sn0 tau(   2) = (   0.5000000   0.5000000   0.3222222  )
         3           O1  tau(   3) = (   0.3050000   0.3050000   0.0000000  )
         4           O1  tau(   4) = (  -0.3050000  -0.3050000   0.0000000  )
         5           O1  tau(   5) = (   0.8050000   0.1950000   0.3222222  )
         6           O1  tau(   6) = (   0.1950000   0.8050000   0.3222222  )

     number of k points=    54  Methfessel-Paxton smearing, width (Ry)=  0.0100
                       cart. coord. in units 2pi/alat
        k(    1) = (   0.0000000   0.0000000   0.0000000), wk =   0.0080000
        k(    2) = (   0.0000000   0.0000000   0.3103448), wk =   0.0160000
        k(    3) = (   0.0000000   0.0000000   0.6206897), wk =   0.0160000
        k(    4) = (   0.0000000   0.2000000   0.0000000), wk =   0.0320000
        k(    5) = (   0.0000000   0.2000000   0.3103448), wk =   0.0640000
        k(    6) = (   0.0000000   0.2000000   0.6206897), wk =   0.0640000
        k(    7) = (   0.0000000   0.4000000   0.0000000), wk =   0.0320000
        k(    8) = (   0.0000000   0.4000000   0.3103448), wk =   0.0640000
        k(    9) = (   0.0000000   0.4000000   0.6206897), wk =   0.0640000
        k(   10) = (   0.2000000   0.2000000   0.0000000), wk =   0.0160000
        k(   11) = (   0.2000000   0.2000000   0.3103448), wk =   0.0320000
        k(   12) = (   0.2000000   0.2000000   0.6206897), wk =   0.0320000
        k(   13) = (   0.2000000   0.4000000   0.0000000), wk =   0.0320000
        k(   14) = (   0.2000000   0.4000000   0.3103448), wk =   0.0640000
        k(   15) = (   0.2000000   0.4000000   0.6206897), wk =   0.0640000
        k(   16) = (   0.4000000   0.4000000   0.0000000), wk =   0.0160000
        k(   17) = (   0.4000000   0.4000000   0.3103448), wk =   0.0320000
        k(   18) = (   0.4000000   0.4000000   0.6206897), wk =   0.0320000
        k(   19) = (  -0.2000000   0.2000000   0.0000000), wk =   0.0160000
        k(   20) = (  -0.2000000   0.2000000  -0.3103448), wk =   0.0320000
        k(   21) = (  -0.2000000   0.2000000  -0.6206897), wk =   0.0320000
        k(   22) = (  -0.2000000   0.4000000   0.0000000), wk =   0.0320000
        k(   23) = (  -0.2000000   0.4000000  -0.3103448), wk =   0.0640000
        k(   24) = (  -0.2000000   0.4000000  -0.6206897), wk =   0.0640000
        k(   25) = (  -0.4000000   0.4000000   0.0000000), wk =   0.0160000
        k(   26) = (  -0.4000000   0.4000000  -0.3103448), wk =   0.0320000
        k(   27) = (  -0.4000000   0.4000000  -0.6206897), wk =   0.0320000
        k(   28) = (   0.0000000   0.0000000   0.0000000), wk =   0.0080000
        k(   29) = (   0.0000000   0.0000000   0.3103448), wk =   0.0160000
        k(   30) = (   0.0000000   0.0000000   0.6206897), wk =   0.0160000
        k(   31) = (   0.0000000   0.2000000   0.0000000), wk =   0.0320000
        k(   32) = (   0.0000000   0.2000000   0.3103448), wk =   0.0640000
        k(   33) = (   0.0000000   0.2000000   0.6206897), wk =   0.0640000
        k(   34) = (   0.0000000   0.4000000   0.0000000), wk =   0.0320000
        k(   35) = (   0.0000000   0.4000000   0.3103448), wk =   0.0640000
        k(   36) = (   0.0000000   0.4000000   0.6206897), wk =   0.0640000
        k(   37) = (   0.2000000   0.2000000   0.0000000), wk =   0.0160000
        k(   38) = (   0.2000000   0.2000000   0.3103448), wk =   0.0320000
        k(   39) = (   0.2000000   0.2000000   0.6206897), wk =   0.0320000
        k(   40) = (   0.2000000   0.4000000   0.0000000), wk =   0.0320000
        k(   41) = (   0.2000000   0.4000000   0.3103448), wk =   0.0640000
        k(   42) = (   0.2000000   0.4000000   0.6206897), wk =   0.0640000
        k(   43) = (   0.4000000   0.4000000   0.0000000), wk =   0.0160000
        k(   44) = (   0.4000000   0.4000000   0.3103448), wk =   0.0320000
        k(   45) = (   0.4000000   0.4000000   0.6206897), wk =   0.0320000
        k(   46) = (  -0.2000000   0.2000000   0.0000000), wk =   0.0160000
        k(   47) = (  -0.2000000   0.2000000  -0.3103448), wk =   0.0320000
        k(   48) = (  -0.2000000   0.2000000  -0.6206897), wk =   0.0320000
        k(   49) = (  -0.2000000   0.4000000   0.0000000), wk =   0.0320000
        k(   50) = (  -0.2000000   0.4000000  -0.3103448), wk =   0.0640000
        k(   51) = (  -0.2000000   0.4000000  -0.6206897), wk =   0.0640000
        k(   52) = (  -0.4000000   0.4000000   0.0000000), wk =   0.0160000
        k(   53) = (  -0.4000000   0.4000000  -0.3103448), wk =   0.0320000
        k(   54) = (  -0.4000000   0.4000000  -0.6206897), wk =   0.0320000

     Dense  grid:    96407 G-vectors     FFT dimensions: (  72,  72,  45)

     Smooth grid:    17453 G-vectors     FFT dimensions: (  40,  40,  25)

     Largest allocated arrays     est. size (Mb)     dimensions
        Kohn-Sham Wavefunctions         0.63 Mb     (    550,   75)
        NL pseudopotentials             0.74 Mb     (    550,   88)
        Each V/rho on FFT grid          1.90 Mb     (  62208,   2)
        Each G-vector array             0.18 Mb     (  24104)
        G-vector shells                 0.18 Mb     (  24104)
     Largest temporary arrays     est. size (Mb)     dimensions
        Auxiliary wavefunctions         2.52 Mb     (    550,  300)
        Each subspace H/S matrix        1.37 Mb     ( 300, 300)
        Each <psi_i|beta_j> matrix      0.10 Mb     (     88,   75)
        Arrays for rho mixing           7.59 Mb     (  62208,   8)

     Check: negative/imaginary core charge=   -0.000004    0.000000

     Initial potential from superposition of free atoms

     starting charge   49.99990, renormalised to   52.00000
     Starting wfc are   34 randomized atomic wfcs

     total cpu time spent up to now is       16.9 secs

     per-process dynamical memory:    66.2 Mb

     Self-consistent Calculation

     iteration #  1     ecut=    40.00 Ry     beta=0.30
     Davidson diagonalization with overlap
     ethr =  1.00E-02,  avg # of iterations =  5.1

     total cpu time spent up to now is      100.3 secs

     total energy              =    -455.38198434 Ry
     Harris-Foulkes estimate   =    -456.15574431 Ry
     estimated scf accuracy    <       1.67429489 Ry

     total magnetization       =    -0.00 Bohr mag/cell
     absolute magnetization    =     0.00 Bohr mag/cell

     iteration #  2     ecut=    40.00 Ry     beta=0.30
     Davidson diagonalization with overlap
     ethr =  3.22E-03,  avg # of iterations =  1.0

     total cpu time spent up to now is      136.6 secs

     total energy              =    -455.50724106 Ry
     Harris-Foulkes estimate   =    -455.59208007 Ry
     estimated scf accuracy    <       0.18948070 Ry

     total magnetization       =     0.00 Bohr mag/cell
     absolute magnetization    =     0.00 Bohr mag/cell

     iteration #  3     ecut=    40.00 Ry     beta=0.30
     Davidson diagonalization with overlap
     ethr =  3.64E-04,  avg # of iterations =  2.2

     total cpu time spent up to now is      175.9 secs

     total energy              =    -455.50418813 Ry
     Harris-Foulkes estimate   =    -455.52268541 Ry
     estimated scf accuracy    <       0.03962434 Ry

     total magnetization       =    -0.00 Bohr mag/cell
     absolute magnetization    =     0.00 Bohr mag/cell

     iteration #  4     ecut=    40.00 Ry     beta=0.30
     Davidson diagonalization with overlap
     ethr =  7.62E-05,  avg # of iterations =  2.7

     total cpu time spent up to now is      216.6 secs

     total energy              =    -455.50816483 Ry
     Harris-Foulkes estimate   =    -455.50876339 Ry
     estimated scf accuracy    <       0.00292052 Ry

     total magnetization       =    -0.00 Bohr mag/cell
     absolute magnetization    =     0.00 Bohr mag/cell

     iteration #  5     ecut=    40.00 Ry     beta=0.30
     Davidson diagonalization with overlap
     ethr =  5.62E-06,  avg # of iterations =  3.1

     total cpu time spent up to now is      260.5 secs

     total energy              =    -455.50838448 Ry
     Harris-Foulkes estimate   =    -455.50839994 Ry
     estimated scf accuracy    <       0.00009581 Ry

     total magnetization       =    -0.00 Bohr mag/cell
     absolute magnetization    =     0.00 Bohr mag/cell

     iteration #  6     ecut=    40.00 Ry     beta=0.30
     Davidson diagonalization with overlap
     ethr =  1.84E-07,  avg # of iterations =  2.0

     total cpu time spent up to now is      302.3 secs

     total energy              =    -455.50841523 Ry
     Harris-Foulkes estimate   =    -455.50839841 Ry
     estimated scf accuracy    <       0.00001654 Ry

     total magnetization       =    -0.00 Bohr mag/cell
     absolute magnetization    =     0.00 Bohr mag/cell

     iteration #  7     ecut=    40.00 Ry     beta=0.30
     Davidson diagonalization with overlap
     ethr =  3.18E-08,  avg # of iterations =  1.0

     total cpu time spent up to now is      340.0 secs

     End of self-consistent calculation

 ------ SPIN UP ------------


          k = 0.0000 0.0000 0.0000 (  2177 PWs)   bands (ev):

   -12.3527 -11.7495 -11.4906 -11.4491 -11.4490 -11.3598 -11.3595 -11.2938
   -11.2757 -11.2757  -9.9451  -8.2793  -8.2793  -6.7738   0.6417   4.6654
     4.6654   5.2132   5.8013   6.6471   6.8625   7.5688   7.5689   7.9537
     7.9537   8.7290   9.4870  14.7819  15.0453  15.0453  18.7926  19.2594
    20.0284  20.0284  20.7809  20.9707  23.4104  26.0316  27.1717  27.2525
    28.1337  28.1337  28.3780  28.3780  28.9364  28.9364  29.0913  29.0927
    29.9968  30.6289  30.8634  31.7546  33.7431  33.7431  35.7234  35.7235
    35.7897  36.7958  38.0263  38.1822  38.1822  39.9921  40.0769  40.1785
    41.5065  41.5251  41.5251  41.9772  41.9772  42.2162  44.0439  44.2008
    45.0821  45.0821  45.8783

          k = 0.0000 0.0000 0.3103 (  2196 PWs)   bands (ev):

   -12.1797 -11.7522 -11.7522 -11.5759 -11.4238 -11.3725 -11.3467 -11.3184
   -11.3184 -11.2935  -9.7150  -7.7583  -7.7582  -7.0150   0.7059   4.8000
     4.8864   5.0136   5.0137   6.0631   6.2727   6.3803   6.3803   7.9569
     7.9569   8.4473  11.4199  15.2551  16.4840  16.4840  17.5161  19.9829
    19.9829  20.2006  20.2091  20.9312  23.0208  23.5930  24.6097  24.6097
    28.0147  28.7601  28.8837  29.0132  29.0132  29.0923  29.0959  32.2865
    32.3385  32.9642  32.9642  33.5899  33.5899  34.2303  34.2303  34.5039
    35.0728  37.0539  38.0259  38.5550  39.2457  39.2457  39.7720  40.4654
    40.6787  40.6787  41.8228  42.4069  43.3560  43.3560  43.3954  43.6306
    44.8275  44.8275  45.7302

          k = 0.0000 0.0000 0.6207 (  2196 PWs)   bands (ev):

   -12.1370 -12.1369 -11.8243 -11.5557 -11.3775 -11.3775 -11.3194 -11.2991
   -11.2857 -11.2661  -8.9236  -7.8057  -6.9885  -6.9885   1.1518   2.5517
     4.6508   4.7775   4.7775   5.3583   5.9304   5.9304   6.7750   7.6578
     7.6578   7.6953  13.5369  14.9084  17.3657  18.6111  18.6112  18.6827
    19.6790  19.6790  21.0148  21.3279  21.7310  22.6664  22.8128  22.8128
    28.3776  28.6954  28.6954  29.0923  29.0929  30.4708  30.4784  32.5833
    32.7184  32.9893  32.9893  33.5065  34.4862  34.4862  36.8621  37.4149
    37.4149  37.8171  37.8171  38.0561  38.7293  38.9363  39.5790  40.6032
    41.1358  41.2615  41.2903  41.2903  42.3348  42.3348  44.8744  45.7771
    45.7771  46.1525  46.3156

          k = 0.0000 0.2000 0.0000 (  2175 PWs)   bands (ev):

   -12.3026 -11.8057 -11.4877 -11.4470 -11.4469 -11.3994 -11.3528 -11.2993
   -11.2781 -11.2780  -9.8252  -8.5021  -8.0936  -6.8599   0.8995   3.9774
     4.8771   5.3429   5.9979   6.6534   6.9210   7.2510   7.5792   7.5997
     7.9773   8.5438  10.3902  14.2724  15.2305  15.4533  18.9911  19.5935
    19.6966  20.1508  20.8801  20.9813  22.8906  25.2731  26.1873  26.3838
    27.8617  28.2085  28.4691  28.7465  28.7806  29.0898  29.0934  29.1398
    30.0082  31.7960  32.1386  32.6605  33.1178  34.0684  35.0720  35.4501
    35.7883  37.0695  37.9007  38.0467  39.0352  39.6939  39.7388  40.4471
    41.3668  41.6397  42.0783  42.0881  42.0964  42.8604  43.3917  43.6443
    45.0217  45.4441  45.8575

          k = 0.0000 0.2000 0.3103 (  2187 PWs)   bands (ev):

   -12.1527 -11.8245 -11.7307 -11.5760 -11.4195 -11.3755 -11.3418 -11.3172
   -11.3147 -11.2969  -9.5913  -8.0793  -7.6290  -6.9538   0.9700   4.0877
     4.3455   4.8200   5.7550   5.9735   6.1811   6.6839   6.9031   7.8185
     7.9361   8.3898  11.7872  14.9262  16.6035  16.6462  17.6088  19.3875
    20.0578  20.4064  20.4729  20.9172  22.3773  23.7484  23.8336  25.6583
    27.4411  28.1695  28.8344  29.0911  29.0938  29.4015  29.4872  31.3470
    32.0704  32.2428  33.0428  33.1007  34.2874  34.4378  34.6908  35.8244
    35.9943  36.9827  37.2421  38.8178  39.2413  39.6738  39.7276  40.0954
    40.5343  41.1034  41.2809  42.5748  42.7924  43.3407  44.1807  44.4129
    45.3703  45.4678  46.3986

          k = 0.0000 0.2000 0.6207 (  2190 PWs)   bands (ev):

   -12.2009 -12.1867 -11.7190 -11.5102 -11.3805 -11.3778 -11.3160 -11.2998
   -11.2816 -11.2655  -8.8970  -8.0353  -6.9258  -6.8737   1.3243   2.4850
     4.0077   4.4030   4.8224   4.8778   6.5531   6.6463   6.9730   7.6232
     7.7303   7.7692  13.6675  14.8574  16.9259  17.5066  18.8579  19.2703
    19.8399  19.9476  21.0071  21.1277  21.6502  21.8637  22.8935  23.9670
    27.7473  28.3716  29.0921  29.0921  29.6402  30.2969  31.1995  31.4287
    32.0290  32.3292  33.7659  33.7759  34.4009  34.7939  35.0412  36.4169
    37.7464  37.9379  38.4238  38.4883  39.3524  39.3925  40.2728  40.3812
    41.1447  41.3028  41.9275  42.4133  42.6324  43.5429  44.9713  45.0313
    45.5689  46.3476  46.3596

          k = 0.0000 0.4000 0.0000 (  2166 PWs)   bands (ev):

   -12.1619 -11.9685 -11.4773 -11.4521 -11.4434 -11.4434 -11.3351 -11.3146
   -11.2821 -11.2820  -9.4839  -8.9911  -7.6488  -7.1700   1.6466   2.7586
     5.4438   5.7005   6.1909   6.2625   6.5041   6.9806   7.6036   7.6189
     8.0427   8.2025  11.8786  13.2764  15.7004  15.8606  18.9593  19.0819
    20.4959  20.6232  20.8648  21.6099  21.7211  23.0850  26.1343  26.6144
    27.1970  27.5166  28.3487  28.6461  28.9369  29.0948  29.1056  29.4082
    29.9354  31.6998  32.9977  33.3455  34.2275  35.2961  35.7361  35.9102
    36.2879  36.6458  36.9960  37.6991  38.8179  39.8189  40.1749  40.8169
    41.0091  41.0505  41.7121  42.7634  42.8593  42.9150  43.1772  43.4249
    44.2918  45.7551  45.9397

          k = 0.0000 0.4000 0.3103 (  2180 PWs)   bands (ev):

   -12.0746 -11.9562 -11.6750 -11.6115 -11.4072 -11.3896 -11.3298 -11.3176
   -11.3127 -11.3048  -9.2231  -8.6707  -7.3269  -7.0426   1.7209   2.8333
     4.2040   4.4231   5.9563   6.0902   6.6924   7.1493   7.2457   7.4252
     7.9254   8.1429  12.7900  14.0067  16.9962  17.0134  17.6746  18.3271
    20.4642  20.6384  20.8679  21.1054  21.6597  22.3575  24.5392  26.0367
    27.0423  27.7311  29.0914  29.0934  29.3643  29.4342  29.5265  30.5436
    31.1932  31.9692  32.7586  33.7099  34.0703  34.5279  35.2795  35.9369
    36.5761  37.2215  38.5416  38.8522  39.4735  39.8503  40.3686  40.4428
    40.8779  41.5736  41.6059  41.9964  42.0872  43.6762  44.7829  44.9685
    45.0509  45.4362  46.1134

          k = 0.0000 0.4000 0.6207 (  2190 PWs)   bands (ev):

   -12.2647 -12.2560 -11.5585 -11.4808 -11.3821 -11.3767 -11.3090 -11.3028
   -11.2736 -11.2674  -8.7552  -8.4392  -6.8088  -6.7696   1.7859   2.2686
     3.4747   3.5697   4.8002   4.8163   7.0260   7.1422   7.4000   7.7521
     7.7576   7.9374  14.0812  14.6133  16.3868  16.5245  19.1376  19.3360
    20.1936  20.2843  20.8443  20.9988  21.1208  21.6103  23.5980  24.4097
    28.1329  28.5046  29.0897  29.0916  29.9136  30.0244  30.4063  30.8510
    31.1782  31.9270  32.7823  33.2782  34.6502  35.6405  35.8785  36.0562
    38.0835  38.1989  38.3428  38.7877  39.5291  39.6091  39.8373  40.6389
    41.0832  41.5380  43.3063  43.5706  44.2281  44.5959  45.0094  45.3659
    46.4446  46.5214  46.9730

          k = 0.2000 0.2000 0.0000 (  2153 PWs)   bands (ev):

   -12.2666 -11.8625 -11.4842 -11.4496 -11.4432 -11.4226 -11.3469 -11.3035
   -11.2821 -11.2754  -9.6957  -8.3232  -8.3113  -6.9792   1.1726   3.8753
     4.7030   5.4556   6.1502   6.5178   6.8221   7.0566   7.5492   7.6206
     7.9120   8.4045  11.0028  14.0087  15.5027  15.5941  18.8800  19.6213
    19.8770  20.2309  20.9333  21.1929  22.5216  24.8950  25.9791  26.3186
    26.4239  27.2942  27.6812  29.0085  29.0904  29.0945  29.8850  30.0662
    30.8314  31.3426  32.6750  33.7190  33.8577  34.2158  34.3873  34.8422
    35.3625  36.8274  38.2574  38.4480  38.6045  38.6728  40.6050  40.8806
    41.2824  41.4689  42.4503  42.5771  42.7523  43.4773  43.5421  43.5425
    44.2389  44.9847  46.0086

          k = 0.2000 0.2000 0.3103 (  2186 PWs)   bands (ev):

   -12.1273 -11.8417 -11.7542 -11.5882 -11.4190 -11.3773 -11.3377 -11.3181
   -11.3145 -11.3000  -9.4555  -8.0551  -7.7864  -6.9701   1.2158   3.4411
     4.6717   5.0829   5.3581   5.8307   6.2394   6.8174   7.2430   7.6737
     7.9270   8.3597  12.0964  14.6046  16.7642  16.7912  17.5661  19.6061
    19.6172  20.4937  20.8480  20.8941  21.8728  23.7764  24.2338  25.2960
    27.0806  28.0985  28.4777  29.0702  29.0911  29.1769  29.6639  30.8054
    31.5875  32.9734  33.3991  33.5498  33.7734  34.8909  35.2469  35.6985
    36.3781  36.6301  37.7223  38.6753  38.8579  39.2802  40.0915  40.3377
    40.9888  41.2751  41.5480  42.2956  42.7319  43.3008  44.4166  44.6955
    45.8010  45.8761  46.4402

          k = 0.2000 0.2000 0.6207 (  2199 PWs)   bands (ev):

   -12.2603 -12.1400 -11.7348 -11.4762 -11.3811 -11.3797 -11.3136 -11.3004
   -11.2791 -11.2661  -8.8470  -8.0944  -7.0108  -6.7764   1.3421   2.3587
     3.6387   4.4591   4.5360   5.6352   5.9199   7.1428   7.2412   7.6673
     7.7305   7.8293  13.6147  14.6336  16.3970  18.3492  18.3506  19.2545
    19.5901  20.2855  21.1062  21.1128  21.6773  22.0706  22.4550  24.8617
    27.3413  27.7250  29.0623  29.0920  29.1311  30.1566  31.1085  31.7124
    32.2281  32.3930  33.5859  33.9189  34.6655  34.8218  35.1382  35.7296
    37.1128  37.5989  38.9017  39.2240  39.6149  40.0028  40.0919  41.1574
    41.3151  41.5146  41.9665  42.1811  42.3850  44.4607  44.4826  45.4781
    46.2397  46.3613  46.8593

          k = 0.2000 0.4000 0.0000 (  2163 PWs)   bands (ev):

   -12.1612 -12.0066 -11.4743 -11.4554 -11.4477 -11.4437 -11.3322 -11.3156
   -11.2819 -11.2777  -9.3318  -8.8170  -7.8631  -7.3480   1.9313   2.9785
     5.1672   5.7628   5.9863   6.1687   6.5625   6.9855   7.5595   7.6004
     7.9370   8.1063  12.1952  13.3076  15.8449  15.9382  18.8338  19.1372
    20.5776  20.6343  20.8832  21.6305  21.9222  23.1295  26.1095  26.3152
    26.6845  26.7008  27.1881  27.8605  29.0939  29.0943  30.0845  30.4936
    31.0674  31.8256  32.6926  33.7576  34.4877  34.9126  35.1409  35.8014
    35.9522  36.3862  36.9483  37.3655  39.0030  39.7214  40.3852  41.4455
    41.6923  42.0572  42.1494  42.7723  42.9514  43.0595  43.1842  43.7094
    44.5109  45.2866  45.3355

          k = 0.2000 0.4000 0.3103 (  2183 PWs)   bands (ev):

   -12.0540 -11.9449 -11.7129 -11.6403 -11.4107 -11.3934 -11.3278 -11.3188
   -11.3141 -11.3072  -9.0701  -8.5256  -7.5257  -7.1680   1.8712   2.6983
     4.5179   4.6279   5.7764   5.8909   6.4315   7.1768   7.2463   7.4859
     7.9355   8.1719  12.8997  13.8442  16.9884  17.1059  17.7306  18.6098
    20.1151  20.5753  20.9272  21.1061  21.8897  23.0532  24.4000  25.5551
    26.5551  27.3098  28.5741  28.9160  29.0917  29.0950  29.7473  30.2280
    31.9608  32.9144  33.3182  33.6945  33.8256  34.1447  35.6465  36.2843
    36.8264  37.2659  37.7703  38.2690  39.6797  40.1958  40.4187  40.9065
    41.2833  41.6006  41.7463  42.1970  42.8962  43.3804  44.1188  44.7966
    45.0079  45.1767  46.1789

          k = 0.2000 0.4000 0.6207 (  2190 PWs)   bands (ev):

   -12.2616 -12.1965 -11.6395 -11.5116 -11.3822 -11.3798 -11.3082 -11.3031
   -11.2737 -11.2692  -8.6522  -8.3403  -6.9308  -6.7949   1.4933   1.8796
     3.8250   4.1629   4.5424   5.0488   6.8339   7.3455   7.4813   7.6570
     7.8111   7.9093  13.6391  14.0179  16.5664  17.3324  19.0264  19.2862
    19.7189  20.1479  20.9818  21.1487  21.6948  22.0415  23.3960  24.9623
    27.2550  27.5246  28.2352  29.0914  29.0945  29.5958  30.7050  31.5088
    31.9441  32.1086  33.5106  33.8516  34.9343  35.2763  35.8756  36.1831
    37.2525  37.9644  38.1875  39.4292  39.5209  39.9573  40.1807  41.0344
    41.1872  41.4908  42.7070  43.7199  43.9947  44.3120  44.8406  45.0829
    46.4473  46.6055  46.9969

          k = 0.4000 0.4000 0.0000 (  2179 PWs)   bands (ev):

   -12.1419 -12.0839 -11.4681 -11.4616 -11.4505 -11.4482 -11.3256 -11.3192
   -11.2775 -11.2750  -8.9198  -8.3721  -8.3631  -7.8097   2.6329   3.2053
     4.8243   5.3117   5.9174   6.0782   6.7480   6.9361   7.5167   7.5431
     7.8219   7.8982  12.8143  13.2386  16.0367  16.0679  18.8826  19.0834
    20.7638  20.9784  21.0499  21.3621  21.9570  22.4829  25.5579  25.7854
    26.6716  26.8558  27.0636  28.1830  29.0525  29.0919  29.2495  30.3913
    30.8460  31.9351  33.3876  34.2019  34.2292  34.5949  35.5407  35.8911
    35.9761  36.7800  36.8964  37.0981  39.8309  40.3304  40.6945  41.7676
    42.0080  42.4657  42.5501  43.0877  43.3190  43.3463  43.4408  43.7133
    44.4020  44.6855  44.8251

          k = 0.4000 0.4000 0.3103 (  2182 PWs)   bands (ev):

   -11.9980 -11.9420 -11.7572 -11.7115 -11.4109 -11.4038 -11.3228 -11.3184
   -11.3163 -11.3120  -8.6746  -8.3056  -7.8318  -7.5217   2.1963   2.4810
     4.8637   5.1866   5.5687   5.6546   6.0602   6.5946   7.5320   7.7774
     7.8545   8.0758  13.1845  13.5243  17.0256  17.0704  18.2833  19.0271
    19.4572  20.0525  21.1328  21.1438  23.0538  24.0057  24.3019  24.6246
    25.5335  25.8791  28.6656  28.9451  29.0881  29.0945  29.8349  30.1741
    32.0062  32.3589  32.8877  33.2637  34.6962  35.1657  35.9088  36.6828
    37.2165  37.2393  37.6848  38.0392  40.4505  40.5490  40.9653  41.3846
    41.7693  41.9990  42.3225  42.6449  42.9259  43.1586  43.7370  44.0691
    44.6499  44.9948  45.2126

          k = 0.4000 0.4000 0.6207 (  2169 PWs)   bands (ev):

   -12.1986 -12.1446 -11.7165 -11.6319 -11.3803 -11.3795 -11.3064 -11.3044
   -11.2743 -11.2725  -8.4028  -8.2403  -7.0465  -6.9442   1.2564   1.3906
     4.2030   4.2127   4.9539   5.9822   6.1009   7.0519   7.6961   7.7539
     7.8712   7.9417  13.1797  13.2920  17.1489  17.6026  18.9993  19.2356
    19.4687  19.6863  21.1813  21.3536  22.8215  23.1627  23.3489  25.0614
    25.9790  26.1737  27.3855  28.3490  29.0927  29.0933  31.0825  31.6491
    32.4649  32.5790  33.7943  34.2619  35.1454  35.5624  36.1281  36.4952
    36.6182  37.7833  38.4054  38.6714  40.0924  40.2211  41.0443  41.5869
    41.6382  42.3442  42.4698  42.8799  43.2311  44.0819  44.6238  45.6559
    45.9579  46.3111  46.9535

          k =-0.2000 0.2000 0.0000 (  2153 PWs)   bands (ev):

   -12.2666 -11.8625 -11.4842 -11.4496 -11.4432 -11.4226 -11.3469 -11.3035
   -11.2821 -11.2754  -9.6957  -8.3232  -8.3112  -6.9792   1.1726   3.8753
     4.7031   5.4556   6.1502   6.5177   6.8221   7.0567   7.5492   7.6206
     7.9120   8.4045  11.0028  14.0087  15.5027  15.5941  18.8800  19.6213
    19.8770  20.2309  20.9333  21.1929  22.5216  24.8950  25.9791  26.3186
    26.4239  27.2942  27.6812  29.0085  29.0904  29.0945  29.8850  30.0662
    30.8314  31.3426  32.6750  33.7190  33.8577  34.2158  34.3873  34.8421
    35.3625  36.8274  38.2574  38.4480  38.6045  38.6728  40.6050  40.8806
    41.2824  41.4689  42.4503  42.5771  42.7523  43.4773  43.5421  43.5425
    44.2389  44.9847  46.0086

          k =-0.2000 0.2000-0.3103 (  2186 PWs)   bands (ev):

   -12.1273 -11.8417 -11.7542 -11.5882 -11.4190 -11.3773 -11.3377 -11.3181
   -11.3145 -11.3000  -9.4555  -8.0551  -7.7864  -6.9701   1.2158   3.4411
     4.6717   5.0829   5.3581   5.8308   6.2394   6.8175   7.2430   7.6737
     7.9270   8.3597  12.0964  14.6046  16.7642  16.7912  17.5661  19.6061
    19.6173  20.4937  20.8480  20.8941  21.8728  23.7764  24.2338  25.2960
    27.0806  28.0985  28.4777  29.0702  29.0911  29.1769  29.6639  30.8054
    31.5875  32.9734  33.3991  33.5498  33.7734  34.8909  35.2469  35.6984
    36.3781  36.6301  37.7223  38.6753  38.8579  39.2802  40.0915  40.3377
    40.9889  41.2751  41.5480  42.2956  42.7319  43.3008  44.4166  44.6955
    45.8010  45.8760  46.4402

          k =-0.2000 0.2000-0.6207 (  2199 PWs)   bands (ev):

   -12.2603 -12.1399 -11.7348 -11.4762 -11.3811 -11.3797 -11.3136 -11.3004
   -11.2791 -11.2661  -8.8471  -8.0944  -7.0108  -6.7764   1.3421   2.3587
     3.6387   4.4591   4.5360   5.6352   5.9199   7.1428   7.2412   7.6673
     7.7305   7.8293  13.6146  14.6336  16.3970  18.3492  18.3506  19.2545
    19.5901  20.2855  21.1062  21.1128  21.6773  22.0706  22.4550  24.8617
    27.3413  27.7250  29.0623  29.0920  29.1311  30.1566  31.1085  31.7124
    32.2281  32.3930  33.5859  33.9189  34.6655  34.8218  35.1382  35.7296
    37.1128  37.5989  38.9017  39.2240  39.6149  40.0028  40.0919  41.1574
    41.3151  41.5146  41.9665  42.1811  42.3850  44.4607  44.4826  45.4781
    46.2397  46.3614  46.8593

          k =-0.2000 0.4000 0.0000 (  2163 PWs)   bands (ev):

   -12.1612 -12.0066 -11.4743 -11.4554 -11.4477 -11.4437 -11.3322 -11.3156
   -11.2819 -11.2777  -9.3318  -8.8170  -7.8631  -7.3480   1.9313   2.9785
     5.1673   5.7628   5.9863   6.1687   6.5625   6.9855   7.5595   7.6003
     7.9370   8.1063  12.1952  13.3076  15.8449  15.9382  18.8338  19.1372
    20.5776  20.6343  20.8832  21.6305  21.9221  23.1295  26.1095  26.3152
    26.6845  26.7008  27.1881  27.8605  29.0940  29.0943  30.0845  30.4936
    31.0674  31.8256  32.6926  33.7576  34.4877  34.9126  35.1409  35.8014
    35.9522  36.3862  36.9483  37.3655  39.0030  39.7214  40.3852  41.4455
    41.6923  42.0572  42.1494  42.7723  42.9514  43.0595  43.1842  43.7094
    44.5109  45.2866  45.3355

          k =-0.2000 0.4000-0.3103 (  2183 PWs)   bands (ev):

   -12.0540 -11.9449 -11.7129 -11.6403 -11.4107 -11.3934 -11.3278 -11.3188
   -11.3141 -11.3072  -9.0701  -8.5256  -7.5257  -7.1680   1.8712   2.6983
     4.5179   4.6279   5.7764   5.8909   6.4315   7.1768   7.2463   7.4859
     7.9355   8.1719  12.8997  13.8442  16.9884  17.1059  17.7306  18.6098
    20.1151  20.5753  20.9272  21.1061  21.8897  23.0532  24.4000  25.5551
    26.5551  27.3098  28.5741  28.9160  29.0917  29.0950  29.7473  30.2280
    31.9608  32.9144  33.3182  33.6945  33.8256  34.1447  35.6465  36.2843
    36.8264  37.2659  37.7703  38.2690  39.6797  40.1958  40.4187  40.9065
    41.2833  41.6006  41.7463  42.1970  42.8962  43.3804  44.1188  44.7966
    45.0079  45.1767  46.1789

          k =-0.2000 0.4000-0.6207 (  2190 PWs)   bands (ev):

   -12.2616 -12.1965 -11.6395 -11.5116 -11.3822 -11.3798 -11.3082 -11.3031
   -11.2737 -11.2692  -8.6523  -8.3403  -6.9308  -6.7950   1.4933   1.8796
     3.8250   4.1629   4.5424   5.0488   6.8340   7.3455   7.4813   7.6570
     7.8110   7.9094  13.6390  14.0179  16.5664  17.3324  19.0264  19.2862
    19.7189  20.1479  20.9818  21.1487  21.6948  22.0415  23.3960  24.9623
    27.2550  27.5246  28.2352  29.0914  29.0945  29.5958  30.7050  31.5088
    31.9441  32.1086  33.5106  33.8516  34.9343  35.2763  35.8756  36.1831
    37.2525  37.9644  38.1875  39.4292  39.5209  39.9573  40.1807  41.0344
    41.1872  41.4908  42.7070  43.7199  43.9947  44.3120  44.8406  45.0829
    46.4473  46.6054  46.9969

          k =-0.4000 0.4000 0.0000 (  2179 PWs)   bands (ev):

   -12.1419 -12.0839 -11.4681 -11.4616 -11.4505 -11.4482 -11.3256 -11.3192
   -11.2774 -11.2750  -8.9198  -8.3721  -8.3631  -7.8097   2.6329   3.2053
     4.8243   5.3116   5.9175   6.0782   6.7480   6.9361   7.5168   7.5430
     7.8219   7.8983  12.8142  13.2386  16.0367  16.0679  18.8826  19.0834
    20.7639  20.9784  21.0499  21.3621  21.9570  22.4829  25.5579  25.7854
    26.6716  26.8558  27.0636  28.1830  29.0525  29.0919  29.2495  30.3913
    30.8460  31.9351  33.3876  34.2019  34.2292  34.5949  35.5407  35.8911
    35.9761  36.7800  36.8964  37.0981  39.8309  40.3304  40.6945  41.7676
    42.0080  42.4657  42.5501  43.0877  43.3190  43.3462  43.4408  43.7133
    44.4020  44.6855  44.8251

          k =-0.4000 0.4000-0.3103 (  2182 PWs)   bands (ev):

   -11.9980 -11.9420 -11.7572 -11.7115 -11.4109 -11.4038 -11.3229 -11.3184
   -11.3163 -11.3120  -8.6746  -8.3056  -7.8318  -7.5217   2.1963   2.4810
     4.8637   5.1866   5.5687   5.6546   6.0602   6.5946   7.5320   7.7774
     7.8545   8.0758  13.1845  13.5243  17.0256  17.0704  18.2833  19.0271
    19.4572  20.0525  21.1328  21.1438  23.0538  24.0057  24.3019  24.6246
    25.5335  25.8791  28.6656  28.9451  29.0881  29.0946  29.8349  30.1741
    32.0062  32.3589  32.8877  33.2637  34.6962  35.1657  35.9088  36.6828
    37.2165  37.2394  37.6848  38.0392  40.4505  40.5491  40.9653  41.3846
    41.7693  41.9990  42.3225  42.6449  42.9259  43.1586  43.7370  44.0691
    44.6499  44.9948  45.2126

          k =-0.4000 0.4000-0.6207 (  2169 PWs)   bands (ev):

   -12.1986 -12.1446 -11.7165 -11.6319 -11.3803 -11.3795 -11.3064 -11.3044
   -11.2743 -11.2725  -8.4028  -8.2403  -7.0465  -6.9443   1.2564   1.3906
     4.2030   4.2127   4.9539   5.9823   6.1010   7.0519   7.6961   7.7539
     7.8711   7.9417  13.1797  13.2921  17.1489  17.6026  18.9993  19.2356
    19.4687  19.6863  21.1813  21.3536  22.8215  23.1627  23.3489  25.0614
    25.9790  26.1737  27.3855  28.3490  29.0927  29.0933  31.0825  31.6491
    32.4649  32.5789  33.7943  34.2619  35.1454  35.5624  36.1281  36.4952
    36.6182  37.7833  38.4054  38.6714  40.0924  40.2211  41.0443  41.5869
    41.6382  42.3442  42.4698  42.8799  43.2311  44.0819  44.6238  45.6559
    45.9579  46.3110  46.9534

 ------ SPIN DOWN ----------


          k = 0.0000 0.0000 0.0000 (  2177 PWs)   bands (ev):

   -12.3527 -11.7495 -11.4906 -11.4491 -11.4490 -11.3598 -11.3595 -11.2938
   -11.2757 -11.2757  -9.9451  -8.2793  -8.2793  -6.7738   0.6417   4.6654
     4.6654   5.2132   5.8013   6.6471   6.8625   7.5688   7.5689   7.9537
     7.9537   8.7290   9.4870  14.7819  15.0453  15.0453  18.7926  19.2594
    20.0284  20.0284  20.7809  20.9707  23.4104  26.0316  27.1717  27.2525
    28.1337  28.1337  28.3780  28.3780  28.9364  28.9364  29.0913  29.0927
    29.9968  30.6289  30.8634  31.7546  33.7431  33.7431  35.7234  35.7235
    35.7897  36.7958  38.0263  38.1822  38.1822  39.9921  40.0769  40.1785
    41.5065  41.5251  41.5251  41.9772  41.9772  42.2162  44.0439  44.2008
    45.0821  45.0821  45.8783

          k = 0.0000 0.0000 0.3103 (  2196 PWs)   bands (ev):

   -12.1797 -11.7522 -11.7522 -11.5759 -11.4238 -11.3725 -11.3467 -11.3184
   -11.3184 -11.2935  -9.7150  -7.7583  -7.7582  -7.0150   0.7059   4.8000
     4.8864   5.0136   5.0137   6.0631   6.2727   6.3803   6.3803   7.9569
     7.9569   8.4473  11.4199  15.2551  16.4840  16.4840  17.5161  19.9829
    19.9829  20.2006  20.2091  20.9312  23.0208  23.5930  24.6097  24.6097
    28.0147  28.7601  28.8837  29.0132  29.0132  29.0923  29.0959  32.2865
    32.3385  32.9642  32.9642  33.5899  33.5899  34.2303  34.2303  34.5039
    35.0728  37.0539  38.0259  38.5550  39.2457  39.2457  39.7720  40.4654
    40.6787  40.6787  41.8228  42.4069  43.3560  43.3560  43.3954  43.6306
    44.8275  44.8275  45.7302

          k = 0.0000 0.0000 0.6207 (  2196 PWs)   bands (ev):

   -12.1370 -12.1369 -11.8243 -11.5557 -11.3775 -11.3775 -11.3194 -11.2991
   -11.2857 -11.2661  -8.9236  -7.8057  -6.9885  -6.9885   1.1518   2.5517
     4.6508   4.7775   4.7775   5.3583   5.9304   5.9304   6.7750   7.6578
     7.6578   7.6953  13.5369  14.9084  17.3657  18.6111  18.6112  18.6827
    19.6790  19.6790  21.0148  21.3279  21.7310  22.6664  22.8128  22.8128
    28.3776  28.6954  28.6954  29.0923  29.0929  30.4708  30.4784  32.5833
    32.7184  32.9893  32.9893  33.5065  34.4862  34.4862  36.8621  37.4149
    37.4149  37.8171  37.8171  38.0561  38.7293  38.9363  39.5790  40.6032
    41.1358  41.2615  41.2903  41.2903  42.3348  42.3348  44.8744  45.7771
    45.7771  46.1526  46.3156

          k = 0.0000 0.2000 0.0000 (  2175 PWs)   bands (ev):

   -12.3026 -11.8057 -11.4877 -11.4470 -11.4469 -11.3994 -11.3528 -11.2993
   -11.2781 -11.2780  -9.8252  -8.5021  -8.0936  -6.8599   0.8995   3.9774
     4.8771   5.3429   5.9979   6.6534   6.9210   7.2510   7.5792   7.5997
     7.9773   8.5438  10.3902  14.2724  15.2305  15.4533  18.9911  19.5935
    19.6966  20.1508  20.8801  20.9813  22.8906  25.2731  26.1873  26.3838
    27.8617  28.2085  28.4691  28.7465  28.7806  29.0898  29.0934  29.1398
    30.0082  31.7960  32.1386  32.6605  33.1178  34.0684  35.0720  35.4501
    35.7883  37.0695  37.9007  38.0467  39.0352  39.6939  39.7388  40.4471
    41.3668  41.6397  42.0783  42.0881  42.0964  42.8604  43.3917  43.6443
    45.0217  45.4441  45.8575

          k = 0.0000 0.2000 0.3103 (  2187 PWs)   bands (ev):

   -12.1527 -11.8245 -11.7307 -11.5760 -11.4195 -11.3755 -11.3418 -11.3172
   -11.3147 -11.2969  -9.5913  -8.0793  -7.6290  -6.9538   0.9700   4.0877
     4.3455   4.8200   5.7550   5.9735   6.1811   6.6839   6.9031   7.8185
     7.9361   8.3898  11.7872  14.9262  16.6035  16.6462  17.6088  19.3875
    20.0578  20.4064  20.4729  20.9172  22.3773  23.7484  23.8336  25.6583
    27.4411  28.1695  28.8344  29.0911  29.0938  29.4015  29.4872  31.3470
    32.0704  32.2428  33.0428  33.1007  34.2874  34.4378  34.6908  35.8244
    35.9943  36.9827  37.2421  38.8178  39.2413  39.6738  39.7276  40.0954
    40.5343  41.1034  41.2809  42.5748  42.7924  43.3407  44.1807  44.4129
    45.3703  45.4678  46.3986

          k = 0.0000 0.2000 0.6207 (  2190 PWs)   bands (ev):

   -12.2009 -12.1867 -11.7190 -11.5102 -11.3805 -11.3778 -11.3160 -11.2998
   -11.2816 -11.2655  -8.8970  -8.0353  -6.9258  -6.8737   1.3243   2.4850
     4.0077   4.4030   4.8224   4.8778   6.5531   6.6463   6.9730   7.6232
     7.7303   7.7692  13.6675  14.8574  16.9259  17.5066  18.8579  19.2703
    19.8399  19.9476  21.0071  21.1277  21.6502  21.8637  22.8935  23.9670
    27.7473  28.3716  29.0921  29.0921  29.6402  30.2969  31.1995  31.4287
    32.0290  32.3292  33.7659  33.7759  34.4009  34.7939  35.0412  36.4169
    37.7464  37.9379  38.4238  38.4883  39.3524  39.3925  40.2728  40.3812
    41.1447  41.3028  41.9275  42.4133  42.6324  43.5429  44.9713  45.0313
    45.5689  46.3476  46.3596

          k = 0.0000 0.4000 0.0000 (  2166 PWs)   bands (ev):

   -12.1619 -11.9685 -11.4773 -11.4521 -11.4434 -11.4434 -11.3351 -11.3146
   -11.2821 -11.2820  -9.4839  -8.9911  -7.6488  -7.1700   1.6466   2.7586
     5.4438   5.7005   6.1909   6.2625   6.5041   6.9806   7.6036   7.6189
     8.0427   8.2025  11.8786  13.2764  15.7004  15.8606  18.9593  19.0819
    20.4959  20.6232  20.8648  21.6099  21.7212  23.0850  26.1343  26.6144
    27.1970  27.5166  28.3487  28.6461  28.9369  29.0948  29.1056  29.4082
    29.9354  31.6998  32.9977  33.3455  34.2275  35.2961  35.7361  35.9102
    36.2879  36.6458  36.9960  37.6991  38.8179  39.8189  40.1749  40.8169
    41.0091  41.0505  41.7121  42.7634  42.8593  42.9150  43.1772  43.4249
    44.2918  45.7551  45.9397

          k = 0.0000 0.4000 0.3103 (  2180 PWs)   bands (ev):

   -12.0746 -11.9562 -11.6750 -11.6115 -11.4072 -11.3896 -11.3298 -11.3176
   -11.3127 -11.3048  -9.2231  -8.6707  -7.3269  -7.0426   1.7209   2.8333
     4.2040   4.4231   5.9563   6.0902   6.6924   7.1493   7.2457   7.4252
     7.9254   8.1429  12.7900  14.0067  16.9962  17.0134  17.6746  18.3271
    20.4642  20.6384  20.8679  21.1054  21.6597  22.3575  24.5392  26.0367
    27.0423  27.7311  29.0914  29.0934  29.3643  29.4342  29.5265  30.5436
    31.1932  31.9692  32.7586  33.7099  34.0703  34.5280  35.2795  35.9369
    36.5761  37.2215  38.5416  38.8522  39.4735  39.8503  40.3686  40.4428
    40.8779  41.5736  41.6059  41.9964  42.0872  43.6762  44.7829  44.9685
    45.0509  45.4362  46.1134

          k = 0.0000 0.4000 0.6207 (  2190 PWs)   bands (ev):

   -12.2647 -12.2560 -11.5585 -11.4808 -11.3821 -11.3767 -11.3090 -11.3028
   -11.2736 -11.2674  -8.7552  -8.4392  -6.8088  -6.7696   1.7859   2.2686
     3.4747   3.5697   4.8002   4.8163   7.0260   7.1422   7.4000   7.7521
     7.7576   7.9374  14.0812  14.6133  16.3869  16.5245  19.1376  19.3360
    20.1936  20.2843  20.8443  20.9988  21.1208  21.6103  23.5980  24.4097
    28.1329  28.5046  29.0897  29.0916  29.9136  30.0244  30.4063  30.8510
    31.1782  31.9270  32.7823  33.2782  34.6502  35.6405  35.8785  36.0562
    38.0835  38.1989  38.3428  38.7877  39.5291  39.6091  39.8373  40.6389
    41.0832  41.5380  43.3063  43.5706  44.2281  44.5959  45.0094  45.3659
    46.4446  46.5214  46.9728

          k = 0.2000 0.2000 0.0000 (  2153 PWs)   bands (ev):

   -12.2666 -11.8625 -11.4842 -11.4496 -11.4432 -11.4226 -11.3469 -11.3035
   -11.2821 -11.2754  -9.6957  -8.3232  -8.3113  -6.9792   1.1726   3.8753
     4.7030   5.4556   6.1502   6.5178   6.8221   7.0566   7.5492   7.6206
     7.9120   8.4045  11.0028  14.0087  15.5027  15.5941  18.8800  19.6213
    19.8770  20.2309  20.9333  21.1929  22.5216  24.8950  25.9791  26.3186
    26.4239  27.2942  27.6812  29.0085  29.0904  29.0945  29.8850  30.0662
    30.8314  31.3426  32.6750  33.7190  33.8577  34.2158  34.3873  34.8422
    35.3625  36.8274  38.2574  38.4480  38.6045  38.6728  40.6050  40.8806
    41.2824  41.4689  42.4503  42.5771  42.7523  43.4773  43.5421  43.5425
    44.2389  44.9847  46.0086

          k = 0.2000 0.2000 0.3103 (  2186 PWs)   bands (ev):

   -12.1273 -11.8417 -11.7542 -11.5882 -11.4190 -11.3773 -11.3377 -11.3181
   -11.3145 -11.3000  -9.4555  -8.0551  -7.7864  -6.9701   1.2158   3.4411
     4.6717   5.0829   5.3581   5.8307   6.2394   6.8174   7.2430   7.6737
     7.9270   8.3597  12.0964  14.6046  16.7642  16.7912  17.5661  19.6061
    19.6172  20.4937  20.8480  20.8941  21.8728  23.7764  24.2338  25.2960
    27.0806  28.0985  28.4777  29.0702  29.0911  29.1769  29.6639  30.8054
    31.5875  32.9734  33.3991  33.5498  33.7734  34.8909  35.2469  35.6985
    36.3781  36.6301  37.7223  38.6753  38.8579  39.2802  40.0915  40.3377
    40.9888  41.2751  41.5480  42.2956  42.7319  43.3008  44.4166  44.6955
    45.8010  45.8760  46.4402

          k = 0.2000 0.2000 0.6207 (  2199 PWs)   bands (ev):

   -12.2603 -12.1400 -11.7348 -11.4762 -11.3811 -11.3797 -11.3136 -11.3004
   -11.2791 -11.2661  -8.8471  -8.0944  -7.0108  -6.7764   1.3421   2.3587
     3.6387   4.4591   4.5360   5.6352   5.9199   7.1428   7.2412   7.6673
     7.7305   7.8293  13.6147  14.6336  16.3970  18.3492  18.3506  19.2545
    19.5901  20.2855  21.1062  21.1128  21.6773  22.0706  22.4550  24.8617
    27.3413  27.7250  29.0623  29.0920  29.1311  30.1566  31.1085  31.7124
    32.2281  32.3930  33.5859  33.9189  34.6655  34.8218  35.1382  35.7296
    37.1128  37.5989  38.9017  39.2240  39.6149  40.0028  40.0919  41.1574
    41.3151  41.5146  41.9665  42.1811  42.3850  44.4607  44.4826  45.4781
    46.2397  46.3614  46.8593

          k = 0.2000 0.4000 0.0000 (  2163 PWs)   bands (ev):

   -12.1612 -12.0066 -11.4743 -11.4554 -11.4477 -11.4437 -11.3322 -11.3156
   -11.2819 -11.2777  -9.3318  -8.8170  -7.8631  -7.3480   1.9313   2.9785
     5.1672   5.7628   5.9863   6.1687   6.5625   6.9855   7.5595   7.6004
     7.9370   8.1063  12.1952  13.3076  15.8449  15.9382  18.8338  19.1372
    20.5776  20.6343  20.8832  21.6305  21.9222  23.1295  26.1095  26.3152
    26.6845  26.7008  27.1881  27.8605  29.0939  29.0943  30.0845  30.4936
    31.0674  31.8256  32.6926  33.7576  34.4877  34.9126  35.1409  35.8014
    35.9522  36.3862  36.9483  37.3655  39.0030  39.7214  40.3852  41.4455
    41.6923  42.0572  42.1494  42.7723  42.9514  43.0595  43.1842  43.7094
    44.5109  45.2866  45.3355

          k = 0.2000 0.4000 0.3103 (  2183 PWs)   bands (ev):

   -12.0540 -11.9449 -11.7129 -11.6403 -11.4107 -11.3934 -11.3278 -11.3188
   -11.3141 -11.3072  -9.0701  -8.5256  -7.5257  -7.1680   1.8712   2.6983
     4.5179   4.6279   5.7764   5.8909   6.4315   7.1768   7.2463   7.4859
     7.9355   8.1719  12.8997  13.8442  16.9884  17.1059  17.7306  18.6098
    20.1151  20.5753  20.9272  21.1061  21.8897  23.0532  24.4000  25.5551
    26.5551  27.3098  28.5741  28.9160  29.0917  29.0950  29.7473  30.2280
    31.9608  32.9144  33.3182  33.6945  33.8256  34.1447  35.6465  36.2843
    36.8264  37.2659  37.7703  38.2690  39.6797  40.1958  40.4187  40.9065
    41.2833  41.6006  41.7463  42.1970  42.8962  43.3804  44.1188  44.7966
    45.0079  45.1767  46.1789

          k = 0.2000 0.4000 0.6207 (  2190 PWs)   bands (ev):

   -12.2616 -12.1965 -11.6395 -11.5116 -11.3822 -11.3798 -11.3082 -11.3031
   -11.2737 -11.2692  -8.6522  -8.3403  -6.9308  -6.7949   1.4933   1.8796
     3.8250   4.1629   4.5424   5.0488   6.8339   7.3455   7.4813   7.6570
     7.8111   7.9093  13.6391  14.0179  16.5664  17.3324  19.0264  19.2862
    19.7189  20.1479  20.9818  21.1487  21.6948  22.0415  23.3960  24.9623
    27.2550  27.5246  28.2352  29.0914  29.0945  29.5958  30.7050  31.5088
    31.9441  32.1086  33.5106  33.8516  34.9343  35.2763  35.8756  36.1831
    37.2525  37.9644  38.1875  39.4292  39.5209  39.9573  40.1807  41.0344
    41.1872  41.4908  42.7070  43.7199  43.9947  44.3120  44.8406  45.0829
    46.4473  46.6055  46.9969

          k = 0.4000 0.4000 0.0000 (  2179 PWs)   bands (ev):

   -12.1419 -12.0839 -11.4681 -11.4616 -11.4505 -11.4482 -11.3256 -11.3192
   -11.2775 -11.2750  -8.9198  -8.3721  -8.3631  -7.8097   2.6329   3.2053
     4.8243   5.3117   5.9174   6.0782   6.7480   6.9361   7.5167   7.5431
     7.8219   7.8982  12.8143  13.2386  16.0367  16.0679  18.8826  19.0834
    20.7638  20.9784  21.0499  21.3621  21.9570  22.4829  25.5579  25.7854
    26.6716  26.8558  27.0636  28.1830  29.0525  29.0919  29.2495  30.3913
    30.8460  31.9351  33.3876  34.2019  34.2292  34.5949  35.5407  35.8911
    35.9761  36.7800  36.8964  37.0981  39.8309  40.3304  40.6945  41.7676
    42.0080  42.4657  42.5501  43.0877  43.3190  43.3463  43.4408  43.7133
    44.4020  44.6855  44.8251

          k = 0.4000 0.4000 0.3103 (  2182 PWs)   bands (ev):

   -11.9980 -11.9420 -11.7572 -11.7115 -11.4109 -11.4038 -11.3228 -11.3184
   -11.3163 -11.3120  -8.6746  -8.3056  -7.8318  -7.5217   2.1963   2.4810
     4.8637   5.1866   5.5687   5.6546   6.0602   6.5946   7.5320   7.7774
     7.8545   8.0758  13.1845  13.5243  17.0256  17.0704  18.2833  19.0271
    19.4572  20.0525  21.1328  21.1438  23.0538  24.0057  24.3019  24.6246
    25.5335  25.8791  28.6656  28.9451  29.0881  29.0945  29.8349  30.1741
    32.0062  32.3589  32.8878  33.2637  34.6962  35.1657  35.9088  36.6828
    37.2165  37.2393  37.6848  38.0392  40.4505  40.5490  40.9653  41.3846
    41.7693  41.9990  42.3225  42.6449  42.9259  43.1586  43.7370  44.0691
    44.6499  44.9948  45.2126

          k = 0.4000 0.4000 0.6207 (  2169 PWs)   bands (ev):

   -12.1986 -12.1446 -11.7165 -11.6319 -11.3803 -11.3795 -11.3064 -11.3044
   -11.2743 -11.2725  -8.4028  -8.2403  -7.0465  -6.9442   1.2564   1.3906
     4.2030   4.2127   4.9539   5.9822   6.1009   7.0519   7.6961   7.7539
     7.8712   7.9417  13.1797  13.2920  17.1489  17.6026  18.9993  19.2356
    19.4687  19.6863  21.1813  21.3536  22.8215  23.1627  23.3489  25.0614
    25.9790  26.1737  27.3855  28.3490  29.0927  29.0933  31.0825  31.6491
    32.4649  32.5790  33.7943  34.2619  35.1454  35.5624  36.1281  36.4952
    36.6182  37.7833  38.4054  38.6714  40.0924  40.2211  41.0443  41.5869
    41.6382  42.3442  42.4698  42.8799  43.2311  44.0819  44.6238  45.6559
    45.9579  46.3110  46.9534

          k =-0.2000 0.2000 0.0000 (  2153 PWs)   bands (ev):

   -12.2666 -11.8625 -11.4842 -11.4496 -11.4432 -11.4226 -11.3469 -11.3035
   -11.2821 -11.2754  -9.6957  -8.3232  -8.3112  -6.9792   1.1726   3.8753
     4.7031   5.4556   6.1502   6.5177   6.8221   7.0567   7.5492   7.6206
     7.9120   8.4045  11.0028  14.0087  15.5027  15.5941  18.8800  19.6213
    19.8770  20.2309  20.9333  21.1929  22.5216  24.8950  25.9791  26.3186
    26.4239  27.2942  27.6812  29.0085  29.0904  29.0945  29.8850  30.0662
    30.8314  31.3426  32.6750  33.7190  33.8577  34.2158  34.3873  34.8421
    35.3625  36.8274  38.2574  38.4480  38.6045  38.6728  40.6050  40.8806
    41.2824  41.4689  42.4503  42.5771  42.7523  43.4773  43.5422  43.5425
    44.2389  44.9847  46.0086

          k =-0.2000 0.2000-0.3103 (  2186 PWs)   bands (ev):

   -12.1273 -11.8417 -11.7542 -11.5882 -11.4190 -11.3773 -11.3377 -11.3181
   -11.3145 -11.3000  -9.4555  -8.0551  -7.7864  -6.9701   1.2158   3.4411
     4.6717   5.0829   5.3581   5.8308   6.2394   6.8175   7.2430   7.6737
     7.9270   8.3597  12.0964  14.6046  16.7642  16.7912  17.5661  19.6061
    19.6173  20.4937  20.8480  20.8941  21.8728  23.7764  24.2338  25.2960
    27.0806  28.0985  28.4777  29.0702  29.0911  29.1770  29.6639  30.8054
    31.5875  32.9734  33.3991  33.5498  33.7734  34.8909  35.2469  35.6984
    36.3781  36.6301  37.7223  38.6753  38.8579  39.2802  40.0915  40.3377
    40.9889  41.2751  41.5480  42.2956  42.7319  43.3008  44.4166  44.6955
    45.8010  45.8761  46.4402

          k =-0.2000 0.2000-0.6207 (  2199 PWs)   bands (ev):

   -12.2603 -12.1399 -11.7348 -11.4762 -11.3811 -11.3797 -11.3136 -11.3004
   -11.2791 -11.2661  -8.8471  -8.0944  -7.0108  -6.7764   1.3421   2.3587
     3.6387   4.4591   4.5360   5.6352   5.9199   7.1428   7.2412   7.6673
     7.7305   7.8293  13.6146  14.6336  16.3970  18.3492  18.3506  19.2545
    19.5901  20.2855  21.1062  21.1128  21.6773  22.0706  22.4550  24.8617
    27.3413  27.7250  29.0623  29.0920  29.1311  30.1566  31.1085  31.7124
    32.2281  32.3930  33.5859  33.9189  34.6655  34.8218  35.1382  35.7296
    37.1128  37.5989  38.9017  39.2240  39.6149  40.0028  40.0919  41.1574
    41.3151  41.5146  41.9665  42.1811  42.3850  44.4607  44.4826  45.4781
    46.2397  46.3613  46.8593

          k =-0.2000 0.4000 0.0000 (  2163 PWs)   bands (ev):

   -12.1612 -12.0066 -11.4743 -11.4554 -11.4477 -11.4437 -11.3322 -11.3156
   -11.2819 -11.2777  -9.3318  -8.8170  -7.8631  -7.3480   1.9313   2.9785
     5.1672   5.7628   5.9863   6.1687   6.5625   6.9855   7.5595   7.6003
     7.9370   8.1063  12.1952  13.3076  15.8449  15.9382  18.8338  19.1372
    20.5776  20.6343  20.8832  21.6305  21.9221  23.1295  26.1095  26.3152
    26.6845  26.7008  27.1881  27.8605  29.0940  29.0943  30.0845  30.4936
    31.0674  31.8256  32.6926  33.7576  34.4877  34.9126  35.1409  35.8014
    35.9522  36.3862  36.9483  37.3655  39.0030  39.7214  40.3852  41.4455
    41.6923  42.0572  42.1494  42.7723  42.9514  43.0595  43.1842  43.7094
    44.5109  45.2866  45.3355

          k =-0.2000 0.4000-0.3103 (  2183 PWs)   bands (ev):

   -12.0540 -11.9449 -11.7129 -11.6403 -11.4107 -11.3934 -11.3278 -11.3188
   -11.3141 -11.3072  -9.0701  -8.5256  -7.5257  -7.1680   1.8712   2.6983
     4.5179   4.6279   5.7764   5.8909   6.4315   7.1768   7.2463   7.4859
     7.9355   8.1719  12.8997  13.8442  16.9884  17.1059  17.7306  18.6098
    20.1151  20.5753  20.9272  21.1061  21.8897  23.0532  24.4000  25.5551
    26.5551  27.3098  28.5741  28.9160  29.0917  29.0950  29.7473  30.2280
    31.9608  32.9144  33.3182  33.6945  33.8256  34.1447  35.6465  36.2843
    36.8264  37.2659  37.7703  38.2690  39.6797  40.1958  40.4187  40.9065
    41.2833  41.6006  41.7463  42.1970  42.8962  43.3804  44.1188  44.7966
    45.0079  45.1767  46.1789

          k =-0.2000 0.4000-0.6207 (  2190 PWs)   bands (ev):

   -12.2616 -12.1965 -11.6395 -11.5116 -11.3822 -11.3798 -11.3082 -11.3031
   -11.2737 -11.2692  -8.6523  -8.3403  -6.9308  -6.7950   1.4933   1.8796
     3.8250   4.1629   4.5424   5.0488   6.8340   7.3455   7.4813   7.6570
     7.8110   7.9094  13.6390  14.0179  16.5664  17.3324  19.0264  19.2862
    19.7189  20.1479  20.9818  21.1487  21.6948  22.0415  23.3960  24.9623
    27.2550  27.5246  28.2352  29.0914  29.0945  29.5958  30.7050  31.5088
    31.9441  32.1086  33.5106  33.8516  34.9343  35.2763  35.8756  36.1831
    37.2525  37.9644  38.1875  39.4292  39.5209  39.9573  40.1807  41.0344
    41.1872  41.4908  42.7070  43.7199  43.9947  44.3120  44.8406  45.0830
    46.4473  46.6055  46.9969

          k =-0.4000 0.4000 0.0000 (  2179 PWs)   bands (ev):

   -12.1419 -12.0839 -11.4681 -11.4616 -11.4505 -11.4482 -11.3256 -11.3192
   -11.2774 -11.2750  -8.9198  -8.3721  -8.3631  -7.8097   2.6329   3.2053
     4.8243   5.3116   5.9175   6.0782   6.7480   6.9361   7.5168   7.5430
     7.8219   7.8983  12.8142  13.2386  16.0367  16.0679  18.8826  19.0834
    20.7639  20.9784  21.0499  21.3621  21.9570  22.4829  25.5579  25.7854
    26.6716  26.8558  27.0636  28.1830  29.0525  29.0919  29.2495  30.3913
    30.8460  31.9351  33.3876  34.2019  34.2292  34.5949  35.5407  35.8911
    35.9761  36.7800  36.8964  37.0981  39.8309  40.3304  40.6945  41.7676
    42.0080  42.4657  42.5501  43.0877  43.3191  43.3463  43.4408  43.7133
    44.4020  44.6855  44.8251

          k =-0.4000 0.4000-0.3103 (  2182 PWs)   bands (ev):

   -11.9980 -11.9420 -11.7572 -11.7115 -11.4109 -11.4038 -11.3229 -11.3184
   -11.3163 -11.3120  -8.6746  -8.3056  -7.8318  -7.5217   2.1963   2.4810
     4.8637   5.1866   5.5687   5.6546   6.0602   6.5946   7.5320   7.7774
     7.8545   8.0758  13.1845  13.5243  17.0256  17.0704  18.2833  19.0271
    19.4572  20.0525  21.1328  21.1438  23.0538  24.0057  24.3019  24.6246
    25.5335  25.8792  28.6656  28.9451  29.0881  29.0946  29.8349  30.1741
    32.0062  32.3589  32.8877  33.2637  34.6962  35.1657  35.9088  36.6828
    37.2165  37.2394  37.6848  38.0392  40.4505  40.5491  40.9653  41.3846
    41.7693  41.9990  42.3225  42.6449  42.9259  43.1586  43.7370  44.0691
    44.6499  44.9948  45.2126

          k =-0.4000 0.4000-0.6207 (  2169 PWs)   bands (ev):

   -12.1986 -12.1446 -11.7165 -11.6319 -11.3803 -11.3795 -11.3064 -11.3044
   -11.2743 -11.2725  -8.4028  -8.2403  -7.0465  -6.9443   1.2564   1.3906
     4.2030   4.2127   4.9539   5.9823   6.1010   7.0519   7.6961   7.7539
     7.8711   7.9417  13.1797  13.2920  17.1489  17.6026  18.9993  19.2356
    19.4687  19.6863  21.1813  21.3536  22.8215  23.1627  23.3489  25.0614
    25.9790  26.1737  27.3855  28.3490  29.0927  29.0933  31.0825  31.6491
    32.4649  32.5789  33.7943  34.2619  35.1454  35.5624  36.1281  36.4952
    36.6182  37.7833  38.4054  38.6714  40.0924  40.2211  41.0443  41.5869
    41.6382  42.3442  42.4698  42.8799  43.2311  44.0819  44.6238  45.6560
    45.9579  46.3110  46.9535

     the Fermi energy is     8.8318 ev

!    total energy              =    -455.50843229 Ry
     Harris-Foulkes estimate   =    -455.50841613 Ry
     estimated scf accuracy    <       0.00000027 Ry

     The total energy is the sum of the following terms:

     one-electron contribution =    -140.29985333 Ry
     hartree contribution      =     109.84191947 Ry
     xc contribution           =    -124.52186987 Ry
     ewald contribution        =    -300.52863892 Ry
     smearing contrib. (-TS)   =       0.00001036 Ry

     total magnetization       =    -0.00 Bohr mag/cell
     absolute magnetization    =     0.00 Bohr mag/cell

     convergence has been achieved in   7 iterations

     Forces acting on atoms (Ry/au):

     atom    1 type  1   force =     0.00000000    0.00000000    0.00000000
     atom    2 type  1   force =     0.00000000    0.00000000    0.00000000
     atom    3 type  2   force =     0.00337906    0.00337906    0.00000000
     atom    4 type  2   force =    -0.00337906   -0.00337906    0.00000000
     atom    5 type  2   force =     0.00337822   -0.00337822   -0.00000000
     atom    6 type  2   force =    -0.00337822    0.00337822   -0.00000000

     Total force =     0.009556     Total SCF correction =     0.000809


     entering subroutine stress ...

          total   stress  (Ry/bohr**3)                   (kbar)     P=    4.69
  -0.00015739   0.00000004   0.00000000        -23.15      0.01      0.00
   0.00000004  -0.00015739   0.00000000          0.01    -23.15      0.00
   0.00000000   0.00000000   0.00041043          0.00      0.00     60.38

     Volume is kept fixed: isostatic pressure set to zero

     BFGS Geometry Optimization

     number of scf cycles    =   1
     number of bfgs steps    =   0

     enthalpy new            =    -455.5084322895 Ry

     new trust radius        =       0.0427846333 bohr
     new conv_thr            =       0.0000010000 Ry

     new unit-cell volume =    510.97715 a.u.^3 (    75.71900 Ang^3 )

CELL_PARAMETERS (alat=  9.25561606)
   0.995290407   0.000000885   0.000000000
   0.000000885   0.995290407   0.000000000
   0.000000000   0.000000000   0.650557739

ATOMIC_POSITIONS (crystal)
Sn0      0.000000000   0.000000000   0.000000000    0   0   0
Sn0      0.500000000   0.500000000   0.500000000    0   0   0
O1       0.305365083   0.305365083   0.000000000    1   1   0
O1      -0.305365083  -0.305365083   0.000000000    1   1   0
O1       0.805364991   0.194635009   0.500000000    1   1   0
O1       0.194635009   0.805364991   0.500000000    1   1   0


     NEW-OLD atomic charge density approx. for the potential
     NEW k-points:
        k(    1) = (   0.0000000   0.0000000   0.0000000), wk =   0.0080000
        k(    2) = (   0.0000000   0.0000000   0.3074285), wk =   0.0160000
        k(    3) = (   0.0000000   0.0000000   0.6148570), wk =   0.0160000
        k(    4) = (  -0.0000002   0.2009464   0.0000000), wk =   0.0320000
        k(    5) = (  -0.0000002   0.2009464   0.3074285), wk =   0.0640000
        k(    6) = (  -0.0000002   0.2009464   0.6148570), wk =   0.0640000
        k(    7) = (  -0.0000004   0.4018928   0.0000000), wk =   0.0320000
        k(    8) = (  -0.0000004   0.4018928   0.3074285), wk =   0.0640000
        k(    9) = (  -0.0000004   0.4018928   0.6148570), wk =   0.0640000
        k(   10) = (   0.2009462   0.2009462   0.0000000), wk =   0.0160000
        k(   11) = (   0.2009462   0.2009462   0.3074285), wk =   0.0320000
        k(   12) = (   0.2009462   0.2009462   0.6148570), wk =   0.0320000
        k(   13) = (   0.2009460   0.4018926   0.0000000), wk =   0.0320000
        k(   14) = (   0.2009460   0.4018926   0.3074285), wk =   0.0640000
        k(   15) = (   0.2009460   0.4018926   0.6148570), wk =   0.0640000
        k(   16) = (   0.4018924   0.4018924   0.0000000), wk =   0.0160000
        k(   17) = (   0.4018924   0.4018924   0.3074285), wk =   0.0320000
        k(   18) = (   0.4018924   0.4018924   0.6148570), wk =   0.0320000
        k(   19) = (  -0.2009466   0.2009466   0.0000000), wk =   0.0160000
        k(   20) = (  -0.2009466   0.2009466  -0.3074285), wk =   0.0320000
        k(   21) = (  -0.2009466   0.2009466  -0.6148570), wk =   0.0320000
        k(   22) = (  -0.2009467   0.4018929   0.0000000), wk =   0.0320000
        k(   23) = (  -0.2009467   0.4018929  -0.3074285), wk =   0.0640000
        k(   24) = (  -0.2009467   0.4018929  -0.6148570), wk =   0.0640000
        k(   25) = (  -0.4018931   0.4018931   0.0000000), wk =   0.0160000
        k(   26) = (  -0.4018931   0.4018931  -0.3074285), wk =   0.0320000
        k(   27) = (  -0.4018931   0.4018931  -0.6148570), wk =   0.0320000
        k(   28) = (   0.0000000   0.0000000   0.0000000), wk =   0.0080000
        k(   29) = (   0.0000000   0.0000000   0.3074285), wk =   0.0160000
        k(   30) = (   0.0000000   0.0000000   0.6148570), wk =   0.0160000
        k(   31) = (  -0.0000002   0.2009464   0.0000000), wk =   0.0320000
        k(   32) = (  -0.0000002   0.2009464   0.3074285), wk =   0.0640000
        k(   33) = (  -0.0000002   0.2009464   0.6148570), wk =   0.0640000
        k(   34) = (  -0.0000004   0.4018928   0.0000000), wk =   0.0320000
        k(   35) = (  -0.0000004   0.4018928   0.3074285), wk =   0.0640000
        k(   36) = (  -0.0000004   0.4018928   0.6148570), wk =   0.0640000
        k(   37) = (   0.2009462   0.2009462   0.0000000), wk =   0.0160000
        k(   38) = (   0.2009462   0.2009462   0.3074285), wk =   0.0320000
        k(   39) = (   0.2009462   0.2009462   0.6148570), wk =   0.0320000
        k(   40) = (   0.2009460   0.4018926   0.0000000), wk =   0.0320000
        k(   41) = (   0.2009460   0.4018926   0.3074285), wk =   0.0640000
        k(   42) = (   0.2009460   0.4018926   0.6148570), wk =   0.0640000
        k(   43) = (   0.4018924   0.4018924   0.0000000), wk =   0.0160000
        k(   44) = (   0.4018924   0.4018924   0.3074285), wk =   0.0320000
        k(   45) = (   0.4018924   0.4018924   0.6148570), wk =   0.0320000
        k(   46) = (  -0.2009466   0.2009466   0.0000000), wk =   0.0160000
        k(   47) = (  -0.2009466   0.2009466  -0.3074285), wk =   0.0320000
        k(   48) = (  -0.2009466   0.2009466  -0.6148570), wk =   0.0320000
        k(   49) = (  -0.2009467   0.4018929   0.0000000), wk =   0.0320000
        k(   50) = (  -0.2009467   0.4018929  -0.3074285), wk =   0.0640000
        k(   51) = (  -0.2009467   0.4018929  -0.6148570), wk =   0.0640000
        k(   52) = (  -0.4018931   0.4018931   0.0000000), wk =   0.0160000
        k(   53) = (  -0.4018931   0.4018931  -0.3074285), wk =   0.0320000
        k(   54) = (  -0.4018931   0.4018931  -0.6148570), wk =   0.0320000

     Check: negative/imaginary core charge=   -0.000004    0.000000

     total cpu time spent up to now is      380.6 secs

     per-process dynamical memory:    70.0 Mb

     Self-consistent Calculation

     iteration #  1     ecut=    40.00 Ry     beta=0.30
     Davidson diagonalization with overlap
     ethr =  1.00E-06,  avg # of iterations =  4.3

     total cpu time spent up to now is      466.3 secs

     total energy              =    -455.51075184 Ry
     Harris-Foulkes estimate   =    -455.51074796 Ry
     estimated scf accuracy    <       0.00006423 Ry

     total magnetization       =    -0.00 Bohr mag/cell
     absolute magnetization    =     0.00 Bohr mag/cell

     iteration #  2     ecut=    40.00 Ry     beta=0.30
     Davidson diagonalization with overlap
     ethr =  1.24E-07,  avg # of iterations =  1.0

     total cpu time spent up to now is      504.0 secs

     total energy              =    -455.51075671 Ry
     Harris-Foulkes estimate   =    -455.51075361 Ry
     estimated scf accuracy    <       0.00002451 Ry

     total magnetization       =    -0.00 Bohr mag/cell
     absolute magnetization    =     0.00 Bohr mag/cell

     iteration #  3     ecut=    40.00 Ry     beta=0.30
     Davidson diagonalization with overlap
     ethr =  4.71E-08,  avg # of iterations =  1.0

     total cpu time spent up to now is      541.7 secs

     total energy              =    -455.51076118 Ry
     Harris-Foulkes estimate   =    -455.51075767 Ry
     estimated scf accuracy    <       0.00000267 Ry

     total magnetization       =    -0.00 Bohr mag/cell
     absolute magnetization    =     0.00 Bohr mag/cell

     iteration #  4     ecut=    40.00 Ry     beta=0.30
     Davidson diagonalization with overlap
     ethr =  5.13E-09,  avg # of iterations =  1.0

     total cpu time spent up to now is      579.4 secs

     End of self-consistent calculation

 ------ SPIN UP ------------


          k = 0.0000 0.0000 0.0000 (  2177 PWs)   bands (ev):

   -12.3347 -11.7150 -11.4830 -11.4456 -11.4456 -11.3640 -11.3562 -11.2895
   -11.2650 -11.2650  -9.9263  -8.2435  -8.2434  -6.7325   0.6842   4.7289
     4.7289   5.1314   5.8179   6.6976   6.8395   7.5404   7.5404   7.9787
     7.9787   8.7363   9.4516  14.6609  14.9647  14.9648  18.8420  19.1044
    20.1062  20.1063  20.8307  20.9934  23.3066  25.8020  27.2188  27.3683
    28.1578  28.1578  28.2126  28.2127  29.0723  29.0723  29.0910  29.0926
    30.1491  30.4104  30.8970  31.8002  33.9572  33.9573  35.5353  35.5353
    35.6321  36.7723  38.2215  38.2215  38.2531  39.9509  39.9682  40.3376
    41.5113  41.5113  41.6544  42.1418  42.1418  42.2289  43.7287  44.2652
    45.2758  45.2759  45.8895

          k = 0.0000 0.0000 0.3074 (  2196 PWs)   bands (ev):

   -12.1689 -11.7325 -11.7325 -11.5538 -11.4197 -11.3786 -11.3436 -11.3049
   -11.3049 -11.2897  -9.6954  -7.7447  -7.7446  -6.9830   0.7338   4.7679
     4.8634   5.0655   5.0655   6.0755   6.3220   6.3797   6.3798   7.9723
     7.9723   8.4499  11.3995  15.1598  16.3969  16.3969  17.4919  20.0270
    20.0270  20.2501  20.2751  20.9529  22.9397  23.5018  24.6470  24.6470
    27.9166  28.8077  28.9947  29.0919  29.0964  29.1311  29.1311  32.2633
    32.3703  32.8477  32.8478  33.5700  33.5700  34.3190  34.3299  34.3299
    35.1302  36.8978  38.2562  38.6200  39.2424  39.2424  39.4625  40.4464
    40.7125  40.7125  41.9356  42.3859  43.3398  43.3399  43.3474  43.5803
    45.0315  45.0315  45.4567

          k = 0.0000 0.0000 0.6149 (  2196 PWs)   bands (ev):

   -12.1008 -12.1007 -11.8256 -11.5598 -11.3595 -11.3595 -11.3169 -11.2964
   -11.2879 -11.2669  -8.9066  -7.7886  -7.0041  -7.0040   1.1587   2.5433
     4.6831   4.8153   4.8154   5.4058   5.9534   5.9535   6.7783   7.6648
     7.6649   7.6934  13.5430  14.8892  17.4122  18.5690  18.5690  18.7729
    19.6323  19.6323  21.0285  21.4078  21.7128  22.6705  22.9286  22.9286
    28.1559  28.7714  28.7714  29.0918  29.0924  30.4846  30.6358  32.7108
    32.7590  32.9980  32.9980  33.1137  34.6182  34.6183  36.9495  37.2631
    37.2631  37.8435  37.8435  38.2560  38.6954  38.9417  39.5467  40.2863
    40.9469  41.0884  41.0884  41.3499  42.3857  42.3857  44.8780  45.8008
    45.8200  45.8200  46.4051

          k =-0.0000 0.2009 0.0000 (  2175 PWs)   bands (ev):

   -12.2836 -11.7725 -11.4806 -11.4435 -11.4434 -11.4030 -11.3491 -11.2950
   -11.2675 -11.2674  -9.8060  -8.4695  -8.0560  -6.8172   0.9440   4.0397
     4.9301   5.2649   6.0167   6.6204   6.9605   7.2614   7.5515   7.5741
     8.0018   8.5524  10.3828  14.2090  15.1484  15.3388  19.0446  19.4437
    19.7773  20.2313  20.9235  20.9952  22.7813  25.3190  25.9603  26.4261
    27.6686  28.2370  28.4890  28.6182  28.8656  29.0936  29.0992  29.2709
    30.1754  31.6063  32.2031  32.8331  33.2150  33.9393  35.2655  35.3208
    35.6077  36.9951  37.9999  38.1070  38.9030  39.9112  39.9677  40.3805
    41.4543  41.8702  41.9796  42.0362  42.1174  42.9586  43.1051  43.7766
    45.2150  45.3911  46.0039

          k =-0.0000 0.2009 0.3074 (  2187 PWs)   bands (ev):

   -12.1414 -11.8074 -11.7109 -11.5538 -11.4154 -11.3776 -11.3383 -11.3041
   -11.3030 -11.2923  -9.5740  -8.0648  -7.6125  -6.9238   0.9995   4.1263
     4.3345   4.8041   5.7774   5.9813   6.1949   6.6935   6.9279   7.8390
     7.9504   8.3947  11.7751  14.8631  16.5163  16.5515  17.5996  19.4305
    20.0824  20.4684  20.5287  20.9320  22.3100  23.6756  23.8663  25.6535
    27.4217  28.1924  28.8554  29.0907  29.0944  29.4746  29.6085  31.4352
    32.0891  32.1338  32.9131  33.0540  34.2746  34.4885  34.6641  35.8454
    35.9917  37.0476  37.0744  38.8427  39.3874  39.3971  39.9613  40.1097
    40.4023  41.1322  41.2529  42.5841  42.8142  43.2798  44.2314  44.3677
    45.4557  45.6131  46.3383

          k =-0.0000 0.2009 0.6149 (  2190 PWs)   bands (ev):

   -12.1718 -12.1550 -11.7129 -11.5089 -11.3635 -11.3603 -11.3132 -11.2969
   -11.2831 -11.2661  -8.8828  -8.0238  -6.9388  -6.8837   1.3306   2.4775
     4.0305   4.4332   4.8576   4.9099   6.5850   6.6757   6.9818   7.6297
     7.7447   7.7717  13.6761  14.8458  16.9939  17.5723  18.7642  19.1899
    19.8389  19.9728  21.0229  21.1797  21.6632  21.8607  22.9938  24.0588
    27.6638  28.4501  29.0915  29.0917  29.5807  30.4008  31.2824  31.4696
    32.1067  32.2161  33.5038  33.8612  34.4869  34.8071  35.1729  36.4115
    37.4644  37.7074  38.5174  38.5684  39.2803  39.3489  40.3202  40.3276
    41.0215  41.3252  41.6863  42.2452  42.7238  43.6825  44.9275  45.0710
    45.6802  46.2840  46.3121

          k =-0.0000 0.4019 0.0000 (  2166 PWs)   bands (ev):

   -12.1399 -11.9411 -11.4722 -11.4510 -11.4398 -11.4398 -11.3311 -11.3104
   -11.2716 -11.2715  -9.4623  -8.9646  -7.6077  -7.1267   1.6963   2.8152
     5.4743   5.6335   6.1402   6.2741   6.5269   7.0104   7.5777   7.5945
     8.0650   8.2183  11.8828  13.2615  15.6049  15.7443  19.0313  19.1661
    20.3585  20.6869  20.9036  21.5985  21.6173  23.0995  26.1741  26.3942
    26.9861  27.5940  28.3984  28.6602  29.0639  29.0949  29.1181  29.5381
    29.7809  31.5514  33.1614  33.4427  34.0777  35.2333  35.7340  35.8540
    36.3896  36.5574  36.9114  37.7760  39.0449  39.8904  40.4336  40.9250
    41.0082  41.1252  41.6547  42.5916  42.6543  42.9363  43.2880  43.4757
    44.5873  45.8291  45.9211

          k =-0.0000 0.4019 0.3074 (  2180 PWs)   bands (ev):

   -12.0620 -11.9418 -11.6546 -11.5900 -11.4036 -11.3876 -11.3251 -11.3103
   -11.3010 -11.2960  -9.2088  -8.6569  -7.3044  -7.0153   1.7547   2.8723
     4.1849   4.4004   5.9552   6.0939   6.7212   7.1636   7.2588   7.4547
     7.9381   8.1530  12.7875  13.9889  16.8928  16.9044  17.7117  18.3683
    20.4918  20.7061  20.8863  21.1223  21.5786  22.3575  24.5160  26.0139
    27.0413  27.6820  29.0910  29.0929  29.4181  29.5111  29.6492  30.5500
    31.1984  31.8642  32.6232  33.6623  34.0935  34.5721  35.2466  35.8786
    36.6048  37.1783  38.5327  38.8147  39.5624  39.9254  40.3283  40.4060
    40.8032  41.5966  41.6995  41.9928  42.0598  43.6162  44.7936  45.1032
    45.1583  45.4945  46.1282

          k =-0.0000 0.4019 0.6149 (  2190 PWs)   bands (ev):

   -12.2388 -12.2290 -11.5486 -11.4727 -11.3658 -11.3602 -11.3058 -11.2996
   -11.2743 -11.2679  -8.7458  -8.4312  -6.8173  -6.7764   1.7902   2.2659
     3.4897   3.5894   4.8305   4.8447   7.0393   7.1532   7.4298   7.7684
     7.7782   7.9591  14.0946  14.6185  16.4685  16.6058  19.0167  19.2272
    20.2536  20.3503  20.8433  20.9793  21.1258  21.6166  23.6689  24.4861
    28.1522  28.6099  29.0896  29.0913  29.9758  30.1247  30.3329  30.7159
    31.2462  31.9932  32.7081  33.2563  34.5198  35.5544  35.9200  36.0582
    37.8627  37.9276  38.2585  38.7602  39.6209  39.6958  39.7621  40.6163
    41.1416  41.5901  43.3521  43.6485  44.1229  44.4312  44.9458  45.3233
    46.5235  46.5868  46.9571

          k = 0.2009 0.2009 0.0000 (  2153 PWs)   bands (ev):

   -12.2471 -11.8317 -11.4775 -11.4462 -11.4396 -11.4242 -11.3431 -11.2992
   -11.2717 -11.2647  -9.6758  -8.2889  -8.2767  -6.9361   1.2184   3.9262
     4.7638   5.3812   6.1689   6.4800   6.8297   7.0898   7.5192   7.5963
     7.9390   8.4141  11.0002  13.9561  15.4273  15.4811  18.9207  19.7135
    19.7317  20.3135  20.9450  21.2356  22.4086  24.9398  26.0192  26.0938
    26.4574  27.3274  27.4782  28.8500  29.0904  29.0943  30.0492  30.1932
    30.9498  31.4193  32.4917  33.5959  33.9412  34.3678  34.5019  34.7075
    35.2922  36.7296  38.3068  38.3436  38.6763  38.9623  40.6994  40.7750
    41.4325  41.6123  42.3592  42.4095  42.8616  43.2841  43.5449  43.7329
    44.2071  45.1666  46.2045

          k = 0.2009 0.2009 0.3074 (  2186 PWs)   bands (ev):

   -12.1157 -11.8259 -11.7346 -11.5663 -11.4152 -11.3773 -11.3338 -11.3062
   -11.3019 -11.2951  -9.4393  -8.0343  -7.7740  -6.9412   1.2450   3.4523
     4.6487   5.1334   5.3584   5.8276   6.2485   6.8310   7.2617   7.6959
     7.9468   8.3665  12.0862  14.5599  16.6836  16.6892  17.5622  19.6334
    19.6493  20.5588  20.9105  20.9120  21.8029  23.7267  24.2601  25.2702
    27.0802  28.1662  28.4427  29.0626  29.0906  29.1519  29.7354  30.8870
    31.6349  32.8212  33.3462  33.5175  33.7540  34.9811  35.2966  35.6885
    36.3088  36.6060  37.6255  38.7696  39.0007  39.2589  40.0267  40.2064
    40.9331  41.2637  41.6368  42.3131  42.6503  43.3001  44.3824  44.8147
    45.8345  45.9781  46.4224

          k = 0.2009 0.2009 0.6149 (  2199 PWs)   bands (ev):

   -12.2340 -12.1039 -11.7349 -11.4698 -11.3645 -11.3623 -11.3106 -11.2974
   -11.2803 -11.2667  -8.8348  -8.0797  -7.0274  -6.7834   1.3439   2.3553
     3.6550   4.4891   4.5608   5.6816   5.9431   7.1550   7.2657   7.6869
     7.7412   7.8362  13.6253  14.6419  16.4541  18.3536  18.3728  19.2112
    19.4854  20.3436  21.1067  21.1367  21.7042  22.0751  22.5441  24.9552
    27.2970  27.8240  29.0699  29.0915  29.1359  30.0767  31.2140  31.7427
    32.1320  32.4454  33.3880  33.9592  34.8279  34.8343  35.0932  35.7450
    37.0048  37.3913  38.7810  39.1012  39.7729  40.0154  40.1110  41.1993
    41.3551  41.3948  41.9441  41.9962  42.2318  44.4708  44.5597  45.5747
    46.1200  46.2816  46.8615

          k = 0.2009 0.4019 0.0000 (  2163 PWs)   bands (ev):

   -12.1397 -11.9810 -11.4687 -11.4527 -11.4442 -11.4401 -11.3282 -11.3114
   -11.2714 -11.2671  -9.3089  -8.7887  -7.8246  -7.3061   1.9800   3.0289
     5.2098   5.6984   6.0060   6.1182   6.5817   7.0083   7.5305   7.5744
     7.9627   8.1233  12.1896  13.2824  15.7586  15.8356  18.8940  19.2281
    20.4996  20.6337  20.9070  21.5078  21.9569  23.1488  26.1486  26.3612
    26.4647  26.7406  26.9750  27.9543  29.0937  29.0941  29.9354  30.6224
    31.1778  31.6871  32.7915  33.8694  34.3206  34.9052  35.0230  35.7057
    36.0512  36.4897  36.8202  37.5003  39.1661  39.8592  40.4320  41.3063
    41.8126  42.0294  42.2705  42.7639  42.9524  42.9629  43.0921  43.8558
    44.7306  45.2540  45.5317

          k = 0.2009 0.4019 0.3074 (  2183 PWs)   bands (ev):

   -12.0415 -11.9310 -11.6932 -11.6195 -11.4071 -11.3909 -11.3226 -11.3106
   -11.3024 -11.2990  -9.0545  -8.5080  -7.5061  -7.1423   1.8976   2.7154
     4.5066   4.6356   5.7673   5.8938   6.4561   7.2026   7.2689   7.4992
     7.9535   8.1830  12.8892  13.8234  16.9042  16.9977  17.7576  18.6417
    20.1298  20.6496  20.9446  21.0749  21.8883  23.0576  24.3836  25.5377
    26.5731  27.3294  28.5189  28.9043  29.0913  29.0944  29.7675  30.2676
    31.9660  32.8350  33.2001  33.6705  33.8364  34.2095  35.6902  36.2950
    36.8537  37.2132  37.6957  38.2750  39.7336  40.2527  40.3555  40.8972
    41.2606  41.5215  41.6388  42.2677  42.9323  43.3458  44.1787  44.8938
    45.0178  45.3288  46.1928

          k = 0.2009 0.4019 0.6149 (  2190 PWs)   bands (ev):

   -12.2352 -12.1660 -11.6352 -11.5036 -11.3656 -11.3627 -11.3051 -11.3000
   -11.2746 -11.2699  -8.6411  -8.3265  -6.9436  -6.8025   1.4896   1.8758
     3.8433   4.1846   4.5632   5.0784   6.8702   7.3636   7.5021   7.6792
     7.8300   7.9237  13.6581  14.0442  16.6103  17.3781  18.9389  19.2143
    19.7239  20.2101  20.9633  21.1853  21.7038  22.0757  23.4502  25.0387
    27.2866  27.6341  28.2506  29.0910  29.0940  29.6164  30.5893  31.4148
    31.9664  32.1550  33.4432  33.7951  34.9151  35.2455  35.7859  36.1394
    37.1725  37.8313  38.1613  39.4383  39.6047  40.0103  40.2538  40.8719
    41.1637  41.5286  42.7108  43.6499  43.9632  44.3586  44.8263  44.9766
    46.4434  46.4994  46.9511

          k = 0.4019 0.4019 0.0000 (  2179 PWs)   bands (ev):

   -12.1207 -12.0614 -11.4620 -11.4564 -11.4471 -11.4447 -11.3214 -11.3150
   -11.2668 -11.2642  -8.8929  -8.3392  -8.3306  -7.7717   2.6769   3.2426
     4.8829   5.3527   5.8593   6.0260   6.7578   6.9452   7.4845   7.5129
     7.8536   7.9242  12.7874  13.2014  15.9665  15.9859  18.9586  19.1808
    20.7951  20.8496  21.0593  21.2380  21.9929  22.4959  25.6005  25.8272
    26.6371  26.7212  26.8469  28.2358  29.0719  29.0918  29.4015  30.5298
    30.7102  31.8132  33.2569  34.0932  34.1921  34.4916  35.7449  35.8196
    36.0513  36.6108  37.0558  37.2205  39.9282  40.3731  40.8831  41.8455
    41.8955  42.3090  42.7146  43.0621  43.2357  43.2726  43.5138  43.9470
    44.5673  44.7360  44.8779

          k = 0.4019 0.4019 0.3074 (  2182 PWs)   bands (ev):

   -11.9857 -11.9297 -11.7377 -11.6919 -11.4071 -11.4004 -11.3162 -11.3107
   -11.3051 -11.3033  -8.6543  -8.2770  -7.8214  -7.5015   2.2061   2.4829
     4.8800   5.2233   5.5578   5.6548   6.0654   6.6254   7.5515   7.7849
     7.8825   8.0908  13.1609  13.4977  16.9543  16.9915  18.2953  19.0592
    19.4554  20.0735  21.1545  21.1561  23.0726  24.0210  24.2695  24.6509
    25.5198  25.9353  28.5633  28.8574  29.0879  29.0934  29.9078  30.2260
    31.9724  32.3087  32.7986  33.1615  34.6980  35.1178  36.0470  36.7933
    37.1791  37.1934  37.6403  38.0395  40.4508  40.5839  41.0532  41.2580
    41.6741  41.8656  42.3083  42.6905  42.8517  43.2084  43.8384  44.1305
    44.7830  45.1329  45.3663

          k = 0.4019 0.4019 0.6149 (  2169 PWs)   bands (ev):

   -12.1682 -12.1087 -11.7190 -11.6287 -11.3628 -11.3618 -11.3034 -11.3013
   -11.2756 -11.2736  -8.3854  -8.2183  -7.0649  -6.9573   1.2469   1.3816
     4.2153   4.2234   4.9842   6.0082   6.1526   7.0950   7.7141   7.7657
     7.8927   7.9589  13.2026  13.3198  17.1618  17.6056  18.9727  19.2581
    19.3643  19.6949  21.2184  21.4257  22.8721  23.2143  23.3802  25.1366
    26.0442  26.2286  27.3556  28.3437  29.0922  29.0929  30.9368  31.4934
    32.5182  32.6428  33.6978  34.2515  34.9945  35.5275  35.8761  36.4857
    36.5291  37.8692  38.4344  38.7091  40.1548  40.3589  41.1474  41.5759
    41.6993  42.2939  42.4152  43.0289  43.2408  44.1485  44.4869  45.3870
    45.8853  46.1486  46.8636

          k =-0.2009 0.2009 0.0000 (  2153 PWs)   bands (ev):

   -12.2471 -11.8317 -11.4775 -11.4461 -11.4396 -11.4242 -11.3431 -11.2992
   -11.2717 -11.2647  -9.6758  -8.2889  -8.2766  -6.9361   1.2184   3.9262
     4.7638   5.3812   6.1689   6.4799   6.8297   7.0899   7.5193   7.5962
     7.9390   8.4141  11.0002  13.9561  15.4273  15.4810  18.9207  19.7135
    19.7317  20.3135  20.9450  21.2357  22.4086  24.9398  26.0191  26.0938
    26.4574  27.3274  27.4782  28.8500  29.0904  29.0943  30.0492  30.1932
    30.9498  31.4193  32.4917  33.5959  33.9412  34.3678  34.5019  34.7075
    35.2922  36.7296  38.3069  38.3437  38.6762  38.9623  40.6995  40.7750
    41.4325  41.6123  42.3592  42.4096  42.8616  43.2841  43.5449  43.7328
    44.2070  45.1666  46.2045

          k =-0.2009 0.2009-0.3074 (  2186 PWs)   bands (ev):

   -12.1157 -11.8260 -11.7346 -11.5663 -11.4152 -11.3773 -11.3338 -11.3062
   -11.3019 -11.2951  -9.4393  -8.0343  -7.7740  -6.9412   1.2450   3.4523
     4.6486   5.1334   5.3584   5.8277   6.2484   6.8311   7.2617   7.6959
     7.9468   8.3665  12.0862  14.5599  16.6836  16.6892  17.5622  19.6334
    19.6493  20.5588  20.9105  20.9120  21.8029  23.7267  24.2601  25.2702
    27.0802  28.1662  28.4427  29.0626  29.0906  29.1519  29.7354  30.8869
    31.6348  32.8212  33.3462  33.5175  33.7540  34.9811  35.2967  35.6884
    36.3088  36.6060  37.6255  38.7696  39.0007  39.2589  40.0267  40.2064
    40.9332  41.2637  41.6367  42.3131  42.6503  43.3001  44.3824  44.8147
    45.8345  45.9780  46.4224

          k =-0.2009 0.2009-0.6149 (  2199 PWs)   bands (ev):

   -12.2340 -12.1039 -11.7349 -11.4698 -11.3645 -11.3624 -11.3106 -11.2974
   -11.2803 -11.2667  -8.8349  -8.0797  -7.0274  -6.7835   1.3439   2.3553
     3.6549   4.4891   4.5609   5.6816   5.9432   7.1550   7.2657   7.6869
     7.7412   7.8362  13.6253  14.6419  16.4541  18.3536  18.3728  19.2112
    19.4854  20.3436  21.1067  21.1367  21.7041  22.0751  22.5441  24.9552
    27.2970  27.8239  29.0699  29.0915  29.1359  30.0767  31.2141  31.7427
    32.1321  32.4455  33.3880  33.9592  34.8279  34.8342  35.0932  35.7450
    37.0048  37.3913  38.7810  39.1012  39.7729  40.0154  40.1110  41.1993
    41.3551  41.3948  41.9441  41.9962  42.2318  44.4708  44.5598  45.5746
    46.1200  46.2816  46.8615

[...]
    45.8346  46.0925  46.2010

          k = 0.0000 0.4055 0.0000 (  2188 PWs)   bands (ev):

   -12.1002 -11.8925 -11.4619 -11.4482 -11.4309 -11.4308 -11.3216 -11.3005
   -11.2488 -11.2487  -9.4200  -8.9142  -7.5333  -7.0517   1.7996   2.9285
     5.5043   5.5271   6.0403   6.2875   6.5746   7.0645   7.5325   7.5519
     8.1005   8.2405  11.8869  13.2215  15.4220  15.5263  19.1496  19.3037
    20.1328  20.8216  20.9767  21.3973  21.6637  23.1507  25.9850  26.2515
    26.5886  27.7387  28.5016  28.6701  29.0992  29.1023  29.3916  29.4970
    29.8052  31.2770  33.4691  33.6265  33.7951  35.1170  35.4051  36.0761
    36.4281  36.5962  36.7760  37.9134  39.4113  40.0508  40.7588  40.9350
    41.2585  41.4476  41.4729  42.0640  42.2771  43.2580  43.4767  43.6056
    45.1833  45.6450  46.2423

          k = 0.0000 0.4055 0.3020 (  2185 PWs)   bands (ev):

   -12.0369 -11.9136 -11.6179 -11.5518 -11.3957 -11.3829 -11.3154 -11.2989
   -11.2748 -11.2718  -9.1811  -8.6301  -7.2619  -6.9673   1.8250   2.9501
     4.1485   4.3548   5.9548   6.1026   6.7749   7.1931   7.2798   7.5091
     7.9582   8.1673  12.7786  13.9438  16.6849  16.6903  17.7865  18.4541
    20.5150  20.8404  20.9499  21.1605  21.4314  22.3804  24.4737  25.9471
    27.0714  27.5949  29.0947  29.0964  29.3858  29.8005  29.8594  30.5681
    31.2110  31.6470  32.4047  33.5499  34.1927  34.6644  35.1808  35.7376
    36.6231  37.0803  38.4766  38.7596  39.7156  39.9904  40.1389  40.2286
    40.8247  41.6199  41.8408  42.0763  42.2347  43.5600  44.7693  45.1555
    45.5679  45.6426  46.1709

          k = 0.0000 0.4055 0.6040 (  2196 PWs)   bands (ev):

   -12.1922 -12.1804 -11.5265 -11.4547 -11.3358 -11.3287 -11.2974 -11.2908
   -11.2708 -11.2645  -8.7316  -8.4201  -6.8275  -6.7842   1.7990   2.2593
     3.5225   3.6308   4.8867   4.8963   7.0645   7.1745   7.4881   7.7995
     7.8148   8.0035  14.1192  14.6264  16.6146  16.7426  18.7831  19.0197
    20.3318  20.4637  20.8754  20.9504  21.1392  21.6290  23.8140  24.6360
    28.1306  28.8030  29.0938  29.0957  29.9916  30.2961  30.3430  30.4313
    31.3798  32.1262  32.5365  33.1968  34.3384  35.3983  35.9507  36.0078
    37.4542  37.4855  38.0536  38.6264  39.6356  39.8184  39.8721  40.6795
    41.2389  41.7231  43.3449  43.7483  43.8250  44.3639  44.6222  45.3065
    46.4635  46.6905  47.0641

          k = 0.2027 0.2027 0.0000 (  2179 PWs)   bands (ev):

   -12.2114 -11.7777 -11.4642 -11.4375 -11.4306 -11.4260 -11.3338 -11.2892
   -11.2488 -11.2416  -9.6357  -8.2256  -8.2113  -6.8638   1.3157   4.0237
     4.8825   5.2389   6.2095   6.4034   6.8331   7.1436   7.4668   7.5546
     7.9864   8.4267  10.9934  13.8377  15.2656  15.2843  18.9881  19.4931
    19.8701  20.4765  20.9610  21.3525  22.2235  25.0506  25.6796  26.0859
    26.5323  27.0920  27.3953  28.5605  29.0943  29.0983  30.3659  30.4498
    31.2019  31.5599  32.1417  33.3706  34.0508  34.4714  34.6641  34.7610
    35.2149  36.5764  38.0315  38.4917  38.7890  39.5266  40.5884  40.8097
    41.7822  41.8534  41.8565  42.3354  42.9260  43.0761  43.7216  44.1005
    44.1694  45.4882  46.6065

          k = 0.2027 0.2027 0.3020 (  2165 PWs)   bands (ev):

   -12.0923 -11.7966 -11.6984 -11.5270 -11.4068 -11.3760 -11.3249 -11.2898
   -11.2752 -11.2748  -9.4080  -7.9962  -7.7468  -6.8925   1.3074   3.4728
     4.6003   5.2357   5.3603   5.8265   6.2668   6.8595   7.2926   7.7342
     7.9832   8.3754  12.0646  14.4596  16.4842  16.5217  17.5640  19.6654
    19.7161  20.6884  20.9414  21.0584  21.6866  23.6256  24.3234  25.2338
    27.0725  28.2915  28.3712  29.0506  29.0950  29.1289  29.8431  31.0524
    31.7132  32.5660  33.2356  33.4330  33.7679  35.1133  35.4405  35.6910
    36.2200  36.4728  37.4686  38.9463  39.0138  39.3387  39.5861  40.3451
    40.8693  41.2843  41.8309  42.3212  42.5214  43.2909  44.3206  45.0696
    45.7628  46.1940  46.4548

          k = 0.2027 0.2027 0.6040 (  2185 PWs)   bands (ev):

   -12.1867 -12.0389 -11.7308 -11.4542 -11.3331 -11.3295 -11.3019 -11.2887
   -11.2786 -11.2638  -8.8161  -8.0581  -7.0507  -6.7915   1.3484   2.3476
     3.6886   4.5465   4.6070   5.7633   6.0006   7.1800   7.3108   7.7285
     7.7592   7.8499  13.6467  14.6537  16.5536  18.3144  18.3148  19.2175
    19.3096  20.4348  21.1006  21.1878  21.7865  22.0732  22.7361  25.1427
    27.1632  28.0201  29.0770  29.0960  29.1293  29.9800  31.3943  31.7671
    31.8682  32.5643  33.0382  34.1095  34.7552  35.0477  35.1662  35.6321
    36.8003  37.1782  38.3967  39.0489  39.9189  40.0796  40.1366  41.2436
    41.2743  41.4708  41.5130  41.8462  42.2045  44.4478  44.6631  45.7860
    45.8170  46.0285  46.6111

          k = 0.2027 0.4055 0.0000 (  2187 PWs)   bands (ev):

   -12.1012 -11.9361 -11.4573 -11.4462 -11.4355 -11.4312 -11.3185 -11.3014
   -11.2486 -11.2440  -9.2645  -8.7354  -7.7547  -7.2325   2.0795   3.1275
     5.2870   5.5743   6.0188   6.0338   6.6234   7.0511   7.4802   7.5298
     8.0066   8.1506  12.1703  13.2199  15.5908  15.6459  18.9846  19.3764
    20.2788  20.7557  20.9569  21.3071  22.0594  23.2100  26.0545  26.2267
    26.4494  26.5720  26.8227  28.1401  29.0976  29.0982  29.6664  30.8819
    31.4066  31.4363  32.9557  34.0067  34.0159  34.8064  34.9558  35.5618
    36.2468  36.5839  36.7154  37.7622  39.4527  40.0833  40.5920  41.0451
    41.7792  42.0044  42.2161  42.5356  42.6812  43.2453  43.4405  44.0836
    45.2221  45.2226  45.9189

          k = 0.2027 0.4055 0.3020 (  2180 PWs)   bands (ev):

   -12.0167 -11.9044 -11.6573 -11.5825 -11.3988 -11.3847 -11.3127 -11.2991
   -11.2759 -11.2744  -9.0248  -8.4753  -7.4680  -7.0962   1.9515   2.7480
     4.4832   4.6533   5.7517   5.9014   6.5042   7.2455   7.3152   7.5229
     7.9850   8.2001  12.8642  13.7745  16.7336  16.7871  17.8075  18.7030
    20.1396  20.7844  20.9952  21.0233  21.9215  23.0796  24.3533  25.5009
    26.6085  27.3721  28.4134  28.8760  29.0952  29.0982  29.8021  30.3552
    31.9438  32.7124  33.0125  33.5824  33.9073  34.3140  35.7533  36.2847
    36.8698  37.1184  37.5887  38.3393  39.7628  40.0748  40.4181  40.8655
    41.1430  41.3215  41.6892  42.4092  43.0365  43.3131  44.2338  44.8943
    45.1929  45.7357  46.2407

          k = 0.2027 0.4055 0.6040 (  2187 PWs)   bands (ev):

   -12.1877 -12.1118 -11.6227 -11.4851 -11.3343 -11.3304 -11.2966 -11.2911
   -11.2720 -11.2671  -8.6244  -8.3058  -6.9607  -6.8115   1.4838   1.8698
     3.8801   4.2273   4.6014   5.1342   6.9407   7.3955   7.5427   7.7205
     7.8675   7.9509  13.6965  14.0952  16.6811  17.4417  18.7383  19.0449
    19.7885  20.3214  20.9363  21.2678  21.7219  22.1404  23.5650  25.1858
    27.3148  27.8485  28.2687  29.0952  29.0978  29.6301  30.4012  31.1730
    32.0079  32.2461  33.2810  33.7281  34.7769  35.2085  35.5017  36.0445
    37.1812  37.6574  38.1089  39.3447  39.7757  40.1252  40.3877  40.6363
    41.1367  41.6608  42.6929  43.4844  43.7426  44.3225  44.7903  44.9732
    46.3672  46.4041  46.8135

          k = 0.4055 0.4055 0.0000 (  2179 PWs)   bands (ev):

   -12.0833 -12.0219 -11.4493 -11.4452 -11.4386 -11.4360 -11.3115 -11.3049
   -11.2437 -11.2410  -8.8421  -8.2798  -8.2691  -7.7034   2.7625   3.3116
     4.9934   5.4252   5.7466   5.9241   6.7819   6.9661   7.4281   7.4604
     7.9119   7.9721  12.7213  13.1143  15.8310  15.8344  19.0709  19.3340
    20.6389  20.8772  21.0350  21.0909  22.0987  22.5478  25.6793  25.9077
    26.2253  26.4367  26.8279  28.3539  29.0865  29.0964  29.7318  30.4716
    30.8143  31.5987  33.0374  33.9210  34.0732  34.2738  35.5096  36.1414
    36.2713  36.4101  37.3801  37.4803  40.0978  40.4619  41.2125  41.5577
    42.0106  42.1100  42.5184  42.8856  42.9990  43.6019  43.9019  44.4067
    44.5704  44.8123  45.3051

          k = 0.4055 0.4055 0.3020 (  2186 PWs)   bands (ev):

   -11.9620 -11.9063 -11.7016 -11.6563 -11.3981 -11.3921 -11.3063 -11.3008
   -11.2774 -11.2769  -8.6174  -8.2270  -7.7979  -7.4631   2.2245   2.4856
     4.9104   5.2801   5.5393   5.6778   6.0716   6.6821   7.5880   7.7970
     7.9347   8.1173  13.1100  13.4404  16.8109  16.8323  18.3124  19.0940
    19.4625  20.0955  21.2087  21.2218  23.1307  24.0490  24.2272  24.7028
    25.4932  26.0415  28.3686  28.6962  29.0924  29.0967  30.0640  30.3429
    31.8946  32.2148  32.6290  32.9682  34.6737  34.9919  36.2942  36.8972
    37.1186  37.1445  37.6496  38.1021  40.3779  40.6035  40.9651  41.1865
    41.4419  41.6164  42.3345  42.7470  42.7713  43.3395  44.0090  44.3162
    45.0736  45.4366  45.7135

          k = 0.4055 0.4055 0.6040 (  2182 PWs)   bands (ev):

   -12.1142 -12.0441 -11.7193 -11.6181 -11.3291 -11.3275 -11.2954 -11.2929
   -11.2749 -11.2721  -8.3582  -8.1833  -7.0917  -6.9752   1.2308   1.3666
     4.2376   4.2428   5.0429   6.0705   6.2392   7.1768   7.7461   7.7848
     7.9327   7.9906  13.2524  13.3794  17.1702  17.5933  18.8365  19.1602
    19.3393  19.7291  21.3101  21.5792  22.9708  23.3157  23.4421  25.2841
    26.1411  26.3504  27.2876  28.3274  29.0958  29.0965  30.6509  31.1754
    32.5973  32.7567  33.5053  34.2524  34.5636  35.1629  35.6886  36.3823
    36.5762  38.0556  38.5079  38.8218  40.2279  40.5814  41.2154  41.6375
    41.7766  42.1006  42.4937  43.2094  43.2563  44.2809  44.3517  44.9695
    45.5900  45.9599  46.8196

          k =-0.2027 0.2027 0.0000 (  2179 PWs)   bands (ev):

   -12.2114 -11.7777 -11.4642 -11.4375 -11.4306 -11.4260 -11.3338 -11.2892
   -11.2489 -11.2415  -9.6357  -8.2256  -8.2114  -6.8638   1.3157   4.0237
     4.8825   5.2389   6.2095   6.4035   6.8331   7.1436   7.4668   7.5546
     7.9864   8.4267  10.9934  13.8377  15.2656  15.2843  18.9880  19.4931
    19.8701  20.4765  20.9610  21.3525  22.2235  25.0506  25.6796  26.0859
    26.5322  27.0919  27.3953  28.5606  29.0943  29.0983  30.3660  30.4498
    31.2019  31.5599  32.1416  33.3706  34.0508  34.4714  34.6641  34.7610
    35.2148  36.5764  38.0314  38.4916  38.7891  39.5265  40.5884  40.8096
    41.7822  41.8534  41.8565  42.3354  42.9261  43.0762  43.7216  44.1005
    44.1695  45.4881  46.6065

          k =-0.2027 0.2027-0.3020 (  2165 PWs)   bands (ev):

   -12.0923 -11.7965 -11.6984 -11.5270 -11.4067 -11.3760 -11.3249 -11.2898
   -11.2752 -11.2748  -9.4080  -7.9961  -7.7469  -6.8925   1.3074   3.4728
     4.6003   5.2357   5.3603   5.8264   6.2668   6.8595   7.2926   7.7342
     7.9832   8.3754  12.0646  14.4596  16.4842  16.5217  17.5640  19.6654
    19.7161  20.6884  20.9414  21.0583  21.6865  23.6256  24.3234  25.2338
    27.0725  28.2916  28.3712  29.0506  29.0950  29.1289  29.8430  31.0524
    31.7133  32.5661  33.2356  33.4329  33.7678  35.1134  35.4405  35.6910
    36.2200  36.4728  37.4686  38.9463  39.0137  39.3386  39.5860  40.3452
    40.8693  41.2843  41.8310  42.3212  42.5214  43.2909  44.3206  45.0696
    45.7628  46.1940  46.4548

          k =-0.2027 0.2027-0.6040 (  2185 PWs)   bands (ev):

   -12.1867 -12.0389 -11.7308 -11.4542 -11.3332 -11.3295 -11.3019 -11.2887
   -11.2786 -11.2638  -8.8161  -8.0581  -7.0508  -6.7915   1.3484   2.3476
     3.6886   4.5465   4.6069   5.7633   6.0006   7.1800   7.3108   7.7285
     7.7593   7.8499  13.6467  14.6537  16.5535  18.3144  18.3149  19.2175
    19.3097  20.4348  21.1006  21.1878  21.7865  22.0732  22.7362  25.1427
    27.1632  28.0202  29.0770  29.0960  29.1293  29.9799  31.3942  31.7670
    31.8682  32.5643  33.0382  34.1095  34.7553  35.0477  35.1663  35.6321
    36.8004  37.1782  38.3967  39.0488  39.9190  40.0796  40.1366  41.2436
    41.2742  41.4708  41.5131  41.8462  42.2045  44.4478  44.6630  45.7861
    45.8169  46.0286  46.6111

          k =-0.2027 0.4055 0.0000 (  2187 PWs)   bands (ev):

   -12.1012 -11.9361 -11.4573 -11.4462 -11.4355 -11.4312 -11.3185 -11.3014
   -11.2486 -11.2440  -9.2645  -8.7354  -7.7547  -7.2325   2.0795   3.1275
     5.2870   5.5742   6.0188   6.0338   6.6234   7.0510   7.4802   7.5298
     8.0066   8.1505  12.1703  13.2199  15.5908  15.6459  18.9845  19.3764
    20.2788  20.7557  20.9569  21.3071  22.0593  23.2100  26.0546  26.2266
    26.4494  26.5720  26.8227  28.1401  29.0975  29.0983  29.6664  30.8820
    31.4066  31.4363  32.9557  34.0067  34.0159  34.8064  34.9559  35.5618
    36.2468  36.5839  36.7154  37.7622  39.4527  40.0833  40.5919  41.0451
    41.7792  42.0043  42.2161  42.5356  42.6813  43.2453  43.4405  44.0836
    45.2222  45.2227  45.9189

          k =-0.2027 0.4055-0.3020 (  2180 PWs)   bands (ev):

   -12.0167 -11.9044 -11.6573 -11.5825 -11.3988 -11.3847 -11.3127 -11.2991
   -11.2759 -11.2744  -9.0248  -8.4753  -7.4681  -7.0962   1.9515   2.7480
     4.4833   4.6533   5.7517   5.9014   6.5042   7.2455   7.3152   7.5229
     7.9850   8.2001  12.8642  13.7744  16.7336  16.7871  17.8074  18.7031
    20.1396  20.7844  20.9952  21.0233  21.9215  23.0797  24.3533  25.5009
    26.6085  27.3721  28.4134  28.8760  29.0952  29.0982  29.8021  30.3553
    31.9439  32.7123  33.0125  33.5823  33.9072  34.3141  35.7533  36.2848
    36.8697  37.1185  37.5887  38.3393  39.7627  40.0748  40.4181  40.8655
    41.1430  41.3216  41.6892  42.4092  43.0365  43.3132  44.2338  44.8943
    45.1929  45.7358  46.2406

          k =-0.2027 0.4055-0.6040 (  2187 PWs)   bands (ev):

   -12.1877 -12.1118 -11.6227 -11.4851 -11.3343 -11.3303 -11.2966 -11.2912
   -11.2721 -11.2671  -8.6244  -8.3058  -6.9607  -6.8115   1.4838   1.8698
     3.8801   4.2273   4.6014   5.1342   6.9407   7.3955   7.5427   7.7205
     7.8675   7.9509  13.6965  14.0952  16.6811  17.4418  18.7383  19.0449
    19.7885  20.3213  20.9363  21.2678  21.7219  22.1404  23.5650  25.1858
    27.3148  27.8486  28.2687  29.0952  29.0979  29.6301  30.4012  31.1730
    32.0079  32.2461  33.2810  33.7282  34.7769  35.2085  35.5017  36.0445
    37.1813  37.6574  38.1089  39.3448  39.7757  40.1252  40.3877  40.6363
    41.1367  41.6608  42.6929  43.4844  43.7426  44.3226  44.7903  44.9732
    46.3672  46.4041  46.8135

          k =-0.4055 0.4055 0.0000 (  2179 PWs)   bands (ev):

   -12.0833 -12.0218 -11.4493 -11.4451 -11.4386 -11.4360 -11.3115 -11.3049
   -11.2438 -11.2410  -8.8421  -8.2797  -8.2692  -7.7034   2.7625   3.3116
     4.9934   5.4252   5.7466   5.9241   6.7819   6.9661   7.4281   7.4604
     7.9120   7.9721  12.7213  13.1143  15.8310  15.8344  19.0708  19.3341
    20.6388  20.8772  21.0350  21.0908  22.0987  22.5478  25.6794  25.9076
    26.2253  26.4366  26.8278  28.3540  29.0865  29.0964  29.7319  30.4716
    30.8142  31.5987  33.0374  33.9210  34.0731  34.2738  35.5096  36.1414
    36.2713  36.4101  37.3801  37.4802  40.0979  40.4618  41.2124  41.5576
    42.0106  42.1099  42.5184  42.8856  42.9991  43.6018  43.9020  44.4067
    44.5706  44.8122  45.3050

          k =-0.4055 0.4055-0.3020 (  2186 PWs)   bands (ev):

   -11.9620 -11.9063 -11.7016 -11.6563 -11.3981 -11.3921 -11.3063 -11.3008
   -11.2775 -11.2769  -8.6174  -8.2270  -7.7980  -7.4631   2.2245   2.4856
     4.9104   5.2801   5.5393   5.6777   6.0716   6.6821   7.5880   7.7970
     7.9347   8.1173  13.1100  13.4403  16.8109  16.8323  18.3123  19.0941
    19.4625  20.0955  21.2087  21.2217  23.1307  24.0490  24.2272  24.7028
    25.4931  26.0415  28.3686  28.6962  29.0925  29.0967  30.0641  30.3429
    31.8947  32.2148  32.6290  32.9682  34.6737  34.9919  36.2942  36.8972
    37.1186  37.1444  37.6496  38.1020  40.3778  40.6036  40.9651  41.1865
    41.4419  41.6164  42.3345  42.7470  42.7713  43.3396  44.0090  44.3162
    45.0735  45.4366  45.7135

          k =-0.4055 0.4055-0.6040 (  2182 PWs)   bands (ev):

   -12.1141 -12.0441 -11.7193 -11.6181 -11.3291 -11.3275 -11.2954 -11.2929
   -11.2749 -11.2721  -8.3582  -8.1833  -7.0917  -6.9751   1.2308   1.3666
     4.2376   4.2427   5.0429   6.0704   6.2392   7.1768   7.7461   7.7848
     7.9327   7.9906  13.2525  13.3793  17.1701  17.5933  18.8365  19.1602
    19.3393  19.7291  21.3101  21.5792  22.9709  23.3157  23.4421  25.2841
    26.1410  26.3504  27.2876  28.3274  29.0958  29.0965  30.6509  31.1754
    32.5972  32.7567  33.5053  34.2524  34.5636  35.1629  35.6885  36.3823
    36.5763  38.0555  38.5079  38.8218  40.2278  40.5815  41.2154  41.6376
    41.7766  42.1006  42.4937  43.2094  43.2564  44.2809  44.3517  44.9695
    45.5900  45.9598  46.8197

     the Fermi energy is     8.8447 ev

!    total energy              =    -455.51255560 Ry
     Harris-Foulkes estimate   =    -455.51255181 Ry
     estimated scf accuracy    <          9.9E-09 Ry

     The total energy is the sum of the following terms:

     one-electron contribution =    -138.16938446 Ry
     hartree contribution      =     108.82995405 Ry
     xc contribution           =    -124.49404869 Ry
     ewald contribution        =    -301.67908765 Ry
     smearing contrib. (-TS)   =       0.00001115 Ry

     total magnetization       =     0.00 Bohr mag/cell
     absolute magnetization    =     0.00 Bohr mag/cell

     convergence has been achieved in   9 iterations

     Forces acting on atoms (Ry/au):

     atom    1 type  1   force =     0.00000000    0.00000000    0.00000000
     atom    2 type  1   force =     0.00000000    0.00000000    0.00000000
     atom    3 type  2   force =     0.00053421    0.00053421   -0.00000000
     atom    4 type  2   force =    -0.00053421   -0.00053421   -0.00000000
     atom    5 type  2   force =     0.00053280   -0.00053280    0.00000000
     atom    6 type  2   force =    -0.00053280    0.00053280    0.00000000

     Total force =     0.001509     Total SCF correction =     0.000075


     entering subroutine stress ...

          total   stress  (Ry/bohr**3)                   (kbar)     P=   -7.63
  -0.00005208   0.00000006   0.00000000         -7.66      0.01      0.00
   0.00000006  -0.00005208   0.00000000          0.01     -7.66      0.00
   0.00000000   0.00000000  -0.00005147          0.00      0.00     -7.57


     init_run     :     31.97s CPU     32.21s WALL (       2 calls)
     electrons    :   1495.24s CPU   1542.34s WALL (       5 calls)
     update_pot   :     15.17s CPU     15.28s WALL (       3 calls)
     forces       :     47.16s CPU     47.20s WALL (       5 calls)
     stress       :    123.81s CPU    123.94s WALL (       5 calls)

     Called by init_run:
     wfcinit      :     21.84s CPU     21.98s WALL (       2 calls)
     potinit      :      2.20s CPU      2.23s WALL (       2 calls)

     Called by electrons:
     c_bands      :   1181.13s CPU   1206.85s WALL (      31 calls)
     sum_band     :    254.22s CPU    255.55s WALL (      31 calls)
     v_of_rho     :     11.40s CPU     11.48s WALL (      35 calls)
     newd         :     55.30s CPU     55.36s WALL (      35 calls)
     mix_rho      :      1.11s CPU      1.12s WALL (      31 calls)

     Called by c_bands:
     init_us_2    :      4.85s CPU      4.88s WALL (    3996 calls)
     cegterg      :   1165.64s CPU   1191.28s WALL (    1674 calls)

     Called by *egterg:
     h_psi        :    712.26s CPU    719.02s WALL (    5413 calls)
     s_psi        :     32.10s CPU     32.09s WALL (    5413 calls)
     g_psi        :      2.60s CPU      2.61s WALL (    3631 calls)
     cdiaghg      :    231.90s CPU    232.46s WALL (    5089 calls)

     Called by h_psi:
     add_vuspsi   :     32.23s CPU     32.38s WALL (    5413 calls)

     General routines
     calbec       :     54.28s CPU     57.82s WALL (    7627 calls)
     fft          :     10.97s CPU     11.04s WALL (    1263 calls)
     ffts         :      0.14s CPU      0.14s WALL (     132 calls)
     fftw         :    520.52s CPU    537.47s WALL (  745386 calls)
     interpolate  :      1.36s CPU      1.38s WALL (     132 calls)

     Parallel routines
     fft_scatter  :    211.80s CPU    225.76s WALL (  746781 calls)

     PWSCF        : 28m38.74s CPU    29m26.44s WALL


   This run was terminated on:  14:41:49  24Jan2014            

=------------------------------------------------------------------------------=
   JOB DONE.
=------------------------------------------------------------------------------=
