
     Program PWSCF v.5.0.2 (svn rev. 9656) starts on 17Apr2014 at  9:53:58 

     This program is part of the open-source Quantum ESPRESSO suite
     for quantum simulation of materials; please cite
         "P. Giannozzi et al., J. Phys.:Condens. Matter 21 395502 (2009);
          URL http://www.quantum-espresso.org", 
     in publications or presentations arising from this work. More details at
     http://www.quantum-espresso.org/quote.php

     Parallel version (MPI), running on    32 processors
     R & G space division:  proc/nbgrp/npool/nimage =      32

     Current dimensions of program PWSCF are:
     Max number of different atomic species (ntypx) = 10
     Max number of k-points (npk) =  40000
     Max angular momentum in pseudopotentials (lmaxx) =  3
     Reading input from pwscf.in
Warning: card &CELL ignored
Warning: card / ignored

     Subspace diagonalization in iterative solution of the eigenvalue problem:
     a serial algorithm will be used


     Parallelization info
     --------------------
     sticks:   dense  smooth     PW     G-vecs:    dense   smooth      PW
     Min         186      59     16                60450    10910    1608
     Max         187      60     17                60467    10962    1629
     Sum        5965    1901    531              1934647   350115   51659



     bravais-lattice index     =            0
     lattice parameter (alat)  =      12.2076  a.u.
     unit-cell volume          =   10244.9005 (a.u.)^3
     number of atoms/cell      =           49
     number of atomic types    =            2
     number of electrons       =       454.00
     number of Kohn-Sham states=          681
     kinetic-energy cutoff     =      40.0000  Ry
     charge density cutoff     =     500.0000  Ry
     convergence threshold     =      1.0E-06
     mixing beta               =       0.3000
     number of iterations used =            8  plain     mixing
     Exchange-correlation      = SLA  PW   PBE  PBE ( 1 4 3 4 0)
     EXX-fraction              =        0.00
     nstep                     =           50


     celldm(1)=  12.207631  celldm(2)=   0.000000  celldm(3)=   0.000000
     celldm(4)=   0.000000  celldm(5)=   0.000000  celldm(6)=   0.000000

     crystal axes: (cart. coord. in units of alat)
               a(1) = (   1.000000   0.000000   0.000000 )  
               a(2) = (   0.000000   1.004836   0.000000 )  
               a(3) = (   0.000000   0.000000   5.604262 )  

     reciprocal axes: (cart. coord. in units 2 pi/alat)
               b(1) = (  1.000000  0.000000  0.000000 )  
               b(2) = (  0.000000  0.995187  0.000000 )  
               b(3) = (  0.000000  0.000000  0.178436 )  


     PseudoPot. # 1 for O  read from file:
     /home/camp/zhonxu/pseudo/o_pbe_v1.01.uspp.F.UPF
     MD5 check sum: 2bcb18d16ea4b960afae9ec6d52f22d2
     Pseudo is Ultrasoft + core correction, Zval =  6.0
     Generated by new atomic code, or converted to UPF format
     Using radial grid of  737 points,  5 beta functions with: 
                l(1) =   0
                l(2) =   0
                l(3) =   1
                l(4) =   1
                l(5) =   2
     Q(r) pseudized with  8 coefficients,  rinner =    0.900   0.900   0.900
                                                       0.900   0.900

     PseudoPot. # 2 for Pt read from file:
     /home/camp/zhonxu/pseudo/pt_pbe_v1.uspp.F.UPF
     MD5 check sum: 4c71d6ad5ef119f1eb26a4d0b7884226
     Pseudo is Ultrasoft + core correction, Zval = 16.0
     Generated by new atomic code, or converted to UPF format
     Using radial grid of  985 points,  6 beta functions with: 
                l(1) =   0
                l(2) =   0
                l(3) =   1
                l(4) =   1
                l(5) =   2
                l(6) =   2
     Q(r) pseudized with  8 coefficients,  rinner =    1.300   1.300   1.300
                                                       1.300   1.300

     atomic species   valence    mass     pseudopotential
        O0             6.00    15.99940     O ( 1.00)
        Pt1           16.00   195.08000     Pt( 1.00)

      4 Sym. Ops. (no inversion) found



   Cartesian axes

     site n.     atom                  positions (alat units)
         1           O0  tau(   1) = (   0.0000000   0.5024180   1.8575886  )
         2           Pt1 tau(   2) = (   0.2500000   0.5024180   2.0485258  )
         3           Pt1 tau(   3) = (   0.0000000   0.0000000   2.0485258  )
         4           O0  tau(   4) = (   0.2500000   0.8139171   2.0485258  )
         5           O0  tau(   5) = (   0.2500000   0.1909188   2.0485258  )
         6           O0  tau(   6) = (   0.0000000   0.5024180   2.2394070  )
         7           O0  tau(   7) = (   0.0000000   0.0000000   2.3600107  )
         8           Pt1 tau(   8) = (   0.2500000   0.0000000   2.5509479  )
         9           Pt1 tau(   9) = (   0.0000000   0.5024180   2.5509479  )
        10           O0  tau(  10) = (   0.2500000   0.6933368   2.5509479  )
        11           O0  tau(  11) = (   0.2500000   0.3114991   2.5509479  )
        12           O0  tau(  12) = (   0.0000000   0.0000000   2.7418291  )
        13           O0  tau(  13) = (   0.0000000   0.5024180   2.8577252  )
        14           Pt1 tau(  14) = (   0.2500000   0.5024180   3.0464207  )
        15           Pt1 tau(  15) = (   0.0000000   0.0000000   3.0519689  )
        16           O0  tau(  16) = (   0.2500000   0.8129525   3.0573490  )
        17           O0  tau(  17) = (   0.2500000   0.1918835   3.0573490  )
        18           O0  tau(  18) = (   0.0000000   0.5024180   3.2388711  )
        19           O0  tau(  19) = (   0.0000000   0.0000000   3.3644626  )
        20           Pt1 tau(  20) = (   0.2500000   0.0000000   3.5576415  )
        21           Pt1 tau(  21) = (   0.0000000   0.5024180   3.5547273  )
        22           O0  tau(  22) = (   0.2500000   0.6920004   3.5920516  )
        23           O0  tau(  23) = (   0.2500000   0.3128356   3.5920516  )
        24           O0  tau(  24) = (   0.0000000   0.0000000   3.7444315  )
        25           O0  tau(  25) = (   0.5000000   0.5024180   1.8575886  )
        26           Pt1 tau(  26) = (   0.7500000   0.5024180   2.0485258  )
        27           Pt1 tau(  27) = (   0.5000000   0.0000000   2.0485258  )
        28           O0  tau(  28) = (   0.7500000   0.8139171   2.0485258  )
        29           O0  tau(  29) = (   0.7500000   0.1909188   2.0485258  )
        30           O0  tau(  30) = (   0.5000000   0.5024180   2.2394070  )
        31           O0  tau(  31) = (   0.5000000   0.0000000   2.3600107  )
        32           Pt1 tau(  32) = (   0.7500000   0.0000000   2.5509479  )
        33           Pt1 tau(  33) = (   0.5000000   0.5024180   2.5509479  )
        34           O0  tau(  34) = (   0.7500000   0.6933368   2.5509479  )
        35           O0  tau(  35) = (   0.7500000   0.3114991   2.5509479  )
        36           O0  tau(  36) = (   0.5000000   0.0000000   2.7418291  )
        37           O0  tau(  37) = (   0.5000000   0.5024180   2.8577252  )
        38           Pt1 tau(  38) = (   0.7500000   0.5024180   3.0464207  )
        39           Pt1 tau(  39) = (   0.5000000   0.0000000   3.0519689  )
        40           O0  tau(  40) = (   0.7500000   0.8129525   3.0573490  )
        41           O0  tau(  41) = (   0.7500000   0.1918835   3.0573490  )
        42           O0  tau(  42) = (   0.5000000   0.5024180   3.2388711  )
        43           O0  tau(  43) = (   0.5000000   0.0000000   3.3644626  )
        44           Pt1 tau(  44) = (   0.7500000   0.0000000   3.5576415  )
        45           Pt1 tau(  45) = (   0.5000000   0.5024180   3.5547273  )
        46           O0  tau(  46) = (   0.7500000   0.6920004   3.5920516  )
        47           O0  tau(  47) = (   0.7500000   0.3128356   3.5920516  )
        48           O0  tau(  48) = (   0.5000000   0.0000000   3.7444315  )
        49           O0  tau(  49) = (   0.5000000   0.5024180   3.8391996  )

     number of k points=     9  Methfessel-Paxton smearing, width (Ry)=  0.0100
                       cart. coord. in units 2pi/alat
        k(    1) = (   0.0000000   0.0000000   0.0000000), wk =   0.1250000
        k(    2) = (   0.0000000   0.2487968   0.0000000), wk =   0.2500000
        k(    3) = (   0.0000000  -0.4975937   0.0000000), wk =   0.1250000
        k(    4) = (   0.2500000   0.0000000   0.0000000), wk =   0.2500000
        k(    5) = (   0.2500000   0.2487968   0.0000000), wk =   0.5000000
        k(    6) = (   0.2500000  -0.4975937   0.0000000), wk =   0.2500000
        k(    7) = (  -0.5000000   0.0000000   0.0000000), wk =   0.1250000
        k(    8) = (  -0.5000000   0.2487968   0.0000000), wk =   0.2500000
        k(    9) = (  -0.5000000  -0.4975937   0.0000000), wk =   0.1250000

     Dense  grid:  1934647 G-vectors     FFT dimensions: (  90,  90, 500)

     Smooth grid:   350115 G-vectors     FFT dimensions: (  50,  50, 288)

     Largest allocated arrays     est. size (Mb)     dimensions
        Kohn-Sham Wavefunctions        14.46 Mb     (   1392,  681)
        NL pseudopotentials            15.23 Mb     (   1392,  717)
        Each V/rho on FFT grid          1.98 Mb     ( 129600)
        Each G-vector array             0.46 Mb     (  60458)
        G-vector shells                 0.23 Mb     (  30010)
     Largest temporary arrays     est. size (Mb)     dimensions
        Auxiliary wavefunctions        57.86 Mb     (   1392, 2724)
        Each subspace H/S matrix      113.22 Mb     (2724,2724)
        Each <psi_i|beta_j> matrix      7.45 Mb     (    717,  681)
        Arrays for rho mixing          15.82 Mb     ( 129600,   8)

     Check: negative/imaginary core charge=   -0.000003    0.000000

     Initial potential from superposition of free atoms
     Check: negative starting charge=   -3.073612

     starting charge  445.99977, renormalised to  454.00000

     negative rho (up, down):  0.313E+01 0.000E+00
     Starting wfc are  324 randomized atomic wfcs

     total cpu time spent up to now is       90.9 secs

     Self-consistent Calculation

     iteration #  1     ecut=    40.00 Ry     beta=0.30
     Davidson diagonalization with overlap
     ethr =  1.00E-02,  avg # of iterations =  6.7

     negative rho (up, down):  0.308E+01 0.000E+00

     total cpu time spent up to now is     2126.3 secs

     total energy              =   -4372.33425916 Ry
     Harris-Foulkes estimate   =   -4403.35869781 Ry
     estimated scf accuracy    <      65.30429314 Ry

     iteration #  2     ecut=    40.00 Ry     beta=0.30
     Davidson diagonalization with overlap
     ethr =  1.00E-02,  avg # of iterations =  5.1

     negative rho (up, down):  0.302E+01 0.000E+00

     total cpu time spent up to now is     3142.1 secs

     total energy              =   -4265.99529238 Ry
     Harris-Foulkes estimate   =   -4503.77391665 Ry
     estimated scf accuracy    <    8544.98700705 Ry

     iteration #  3     ecut=    40.00 Ry     beta=0.30
     Davidson diagonalization with overlap
     ethr =  1.00E-02,  avg # of iterations =  4.8

     negative rho (up, down):  0.297E+01 0.000E+00

     total cpu time spent up to now is     4113.1 secs

     total energy              =   -4378.37369393 Ry
     Harris-Foulkes estimate   =   -4397.37163466 Ry
     estimated scf accuracy    <     267.62821280 Ry

     iteration #  4     ecut=    40.00 Ry     beta=0.30
     Davidson diagonalization with overlap
     ethr =  1.00E-02,  avg # of iterations =  3.2

     negative rho (up, down):  0.296E+01 0.000E+00

     total cpu time spent up to now is     4570.7 secs

     total energy              =   -4378.33838465 Ry
     Harris-Foulkes estimate   =   -4405.90160097 Ry
     estimated scf accuracy    <     410.86923086 Ry

     iteration #  5     ecut=    40.00 Ry     beta=0.30
     Davidson diagonalization with overlap
     ethr =  1.00E-02,  avg # of iterations =  2.0

     negative rho (up, down):  0.299E+01 0.000E+00

     total cpu time spent up to now is     4905.0 secs

     total energy              =   -4390.81317029 Ry
     Harris-Foulkes estimate   =   -4392.53579354 Ry
     estimated scf accuracy    <      11.30569977 Ry

     iteration #  6     ecut=    40.00 Ry     beta=0.30
     Davidson diagonalization with overlap
     ethr =  2.49E-03,  avg # of iterations =  1.3

     negative rho (up, down):  0.301E+01 0.000E+00

     total cpu time spent up to now is     5178.7 secs

     total energy              =   -4391.20690757 Ry
     Harris-Foulkes estimate   =   -4391.53370325 Ry
     estimated scf accuracy    <       4.25462530 Ry

     iteration #  7     ecut=    40.00 Ry     beta=0.30
     Davidson diagonalization with overlap
     ethr =  9.37E-04,  avg # of iterations =  4.2

     negative rho (up, down):  0.303E+01 0.000E+00

     total cpu time spent up to now is     5677.7 secs

     total energy              =   -4391.17953862 Ry
     Harris-Foulkes estimate   =   -4391.37642101 Ry
     estimated scf accuracy    <       5.12727392 Ry

     iteration #  8     ecut=    40.00 Ry     beta=0.30
     Davidson diagonalization with overlap
     ethr =  9.37E-04,  avg # of iterations =  1.0

     negative rho (up, down):  0.304E+01 0.000E+00

     total cpu time spent up to now is     5926.7 secs

     total energy              =   -4391.17676800 Ry
     Harris-Foulkes estimate   =   -4391.27871515 Ry
     estimated scf accuracy    <       1.11748594 Ry

     iteration #  9     ecut=    40.00 Ry     beta=0.30
     Davidson diagonalization with overlap
     ethr =  2.46E-04,  avg # of iterations =  3.2

     negative rho (up, down):  0.307E+01 0.000E+00

     total cpu time spent up to now is     6388.7 secs

     total energy              =   -4391.13189395 Ry
     Harris-Foulkes estimate   =   -4391.26560174 Ry
     estimated scf accuracy    <       1.28173010 Ry

     iteration # 10     ecut=    40.00 Ry     beta=0.30
     Davidson diagonalization with overlap
     ethr =  2.46E-04,  avg # of iterations =  1.8

     negative rho (up, down):  0.309E+01 0.000E+00

     total cpu time spent up to now is     6693.3 secs

     total energy              =   -4391.12634157 Ry
     Harris-Foulkes estimate   =   -4391.21531997 Ry
     estimated scf accuracy    <       2.02416283 Ry

     iteration # 11     ecut=    40.00 Ry     beta=0.30
     Davidson diagonalization with overlap
     ethr =  2.46E-04,  avg # of iterations =  1.2

     negative rho (up, down):  0.312E+01 0.000E+00

     total cpu time spent up to now is     6959.2 secs

     total energy              =   -4391.12956717 Ry
     Harris-Foulkes estimate   =   -4391.20888190 Ry
     estimated scf accuracy    <       1.60516479 Ry

     iteration # 12     ecut=    40.00 Ry     beta=0.30
     Davidson diagonalization with overlap
     ethr =  2.46E-04,  avg # of iterations =  1.0

     negative rho (up, down):  0.312E+01 0.000E+00

     total cpu time spent up to now is     7211.6 secs

     total energy              =   -4391.13886347 Ry
     Harris-Foulkes estimate   =   -4391.18894792 Ry
     estimated scf accuracy    <       0.57747588 Ry

     iteration # 13     ecut=    40.00 Ry     beta=0.30
     Davidson diagonalization with overlap
     ethr =  1.27E-04,  avg # of iterations =  6.2

     negative rho (up, down):  0.314E+01 0.000E+00

     total cpu time spent up to now is     7826.4 secs

     total energy              =   -4391.15542890 Ry
     Harris-Foulkes estimate   =   -4391.18021982 Ry
     estimated scf accuracy    <       0.31198098 Ry

     iteration # 14     ecut=    40.00 Ry     beta=0.30
     Davidson diagonalization with overlap
     ethr =  6.87E-05,  avg # of iterations =  4.0

     negative rho (up, down):  0.314E+01 0.000E+00

     total cpu time spent up to now is     8291.6 secs

     total energy              =   -4391.16230838 Ry
     Harris-Foulkes estimate   =   -4391.17358270 Ry
     estimated scf accuracy    <       0.48910723 Ry

     iteration # 15     ecut=    40.00 Ry     beta=0.30
     Davidson diagonalization with overlap
     ethr =  6.87E-05,  avg # of iterations =  1.0

     negative rho (up, down):  0.315E+01 0.000E+00

     total cpu time spent up to now is     8542.6 secs

     total energy              =   -4391.16498835 Ry
     Harris-Foulkes estimate   =   -4391.17072169 Ry
     estimated scf accuracy    <       0.15050144 Ry

     iteration # 16     ecut=    40.00 Ry     beta=0.30
     Davidson diagonalization with overlap
     ethr =  3.32E-05,  avg # of iterations =  2.0

     negative rho (up, down):  0.315E+01 0.000E+00

     total cpu time spent up to now is     8861.9 secs

     total energy              =   -4391.16772703 Ry
     Harris-Foulkes estimate   =   -4391.16890335 Ry
     estimated scf accuracy    <       0.04275072 Ry

     iteration # 17     ecut=    40.00 Ry     beta=0.30
     Davidson diagonalization with overlap
     ethr =  9.42E-06,  avg # of iterations =  6.7

     negative rho (up, down):  0.316E+01 0.000E+00

     total cpu time spent up to now is     9529.0 secs

     total energy              =   -4391.16796683 Ry
     Harris-Foulkes estimate   =   -4391.16853475 Ry
     estimated scf accuracy    <       0.00787500 Ry

     iteration # 18     ecut=    40.00 Ry     beta=0.30
     Davidson diagonalization with overlap
     ethr =  1.73E-06,  avg # of iterations =  7.2

     negative rho (up, down):  0.316E+01 0.000E+00

     total cpu time spent up to now is    10230.8 secs

     total energy              =   -4391.16805223 Ry
     Harris-Foulkes estimate   =   -4391.16852551 Ry
     estimated scf accuracy    <       0.01635955 Ry

     iteration # 19     ecut=    40.00 Ry     beta=0.30
     Davidson diagonalization with overlap
     ethr =  1.73E-06,  avg # of iterations =  1.0

     negative rho (up, down):  0.316E+01 0.000E+00

     total cpu time spent up to now is    10481.9 secs

     total energy              =   -4391.16827493 Ry
     Harris-Foulkes estimate   =   -4391.16835923 Ry
     estimated scf accuracy    <       0.00085827 Ry

     iteration # 20     ecut=    40.00 Ry     beta=0.30
     Davidson diagonalization with overlap
     ethr =  1.89E-07,  avg # of iterations =  1.4

     negative rho (up, down):  0.316E+01 0.000E+00

     total cpu time spent up to now is    10766.0 secs

     total energy              =   -4391.16830239 Ry
     Harris-Foulkes estimate   =   -4391.16834204 Ry
     estimated scf accuracy    <       0.00082849 Ry

     iteration # 21     ecut=    40.00 Ry     beta=0.30
     Davidson diagonalization with overlap
     ethr =  1.82E-07,  avg # of iterations =  1.0

     negative rho (up, down):  0.316E+01 0.000E+00

     total cpu time spent up to now is    11016.7 secs

     total energy              =   -4391.16830367 Ry
     Harris-Foulkes estimate   =   -4391.16833652 Ry
     estimated scf accuracy    <       0.00092599 Ry

     iteration # 22     ecut=    40.00 Ry     beta=0.30
     Davidson diagonalization with overlap
     ethr =  1.82E-07,  avg # of iterations =  1.0

     negative rho (up, down):  0.316E+01 0.000E+00

     total cpu time spent up to now is    11267.1 secs

     total energy              =   -4391.16829528 Ry
     Harris-Foulkes estimate   =   -4391.16834614 Ry
     estimated scf accuracy    <       0.00056656 Ry

     iteration # 23     ecut=    40.00 Ry     beta=0.30
     Davidson diagonalization with overlap
     ethr =  1.25E-07,  avg # of iterations =  1.0

     negative rho (up, down):  0.316E+01 0.000E+00

     total cpu time spent up to now is    11520.2 secs

     total energy              =   -4391.16831535 Ry
     Harris-Foulkes estimate   =   -4391.16833138 Ry
     estimated scf accuracy    <       0.00019628 Ry

     iteration # 24     ecut=    40.00 Ry     beta=0.30
     Davidson diagonalization with overlap
     ethr =  4.32E-08,  avg # of iterations =  1.0

     negative rho (up, down):  0.316E+01 0.000E+00

     total cpu time spent up to now is    11770.2 secs

     total energy              =   -4391.16831774 Ry
     Harris-Foulkes estimate   =   -4391.16832760 Ry
     estimated scf accuracy    <       0.00016106 Ry

     iteration # 25     ecut=    40.00 Ry     beta=0.30
     Davidson diagonalization with overlap
     ethr =  3.55E-08,  avg # of iterations =  1.0

     negative rho (up, down):  0.316E+01 0.000E+00

     total cpu time spent up to now is    12022.5 secs

     total energy              =   -4391.16831981 Ry
     Harris-Foulkes estimate   =   -4391.16832612 Ry
     estimated scf accuracy    <       0.00020643 Ry

     iteration # 26     ecut=    40.00 Ry     beta=0.30
     Davidson diagonalization with overlap
     ethr =  3.55E-08,  avg # of iterations =  1.0

     negative rho (up, down):  0.316E+01 0.000E+00

     total cpu time spent up to now is    12273.4 secs

     total energy              =   -4391.16832133 Ry
     Harris-Foulkes estimate   =   -4391.16832432 Ry
     estimated scf accuracy    <       0.00005007 Ry

     iteration # 27     ecut=    40.00 Ry     beta=0.30
     Davidson diagonalization with overlap
     ethr =  1.10E-08,  avg # of iterations =  1.0

     negative rho (up, down):  0.316E+01 0.000E+00

     total cpu time spent up to now is    12524.0 secs

     total energy              =   -4391.16832152 Ry
     Harris-Foulkes estimate   =   -4391.16832374 Ry
     estimated scf accuracy    <       0.00006554 Ry

     iteration # 28     ecut=    40.00 Ry     beta=0.30
     Davidson diagonalization with overlap
     ethr =  1.10E-08,  avg # of iterations =  1.0

     negative rho (up, down):  0.316E+01 0.000E+00

     total cpu time spent up to now is    12774.3 secs

     total energy              =   -4391.16832177 Ry
     Harris-Foulkes estimate   =   -4391.16832323 Ry
     estimated scf accuracy    <       0.00003526 Ry

     iteration # 29     ecut=    40.00 Ry     beta=0.30
     Davidson diagonalization with overlap
     ethr =  7.77E-09,  avg # of iterations =  1.0

     negative rho (up, down):  0.316E+01 0.000E+00

     total cpu time spent up to now is    13023.8 secs

     total energy              =   -4391.16832196 Ry
     Harris-Foulkes estimate   =   -4391.16832306 Ry
     estimated scf accuracy    <       0.00002493 Ry

     iteration # 30     ecut=    40.00 Ry     beta=0.30
     Davidson diagonalization with overlap
     ethr =  5.49E-09,  avg # of iterations =  1.0

     negative rho (up, down):  0.316E+01 0.000E+00

     total cpu time spent up to now is    13273.5 secs

     total energy              =   -4391.16832235 Ry
     Harris-Foulkes estimate   =   -4391.16832268 Ry
     estimated scf accuracy    <       0.00000624 Ry

     iteration # 31     ecut=    40.00 Ry     beta=0.30
     Davidson diagonalization with overlap
     ethr =  1.37E-09,  avg # of iterations =  1.0

     negative rho (up, down):  0.316E+01 0.000E+00

     total cpu time spent up to now is    13524.9 secs

     total energy              =   -4391.16832233 Ry
     Harris-Foulkes estimate   =   -4391.16832260 Ry
     estimated scf accuracy    <       0.00000804 Ry

     iteration # 32     ecut=    40.00 Ry     beta=0.30
     Davidson diagonalization with overlap
     ethr =  1.37E-09,  avg # of iterations =  1.0

     negative rho (up, down):  0.316E+01 0.000E+00

     total cpu time spent up to now is    13775.2 secs

     total energy              =   -4391.16832238 Ry
     Harris-Foulkes estimate   =   -4391.16832253 Ry
     estimated scf accuracy    <       0.00000282 Ry

     iteration # 33     ecut=    40.00 Ry     beta=0.30
     Davidson diagonalization with overlap
     ethr =  6.21E-10,  avg # of iterations =  1.0

     negative rho (up, down):  0.316E+01 0.000E+00

     total cpu time spent up to now is    14026.7 secs

     total energy              =   -4391.16832237 Ry
     Harris-Foulkes estimate   =   -4391.16832255 Ry
     estimated scf accuracy    <       0.00000209 Ry

     iteration # 34     ecut=    40.00 Ry     beta=0.30
     Davidson diagonalization with overlap
     ethr =  4.61E-10,  avg # of iterations =  1.0

     negative rho (up, down):  0.316E+01 0.000E+00

     total cpu time spent up to now is    14275.9 secs

     End of self-consistent calculation

          k = 0.0000 0.0000 0.0000 ( 43825 PWs)   bands (ev):

   -54.7598 -54.7462 -54.5621 -54.5603 -54.5244 -54.5051 -54.5046 -54.4755
   -54.4700 -54.4495 -54.4398 -54.4214 -54.3936 -54.3877 -54.3851 -54.3842
   -54.3625 -54.3514 -54.3480 -54.3068 -54.3016 -54.2967 -54.2664 -54.2632
   -54.2603 -54.2461 -54.2442 -54.2412 -54.2393 -54.1558 -54.1477 -54.1339
   -54.1314 -54.1313 -54.1242 -54.1017 -54.0453 -54.0282 -54.0209 -53.9872
   -53.9796 -53.8167 -53.7503 -53.7414 -53.5531 -53.5497 -53.5443 -53.4154
   -20.3224 -20.0611 -19.8514 -19.7092 -19.6753 -19.3726 -19.2051 -19.1409
   -19.1019 -19.0983 -19.0547 -19.0478 -19.0436 -18.9944 -18.9517 -18.8999
   -18.8889 -18.8535 -18.8123 -18.7529 -18.6775 -18.6325 -18.6107 -18.5215
   -18.4675 -18.4286 -18.3685 -18.2338 -17.5225 -17.4220 -17.4113 -17.3546
   -16.9705  -9.2402  -9.2196  -9.1795  -8.8750  -8.8494  -8.7653  -7.9974
    -7.9241  -7.8483  -7.8401  -7.7972  -7.7921  -7.7706  -7.6909  -7.6850
    -7.6610  -7.6594  -7.6436  -7.6006  -7.5965  -7.5171  -7.4952  -7.4360
    -7.3234  -7.2958  -7.2491  -7.2277  -7.1245  -7.1046  -7.0385  -7.0298
    -7.0127  -7.0116  -6.7565  -6.6341  -6.6233  -6.5849  -6.4864  -6.3024
    -6.0619  -5.8767  -5.6522  -5.6282  -5.5966  -5.5705  -5.4975  -5.4841
    -5.4499  -5.3938  -5.3369  -5.2960  -5.1763  -5.0371  -4.9504  -4.9242
    -4.9038  -4.7960  -4.7719  -4.6775  -4.5683  -4.5092  -4.4017  -4.3310
    -4.3038  -4.2606  -4.2314  -4.2203  -4.1793  -4.0353  -4.0063  -4.0045
    -3.9311  -3.9272  -3.9237  -3.9125  -3.8520  -3.7475  -3.6855  -3.5756
    -3.5533  -3.4859  -3.4699  -3.4537  -3.4238  -3.4038  -3.3924  -3.3771
    -3.3464  -3.3421  -3.3173  -3.2815  -3.2780  -3.2032  -3.1927  -3.1637
    -3.1269  -3.1168  -3.0806  -3.0712  -3.0465  -3.0171  -2.9122  -2.8960
    -2.8643  -2.8638  -2.8430  -2.8283  -2.7701  -2.7548  -2.6234  -2.6156
    -2.5371  -2.5027  -2.4560  -2.4144  -2.2089  -2.1432  -2.0939  -2.0366
    -1.9063  -1.8265  -1.5362  -1.5280  -1.5244  -1.4884  -1.3884  -1.3539
    -1.3402  -1.3236  -1.1826  -1.0784  -0.9785  -0.8332  -0.8234  -0.6587
    -0.6250  -0.6111  -0.5654  -0.3828  -0.3779  -0.3439  -0.2780  -0.1765
    -0.1498  -0.1098  -0.0135   0.0844   0.1158   0.1507   0.1761   0.3213
     0.4329   0.5447   0.8613   0.9139   0.9248   1.1158   1.1323   1.1487
     1.3221   1.4772   1.5141   1.6009   1.8150   1.9711   2.0200   2.3219
     2.6798   2.7289   2.7716   2.8020   2.8398   2.8626   2.9016   3.0459
     3.1883   3.2724   3.3077   3.7384   4.1195   4.4414   5.4047   6.2386
     6.5105   6.7435   6.7959   6.9244   7.4191   7.6615   7.7742   8.0202
     8.1647   8.2513   8.3900   8.4048   8.5194   8.5497   8.6549   8.6681
     8.6871   8.7206   8.7730   8.8240   8.8907   8.9280   9.0532   9.1038
     9.4368   9.4550   9.4647   9.5601   9.5740   9.6974   9.7566   9.8805
    10.0397  10.0481  10.0515  10.0935  10.1234  10.1326  10.2078  10.2626
    10.3105  10.3886  10.4651  10.5017  10.5563  10.6160  10.6911  10.8108
    10.8660  10.8780  10.8900  10.9819  11.1499  11.2427  11.3384  11.3669
    11.3884  11.3977  11.5051  11.5392  11.5954  11.6035  11.6596  11.8087
    11.9364  12.0206  12.0438  12.0882  12.1636  12.2528  12.3498  12.4288
    12.4497  12.5067  12.6120  12.6229  12.6879  12.8028  12.8431  12.8573
    12.9344  13.0084  13.0575  13.0928  13.1269  13.1578  13.2031  13.2225
    13.2383  13.2974  13.3799  13.4689  13.5413  13.5489  13.5974  13.6084
    13.6515  13.7477  13.8192  13.8328  13.8425  13.9116  13.9873  14.0196
    14.0636  14.1488  14.1715  14.2184  14.3676  14.3759  14.3896  14.3957
    14.4136  14.4529  14.4618  14.5195  14.7691  14.8044  14.8885  14.9071
    14.9349  14.9770  15.0925  15.1229  15.1492  15.3034  15.3666  15.3823
    15.4128  15.5160  15.5648  15.6589  15.6678  15.6803  15.7376  15.7664
    15.8131  15.8517  15.8774  15.9520  15.9671  16.0071  16.0973  16.1056
    16.1900  16.2593  16.2792  16.3641  16.3981  16.4588  16.5793  16.5960
    16.7803  16.7893  16.8357  16.8855  16.9604  17.0228  17.0394  17.1872
    17.2342  17.3005  17.3752  17.4193  17.4526  17.4604  17.4645  17.5151
    17.5359  17.5427  17.5618  17.5903  17.6673  17.7193  17.7223  17.7309
    17.7423  17.7618  17.7851  17.7860  17.8200  17.8223  17.8664  17.8685
    17.8824  17.9314  18.0043  18.0812  18.1030  18.1593  18.1621  18.2744
    18.3856  18.4162  18.5236  18.5335  18.5660  18.5694  18.6704  18.7726
    18.7909  18.8169  18.8193  18.8755  18.9288  18.9506  18.9672  19.0263
    19.1572  19.2701  19.3544  19.4711  19.5110  19.5112  19.6418  19.7948
    19.8162  19.8394  19.8657  19.9171  20.0171  20.0396  20.0432  20.0451
    20.1513  20.1905  20.2350  20.2606  20.3155  20.4270  20.4403  20.4865
    20.5362  20.5517  20.6284  20.6339  20.7010  20.7175  20.7618  20.7827
    20.7848  20.7907  20.9808  20.9902  21.0154  21.0403  21.0521  21.0913
    21.1082  21.1383  21.1438  21.2039  21.2444  21.2655  21.3110  21.3350
    21.4020  21.4486  21.4601  21.4801  21.4866  21.5344  21.5750  21.6031
    21.6477  21.7394  21.7882  21.8218  21.8954  21.9560  22.0316  22.0965
    22.1170  22.1487  22.1637  22.2580  22.2709  22.2875  22.3004  22.3522
    22.4268  22.4550  22.5334  22.5823  22.6923  22.7125  22.7286  22.7776
    22.8254  22.8489  22.8917  22.9232  22.9360  22.9611  23.1589  23.1646
    23.1954  23.2328  23.3456  23.3830  23.4155  23.4617  23.4945  23.6050
    23.6203  23.7183  23.7282  23.7878  23.7916  23.9254  23.9261  23.9846
    23.9856  24.0268  24.0351  24.0692  24.0755  24.1021  24.2350  24.2430
    24.2746  24.2939  24.3239  24.3328  24.3486  24.3491  24.3995  24.4129
    24.4268  24.4328  24.4527  24.4709  24.5286  24.5571  24.5704  24.5992
    24.6057  24.6233  24.6520  24.6614  24.6804  24.7507  24.7675  24.7946
    24.8685  24.8857  24.8916  24.9128  24.9383  24.9503  24.9818  25.0027
    25.0151  25.0599  25.0784  25.1513  25.1775  25.2157  25.2391  25.2426
    25.2677  25.2929  25.3119  25.3475  25.3746  25.3798  25.3862  25.4094
    25.4364  25.4655  25.4688  25.5395  25.5404  25.5700  25.6815  25.7580
    25.7677  25.7982  25.8107  25.8825  25.8834  25.9103  25.9325  25.9443
    25.9454  25.9808  25.9939  26.0396  26.0664  26.1630  26.1985  26.2280
    26.2399  26.2588  26.2657  26.3436  26.3479  26.3916  26.4178  26.4367
    26.4430  26.4603  26.5225  26.5634  26.6036  26.6118  26.6152  26.6160
    26.6677  26.7276  26.7643  26.8050  26.8463  26.8656  26.9024  26.9798
    27.0503

          k = 0.0000 0.2488 0.0000 ( 43767 PWs)   bands (ev):

   -54.7599 -54.7462 -54.5621 -54.5603 -54.5245 -54.5051 -54.5046 -54.4755
   -54.4699 -54.4496 -54.4398 -54.4214 -54.3936 -54.3876 -54.3851 -54.3843
   -54.3625 -54.3514 -54.3480 -54.3059 -54.3014 -54.2969 -54.2665 -54.2632
   -54.2599 -54.2469 -54.2440 -54.2412 -54.2393 -54.1558 -54.1477 -54.1343
   -54.1313 -54.1313 -54.1242 -54.1016 -54.0453 -54.0282 -54.0210 -53.9872
   -53.9796 -53.8167 -53.7503 -53.7414 -53.5532 -53.5497 -53.5443 -53.4154
   -20.2179 -19.9492 -19.7538 -19.7190 -19.5932 -19.4180 -19.2019 -19.1649
   -19.1442 -19.1352 -19.1023 -19.0903 -19.0484 -18.9889 -18.9600 -18.9073
   -18.8453 -18.8090 -18.7871 -18.7577 -18.6809 -18.6323 -18.6225 -18.5718
   -18.5520 -18.5097 -18.4946 -18.3511 -17.5203 -17.4216 -17.3986 -17.3504
   -16.9696  -8.8744  -8.7879  -8.7688  -8.7474  -8.6910  -8.4367  -7.9852
    -7.9607  -7.9236  -7.8882  -7.7964  -7.7796  -7.7751  -7.7262  -7.6972
    -7.6623  -7.6613  -7.6180  -7.6159  -7.6136  -7.6034  -7.5734  -7.5649
    -7.4787  -7.4374  -7.3380  -7.3216  -7.2872  -7.1509  -7.0919  -6.8410
    -6.8287  -6.7856  -6.3651  -6.3291  -6.2585  -6.2219  -6.1773  -5.9633
    -5.8114  -5.6863  -5.6734  -5.6730  -5.6219  -5.5535  -5.5238  -5.5088
    -5.4692  -5.4410  -5.4212  -5.3902  -5.3812  -5.3667  -5.3522  -5.3138
    -5.2287  -5.1031  -4.9961  -4.8607  -4.8170  -4.8110  -4.7523  -4.6420
    -4.5589  -4.5357  -4.4712  -4.4661  -4.3836  -4.3816  -4.3238  -4.1498
    -4.1046  -4.0904  -4.0336  -4.0281  -3.9210  -3.8790  -3.7635  -3.7118
    -3.6970  -3.6608  -3.5564  -3.4579  -3.3773  -3.3724  -3.3461  -3.2750
    -3.2336  -3.1936  -3.1170  -3.0729  -3.0593  -3.0334  -2.9992  -2.9729
    -2.9308  -2.9203  -2.8914  -2.8906  -2.8503  -2.8158  -2.7627  -2.7225
    -2.7122  -2.6639  -2.6422  -2.6419  -2.5938  -2.5587  -2.5361  -2.5274
    -2.5086  -2.4240  -2.3292  -2.3144  -2.2527  -2.1837  -2.1774  -2.1609
    -2.1276  -2.0997  -1.9736  -1.9677  -1.8790  -1.7080  -1.6146  -1.5608
    -1.4985  -1.4037  -1.3461  -1.1077  -0.8538  -0.6224  -0.5777  -0.5570
    -0.4022  -0.3983  -0.3777  -0.3442  -0.3212  -0.2639  -0.2072  -0.1971
    -0.1630  -0.0970  -0.0699  -0.0436   0.0209   0.0523   0.0552   0.1157
     0.1582   0.1953   0.3696   0.3759   0.5164   0.9077   1.2826   1.4094
     1.4959   1.7888   1.8810   2.3808   2.5371   2.6150   2.6308   2.6713
     2.6956   2.7576   2.7739   2.8053   2.8139   2.8415   2.8463   2.9018
     3.1903   3.2727   3.2729   3.6558   4.3440   4.6973   5.6245   6.4415
     6.6649   6.8554   6.8729   7.0283   7.1446   7.1984   7.5030   7.7063
     7.8602   8.0393   8.1818   8.3849   8.5386   8.5804   8.6167   8.6369
     8.7441   8.8265   8.8602   8.9241   8.9859   8.9917   9.0981   9.1609
     9.2252   9.2371   9.3384   9.3971   9.5437   9.5526   9.6571   9.6910
     9.7102   9.7306   9.9325  10.0281  10.0526  10.1923  10.2166  10.3054
    10.3248  10.3616  10.3894  10.5028  10.5863  10.6552  10.7196  10.7322
    10.8125  10.9502  11.0957  11.1504  11.1841  11.2697  11.4504  11.5188
    11.5503  11.6031  11.6038  11.7402  11.7734  11.9478  11.9552  12.0120
    12.0808  12.1004  12.1876  12.2064  12.3264  12.3427  12.3882  12.4259
    12.4292  12.4946  12.6210  12.6592  12.7203  12.7364  12.7477  12.8040
    12.8331  12.8521  12.8765  13.0150  13.1186  13.1830  13.2841  13.2940
    13.3311  13.3330  13.3817  13.3857  13.4000  13.4760  13.5028  13.5325
    13.5395  13.5488  13.6629  13.6857  13.7638  13.8243  14.0580  14.0867
    14.1486  14.2308  14.3388  14.3426  14.4465  14.4628  14.5015  14.5175
    14.5546  14.6354  14.7047  14.7129  14.8584  14.9554  14.9892  14.9950
    15.3205  15.3935  15.3985  15.4144  15.4893  15.5792  15.6204  15.6606
    15.6837  15.7148  15.7973  15.8734  15.8754  15.9486  15.9747  16.0034
    16.0084  16.0337  16.0580  16.1304  16.1902  16.3857  16.3950  16.4059
    16.5096  16.5356  16.5737  16.5981  16.6961  16.7040  16.7627  16.7978
    16.8106  16.9355  16.9727  17.0113  17.0421  17.0903  17.1606  17.1652
    17.1819  17.3066  17.3227  17.3284  17.3519  17.3624  17.4294  17.4798
    17.4932  17.5368  17.5622  17.5685  17.6144  17.6967  17.7012  17.7140
    17.7272  17.7306  17.7729  17.7767  17.7796  17.7839  17.7886  17.8402
    17.8465  17.8881  17.9195  17.9868  17.9970  18.0044  18.0290  18.0820
    18.0857  18.2184  18.2681  18.3647  18.4319  18.4467  18.4502  18.5143
    18.5486  18.5910  18.5971  18.6487  18.6739  18.6864  18.7696  18.8653
    18.8955  18.9017  19.0718  19.1164  19.1244  19.2093  19.2844  19.4438
    19.4764  19.5028  19.5377  19.6424  19.6660  19.6864  19.7103  19.7806
    19.8483  19.8600  19.9583  19.9640  19.9821  20.0285  20.1018  20.1956
    20.2689  20.3193  20.3238  20.4121  20.4895  20.5011  20.5787  20.5837
    20.6464  20.6703  20.7397  20.7468  20.7964  20.8388  20.9627  21.0131
    21.0242  21.0774  21.0825  21.0903  21.1086  21.1242  21.1932  21.2770
    21.2948  21.3029  21.3923  21.3958  21.4430  21.4539  21.5639  21.5809
    21.5950  21.6079  21.6384  21.6894  21.6929  21.7472  21.8553  21.8672
    21.8993  21.9369  21.9495  22.0024  22.0242  22.0631  22.0675  22.1290
    22.1903  22.2221  22.2836  22.2855  22.3462  22.4884  22.5128  22.5906
    22.6154  22.6188  22.7101  22.7756  22.8287  22.8780  22.9009  22.9184
    22.9263  22.9565  22.9773  22.9789  23.0877  23.0893  23.1808  23.1993
    23.2364  23.2773  23.3104  23.3642  23.3647  23.3883  23.4176  23.4667
    23.4955  23.5002  23.6456  23.6929  23.7165  23.7392  23.7747  23.7830
    23.7976  23.8256  23.8594  23.9972  24.1050  24.1138  24.1288  24.1473
    24.1610  24.1935  24.2146  24.2919  24.3067  24.3732  24.4079  24.4291
    24.4500  24.4931  24.5212  24.5881  24.6391  24.7013  24.7138  24.7753
    24.8220  24.8446  24.8918  24.9070  25.0203  25.0311  25.0697  25.0934
    25.1415  25.1766  25.2639  25.3185  25.3272  25.4057  25.4100  25.4557
    25.4778  25.4787  25.5293  25.5686  25.5812  25.6112  25.6129  25.6524
    25.6941  25.7273  25.7294  25.7700  25.8632  25.8752  25.9473  25.9622
    25.9716  26.0078  26.0496  26.0617  26.1522  26.1773  26.2659  26.2720
    26.3577  26.3761  26.4049  26.4386  26.4467  26.4713  26.5033  26.5200
    26.5385  26.5584  26.6018  26.6102  26.7087  26.7436  26.7530  26.8226
    26.8603  26.9249  26.9805  27.0054  27.0162  27.0403  27.1128  27.1370
    27.1730  27.2237  27.2955  27.3239  27.3407  27.3578  27.3684  27.3807
    27.4713

          k = 0.0000-0.4976 0.0000 ( 43712 PWs)   bands (ev):

   -54.7599 -54.7462 -54.5622 -54.5602 -54.5246 -54.5051 -54.5046 -54.4754
   -54.4699 -54.4497 -54.4397 -54.4214 -54.3936 -54.3875 -54.3851 -54.3844
   -54.3625 -54.3514 -54.3480 -54.3050 -54.3013 -54.2970 -54.2665 -54.2632
   -54.2595 -54.2479 -54.2437 -54.2412 -54.2394 -54.1558 -54.1477 -54.1348
   -54.1313 -54.1313 -54.1242 -54.1015 -54.0453 -54.0282 -54.0209 -53.9872
   -53.9796 -53.8167 -53.7505 -53.7414 -53.5532 -53.5497 -53.5443 -53.4154
   -20.0089 -19.9415 -19.6871 -19.6347 -19.4753 -19.3935 -19.2779 -19.2120
   -19.1951 -19.1863 -19.1588 -19.1451 -19.0435 -18.9761 -18.9759 -18.9124
   -18.8152 -18.7710 -18.7681 -18.7641 -18.7071 -18.6845 -18.6521 -18.6447
   -18.6322 -18.5679 -18.5444 -18.4538 -17.5182 -17.4211 -17.3884 -17.3470
   -16.9692  -8.8730  -8.7695  -8.1343  -8.1055  -8.0182  -8.0152  -7.9789
    -7.9592  -7.9020  -7.8628  -7.8189  -7.7942  -7.7569  -7.7025  -7.6635
    -7.6628  -7.6558  -7.6489  -7.6107  -7.5775  -7.5444  -7.5417  -7.5272
    -7.5064  -7.4275  -7.3191  -7.2852  -7.2572  -7.2334  -7.0509  -6.8310
    -6.7811  -6.4749  -6.4736  -6.4416  -6.4029  -6.3992  -6.3616  -6.2398
    -6.2302  -5.8130  -5.8001  -5.7976  -5.6124  -5.5812  -5.5622  -5.5225
    -5.5047  -5.4935  -5.4723  -5.3869  -5.3717  -5.3503  -5.2235  -5.1724
    -5.1184  -5.1105  -5.0708  -5.0591  -5.0384  -5.0146  -4.9924  -4.9705
    -4.7217  -4.7019  -4.6566  -4.5698  -4.5669  -4.5247  -4.4598  -4.3858
    -4.3521  -4.1581  -4.1431  -4.0277  -3.9857  -3.9844  -3.7897  -3.7239
    -3.6872  -3.5169  -3.4175  -3.4027  -3.3691  -3.3262  -3.3180  -3.2941
    -3.2194  -3.1922  -3.1742  -3.0684  -3.0576  -3.0484  -3.0383  -2.9507
    -2.9428  -2.8922  -2.8809  -2.8450  -2.7975  -2.7459  -2.7170  -2.6571
    -2.6475  -2.5741  -2.5446  -2.5270  -2.5267  -2.4839  -2.4025  -2.3940
    -2.3832  -2.3662  -2.3322  -2.2912  -2.2724  -2.2426  -2.2066  -2.1249
    -2.1036  -2.0965  -2.0941  -2.0316  -2.0056  -1.6649  -1.6467  -1.5268
    -1.4934  -1.4544  -1.1523  -1.1256  -0.9477  -0.8852  -0.7759  -0.5819
    -0.5512  -0.5203  -0.4735  -0.4176  -0.3567  -0.3147  -0.2675  -0.2406
    -0.1952  -0.1518  -0.0955  -0.0845  -0.0561  -0.0116   0.0083   0.0278
     0.0582   0.1035   0.1036   0.4574   0.5498   1.1800   1.5074   1.5148
     1.5429   2.3487   2.3794   2.4114   2.4433   2.4734   2.6109   2.6873
     2.7745   2.8231   2.9147   2.9238   2.9659   3.1754   3.1898   3.2111
     3.2686   3.2715   3.2757   3.3464   4.8469   5.5832   5.8274   5.9909
     6.5212   6.5618   6.9680   7.0582   7.1057   7.3600   7.4036   7.6407
     7.6746   7.7373   7.7697   8.1230   8.2059   8.2910   8.4168   8.5522
     8.7013   8.9175   8.9207   8.9336   9.0685   9.0766   9.1566   9.2042
     9.2335   9.4726   9.5103   9.5566   9.5614   9.6071   9.7132   9.7175
     9.7614   9.7940   9.8465   9.9542   9.9688   9.9975  10.1799  10.2010
    10.2498  10.3370  10.4102  10.6320  10.6899  10.7306  10.7724  10.8701
    10.9702  10.9950  11.0150  11.0589  11.0985  11.1293  11.1712  11.2896
    11.4123  11.4334  11.4767  11.5016  11.6377  11.7056  11.7794  11.7989
    11.8443  12.0594  12.2426  12.2491  12.3584  12.3637  12.3785  12.4343
    12.4533  12.5145  12.5254  12.6315  12.8104  12.8736  12.9665  13.0017
    13.0872  13.0955  13.1771  13.2063  13.2244  13.2860  13.3178  13.3820
    13.4193  13.4364  13.4948  13.5639  13.6125  13.6855  13.7548  13.7792
    13.8767  13.8934  14.0724  14.1427  14.2206  14.2938  14.3254  14.3642
    14.4501  14.4812  14.5245  14.5459  14.5561  14.6011  14.6807  14.7166
    14.8017  14.8019  14.8672  14.9555  14.9789  15.0068  15.0244  15.0253
    15.0880  15.1213  15.2784  15.4158  15.5233  15.5561  15.5593  15.5831
    15.6153  15.6389  15.6611  15.6726  15.7204  15.8792  15.9092  15.9201
    16.1088  16.1580  16.2589  16.2676  16.2981  16.3313  16.4016  16.4666
    16.4941  16.5343  16.6343  16.6353  16.6856  16.7166  16.7776  16.8931
    16.9270  17.0609  17.1147  17.1925  17.2292  17.2527  17.2786  17.3139
    17.3248  17.3320  17.3922  17.4311  17.4532  17.5064  17.5273  17.5300
    17.6106  17.6643  17.6686  17.6952  17.7348  17.7390  17.7516  17.7667
    17.7736  17.7769  17.8285  17.8389  17.8549  17.8665  17.8737  17.8975
    17.9154  17.9626  18.0055  18.0555  18.0625  18.0792  18.1003  18.2192
    18.2625  18.2835  18.3162  18.3471  18.3757  18.3936  18.4058  18.4159
    18.4184  18.4578  18.4991  18.5105  18.5966  18.6371  18.6788  18.6926
    18.7013  18.7326  18.7490  18.9070  18.9899  19.0368  19.0812  19.1047
    19.1124  19.1753  19.1958  19.2543  19.2745  19.2842  19.3959  19.4584
    19.4900  19.5043  19.6514  19.6770  19.6883  19.7022  19.7293  19.7618
    19.8762  19.9262  19.9675  20.0193  20.0754  20.2160  20.2226  20.2539
    20.2791  20.2989  20.3072  20.3979  20.4044  20.5291  20.5493  20.6047
    20.6405  20.6995  20.7058  20.8082  20.8203  20.8346  21.0702  21.1978
    21.2248  21.2634  21.2836  21.3400  21.3529  21.3678  21.3728  21.3816
    21.3853  21.4851  21.5499  21.5883  21.6061  21.6215  21.6823  21.7152
    21.7250  21.8178  21.8605  21.8763  21.9147  21.9242  21.9707  21.9824
    22.0185  22.0383  22.1123  22.1274  22.1281  22.1290  22.2267  22.2423
    22.3144  22.3278  22.3961  22.4123  22.4154  22.4816  22.5732  22.6074
    22.6236  22.6506  22.6679  22.6891  22.7314  22.7671  22.8481  22.8883
    22.8917  22.9806  23.0825  23.0979  23.1040  23.1052  23.3862  23.3959
    23.3980  23.4920  23.5044  23.5178  23.5571  23.5771  23.5828  23.6415
    23.6929  23.8022  23.8204  23.8415  23.8605  23.8673  23.9095  23.9490
    24.0146  24.0856  24.1202  24.1566  24.2879  24.3096  24.4070  24.4252
    24.5192  24.6156  24.6364  24.6676  24.6944  24.7283  24.7663  24.7893
    24.8016  24.8370  24.8644  24.8678  24.8881  24.9133  25.0266  25.0568
    25.0605  25.0991  25.1132  25.1212  25.2331  25.3132  25.3363  25.3395
    25.4105  25.4272  25.4515  25.4991  25.5079  25.6022  25.6055  25.6340
    25.6976  25.7180  25.8337  25.8670  25.8765  25.9973  26.0872  26.1208
    26.2052  26.2112  26.3149  26.3375  26.3401  26.3618  26.3980  26.4104
    26.5097  26.5341  26.6023  26.7227  26.7365  26.7439  26.7981  26.8611
    26.8644  26.8917  26.9953  27.0123  27.0594  27.1265  27.1608  27.1912
    27.3141  27.3806  27.3983  27.4827  27.4842  27.5229  27.5356  27.6242
    27.6578  27.6593  27.6685  27.6717  27.7091  27.8340  27.8627  27.9619
    27.9656

          k = 0.2500 0.0000 0.0000 ( 43773 PWs)   bands (ev):

   -54.7599 -54.7458 -54.5603 -54.5545 -54.5165 -54.5128 -54.4965 -54.4780
   -54.4676 -54.4576 -54.4318 -54.4294 -54.3935 -54.3931 -54.3872 -54.3847
   -54.3626 -54.3509 -54.3484 -54.3061 -54.3023 -54.2886 -54.2660 -54.2636
   -54.2598 -54.2493 -54.2455 -54.2448 -54.2399 -54.1546 -54.1489 -54.1335
   -54.1317 -54.1303 -54.1253 -54.0935 -54.0536 -54.0271 -54.0220 -53.9861
   -53.9807 -53.8171 -53.7494 -53.7423 -53.5532 -53.5494 -53.5446 -53.4154
   -20.1959 -19.9449 -19.7456 -19.6042 -19.5799 -19.4542 -19.3062 -19.2874
   -19.2012 -19.1254 -19.0593 -19.0358 -18.9880 -18.9774 -18.9546 -18.9208
   -18.8299 -18.7941 -18.7740 -18.7506 -18.6900 -18.6684 -18.5807 -18.5767
   -18.5321 -18.4938 -18.4370 -18.2947 -17.5461 -17.4560 -17.4497 -17.3958
   -16.9690  -9.0748  -9.0539  -9.0182  -8.7278  -8.6929  -8.6197  -8.1456
    -8.0790  -8.0534  -7.9328  -7.8238  -7.7914  -7.7640  -7.7550  -7.7006
    -7.6937  -7.6662  -7.5857  -7.5696  -7.5070  -7.4652  -7.4272  -7.3405
    -7.2676  -7.2323  -7.1735  -6.9811  -6.9700  -6.9357  -6.9140  -6.8801
    -6.8698  -6.8456  -6.7836  -6.7048  -6.6568  -6.5470  -6.3418  -6.2076
    -6.1998  -5.8717  -5.7684  -5.7239  -5.6039  -5.5486  -5.5467  -5.4604
    -5.4217  -5.4106  -5.3116  -5.3058  -5.2239  -5.1622  -5.1389  -5.0134
    -4.9495  -4.8960  -4.8256  -4.8005  -4.7639  -4.7551  -4.7108  -4.6590
    -4.6113  -4.5138  -4.5085  -4.4700  -4.3565  -4.3449  -4.2731  -4.2360
    -4.1994  -4.1796  -4.0961  -4.0028  -3.9739  -3.9234  -3.9173  -3.8692
    -3.8461  -3.8456  -3.8219  -3.7900  -3.7473  -3.6894  -3.5426  -3.5294
    -3.4918  -3.2509  -3.2257  -3.2017  -3.1973  -3.1843  -3.0930  -3.0243
    -2.9898  -2.9878  -2.9532  -2.9311  -2.9177  -2.9030  -2.7397  -2.7106
    -2.6861  -2.6262  -2.5865  -2.5674  -2.4559  -2.3923  -2.3351  -2.3212
    -2.1968  -2.1385  -2.0914  -2.0368  -2.0346  -2.0116  -1.9133  -1.8894
    -1.8655  -1.7260  -1.5720  -1.4703  -1.2612  -1.2116  -1.1938  -1.1606
    -1.1512  -1.1090  -1.0650  -1.0107  -1.0037  -0.9457  -0.8709  -0.7576
    -0.7499  -0.6408  -0.5239  -0.4093  -0.3591  -0.2968  -0.2825  -0.2496
    -0.2439  -0.1654  -0.0662  -0.0220  -0.0121   0.0320   0.1922   0.4298
     0.6113   0.7443   1.1047   1.1392   1.1531   1.3361   1.3383   1.3442
     1.4625   1.5145   1.5856   1.6437   1.8324   1.9539   1.9936   2.0582
     2.2505   2.4734   2.5204   2.5286   2.5939   2.6787   2.7472   2.7768
     2.8039   2.8566   3.3087   3.6318   4.4835   4.7767   5.7005   6.2619
     6.4661   6.7245   6.9690   7.1315   7.2715   7.5835   7.7624   7.8868
     7.9821   8.1581   8.1843   8.3420   8.4900   8.5436   8.6113   8.6937
     8.7016   8.7664   8.7907   8.9115   8.9938   9.0314   9.1389   9.1406
     9.1947   9.2854   9.4209   9.6059   9.6174   9.7121   9.7126   9.8545
     9.8622   9.9666  10.0868  10.1332  10.2060  10.2806  10.3092  10.3504
    10.3604  10.3757  10.5270  10.6310  10.6978  10.7063  10.7797  10.7857
    10.8950  11.0037  11.1084  11.1847  11.1929  11.2811  11.3482  11.4174
    11.5905  11.6715  11.7480  11.7877  11.8147  11.8492  11.8869  11.9558
    12.0166  12.0426  12.0784  12.0962  12.1307  12.1845  12.2819  12.3484
    12.4092  12.4934  12.4939  12.5455  12.5663  12.6311  12.6607  12.6700
    12.7132  12.7696  12.8106  12.8567  12.9021  12.9351  13.0092  13.1075
    13.1378  13.1515  13.2350  13.3196  13.3875  13.3918  13.5015  13.5679
    13.6048  13.7085  13.7341  13.8234  13.9139  13.9270  14.0338  14.1044
    14.1107  14.2697  14.2824  14.4105  14.4546  14.5290  14.5827  14.5954
    14.6111  14.6514  14.6744  14.7566  14.8969  14.9470  14.9886  15.0491
    15.1170  15.1513  15.1961  15.2191  15.2356  15.3253  15.3779  15.4141
    15.4757  15.4978  15.5721  15.5879  15.6240  15.6759  15.6940  15.7599
    15.7991  15.8703  15.8928  15.9458  15.9973  16.0265  16.0536  16.0645
    16.1315  16.2259  16.3585  16.3613  16.4596  16.4611  16.5518  16.5995
    16.6939  16.7276  16.7559  16.8009  16.9039  16.9717  17.0396  17.0648
    17.1731  17.2260  17.3003  17.3510  17.4136  17.4695  17.4779  17.5573
    17.5931  17.6198  17.6342  17.7024  17.7134  17.7337  17.7463  17.7618
    17.7644  17.7663  17.7682  17.7906  17.8361  17.8572  17.8708  17.8882
    17.9487  17.9749  18.0158  18.0578  18.0843  18.1384  18.2439  18.2743
    18.3301  18.4392  18.4458  18.4696  18.4738  18.5642  18.6290  18.7282
    18.7616  18.8247  18.8275  18.9320  18.9596  19.0334  19.0698  19.1473
    19.2377  19.2563  19.2857  19.3385  19.4072  19.5842  19.6010  19.6895
    19.7199  19.7943  19.8103  19.8385  19.9168  20.0137  20.0604  20.0791
    20.1004  20.1397  20.1982  20.2201  20.2587  20.2725  20.3329  20.4110
    20.4188  20.5235  20.5385  20.6242  20.6315  20.6652  20.7194  20.7532
    20.7960  20.8007  20.8623  20.9121  20.9354  21.0036  21.0192  21.0926
    21.1244  21.1340  21.1648  21.2075  21.2079  21.2510  21.3008  21.3234
    21.3714  21.4037  21.4040  21.4336  21.4832  21.5177  21.5264  21.5305
    21.6046  21.6193  21.6784  21.6877  21.7404  21.7499  21.7595  21.8179
    21.8633  21.8792  21.9599  21.9628  21.9894  22.0689  22.1021  22.1182
    22.1403  22.1865  22.2164  22.2686  22.3109  22.3623  22.3801  22.4371
    22.4939  22.4963  22.5842  22.6782  22.7009  22.7152  22.7929  22.8244
    22.8508  22.9315  22.9822  23.0286  23.0723  23.0830  23.1121  23.1199
    23.1492  23.1613  23.1673  23.2818  23.2914  23.3306  23.3484  23.4339
    23.4495  23.4754  23.4874  23.5817  23.6143  23.6662  23.7958  23.8123
    23.8149  23.8395  24.0045  24.0366  24.0400  24.1055  24.1100  24.2140
    24.2202  24.3165  24.3411  24.3685  24.3946  24.4380  24.5000  24.5053
    24.5363  24.6149  24.6468  24.6493  24.6601  24.7081  24.7693  24.7778
    24.8066  24.8633  24.9001  24.9274  25.0104  25.0394  25.0938  25.0957
    25.1529  25.1675  25.2103  25.2805  25.2840  25.3366  25.3553  25.3964
    25.4108  25.4225  25.4829  25.5161  25.5416  25.5610  25.5899  25.6361
    25.7119  25.7169  25.8446  25.8724  25.8899  25.9310  25.9542  26.0261
    26.0973  26.1032  26.1589  26.1727  26.1772  26.1886  26.2353  26.2412
    26.2526  26.2831  26.2971  26.3458  26.4122  26.4165  26.4186  26.4387
    26.5027  26.5063  26.5274  26.5838  26.6109  26.6352  26.6602  26.7283
    26.7297  26.7503  26.7633  26.7765  26.8518  26.8824  26.9227  26.9400
    26.9862  27.0274  27.0792  27.0917  27.1644  27.1833  27.1876  27.2003
    27.2229

          k = 0.2500 0.2488 0.0000 ( 43747 PWs)   bands (ev):

   -54.7599 -54.7458 -54.5602 -54.5545 -54.5166 -54.5128 -54.4966 -54.4779
   -54.4676 -54.4577 -54.4318 -54.4294 -54.3935 -54.3931 -54.3871 -54.3848
   -54.3626 -54.3509 -54.3484 -54.3052 -54.3021 -54.2888 -54.2660 -54.2637
   -54.2595 -54.2494 -54.2462 -54.2444 -54.2401 -54.1546 -54.1489 -54.1339
   -54.1318 -54.1303 -54.1253 -54.0934 -54.0536 -54.0271 -54.0220 -53.9861
   -53.9807 -53.8171 -53.7495 -53.7423 -53.5532 -53.5494 -53.5446 -53.4154
   -20.0958 -19.8368 -19.6506 -19.6193 -19.4925 -19.4076 -19.3258 -19.2583
   -19.1612 -19.1582 -19.0793 -19.0229 -19.0074 -19.0047 -18.9738 -18.9130
   -18.8609 -18.8183 -18.8051 -18.7592 -18.6944 -18.6815 -18.6351 -18.6299
   -18.6120 -18.5693 -18.5568 -18.4073 -17.5444 -17.4496 -17.4459 -17.3922
   -16.9670  -8.7276  -8.6333  -8.6297  -8.6068  -8.5583  -8.2892  -8.0411
    -7.9735  -7.9164  -7.9064  -7.7927  -7.7910  -7.6969  -7.6876  -7.6829
    -7.6270  -7.6199  -7.5757  -7.5450  -7.5126  -7.4904  -7.4862  -7.4321
    -7.3401  -7.3177  -7.2201  -7.0890  -7.0356  -6.9783  -6.9155  -6.9090
    -6.8367  -6.6802  -6.6139  -6.5367  -6.4095  -6.3859  -6.3309  -6.2381
    -6.2157  -5.8786  -5.7647  -5.7266  -5.6517  -5.5978  -5.5455  -5.5281
    -5.4684  -5.4179  -5.3850  -5.3441  -5.3176  -5.2668  -5.2500  -5.2418
    -5.1671  -5.1196  -5.0648  -5.0621  -5.0294  -4.9892  -4.9711  -4.9475
    -4.8868  -4.7591  -4.7211  -4.6598  -4.6027  -4.4937  -4.4721  -4.4352
    -4.4072  -4.3476  -4.2951  -4.1944  -4.1449  -4.1201  -4.0549  -3.8721
    -3.8184  -3.7800  -3.6827  -3.6726  -3.6389  -3.5640  -3.5065  -3.4516
    -3.3839  -3.2574  -3.2282  -3.1971  -3.1698  -3.1296  -3.0895  -3.0270
    -3.0106  -2.9287  -2.7668  -2.7439  -2.7146  -2.6381  -2.4905  -2.4825
    -2.4487  -2.4386  -2.4021  -2.3174  -2.2729  -2.2402  -2.2142  -2.1830
    -2.1503  -2.0963  -2.0770  -2.0445  -2.0293  -2.0039  -1.9659  -1.9122
    -1.8633  -1.8454  -1.7915  -1.7371  -1.6790  -1.6066  -1.4755  -1.3315
    -1.1968  -1.1455  -1.0984  -1.0281  -0.8828  -0.7056  -0.6735  -0.5819
    -0.5498  -0.5323  -0.4818  -0.4639  -0.4050  -0.3976  -0.3097  -0.2296
    -0.2017  -0.1255  -0.0990  -0.0813  -0.0486   0.0356   0.1414   0.3207
     0.3779   0.5090   0.5779   0.6573   0.7229   1.0190   1.4018   1.5211
     1.5933   1.7725   1.8292   2.0073   2.1464   2.2650   2.3605   2.3741
     2.3995   2.4900   2.5826   2.6844   2.7093   2.7451   2.7606   2.8401
     2.9079   2.9589   3.2823   3.5731   4.6938   5.0779   5.9246   6.3484
     6.6687   6.8637   7.0796   7.2622   7.3445   7.4177   7.4862   7.7442
     7.9263   8.0217   8.0865   8.2920   8.3423   8.4479   8.5655   8.6680
     8.7318   8.7811   8.8413   8.8849   8.9797   9.0096   9.0983   9.2001
     9.2249   9.2807   9.3424   9.4869   9.5330   9.5530   9.5777   9.6067
     9.6694   9.7595   9.8251   9.9634  10.0073  10.0143  10.1418  10.1871
    10.2455  10.3238  10.3704  10.4472  10.4921  10.6819  10.7391  10.7554
    10.7967  10.8537  11.0259  11.1056  11.1224  11.2451  11.3577  11.4055
    11.5452  11.5637  11.5818  11.6890  11.7322  11.8681  12.0884  12.1097
    12.1829  12.2012  12.2986  12.3203  12.3766  12.4349  12.5180  12.5814
    12.6364  12.6988  12.7227  12.8050  12.8483  12.8632  12.9033  12.9499
    13.0290  13.0877  13.1689  13.2308  13.2769  13.3014  13.3416  13.3816
    13.5355  13.5833  13.5949  13.7145  13.7543  13.7557  13.8184  13.8306
    13.8684  13.8796  13.9275  13.9428  13.9805  14.0133  14.0934  14.1338
    14.1612  14.2049  14.2532  14.3328  14.4073  14.4252  14.4487  14.5069
    14.5362  14.5823  14.7014  14.7517  14.7612  14.8046  14.8323  14.8475
    14.9622  15.0556  15.1656  15.1766  15.2345  15.2460  15.3385  15.4226
    15.4882  15.5306  15.5705  15.6082  15.6912  15.7921  15.8112  15.8589
    15.9007  15.9255  16.0392  16.0605  16.0940  16.1528  16.2273  16.2441
    16.3036  16.3931  16.4353  16.4521  16.5087  16.5888  16.6421  16.7566
    16.8789  16.9378  16.9545  17.0973  17.1301  17.1469  17.2026  17.2779
    17.3139  17.3540  17.4084  17.4251  17.4704  17.5137  17.5683  17.5817
    17.6672  17.6757  17.7065  17.7183  17.7285  17.7441  17.7542  17.7595
    17.7808  17.7995  17.8298  17.8366  17.8483  17.8729  17.8999  17.9116
    17.9457  17.9938  18.0299  18.0486  18.0769  18.1101  18.1672  18.1939
    18.2912  18.2954  18.3336  18.4075  18.4212  18.4433  18.4801  18.5033
    18.5089  18.5941  18.6196  18.6550  18.6660  18.7215  18.7653  18.8176
    18.8506  18.9342  18.9961  19.0694  19.1247  19.1739  19.2234  19.2538
    19.2889  19.3157  19.3588  19.4274  19.4629  19.4762  19.5366  19.5642
    19.6335  19.7017  19.7244  19.7581  19.8027  19.8180  19.8884  19.9256
    19.9852  20.0009  20.0179  20.0777  20.1366  20.1748  20.2029  20.2195
    20.2652  20.2921  20.3338  20.3566  20.4195  20.4888  20.5190  20.5435
    20.6028  20.6796  20.7253  20.7782  20.8234  20.8967  20.9690  21.0114
    21.0732  21.1154  21.1572  21.2362  21.2701  21.3499  21.3941  21.4514
    21.4835  21.4940  21.5321  21.5487  21.6319  21.7271  21.7580  21.8242
    21.8820  21.9110  21.9281  21.9474  21.9732  22.0710  22.0993  22.1788
    22.1862  22.2155  22.2638  22.2841  22.2966  22.3382  22.4096  22.4334
    22.5425  22.5647  22.6319  22.7454  22.7779  22.7870  22.8300  22.8692
    22.9211  22.9567  23.0679  23.1276  23.1591  23.1793  23.2049  23.3125
    23.3321  23.3960  23.4151  23.4424  23.4623  23.5080  23.5409  23.5508
    23.6094  23.6903  23.7057  23.7359  23.8099  23.8403  23.8508  23.9027
    23.9394  23.9881  24.0285  24.0837  24.0913  24.1375  24.1644  24.2331
    24.3134  24.3767  24.4159  24.4221  24.4721  24.5330  24.5770  24.6335
    24.6411  24.6650  24.7241  24.7446  24.7755  24.7953  24.8472  24.8598
    24.8944  24.9361  24.9653  25.0006  25.0590  25.0613  25.0710  25.1047
    25.1326  25.1653  25.2304  25.3278  25.3325  25.3662  25.3976  25.4226
    25.4901  25.5052  25.5337  25.5532  25.5692  25.6086  25.7082  25.7240
    25.7697  25.8264  25.8478  25.8913  25.9061  25.9178  25.9440  26.0031
    26.0156  26.0543  26.0631  26.1305  26.1966  26.2277  26.2456  26.2788
    26.2871  26.3227  26.3708  26.4224  26.4436  26.4938  26.5236  26.6256
    26.6412  26.6704  26.6931  26.7349  26.7766  26.8046  26.8167  26.8864
    26.9053  26.9299  26.9531  26.9754  27.0189  27.0286  27.0830  27.1054
    27.1236  27.1542  27.2009  27.2594  27.3094  27.3372  27.3788  27.4304
    27.4638

          k = 0.2500-0.4976 0.0000 ( 43762 PWs)   bands (ev):

   -54.7599 -54.7459 -54.5602 -54.5546 -54.5167 -54.5128 -54.4966 -54.4779
   -54.4676 -54.4578 -54.4318 -54.4294 -54.3935 -54.3931 -54.3871 -54.3849
   -54.3626 -54.3509 -54.3484 -54.3044 -54.3018 -54.2890 -54.2660 -54.2637
   -54.2592 -54.2493 -54.2469 -54.2440 -54.2403 -54.1546 -54.1489 -54.1343
   -54.1318 -54.1303 -54.1253 -54.0933 -54.0535 -54.0271 -54.0220 -53.9861
   -53.9807 -53.8171 -53.7495 -53.7423 -53.5532 -53.5494 -53.5446 -53.4154
   -19.8979 -19.8276 -19.5803 -19.5329 -19.3785 -19.3337 -19.2845 -19.2355
   -19.2077 -19.1667 -19.1304 -19.0959 -19.0823 -18.9944 -18.9655 -18.8865
   -18.8711 -18.8691 -18.8303 -18.7729 -18.7548 -18.7361 -18.7047 -18.7032
   -18.6849 -18.6248 -18.6046 -18.5068 -17.5429 -17.4495 -17.4377 -17.3893
   -16.9655  -8.7271  -8.6216  -7.9622  -7.8679  -7.8188  -7.8081  -7.8062
    -7.7981  -7.7706  -7.7330  -7.7132  -7.7006  -7.6938  -7.6772  -7.6648
    -7.6237  -7.6137  -7.5999  -7.5932  -7.5633  -7.5506  -7.5211  -7.5075
    -7.4823  -7.4334  -7.1668  -7.0977  -7.0928  -6.9833  -6.9696  -6.9321
    -6.9166  -6.5120  -6.4988  -6.2731  -6.2598  -6.1918  -6.1845  -6.1443
    -6.1427  -6.1370  -6.1107  -6.1030  -6.0916  -5.9797  -5.8489  -5.8424
    -5.8008  -5.7521  -5.7152  -5.6898  -5.4328  -5.3935  -5.3654  -5.2890
    -5.2865  -5.2389  -5.2310  -5.1440  -5.0996  -5.0425  -5.0220  -4.9916
    -4.9457  -4.9056  -4.8319  -4.7789  -4.6964  -4.6520  -4.5927  -4.5664
    -4.4878  -4.4011  -4.3600  -4.3226  -4.3224  -4.1909  -4.1326  -3.8459
    -3.7691  -3.7437  -3.6729  -3.5740  -3.5164  -3.4907  -3.3843  -3.3052
    -3.3024  -3.2282  -3.1237  -3.0858  -3.0582  -3.0057  -2.9875  -2.9142
    -2.9026  -2.8394  -2.7189  -2.7033  -2.6041  -2.5822  -2.4895  -2.4877
    -2.4742  -2.4233  -2.4138  -2.3691  -2.3039  -2.2936  -2.2269  -2.1853
    -2.1649  -2.0866  -2.0779  -2.0687  -2.0354  -2.0028  -1.8290  -1.8130
    -1.7811  -1.7684  -1.7113  -1.7100  -1.5383  -1.5029  -1.3623  -1.3125
    -1.2881  -1.2057  -1.1052  -1.0777  -0.9427  -0.8919  -0.8185  -0.6123
    -0.5867  -0.5581  -0.4524  -0.4225  -0.3558  -0.2762  -0.2583  -0.2448
    -0.2324  -0.1955  -0.1571  -0.1113  -0.1109  -0.0989   0.0048   0.0279
     0.1806   0.1844   0.2281   0.6459   0.7422   1.3366   1.5262   1.5284
     1.6058   1.7737   1.8147   1.8985   1.9355   2.2838   2.4245   2.5748
     2.6449   2.7264   2.7309   2.7524   2.8113   3.0539   3.0634   3.1213
     3.1321   3.1828   3.2230   3.2784   5.0588   5.8587   6.1927   6.3393
     6.4420   6.8145   6.9022   7.3087   7.3248   7.5901   7.6520   7.7584
     7.9027   7.9731   7.9858   8.0177   8.0671   8.2893   8.3719   8.5372
     8.5833   8.6389   8.6829   8.7800   8.9155   9.0663   9.2243   9.2715
     9.3009   9.3711   9.3793   9.4045   9.4552   9.5613   9.6030   9.6759
     9.7576   9.8657   9.8688   9.8999   9.9194   9.9808  10.0063  10.0411
    10.1620  10.1633  10.2515  10.3150  10.3309  10.4194  10.4854  10.5194
    10.5741  10.5766  10.6476  10.6850  11.0506  11.0562  11.2072  11.2791
    11.3711  11.4272  11.8249  11.8550  11.9208  12.0136  12.1225  12.2461
    12.3166  12.3605  12.3841  12.5372  12.6409  12.6695  12.7411  12.7715
    12.8507  12.9313  12.9705  13.0418  13.0527  13.1201  13.1715  13.1760
    13.2682  13.3019  13.3706  13.3862  13.4162  13.4438  13.5407  13.5704
    13.6123  13.6705  13.6900  13.7006  13.7321  13.8315  13.8475  13.9064
    14.0392  14.2220  14.2583  14.2918  14.3026  14.3795  14.4598  14.4679
    14.5340  14.5589  14.5708  14.5811  14.6052  14.6846  14.7263  14.7461
    14.7778  14.8764  14.9322  14.9658  14.9964  15.0289  15.0903  15.1161
    15.1823  15.2354  15.2633  15.2639  15.3476  15.3731  15.4059  15.5432
    15.5595  15.6043  15.6704  15.6848  15.7000  15.7389  15.7826  15.8424
    15.8484  15.9132  15.9845  16.1218  16.2323  16.2523  16.3475  16.3753
    16.4530  16.4573  16.4966  16.5177  16.5352  16.5538  16.5560  16.6236
    16.6300  16.6595  16.7574  16.7749  16.9443  16.9754  17.0015  17.0024
    17.0385  17.1262  17.1308  17.1829  17.2384  17.2852  17.3080  17.3934
    17.4467  17.5087  17.5145  17.6115  17.6601  17.6954  17.7227  17.7289
    17.7365  17.7525  17.7711  17.7730  17.7821  17.8283  17.8434  17.8518
    17.8637  17.8720  17.8803  17.9066  17.9483  17.9547  18.0502  18.0594
    18.0864  18.1130  18.1189  18.1458  18.1797  18.2293  18.3158  18.3202
    18.3722  18.4218  18.4625  18.5006  18.5544  18.6249  18.6300  18.6540
    18.6610  18.7295  18.7638  18.8331  18.8841  18.9703  18.9714  19.0611
    19.0704  19.1227  19.1858  19.2982  19.3045  19.3208  19.4289  19.4664
    19.4749  19.4921  19.5068  19.5759  19.6225  19.6570  19.6789  19.7101
    19.7419  19.8342  19.8677  19.9249  20.0099  20.0153  20.0428  20.0507
    20.1111  20.1189  20.1567  20.2110  20.4016  20.4429  20.5140  20.5506
    20.5763  20.6026  20.6215  20.6582  20.6978  20.7393  20.7883  20.8095
    20.8151  20.9148  20.9532  20.9600  21.0075  21.0919  21.0930  21.2439
    21.3147  21.3800  21.4061  21.4553  21.4644  21.5134  21.5225  21.5585
    21.5834  21.5901  21.6542  21.7257  21.7756  21.8530  21.8574  21.9310
    22.0249  22.0635  22.1118  22.1124  22.1927  22.2132  22.2366  22.2598
    22.2684  22.3531  22.3860  22.4163  22.4512  22.5230  22.5884  22.6688
    22.6907  22.8028  22.9422  23.0092  23.0300  23.0614  23.1950  23.2005
    23.2788  23.3210  23.3398  23.3523  23.3864  23.3916  23.4247  23.4309
    23.5511  23.5572  23.5995  23.6425  23.7084  23.7750  23.7964  23.8488
    23.8519  23.9634  24.0128  24.0928  24.1316  24.2047  24.3268  24.3330
    24.3590  24.4324  24.5145  24.5679  24.5712  24.6022  24.6433  24.6449
    24.7360  24.7554  24.7793  24.8542  24.8829  24.9385  25.0019  25.0050
    25.0187  25.0829  25.0968  25.1830  25.1984  25.2247  25.2675  25.2767
    25.3104  25.3384  25.3668  25.3733  25.4013  25.4330  25.5055  25.5313
    25.5643  25.6014  25.6151  25.6821  25.7128  25.7343  25.7709  25.8086
    25.8216  25.8599  25.9091  25.9543  25.9764  25.9804  26.0071  26.0191
    26.0431  26.0656  26.0878  26.2332  26.2463  26.2478  26.3014  26.3734
    26.3822  26.4183  26.4197  26.4221  26.5395  26.5595  26.6003  26.6278
    26.6698  26.6809  26.7071  26.7430  26.8202  26.8628  26.9008  26.9367
    26.9745  27.0286  27.0308  27.0680  27.1400  27.1861  27.2164  27.3423
    27.3970  27.4014  27.4273  27.4972  27.5914  27.6085  27.6262  27.6696
    27.7792

          k =-0.5000 0.0000 0.0000 ( 43760 PWs)   bands (ev):

   -54.7599 -54.7455 -54.5603 -54.5413 -54.5260 -54.4990 -54.4955 -54.4773
   -54.4769 -54.4486 -54.4485 -54.4126 -54.4125 -54.3934 -54.3860 -54.3860
   -54.3626 -54.3499 -54.3493 -54.3042 -54.3041 -54.2691 -54.2690 -54.2649
   -54.2647 -54.2592 -54.2454 -54.2448 -54.2406 -54.1518 -54.1518 -54.1326
   -54.1326 -54.1278 -54.1278 -54.0743 -54.0728 -54.0246 -54.0246 -53.9834
   -53.9834 -53.8176 -53.7482 -53.7435 -53.5532 -53.5491 -53.5449 -53.4154
   -19.8741 -19.8513 -19.6481 -19.6446 -19.4823 -19.4787 -19.3674 -19.3569
   -19.3164 -19.3158 -19.1011 -19.0899 -18.9385 -18.9356 -18.8730 -18.8689
   -18.7945 -18.7672 -18.7004 -18.6868 -18.6839 -18.6839 -18.6469 -18.6468
   -18.5974 -18.5971 -18.4450 -18.4314 -17.5577 -17.5138 -17.4616 -17.4536
   -16.9674  -8.6374  -8.6365  -8.6130  -8.6110  -8.5829  -8.5829  -8.3744
    -8.3512  -8.2896  -8.2496  -8.2355  -8.2168  -7.6569  -7.5897  -7.5727
    -7.5709  -7.5369  -7.5187  -7.4632  -7.4611  -7.3023  -7.2953  -7.2696
    -7.2621  -7.2581  -7.1307  -7.1169  -7.1121  -6.8246  -6.7096  -6.6539
    -6.6235  -6.4613  -6.4482  -6.4038  -6.4037  -6.1778  -6.1404  -6.0987
    -6.0679  -5.9799  -5.8993  -5.8930  -5.8916  -5.8664  -5.8608  -5.7654
    -5.7121  -5.4778  -5.4326  -5.4180  -5.3809  -5.2900  -5.2825  -5.1871
    -5.1025  -4.9609  -4.9383  -4.9369  -4.8722  -4.8671  -4.8329  -4.7954
    -4.7879  -4.7287  -4.6831  -4.6545  -4.6133  -4.4983  -4.4309  -4.4308
    -4.3549  -4.3253  -4.3218  -4.1759  -4.1337  -4.1246  -4.1075  -4.0914
    -4.0904  -4.0745  -3.9450  -3.8976  -3.8726  -3.7218  -3.5611  -3.5557
    -3.2949  -3.2855  -3.2643  -3.2430  -3.2200  -3.1912  -3.1792  -3.0022
    -2.8857  -2.8673  -2.8659  -2.8197  -2.8173  -2.7327  -2.6879  -2.6157
    -2.5498  -2.5018  -2.3249  -2.3192  -2.2759  -2.1798  -2.1155  -2.0433
    -2.0418  -2.0003  -1.9494  -1.8619  -1.8601  -1.7678  -1.7609  -1.5657
    -1.5575  -1.4600  -1.4509  -1.4073  -1.3110  -1.0990  -1.0858  -1.0034
    -0.9806  -0.9682  -0.9469  -0.9423  -0.9087  -0.8992  -0.8031  -0.7872
    -0.7496  -0.7326  -0.6024  -0.5961  -0.5172  -0.4475  -0.3517  -0.3289
    -0.3116  -0.1826  -0.1723  -0.0476  -0.0038   0.0049   0.1996   0.8476
     0.8878   1.1642   1.2612   1.4282   1.5431   1.5623   1.5963   1.6780
     1.7305   1.7354   1.7438   1.7745   1.7794   1.8207   1.8311   1.8416
     1.9165   1.9407   1.9422   2.0071   2.0784   2.1128   2.1277   2.6535
     2.7856   3.0760   3.0901   3.3705   5.3560   5.3562   5.7340   5.8793
     6.3609   6.7460   7.1173   7.1660   7.2923   7.4965   7.5650   7.7229
     7.7489   7.8469   8.0914   8.1841   8.3275   8.4254   8.4522   8.5561
     8.5868   8.6577   8.9838   9.1107   9.1455   9.2280   9.3013   9.3200
     9.3289   9.4634   9.5678   9.6771   9.8124   9.8609   9.8742   9.9544
    10.0067  10.1128  10.1371  10.1737  10.2861  10.3457  10.3742  10.4344
    10.5630  10.5834  10.6329  10.6453  10.6458  10.8717  10.9002  10.9456
    10.9900  11.0313  11.0426  11.0789  11.0993  11.1524  11.2396  11.3993
    11.4063  11.4226  11.4347  11.4598  11.5179  11.5548  11.6354  11.8715
    11.8850  11.9132  11.9407  11.9457  12.0660  12.1809  12.3082  12.3825
    12.3930  12.4030  12.4634  12.5383  12.6160  12.7265  12.7465  12.7636
    12.8474  12.8621  13.0418  13.0719  13.1583  13.1802  13.2019  13.2113
    13.2631  13.2761  13.3704  13.3875  13.5608  13.6087  13.6825  13.7040
    13.7702  13.8671  13.9636  14.0383  14.0723  14.1002  14.1412  14.1514
    14.2568  14.3323  14.3967  14.4031  14.4058  14.4884  14.5313  14.5644
    14.6102  14.6275  14.7312  14.7579  14.7600  14.7658  14.8803  14.8874
    14.9014  14.9049  14.9156  14.9409  14.9663  14.9972  15.0190  15.0453
    15.0639  15.1341  15.3119  15.4373  15.4672  15.5406  15.6199  15.6206
    15.6773  15.7260  15.8562  15.8713  15.9071  15.9531  15.9716  16.0335
    16.2550  16.4251  16.4313  16.4415  16.6442  16.6449  16.7345  16.9094
    16.9595  16.9805  17.0400  17.1311  17.1815  17.2038  17.2163  17.2559
    17.2610  17.3250  17.3967  17.6091  17.6791  17.6913  17.6918  17.7206
    17.7344  17.7372  17.7410  17.7466  17.7512  17.7717  17.7899  17.8116
    17.8168  17.8689  17.8750  17.9711  17.9922  18.0553  18.0722  18.0752
    18.0772  18.1299  18.1458  18.2089  18.2786  18.3158  18.3186  18.4021
    18.4266  18.4617  18.4849  18.4897  18.5392  18.5693  18.5794  18.5828
    18.6240  18.6786  18.7226  18.7276  18.8163  19.0831  19.0840  19.1263
    19.1408  19.1774  19.2116  19.2121  19.2160  19.2656  19.3363  19.3976
    19.4906  19.5228  19.6706  19.6718  19.6739  19.6921  19.7600  19.7655
    19.8053  19.9745  20.0026  20.0214  20.0283  20.0483  20.1130  20.2784
    20.3309  20.3420  20.3649  20.4148  20.4552  20.4556  20.5290  20.5520
    20.6203  20.6215  20.6336  20.6728  20.7226  20.7544  20.8281  20.8309
    20.8525  20.8645  20.9816  21.0578  21.1089  21.1341  21.2158  21.2817
    21.3446  21.3751  21.3867  21.3918  21.4039  21.4302  21.4511  21.5123
    21.5780  21.5957  21.6742  21.6874  21.7244  21.7335  21.7725  21.7775
    21.8017  21.8101  21.8274  21.8628  21.8895  21.9218  21.9432  21.9499
    21.9858  22.0387  22.0835  22.1146  22.1261  22.1409  22.2677  22.2959
    22.3185  22.3880  22.4261  22.4421  22.4524  22.4785  22.5740  22.5815
    22.5872  22.6168  22.6332  22.7326  22.7673  22.7690  22.8309  22.9522
    22.9881  23.0120  23.0130  23.0454  23.0700  23.1589  23.1728  23.2031
    23.3094  23.3118  23.4653  23.5340  23.5479  23.6304  23.6465  23.6889
    23.6940  23.6970  23.8324  23.9428  23.9596  24.0071  24.0699  24.0805
    24.0978  24.1345  24.1556  24.2604  24.2671  24.2906  24.3366  24.3912
    24.4524  24.5187  24.5358  24.5928  24.6144  24.7390  24.8217  24.8803
    24.8852  24.8863  24.9519  24.9613  25.0159  25.0256  25.0431  25.0595
    25.0605  25.1170  25.1316  25.1407  25.1641  25.2075  25.2232  25.2538
    25.2903  25.3531  25.3717  25.3753  25.3885  25.4318  25.4811  25.4919
    25.5216  25.6855  25.6898  25.6949  25.7036  25.7469  25.8242  25.8596
    25.8850  25.9365  25.9726  25.9912  26.0485  26.0988  26.1160  26.1599
    26.2167  26.2680  26.3993  26.4656  26.4668  26.4874  26.5510  26.5879
    26.6253  26.6441  26.6578  26.8528  26.8713  26.9595  26.9616  27.0426
    27.0439  27.0743  27.0814  27.0923  27.1728  27.2207  27.2676  27.3143
    27.4020  27.4203  27.4952  27.5111  27.5575  27.5856  27.6174  27.6234
    27.6944

          k =-0.5000 0.2488 0.0000 ( 43812 PWs)   bands (ev):

   -54.7599 -54.7455 -54.5602 -54.5414 -54.5260 -54.4991 -54.4955 -54.4774
   -54.4770 -54.4486 -54.4485 -54.4125 -54.4125 -54.3934 -54.3860 -54.3860
   -54.3626 -54.3499 -54.3493 -54.3037 -54.3036 -54.2695 -54.2692 -54.2649
   -54.2648 -54.2585 -54.2452 -54.2450 -54.2411 -54.1518 -54.1518 -54.1328
   -54.1328 -54.1278 -54.1278 -54.0743 -54.0728 -54.0246 -54.0246 -53.9834
   -53.9834 -53.8176 -53.7482 -53.7435 -53.5532 -53.5491 -53.5449 -53.4154
   -19.7923 -19.7649 -19.5549 -19.5525 -19.4136 -19.3845 -19.3751 -19.3693
   -19.2586 -19.2215 -19.1161 -19.1118 -18.9758 -18.9626 -18.8797 -18.8723
   -18.8203 -18.8088 -18.7529 -18.7474 -18.7407 -18.7332 -18.7038 -18.7034
   -18.6932 -18.6826 -18.5421 -18.5297 -17.5526 -17.5096 -17.4601 -17.4521
   -16.9645  -8.3839  -8.3420  -8.2946  -8.2927  -8.2638  -8.2598  -8.2400
    -8.2349  -8.2284  -8.2258  -7.9559  -7.9039  -7.6518  -7.5827  -7.5341
    -7.5211  -7.4295  -7.4290  -7.3316  -7.3306  -7.2733  -7.2590  -7.1955
    -7.1933  -7.1604  -7.1603  -7.1205  -7.0280  -6.8593  -6.7222  -6.7140
    -6.7137  -6.5390  -6.5234  -6.4566  -6.4558  -6.3852  -6.3672  -6.3647
    -6.3570  -6.1736  -6.1704  -6.1430  -6.1055  -6.0717  -6.0606  -5.7365
    -5.6463  -5.5363  -5.5216  -5.4429  -5.4061  -5.3258  -5.2817  -5.2230
    -5.1550  -5.1411  -5.0540  -5.0310  -4.9849  -4.9159  -4.8669  -4.8572
    -4.8399  -4.8015  -4.7948  -4.7923  -4.7692  -4.7622  -4.7448  -4.5739
    -4.5618  -4.4730  -4.4286  -4.3316  -4.3190  -4.2337  -4.2298  -4.0211
    -4.0134  -3.9617  -3.9227  -3.9055  -3.8911  -3.7278  -3.7273  -3.6364
    -3.5837  -3.4402  -3.3169  -3.2935  -3.2481  -3.2449  -3.1842  -3.1252
    -3.0378  -2.9108  -2.5031  -2.3675  -2.3659  -2.3060  -2.3022  -2.2878
    -2.2544  -2.2290  -2.1779  -2.1689  -2.1423  -2.1049  -2.0366  -2.0299
    -1.9992  -1.9434  -1.9112  -1.9055  -1.8676  -1.8128  -1.6919  -1.6635
    -1.6012  -1.5991  -1.4071  -1.3291  -1.2021  -1.1736  -1.0907  -1.0842
    -1.0294  -1.0265  -0.9525  -0.9463  -0.9319  -0.8642  -0.8068  -0.8058
    -0.7210  -0.7046  -0.6861  -0.6741  -0.5829  -0.5688  -0.4774  -0.4594
    -0.3423  -0.3224  -0.2841  -0.1024   0.1316   0.1328   0.3247   0.9822
     0.9906   1.1093   1.1098   1.1317   1.1624   1.1800   1.2020   1.2424
     1.2809   1.3004   1.4349   1.7699   1.9297   2.0014   2.0210   2.0367
     2.0584   2.2534   2.2808   2.4646   2.4744   2.5081   2.5439   2.7448
     2.8732   3.1828   3.1864   3.3827   5.4751   5.4752   5.9426   6.1680
     6.5774   6.9832   7.3232   7.3481   7.4288   7.7054   7.7130   7.7833
     7.8416   7.9148   8.0034   8.0564   8.0569   8.1999   8.3519   8.5224
     8.5922   8.6284   8.6365   8.7933   9.0117   9.0956   9.1352   9.3294
     9.3674   9.4247   9.4534   9.5271   9.5350   9.6591   9.7175   9.7874
     9.8045   9.9578   9.9801  10.0355  10.0490  10.1191  10.1611  10.1870
    10.2073  10.2557  10.3234  10.3935  10.4037  10.4361  10.4427  10.4936
    10.7091  10.7592  10.8035  10.8762  11.2046  11.2562  11.2878  11.3977
    11.6372  11.6695  11.6761  11.8295  11.8356  11.8387  11.9203  12.0584
    12.0743  12.1518  12.1779  12.3895  12.3923  12.5201  12.5297  12.5608
    12.6381  12.7754  12.8169  12.8892  12.9615  12.9791  13.0709  13.1219
    13.2098  13.2619  13.3331  13.4474  13.5170  13.5377  13.5407  13.6071
    13.6433  13.6520  13.6765  13.7274  13.7926  13.8060  13.9480  13.9490
    14.0744  14.0945  14.1605  14.2254  14.2654  14.2783  14.3837  14.3896
    14.4068  14.4361  14.4394  14.5281  14.5894  14.6041  14.6057  14.7089
    14.7213  14.7436  14.7565  14.8311  14.8627  14.8714  14.9171  14.9366
    14.9958  15.0144  15.0443  15.0476  15.0987  15.1110  15.1625  15.1836
    15.2157  15.2245  15.2652  15.3134  15.3211  15.4564  15.6424  15.6860
    15.7916  15.7920  15.8714  15.8939  16.0943  16.1748  16.2649  16.2821
    16.4214  16.4410  16.4957  16.5281  16.6173  16.6262  16.6891  16.7051
    16.7184  16.7267  16.7809  16.8218  16.8683  16.9522  17.0773  17.1059
    17.1059  17.1493  17.2515  17.2646  17.3637  17.3903  17.4118  17.4692
    17.5335  17.6473  17.6904  17.7143  17.7350  17.7384  17.7462  17.7478
    17.7825  17.7846  17.8149  17.8221  17.8913  17.9336  17.9481  17.9609
    17.9964  18.0018  18.0168  18.0487  18.0772  18.1039  18.1125  18.1457
    18.1554  18.1920  18.2147  18.2150  18.2218  18.3757  18.4161  18.4345
    18.4561  18.4911  18.4984  18.5451  18.5759  18.6108  18.6782  18.6911
    18.7275  18.8096  18.8287  18.8417  18.8638  18.9885  19.0699  19.1202
    19.1703  19.1889  19.2068  19.2525  19.3505  19.4031  19.4785  19.5405
    19.5780  19.6201  19.6209  19.6377  19.7831  19.8138  19.8318  19.8341
    19.9580  19.9842  20.0460  20.1412  20.1542  20.2601  20.2927  20.3315
    20.3380  20.3498  20.3642  20.4201  20.4356  20.5042  20.5109  20.5543
    20.5834  20.6352  20.6428  20.6844  20.8132  20.8778  20.8864  20.9492
    21.0204  21.0275  21.0405  21.1316  21.1340  21.1786  21.2570  21.2926
    21.4405  21.4954  21.5219  21.5234  21.5769  21.5850  21.6984  21.7078
    21.7094  21.7734  21.8624  21.8629  21.9305  21.9483  22.0201  22.0673
    22.1197  22.1465  22.1477  22.1629  22.1935  22.2746  22.2876  22.3402
    22.3504  22.4056  22.4200  22.5152  22.6066  22.6609  22.7416  22.7531
    22.8401  22.8451  22.8800  22.9473  22.9497  23.0395  23.0429  23.0775
    23.1363  23.2117  23.2248  23.2564  23.2695  23.3219  23.3898  23.4751
    23.5146  23.5277  23.5585  23.6871  23.7811  23.8690  23.9386  23.9877
    24.0070  24.0123  24.0712  24.1441  24.1738  24.1742  24.2617  24.2632
    24.3548  24.3773  24.4035  24.4781  24.4932  24.5798  24.6143  24.6991
    24.7396  24.7598  24.8085  24.8445  24.8737  24.9018  24.9435  24.9798
    25.0078  25.0172  25.0357  25.1119  25.1640  25.2329  25.2506  25.2637
    25.3298  25.3356  25.3450  25.3732  25.3860  25.3893  25.4137  25.4591
    25.4757  25.4984  25.5270  25.5303  25.5767  25.6382  25.6386  25.6698
    25.6814  25.6952  25.7191  25.7341  25.7467  25.8513  25.8692  25.9343
    25.9428  26.0113  26.0565  26.0733  26.1123  26.1257  26.1561  26.1761
    26.1786  26.2425  26.3172  26.3278  26.3657  26.4000  26.5290  26.5528
    26.6531  26.6750  26.7229  26.7535  26.8088  26.8173  26.8489  26.8562
    26.8722  26.9432  26.9684  27.0105  27.0623  27.0906  27.1602  27.1802
    27.2108  27.2423  27.3034  27.3265  27.3597  27.4197  27.4697  27.5281
    27.6177

          k =-0.5000-0.4976 0.0000 ( 43684 PWs)   bands (ev):

   -54.7599 -54.7455 -54.5602 -54.5414 -54.5260 -54.4991 -54.4955 -54.4774
   -54.4770 -54.4486 -54.4485 -54.4125 -54.4125 -54.3934 -54.3860 -54.3859
   -54.3626 -54.3499 -54.3493 -54.3031 -54.3031 -54.2699 -54.2694 -54.2649
   -54.2648 -54.2579 -54.2457 -54.2445 -54.2415 -54.1518 -54.1518 -54.1330
   -54.1330 -54.1278 -54.1278 -54.0742 -54.0727 -54.0246 -54.0246 -53.9834
   -53.9834 -53.8175 -53.7483 -53.7436 -53.5532 -53.5491 -53.5449 -53.4154
   -19.6459 -19.5886 -19.5420 -19.5358 -19.3173 -19.3167 -19.3046 -19.2870
   -19.1473 -19.1453 -19.0956 -19.0867 -19.0517 -19.0274 -18.9618 -18.9561
   -18.9136 -18.8837 -18.8397 -18.8389 -18.8107 -18.8019 -18.7484 -18.7460
   -18.7390 -18.7217 -18.6297 -18.6142 -17.5480 -17.5059 -17.4588 -17.4508
   -16.9620  -8.3764  -8.3292  -8.2468  -8.2378  -7.7334  -7.7298  -7.7030
    -7.6988  -7.6525  -7.6426  -7.6417  -7.5700  -7.5333  -7.5275  -7.4529
    -7.2968  -7.2742  -7.2562  -7.2413  -7.2285  -7.2111  -7.2068  -7.1988
    -7.1858  -7.1136  -7.1130  -7.1094  -6.9925  -6.9901  -6.9692  -6.9366
    -6.9210  -6.8482  -6.8277  -6.8274  -6.7825  -6.6408  -6.6369  -6.6047
    -6.5949  -6.2328  -6.2044  -6.1277  -6.1218  -5.9458  -5.8286  -5.7636
    -5.7486  -5.6978  -5.5836  -5.5705  -5.5296  -5.5084  -5.4910  -5.4592
    -5.4546  -5.4141  -5.3942  -5.3812  -5.3644  -5.2894  -5.2889  -5.2509
    -5.2433  -4.9835  -4.9745  -4.9361  -4.9087  -4.8791  -4.8225  -4.8102
    -4.8023  -4.4894  -4.4612  -4.4416  -4.1941  -4.0890  -3.9958  -3.8831
    -3.8293  -3.7047  -3.6893  -3.6727  -3.6575  -3.5760  -3.5503  -3.5197
    -3.5157  -3.4468  -3.4185  -3.4042  -3.3813  -3.3655  -3.1343  -3.0732
    -3.0507  -2.8136  -2.3941  -2.3290  -2.3074  -2.1751  -2.1745  -2.1717
    -2.1697  -2.1116  -2.0945  -2.0572  -2.0431  -2.0291  -1.9970  -1.9116
    -1.9041  -1.8935  -1.8481  -1.7847  -1.7091  -1.7005  -1.6995  -1.6750
    -1.6027  -1.5904  -1.4428  -1.2895  -1.2187  -1.2159  -1.1768  -1.0883
    -0.9637  -0.9279  -0.9233  -0.9148  -0.9086  -0.7771  -0.7671  -0.7622
    -0.7383  -0.7377  -0.6681  -0.6486  -0.6470  -0.5896  -0.5860  -0.5726
    -0.5573  -0.4591  -0.2822  -0.1512   0.2131   0.2179   0.4096   0.6900
     0.6973   0.7281   0.7321   0.8197   0.8710   0.8723   1.1494   1.1588
     1.2165   1.2250   1.2318   1.8107   1.9570   2.0381   2.0390   2.2587
     2.3491   2.3713   2.3809   2.8137   2.8414   2.8830   2.8835   3.0897
     3.1172   3.1274   3.1360   3.2439   5.6446   5.6448   6.2804   6.8490
     7.0282   7.0561   7.1253   7.3129   7.5525   7.6649   7.7183   7.8142
     7.9904   8.0094   8.0095   8.2311   8.2705   8.3247   8.3517   8.4147
     8.5445   8.5780   8.5927   8.6267   8.6567   8.6851   8.7218   8.8142
     8.9831   8.9938   9.1227   9.2425   9.2560   9.3197   9.3535   9.4828
     9.7997   9.8798   9.8843   9.9914   9.9994  10.0331  10.0473  10.3927
    10.4198  10.4218  10.4546  10.4554  10.4692  10.4739  10.5001  10.5494
    10.5773  10.6214  10.6611  10.6750  11.0866  11.1177  11.1240  11.1288
    11.4651  11.4750  11.4794  11.7645  11.7652  11.7759  11.8828  11.9408
    12.2884  12.3048  12.3048  12.7730  12.7852  12.7870  12.7926  12.8717
    12.9346  12.9702  13.0437  13.0536  13.1703  13.1959  13.2984  13.3721
    13.4926  13.5621  13.6040  13.6213  13.7087  13.7576  13.8640  13.9200
    13.9686  13.9719  14.0135  14.0272  14.0632  14.1290  14.1320  14.1724
    14.2919  14.3240  14.3834  14.3943  14.4776  14.5383  14.5500  14.5594
    14.6795  14.8512  14.9121  14.9442  15.0651  15.1353  15.1361  15.1880
    15.2159  15.2624  15.2894  15.2895  15.3873  15.3986  15.4112  15.4231
    15.4362  15.4553  15.4999  15.5102  15.5779  15.5879  15.6159  15.6246
    15.6733  15.6777  15.7426  15.7538  15.7557  15.7985  15.8213  15.8342
    15.8965  15.8994  15.9147  15.9865  16.0058  16.0326  16.0521  16.1215
    16.1227  16.1637  16.1673  16.1832  16.3498  16.3637  16.4441  16.4554
    16.4589  16.4698  16.4858  16.4976  16.5282  16.5338  16.5368  16.5625
[...]
     7.8887   8.0694   8.0728   8.1002   8.1709   8.2611   8.3509   8.6024
     8.6584   8.6945   8.7518   8.8186   9.0353   9.1673   9.2094   9.3297
     9.3542   9.4298   9.4360   9.5371   9.5741   9.6641   9.7227   9.7775
     9.9133   9.9900  10.0084  10.1176  10.1301  10.2164  10.2228  10.2571
    10.2648  10.3064  10.3481  10.4378  10.4498  10.4785  10.4967  10.6074
    10.6741  10.6974  10.7670  10.8375  11.2109  11.2439  11.2513  11.2958
    11.6758  11.6840  11.7069  11.8123  11.8961  11.9022  11.9933  12.1118
    12.1643  12.2462  12.2498  12.4123  12.4438  12.5301  12.5600  12.5797
    12.6514  12.6988  12.7166  12.7966  12.9489  12.9545  13.0988  13.1151
    13.2229  13.2577  13.2992  13.4579  13.4926  13.5667  13.5734  13.5740
    13.6217  13.6726  13.6800  13.7984  13.8764  13.8837  13.9924  13.9939
    14.0899  14.1628  14.2879  14.2884  14.3409  14.3837  14.4104  14.4367
    14.4614  14.4952  14.5090  14.5794  14.5943  14.6514  14.6753  14.7183
    14.7697  14.7877  14.8197  14.8531  14.9022  14.9356  14.9864  14.9956
    15.0108  15.0308  15.0382  15.0598  15.1102  15.1238  15.1331  15.1795
    15.1911  15.2131  15.2331  15.3107  15.3244  15.4265  15.5174  15.5417
    15.7322  15.7699  15.8129  15.8647  15.8862  15.9983  16.1444  16.1659
    16.3357  16.3487  16.4568  16.4941  16.5904  16.6278  16.6585  16.6621
    16.7183  16.7439  16.7615  16.7733  16.7827  16.9242  17.0369  17.0391
    17.0553  17.0849  17.1414  17.2538  17.2851  17.3294  17.3393  17.3689
    17.4323  17.5477  17.7371  17.7534  17.7607  17.7658  17.7765  17.7771
    17.7885  17.7942  17.8178  17.8653  17.9066  17.9260  17.9352  17.9715
    17.9965  18.0214  18.0262  18.0504  18.0583  18.1309  18.1399  18.1414
    18.1821  18.2018  18.2021  18.2149  18.2227  18.4082  18.4178  18.4227
    18.4598  18.4706  18.4718  18.5423  18.5505  18.6081  18.6459  18.6527
    18.6929  18.7738  18.8151  18.8160  18.8520  18.9761  19.0562  19.0812
    19.1589  19.1914  19.2011  19.2748  19.2767  19.3627  19.4173  19.5148
    19.5599  19.5803  19.6176  19.6427  19.7772  19.7817  19.8429  19.8576
    19.8676  19.9823  19.9824  20.1185  20.1260  20.2047  20.2752  20.2981
    20.3111  20.3131  20.3381  20.4073  20.4236  20.4997  20.5141  20.5486
    20.5522  20.6035  20.6072  20.6779  20.7540  20.8270  20.8563  20.9551
    20.9649  21.0014  21.0099  21.0964  21.0994  21.1583  21.2827  21.3036
    21.3821  21.4414  21.4798  21.4814  21.5312  21.6890  21.7150  21.7539
    21.7838  21.8225  21.8820  21.9264  21.9580  22.0843  22.1238  22.1485
    22.1629  22.1631  22.1774  22.2037  22.2347  22.2572  22.2595  22.3472
    22.3802  22.4485  22.4487  22.5094  22.5739  22.6547  22.7372  22.7688
    22.7837  22.8806  22.9241  22.9445  22.9623  22.9734  23.0458  23.1605
    23.1743  23.2089  23.2561  23.3085  23.3259  23.3641  23.3839  23.4407
    23.4460  23.5016  23.5496  23.6995  23.8512  23.8741  23.8753  23.9460
    23.9636  23.9729  23.9918  24.1791  24.2095  24.2151  24.2709  24.3115
    24.3823  24.3964  24.5112  24.5244  24.5879  24.6240  24.6312  24.7482
    24.7978  24.8255  24.8493  24.9537  24.9631  24.9635  24.9981  25.0231
    25.0411  25.0656  25.0738  25.1414  25.1971  25.2519  25.2922  25.3015
    25.3063  25.3507  25.3568  25.3823  25.3850  25.4500  25.4788  25.5025
    25.5159  25.5497  25.5812  25.5889  25.5904  25.6005  25.6568  25.6695
    25.6925  25.6986  25.7475  25.7607  25.7696  25.8438  25.8716  25.9157
    25.9545  26.0075  26.0179  26.0579  26.1076  26.1136  26.1387  26.2080
    26.2229  26.2410  26.3198  26.3665  26.3854  26.4506  26.5014  26.5063
    26.5664  26.6296  26.6801  26.6962  26.7459  26.7562  26.7907  26.8397
    26.8624  26.8925  26.9648  26.9768  27.0929  27.0956  27.2000  27.2268
    27.2624  27.3015  27.3167  27.4099  27.4292  27.4510  27.5535  27.5711
    27.5999

          k =-0.5000-0.4976 0.0000 ( 43684 PWs)   bands (ev):

   -54.9768 -54.9441 -54.7160 -54.4790 -54.4713 -54.4614 -54.4539 -54.4348
   -54.4347 -54.3967 -54.3967 -54.3715 -54.3704 -54.3329 -54.3329 -54.3265
   -54.3189 -54.3188 -54.3176 -54.3120 -54.3115 -54.2232 -54.2231 -54.2049
   -54.2048 -54.2017 -54.1989 -54.1882 -54.1858 -54.0912 -54.0912 -54.0751
   -54.0751 -54.0552 -54.0549 -54.0476 -54.0476 -54.0203 -54.0190 -53.9377
   -53.9377 -53.8524 -53.6930 -53.6889 -53.5423 -53.4947 -53.4911 -53.3538
   -19.5279 -19.4971 -19.4878 -19.4506 -19.2825 -19.2792 -19.2543 -19.2266
   -19.1052 -19.1010 -19.0994 -19.0825 -19.0181 -19.0052 -19.0002 -18.9963
   -18.8144 -18.7988 -18.7935 -18.7892 -18.7545 -18.7485 -18.7418 -18.6963
   -18.6447 -18.6353 -18.6162 -18.5048 -17.5190 -17.4870 -17.4056 -17.4014
   -17.2145  -8.2325  -8.2199  -8.2165  -8.1997  -7.7305  -7.6662  -7.6611
    -7.6450  -7.6429  -7.5887  -7.5879  -7.5330  -7.4997  -7.4948  -7.4896
    -7.4116  -7.2329  -7.2233  -7.2207  -7.2136  -7.1542  -7.1486  -7.1390
    -7.1365  -7.1339  -7.0606  -7.0603  -7.0184  -6.9059  -6.8868  -6.8826
    -6.8796  -6.8438  -6.7807  -6.7797  -6.7716  -6.6175  -6.6161  -6.6128
    -6.5996  -6.2146  -6.1513  -6.1391  -6.1274  -5.7858  -5.7664  -5.7531
    -5.7213  -5.5244  -5.4794  -5.4786  -5.4547  -5.4308  -5.4220  -5.4174
    -5.4109  -5.4106  -5.3671  -5.3106  -5.3099  -5.2958  -5.2708  -5.2522
    -5.2179  -5.0715  -4.9996  -4.9198  -4.8464  -4.8357  -4.8060  -4.7885
    -4.7635  -4.6583  -4.4040  -4.3837  -4.3121  -4.1180  -4.0150  -3.8300
    -3.7850  -3.7476  -3.6742  -3.6417  -3.6267  -3.6132  -3.5905  -3.4593
    -3.4529  -3.4345  -3.3850  -3.3565  -3.3509  -3.2959  -3.0997  -3.0344
    -2.9592  -2.7572  -2.2740  -2.2485  -2.2307  -2.1406  -2.1193  -2.0967
    -2.0966  -2.0779  -2.0553  -2.0257  -1.9917  -1.9783  -1.9778  -1.9217
    -1.9156  -1.8539  -1.8031  -1.7858  -1.6829  -1.6588  -1.6354  -1.5903
    -1.5852  -1.5778  -1.4834  -1.2373  -1.1669  -1.1627  -1.1139  -1.0803
    -0.8745  -0.8717  -0.8584  -0.8518  -0.8033  -0.7471  -0.7029  -0.6902
    -0.6871  -0.6681  -0.5950  -0.5886  -0.5885  -0.5199  -0.5171  -0.5047
    -0.5022  -0.3371  -0.3115  -0.1448   0.2653   0.2703   0.3806   0.5636
     0.7446   0.7786   0.7846   0.7897   0.9256   0.9264   1.0632   1.2452
     1.2467   1.2989   1.3108   1.8863   2.0099   2.0883   2.0901   2.3013
     2.4336   2.4546   2.4864   2.8451   2.9466   2.9554   3.0037   3.1504
     3.1698   3.1762   3.2314   3.2492   5.6952   5.6954   6.2049   7.1062
     7.1864   7.2030   7.2453   7.4582   7.6312   7.7627   7.8404   7.9003
     8.0207   8.0694   8.0854   8.2433   8.2842   8.2856   8.3196   8.3553
     8.5101   8.5560   8.5757   8.6463   8.6783   8.7209   8.7488   8.7753
     9.0934   9.0973   9.1022   9.3029   9.3083   9.3170   9.3340   9.4524
     9.8963   9.9085   9.9296  10.0170  10.0201  10.0350  10.0455  10.3525
    10.4795  10.4866  10.4887  10.5040  10.5107  10.5367  10.5583  10.5599
    10.6332  10.6490  10.6547  10.8121  11.0388  11.0569  11.0663  11.0850
    11.5491  11.5507  11.5564  11.6732  11.7509  11.7620  11.9646  12.0284
    12.3017  12.3238  12.3240  12.7491  12.7763  12.8006  12.8623  12.9161
    13.0704  13.0960  13.0966  13.0984  13.1954  13.2439  13.3682  13.3811
    13.5235  13.5399  13.5846  13.7193  13.7841  13.8661  13.9669  14.0023
    14.0156  14.0903  14.0975  14.1295  14.1393  14.1665  14.2152  14.2470
    14.3323  14.3582  14.3747  14.4549  14.4614  14.5249  14.6538  14.6817
    14.7110  14.7299  14.8863  14.9560  15.0453  15.0594  15.0697  15.1067
    15.2158  15.2446  15.2549  15.2765  15.3662  15.3684  15.3835  15.4013
    15.4263  15.4320  15.4467  15.4744  15.5844  15.5847  15.5935  15.6112
    15.6477  15.6608  15.6710  15.6927  15.7141  15.7405  15.7599  15.8028
    15.8637  15.8664  15.8794  15.9783  16.0001  16.0230  16.0504  16.0949
    16.1152  16.1473  16.1504  16.1542  16.2780  16.2999  16.3068  16.3952
    16.4369  16.4587  16.4597  16.4904  16.5265  16.5475  16.5601  16.5774
    16.6276  16.6383  16.6572  16.6575  16.7964  16.8433  16.8778  16.9110
    17.0445  17.0991  17.1172  17.1215  17.1543  17.2468  17.2523  17.2827
    17.3042  17.3812  17.3830  17.4309  17.5239  17.5251  17.5647  17.5750
    17.6291  17.6502  17.6791  17.6815  17.7759  17.7812  17.7926  17.7966
    17.8429  17.8483  17.8576  17.8600  17.8996  17.9484  17.9495  18.1055
    18.1087  18.2143  18.2477  18.3062  18.3387  18.3398  18.3880  18.4018
    18.4065  18.4474  18.4779  18.4865  18.5333  18.5409  18.5459  18.6151
    18.6802  18.7326  18.7811  18.9760  19.1617  19.2034  19.3858  19.4047
    19.4248  19.4292  19.4319  19.4668  19.4870  19.4871  19.5136  19.6904
    19.7016  19.7189  19.7257  19.9289  19.9546  19.9624  20.0328  20.0650
    20.0653  20.1832  20.1845  20.4896  20.5005  20.5011  20.5266  20.5431
    20.7579  20.7624  20.7914  20.9473  21.0623  21.0843  21.1180  21.1357
    21.1607  21.1781  21.1822  21.3439  21.3486  21.3568  21.3664  21.6604
    21.6862  21.7041  21.7536  21.8278  21.8985  21.9236  22.0375  22.1132
    22.1188  22.1258  22.1463  22.1711  22.1912  22.2060  22.2538  22.4047
    22.4355  22.4557  22.4636  22.4729  22.5786  22.5843  22.6171  22.6252
    22.6770  22.7126  22.7303  22.7588  22.7747  22.7928  22.8052  22.8954
    22.8975  22.9153  22.9171  23.0045  23.0085  23.0242  23.0344  23.0719
    23.0851  23.0944  23.1519  23.1789  23.2123  23.2260  23.2378  23.3349
    23.3736  23.3910  23.4465  23.4680  23.5006  23.5046  23.5762  23.6086
    23.6781  23.6965  23.7463  23.7635  23.8925  23.9081  23.9108  23.9296
    24.0557  24.0805  24.1004  24.1044  24.1568  24.2009  24.2271  24.2998
    24.3354  24.3790  24.3805  24.4866  24.5199  24.5268  24.5606  24.6735
    24.7159  24.7159  24.7298  24.9237  25.0184  25.0715  25.0920  25.1174
    25.1267  25.1337  25.1464  25.1545  25.1625  25.1768  25.2056  25.3399
    25.3658  25.3991  25.4511  25.4744  25.4954  25.4980  25.5491  25.6013
    25.7076  25.7150  25.7549  25.7945  25.8168  25.8481  25.8524  25.8746
    26.0426  26.0638  26.0739  26.1225  26.2544  26.2699  26.2767  26.3122
    26.3288  26.3709  26.3713  26.4641  26.5848  26.6072  26.6091  26.6555
    26.8777  26.9118  26.9394  26.9541  26.9845  27.0062  27.0431  27.0628
    27.2268  27.2528  27.2736  27.3788  27.5061  27.5834  27.6168  27.7948
    27.8099  27.8259  27.8556  27.9218  27.9451  27.9732  28.0129  28.0969
    28.0989

     the Fermi energy is    -0.0432 ev

!    total energy              =   -4391.19410450 Ry
     Harris-Foulkes estimate   =   -4391.19410451 Ry
     estimated scf accuracy    <          9.1E-09 Ry

     The total energy is the sum of the following terms:

     one-electron contribution =  -82221.61014450 Ry
     hartree contribution      =   41204.46291988 Ry
     xc contribution           =   -1103.26795103 Ry
     ewald contribution        =   37729.22281650 Ry
     smearing contrib. (-TS)   =      -0.00174535 Ry

     convergence has been achieved in  17 iterations

     Forces acting on atoms (Ry/au):


     negative rho (up, down):  0.316E+01 0.000E+00
     atom    1 type  1   force =     0.00000000    0.00000000    0.01499451
     atom    2 type  2   force =     0.00232018   -0.00000000   -0.00528177
     atom    3 type  2   force =     0.00000000    0.00000000    0.00538766
     atom    4 type  1   force =    -0.00007525   -0.00047898   -0.02901088
     atom    5 type  1   force =    -0.00007525    0.00047898   -0.02901088
     atom    6 type  1   force =     0.00000000    0.00000000    0.01097221
     atom    7 type  1   force =     0.00000000    0.00000000    0.02261380
     atom    8 type  2   force =     0.00034956    0.00000000    0.01606644
     atom    9 type  2   force =     0.00000000    0.00000000   -0.01363551
     atom   10 type  1   force =     0.00031968    0.00590078   -0.00001341
     atom   11 type  1   force =     0.00031968   -0.00590078   -0.00001341
     atom   12 type  1   force =     0.00000000    0.00000000    0.01121790
     atom   13 type  1   force =     0.00000000    0.00000000    0.00027917
     atom   14 type  2   force =     0.00002494    0.00000000    0.00036424
     atom   15 type  2   force =     0.00000000    0.00000000   -0.00021425
     atom   16 type  1   force =    -0.00001552    0.00003381   -0.00030136
     atom   17 type  1   force =    -0.00001552   -0.00003381   -0.00030136
     atom   18 type  1   force =     0.00000000    0.00000000    0.00009254
     atom   19 type  1   force =     0.00000000    0.00000000   -0.00014913
     atom   20 type  2   force =    -0.00001773    0.00000000   -0.00005742
     atom   21 type  2   force =     0.00000000    0.00000000    0.00022134
     atom   22 type  1   force =     0.00017746    0.00017386    0.00014111
     atom   23 type  1   force =     0.00017746   -0.00017386    0.00014111
     atom   24 type  1   force =     0.00000000    0.00000000    0.00040439
     atom   25 type  1   force =     0.00000000    0.00000000    0.01358470
     atom   26 type  2   force =    -0.00232018    0.00000000   -0.00528177
     atom   27 type  2   force =     0.00000000    0.00000000    0.00546818
     atom   28 type  1   force =     0.00007525   -0.00047898   -0.02901088
     atom   29 type  1   force =     0.00007525    0.00047898   -0.02901088
     atom   30 type  1   force =     0.00000000    0.00000000    0.00418697
     atom   31 type  1   force =     0.00000000    0.00000000    0.02352415
     atom   32 type  2   force =    -0.00034956    0.00000000    0.01606644
     atom   33 type  2   force =     0.00000000    0.00000000   -0.01464126
     atom   34 type  1   force =    -0.00031968    0.00590078   -0.00001341
     atom   35 type  1   force =    -0.00031968   -0.00590078   -0.00001341
     atom   36 type  1   force =     0.00000000    0.00000000    0.01044972
     atom   37 type  1   force =     0.00000000    0.00000000    0.00038819
     atom   38 type  2   force =    -0.00002494    0.00000000    0.00036424
     atom   39 type  2   force =     0.00000000    0.00000000    0.00005564
     atom   40 type  1   force =     0.00001552    0.00003381   -0.00030136
     atom   41 type  1   force =     0.00001552   -0.00003381   -0.00030136
     atom   42 type  1   force =     0.00000000    0.00000000    0.00063943
     atom   43 type  1   force =     0.00000000    0.00000000   -0.00007847
     atom   44 type  2   force =     0.00001773    0.00000000   -0.00005742
     atom   45 type  2   force =     0.00000000    0.00000000    0.00010949
     atom   46 type  1   force =    -0.00017746    0.00017386    0.00014111
     atom   47 type  1   force =    -0.00017746   -0.00017386    0.00014111
     atom   48 type  1   force =     0.00000000    0.00000000   -0.00057549
     atom   49 type  1   force =     0.00000000    0.00000000   -0.00074069

     Total force =     0.001672     Total SCF correction =     0.000218
     SCF correction compared to forces is large: reduce conv_thr to get better values

     bfgs converged in  22 scf cycles and  21 bfgs steps
     (criteria: energy < 0.10E-03, force < 0.10E-02)

     End of BFGS Geometry Optimization

     Final energy   =   -4391.1941044978 Ry
Begin final coordinates

ATOMIC_POSITIONS (crystal)
O0       0.000000000   0.500000000   0.331460000    0   0   0
Pt1      0.250000000   0.500000000   0.365530000    0   0   0
Pt1      0.000000000   0.000000000   0.365530000    0   0   0
O0       0.250000000   0.810000000   0.365530000    0   0   0
O0       0.250000000   0.190000000   0.365530000    0   0   0
O0       0.000000000   0.500000000   0.399590000    0   0   0
O0       0.000000000   0.000000000   0.421110000    0   0   0
Pt1      0.250000000   0.000000000   0.455180000    0   0   0
Pt1      0.000000000   0.500000000   0.455180000    0   0   0
O0       0.250000000   0.690000000   0.455180000    0   0   0
O0       0.250000000   0.310000000   0.455180000    0   0   0
O0       0.000000000   0.000000000   0.489240000    0   0   0
O0       0.000000000   0.500000000   0.510526180
Pt1      0.250939881   0.500000000   0.544183403
Pt1      0.000000000   0.000000000   0.544550252
O0       0.250215494   0.809258971   0.544397272
O0       0.250215494   0.190741029   0.544397272
O0       0.000000000   0.500000000   0.577976687
O0       0.000000000   0.000000000   0.599847878
Pt1      0.249978510   0.000000000   0.634117737
Pt1      0.000000000   0.500000000   0.634288614
O0       0.249076762   0.690061403   0.635655177
O0       0.249076762   0.309938597   0.635655177
O0       0.000000000   0.000000000   0.667381672
O0       0.500000000   0.500000000   0.331460000    0   0   0
Pt1      0.750000000   0.500000000   0.365530000    0   0   0
Pt1      0.500000000   0.000000000   0.365530000    0   0   0
O0       0.750000000   0.810000000   0.365530000    0   0   0
O0       0.750000000   0.190000000   0.365530000    0   0   0
O0       0.500000000   0.500000000   0.399590000    0   0   0
O0       0.500000000   0.000000000   0.421110000    0   0   0
Pt1      0.750000000   0.000000000   0.455180000    0   0   0
Pt1      0.500000000   0.500000000   0.455180000    0   0   0
O0       0.750000000   0.690000000   0.455180000    0   0   0
O0       0.750000000   0.310000000   0.455180000    0   0   0
O0       0.500000000   0.000000000   0.489240000    0   0   0
O0       0.500000000   0.500000000   0.509850445
Pt1      0.749060119   0.500000000   0.544183403
Pt1      0.500000000   0.000000000   0.544542058
O0       0.749784506   0.809258971   0.544397272
O0       0.749784506   0.190741029   0.544397272
O0       0.500000000   0.500000000   0.578888500
O0       0.500000000   0.000000000   0.599854268
Pt1      0.750021490  -0.000000000   0.634117737
Pt1      0.500000000   0.500000000   0.636998177
O0       0.750923238   0.690061403   0.635655177
O0       0.750923238   0.309938597   0.635655177
O0       0.500000000   0.000000000   0.667380539
O0       0.500000000   0.500000000   0.687250430
End final coordinates



     init_run     :     83.31s CPU     90.24s WALL (       1 calls)
     electrons    : 155193.89s CPU 161680.23s WALL (      22 calls)
     update_pot   :    110.57s CPU    125.43s WALL (      21 calls)
     forces       :   1049.09s CPU   1063.96s WALL (      22 calls)

     Called by init_run:
     wfcinit      :     67.43s CPU     69.61s WALL (       1 calls)
     potinit      :      3.00s CPU      3.32s WALL (       1 calls)

     Called by electrons:
     c_bands      : 140330.12s CPU 143729.70s WALL (     493 calls)
     sum_band     :   9450.35s CPU  10035.50s WALL (     493 calls)
     v_of_rho     :    775.29s CPU    911.27s WALL (     512 calls)
     newd         :   4303.94s CPU   6547.62s WALL (     512 calls)
     mix_rho      :    220.35s CPU    239.09s WALL (     493 calls)

     Called by c_bands:
     init_us_2    :     50.51s CPU     53.70s WALL (    9081 calls)
     cegterg      : 140031.42s CPU 143416.01s WALL (    4437 calls)

     Called by *egterg:
     h_psi        :  26813.54s CPU  28476.01s WALL (   11773 calls)
     s_psi        :   6080.80s CPU   6162.92s WALL (   11773 calls)
     g_psi        :     48.81s CPU     48.93s WALL (    7327 calls)
     cdiaghg      :  75087.62s CPU  75886.23s WALL (   11548 calls)

     Called by h_psi:
     add_vuspsi   :   6091.22s CPU   6185.81s WALL (   11773 calls)

     General routines
     calbec       :   9517.87s CPU   9617.55s WALL (   16408 calls)
     fft          :   1425.35s CPU   1642.99s WALL (    8379 calls)
     ffts         :     75.37s CPU     82.87s WALL (    1005 calls)
     fftw         :  13780.97s CPU  15720.03s WALL (15554723 calls)
     interpolate  :    227.07s CPU    263.04s WALL (    1005 calls)

     Parallel routines
     fft_scatter  :   7290.11s CPU   8706.60s WALL (15564107 calls)

     PWSCF        :     1d   19h30m CPU        1d   21h20m WALL


   This run was terminated on:   7:14:45  19Apr2014            

=------------------------------------------------------------------------------=
   JOB DONE.
=------------------------------------------------------------------------------=
