ScientificPython/2.8-dl160g6-numpy-1.7.1-1(15):ERROR:151: Module 'ScientificPython/2.8-dl160g6-numpy-1.7.1-1' depends on one of the module(s) 'numpy/1.7.1-dl160g6-gfortran-internal-1'
ScientificPython/2.8-dl160g6-numpy-1.7.1-1(15):ERROR:102: Tcl command execution failed: prereq numpy/1.7.1-dl160g6-gfortran-internal-1


     Program PWSCF v.5.0.2 (svn rev. 9656) starts on 30May2014 at  5:13:44 

     This program is part of the open-source Quantum ESPRESSO suite
     for quantum simulation of materials; please cite
         "P. Giannozzi et al., J. Phys.:Condens. Matter 21 395502 (2009);
          URL http://www.quantum-espresso.org", 
     in publications or presentations arising from this work. More details at
     http://www.quantum-espresso.org/quote.php

     Parallel version (MPI), running on    16 processors
     K-points division:     npool     =       4
     R & G space division:  proc/nbgrp/npool/nimage =       4

     Current dimensions of program PWSCF are:
     Max number of different atomic species (ntypx) = 10
     Max number of k-points (npk) =  40000
     Max angular momentum in pseudopotentials (lmaxx) =  3
     Reading input from pwscf.in
Warning: card &CELL ignored
Warning: card / ignored

     Subspace diagonalization in iterative solution of the eigenvalue problem:
     a serial algorithm will be used


     Parallelization info
     --------------------
     sticks:   dense  smooth     PW     G-vecs:    dense   smooth      PW
     Min        1419     456    126               336167    60843    9016
     Max        1420     457    127               336172    60875    9024
     Sum        5677    1827    505              1344679   243423   36075



     bravais-lattice index     =            0
     lattice parameter (alat)  =      11.7919  a.u.
     unit-cell volume          =    7123.6633 (a.u.)^3
     number of atoms/cell      =           33
     number of atomic types    =            3
     number of electrons       =       253.00
     number of Kohn-Sham states=          367
     kinetic-energy cutoff     =      40.0000  Ry
     charge density cutoff     =     500.0000  Ry
     convergence threshold     =      1.0E-06
     mixing beta               =       0.7000
     number of iterations used =            8  plain     mixing
     Exchange-correlation      = SLA  PW   PBE  PBE ( 1 4 3 4 0)
     EXX-fraction              =        0.00
     nstep                     =           50


     celldm(1)=  11.791891  celldm(2)=   0.000000  celldm(3)=   0.000000
     celldm(4)=   0.000000  celldm(5)=   0.000000  celldm(6)=   0.000000

     crystal axes: (cart. coord. in units of alat)
               a(1) = (   1.000000   0.000000   0.000000 )  
               a(2) = (   0.000000   1.026665   0.000000 )  
               a(3) = (   0.000000   0.000000   4.231793 )  

     reciprocal axes: (cart. coord. in units 2 pi/alat)
               b(1) = (  1.000000  0.000000  0.000000 )  
               b(2) = (  0.000000  0.974028  0.000000 )  
               b(3) = (  0.000000  0.000000  0.236306 )  


     PseudoPot. # 1 for O  read from file:
     /home/camp/zhonxu/pseudo/o_pbe_v1.01.uspp.F.UPF
     MD5 check sum: 2bcb18d16ea4b960afae9ec6d52f22d2
     Pseudo is Ultrasoft + core correction, Zval =  6.0
     Generated by new atomic code, or converted to UPF format
     Using radial grid of  737 points,  5 beta functions with: 
                l(1) =   0
                l(2) =   0
                l(3) =   1
                l(4) =   1
                l(5) =   2
     Q(r) pseudized with  8 coefficients,  rinner =    0.900   0.900   0.900
                                                       0.900   0.900

     PseudoPot. # 2 for Ru read from file:
     /home/camp/zhonxu/pseudo/ru_pbe_v1.uspp.F.UPF
     MD5 check sum: df00be1c11b23341d9806d8f1dfa10cf
     Pseudo is Ultrasoft + core correction, Zval = 16.0
     Generated by new atomic code, or converted to UPF format
     Using radial grid of  967 points,  6 beta functions with: 
                l(1) =   0
                l(2) =   0
                l(3) =   1
                l(4) =   1
                l(5) =   2
                l(6) =   2
     Q(r) pseudized with  8 coefficients,  rinner =    1.300   1.300   1.300
                                                       1.300   1.300

     PseudoPot. # 3 for H  read from file:
     /home/camp/zhonxu/pseudo/h_pbe_v1.uspp.F.UPF
     MD5 check sum: 3408e3ff4ec8b0a4e358431e7e038a48
     Pseudo is Ultrasoft, Zval =  1.0
     Generated by new atomic code, or converted to UPF format
     Using radial grid of  615 points,  2 beta functions with: 
                l(1) =   0
                l(2) =   0
     Q(r) pseudized with  8 coefficients,  rinner =    0.700

     atomic species   valence    mass     pseudopotential
        O0             6.00    15.99940     O ( 1.00)
        Ru1           16.00   101.07000     Ru( 1.00)
        H2             1.00     1.00794     H ( 1.00)


     Simplified LDA+U calculation (l_max = 2) with parameters (eV):
     atomic species    L          U    alpha       J0     beta
        Ru1            2     0.0000   0.0000   0.0000   0.0000



     No symmetry found



   Cartesian axes

     site n.     atom                  positions (alat units)
         1           O0  tau(   1) = (   0.0000000   0.0000000   1.5976288  )
         2           O0  tau(   2) = (   0.0000000   0.5133323   1.7135376  )
         3           Ru1 tau(   3) = (   0.2500000   0.5133323   1.9265237  )
         4           Ru1 tau(   4) = (   0.0000000   0.0000000   1.9104429  )
         5           O0  tau(   5) = (   0.2500000   0.8315984   1.9133628  )
         6           O0  tau(   6) = (   0.2500000   0.1950663   1.9137014  )
         7           O0  tau(   7) = (   0.0000000   0.5133323   2.1143307  )
         8           O0  tau(   8) = (   0.0000000   0.0000000   2.2232570  )
         9           Ru1 tau(   9) = (   0.2500000   0.0000000   2.4362008  )
        10           Ru1 tau(  10) = (   0.0000000   0.5133323   2.4139839  )
        11           O0  tau(  11) = (   0.2500000   0.7083986   2.4352275  )
        12           O0  tau(  12) = (   0.2500000   0.3182660   2.4428024  )
        13           O0  tau(  13) = (   0.0000000   0.0000000   2.6141054  )
        14           O0  tau(  14) = (   0.5000000   0.0000000   1.5980943  )
        15           O0  tau(  15) = (   0.5000000   0.5133323   1.7110408  )
        16           Ru1 tau(  16) = (   0.7500000   0.5133323   1.9265660  )
        17           Ru1 tau(  17) = (   0.5000000   0.0000000   1.9113316  )
        18           O0  tau(  18) = (   0.7500000   0.8315984   1.9134475  )
        19           O0  tau(  19) = (   0.7500000   0.1950663   1.9137014  )
        20           O0  tau(  20) = (   0.5000000   0.5133323   2.1248255  )
        21           O0  tau(  21) = (   0.5000000   0.0000000   2.2236379  )
        22           Ru1 tau(  22) = (   0.7500000   0.0000000   2.4362855  )
        23           Ru1 tau(  23) = (   0.5000000   0.5133323   2.4472458  )
        24           O0  tau(  24) = (   0.7500000   0.7083986   2.4352698  )
        25           O0  tau(  25) = (   0.7500000   0.3182660   2.4426755  )
        26           O0  tau(  26) = (   0.5000000   0.0000000   2.6042453  )
        27           H2  tau(  27) = (  -0.0003700   0.6408749   1.6195494  )
        28           H2  tau(  28) = (   0.4997300   0.6446633   1.6222578  )
        29           H2  tau(  29) = (   0.1462300   0.0299786   1.5449853  )
        30           H2  tau(  30) = (   0.6457400   0.0313441   1.5450699  )
        31           O0  tau(  31) = (   0.5000700   0.5415759   2.7547279  )
        32           O0  tau(  32) = (   0.4999900   0.3417972   2.8749108  )
        33           H2  tau(  33) = (   0.4999600   0.4009947   3.0215847  )

     number of k points=    10  Methfessel-Paxton smearing, width (Ry)=  0.0100
                       cart. coord. in units 2pi/alat
        k(    1) = (   0.0000000   0.0000000   0.0000000), wk =   0.1250000
        k(    2) = (   0.0000000   0.2435070   0.0000000), wk =   0.2500000
        k(    3) = (   0.0000000  -0.4870139   0.0000000), wk =   0.1250000
        k(    4) = (   0.2500000   0.0000000   0.0000000), wk =   0.2500000
        k(    5) = (   0.2500000   0.2435070   0.0000000), wk =   0.2500000
        k(    6) = (   0.2500000  -0.4870139   0.0000000), wk =   0.2500000
        k(    7) = (  -0.5000000   0.0000000   0.0000000), wk =   0.1250000
        k(    8) = (  -0.5000000   0.2435070   0.0000000), wk =   0.2500000
        k(    9) = (  -0.5000000  -0.4870139   0.0000000), wk =   0.1250000
        k(   10) = (  -0.2500000   0.2435070   0.0000000), wk =   0.2500000

     Dense  grid:  1344679 G-vectors     FFT dimensions: (  90,  90, 360)

     Smooth grid:   243423 G-vectors     FFT dimensions: (  48,  50, 216)

     Largest allocated arrays     est. size (Mb)     dimensions
        Kohn-Sham Wavefunctions        42.74 Mb     (   7632,  367)
        Atomic wavefunctions           22.01 Mb     (   7632,  189)
        NL pseudopotentials            48.21 Mb     (   7632,  414)
        Each V/rho on FFT grid         11.12 Mb     ( 729000)
        Each G-vector array             2.56 Mb     ( 336169)
        G-vector shells                 1.12 Mb     ( 146910)
     Largest temporary arrays     est. size (Mb)     dimensions
        Auxiliary wavefunctions       170.96 Mb     (   7632, 1468)
        Each subspace H/S matrix       32.88 Mb     (1468,1468)
        Each <psi_i|beta_j> matrix      2.32 Mb     (    414,  367)
        Arrays for rho mixing          88.99 Mb     ( 729000,   8)

     Check: negative/imaginary core charge=   -0.000003    0.000000

     Initial potential from superposition of free atoms
     Check: negative starting charge=   -0.523679

     starting charge  244.99980, renormalised to  253.00000

     negative rho (up, down):  0.541E+00 0.000E+00
     Number of +U iterations with fixed ns =  0
     Starting occupations:
 --- enter write_ns ---
 LDA+U parameters:
U( 2)     =  0.00000000
alpha( 2) =  0.00000000
atom    3   Tr[ns(na)] =   6.00000
    eigenvalues: 
  0.600  0.600  0.600  0.600  0.600
    eigenvectors:
  1.000  0.000  0.000  0.000  0.000
  0.000  1.000  0.000  0.000  0.000
  0.000  0.000  1.000  0.000  0.000
  0.000  0.000  0.000  1.000  0.000
  0.000  0.000  0.000  0.000  1.000
    occupations:
  0.600  0.000  0.000  0.000  0.000
  0.000  0.600  0.000  0.000  0.000
  0.000  0.000  0.600  0.000  0.000
  0.000  0.000  0.000  0.600  0.000
  0.000  0.000  0.000  0.000  0.600
atom    4   Tr[ns(na)] =   6.00000
    eigenvalues: 
  0.600  0.600  0.600  0.600  0.600
    eigenvectors:
  1.000  0.000  0.000  0.000  0.000
  0.000  1.000  0.000  0.000  0.000
  0.000  0.000  1.000  0.000  0.000
  0.000  0.000  0.000  1.000  0.000
  0.000  0.000  0.000  0.000  1.000
    occupations:
  0.600  0.000  0.000  0.000  0.000
  0.000  0.600  0.000  0.000  0.000
  0.000  0.000  0.600  0.000  0.000
  0.000  0.000  0.000  0.600  0.000
  0.000  0.000  0.000  0.000  0.600
atom    9   Tr[ns(na)] =   6.00000
    eigenvalues: 
  0.600  0.600  0.600  0.600  0.600
    eigenvectors:
  1.000  0.000  0.000  0.000  0.000
  0.000  1.000  0.000  0.000  0.000
  0.000  0.000  1.000  0.000  0.000
  0.000  0.000  0.000  1.000  0.000
  0.000  0.000  0.000  0.000  1.000
    occupations:
  0.600  0.000  0.000  0.000  0.000
  0.000  0.600  0.000  0.000  0.000
  0.000  0.000  0.600  0.000  0.000
  0.000  0.000  0.000  0.600  0.000
  0.000  0.000  0.000  0.000  0.600
atom   10   Tr[ns(na)] =   6.00000
    eigenvalues: 
  0.600  0.600  0.600  0.600  0.600
    eigenvectors:
  1.000  0.000  0.000  0.000  0.000
  0.000  1.000  0.000  0.000  0.000
  0.000  0.000  1.000  0.000  0.000
  0.000  0.000  0.000  1.000  0.000
  0.000  0.000  0.000  0.000  1.000
    occupations:
  0.600  0.000  0.000  0.000  0.000
  0.000  0.600  0.000  0.000  0.000
  0.000  0.000  0.600  0.000  0.000
  0.000  0.000  0.000  0.600  0.000
  0.000  0.000  0.000  0.000  0.600
atom   16   Tr[ns(na)] =   6.00000
    eigenvalues: 
  0.600  0.600  0.600  0.600  0.600
    eigenvectors:
  1.000  0.000  0.000  0.000  0.000
  0.000  1.000  0.000  0.000  0.000
  0.000  0.000  1.000  0.000  0.000
  0.000  0.000  0.000  1.000  0.000
  0.000  0.000  0.000  0.000  1.000
    occupations:
  0.600  0.000  0.000  0.000  0.000
  0.000  0.600  0.000  0.000  0.000
  0.000  0.000  0.600  0.000  0.000
  0.000  0.000  0.000  0.600  0.000
  0.000  0.000  0.000  0.000  0.600
atom   17   Tr[ns(na)] =   6.00000
    eigenvalues: 
  0.600  0.600  0.600  0.600  0.600
    eigenvectors:
  1.000  0.000  0.000  0.000  0.000
  0.000  1.000  0.000  0.000  0.000
  0.000  0.000  1.000  0.000  0.000
  0.000  0.000  0.000  1.000  0.000
  0.000  0.000  0.000  0.000  1.000
    occupations:
  0.600  0.000  0.000  0.000  0.000
  0.000  0.600  0.000  0.000  0.000
  0.000  0.000  0.600  0.000  0.000
  0.000  0.000  0.000  0.600  0.000
  0.000  0.000  0.000  0.000  0.600
atom   22   Tr[ns(na)] =   6.00000
    eigenvalues: 
  0.600  0.600  0.600  0.600  0.600
    eigenvectors:
  1.000  0.000  0.000  0.000  0.000
  0.000  1.000  0.000  0.000  0.000
  0.000  0.000  1.000  0.000  0.000
  0.000  0.000  0.000  1.000  0.000
  0.000  0.000  0.000  0.000  1.000
    occupations:
  0.600  0.000  0.000  0.000  0.000
  0.000  0.600  0.000  0.000  0.000
  0.000  0.000  0.600  0.000  0.000
  0.000  0.000  0.000  0.600  0.000
  0.000  0.000  0.000  0.000  0.600
atom   23   Tr[ns(na)] =   6.00000
    eigenvalues: 
  0.600  0.600  0.600  0.600  0.600
    eigenvectors:
  1.000  0.000  0.000  0.000  0.000
  0.000  1.000  0.000  0.000  0.000
  0.000  0.000  1.000  0.000  0.000
  0.000  0.000  0.000  1.000  0.000
  0.000  0.000  0.000  0.000  1.000
    occupations:
  0.600  0.000  0.000  0.000  0.000
  0.000  0.600  0.000  0.000  0.000
  0.000  0.000  0.600  0.000  0.000
  0.000  0.000  0.000  0.600  0.000
  0.000  0.000  0.000  0.000  0.600
N of occupied +U levels =  48.0000000
 --- exit write_ns ---
 Atomic wfc used for LDA+U Projector are NOT orthogonalized
     Starting wfc are  189 randomized atomic wfcs

     total cpu time spent up to now is      116.7 secs

     per-process dynamical memory:   408.6 Mb

     Self-consistent Calculation

     iteration #  1     ecut=    40.00 Ry     beta=0.70
     Davidson diagonalization with overlap
     ethr =  1.00E-02,  avg # of iterations =  6.0
 --- enter write_ns ---
 LDA+U parameters:
U( 2)     =  0.00000000
alpha( 2) =  0.00000000
atom    3   Tr[ns(na)] =   5.97600
    eigenvalues: 
  0.393  0.425  0.633  0.749  0.788
    eigenvectors:
  0.001  0.185  0.006  0.023  0.785
  0.992  0.007  0.000  0.000  0.000
  0.000  0.000  0.983  0.006  0.011
  0.007  0.808  0.002  0.005  0.178
  0.000  0.000  0.009  0.966  0.026
    occupations:
  0.718 -0.002  0.014 -0.140 -0.004
 -0.002  0.393  0.001  0.004 -0.003
  0.014  0.001  0.636 -0.005 -0.011
 -0.140  0.004 -0.005  0.491  0.003
 -0.004 -0.003 -0.011  0.003  0.749
atom    4   Tr[ns(na)] =   4.49887
    eigenvalues: 
  0.349  0.393  0.407  0.450  0.650
    eigenvectors:
  0.007  0.002  0.000  0.965  0.026
  0.980  0.009  0.000  0.009  0.001
  0.010  0.988  0.001  0.001  0.000
  0.002  0.000  0.000  0.025  0.973
  0.000  0.001  0.999  0.000  0.000
    occupations:
  0.454  0.008  0.002  0.032  0.000
  0.008  0.351  0.004 -0.011 -0.000
  0.002  0.004  0.393  0.000  0.000
  0.032 -0.011  0.000  0.644 -0.000
  0.000 -0.000  0.000 -0.000  0.407
atom    9   Tr[ns(na)] =   6.75163
    eigenvalues: 
  0.425  0.447  0.733  0.833  0.938
    eigenvectors:
  0.008  0.122  0.001  0.000  0.870
  0.965  0.034  0.000  0.000  0.001
  0.000  0.000  0.950  0.049  0.001
  0.027  0.844  0.000  0.000  0.129
  0.000  0.000  0.049  0.951  0.000
    occupations:
  0.875 -0.012  0.003 -0.165 -0.002
 -0.012  0.426 -0.001  0.000  0.001
  0.003 -0.001  0.738 -0.006  0.021
 -0.165  0.000 -0.006  0.510  0.000
 -0.002  0.001  0.021  0.000  0.828
atom   10   Tr[ns(na)] =   7.13863
    eigenvalues: 
  0.419  0.437  0.838  0.917  0.958
    eigenvectors:
  0.000  0.989  0.000  0.000  0.011
  0.000  0.000  0.000  1.000  0.000
  0.000  0.000  1.000  0.000  0.000
  0.000  0.011  0.000  0.000  0.989
  1.000  0.000  0.000  0.000  0.000
    occupations:
  0.442 -0.000 -0.002  0.054  0.000
 -0.000  0.917  0.000  0.000 -0.010
 -0.002  0.000  0.838 -0.001  0.000
  0.054  0.000 -0.001  0.952  0.000
  0.000 -0.010  0.000  0.000  0.419
atom   16   Tr[ns(na)] =   5.97491
    eigenvalues: 
  0.393  0.425  0.633  0.749  0.788
    eigenvectors:
  0.001  0.184  0.007  0.021  0.787
  0.992  0.007  0.000  0.000  0.000
  0.000  0.000  0.982  0.006  0.012
  0.007  0.808  0.002  0.004  0.178
  0.000  0.000  0.008  0.969  0.023
    occupations:
  0.718  0.002  0.014 -0.140  0.004
  0.002  0.393 -0.001 -0.004 -0.003
  0.014 -0.001  0.636 -0.005  0.011
 -0.140 -0.004 -0.005  0.491 -0.003
  0.004 -0.003  0.011 -0.003  0.749
atom   17   Tr[ns(na)] =   4.40426
    eigenvalues: 
  0.337  0.381  0.405  0.450  0.629
    eigenvectors:
  0.006  0.001  0.000  0.967  0.026
  0.989  0.002  0.000  0.008  0.001
  0.002  0.996  0.000  0.001  0.000
  0.002  0.000  0.000  0.025  0.973
  0.000  0.000  1.000  0.000  0.000
    occupations:
  0.454  0.008  0.002  0.029  0.000
  0.008  0.339  0.002 -0.011 -0.001
  0.002  0.002  0.381  0.000  0.000
  0.029 -0.011  0.000  0.624 -0.000
  0.000 -0.001  0.000 -0.000  0.405
atom   22   Tr[ns(na)] =   6.75027
    eigenvalues: 
  0.425  0.447  0.733  0.832  0.939
    eigenvectors:
  0.007  0.122  0.001  0.000  0.870
  0.967  0.032  0.000  0.000  0.000
  0.000  0.000  0.948  0.051  0.000
  0.026  0.846  0.000  0.000  0.128
  0.000  0.000  0.051  0.948  0.001
    occupations:
  0.875  0.011  0.003 -0.165  0.004
  0.011  0.426  0.000 -0.000  0.001
  0.003  0.000  0.738 -0.005 -0.022
 -0.165 -0.000 -0.005  0.509 -0.001
  0.004  0.001 -0.022 -0.001  0.827
atom   23   Tr[ns(na)] =   6.14749
    eigenvalues: 
  0.401  0.476  0.531  0.724  0.942
    eigenvectors:
  0.000  0.992  0.000  0.001  0.008
  0.006  0.000  0.994  0.000  0.000
  0.000  0.001  0.000  0.999  0.000
  0.000  0.008  0.000  0.000  0.992
  0.994  0.000  0.006  0.000  0.000
    occupations:
  0.479  0.000  0.007  0.040 -0.000
  0.000  0.530  0.000  0.000 -0.010
  0.007  0.000  0.724 -0.003 -0.000
  0.040  0.000 -0.003  0.938  0.000
 -0.000 -0.010 -0.000  0.000  0.402
N of occupied +U levels =  47.6420471
 --- exit write_ns ---

     negative rho (up, down):  0.616E+00 0.000E+00

     total cpu time spent up to now is      501.0 secs

     total energy              =   -2182.08007263 Ry
     Harris-Foulkes estimate   =   -2200.18019848 Ry
     estimated scf accuracy    <      21.38173189 Ry

     iteration #  2     ecut=    40.00 Ry     beta=0.70
     Davidson diagonalization with overlap
     ethr =  8.45E-03,  avg # of iterations =  4.1

     negative rho (up, down):  0.618E+00 0.000E+00

     total cpu time spent up to now is      803.3 secs

     total energy              =   -2097.87874336 Ry
     Harris-Foulkes estimate   =   -2293.13046157 Ry
     estimated scf accuracy    <    2594.60009025 Ry

     iteration #  3     ecut=    40.00 Ry     beta=0.70
     Davidson diagonalization with overlap
     ethr =  8.45E-03,  avg # of iterations =  5.0

     negative rho (up, down):  0.579E+00 0.000E+00

     total cpu time spent up to now is     1139.9 secs

     total energy              =   -2179.32693463 Ry
     Harris-Foulkes estimate   =   -2219.97703271 Ry
     estimated scf accuracy    <     295.59457005 Ry

     iteration #  4     ecut=    40.00 Ry     beta=0.70
     Davidson diagonalization with overlap
     ethr =  8.45E-03,  avg # of iterations =  3.0

     negative rho (up, down):  0.574E+00 0.000E+00

     total cpu time spent up to now is     1340.9 secs

     total energy              =   -2195.80088620 Ry
     Harris-Foulkes estimate   =   -2198.45577260 Ry
     estimated scf accuracy    <      14.98640874 Ry

     iteration #  5     ecut=    40.00 Ry     beta=0.70
     Davidson diagonalization with overlap
     ethr =  5.92E-03,  avg # of iterations =  1.2

     negative rho (up, down):  0.573E+00 0.000E+00

     total cpu time spent up to now is     1518.7 secs

     total energy              =   -2195.87151910 Ry
     Harris-Foulkes estimate   =   -2197.79248084 Ry
     estimated scf accuracy    <      15.09641747 Ry

     iteration #  6     ecut=    40.00 Ry     beta=0.70
     Davidson diagonalization with overlap
     ethr =  5.92E-03,  avg # of iterations =  1.0

     negative rho (up, down):  0.573E+00 0.000E+00

     total cpu time spent up to now is     1695.0 secs

     total energy              =   -2196.58151266 Ry
     Harris-Foulkes estimate   =   -2197.02190921 Ry
     estimated scf accuracy    <       2.54795341 Ry

     iteration #  7     ecut=    40.00 Ry     beta=0.70
     Davidson diagonalization with overlap
     ethr =  1.01E-03,  avg # of iterations =  4.7

     negative rho (up, down):  0.575E+00 0.000E+00

     total cpu time spent up to now is     1899.8 secs

     total energy              =   -2196.73243864 Ry
     Harris-Foulkes estimate   =   -2197.10506449 Ry
     estimated scf accuracy    <       6.25441394 Ry

     iteration #  8     ecut=    40.00 Ry     beta=0.70
     Davidson diagonalization with overlap
     ethr =  1.01E-03,  avg # of iterations =  1.0

     negative rho (up, down):  0.577E+00 0.000E+00

     total cpu time spent up to now is     2076.3 secs

     total energy              =   -2196.72811381 Ry
     Harris-Foulkes estimate   =   -2196.90870646 Ry
     estimated scf accuracy    <       1.48343273 Ry

     iteration #  9     ecut=    40.00 Ry     beta=0.70
     Davidson diagonalization with overlap
     ethr =  5.86E-04,  avg # of iterations =  1.0

     negative rho (up, down):  0.578E+00 0.000E+00

     total cpu time spent up to now is     2255.6 secs

     total energy              =   -2196.66574779 Ry
     Harris-Foulkes estimate   =   -2196.85828111 Ry
     estimated scf accuracy    <       1.61609913 Ry

     iteration # 10     ecut=    40.00 Ry     beta=0.70
     Davidson diagonalization with overlap
     ethr =  5.86E-04,  avg # of iterations =  1.4

     negative rho (up, down):  0.580E+00 0.000E+00

     total cpu time spent up to now is     2437.6 secs

     total energy              =   -2196.68690355 Ry
     Harris-Foulkes estimate   =   -2196.84713965 Ry
     estimated scf accuracy    <       1.48567076 Ry

     iteration # 11     ecut=    40.00 Ry     beta=0.70
     Davidson diagonalization with overlap
     ethr =  5.86E-04,  avg # of iterations =  2.2

     negative rho (up, down):  0.581E+00 0.000E+00

     total cpu time spent up to now is     2619.3 secs

     total energy              =   -2196.70414149 Ry
     Harris-Foulkes estimate   =   -2196.78287928 Ry
     estimated scf accuracy    <       0.69239313 Ry

     iteration # 12     ecut=    40.00 Ry     beta=0.70
     Davidson diagonalization with overlap
     ethr =  2.74E-04,  avg # of iterations =  5.4

     negative rho (up, down):  0.580E+00 0.000E+00

     total cpu time spent up to now is     2842.5 secs

     total energy              =   -2196.67776312 Ry
     Harris-Foulkes estimate   =   -2196.79472678 Ry
     estimated scf accuracy    <       0.59149535 Ry

     iteration # 13     ecut=    40.00 Ry     beta=0.70
     Davidson diagonalization with overlap
     ethr =  2.34E-04,  avg # of iterations =  1.0

     negative rho (up, down):  0.579E+00 0.000E+00

     total cpu time spent up to now is     3025.0 secs

     total energy              =   -2196.69734921 Ry
     Harris-Foulkes estimate   =   -2196.78020762 Ry
     estimated scf accuracy    <       0.68519886 Ry

     iteration # 14     ecut=    40.00 Ry     beta=0.70
     Davidson diagonalization with overlap
     ethr =  2.34E-04,  avg # of iterations =  1.0

     negative rho (up, down):  0.580E+00 0.000E+00

     total cpu time spent up to now is     3206.9 secs

     total energy              =   -2196.71212510 Ry
     Harris-Foulkes estimate   =   -2196.76864026 Ry
     estimated scf accuracy    <       0.28116089 Ry

     iteration # 15     ecut=    40.00 Ry     beta=0.70
     Davidson diagonalization with overlap
     ethr =  1.11E-04,  avg # of iterations =  4.3

     negative rho (up, down):  0.580E+00 0.000E+00

     total cpu time spent up to now is     3402.6 secs

     total energy              =   -2196.70106133 Ry
     Harris-Foulkes estimate   =   -2196.78900932 Ry
     estimated scf accuracy    <       0.89990193 Ry

     iteration # 16     ecut=    40.00 Ry     beta=0.70
     Davidson diagonalization with overlap
     ethr =  1.11E-04,  avg # of iterations =  1.3

     negative rho (up, down):  0.581E+00 0.000E+00

     total cpu time spent up to now is     3584.5 secs

     total energy              =   -2196.73890505 Ry
     Harris-Foulkes estimate   =   -2196.75183967 Ry
     estimated scf accuracy    <       0.09117392 Ry

     iteration # 17     ecut=    40.00 Ry     beta=0.70
     Davidson diagonalization with overlap
     ethr =  3.60E-05,  avg # of iterations =  3.8

     negative rho (up, down):  0.580E+00 0.000E+00

     total cpu time spent up to now is     3778.1 secs

     total energy              =   -2196.73978389 Ry
     Harris-Foulkes estimate   =   -2196.74968732 Ry
     estimated scf accuracy    <       0.05998289 Ry

     iteration # 18     ecut=    40.00 Ry     beta=0.70
     Davidson diagonalization with overlap
     ethr =  2.37E-05,  avg # of iterations =  1.1

     negative rho (up, down):  0.580E+00 0.000E+00

     total cpu time spent up to now is     3960.4 secs

     total energy              =   -2196.73811667 Ry
     Harris-Foulkes estimate   =   -2196.75263432 Ry
     estimated scf accuracy    <       0.15007768 Ry

     iteration # 19     ecut=    40.00 Ry     beta=0.70
     Davidson diagonalization with overlap
     ethr =  2.37E-05,  avg # of iterations =  1.0

     negative rho (up, down):  0.580E+00 0.000E+00

     total cpu time spent up to now is     4143.0 secs

     total energy              =   -2196.74479250 Ry
     Harris-Foulkes estimate   =   -2196.74688071 Ry
     estimated scf accuracy    <       0.02984501 Ry

     iteration # 20     ecut=    40.00 Ry     beta=0.70
     Davidson diagonalization with overlap
     ethr =  1.18E-05,  avg # of iterations =  1.0

     negative rho (up, down):  0.580E+00 0.000E+00

     total cpu time spent up to now is     4325.0 secs

     total energy              =   -2196.74438565 Ry
     Harris-Foulkes estimate   =   -2196.74718216 Ry
     estimated scf accuracy    <       0.03120072 Ry

     iteration # 21     ecut=    40.00 Ry     beta=0.70
     Davidson diagonalization with overlap
     ethr =  1.18E-05,  avg # of iterations =  1.0

     negative rho (up, down):  0.580E+00 0.000E+00

     total cpu time spent up to now is     4508.4 secs

     total energy              =   -2196.74415880 Ry
     Harris-Foulkes estimate   =   -2196.74688105 Ry
     estimated scf accuracy    <       0.02685102 Ry

     iteration # 22     ecut=    40.00 Ry     beta=0.70
     Davidson diagonalization with overlap
     ethr =  1.06E-05,  avg # of iterations =  2.4

     negative rho (up, down):  0.580E+00 0.000E+00

     total cpu time spent up to now is     4702.0 secs

     total energy              =   -2196.74189708 Ry
     Harris-Foulkes estimate   =   -2196.74974913 Ry
     estimated scf accuracy    <       0.12938830 Ry

     iteration # 23     ecut=    40.00 Ry     beta=0.70
     Davidson diagonalization with overlap
     ethr =  1.06E-05,  avg # of iterations =  2.3

     negative rho (up, down):  0.580E+00 0.000E+00

     total cpu time spent up to now is     4894.6 secs

     total energy              =   -2196.74254798 Ry
     Harris-Foulkes estimate   =   -2196.74869501 Ry
     estimated scf accuracy    <       0.05763579 Ry

     iteration # 24     ecut=    40.00 Ry     beta=0.70
     Davidson diagonalization with overlap
     ethr =  1.06E-05,  avg # of iterations =  1.0

     negative rho (up, down):  0.581E+00 0.000E+00

     total cpu time spent up to now is     5077.2 secs

     total energy              =   -2196.74494946 Ry
     Harris-Foulkes estimate   =   -2196.74668758 Ry
     estimated scf accuracy    <       0.01194181 Ry

     iteration # 25     ecut=    40.00 Ry     beta=0.70
     Davidson diagonalization with overlap
     ethr =  4.72E-06,  avg # of iterations =  1.0

     negative rho (up, down):  0.581E+00 0.000E+00

     total cpu time spent up to now is     5259.4 secs

     total energy              =   -2196.74558488 Ry
     Harris-Foulkes estimate   =   -2196.74610347 Ry
     estimated scf accuracy    <       0.00526548 Ry

     iteration # 26     ecut=    40.00 Ry     beta=0.70
     Davidson diagonalization with overlap
     ethr =  2.08E-06,  avg # of iterations =  1.6

     negative rho (up, down):  0.581E+00 0.000E+00

     total cpu time spent up to now is     5444.0 secs

     total energy              =   -2196.74576460 Ry
     Harris-Foulkes estimate   =   -2196.74591687 Ry
     estimated scf accuracy    <       0.00076763 Ry

     iteration # 27     ecut=    40.00 Ry     beta=0.70
     Davidson diagonalization with overlap
     ethr =  3.03E-07,  avg # of iterations =  2.8

     negative rho (up, down):  0.581E+00 0.000E+00

     total cpu time spent up to now is     5628.0 secs

     total energy              =   -2196.74547703 Ry
     Harris-Foulkes estimate   =   -2196.74617980 Ry
     estimated scf accuracy    <       0.00618593 Ry

     iteration # 28     ecut=    40.00 Ry     beta=0.70
     Davidson diagonalization with overlap
     ethr =  3.03E-07,  avg # of iterations =  1.0

     negative rho (up, down):  0.581E+00 0.000E+00

     total cpu time spent up to now is     5809.8 secs

     total energy              =   -2196.74557216 Ry
     Harris-Foulkes estimate   =   -2196.74615471 Ry
     estimated scf accuracy    <       0.00603670 Ry

     iteration # 29     ecut=    40.00 Ry     beta=0.70
     Davidson diagonalization with overlap
     ethr =  3.03E-07,  avg # of iterations =  1.0

     negative rho (up, down):  0.581E+00 0.000E+00

     total cpu time spent up to now is     5991.7 secs

     total energy              =   -2196.74577776 Ry
     Harris-Foulkes estimate   =   -2196.74594550 Ry
     estimated scf accuracy    <       0.00216032 Ry

     iteration # 30     ecut=    40.00 Ry     beta=0.70
     Davidson diagonalization with overlap
     ethr =  3.03E-07,  avg # of iterations =  1.0

     negative rho (up, down):  0.581E+00 0.000E+00

     total cpu time spent up to now is     6174.7 secs

     total energy              =   -2196.74580246 Ry
     Harris-Foulkes estimate   =   -2196.74591589 Ry
     estimated scf accuracy    <       0.00121858 Ry

     iteration # 31     ecut=    40.00 Ry     beta=0.70
     Davidson diagonalization with overlap
     ethr =  3.03E-07,  avg # of iterations =  1.0

     negative rho (up, down):  0.581E+00 0.000E+00

     total cpu time spent up to now is     6357.7 secs

     total energy              =   -2196.74574527 Ry
     Harris-Foulkes estimate   =   -2196.74598551 Ry
     estimated scf accuracy    <       0.00308922 Ry

     iteration # 32     ecut=    40.00 Ry     beta=0.70
     Davidson diagonalization with overlap
     ethr =  3.03E-07,  avg # of iterations =  1.0

     negative rho (up, down):  0.581E+00 0.000E+00

     total cpu time spent up to now is     6539.8 secs

     total energy              =   -2196.74580934 Ry
     Harris-Foulkes estimate   =   -2196.74592342 Ry
     estimated scf accuracy    <       0.00206264 Ry

     iteration # 33     ecut=    40.00 Ry     beta=0.70
     Davidson diagonalization with overlap
     ethr =  3.03E-07,  avg # of iterations =  1.0

     negative rho (up, down):  0.581E+00 0.000E+00

     total cpu time spent up to now is     6723.6 secs

     total energy              =   -2196.74580263 Ry
     Harris-Foulkes estimate   =   -2196.74592393 Ry
     estimated scf accuracy    <       0.00102088 Ry

     iteration # 34     ecut=    40.00 Ry     beta=0.70
     Davidson diagonalization with overlap
     ethr =  3.03E-07,  avg # of iterations =  1.0

     negative rho (up, down):  0.581E+00 0.000E+00

     total cpu time spent up to now is     6906.7 secs

     total energy              =   -2196.74581961 Ry
     Harris-Foulkes estimate   =   -2196.74590945 Ry
     estimated scf accuracy    <       0.00065285 Ry

     iteration # 35     ecut=    40.00 Ry     beta=0.70
     Davidson diagonalization with overlap
     ethr =  2.58E-07,  avg # of iterations =  1.0

     negative rho (up, down):  0.581E+00 0.000E+00

     total cpu time spent up to now is     7088.9 secs

     total energy              =   -2196.74576329 Ry
     Harris-Foulkes estimate   =   -2196.74595953 Ry
     estimated scf accuracy    <       0.00186389 Ry

     iteration # 36     ecut=    40.00 Ry     beta=0.70
     Davidson diagonalization with overlap
     ethr =  2.58E-07,  avg # of iterations =  1.0

     negative rho (up, down):  0.581E+00 0.000E+00

     total cpu time spent up to now is     7271.6 secs

     total energy              =   -2196.74578987 Ry
     Harris-Foulkes estimate   =   -2196.74594624 Ry
     estimated scf accuracy    <       0.00164921 Ry

     iteration # 37     ecut=    40.00 Ry     beta=0.70
     Davidson diagonalization with overlap
     ethr =  2.58E-07,  avg # of iterations =  1.0

     negative rho (up, down):  0.581E+00 0.000E+00

     total cpu time spent up to now is     7453.0 secs

     total energy              =   -2196.74585117 Ry
     Harris-Foulkes estimate   =   -2196.74588439 Ry
     estimated scf accuracy    <       0.00020922 Ry

     iteration # 38     ecut=    40.00 Ry     beta=0.70
     Davidson diagonalization with overlap
     ethr =  8.27E-08,  avg # of iterations =  1.0

     negative rho (up, down):  0.581E+00 0.000E+00

     total cpu time spent up to now is     7634.5 secs

     total energy              =   -2196.74583679 Ry
     Harris-Foulkes estimate   =   -2196.74589663 Ry
     estimated scf accuracy    <       0.00065059 Ry

     iteration # 39     ecut=    40.00 Ry     beta=0.70
     Davidson diagonalization with overlap
     ethr =  8.27E-08,  avg # of iterations =  1.0

     negative rho (up, down):  0.581E+00 0.000E+00

     total cpu time spent up to now is     7816.1 secs

     total energy              =   -2196.74580822 Ry
     Harris-Foulkes estimate   =   -2196.74591674 Ry
     estimated scf accuracy    <       0.00143759 Ry

     iteration # 40     ecut=    40.00 Ry     beta=0.70
     Davidson diagonalization with overlap
     ethr =  8.27E-08,  avg # of iterations =  1.0

     negative rho (up, down):  0.581E+00 0.000E+00

     total cpu time spent up to now is     7998.6 secs

     total energy              =   -2196.74580314 Ry
     Harris-Foulkes estimate   =   -2196.74593270 Ry
     estimated scf accuracy    <       0.00156855 Ry

     iteration # 41     ecut=    40.00 Ry     beta=0.70
     Davidson diagonalization with overlap
     ethr =  8.27E-08,  avg # of iterations =  1.0

     negative rho (up, down):  0.581E+00 0.000E+00

     total cpu time spent up to now is     8180.7 secs

     total energy              =   -2196.74581625 Ry
     Harris-Foulkes estimate   =   -2196.74590783 Ry
     estimated scf accuracy    <       0.00103915 Ry

     iteration # 42     ecut=    40.00 Ry     beta=0.70
     Davidson diagonalization with overlap
     ethr =  8.27E-08,  avg # of iterations =  1.0

     negative rho (up, down):  0.581E+00 0.000E+00

     total cpu time spent up to now is     8363.1 secs

     total energy              =   -2196.74572736 Ry
     Harris-Foulkes estimate   =   -2196.74601066 Ry
     estimated scf accuracy    <       0.00542951 Ry

     iteration # 43     ecut=    40.00 Ry     beta=0.70
     Davidson diagonalization with overlap
     ethr =  8.27E-08,  avg # of iterations =  1.1

     negative rho (up, down):  0.581E+00 0.000E+00

     total cpu time spent up to now is     8546.7 secs

     total energy              =   -2196.74582112 Ry
     Harris-Foulkes estimate   =   -2196.74591019 Ry
     estimated scf accuracy    <       0.00072785 Ry

     iteration # 44     ecut=    40.00 Ry     beta=0.70
     Davidson diagonalization with overlap
     ethr =  8.27E-08,  avg # of iterations =  1.1

     negative rho (up, down):  0.581E+00 0.000E+00

     total cpu time spent up to now is     8731.0 secs

     total energy              =   -2196.74583163 Ry
     Harris-Foulkes estimate   =   -2196.74590723 Ry
     estimated scf accuracy    <       0.00066972 Ry

     iteration # 45     ecut=    40.00 Ry     beta=0.70
     Davidson diagonalization with overlap
     ethr =  8.27E-08,  avg # of iterations =  1.0

     negative rho (up, down):  0.581E+00 0.000E+00

     total cpu time spent up to now is     8912.8 secs

     total energy              =   -2196.74584256 Ry
     Harris-Foulkes estimate   =   -2196.74589426 Ry
     estimated scf accuracy    <       0.00050653 Ry

     iteration # 46     ecut=    40.00 Ry     beta=0.70
     Davidson diagonalization with overlap
     ethr =  8.27E-08,  avg # of iterations =  1.0

     negative rho (up, down):  0.581E+00 0.000E+00

     total cpu time spent up to now is     9095.1 secs

     total energy              =   -2196.74584321 Ry
     Harris-Foulkes estimate   =   -2196.74588495 Ry
     estimated scf accuracy    <       0.00032025 Ry

     iteration # 47     ecut=    40.00 Ry     beta=0.70
     Davidson diagonalization with overlap
     ethr =  8.27E-08,  avg # of iterations =  1.0

     negative rho (up, down):  0.581E+00 0.000E+00

     total cpu time spent up to now is     9278.0 secs

     total energy              =   -2196.74580632 Ry
     Harris-Foulkes estimate   =   -2196.74592377 Ry
     estimated scf accuracy    <       0.00099531 Ry

     iteration # 48     ecut=    40.00 Ry     beta=0.70
     Davidson diagonalization with overlap
     ethr =  8.27E-08,  avg # of iterations =  1.0

     negative rho (up, down):  0.581E+00 0.000E+00

     total cpu time spent up to now is     9460.8 secs

     total energy              =   -2196.74573204 Ry
     Harris-Foulkes estimate   =   -2196.74600274 Ry
     estimated scf accuracy    <       0.00362290 Ry

     iteration # 49     ecut=    40.00 Ry     beta=0.70
     Davidson diagonalization with overlap
     ethr =  8.27E-08,  avg # of iterations =  1.0

     negative rho (up, down):  0.581E+00 0.000E+00

     total cpu time spent up to now is     9646.2 secs

     total energy              =   -2196.74582968 Ry
     Harris-Foulkes estimate   =   -2196.74590224 Ry
     estimated scf accuracy    <       0.00080301 Ry

     iteration # 50     ecut=    40.00 Ry     beta=0.70
     Davidson diagonalization with overlap
     ethr =  8.27E-08,  avg # of iterations =  1.0

     negative rho (up, down):  0.581E+00 0.000E+00

     total cpu time spent up to now is     9830.1 secs

     total energy              =   -2196.74582890 Ry
     Harris-Foulkes estimate   =   -2196.74590127 Ry
     estimated scf accuracy    <       0.00088010 Ry

     iteration # 51     ecut=    40.00 Ry     beta=0.70
     Davidson diagonalization with overlap
     ethr =  8.27E-08,  avg # of iterations =  1.0

     negative rho (up, down):  0.581E+00 0.000E+00

     total cpu time spent up to now is    10013.3 secs

     total energy              =   -2196.74578973 Ry
     Harris-Foulkes estimate   =   -2196.74594707 Ry
     estimated scf accuracy    <       0.00202583 Ry

     iteration # 52     ecut=    40.00 Ry     beta=0.70
     Davidson diagonalization with overlap
     ethr =  8.27E-08,  avg # of iterations =  1.0

     negative rho (up, down):  0.581E+00 0.000E+00

     total cpu time spent up to now is    10198.3 secs

     total energy              =   -2196.74582882 Ry
     Harris-Foulkes estimate   =   -2196.74590698 Ry
     estimated scf accuracy    <       0.00145361 Ry

     iteration # 53     ecut=    40.00 Ry     beta=0.70
     Davidson diagonalization with overlap
     ethr =  8.27E-08,  avg # of iterations =  1.0

     negative rho (up, down):  0.581E+00 0.000E+00

     total cpu time spent up to now is    10382.3 secs

     total energy              =   -2196.74583145 Ry
     Harris-Foulkes estimate   =   -2196.74590263 Ry
     estimated scf accuracy    <       0.00060375 Ry

     iteration # 54     ecut=    40.00 Ry     beta=0.70
     Davidson diagonalization with overlap
     ethr =  8.27E-08,  avg # of iterations =  1.0

     negative rho (up, down):  0.581E+00 0.000E+00

     total cpu time spent up to now is    10565.1 secs

     total energy              =   -2196.74583186 Ry
     Harris-Foulkes estimate   =   -2196.74590161 Ry
     estimated scf accuracy    <       0.00058097 Ry

     iteration # 55     ecut=    40.00 Ry     beta=0.70
     Davidson diagonalization with overlap
     ethr =  8.27E-08,  avg # of iterations =  1.0

     negative rho (up, down):  0.581E+00 0.000E+00

     total cpu time spent up to now is    10747.6 secs

     total energy              =   -2196.74577686 Ry
     Harris-Foulkes estimate   =   -2196.74594581 Ry
     estimated scf accuracy    <       0.00160405 Ry

     iteration # 56     ecut=    40.00 Ry     beta=0.70
     Davidson diagonalization with overlap
     ethr =  8.27E-08,  avg # of iterations =  1.5

     negative rho (up, down):  0.581E+00 0.000E+00

     total cpu time spent up to now is    10934.5 secs

     total energy              =   -2196.74578698 Ry
     Harris-Foulkes estimate   =   -2196.74594777 Ry
     estimated scf accuracy    <       0.00161260 Ry

     iteration # 57     ecut=    40.00 Ry     beta=0.70
     Davidson diagonalization with overlap
     ethr =  8.27E-08,  avg # of iterations =  1.0

     negative rho (up, down):  0.581E+00 0.000E+00

     total cpu time spent up to now is    11118.7 secs

     total energy              =   -2196.74583718 Ry
     Harris-Foulkes estimate   =   -2196.74590100 Ry
     estimated scf accuracy    <       0.00060421 Ry

     iteration # 58     ecut=    40.00 Ry     beta=0.70
     Davidson diagonalization with overlap
     ethr =  8.27E-08,  avg # of iterations =  1.0

     negative rho (up, down):  0.581E+00 0.000E+00

     total cpu time spent up to now is    11301.7 secs

     total energy              =   -2196.74582498 Ry
     Harris-Foulkes estimate   =   -2196.74590550 Ry
     estimated scf accuracy    <       0.00094195 Ry

     iteration # 59     ecut=    40.00 Ry     beta=0.70
     Davidson diagonalization with overlap
     ethr =  8.27E-08,  avg # of iterations =  1.0

     negative rho (up, down):  0.581E+00 0.000E+00

     total cpu time spent up to now is    11486.6 secs

     total energy              =   -2196.74580092 Ry
     Harris-Foulkes estimate   =   -2196.74592221 Ry
     estimated scf accuracy    <       0.00151907 Ry

     iteration # 60     ecut=    40.00 Ry     beta=0.70
     Davidson diagonalization with overlap
     ethr =  8.27E-08,  avg # of iterations =  1.0

     negative rho (up, down):  0.581E+00 0.000E+00

     total cpu time spent up to now is    11670.2 secs

     total energy              =   -2196.74578105 Ry
     Harris-Foulkes estimate   =   -2196.74595427 Ry
     estimated scf accuracy    <       0.00219496 Ry

     iteration # 61     ecut=    40.00 Ry     beta=0.70
     Davidson diagonalization with overlap
     ethr =  8.27E-08,  avg # of iterations =  1.0

     negative rho (up, down):  0.581E+00 0.000E+00

     total cpu time spent up to now is    11854.3 secs

     total energy              =   -2196.74579613 Ry
     Harris-Foulkes estimate   =   -2196.74592350 Ry
     estimated scf accuracy    <       0.00146842 Ry

     iteration # 62     ecut=    40.00 Ry     beta=0.70
     Davidson diagonalization with overlap
     ethr =  8.27E-08,  avg # of iterations =  1.3

     negative rho (up, down):  0.581E+00 0.000E+00

     total cpu time spent up to now is    12040.0 secs

     total energy              =   -2196.74567191 Ry
     Harris-Foulkes estimate   =   -2196.74606371 Ry
     estimated scf accuracy    <       0.00737306 Ry

     iteration # 63     ecut=    40.00 Ry     beta=0.70
     Davidson diagonalization with overlap
     ethr =  8.27E-08,  avg # of iterations =  1.8

     negative rho (up, down):  0.581E+00 0.000E+00

     total cpu time spent up to now is    12228.4 secs

     total energy              =   -2196.74576113 Ry
     Harris-Foulkes estimate   =   -2196.74596140 Ry
     estimated scf accuracy    <       0.00175815 Ry

     iteration # 64     ecut=    40.00 Ry     beta=0.70
     Davidson diagonalization with overlap
     ethr =  8.27E-08,  avg # of iterations =  2.0

     negative rho (up, down):  0.581E+00 0.000E+00

     total cpu time spent up to now is    12418.8 secs

     total energy              =   -2196.74574990 Ry
     Harris-Foulkes estimate   =   -2196.74598788 Ry
     estimated scf accuracy    <       0.00227914 Ry

     iteration # 65     ecut=    40.00 Ry     beta=0.70
     Davidson diagonalization with overlap
     ethr =  8.27E-08,  avg # of iterations =  1.5

     negative rho (up, down):  0.581E+00 0.000E+00

     total cpu time spent up to now is    12607.8 secs

     total energy              =   -2196.74579496 Ry
     Harris-Foulkes estimate   =   -2196.74593867 Ry
     estimated scf accuracy    <       0.00140871 Ry

     iteration # 66     ecut=    40.00 Ry     beta=0.70
     Davidson diagonalization with overlap
     ethr =  8.27E-08,  avg # of iterations =  1.0

     negative rho (up, down):  0.581E+00 0.000E+00

     total cpu time spent up to now is    12791.7 secs

     total energy              =   -2196.74581590 Ry
     Harris-Foulkes estimate   =   -2196.74590588 Ry
     estimated scf accuracy    <       0.00073916 Ry

     iteration # 67     ecut=    40.00 Ry     beta=0.70
     Davidson diagonalization with overlap
     ethr =  8.27E-08,  avg # of iterations =  1.0

     negative rho (up, down):  0.581E+00 0.000E+00

     total cpu time spent up to now is    12976.2 secs

     total energy              =   -2196.74572150 Ry
     Harris-Foulkes estimate   =   -2196.74600040 Ry
     estimated scf accuracy    <       0.00276981 Ry

     iteration # 68     ecut=    40.00 Ry     beta=0.70
     Davidson diagonalization with overlap
     ethr =  8.27E-08,  avg # of iterations =  2.0

     negative rho (up, down):  0.581E+00 0.000E+00

     total cpu time spent up to now is    13167.4 secs

     total energy              =   -2196.74553362 Ry
     Harris-Foulkes estimate   =   -2196.74618457 Ry
     estimated scf accuracy    <       0.00879183 Ry

     iteration # 69     ecut=    40.00 Ry     beta=0.70
     Davidson diagonalization with overlap
     ethr =  8.27E-08,  avg # of iterations =  1.4

     negative rho (up, down):  0.581E+00 0.000E+00

     total cpu time spent up to now is    13358.9 secs

     total energy              =   -2196.74574175 Ry
     Harris-Foulkes estimate   =   -2196.74597318 Ry
     estimated scf accuracy    <       0.00254394 Ry

     iteration # 70     ecut=    40.00 Ry     beta=0.70
     Davidson diagonalization with overlap
     ethr =  8.27E-08,  avg # of iterations =  1.5

     negative rho (up, down):  0.581E+00 0.000E+00

     total cpu time spent up to now is    13547.8 secs

     total energy              =   -2196.74570976 Ry
     Harris-Foulkes estimate   =   -2196.74599251 Ry
     estimated scf accuracy    <       0.00345392 Ry

     iteration # 71     ecut=    40.00 Ry     beta=0.70
     Davidson diagonalization with overlap
     ethr =  8.27E-08,  avg # of iterations =  2.0

     negative rho (up, down):  0.581E+00 0.000E+00

     total cpu time spent up to now is    13737.6 secs

     total energy              =   -2196.74554396 Ry
     Harris-Foulkes estimate   =   -2196.74618161 Ry
     estimated scf accuracy    <       0.00813784 Ry

     iteration # 72     ecut=    40.00 Ry     beta=0.70
     Davidson diagonalization with overlap
     ethr =  8.27E-08,  avg # of iterations =  2.0

     negative rho (up, down):  0.581E+00 0.000E+00

     total cpu time spent up to now is    13926.2 secs

     total energy              =   -2196.74568192 Ry
     Harris-Foulkes estimate   =   -2196.74604873 Ry
     estimated scf accuracy    <       0.00694488 Ry

     iteration # 73     ecut=    40.00 Ry     beta=0.70
     Davidson diagonalization with overlap
     ethr =  8.27E-08,  avg # of iterations =  2.0

     negative rho (up, down):  0.581E+00 0.000E+00

     total cpu time spent up to now is    14113.9 secs

     total energy              =   -2196.74573804 Ry
     Harris-Foulkes estimate   =   -2196.74598826 Ry
     estimated scf accuracy    <       0.00224614 Ry

     iteration # 74     ecut=    40.00 Ry     beta=0.70
     Davidson diagonalization with overlap
     ethr =  8.27E-08,  avg # of iterations =  2.0

     negative rho (up, down):  0.581E+00 0.000E+00

     total cpu time spent up to now is    14301.6 secs

     total energy              =   -2196.74575604 Ry
     Harris-Foulkes estimate   =   -2196.74596404 Ry
     estimated scf accuracy    <       0.00179610 Ry

     iteration # 75     ecut=    40.00 Ry     beta=0.70
     Davidson diagonalization with overlap
     ethr =  8.27E-08,  avg # of iterations =  2.0

     negative rho (up, down):  0.581E+00 0.000E+00

     total cpu time spent up to now is    14491.8 secs

     total energy              =   -2196.74557160 Ry
     Harris-Foulkes estimate   =   -2196.74609813 Ry
     estimated scf accuracy    <       0.00483588 Ry

     iteration # 76     ecut=    40.00 Ry     beta=0.70
     Davidson diagonalization with overlap
     ethr =  8.27E-08,  avg # of iterations =  2.0

     negative rho (up, down):  0.581E+00 0.000E+00

     total cpu time spent up to now is    14683.4 secs

     total energy              =   -2196.74545049 Ry
     Harris-Foulkes estimate   =   -2196.74626915 Ry
     estimated scf accuracy    <       0.00838842 Ry

     iteration # 77     ecut=    40.00 Ry     beta=0.70
     Davidson diagonalization with overlap
     ethr =  8.27E-08,  avg # of iterations =  2.0

     negative rho (up, down):  0.581E+00 0.000E+00

     total cpu time spent up to now is    14874.3 secs

     total energy              =   -2196.74562539 Ry
     Harris-Foulkes estimate   =   -2196.74611235 Ry
     estimated scf accuracy    <       0.00498477 Ry

     iteration # 78     ecut=    40.00 Ry     beta=0.70
     Davidson diagonalization with overlap
     ethr =  8.27E-08,  avg # of iterations =  2.0

     negative rho (up, down):  0.581E+00 0.000E+00

     total cpu time spent up to now is    15064.2 secs

     total energy              =   -2196.74561902 Ry
     Harris-Foulkes estimate   =   -2196.74607315 Ry
     estimated scf accuracy    <       0.00553725 Ry

     iteration # 79     ecut=    40.00 Ry     beta=0.70
     Davidson diagonalization with overlap
     ethr =  8.27E-08,  avg # of iterations =  2.0

     negative rho (up, down):  0.581E+00 0.000E+00

     total cpu time spent up to now is    15252.4 secs

     total energy              =   -2196.74553408 Ry
     Harris-Foulkes estimate   =   -2196.74613450 Ry
     estimated scf accuracy    <       0.00746707 Ry

     iteration # 80     ecut=    40.00 Ry     beta=0.70
     Davidson diagonalization with overlap
     ethr =  8.27E-08,  avg # of iterations =  2.0

     negative rho (up, down):  0.581E+00 0.000E+00

     total cpu time spent up to now is    15443.8 secs

     total energy              =   -2196.74546009 Ry
     Harris-Foulkes estimate   =   -2196.74626518 Ry
     estimated scf accuracy    <       0.01016255 Ry

     iteration # 81     ecut=    40.00 Ry     beta=0.70
     Davidson diagonalization with overlap
     ethr =  8.27E-08,  avg # of iterations =  2.0

     negative rho (up, down):  0.581E+00 0.000E+00

     total cpu time spent up to now is    15633.7 secs

     total energy              =   -2196.74559148 Ry
     Harris-Foulkes estimate   =   -2196.74607899 Ry
     estimated scf accuracy    <       0.00563505 Ry

     iteration # 82     ecut=    40.00 Ry     beta=0.70
     Davidson diagonalization with overlap
     ethr =  8.27E-08,  avg # of iterations =  2.0

     negative rho (up, down):  0.581E+00 0.000E+00

     total cpu time spent up to now is    15825.0 secs

     total energy              =   -2196.74520790 Ry
     Harris-Foulkes estimate   =   -2196.74651064 Ry
     estimated scf accuracy    <       0.02437499 Ry

     iteration # 83     ecut=    40.00 Ry     beta=0.70
     Davidson diagonalization with overlap
     ethr =  8.27E-08,  avg # of iterations =  2.0

     negative rho (up, down):  0.581E+00 0.000E+00

     total cpu time spent up to now is    16019.1 secs

     total energy              =   -2196.74528076 Ry
     Harris-Foulkes estimate   =   -2196.74633854 Ry
     estimated scf accuracy    <       0.00938170 Ry

     iteration # 84     ecut=    40.00 Ry     beta=0.70
     Davidson diagonalization with overlap
     ethr =  8.27E-08,  avg # of iterations =  2.4

     negative rho (up, down):  0.581E+00 0.000E+00

     total cpu time spent up to now is    16219.2 secs

     total energy              =   -2196.74495874 Ry
     Harris-Foulkes estimate   =   -2196.74674672 Ry
     estimated scf accuracy    <       0.01730754 Ry

     iteration # 85     ecut=    40.00 Ry     beta=0.70
     Davidson diagonalization with overlap
     ethr =  8.27E-08,  avg # of iterations =  2.0

     negative rho (up, down):  0.581E+00 0.000E+00

     total cpu time spent up to now is    16417.8 secs

     total energy              =   -2196.74521705 Ry
     Harris-Foulkes estimate   =   -2196.74649571 Ry
     estimated scf accuracy    <       0.01292459 Ry

     iteration # 86     ecut=    40.00 Ry     beta=0.70
     Davidson diagonalization with overlap
     ethr =  8.27E-08,  avg # of iterations =  2.0

     negative rho (up, down):  0.581E+00 0.000E+00

     total cpu time spent up to now is    16611.4 secs

     total energy              =   -2196.74555902 Ry
     Harris-Foulkes estimate   =   -2196.74611578 Ry
     estimated scf accuracy    <       0.00505088 Ry

     iteration # 87     ecut=    40.00 Ry     beta=0.70
     Davidson diagonalization with overlap
     ethr =  8.27E-08,  avg # of iterations =  2.0

     negative rho (up, down):  0.581E+00 0.000E+00

     total cpu time spent up to now is    16802.8 secs

     total energy              =   -2196.74524289 Ry
     Harris-Foulkes estimate   =   -2196.74640879 Ry
     estimated scf accuracy    <       0.01128713 Ry

     iteration # 88     ecut=    40.00 Ry     beta=0.70
     Davidson diagonalization with overlap
     ethr =  8.27E-08,  avg # of iterations =  2.0

     negative rho (up, down):  0.581E+00 0.000E+00

     total cpu time spent up to now is    17001.3 secs

     total energy              =   -2196.74431423 Ry
     Harris-Foulkes estimate   =   -2196.74729105 Ry
     estimated scf accuracy    <       0.03980733 Ry

     iteration # 89     ecut=    40.00 Ry     beta=0.70
     Davidson diagonalization with overlap
     ethr =  8.27E-08,  avg # of iterations =  2.0

     negative rho (up, down):  0.581E+00 0.000E+00

     total cpu time spent up to now is    17199.6 secs

     total energy              =   -2196.74510927 Ry
     Harris-Foulkes estimate   =   -2196.74649389 Ry
     estimated scf accuracy    <       0.01592374 Ry

     iteration # 90     ecut=    40.00 Ry     beta=0.70
     Davidson diagonalization with overlap
     ethr =  8.27E-08,  avg # of iterations =  2.0

     negative rho (up, down):  0.581E+00 0.000E+00

     total cpu time spent up to now is    17392.7 secs

     total energy              =   -2196.74479420 Ry
     Harris-Foulkes estimate   =   -2196.74666399 Ry
     estimated scf accuracy    <       0.02185542 Ry

     iteration # 91     ecut=    40.00 Ry     beta=0.70
     Davidson diagonalization with overlap
     ethr =  8.27E-08,  avg # of iterations =  2.0

     negative rho (up, down):  0.581E+00 0.000E+00

     total cpu time spent up to now is    17594.0 secs

     total energy              =   -2196.74331189 Ry
     Harris-Foulkes estimate   =   -2196.74824411 Ry
     estimated scf accuracy    <       0.06279808 Ry

     iteration # 92     ecut=    40.00 Ry     beta=0.70
     Davidson diagonalization with overlap
     ethr =  8.27E-08,  avg # of iterations =  3.6

     negative rho (up, down):  0.581E+00 0.000E+00

     total cpu time spent up to now is    17810.4 secs

     total energy              =   -2196.74388834 Ry
     Harris-Foulkes estimate   =   -2196.74781805 Ry
     estimated scf accuracy    <       0.07558751 Ry

     iteration # 93     ecut=    40.00 Ry     beta=0.70
     Davidson diagonalization with overlap
     ethr =  8.27E-08,  avg # of iterations =  4.7

     negative rho (up, down):  0.581E+00 0.000E+00

     total cpu time spent up to now is    18034.7 secs

     total energy              =   -2196.74468774 Ry
     Harris-Foulkes estimate   =   -2196.74696415 Ry
     estimated scf accuracy    <       0.02183759 Ry

     iteration # 94     ecut=    40.00 Ry     beta=0.70
     Davidson diagonalization with overlap
     ethr =  8.27E-08,  avg # of iterations =  2.6

     negative rho (up, down):  0.581E+00 0.000E+00

     total cpu time spent up to now is    18234.9 secs

     total energy              =   -2196.74519576 Ry
     Harris-Foulkes estimate   =   -2196.74644774 Ry
     estimated scf accuracy    <       0.01133135 Ry

     iteration # 95     ecut=    40.00 Ry     beta=0.70
     Davidson diagonalization with overlap
     ethr =  8.27E-08,  avg # of iterations =  3.5

     negative rho (up, down):  0.581E+00 0.000E+00

     total cpu time spent up to now is    18442.0 secs

     total energy              =   -2196.74439186 Ry
     Harris-Foulkes estimate   =   -2196.74696011 Ry
     estimated scf accuracy    <       0.02301877 Ry

     iteration # 96     ecut=    40.00 Ry     beta=0.70
     Davidson diagonalization with overlap
     ethr =  8.27E-08,  avg # of iterations =  3.6

     negative rho (up, down):  0.581E+00 0.000E+00

     total cpu time spent up to now is    18660.0 secs

     total energy              =   -2196.74324036 Ry
     Harris-Foulkes estimate   =   -2196.74827675 Ry
     estimated scf accuracy    <       0.05036601 Ry

     iteration # 97     ecut=    40.00 Ry     beta=0.70
     Davidson diagonalization with overlap
     ethr =  8.27E-08,  avg # of iterations =  3.2

     negative rho (up, down):  0.581E+00 0.000E+00

     total cpu time spent up to now is    18873.5 secs

     total energy              =   -2196.74360713 Ry
     Harris-Foulkes estimate   =   -2196.74815658 Ry
     estimated scf accuracy    <       0.04550702 Ry

     iteration # 98     ecut=    40.00 Ry     beta=0.70
     Davidson diagonalization with overlap
     ethr =  8.27E-08,  avg # of iterations =  3.0

     negative rho (up, down):  0.581E+00 0.000E+00

     total cpu time spent up to now is    19082.5 secs

     total energy              =   -2196.74355786 Ry
     Harris-Foulkes estimate   =   -2196.74776112 Ry
     estimated scf accuracy    <       0.05336725 Ry

     iteration # 99     ecut=    40.00 Ry     beta=0.70
     Davidson diagonalization with overlap
     ethr =  8.27E-08,  avg # of iterations =  2.9

     negative rho (up, down):  0.581E+00 0.000E+00

     total cpu time spent up to now is    19291.3 secs

     total energy              =   -2196.74293258 Ry
     Harris-Foulkes estimate   =   -2196.74822667 Ry
     estimated scf accuracy    <       0.06358209 Ry

     iteration #100     ecut=    40.00 Ry     beta=0.70
     Davidson diagonalization with overlap
     ethr =  8.27E-08,  avg # of iterations =  3.7

     negative rho (up, down):  0.581E+00 0.000E+00

     total cpu time spent up to now is    19511.2 secs

     total energy              =   -2196.74244239 Ry
     Harris-Foulkes estimate   =   -2196.74925875 Ry
     estimated scf accuracy    <       0.08425649 Ry

     End of self-consistent calculation

     convergence NOT achieved after 100 iterations: stopping

     init_run     :    112.46s CPU    115.17s WALL (       1 calls)
     electrons    :  18708.51s CPU  19394.50s WALL (       1 calls)

     Called by init_run:
     wfcinit      :     39.75s CPU     40.83s WALL (       1 calls)
     potinit      :      7.39s CPU      7.53s WALL (       1 calls)

     Called by electrons:
     c_bands      :  10312.70s CPU  10755.63s WALL (     100 calls)
     sum_band     :   3595.71s CPU   3745.43s WALL (     100 calls)
     v_of_rho     :    117.87s CPU    132.08s WALL (     101 calls)
     newd         :   4650.13s CPU   4664.76s WALL (     101 calls)
     mix_rho      :     24.26s CPU     25.37s WALL (     100 calls)

     Called by c_bands:
     init_us_2    :     20.58s CPU     20.81s WALL (     606 calls)
     cegterg      :  10180.96s CPU  10581.32s WALL (     300 calls)

     Called by *egterg:
     h_psi        :   5959.18s CPU   6258.04s WALL (     887 calls)
     s_psi        :    555.95s CPU    562.33s WALL (     890 calls)
     g_psi        :     12.05s CPU     12.03s WALL (     584 calls)
     cdiaghg      :    995.21s CPU    997.42s WALL (     884 calls)

     Called by h_psi:
     add_vuspsi   :    556.01s CPU    563.01s WALL (     887 calls)
     vhpsi        :    564.56s CPU    575.81s WALL (     887 calls)

     General routines
     calbec       :   1225.38s CPU   1241.80s WALL (    2377 calls)
     fft          :    121.19s CPU    134.75s WALL (    1614 calls)
     ffts         :      1.69s CPU      1.75s WALL (     201 calls)
     fftw         :   3495.98s CPU   3882.84s WALL (  574470 calls)
     interpolate  :     16.31s CPU     16.69s WALL (     201 calls)
     davcio       :      0.05s CPU     11.48s WALL (     612 calls)

     Parallel routines
     fft_scatter  :   1597.99s CPU   1991.95s WALL (  576285 calls)
     Hubbard U routines
     new_ns       :    135.18s CPU    143.00s WALL (     100 calls)
     vhpsi        :    564.56s CPU    575.81s WALL (     887 calls)

     PWSCF        :     5h13m CPU        5h25m WALL


   This run was terminated on:  10:39:12  30May2014            

=------------------------------------------------------------------------------=
   JOB DONE.
=------------------------------------------------------------------------------=
STOP 1
STOP 1
STOP 1
STOP 1
STOP 1
STOP 1
STOP 1
STOP 1
STOP 1
STOP 1
STOP 1
STOP 1
STOP 1
STOP 1
STOP 1
STOP 1
--------------------------------------------------------------------------
mpirun noticed that the job aborted, but has no info as to the process
that caused that situation.
--------------------------------------------------------------------------
---------------------------------------
Running PBS batch system epilogue script
Job id: 373290.audhumbla.fysik.dtu.dk
Username: zhonxu
Groupname: campgst
Jobname: RuO2/Eads-2-layers/OOH-U-0.0
Sessionid: 27663
Resources limits: neednodes=2:ppn=8:xeon8,nodes=2:ppn=8:xeon8,walltime=48:00:00
Resources used: cput=86:40:01,mem=17818268kb,vmem=21532412kb,walltime=05:25:31
Queuename: verylong
Accounting:
This job has allocated the following 16 nodes:
c065 c065 c065 c065 c065 c065 c065 c065 c049 c049 c049 c049 c049 c049 c049 c049
Finished epilogue job 373290.audhumbla.fysik.dtu.dk for zhonxu
