
     Program PWSCF v.5.0.2 (svn rev. 9656) starts on  1Apr2014 at  9: 8:25 

     This program is part of the open-source Quantum ESPRESSO suite
     for quantum simulation of materials; please cite
         "P. Giannozzi et al., J. Phys.:Condens. Matter 21 395502 (2009);
          URL http://www.quantum-espresso.org", 
     in publications or presentations arising from this work. More details at
     http://www.quantum-espresso.org/quote.php

     Parallel version (MPI), running on    16 processors
     R & G space division:  proc/nbgrp/npool/nimage =      16

     Current dimensions of program PWSCF are:
     Max number of different atomic species (ntypx) = 10
     Max number of k-points (npk) =  40000
     Max angular momentum in pseudopotentials (lmaxx) =  3
     Reading input from pwscf.in
Warning: card &CELL ignored
Warning: card / ignored

     Subspace diagonalization in iterative solution of the eigenvalue problem:
     a serial algorithm will be used


     Parallelization info
     --------------------
     sticks:   dense  smooth     PW     G-vecs:    dense   smooth      PW
     Min         362     116     32                85908    15544    2296
     Max         363     117     33                85921    15579    2307
     Sum        5803    1869    517              1374641   249013   36807



     bravais-lattice index     =            0
     lattice parameter (alat)  =      12.0187  a.u.
     unit-cell volume          =    7280.5819 (a.u.)^3
     number of atoms/cell      =           31
     number of atomic types    =            3
     number of electrons       =       238.00
     number of Kohn-Sham states=          357
     kinetic-energy cutoff     =      40.0000  Ry
     charge density cutoff     =     500.0000  Ry
     convergence threshold     =      1.0E-06
     mixing beta               =       0.7000
     number of iterations used =            8  plain     mixing
     Exchange-correlation      = SLA  PW   PBE  PBE ( 1 4 3 4 0)
     EXX-fraction              =        0.00
     nstep                     =           50


     celldm(1)=  12.018658  celldm(2)=   0.000000  celldm(3)=   0.000000
     celldm(4)=   0.000000  celldm(5)=   0.000000  celldm(6)=   0.000000

     crystal axes: (cart. coord. in units of alat)
               a(1) = (   1.000000   0.000000   0.000000 )  
               a(2) = (   0.000000   1.009517   0.000000 )  
               a(3) = (   0.000000   0.000000   4.154171 )  

     reciprocal axes: (cart. coord. in units 2 pi/alat)
               b(1) = (  1.000000  0.000000  0.000000 )  
               b(2) = (  0.000000  0.990572  0.000000 )  
               b(3) = (  0.000000  0.000000  0.240722 )  


     PseudoPot. # 1 for O  read from file:
     /home/camp/zhonxu/pseudo/o_pbe_v1.01.uspp.F.UPF
     MD5 check sum: 2bcb18d16ea4b960afae9ec6d52f22d2
     Pseudo is Ultrasoft + core correction, Zval =  6.0
     Generated by new atomic code, or converted to UPF format
     Using radial grid of  737 points,  5 beta functions with: 
                l(1) =   0
                l(2) =   0
                l(3) =   1
                l(4) =   1
                l(5) =   2
     Q(r) pseudized with  8 coefficients,  rinner =    0.900   0.900   0.900
                                                       0.900   0.900

     PseudoPot. # 2 for Ir read from file:
     /home/camp/zhonxu/pseudo/ir_pbe_v1.uspp.F.UPF
     MD5 check sum: abf987a9674477536ede83817f8f8b70
     Pseudo is Ultrasoft + core correction, Zval = 15.0
     Generated by new atomic code, or converted to UPF format
     Using radial grid of  983 points,  7 beta functions with: 
                l(1) =   0
                l(2) =   0
                l(3) =   1
                l(4) =   1
                l(5) =   1
                l(6) =   2
                l(7) =   2
     Q(r) pseudized with  8 coefficients,  rinner =    1.350   1.350   1.350
                                                       1.350   1.350

     PseudoPot. # 3 for H  read from file:
     /home/camp/zhonxu/pseudo/h_pbe_v1.uspp.F.UPF
     MD5 check sum: 3408e3ff4ec8b0a4e358431e7e038a48
     Pseudo is Ultrasoft, Zval =  1.0
     Generated by new atomic code, or converted to UPF format
     Using radial grid of  615 points,  2 beta functions with: 
                l(1) =   0
                l(2) =   0
     Q(r) pseudized with  8 coefficients,  rinner =    0.700

     atomic species   valence    mass     pseudopotential
        O0             6.00    15.99940     O ( 1.00)
        Ir1           15.00   192.22000     Ir( 1.00)
        H2             1.00     1.00794     H ( 1.00)

     Starting magnetic structure 
     atomic species   magnetization
        O0           0.000
        Ir1          0.000
        H2           0.000

     No symmetry found



   Cartesian axes

     site n.     atom                  positions (alat units)
         1           O0  tau(   1) = (   0.0000000   0.0000000   1.5730185  )
         2           O0  tau(   2) = (   0.0000000   0.5047586   1.6673182  )
         3           Ir1 tau(   3) = (   0.2500000   0.5047586   1.8780178  )
         4           Ir1 tau(   4) = (   0.0000000   0.0000000   1.8842906  )
         5           O0  tau(   5) = (   0.2500000   0.8177090   1.8825458  )
         6           O0  tau(   6) = (   0.2500000   0.1918083   1.8810503  )
         7           O0  tau(   7) = (   0.0000000   0.5047586   2.0695666  )
         8           O0  tau(   8) = (   0.0000000   0.0000000   2.1991352  )
         9           Ir1 tau(   9) = (   0.2500000   0.0000000   2.3955860  )
        10           Ir1 tau(  10) = (   0.0000000   0.5047586   2.3764768  )
        11           O0  tau(  11) = (   0.2500000   0.6965669   2.3975800  )
        12           O0  tau(  12) = (   0.2500000   0.3129503   2.3977461  )
        13           O0  tau(  13) = (   0.0000000   0.0000000   2.5806958  )
        14           O0  tau(  14) = (   0.5000000   0.0000000   1.5730185  )
        15           O0  tau(  15) = (   0.5000000   0.5047586   1.6673182  )
        16           Ir1 tau(  16) = (   0.7500000   0.5047586   1.8780178  )
        17           Ir1 tau(  17) = (   0.5000000   0.0000000   1.8842906  )
        18           O0  tau(  18) = (   0.7500000   0.8177090   1.8825458  )
        19           O0  tau(  19) = (   0.7500000   0.1918083   1.8810503  )
        20           O0  tau(  20) = (   0.5000000   0.5047586   2.0695666  )
        21           O0  tau(  21) = (   0.5000000   0.0000000   2.1991352  )
        22           Ir1 tau(  22) = (   0.7500000   0.0000000   2.3955860  )
        23           Ir1 tau(  23) = (   0.5000000   0.5047586   2.3764768  )
        24           O0  tau(  24) = (   0.7500000   0.6965669   2.3975800  )
        25           O0  tau(  25) = (   0.7500000   0.3129503   2.3977461  )
        26           O0  tau(  26) = (   0.5000000   0.0000000   2.5807374  )
        27           H2  tau(  27) = (  -0.0000500   0.6423962   1.5933324  )
        28           H2  tau(  28) = (   0.4999500   0.6423962   1.5933324  )
        29           H2  tau(  29) = (   0.1436500   0.0338188   1.5249132  )
        30           H2  tau(  30) = (   0.6436500   0.0338188   1.5249132  )
        31           O0  tau(  31) = (   0.4999800   0.5041327   2.6573403  )

     number of k points=    20  Methfessel-Paxton smearing, width (Ry)=  0.0100
                       cart. coord. in units 2pi/alat
        k(    1) = (   0.0000000   0.0000000   0.0000000), wk =   0.0625000
        k(    2) = (   0.0000000   0.2476431   0.0000000), wk =   0.1250000
        k(    3) = (   0.0000000  -0.4952862   0.0000000), wk =   0.0625000
        k(    4) = (   0.2500000   0.0000000   0.0000000), wk =   0.1250000
        k(    5) = (   0.2500000   0.2476431   0.0000000), wk =   0.1250000
        k(    6) = (   0.2500000  -0.4952862   0.0000000), wk =   0.1250000
        k(    7) = (  -0.5000000   0.0000000   0.0000000), wk =   0.0625000
        k(    8) = (  -0.5000000   0.2476431   0.0000000), wk =   0.1250000
        k(    9) = (  -0.5000000  -0.4952862   0.0000000), wk =   0.0625000
        k(   10) = (  -0.2500000   0.2476431   0.0000000), wk =   0.1250000
        k(   11) = (   0.0000000   0.0000000   0.0000000), wk =   0.0625000
        k(   12) = (   0.0000000   0.2476431   0.0000000), wk =   0.1250000
        k(   13) = (   0.0000000  -0.4952862   0.0000000), wk =   0.0625000
        k(   14) = (   0.2500000   0.0000000   0.0000000), wk =   0.1250000
        k(   15) = (   0.2500000   0.2476431   0.0000000), wk =   0.1250000
        k(   16) = (   0.2500000  -0.4952862   0.0000000), wk =   0.1250000
        k(   17) = (  -0.5000000   0.0000000   0.0000000), wk =   0.0625000
        k(   18) = (  -0.5000000   0.2476431   0.0000000), wk =   0.1250000
        k(   19) = (  -0.5000000  -0.4952862   0.0000000), wk =   0.0625000
        k(   20) = (  -0.2500000   0.2476431   0.0000000), wk =   0.1250000

     Dense  grid:  1374641 G-vectors     FFT dimensions: (  90,  90, 360)

     Smooth grid:   249013 G-vectors     FFT dimensions: (  50,  50, 216)

     Largest allocated arrays     est. size (Mb)     dimensions
        Kohn-Sham Wavefunctions        10.71 Mb     (   1966,  357)
        NL pseudopotentials            12.69 Mb     (   1966,  423)
        Each V/rho on FFT grid          5.69 Mb     ( 186300,   2)
        Each G-vector array             0.66 Mb     (  85921)
        G-vector shells                 0.32 Mb     (  41722)
     Largest temporary arrays     est. size (Mb)     dimensions
        Auxiliary wavefunctions        42.84 Mb     (   1966, 1428)
        Each subspace H/S matrix       31.12 Mb     (1428,1428)
        Each <psi_i|beta_j> matrix      2.30 Mb     (    423,  357)
        Arrays for rho mixing          22.74 Mb     ( 186300,   8)

     Check: negative/imaginary core charge=   -0.000003    0.000000

     Initial potential from superposition of free atoms
     Check: negative starting charge=(component1):   -1.667106
     Check: negative starting charge=(component2):   -1.667106

     starting charge  233.99968, renormalised to  238.00000

     negative rho (up, down):  0.170E+01 0.170E+01
     Starting wfc are  176 randomized atomic wfcs

     total cpu time spent up to now is      147.5 secs

     per-process dynamical memory:   305.5 Mb

     Self-consistent Calculation

     iteration #  1     ecut=    40.00 Ry     beta=0.70
     Davidson diagonalization with overlap
     ethr =  1.00E-02,  avg # of iterations =  9.2

     negative rho (up, down):  0.145E+01 0.145E+01

     total cpu time spent up to now is     1270.7 secs

     total energy              =   -2086.96493352 Ry
     Harris-Foulkes estimate   =   -2111.51049932 Ry
     estimated scf accuracy    <      29.13522585 Ry

     total magnetization       =     0.00 Bohr mag/cell
     absolute magnetization    =     0.01 Bohr mag/cell

     iteration #  2     ecut=    40.00 Ry     beta=0.70
     Davidson diagonalization with overlap
     ethr =  1.00E-02,  avg # of iterations =  4.0

     negative rho (up, down):  0.138E+01 0.138E+01

     total cpu time spent up to now is     2134.9 secs

     total energy              =   -2000.27171046 Ry
     Harris-Foulkes estimate   =   -2228.66849751 Ry
     estimated scf accuracy    <    2514.65430668 Ry

     total magnetization       =    -0.00 Bohr mag/cell
     absolute magnetization    =     0.01 Bohr mag/cell

     iteration #  3     ecut=    40.00 Ry     beta=0.70
     Davidson diagonalization with overlap
     ethr =  1.00E-02,  avg # of iterations =  5.0

     negative rho (up, down):  0.124E+01 0.124E+01

     total cpu time spent up to now is     3177.5 secs

     total energy              =   -2076.83755810 Ry
     Harris-Foulkes estimate   =   -2134.12894266 Ry
     estimated scf accuracy    <     403.22135936 Ry

     total magnetization       =    -0.00 Bohr mag/cell
     absolute magnetization    =     0.00 Bohr mag/cell

     iteration #  4     ecut=    40.00 Ry     beta=0.70
     Davidson diagonalization with overlap
     ethr =  1.00E-02,  avg # of iterations =  3.5

     negative rho (up, down):  0.129E+01 0.129E+01

     total cpu time spent up to now is     3690.6 secs

     total energy              =   -2103.49626291 Ry
     Harris-Foulkes estimate   =   -2109.16014540 Ry
     estimated scf accuracy    <      20.73668218 Ry

     total magnetization       =    -0.00 Bohr mag/cell
     absolute magnetization    =     0.00 Bohr mag/cell

     iteration #  5     ecut=    40.00 Ry     beta=0.70
     Davidson diagonalization with overlap
     ethr =  8.71E-03,  avg # of iterations =  1.3

     negative rho (up, down):  0.135E+01 0.135E+01

     total cpu time spent up to now is     4069.9 secs

     total energy              =   -2105.87228268 Ry
     Harris-Foulkes estimate   =   -2106.95402450 Ry
     estimated scf accuracy    <       9.64118843 Ry

     total magnetization       =    -0.00 Bohr mag/cell
     absolute magnetization    =     0.00 Bohr mag/cell

     iteration #  6     ecut=    40.00 Ry     beta=0.70
     Davidson diagonalization with overlap
     ethr =  4.05E-03,  avg # of iterations =  1.6

     negative rho (up, down):  0.138E+01 0.138E+01

     total cpu time spent up to now is     4455.1 secs

     total energy              =   -2105.95724390 Ry
     Harris-Foulkes estimate   =   -2106.60383871 Ry
     estimated scf accuracy    <       4.01729286 Ry

     total magnetization       =    -0.00 Bohr mag/cell
     absolute magnetization    =     0.00 Bohr mag/cell

     iteration #  7     ecut=    40.00 Ry     beta=0.70
     Davidson diagonalization with overlap
     ethr =  1.69E-03,  avg # of iterations =  2.5

     negative rho (up, down):  0.139E+01 0.139E+01

     total cpu time spent up to now is     4874.2 secs

     total energy              =   -2106.06591416 Ry
     Harris-Foulkes estimate   =   -2106.42629910 Ry
     estimated scf accuracy    <       3.14459819 Ry

     total magnetization       =    -0.00 Bohr mag/cell
     absolute magnetization    =     0.00 Bohr mag/cell

     iteration #  8     ecut=    40.00 Ry     beta=0.70
     Davidson diagonalization with overlap
     ethr =  1.32E-03,  avg # of iterations =  1.1

     negative rho (up, down):  0.142E+01 0.142E+01

     total cpu time spent up to now is     5247.7 secs

     total energy              =   -2106.14130822 Ry
     Harris-Foulkes estimate   =   -2106.34306238 Ry
     estimated scf accuracy    <       1.33411073 Ry

     total magnetization       =    -0.00 Bohr mag/cell
     absolute magnetization    =     0.00 Bohr mag/cell

     iteration #  9     ecut=    40.00 Ry     beta=0.70
     Davidson diagonalization with overlap
     ethr =  5.61E-04,  avg # of iterations =  3.3

     negative rho (up, down):  0.144E+01 0.144E+01

     total cpu time spent up to now is     5684.8 secs

     total energy              =   -2106.10258980 Ry
     Harris-Foulkes estimate   =   -2106.29215149 Ry
     estimated scf accuracy    <       1.29587246 Ry

     total magnetization       =    -0.00 Bohr mag/cell
     absolute magnetization    =     0.00 Bohr mag/cell

     iteration # 10     ecut=    40.00 Ry     beta=0.70
     Davidson diagonalization with overlap
     ethr =  5.44E-04,  avg # of iterations =  1.0

     negative rho (up, down):  0.148E+01 0.148E+01

     total cpu time spent up to now is     6057.2 secs

     total energy              =   -2106.13202359 Ry
     Harris-Foulkes estimate   =   -2106.22502597 Ry
     estimated scf accuracy    <       0.78592357 Ry

     total magnetization       =    -0.00 Bohr mag/cell
     absolute magnetization    =     0.00 Bohr mag/cell

     iteration # 11     ecut=    40.00 Ry     beta=0.70
     Davidson diagonalization with overlap
     ethr =  3.30E-04,  avg # of iterations =  1.8

     negative rho (up, down):  0.153E+01 0.153E+01

     total cpu time spent up to now is     6450.8 secs

     total energy              =   -2106.12427915 Ry
     Harris-Foulkes estimate   =   -2106.17554858 Ry
     estimated scf accuracy    <       0.42615126 Ry

     total magnetization       =    -0.00 Bohr mag/cell
     absolute magnetization    =     0.00 Bohr mag/cell

     iteration # 12     ecut=    40.00 Ry     beta=0.70
     Davidson diagonalization with overlap
     ethr =  1.79E-04,  avg # of iterations =  5.6

     negative rho (up, down):  0.155E+01 0.155E+01

     total cpu time spent up to now is     6966.6 secs

     total energy              =   -2106.09772523 Ry
     Harris-Foulkes estimate   =   -2106.16443313 Ry
     estimated scf accuracy    <       0.26887770 Ry

     total magnetization       =    -0.00 Bohr mag/cell
     absolute magnetization    =     0.00 Bohr mag/cell

     iteration # 13     ecut=    40.00 Ry     beta=0.70
     Davidson diagonalization with overlap
     ethr =  1.13E-04,  avg # of iterations =  3.6

     negative rho (up, down):  0.155E+01 0.155E+01

     total cpu time spent up to now is     7424.1 secs

     total energy              =   -2106.07510897 Ry
     Harris-Foulkes estimate   =   -2106.18400297 Ry
     estimated scf accuracy    <       0.96557576 Ry

     total magnetization       =    -0.00 Bohr mag/cell
     absolute magnetization    =     0.00 Bohr mag/cell

     iteration # 14     ecut=    40.00 Ry     beta=0.70
     Davidson diagonalization with overlap
     ethr =  1.13E-04,  avg # of iterations =  1.0

     negative rho (up, down):  0.155E+01 0.155E+01

     total cpu time spent up to now is     7797.0 secs

     total energy              =   -2106.09620064 Ry
     Harris-Foulkes estimate   =   -2106.16479984 Ry
     estimated scf accuracy    <       0.38302120 Ry

     total magnetization       =    -0.00 Bohr mag/cell
     absolute magnetization    =     0.00 Bohr mag/cell

     iteration # 15     ecut=    40.00 Ry     beta=0.70
     Davidson diagonalization with overlap
     ethr =  1.13E-04,  avg # of iterations =  1.0

     negative rho (up, down):  0.155E+01 0.155E+01

     total cpu time spent up to now is     8170.8 secs

     total energy              =   -2106.12636648 Ry
     Harris-Foulkes estimate   =   -2106.14205646 Ry
     estimated scf accuracy    <       0.08734074 Ry

     total magnetization       =    -0.00 Bohr mag/cell
     absolute magnetization    =     0.00 Bohr mag/cell

     iteration # 16     ecut=    40.00 Ry     beta=0.70
     Davidson diagonalization with overlap
     ethr =  3.67E-05,  avg # of iterations =  3.2

     negative rho (up, down):  0.156E+01 0.156E+01

     total cpu time spent up to now is     8609.5 secs

     total energy              =   -2106.12889849 Ry
     Harris-Foulkes estimate   =   -2106.13824754 Ry
     estimated scf accuracy    <       0.09916147 Ry

     total magnetization       =    -0.00 Bohr mag/cell
     absolute magnetization    =     0.00 Bohr mag/cell

     iteration # 17     ecut=    40.00 Ry     beta=0.70
     Davidson diagonalization with overlap
     ethr =  3.67E-05,  avg # of iterations =  1.4

     negative rho (up, down):  0.156E+01 0.156E+01

     total cpu time spent up to now is     8991.6 secs

     total energy              =   -2106.12475952 Ry
     Harris-Foulkes estimate   =   -2106.14319589 Ry
     estimated scf accuracy    <       0.18692113 Ry

     total magnetization       =    -0.00 Bohr mag/cell
     absolute magnetization    =     0.00 Bohr mag/cell

     iteration # 18     ecut=    40.00 Ry     beta=0.70
     Davidson diagonalization with overlap
     ethr =  3.67E-05,  avg # of iterations =  1.0

     negative rho (up, down):  0.156E+01 0.156E+01

     total cpu time spent up to now is     9374.8 secs

     total energy              =   -2106.13214399 Ry
     Harris-Foulkes estimate   =   -2106.13711513 Ry
     estimated scf accuracy    <       0.02901908 Ry

     total magnetization       =    -0.00 Bohr mag/cell
     absolute magnetization    =     0.00 Bohr mag/cell

     iteration # 19     ecut=    40.00 Ry     beta=0.70
     Davidson diagonalization with overlap
     ethr =  1.22E-05,  avg # of iterations =  1.0

     negative rho (up, down):  0.156E+01 0.156E+01

     total cpu time spent up to now is     9767.1 secs

     total energy              =   -2106.13447619 Ry
     Harris-Foulkes estimate   =   -2106.13478910 Ry
     estimated scf accuracy    <       0.00134639 Ry

     total magnetization       =    -0.00 Bohr mag/cell
     absolute magnetization    =     0.00 Bohr mag/cell

     iteration # 20     ecut=    40.00 Ry     beta=0.70
     Davidson diagonalization with overlap
     ethr =  5.66E-07,  avg # of iterations =  3.1

     negative rho (up, down):  0.156E+01 0.156E+01

     total cpu time spent up to now is    10219.5 secs

     total energy              =   -2106.13435501 Ry
     Harris-Foulkes estimate   =   -2106.13485590 Ry
     estimated scf accuracy    <       0.00310656 Ry

     total magnetization       =    -0.00 Bohr mag/cell
     absolute magnetization    =     0.00 Bohr mag/cell

     iteration # 21     ecut=    40.00 Ry     beta=0.70
     Davidson diagonalization with overlap
     ethr =  5.66E-07,  avg # of iterations =  1.0

     negative rho (up, down):  0.156E+01 0.156E+01

     total cpu time spent up to now is    10608.1 secs

     total energy              =   -2106.13450595 Ry
     Harris-Foulkes estimate   =   -2106.13477578 Ry
     estimated scf accuracy    <       0.00173863 Ry

     total magnetization       =    -0.00 Bohr mag/cell
     absolute magnetization    =     0.00 Bohr mag/cell

     iteration # 22     ecut=    40.00 Ry     beta=0.70
     Davidson diagonalization with overlap
     ethr =  5.66E-07,  avg # of iterations =  1.0

     negative rho (up, down):  0.156E+01 0.156E+01

     total cpu time spent up to now is    10999.4 secs

     total energy              =   -2106.13449746 Ry
     Harris-Foulkes estimate   =   -2106.13474399 Ry
     estimated scf accuracy    <       0.00177258 Ry

     total magnetization       =    -0.00 Bohr mag/cell
     absolute magnetization    =     0.00 Bohr mag/cell

     iteration # 23     ecut=    40.00 Ry     beta=0.70
     Davidson diagonalization with overlap
     ethr =  5.66E-07,  avg # of iterations =  1.8

     negative rho (up, down):  0.156E+01 0.156E+01

     total cpu time spent up to now is    11413.3 secs

     total energy              =   -2106.13432181 Ry
     Harris-Foulkes estimate   =   -2106.13498075 Ry
     estimated scf accuracy    <       0.00536844 Ry

     total magnetization       =    -0.00 Bohr mag/cell
     absolute magnetization    =     0.00 Bohr mag/cell

     iteration # 24     ecut=    40.00 Ry     beta=0.70
     Davidson diagonalization with overlap
     ethr =  5.66E-07,  avg # of iterations =  1.0

     negative rho (up, down):  0.156E+01 0.156E+01

     total cpu time spent up to now is    11806.8 secs

     total energy              =   -2106.13463441 Ry
     Harris-Foulkes estimate   =   -2106.13465657 Ry
     estimated scf accuracy    <       0.00013967 Ry

     total magnetization       =    -0.00 Bohr mag/cell
     absolute magnetization    =     0.00 Bohr mag/cell

     iteration # 25     ecut=    40.00 Ry     beta=0.70
     Davidson diagonalization with overlap
     ethr =  5.87E-08,  avg # of iterations =  1.0

     negative rho (up, down):  0.156E+01 0.156E+01

     total cpu time spent up to now is    12203.8 secs

     total energy              =   -2106.13462180 Ry
     Harris-Foulkes estimate   =   -2106.13467714 Ry
     estimated scf accuracy    <       0.00032442 Ry

     total magnetization       =    -0.00 Bohr mag/cell
     absolute magnetization    =     0.00 Bohr mag/cell

     iteration # 26     ecut=    40.00 Ry     beta=0.70
     Davidson diagonalization with overlap
     ethr =  5.87E-08,  avg # of iterations =  1.0

     negative rho (up, down):  0.156E+01 0.156E+01

     total cpu time spent up to now is    12597.5 secs

     total energy              =   -2106.13464609 Ry
     Harris-Foulkes estimate   =   -2106.13465146 Ry
     estimated scf accuracy    <       0.00003724 Ry

     total magnetization       =    -0.00 Bohr mag/cell
     absolute magnetization    =     0.00 Bohr mag/cell

     iteration # 27     ecut=    40.00 Ry     beta=0.70
     Davidson diagonalization with overlap
     ethr =  1.56E-08,  avg # of iterations =  1.0

     negative rho (up, down):  0.156E+01 0.156E+01

     total cpu time spent up to now is    12989.2 secs

     total energy              =   -2106.13464000 Ry
     Harris-Foulkes estimate   =   -2106.13465964 Ry
     estimated scf accuracy    <       0.00016501 Ry

     total magnetization       =     0.00 Bohr mag/cell
     absolute magnetization    =     0.00 Bohr mag/cell

     iteration # 28     ecut=    40.00 Ry     beta=0.70
     Davidson diagonalization with overlap
     ethr =  1.56E-08,  avg # of iterations =  1.0

     negative rho (up, down):  0.156E+01 0.156E+01

     total cpu time spent up to now is    13381.0 secs

     total energy              =   -2106.13464900 Ry
     Harris-Foulkes estimate   =   -2106.13464997 Ry
     estimated scf accuracy    <       0.00000450 Ry

     total magnetization       =     0.00 Bohr mag/cell
     absolute magnetization    =     0.00 Bohr mag/cell

     iteration # 29     ecut=    40.00 Ry     beta=0.70
     Davidson diagonalization with overlap
     ethr =  1.89E-09,  avg # of iterations =  1.0

     negative rho (up, down):  0.156E+01 0.156E+01

     total cpu time spent up to now is    13772.1 secs

     total energy              =   -2106.13464926 Ry
     Harris-Foulkes estimate   =   -2106.13464997 Ry
     estimated scf accuracy    <       0.00000385 Ry

     total magnetization       =     0.00 Bohr mag/cell
     absolute magnetization    =     0.00 Bohr mag/cell

     iteration # 30     ecut=    40.00 Ry     beta=0.70
     Davidson diagonalization with overlap
     ethr =  1.62E-09,  avg # of iterations =  1.0

     negative rho (up, down):  0.156E+01 0.156E+01

     total cpu time spent up to now is    14155.8 secs

     total energy              =   -2106.13464917 Ry
     Harris-Foulkes estimate   =   -2106.13465007 Ry
     estimated scf accuracy    <       0.00000749 Ry

     total magnetization       =     0.00 Bohr mag/cell
     absolute magnetization    =     0.00 Bohr mag/cell

     iteration # 31     ecut=    40.00 Ry     beta=0.70
     Davidson diagonalization with overlap
     ethr =  1.62E-09,  avg # of iterations =  1.0

     negative rho (up, down):  0.156E+01 0.156E+01

     total cpu time spent up to now is    14533.0 secs

     total energy              =   -2106.13464939 Ry
     Harris-Foulkes estimate   =   -2106.13464983 Ry
     estimated scf accuracy    <       0.00000372 Ry

     total magnetization       =     0.00 Bohr mag/cell
     absolute magnetization    =     0.00 Bohr mag/cell

     iteration # 32     ecut=    40.00 Ry     beta=0.70
     Davidson diagonalization with overlap
     ethr =  1.56E-09,  avg # of iterations =  1.0

     negative rho (up, down):  0.156E+01 0.156E+01

     total cpu time spent up to now is    14909.7 secs

     total energy              =   -2106.13464942 Ry
     Harris-Foulkes estimate   =   -2106.13464984 Ry
     estimated scf accuracy    <       0.00000374 Ry

     total magnetization       =     0.00 Bohr mag/cell
     absolute magnetization    =     0.00 Bohr mag/cell

     iteration # 33     ecut=    40.00 Ry     beta=0.70
     Davidson diagonalization with overlap
     ethr =  1.56E-09,  avg # of iterations =  1.0

     negative rho (up, down):  0.156E+01 0.156E+01

     total cpu time spent up to now is    15286.8 secs

     total energy              =   -2106.13464954 Ry
     Harris-Foulkes estimate   =   -2106.13464972 Ry
     estimated scf accuracy    <       0.00000132 Ry

     total magnetization       =     0.00 Bohr mag/cell
     absolute magnetization    =     0.00 Bohr mag/cell

     iteration # 34     ecut=    40.00 Ry     beta=0.70
     Davidson diagonalization with overlap
     ethr =  5.53E-10,  avg # of iterations =  1.0

     negative rho (up, down):  0.156E+01 0.156E+01

     total cpu time spent up to now is    15664.0 secs

     total energy              =   -2106.13464953 Ry
     Harris-Foulkes estimate   =   -2106.13464976 Ry
     estimated scf accuracy    <       0.00000202 Ry

     total magnetization       =     0.00 Bohr mag/cell
     absolute magnetization    =     0.00 Bohr mag/cell

     iteration # 35     ecut=    40.00 Ry     beta=0.70
     Davidson diagonalization with overlap
     ethr =  5.53E-10,  avg # of iterations =  1.0

     negative rho (up, down):  0.156E+01 0.156E+01

     total cpu time spent up to now is    16040.6 secs

     End of self-consistent calculation

 ------ SPIN UP ------------


          k = 0.0000 0.0000 0.0000 ( 31045 PWs)   bands (ev):

   -52.4581 -52.1175 -52.1049 -51.5739 -51.5676 -51.4758 -51.4201 -51.4140
   -51.4031 -51.3739 -51.3091 -51.2606 -51.2297 -51.2092 -51.2039 -51.1989
   -51.1848 -51.1715 -51.1028 -51.0711 -51.0621 -51.0565 -51.0460 -50.8417
   -22.0301 -21.5660 -21.4172 -21.3918 -20.9466 -20.7532 -20.7206 -20.6261
   -20.5817 -20.5353 -20.4396 -20.2866 -20.0585 -20.0201 -19.9274 -19.7986
   -18.9367 -18.8377 -18.6248 -10.5658 -10.5575 -10.1689  -9.2739  -9.1009
    -9.0116  -8.9997  -8.9941  -8.9658  -8.9529  -8.9179  -8.8765  -8.6755
    -8.5934  -8.5235  -8.2939  -8.2912  -8.2246  -8.1168  -7.9926  -7.6649
    -7.4363  -7.3014  -7.2101  -6.7875  -6.7315  -6.6907  -6.3448  -6.1227
    -6.0418  -5.9414  -5.8962  -5.8367  -5.8036  -5.6676  -5.6067  -5.5030
    -5.4107  -5.3615  -5.2046  -5.1075  -5.0682  -4.8988  -4.8408  -4.8310
    -4.7324  -4.5279  -4.3508  -4.2926  -4.2359  -4.1939  -3.8347  -3.7771
    -3.7358  -3.7085  -3.6394  -3.4579  -3.4198  -3.3875  -3.2329  -3.1983
    -2.9367  -2.8983  -2.8453  -2.6664  -2.6032  -2.4527  -2.2732  -2.1326
    -1.9643  -1.9198  -1.8145  -1.7651  -1.7535  -1.2942  -1.1735  -0.9453
    -0.8618  -0.7393  -0.6701  -0.4288  -0.1797   0.5532   0.9412   0.9810
     1.0610   1.1122   1.2843   1.7047   2.0013   2.2214   2.6428   2.7435
     2.8395   2.8536   3.0140   3.4074   3.9244   3.9903   4.4457   4.9804
     5.1305   5.7998   6.0058   6.0261   6.1337   6.6648   6.8881   7.0278
     7.3539   7.4164   7.5645   7.6619   7.6761   7.7126   7.8115   7.8727
     7.9247   7.9398   7.9861   8.1390   8.2095   8.3391   8.4360   8.4844
     8.4900   8.4934   8.5125   8.5149   8.5158   8.6626   8.6696   8.6751
     8.6816   8.7129   8.7575   8.7926   8.9493   9.0055   9.1470   9.2117
     9.2878   9.3145   9.3414   9.4907   9.5510   9.8346   9.8497  10.0111
    10.1140  10.2276  10.2871  10.3284  10.4767  10.5591  10.5721  10.6633
    10.8765  10.9950  11.0758  11.1512  11.1533  11.1881  11.2325  11.2374
    11.2910  11.4977  11.5017  11.7231  11.7545  11.7630  11.8511  11.9288
    11.9896  12.0733  12.1526  12.2055  12.2133  12.3419  12.3886  12.4412
    12.5379  12.5574  12.5888  12.6357  12.8143  12.8699  12.9047  12.9615
    13.0003  13.1355  13.1961  13.3460  13.4821  13.6070  13.7459  13.7704
    13.8321  13.8959  13.9188  14.0869  14.1400  14.1836  14.3406  14.4078
    14.5587  14.5635  14.5710  14.6326  14.7456  14.7845  14.9497  15.0583
    15.2378  15.3212  15.3635  15.5066  15.5672  15.7149  15.7523  15.7823
    15.8489  15.9874  16.0336  16.1018  16.1626  16.2044  16.2790  16.4471
    16.4673  16.6762  16.8216  16.8761  17.0779  17.1031  17.2144  17.2511
    17.3135  17.3813  17.4173  17.5045  17.6125  17.6401  17.6826  17.8953
    17.9709  17.9978  18.0981  18.2408  18.3931  18.4150  18.5072  18.6132
    18.6252  18.6541  18.7914  18.8942  18.9511  19.0120  19.0669  19.0887
    19.1197  19.1704  19.2469  19.3056  19.3191  19.4110  19.4612  19.5672
    19.6609  19.6859  19.7452  19.7571  19.7728  19.8179  19.8727  19.9507
    19.9615  19.9812  19.9876  20.1348  20.2064  20.2987  20.3387  20.5133
    20.5437  20.5775  20.6477  20.7297  20.7634  20.8186  20.9187  20.9517
    21.0928  21.1606  21.1912  21.2413  21.2550  21.3800  21.3991  21.5115
    21.5495  21.6340  21.6673  21.7774  21.8148  21.8350  21.8931  21.9344
    22.0034  22.1327  22.1528  22.2116  22.2595

          k = 0.0000 0.2476 0.0000 ( 31078 PWs)   bands (ev):

   -52.4581 -52.1175 -52.1047 -51.5739 -51.5677 -51.4762 -51.4202 -51.4140
   -51.4031 -51.3738 -51.3091 -51.2572 -51.2293 -51.2099 -51.2074 -51.1981
   -51.1847 -51.1715 -51.1028 -51.0711 -51.0622 -51.0565 -51.0460 -50.8418
   -21.9546 -21.4579 -21.3957 -21.3854 -20.9425 -20.8170 -20.7668 -20.7306
   -20.6315 -20.4258 -20.3449 -20.2885 -20.1748 -20.0998 -20.0061 -19.7995
   -18.9325 -18.8329 -18.6282 -10.2273 -10.0697 -10.0245  -9.5551  -9.1902
    -9.0849  -9.0006  -8.9626  -8.9404  -8.9257  -8.8441  -8.7826  -8.6683
    -8.5883  -8.4478  -8.3396  -8.2934  -8.2689  -7.8761  -7.5948  -7.3835
    -7.3474  -7.3096  -7.0864  -6.8161  -6.8019  -6.7483  -6.6649  -6.5087
    -6.4711  -6.3004  -6.0471  -5.9926  -5.9107  -5.8657  -5.6750  -5.4997
    -5.4230  -5.3873  -5.3370  -5.3289  -5.1958  -5.0301  -4.8633  -4.7454
    -4.6792  -4.6178  -4.5019  -4.2906  -4.2728  -4.2205  -3.9433  -3.9113
    -3.7637  -3.6504  -3.4092  -3.3860  -3.3075  -2.9929  -2.9882  -2.8954
    -2.8384  -2.7770  -2.6964  -2.6828  -2.6641  -2.6451  -2.5359  -2.4143
    -2.3059  -1.9690  -1.7756  -1.7553  -1.4810  -1.2039  -1.0234  -0.9054
    -0.8281  -0.6636  -0.6358  -0.4772  -0.3369   0.2173   0.3370   0.8609
     1.0848   1.2649   1.8193   2.2169   2.5282   2.5625   2.6144   2.7525
     2.8727   2.9102   3.0753   3.4096   3.7529   4.2346   4.6516   5.1224
     5.2393   5.3579   6.0960   6.1620   6.2219   6.3843   6.5367   6.7857
     6.8605   6.9629   7.2111   7.4927   7.5034   7.5907   7.7127   7.7600
     7.9488   8.0148   8.0723   8.1460   8.3113   8.3362   8.4528   8.4834
     8.4862   8.4939   8.5152   8.5160   8.5931   8.6717   8.6746   8.6803
     8.7141   8.7871   8.8160   8.9893   9.0270   9.1697   9.1992   9.3645
     9.3825   9.4787   9.6075   9.7024   9.7843   9.7873   9.9120  10.1077
    10.1773  10.2714  10.3266  10.4146  10.4296  10.4838  10.5794  10.6039
    10.7348  10.7444  10.7871  10.8807  11.0109  11.0167  11.1735  11.2599
    11.3671  11.4289  11.4617  11.5792  11.6552  11.6921  11.7491  11.8031
    12.0328  12.0863  12.2543  12.3056  12.3879  12.5210  12.6096  12.6240
    12.7360  12.8396  12.8682  12.9385  13.0038  13.0641  13.1184  13.2207
    13.3019  13.5589  13.6167  13.7230  13.8255  13.8479  13.9030  14.0427
    14.0897  14.1146  14.1864  14.1985  14.3433  14.4486  14.5190  14.5884
    14.6195  14.6853  14.8384  14.8416  14.9465  14.9683  15.0006  15.0707
    15.3237  15.3570  15.4478  15.5956  15.7058  15.7475  15.7904  15.9451
    15.9693  15.9847  16.0759  16.1799  16.2031  16.2558  16.2975  16.3313
    16.3529  16.4760  16.5587  16.6718  16.7411  16.8152  16.9118  17.0747
    17.0950  17.1080  17.1234  17.2606  17.2873  17.3469  17.4185  17.5386
    17.5881  17.6324  17.7208  17.7873  18.1107  18.1362  18.1999  18.4370
    18.4631  18.5610  18.5759  18.6140  18.7115  18.7559  18.8090  18.8770
    18.9289  19.0154  19.0613  19.1252  19.1522  19.2572  19.3061  19.3804
    19.4531  19.5218  19.5419  19.5604  19.6461  19.7021  19.7199  19.7470
    19.7967  19.8370  19.8966  19.9887  20.0475  20.0555  20.1306  20.1722
    20.1983  20.2419  20.3491  20.3622  20.4163  20.4790  20.7212  20.7524
    20.8468  20.8562  20.9272  20.9400  20.9969  21.0184  21.0470  21.0838
    21.1063  21.1746  21.2389  21.2808  21.4331  21.4634  21.5060  21.5890
    21.6590  21.7562  21.7938  21.8098  21.8679

          k = 0.0000-0.4953 0.0000 ( 31160 PWs)   bands (ev):

   -52.4581 -52.1176 -52.1046 -51.5740 -51.5678 -51.4766 -51.4202 -51.4140
   -51.4032 -51.3738 -51.3091 -51.2537 -51.2271 -51.2157 -51.2079 -51.1973
   -51.1846 -51.1715 -51.1029 -51.0712 -51.0622 -51.0565 -51.0460 -50.8419
   -21.8699 -21.3956 -21.3895 -21.2598 -20.9213 -20.8796 -20.8063 -20.7926
   -20.7381 -20.3626 -20.3325 -20.2887 -20.2819 -20.1948 -20.0247 -19.8004
   -18.9282 -18.8285 -18.6325 -10.1863  -9.7289  -9.4112  -9.3337  -9.2883
    -9.0615  -8.9989  -8.9842  -8.9009  -8.8667  -8.6735  -8.6223  -8.5809
    -8.5427  -8.4842  -8.3485  -8.2947  -8.2404  -7.6497  -7.6219  -7.5822
    -7.4982  -7.4465  -7.4211  -7.1906  -6.8872  -6.8197  -6.6110  -6.4621
    -6.3611  -6.3555  -6.2731  -6.2565  -6.1780  -6.0314  -5.9284  -5.9036
    -5.5510  -5.4068  -5.2725  -5.2451  -5.2124  -4.8791  -4.6746  -4.6475
    -4.6379  -4.5740  -4.4443  -4.3785  -4.2612  -4.2474  -4.2245  -3.9140
    -3.7098  -3.6937  -3.5274  -3.3432  -3.2874  -3.2611  -3.2356  -2.8958
    -2.8717  -2.6918  -2.6530  -2.5987  -2.4993  -2.3811  -2.3313  -2.3036
    -2.2437  -1.8699  -1.8000  -1.6546  -1.4911  -1.4292  -1.2034  -0.8483
    -0.8039  -0.5863  -0.5230  -0.4862  -0.3559  -0.1908  -0.0492   0.9516
     1.1041   1.8218   2.0399   2.2142   2.3005   2.4708   2.9036   2.9806
     3.0929   3.2926   3.3613   3.4101   3.7912   4.3385   4.8559   5.2426
     5.3089   5.4714   5.7163   5.9237   5.9879   6.0678   6.3244   6.5915
     6.7285   6.8581   7.0619   7.0708   7.1547   7.6066   7.7128   7.7603
     8.0164   8.1875   8.2287   8.2577   8.3846   8.4302   8.4690   8.4861
     8.4944   8.5046   8.5152   8.5155   8.6706   8.6734   8.7143   8.7990
     8.8746   8.9289   9.1099   9.1378   9.1452   9.1501   9.2213   9.2897
     9.3001   9.4162   9.4852   9.4931   9.6230   9.6791   9.7199   9.8805
     9.9408   9.9672  10.1635  10.1855  10.3022  10.3208  10.3377  10.3925
    10.5586  11.0412  11.0905  11.1361  11.1852  11.2819  11.3069  11.4024
    11.5737  11.6079  11.7512  11.8100  11.8742  12.1116  12.1332  12.2022
    12.2994  12.3921  12.4170  12.4464  12.5116  12.5196  12.6121  12.7895
    12.8018  13.0008  13.0483  13.1824  13.1908  13.2215  13.2759  13.2963
    13.3537  13.4854  13.5312  13.5672  13.5989  13.6467  13.7879  13.8730
    14.0437  14.1050  14.2882  14.4692  14.5810  14.6524  14.6762  14.8019
    14.8717  14.9437  15.0599  15.1311  15.1878  15.3094  15.3561  15.4210
    15.4861  15.5561  15.5994  15.6438  15.8043  15.8341  15.9291  16.0224
    16.0541  16.1487  16.1743  16.1873  16.2796  16.3828  16.4060  16.4555
    16.5211  16.5288  16.6282  16.6853  16.6993  16.7408  16.7850  16.8369
    16.8679  16.9067  16.9649  17.1194  17.1809  17.2438  17.3084  17.3450
    17.5404  17.5652  17.6193  17.7369  17.7533  17.8420  17.9094  17.9939
    18.0232  18.0643  18.0776  18.1456  18.2244  18.3088  18.3322  18.3985
    18.4261  18.5172  18.5241  18.5576  18.6072  18.7537  18.8090  18.9577
    19.0431  19.0674  19.1517  19.2360  19.4097  19.4207  19.4359  19.5757
    19.6134  19.6838  19.7459  19.8082  19.8658  19.9101  20.0697  20.1268
    20.1997  20.2629  20.3333  20.3566  20.4533  20.4667  20.4924  20.5211
    20.5343  20.5836  20.6221  20.6606  20.7298  20.7831  20.8499  20.9221
    20.9712  21.0128  21.0238  21.0760  21.0914  21.1341  21.1643  21.2335
    21.2415  21.2519  21.3281  21.4077  21.4341

          k = 0.2500 0.0000 0.0000 ( 31106 PWs)   bands (ev):

   -52.4581 -52.1162 -52.1048 -51.5730 -51.5686 -51.4614 -51.4194 -51.4100
   -51.3936 -51.3878 -51.3240 -51.2590 -51.2329 -51.2083 -51.2033 -51.1865
   -51.1856 -51.1708 -51.1165 -51.0690 -51.0601 -51.0586 -51.0486 -50.8417
   -21.9116 -21.4578 -21.4164 -21.3240 -21.0575 -20.8421 -20.7726 -20.7260
   -20.5050 -20.4672 -20.3687 -20.2832 -20.1080 -20.0152 -20.0046 -19.8292
   -18.9774 -18.8916 -18.6261 -10.3869 -10.3785 -10.0204  -9.4321  -9.3454
    -9.3017  -9.0021  -8.9934  -8.9075  -8.8824  -8.8096  -8.7885  -8.6628
    -8.4042  -8.3375  -8.2549  -8.1683  -8.0535  -8.0049  -7.9362  -7.6888
    -7.3759  -7.3570  -6.9777  -6.9371  -6.6602  -6.5407  -6.4184  -6.3646
    -6.3368  -6.1847  -6.0766  -5.9723  -5.9479  -5.8890  -5.8367  -5.5705
    -5.4626  -5.4141  -5.3070  -5.2013  -5.0963  -5.0434  -5.0032  -4.8659
    -4.8198  -4.7258  -4.5795  -4.4908  -4.4432  -4.2321  -4.0151  -3.7685
    -3.7109  -3.5981  -3.5783  -3.4677  -3.3900  -3.1054  -3.0028  -2.8752
    -2.7919  -2.6844  -2.5238  -2.4608  -2.3786  -2.3342  -2.0603  -2.0382
    -1.9303  -1.8772  -1.7798  -1.5791  -1.4352  -1.4058  -1.2234  -1.1779
    -0.9039  -0.8638  -0.6438  -0.4466  -0.3249   0.7526   1.0611   1.1296
     1.2358   1.3115   1.4167   1.7026   1.8423   2.0262   2.5043   2.6132
     2.6535   2.8048   2.9160   3.1412   3.8100   4.2871   4.6845   5.1147
     5.2028   5.3750   6.0265   6.1498   6.3679   6.3832   6.7098   6.9037
     7.0646   7.1648   7.3055   7.4792   7.6447   7.7127   7.7287   7.8015
     7.8851   7.9869   8.0168   8.1458   8.2331   8.3254   8.3764   8.4844
     8.4937   8.5152   8.5155   8.6674   8.6725   8.6777   8.7035   8.7148
     8.7500   8.8588   8.8848   8.9796   9.0934   9.1256   9.1975   9.2296
     9.4535   9.4718   9.5509   9.6862   9.8308  10.0022  10.0873  10.1267
    10.2290  10.2705  10.3607  10.3795  10.4318  10.5184  10.5753  10.6254
    10.6865  10.7261  10.7810  10.8306  10.9388  11.0649  11.1875  11.2357
    11.2928  11.3339  11.3840  11.4297  11.4785  11.5954  11.6396  11.7121
    11.8726  11.9733  12.1232  12.1862  12.3936  12.4312  12.5285  12.6028
    12.6331  12.6947  12.8557  12.9196  12.9923  13.0839  13.2839  13.2895
    13.4611  13.5211  13.6467  13.7922  13.8624  13.8914  13.9718  14.0159
    14.0946  14.1185  14.1467  14.1840  14.2527  14.3003  14.4449  14.4725
    14.5587  14.5992  14.6601  14.7580  14.7815  14.8581  15.0140  15.0478
    15.0850  15.3147  15.3460  15.5397  15.5733  15.6896  15.7032  15.7462
    15.7896  15.8694  16.0038  16.0373  16.1387  16.2026  16.3273  16.3602
    16.3871  16.3996  16.4715  16.5084  16.7216  16.7494  16.8674  17.0231
    17.1065  17.2412  17.3254  17.3956  17.4351  17.5410  17.6176  17.7005
    17.7979  17.8590  17.9962  18.0509  18.1255  18.2573  18.3016  18.3165
    18.4600  18.5162  18.6399  18.8428  18.8753  18.9701  19.0464  19.1211
    19.2191  19.2325  19.3006  19.3332  19.3709  19.4373  19.4745  19.5039
    19.5178  19.5720  19.6219  19.6573  19.6772  19.7469  19.7702  19.7923
    19.8599  19.9005  19.9177  19.9756  20.0524  20.1200  20.2043  20.2531
    20.2754  20.2972  20.3398  20.4020  20.4498  20.4757  20.5711  20.6085
    20.6541  20.7912  20.8812  20.8905  20.9856  21.0396  21.0613  21.0850
    21.1824  21.2159  21.2791  21.3563  21.3814  21.4885  21.5205  21.5785
    21.6102  21.6348  21.7217  21.7522  21.8753

          k = 0.2500 0.2476 0.0000 ( 31099 PWs)   bands (ev):

   -52.4581 -52.1163 -52.1047 -51.5730 -51.5686 -51.4617 -51.4194 -51.4100
   -51.3936 -51.3879 -51.3240 -51.2560 -51.2311 -51.2100 -51.2067 -51.1863
   -51.1852 -51.1708 -51.1165 -51.0690 -51.0601 -51.0586 -51.0486 -50.8418
   -21.8463 -21.4132 -21.3627 -21.2777 -21.0368 -20.8375 -20.7625 -20.7383
   -20.5598 -20.5080 -20.3903 -20.2670 -20.2424 -20.1461 -19.9952 -19.8297
   -18.9747 -18.8878 -18.6280 -10.0604  -9.9145  -9.8794  -9.5162  -9.2159
    -9.0895  -9.0039  -8.9469  -8.8897  -8.8407  -8.8075  -8.7648  -8.6732
    -8.6371  -8.3057  -8.2606  -8.1427  -7.9752  -7.8288  -7.7495  -7.6204
    -7.4103  -7.3864  -7.1384  -6.8727  -6.7678  -6.6182  -6.5581  -6.4849
    -6.4472  -6.3739  -6.2579  -6.2254  -6.2026  -6.1033  -5.9943  -5.8025
    -5.7288  -5.5651  -5.4580  -5.3317  -5.2106  -5.0725  -5.0239  -4.9078
    -4.7110  -4.6566  -4.6307  -4.4351  -4.3035  -4.1805  -4.0352  -3.8656
    -3.6517  -3.5769  -3.4918  -3.4116  -3.1121  -2.8411  -2.7717  -2.7066
    -2.6812  -2.6437  -2.5661  -2.4716  -2.4383  -2.3778  -2.3063  -2.1961
    -2.0348  -1.9213  -1.7098  -1.4770  -1.4108  -1.2891  -1.1190  -1.0075
    -0.9627  -0.8591  -0.7428  -0.5413  -0.2784   0.4626   0.5659   0.9432
     1.2592   1.3446   1.7294   1.8865   2.2103   2.3520   2.4066   2.6165
     2.7383   2.9229   2.9520   3.4648   3.6974   4.5264   4.8876   5.2838
     5.3358   5.4905   5.6017   6.2220   6.4455   6.5294   6.6457   6.7965
     6.9018   6.9686   7.1612   7.2276   7.3151   7.3577   7.5495   7.7129
     7.7992   7.8444   7.8834   8.0034   8.0951   8.2122   8.3168   8.4022
     8.4847   8.4940   8.5150   8.5153   8.5608   8.6476   8.6725   8.6771
     8.7138   8.7824   8.8647   8.9539   9.0353   9.0750   9.2171   9.2910
     9.3669   9.5882   9.6573   9.7098   9.8278   9.9107   9.9729  10.1248
    10.2322  10.2747  10.3963  10.4204  10.5161  10.6183  10.7002  10.7498
    10.8962  10.9907  11.0365  11.1264  11.1700  11.2796  11.3922  11.5818
    11.6142  11.6473  11.7740  11.8324  11.8883  11.9328  12.0665  12.1555
    12.2380  12.2448  12.3844  12.3995  12.5687  12.6088  12.6708  12.7360
    12.7820  12.8438  12.8843  12.9343  13.0094  13.0492  13.1610  13.1966
    13.2564  13.3848  13.4841  13.5080  13.6201  13.7888  13.8833  13.9473
    14.0090  14.0822  14.1417  14.2661  14.2880  14.4201  14.4711  14.5752
    14.6288  14.7785  14.8588  14.9189  15.0581  15.1234  15.2013  15.2364
    15.3317  15.4405  15.5684  15.6324  15.6660  15.7582  15.8324  15.8653
    15.9438  16.0048  16.0944  16.1409  16.1472  16.2532  16.2923  16.3729
    16.4571  16.4810  16.5431  16.5885  16.6625  16.7419  16.7776  16.8108
    16.9024  17.0152  17.0570  17.2030  17.2798  17.3591  17.3863  17.4400
    17.4971  17.5547  17.6277  17.6816  17.7124  17.7902  17.9005  17.9395
    17.9894  18.0733  18.1028  18.1846  18.2172  18.2666  18.4449  18.4827
    18.5520  18.5894  18.6694  18.7054  18.7747  18.8990  18.9615  19.0133
    19.0826  19.1395  19.1623  19.2623  19.2869  19.3370  19.4356  19.4936
    19.5617  19.6576  19.7110  19.7827  19.8097  19.9318  19.9927  20.0085
    20.1331  20.2652  20.3625  20.4142  20.4361  20.4852  20.5703  20.6049
    20.6629  20.7174  20.7554  20.8292  20.8793  20.9145  20.9655  21.0312
    21.1488  21.2976  21.3886  21.4422  21.4945  21.5474  21.5686  21.6999
    21.7470  21.7964  21.8308  21.8768  21.9092

          k = 0.2500-0.4953 0.0000 ( 31088 PWs)   bands (ev):

   -52.4581 -52.1164 -52.1046 -51.5730 -51.5686 -51.4621 -51.4194 -51.4101
   -51.3936 -51.3878 -51.3240 -51.2532 -51.2273 -51.2146 -51.2088 -51.1862
   -51.1848 -51.1707 -51.1165 -51.0690 -51.0601 -51.0586 -51.0486 -50.8420
   -21.7767 -21.4099 -21.2690 -21.1792 -20.9936 -20.7952 -20.7563 -20.7398
   -20.7330 -20.5486 -20.4131 -20.4040 -20.2553 -20.2331 -19.9977 -19.8298
   -18.9720 -18.8842 -18.6304 -10.0258  -9.5631  -9.1604  -9.0989  -9.0609
    -9.0182  -8.9459  -8.9242  -8.9053  -8.8500  -8.7970  -8.7560  -8.6969
    -8.6584  -8.4071  -8.2669  -8.1021  -7.8880  -7.7376  -7.6278  -7.5763
    -7.4401  -7.3320  -7.2900  -7.2630  -7.1885  -7.1113  -6.8144  -6.6961
    -6.5764  -6.5325  -6.4505  -6.4124  -6.2495  -6.2008  -6.0239  -5.9521
    -5.9367  -5.7280  -5.5627  -5.2782  -5.1253  -5.0411  -5.0078  -4.7992
    -4.7000  -4.5742  -4.4879  -4.3983  -4.2547  -4.0520  -4.0019  -3.8896
    -3.7610  -3.6485  -3.3721  -3.2850  -3.1528  -3.0663  -2.9036  -2.7500
    -2.6473  -2.5447  -2.5403  -2.4581  -2.3982  -2.3194  -2.0357  -2.0323
    -1.9178  -1.7483  -1.7342  -1.5273  -1.4055  -1.3700  -1.2524  -0.9532
    -0.8814  -0.8000  -0.7220  -0.6478  -0.1848   0.0217   0.1461   0.9868
     1.2746   1.6887   1.7248   1.8653   1.9677   2.2639   2.8069   2.8226
     2.9297   3.0762   3.2686   3.3211   4.0816   4.6242   5.0613   5.5013
     5.5720   5.5995   5.7648   5.9776   6.1828   6.2496   6.3425   6.3500
     6.7413   6.9498   7.1286   7.1704   7.3263   7.4145   7.4930   7.5868
     7.7129   7.7492   7.9119   7.9418   8.0077   8.0710   8.1725   8.2366
     8.3742   8.4849   8.4941   8.5150   8.5152   8.5217   8.6588   8.6718
     8.6776   8.7139   8.7365   8.8222   8.9063   8.9963   9.2096   9.3345
     9.4294   9.4401   9.5493   9.5878   9.6812   9.8205   9.9334  10.0588
    10.1870  10.3061  10.3911  10.4869  10.5700  10.9858  11.0776  11.1448
    11.1823  11.2675  11.3595  11.4342  11.5618  11.5835  11.7227  11.7628
    11.7954  11.8807  11.9416  12.0043  12.1403  12.2115  12.2411  12.3134
    12.4349  12.4589  12.4766  12.5345  12.6154  12.7008  12.8098  12.9174
    12.9236  13.0668  13.1976  13.2387  13.3202  13.3620  13.3995  13.4711
    13.5885  13.6193  13.6533  13.6763  13.7233  13.8692  13.9278  13.9584
    14.0639  14.3359  14.3492  14.4008  14.4466  14.4805  14.5592  14.6132
    14.6445  14.7158  14.7886  14.8785  14.9045  14.9822  15.0506  15.0791
    15.1335  15.2058  15.2734  15.3136  15.3963  15.4538  15.5311  15.6074
    15.6964  15.8265  15.8858  16.0269  16.1342  16.1505  16.2150  16.2777
    16.3645  16.4014  16.4495  16.5480  16.5860  16.6526  16.7197  16.7646
    16.7831  16.8685  17.0025  17.0207  17.0683  17.1255  17.1945  17.2773
    17.3236  17.3368  17.3668  17.4407  17.4670  17.5651  17.6666  17.6995
    17.8722  17.9340  17.9803  18.0333  18.1097  18.2022  18.2824  18.3078
    18.4182  18.4941  18.6012  18.6331  18.6652  18.7095  18.7396  18.7829
    18.8680  18.9516  18.9754  19.0285  19.0947  19.2152  19.2323  19.2786
    19.3183  19.3826  19.4371  19.4707  19.6031  19.6580  19.6827  19.7185
    19.8143  19.8914  19.9460  19.9788  19.9929  20.1544  20.2441  20.4240
    20.5076  20.5524  20.6444  20.6994  20.7281  20.7773  20.8433  20.9520
    21.0397  21.0608  21.1134  21.1988  21.2345  21.2694  21.3635  21.4983
    21.5222  21.5940  21.6385  21.7946  21.8264

          k =-0.5000 0.0000 0.0000 ( 31104 PWs)   bands (ev):

   -52.4581 -52.1150 -52.1048 -51.5712 -51.5704 -51.4305 -51.4265 -51.4125
   -51.4076 -51.3597 -51.3594 -51.2570 -51.2363 -51.2076 -51.2029 -51.1878
   -51.1736 -51.1507 -51.1487 -51.0640 -51.0637 -51.0562 -51.0529 -50.8417
   -21.6417 -21.6097 -21.2640 -21.2078 -21.0829 -21.0632 -20.9155 -20.7786
   -20.3591 -20.3501 -20.2906 -20.2893 -20.2005 -20.1827 -19.9294 -19.9107
   -19.0048 -18.9614 -18.6267  -9.9616  -9.9066  -9.9012  -9.8572  -9.6766
    -9.6723  -9.0284  -8.9459  -8.8657  -8.8577  -8.7860  -8.6971  -8.6221
    -8.5557  -8.0672  -8.0265  -7.9354  -7.8951  -7.6211  -7.5193  -7.4355
    -7.4084  -7.2970  -7.2069  -7.0989  -7.0764  -6.7807  -6.7464  -6.4868
    -6.3969  -6.3209  -6.2771  -6.0763  -5.8967  -5.8391  -5.7801  -5.7548
    -5.7282  -5.6046  -5.5695  -5.3888  -5.3560  -5.1916  -5.1097  -5.0822
    -4.8338  -4.6707  -4.6264  -4.5515  -4.2944  -4.1175  -4.0635  -3.7878
    -3.7532  -3.6527  -3.4659  -3.3580  -3.3173  -3.0129  -2.8597  -2.8568
    -2.6635  -2.5169  -2.4441  -2.2621  -2.1223  -2.0508  -1.9962  -1.9443
    -1.8899  -1.7367  -1.5183  -1.4896  -1.3257  -1.3172  -1.3022  -1.1371
    -1.1261  -1.0767  -0.6879  -0.6572  -0.2720   1.0918   1.2552   1.2687
     1.4202   1.4795   1.7306   1.8711   1.8761   1.9086   1.9243   2.0088
     2.0091   2.8426   2.9304   3.5272   4.0190   4.0385   4.9577   5.2256
     5.3150   5.5561   5.8087   6.0141   6.0197   6.1060   6.5798   6.6652
     6.7256   7.0149   7.0649   7.2702   7.7128   7.7672   7.8476   7.8671
     8.1741   8.2200   8.2962   8.3191   8.3519   8.4295   8.4849   8.4922
     8.5154   8.5157   8.5516   8.6723   8.6745   8.6860   8.7145   8.8845
     8.9165   8.9622   9.0613   9.0647   9.2275   9.3008   9.3071   9.4462
     9.4581   9.4609   9.5057   9.5476   9.6052   9.6908   9.7286   9.8144
     9.8414  10.0286  10.0989  10.1546  10.1985  10.2529  10.3859  10.4007
    10.6462  10.7443  11.0240  11.0748  11.1049  11.1780  11.2194  11.3685
    11.4830  11.4956  11.6692  11.7908  11.7982  11.9017  11.9330  11.9974
    12.0929  12.2209  12.2947  12.4082  12.5311  12.6046  12.7123  12.8185
    12.9258  12.9411  12.9872  13.0582  13.1285  13.1878  13.2414  13.2749
    13.2920  13.3589  13.4895  13.4928  13.5291  13.6498  13.7874  13.8060
    13.8340  14.0363  14.0904  14.1566  14.2003  14.2581  14.3921  14.5269
    14.5491  14.7156  14.7637  14.8141  14.9956  15.0308  15.1773  15.2154
    15.2567  15.3001  15.4412  15.6309  15.9245  15.9420  15.9905  16.1164
    16.1298  16.1547  16.1680  16.1876  16.3706  16.3784  16.4282  16.4512
    16.6030  16.6160  16.7078  16.7547  16.7797  16.8047  16.8217  16.8504
    16.8817  16.9435  17.0010  17.0438  17.2368  17.2766  17.3667  17.5865
    17.6325  17.7208  17.7636  17.7796  17.9685  18.0052  18.1353  18.1811
    18.1940  18.2891  18.3434  18.3955  18.4508  18.5565  18.6416  18.7035
    18.7588  18.8605  18.8770  18.9085  18.9433  19.0772  19.1252  19.1474
    19.2248  19.3059  19.3219  19.4156  19.5292  19.5439  19.6329  19.6906
    19.7111  19.8370  19.8760  19.9440  20.0340  20.0898  20.1098  20.1371
    20.1787  20.2114  20.2973  20.3145  20.3808  20.4564  20.4863  20.5278
    20.5363  20.6049  20.6760  20.6832  20.7504  20.8204  20.8835  20.9068
    21.0118  21.0297  21.0813  21.0988  21.1164  21.1366  21.1760  21.2045
    21.2593  21.3076  21.4460  21.5084  21.5223

          k =-0.5000 0.2476 0.0000 ( 31120 PWs)   bands (ev):

   -52.4581 -52.1151 -52.1047 -51.5710 -51.5706 -51.4307 -51.4267 -51.4126
   -51.4076 -51.3597 -51.3594 -51.2550 -51.2327 -51.2099 -51.2062 -51.1877
   -51.1736 -51.1506 -51.1486 -51.0640 -51.0637 -51.0562 -51.0529 -50.8418
   -21.6080 -21.5776 -21.2072 -21.1370 -21.0077 -20.9742 -20.8915 -20.7902
   -20.4601 -20.4558 -20.3688 -20.3669 -20.2711 -20.2556 -19.9258 -19.9066
   -19.0009 -18.9601 -18.6274  -9.6905  -9.6626  -9.5429  -9.5350  -9.5305
    -9.5136  -9.0104  -8.9369  -8.8729  -8.8610  -8.6412  -8.5912  -8.5119
    -8.4540  -8.1461  -8.0986  -7.9856  -7.9414  -7.7720  -7.7463  -7.5975
    -7.5788  -7.3639  -7.2364  -7.1641  -7.0630  -6.8024  -6.7388  -6.5365
    -6.4873  -6.4314  -6.3603  -6.1964  -6.0842  -6.0651  -6.0283  -5.9694
    -5.9514  -5.8581  -5.8068  -5.5277  -5.5129  -5.2369  -5.0752  -4.8504
    -4.8033  -4.6975  -4.5886  -4.5193  -4.3406  -4.1423  -3.9409  -3.8664
    -3.7410  -3.6628  -3.3979  -3.2596  -2.8936  -2.8715  -2.6668  -2.5856
    -2.5108  -2.4299  -2.4156  -2.3320  -2.2821  -2.1914  -2.0732  -1.9888
    -1.7287  -1.6776  -1.4784  -1.4416  -1.3120  -1.2859  -1.2529  -1.1654
    -1.1422  -1.0913  -0.8590  -0.7294  -0.1470   0.9284   1.0545   1.1919
     1.2332   1.3503   1.3655   1.7013   1.7351   2.0939   2.1783   2.4586
     2.4612   2.8159   3.0023   3.5724   4.2618   4.2721   5.0880   5.4687
     5.5265   5.7867   5.9451   6.0084   6.1450   6.2541   6.3100   6.3939
     6.7987   7.0340   7.1397   7.2630   7.3238   7.4511   7.4883   7.5577
     7.7130   7.8581   7.9058   7.9377   8.0792   8.0925   8.3544   8.4053
     8.4848   8.4932   8.5147   8.5152   8.5291   8.5921   8.6719   8.6745
     8.7110   8.7175   8.7544   8.8582   8.9194   9.0701   9.1930   9.2977
     9.4782   9.5428   9.5569   9.6967   9.7738   9.9349   9.9470  10.1026
    10.1398  10.3172  10.3834  10.4019  10.7152  10.8183  10.9176  10.9371
    11.1473  11.1686  11.2418  11.3719  11.4320  11.5482  11.5702  11.5984
    11.6755  11.7336  11.8859  11.9495  12.1312  12.1845  12.2388  12.2990
    12.4005  12.4546  12.4715  12.5714  12.6465  12.8265  12.8951  12.9686
    13.1001  13.1202  13.1665  13.1713  13.2653  13.2822  13.4077  13.4612
    13.4875  13.6368  13.6493  13.6968  13.7065  13.7803  13.8000  13.8927
    13.9979  14.0355  14.2484  14.2809  14.3487  14.3720  14.4782  14.5208
    14.5631  14.6259  14.6505  14.7717  14.8884  14.9092  14.9977  15.0271
    15.0739  15.0978  15.2939  15.3090  15.3483  15.3782  15.5070  15.6373
    15.6993  15.7278  15.9352  16.0088  16.1333  16.2061  16.2702  16.3524
    16.3747  16.4219  16.4477  16.5164  16.5589  16.5778  16.7298  16.8017
    16.8142  16.8419  16.9268  17.0087  17.0311  17.0789  17.1472  17.2875
    17.3153  17.4847  17.4958  17.5137  17.5963  17.6692  17.7912  17.8765
    17.9182  17.9318  18.0382  18.0616  18.1518  18.2649  18.3970  18.4578
    18.5022  18.5284  18.6441  18.6706  18.6748  18.7859  18.8292  18.8962
    18.9573  19.0273  19.0439  19.1362  19.1527  19.2396  19.2723  19.3943
    19.4389  19.5080  19.5496  19.6450  19.7598  19.7839  19.8554  19.8637
    19.9862  20.0384  20.1001  20.1694  20.2501  20.2782  20.3147  20.3873
    20.4729  20.5488  20.6146  20.7586  20.7744  20.8510  20.8790  20.9195
    20.9372  21.1715  21.2278  21.3061  21.3688  21.4607  21.5396  21.5719
    21.5889  21.6680  21.6901  21.7389  21.7712

          k =-0.5000-0.4953 0.0000 ( 31140 PWs)   bands (ev):

   -52.4581 -52.1152 -52.1046 -51.5712 -51.5706 -51.4309 -51.4268 -51.4126
   -51.4077 -51.3597 -51.3594 -51.2527 -51.2278 -51.2129 -51.2103 -51.1876
   -51.1736 -51.1504 -51.1485 -51.0640 -51.0637 -51.0562 -51.0529 -50.8420
   -21.5757 -21.5475 -21.1303 -20.9713 -20.9467 -20.9459 -20.7095 -20.6748
   -20.6569 -20.6480 -20.5853 -20.5570 -20.2826 -20.2684 -19.9246 -19.9051
   -18.9969 -18.9590 -18.6284  -9.6611  -9.6445  -9.0300  -9.0197  -8.9873
    -8.8882  -8.8583  -8.8471  -8.8182  -8.7562  -8.5511  -8.4857  -8.4574
    -8.3909  -8.3123  -8.3011  -8.2520  -8.1777  -8.1129  -8.0938  -7.7432
    -7.6137  -7.3058  -7.2295  -7.0727  -6.9374  -6.8943  -6.8379  -6.7906
    -6.7453  -6.6615  -6.6536  -6.5590  -6.4944  -6.4696  -6.3387  -6.2387
    -6.1540  -5.9449  -5.8188  -5.3742  -5.2541  -5.1659  -4.9685  -4.8439
    -4.7293  -4.6028  -4.4986  -4.4448  -4.3820  -4.2163  -3.8593  -3.7679
    -3.5306  -3.4659  -3.4238  -3.2013  -2.9745  -2.8634  -2.7148  -2.6643
    -2.5936  -2.4874  -2.4463  -2.1753  -2.1336  -2.0890  -2.0063  -1.7854
    -1.6100  -1.5643  -1.4322  -1.3692  -1.3612  -1.2833  -1.2397  -1.1662
    -1.1300  -1.0069  -0.9320  -0.8606  -0.0580   0.4904   0.7733   0.8051
     0.9767   1.1778   1.3673   1.7962   1.8036   2.4506   2.4630   2.5002
     2.6501   3.0774   3.1407   3.3430   4.7150   4.7154   5.3092   5.3375
     5.3488   6.1603   6.1939   6.3268   6.3294   6.4391   6.4596   6.5879
     6.6800   6.8138   6.8827   6.9532   6.9620   7.0056   7.0283   7.1146
     7.5153   7.5472   7.6805   7.7130   7.8151   7.8744   8.0360   8.0466
     8.1861   8.4721   8.4855   8.4939   8.5152   8.5153   8.6674   8.6730
     8.6923   8.7142   8.8227   8.9130   8.9393   9.0365   9.1387   9.2680
     9.3484   9.4186   9.7998   9.8428   9.9376  10.0312  10.0384  10.1352
    10.1576  10.1772  10.3954  10.5596  10.8023  10.9479  10.9906  11.0223
    11.1971  11.2470  11.5890  11.6649  11.8223  11.9516  11.9835  12.0936
    12.2039  12.2449  12.2952  12.3577  12.5778  12.5994  12.6473  12.8001
    12.8146  12.8769  13.0202  13.0646  13.0823  13.2630  13.3093  13.3222
    13.4398  13.4559  13.5858  13.6231  13.6882  13.6928  13.7183  13.7302
    13.8418  13.8489  13.9247  13.9926  14.0020  14.0062  14.0423  14.0599
    14.1094  14.1289  14.2016  14.2367  14.2495  14.2669  14.2881  14.3172
    14.4602  14.4998  14.5356  14.5722  14.6417  14.6666  14.7021  14.7467
    14.8987  15.0740  15.1147  15.1522  15.2017  15.2546  15.2782  15.3096
    15.3609  15.3749  15.3991  15.4088  15.4701  15.5638  15.6026  15.6299
    15.8137  15.8316  15.8507  15.9113  15.9283  15.9939  16.0109  16.1406
    16.2977  16.3271  16.5288  16.6003  16.7553  16.7830  16.8928  16.9015
    16.9735  17.0147  17.0334  17.0790  17.2171  17.2849  17.3404  17.4266
    17.6806  17.7932  17.8031  17.9670  18.0740  18.1330  18.1597  18.1742
    18.3073  18.3264  18.4105  18.4606  18.5876  18.6948  18.8241  18.9655
    18.9927  19.1280  19.1578  19.3512  19.3803  19.4168  19.4628  19.5609
    19.7046  19.7263  19.7917  19.8891  19.9220  20.1008  20.1128  20.1898
    20.1929  20.2835  20.3765  20.5680  20.5799  20.6355  20.6667  20.7219
    20.7420  20.8215  20.9495  21.1003  21.1234  21.1582  21.1829  21.2111
    21.2613  21.2844  21.3113  21.3163  21.3879  21.4420  21.4695  21.5230
    21.5908  21.6174  21.6408  21.6754  21.6876

          k =-0.2500 0.2476 0.0000 ( 31099 PWs)   bands (ev):

   -52.4581 -52.1163 -52.1047 -51.5730 -51.5686 -51.4618 -51.4194 -51.4100
   -51.3936 -51.3877 -51.3240 -51.2565 -51.2306 -51.2099 -51.2068 -51.1863
   -51.1852 -51.1708 -51.1165 -51.0690 -51.0601 -51.0586 -51.0486 -50.8418
   -21.8465 -21.4130 -21.3627 -21.2775 -21.0368 -20.8374 -20.7621 -20.7384
   -20.5596 -20.5105 -20.3904 -20.2654 -20.2419 -20.1461 -19.9961 -19.8293
   -18.9747 -18.8878 -18.6280 -10.0580  -9.9145  -9.8800  -9.5193  -9.2164
    -9.1025  -9.0037  -8.9454  -8.8800  -8.8251  -8.8066  -8.7689  -8.6863
    -8.6278  -8.3211  -8.2512  -8.1690  -7.9636  -7.8317  -7.7351  -7.6362
    -7.4006  -7.3334  -7.1283  -6.8956  -6.7811  -6.6048  -6.5726  -6.4948
    -6.4623  -6.4140  -6.2905  -6.2236  -6.1295  -6.0885  -6.0068  -5.8101
    -5.7247  -5.5576  -5.4600  -5.3115  -5.2194  -5.0742  -5.0119  -4.9165
    -4.8041  -4.6200  -4.5277  -4.4456  -4.3679  -4.1841  -4.0279  -3.8702
    -3.6871  -3.5829  -3.4351  -3.3506  -3.1297  -2.8407  -2.8002  -2.7409
    -2.6989  -2.5913  -2.5651  -2.4811  -2.4310  -2.4100  -2.3176  -2.1879
    -2.0326  -1.8813  -1.7251  -1.4793  -1.4031  -1.2914  -1.1299  -1.0129
    -0.9613  -0.8482  -0.7424  -0.5434  -0.2785   0.4623   0.5643   0.9431
     1.2590   1.3468   1.7298   1.8868   2.2059   2.3506   2.4131   2.6199
     2.7368   2.9204   2.9514   3.4608   3.6986   4.5265   4.8910   5.3036
     5.3589   5.4848   5.6084   6.2232   6.4400   6.4744   6.6509   6.7993
     6.8926   6.9263   7.1530   7.2341   7.3189   7.3644   7.5543   7.7129
     7.8142   7.8336   7.9052   7.9996   8.1324   8.1879   8.3042   8.3902
     8.4848   8.4940   8.5150   8.5153   8.5520   8.6604   8.6734   8.6791
     8.7139   8.7843   8.8925   8.9652   9.0289   9.0619   9.2256   9.3197
     9.3739   9.5966   9.6589   9.7219   9.7829   9.8969   9.9661  10.0826
    10.2063  10.2760  10.3828  10.4820  10.5088  10.6250  10.7106  10.7789
    10.8927  10.9820  11.0319  11.1205  11.1672  11.2928  11.4140  11.5727
    11.6257  11.6513  11.7596  11.8387  11.8941  11.9327  12.0630  12.1599
    12.2341  12.2589  12.3852  12.4055  12.5641  12.6136  12.6909  12.7284
    12.7975  12.8293  12.9004  12.9535  13.0256  13.0662  13.1558  13.2033
    13.2888  13.3689  13.4412  13.5081  13.5890  13.8048  13.8838  13.9588
    13.9894  14.0710  14.1516  14.2061  14.2703  14.4017  14.4768  14.5943
    14.6497  14.7229  14.8123  14.8962  15.0192  15.1187  15.2082  15.2508
    15.3674  15.4158  15.5544  15.6242  15.6680  15.7471  15.8327  15.8590
    15.9290  15.9933  16.0796  16.1448  16.1576  16.2629  16.3134  16.3531
    16.4550  16.4857  16.5419  16.5997  16.6601  16.7251  16.7647  16.8070
    16.8957  17.0026  17.1243  17.2378  17.2705  17.3419  17.3867  17.4894
    17.5101  17.5812  17.6103  17.6875  17.7326  17.8215  17.9082  17.9403
    17.9875  18.0559  18.1140  18.1737  18.2331  18.2666  18.3916  18.4594
    18.5778  18.6262  18.6408  18.7520  18.7922  18.9182  18.9974  19.0386
    19.1016  19.1186  19.1975  19.2486  19.2761  19.3515  19.4429  19.4817
    19.5722  19.6211  19.6893  19.7741  19.8252  19.9258  19.9744  20.0688
    20.1777  20.2713  20.3374  20.3634  20.4340  20.4748  20.5612  20.6396
    20.6591  20.7102  20.7511  20.7970  20.8481  20.9190  21.0406  21.0775
    21.1800  21.2844  21.3730  21.4192  21.5033  21.5422  21.5949  21.6939
    21.7311  21.7885  21.8305  21.8736  21.9192

 ------ SPIN DOWN ----------


          k = 0.0000 0.0000 0.0000 ( 31045 PWs)   bands (ev):

   -52.4580 -52.1174 -52.1049 -51.5739 -51.5676 -51.4758 -51.4201 -51.4140
   -51.4031 -51.3739 -51.3091 -51.2606 -51.2297 -51.2092 -51.2039 -51.1989
   -51.1848 -51.1715 -51.1028 -51.0711 -51.0621 -51.0565 -51.0460 -50.8417
   -22.0301 -21.5660 -21.4172 -21.3918 -20.9466 -20.7532 -20.7206 -20.6261
   -20.5817 -20.5354 -20.4396 -20.2866 -20.0585 -20.0201 -19.9274 -19.7986
   -18.9367 -18.8377 -18.6248 -10.5658 -10.5575 -10.1689  -9.2739  -9.1009
    -9.0116  -8.9997  -8.9941  -8.9658  -8.9529  -8.9179  -8.8765  -8.6755
    -8.5934  -8.5235  -8.2939  -8.2912  -8.2246  -8.1168  -7.9926  -7.6649
    -7.4363  -7.3014  -7.2101  -6.7875  -6.7315  -6.6907  -6.3448  -6.1227
    -6.0418  -5.9414  -5.8962  -5.8367  -5.8036  -5.6676  -5.6067  -5.5030
    -5.4107  -5.3615  -5.2046  -5.1075  -5.0682  -4.8988  -4.8408  -4.8310
    -4.7324  -4.5279  -4.3507  -4.2926  -4.2359  -4.1939  -3.8347  -3.7771
    -3.7358  -3.7085  -3.6394  -3.4579  -3.4198  -3.3875  -3.2329  -3.1983
    -2.9367  -2.8983  -2.8453  -2.6664  -2.6032  -2.4527  -2.2732  -2.1326
    -1.9643  -1.9199  -1.8145  -1.7651  -1.7535  -1.2941  -1.1735  -0.9453
    -0.8617  -0.7393  -0.6701  -0.4288  -0.1797   0.5532   0.9412   0.9810
     1.0610   1.1122   1.2843   1.7047   2.0013   2.2214   2.6428   2.7435
     2.8395   2.8536   3.0140   3.4074   3.9244   3.9903   4.4457   4.9804
     5.1305   5.7998   6.0058   6.0261   6.1337   6.6648   6.8881   7.0278
     7.3539   7.4164   7.5645   7.6619   7.6761   7.7126   7.8115   7.8727
     7.9247   7.9398   7.9861   8.1390   8.2095   8.3391   8.4360   8.4844
     8.4900   8.4934   8.5125   8.5149   8.5158   8.6626   8.6696   8.6751
     8.6816   8.7129   8.7575   8.7926   8.9493   9.0055   9.1470   9.2117
     9.2878   9.3145   9.3414   9.4907   9.5510   9.8346   9.8497  10.0111
    10.1140  10.2276  10.2871  10.3284  10.4767  10.5591  10.5721  10.6634
    10.8765  10.9950  11.0758  11.1512  11.1533  11.1881  11.2325  11.2374
    11.2910  11.4977  11.5017  11.7231  11.7545  11.7630  11.8511  11.9288
    11.9896  12.0733  12.1526  12.2055  12.2133  12.3419  12.3886  12.4412
    12.5379  12.5574  12.5888  12.6357  12.8143  12.8699  12.9047  12.9615
    13.0003  13.1355  13.1961  13.3460  13.4821  13.6070  13.7459  13.7704
    13.8321  13.8959  13.9188  14.0869  14.1400  14.1836  14.3406  14.4078
    14.5587  14.5635  14.5710  14.6326  14.7456  14.7845  14.9497  15.0583
    15.2378  15.3212  15.3635  15.5066  15.5672  15.7149  15.7523  15.7823
    15.8489  15.9874  16.0336  16.1018  16.1626  16.2044  16.2790  16.4471
    16.4673  16.6762  16.8216  16.8761  17.0779  17.1031  17.2144  17.2511
    17.3135  17.3813  17.4173  17.5045  17.6125  17.6401  17.6826  17.8953
    17.9709  17.9978  18.0981  18.2408  18.3931  18.4151  18.5072  18.6132
    18.6252  18.6541  18.7914  18.8942  18.9511  19.0120  19.0669  19.0888
    19.1197  19.1704  19.2469  19.3056  19.3191  19.4110  19.4612  19.5672
    19.6609  19.6859  19.7452  19.7571  19.7728  19.8179  19.8727  19.9507
    19.9615  19.9812  19.9876  20.1348  20.2064  20.2987  20.3387  20.5133
    20.5437  20.5775  20.6477  20.7297  20.7634  20.8186  20.9187  20.9517
    21.0928  21.1606  21.1912  21.2413  21.2550  21.3800  21.3991  21.5115
    21.5495  21.6340  21.6673  21.7774  21.8148  21.8350  21.8931  21.9344
    22.0034  22.1327  22.1528  22.2116  22.2595

          k = 0.0000 0.2476 0.0000 ( 31078 PWs)   bands (ev):

   -52.4581 -52.1175 -52.1047 -51.5739 -51.5677 -51.4762 -51.4202 -51.4140
   -51.4031 -51.3738 -51.3091 -51.2572 -51.2293 -51.2099 -51.2075 -51.1981
   -51.1847 -51.1715 -51.1028 -51.0711 -51.0622 -51.0565 -51.0460 -50.8418
   -21.9546 -21.4579 -21.3957 -21.3854 -20.9425 -20.8170 -20.7668 -20.7306
   -20.6315 -20.4258 -20.3449 -20.2885 -20.1748 -20.0998 -20.0061 -19.7995
   -18.9325 -18.8329 -18.6282 -10.2273 -10.0697 -10.0245  -9.5551  -9.1902
    -9.0849  -9.0006  -8.9626  -8.9404  -8.9257  -8.8442  -8.7826  -8.6683
    -8.5883  -8.4478  -8.3396  -8.2934  -8.2689  -7.8761  -7.5948  -7.3835
    -7.3474  -7.3096  -7.0864  -6.8161  -6.8019  -6.7483  -6.6649  -6.5087
    -6.4711  -6.3004  -6.0471  -5.9926  -5.9107  -5.8657  -5.6750  -5.4997
    -5.4230  -5.3873  -5.3370  -5.3289  -5.1958  -5.0301  -4.8633  -4.7454
    -4.6792  -4.6178  -4.5019  -4.2906  -4.2728  -4.2205  -3.9433  -3.9112
    -3.7637  -3.6504  -3.4092  -3.3860  -3.3075  -2.9929  -2.9882  -2.8954
    -2.8384  -2.7770  -2.6964  -2.6828  -2.6641  -2.6451  -2.5359  -2.4143
    -2.3059  -1.9690  -1.7756  -1.7553  -1.4810  -1.2039  -1.0234  -0.9054
    -0.8281  -0.6636  -0.6358  -0.4772  -0.3369   0.2173   0.3370   0.8609
     1.0848   1.2649   1.8193   2.2169   2.5282   2.5625   2.6144   2.7525
     2.8727   2.9102   3.0753   3.4096   3.7529   4.2346   4.6516   5.1224
     5.2393   5.3579   6.0960   6.1620   6.2219   6.3843   6.5367   6.7857
     6.8605   6.9629   7.2111   7.4927   7.5034   7.5907   7.7127   7.7600
     7.9488   8.0148   8.0723   8.1460   8.3113   8.3362   8.4528   8.4834
     8.4862   8.4939   8.5152   8.5160   8.5931   8.6717   8.6746   8.6803
     8.7141   8.7871   8.8160   8.9893   9.0270   9.1697   9.1992   9.3645
     9.3825   9.4787   9.6075   9.7024   9.7843   9.7873   9.9120  10.1077
    10.1773  10.2714  10.3266  10.4146  10.4296  10.4838  10.5794  10.6039
    10.7348  10.7444  10.7871  10.8807  11.0109  11.0167  11.1735  11.2599
    11.3671  11.4289  11.4617  11.5792  11.6552  11.6921  11.7491  11.8031
    12.0328  12.0863  12.2543  12.3056  12.3879  12.5210  12.6096  12.6240
    12.7360  12.8396  12.8682  12.9385  13.0038  13.0641  13.1184  13.2207
    13.3019  13.5589  13.6167  13.7230  13.8255  13.8479  13.9030  14.0427
    14.0897  14.1146  14.1864  14.1985  14.3433  14.4486  14.5190  14.5885
    14.6195  14.6853  14.8384  14.8416  14.9465  14.9683  15.0006  15.0707
    15.3237  15.3570  15.4478  15.5956  15.7058  15.7475  15.7904  15.9451
    15.9693  15.9847  16.0759  16.1799  16.2031  16.2558  16.2975  16.3313
    16.3529  16.4760  16.5587  16.6718  16.7411  16.8152  16.9118  17.0747
    17.0950  17.1080  17.1234  17.2606  17.2873  17.3469  17.4185  17.5386
    17.5881  17.6324  17.7208  17.7873  18.1107  18.1362  18.1999  18.4370
    18.4631  18.5610  18.5759  18.6140  18.7115  18.7559  18.8090  18.8770
    18.9289  19.0154  19.0613  19.1252  19.1522  19.2572  19.3061  19.3804
    19.4531  19.5218  19.5419  19.5604  19.6461  19.7021  19.7199  19.7470
    19.7967  19.8370  19.8966  19.9887  20.0475  20.0555  20.1306  20.1722
    20.1983  20.2419  20.3491  20.3622  20.4163  20.4790  20.7212  20.7524
    20.8468  20.8562  20.9272  20.9400  20.9969  21.0184  21.0470  21.0838
    21.1063  21.1746  21.2389  21.2808  21.4331  21.4634  21.5060  21.5890
    21.6589  21.7562  21.7938  21.8098  21.8680

          k = 0.0000-0.4953 0.0000 ( 31160 PWs)   bands (ev):

   -52.4581 -52.1176 -52.1046 -51.5740 -51.5678 -51.4766 -51.4202 -51.4140
   -51.4032 -51.3738 -51.3091 -51.2537 -51.2271 -51.2157 -51.2079 -51.1973
   -51.1846 -51.1715 -51.1029 -51.0712 -51.0622 -51.0565 -51.0460 -50.8419
   -21.8699 -21.3956 -21.3895 -21.2598 -20.9213 -20.8796 -20.8063 -20.7926
   -20.7381 -20.3626 -20.3325 -20.2887 -20.2819 -20.1948 -20.0247 -19.8004
   -18.9282 -18.8285 -18.6324 -10.1863  -9.7289  -9.4112  -9.3337  -9.2883
    -9.0615  -8.9989  -8.9842  -8.9009  -8.8667  -8.6735  -8.6223  -8.5809
    -8.5427  -8.4842  -8.3485  -8.2947  -8.2404  -7.6497  -7.6219  -7.5822
    -7.4982  -7.4465  -7.4211  -7.1906  -6.8872  -6.8197  -6.6110  -6.4621
    -6.3611  -6.3555  -6.2731  -6.2565  -6.1780  -6.0314  -5.9284  -5.9036
    -5.5510  -5.4068  -5.2725  -5.2451  -5.2124  -4.8791  -4.6746  -4.6475
    -4.6379  -4.5740  -4.4443  -4.3785  -4.2612  -4.2474  -4.2245  -3.9140
    -3.7098  -3.6937  -3.5274  -3.3432  -3.2873  -3.2611  -3.2356  -2.8958
    -2.8717  -2.6918  -2.6530  -2.5987  -2.4993  -2.3811  -2.3313  -2.3036
    -2.2437  -1.8699  -1.8000  -1.6546  -1.4911  -1.4291  -1.2034  -0.8483
    -0.8039  -0.5863  -0.5230  -0.4862  -0.3560  -0.1908  -0.0492   0.9516
     1.1041   1.8218   2.0399   2.2142   2.3005   2.4708   2.9036   2.9806
     3.0929   3.2926   3.3613   3.4101   3.7912   4.3385   4.8559   5.2426
     5.3089   5.4714   5.7163   5.9237   5.9879   6.0678   6.3244   6.5915
     6.7285   6.8581   7.0619   7.0708   7.1547   7.6066   7.7128   7.7603
     8.0164   8.1875   8.2287   8.2577   8.3846   8.4302   8.4690   8.4861
     8.4944   8.5046   8.5152   8.5155   8.6706   8.6734   8.7143   8.7990
     8.8746   8.9289   9.1099   9.1378   9.1452   9.1501   9.2213   9.2897
     9.3001   9.4162   9.4852   9.4931   9.6230   9.6791   9.7199   9.8805
     9.9408   9.9672  10.1635  10.1855  10.3022  10.3208  10.3377  10.3925
    10.5586  11.0412  11.0905  11.1361  11.1852  11.2819  11.3069  11.4024
    11.5737  11.6079  11.7512  11.8100  11.8742  12.1116  12.1332  12.2022
    12.2994  12.3921  12.4170  12.4464  12.5116  12.5196  12.6121  12.7895
    12.8018  13.0008  13.0483  13.1824  13.1908  13.2215  13.2759  13.2963
    13.3537  13.4854  13.5312  13.5672  13.5989  13.6467  13.7879  13.8730
    14.0437  14.1050  14.2882  14.4692  14.5810  14.6524  14.6762  14.8019
    14.8717  14.9437  15.0599  15.1311  15.1878  15.3094  15.3561  15.4210
    15.4861  15.5561  15.5994  15.6438  15.8043  15.8341  15.9291  16.0224
    16.0541  16.1487  16.1743  16.1873  16.2796  16.3828  16.4060  16.4555
    16.5211  16.5288  16.6282  16.6853  16.6993  16.7408  16.7850  16.8369
    16.8679  16.9067  16.9649  17.1194  17.1809  17.2438  17.3084  17.3450
    17.5404  17.5652  17.6193  17.7369  17.7533  17.8420  17.9094  17.9939
    18.0232  18.0643  18.0776  18.1456  18.2244  18.3088  18.3322  18.3985
    18.4261  18.5172  18.5241  18.5576  18.6072  18.7537  18.8090  18.9577
    19.0431  19.0674  19.1517  19.2360  19.4097  19.4207  19.4359  19.5757
    19.6134  19.6838  19.7459  19.8082  19.8658  19.9101  20.0697  20.1268
    20.1997  20.2629  20.3333  20.3566  20.4533  20.4667  20.4924  20.5211
    20.5343  20.5836  20.6221  20.6606  20.7298  20.7831  20.8499  20.9221
    20.9712  21.0128  21.0238  21.0760  21.0914  21.1341  21.1643  21.2335
    21.2415  21.2519  21.3281  21.4077  21.4341

          k = 0.2500 0.0000 0.0000 ( 31106 PWs)   bands (ev):

   -52.4581 -52.1162 -52.1048 -51.5730 -51.5686 -51.4614 -51.4194 -51.4100
   -51.3936 -51.3878 -51.3240 -51.2590 -51.2329 -51.2083 -51.2033 -51.1865
   -51.1856 -51.1709 -51.1165 -51.0690 -51.0601 -51.0586 -51.0486 -50.8417
   -21.9116 -21.4578 -21.4164 -21.3240 -21.0575 -20.8421 -20.7726 -20.7260
   -20.5050 -20.4672 -20.3687 -20.2832 -20.1080 -20.0152 -20.0046 -19.8292
   -18.9774 -18.8916 -18.6260 -10.3869 -10.3785 -10.0204  -9.4321  -9.3454
    -9.3017  -9.0021  -8.9934  -8.9075  -8.8824  -8.8096  -8.7885  -8.6628
    -8.4042  -8.3375  -8.2549  -8.1683  -8.0535  -8.0049  -7.9362  -7.6888
    -7.3759  -7.3570  -6.9777  -6.9371  -6.6602  -6.5407  -6.4184  -6.3646
    -6.3368  -6.1847  -6.0766  -5.9723  -5.9479  -5.8890  -5.8367  -5.5705
    -5.4626  -5.4141  -5.3070  -5.2013  -5.0963  -5.0434  -5.0032  -4.8659
    -4.8198  -4.7258  -4.5795  -4.4908  -4.4432  -4.2321  -4.0151  -3.7685
    -3.7109  -3.5981  -3.5783  -3.4677  -3.3900  -3.1054  -3.0028  -2.8752
    -2.7919  -2.6844  -2.5238  -2.4608  -2.3786  -2.3342  -2.0603  -2.0382
    -1.9303  -1.8772  -1.7798  -1.5791  -1.4352  -1.4058  -1.2234  -1.1778
    -0.9039  -0.8638  -0.6438  -0.4466  -0.3249   0.7526   1.0611   1.1296
     1.2358   1.3115   1.4167   1.7026   1.8423   2.0262   2.5043   2.6132
     2.6535   2.8048   2.9160   3.1412   3.8100   4.2871   4.6845   5.1147
     5.2028   5.3750   6.0265   6.1498   6.3679   6.3832   6.7098   6.9037
     7.0646   7.1648   7.3055   7.4792   7.6447   7.7127   7.7287   7.8015
     7.8851   7.9869   8.0168   8.1458   8.2331   8.3254   8.3764   8.4844
     8.4937   8.5152   8.5155   8.6674   8.6725   8.6777   8.7035   8.7148
     8.7500   8.8588   8.8848   8.9796   9.0934   9.1256   9.1975   9.2296
     9.4535   9.4718   9.5509   9.6862   9.8308  10.0022  10.0873  10.1267
    10.2290  10.2705  10.3607  10.3795  10.4318  10.5184  10.5753  10.6255
    10.6865  10.7261  10.7810  10.8306  10.9388  11.0649  11.1875  11.2357
    11.2928  11.3339  11.3840  11.4297  11.4785  11.5954  11.6396  11.7121
    11.8726  11.9733  12.1232  12.1862  12.3936  12.4312  12.5285  12.6028
    12.6331  12.6947  12.8557  12.9196  12.9923  13.0839  13.2839  13.2895
    13.4611  13.5211  13.6467  13.7922  13.8624  13.8914  13.9718  14.0159
    14.0946  14.1185  14.1467  14.1841  14.2527  14.3003  14.4449  14.4725
    14.5587  14.5992  14.6601  14.7580  14.7815  14.8581  15.0140  15.0478
    15.0850  15.3147  15.3460  15.5397  15.5733  15.6896  15.7032  15.7462
    15.7896  15.8694  16.0038  16.0373  16.1387  16.2026  16.3273  16.3602
    16.3871  16.3996  16.4715  16.5084  16.7216  16.7494  16.8674  17.0231
    17.1065  17.2412  17.3254  17.3956  17.4351  17.5410  17.6176  17.7005
    17.7979  17.8590  17.9962  18.0509  18.1255  18.2573  18.3016  18.3165
    18.4600  18.5162  18.6399  18.8428  18.8753  18.9701  19.0464  19.1211
    19.2191  19.2325  19.3006  19.3332  19.3709  19.4373  19.4745  19.5039
    19.5178  19.5720  19.6219  19.6573  19.6772  19.7469  19.7702  19.7923
    19.8599  19.9005  19.9177  19.9756  20.0524  20.1200  20.2043  20.2531
    20.2754  20.2972  20.3398  20.4020  20.4498  20.4757  20.5711  20.6085
    20.6541  20.7912  20.8812  20.8905  20.9856  21.0396  21.0613  21.0850
    21.1824  21.2159  21.2791  21.3563  21.3814  21.4885  21.5205  21.5785
    21.6102  21.6348  21.7217  21.7522  21.8753

          k = 0.2500 0.2476 0.0000 ( 31099 PWs)   bands (ev):

   -52.4581 -52.1163 -52.1047 -51.5730 -51.5686 -51.4617 -51.4194 -51.4100
   -51.3936 -51.3879 -51.3240 -51.2560 -51.2311 -51.2100 -51.2067 -51.1863
   -51.1852 -51.1708 -51.1165 -51.0690 -51.0601 -51.0586 -51.0486 -50.8418
   -21.8463 -21.4132 -21.3627 -21.2777 -21.0368 -20.8375 -20.7625 -20.7383
   -20.5598 -20.5080 -20.3903 -20.2670 -20.2424 -20.1461 -19.9952 -19.8297
   -18.9747 -18.8878 -18.6279 -10.0604  -9.9145  -9.8794  -9.5162  -9.2159
    -9.0895  -9.0039  -8.9469  -8.8897  -8.8407  -8.8075  -8.7648  -8.6732
    -8.6371  -8.3057  -8.2606  -8.1427  -7.9752  -7.8288  -7.7495  -7.6204
    -7.4103  -7.3864  -7.1384  -6.8727  -6.7678  -6.6182  -6.5581  -6.4849
    -6.4472  -6.3739  -6.2579  -6.2254  -6.2026  -6.1033  -5.9943  -5.8025
    -5.7288  -5.5651  -5.4580  -5.3317  -5.2106  -5.0725  -5.0239  -4.9078
    -4.7110  -4.6566  -4.6307  -4.4351  -4.3035  -4.1805  -4.0352  -3.8656
    -3.6517  -3.5769  -3.4918  -3.4116  -3.1121  -2.8411  -2.7717  -2.7066
    -2.6812  -2.6437  -2.5661  -2.4716  -2.4383  -2.3779  -2.3063  -2.1961
    -2.0348  -1.9213  -1.7098  -1.4770  -1.4108  -1.2891  -1.1190  -1.0075
    -0.9627  -0.8591  -0.7428  -0.5413  -0.2784   0.4626   0.5659   0.9432
     1.2592   1.3446   1.7294   1.8865   2.2103   2.3520   2.4066   2.6165
     2.7383   2.9229   2.9520   3.4648   3.6974   4.5264   4.8876   5.2838
     5.3358   5.4905   5.6018   6.2220   6.4455   6.5294   6.6457   6.7965
     6.9018   6.9686   7.1612   7.2276   7.3151   7.3577   7.5495   7.7129
     7.7992   7.8444   7.8834   8.0034   8.0951   8.2122   8.3168   8.4022
     8.4847   8.4940   8.5150   8.5153   8.5608   8.6476   8.6725   8.6771
     8.7138   8.7824   8.8647   8.9539   9.0353   9.0750   9.2171   9.2910
     9.3669   9.5882   9.6573   9.7098   9.8278   9.9107   9.9729  10.1248
    10.2322  10.2747  10.3963  10.4204  10.5161  10.6183  10.7002  10.7498
    10.8962  10.9907  11.0366  11.1264  11.1700  11.2796  11.3922  11.5818
    11.6142  11.6473  11.7740  11.8324  11.8883  11.9328  12.0665  12.1555
    12.2380  12.2448  12.3844  12.3995  12.5687  12.6088  12.6708  12.7360
    12.7820  12.8438  12.8843  12.9343  13.0094  13.0492  13.1610  13.1966
    13.2564  13.3848  13.4841  13.5080  13.6201  13.7888  13.8833  13.9473
    14.0090  14.0822  14.1417  14.2661  14.2880  14.4201  14.4711  14.5752
    14.6288  14.7785  14.8588  14.9189  15.0581  15.1234  15.2013  15.2364
    15.3317  15.4405  15.5684  15.6324  15.6660  15.7582  15.8324  15.8653
    15.9438  16.0048  16.0944  16.1409  16.1472  16.2532  16.2923  16.3729
    16.4571  16.4810  16.5431  16.5885  16.6625  16.7419  16.7776  16.8108
    16.9024  17.0152  17.0570  17.2030  17.2798  17.3591  17.3863  17.4400
    17.4971  17.5547  17.6277  17.6816  17.7124  17.7902  17.9005  17.9395
    17.9894  18.0733  18.1028  18.1846  18.2172  18.2666  18.4449  18.4827
    18.5520  18.5894  18.6694  18.7054  18.7747  18.8990  18.9615  19.0133
    19.0826  19.1395  19.1623  19.2623  19.2869  19.3370  19.4356  19.4936
    19.5617  19.6576  19.7110  19.7827  19.8097  19.9318  19.9927  20.0085
    20.1331  20.2652  20.3625  20.4142  20.4361  20.4852  20.5703  20.6049
    20.6629  20.7174  20.7554  20.8292  20.8793  20.9145  20.9655  21.0312
    21.1488  21.2976  21.3886  21.4422  21.4945  21.5474  21.5686  21.6999
[...]

     total energy              =   -2106.16345371 Ry
     Harris-Foulkes estimate   =   -2106.16371020 Ry
     estimated scf accuracy    <       0.00092234 Ry

     total magnetization       =     0.22 Bohr mag/cell
     absolute magnetization    =     0.37 Bohr mag/cell

     iteration # 70     ecut=    40.00 Ry     beta=0.70
     Davidson diagonalization with overlap
     ethr =  1.06E-09,  avg # of iterations =  3.0

     negative rho (up, down):  0.156E+01 0.156E+01

     total cpu time spent up to now is    63022.2 secs

     total energy              =   -2106.16348024 Ry
     Harris-Foulkes estimate   =   -2106.16367542 Ry
     estimated scf accuracy    <       0.00196481 Ry

     total magnetization       =     0.17 Bohr mag/cell
     absolute magnetization    =     0.28 Bohr mag/cell

     iteration # 71     ecut=    40.00 Ry     beta=0.70
     Davidson diagonalization with overlap
     ethr =  1.06E-09,  avg # of iterations =  3.2

     negative rho (up, down):  0.156E+01 0.156E+01

     total cpu time spent up to now is    63566.2 secs

     total energy              =   -2106.16391140 Ry
     Harris-Foulkes estimate   =   -2106.16392393 Ry
     estimated scf accuracy    <       0.00173323 Ry

     total magnetization       =     0.29 Bohr mag/cell
     absolute magnetization    =     0.48 Bohr mag/cell

     iteration # 72     ecut=    40.00 Ry     beta=0.70
     Davidson diagonalization with overlap
     ethr =  1.06E-09,  avg # of iterations =  3.0

     negative rho (up, down):  0.156E+01 0.156E+01

     total cpu time spent up to now is    64097.8 secs

     total energy              =   -2106.16410713 Ry
     Harris-Foulkes estimate   =   -2106.16413042 Ry
     estimated scf accuracy    <       0.00102891 Ry

     total magnetization       =     0.35 Bohr mag/cell
     absolute magnetization    =     0.60 Bohr mag/cell

     iteration # 73     ecut=    40.00 Ry     beta=0.70
     Davidson diagonalization with overlap
     ethr =  1.06E-09,  avg # of iterations =  3.0

     negative rho (up, down):  0.156E+01 0.156E+01

     total cpu time spent up to now is    64600.3 secs

     total energy              =   -2106.16411658 Ry
     Harris-Foulkes estimate   =   -2106.16417872 Ry
     estimated scf accuracy    <       0.00071937 Ry

     total magnetization       =     0.36 Bohr mag/cell
     absolute magnetization    =     0.62 Bohr mag/cell

     iteration # 74     ecut=    40.00 Ry     beta=0.70
     Davidson diagonalization with overlap
     ethr =  1.06E-09,  avg # of iterations =  3.0

     negative rho (up, down):  0.156E+01 0.156E+01

     total cpu time spent up to now is    65090.3 secs

     total energy              =   -2106.16414941 Ry
     Harris-Foulkes estimate   =   -2106.16415957 Ry
     estimated scf accuracy    <       0.00059601 Ry

     total magnetization       =     0.36 Bohr mag/cell
     absolute magnetization    =     0.62 Bohr mag/cell

     iteration # 75     ecut=    40.00 Ry     beta=0.70
     Davidson diagonalization with overlap
     ethr =  1.06E-09,  avg # of iterations =  2.0

     negative rho (up, down):  0.156E+01 0.156E+01

     total cpu time spent up to now is    65513.2 secs

     total energy              =   -2106.16420104 Ry
     Harris-Foulkes estimate   =   -2106.16415608 Ry
     estimated scf accuracy    <       0.00043781 Ry

     total magnetization       =     0.37 Bohr mag/cell
     absolute magnetization    =     0.63 Bohr mag/cell

     iteration # 76     ecut=    40.00 Ry     beta=0.70
     Davidson diagonalization with overlap
     ethr =  1.06E-09,  avg # of iterations =  3.0

     negative rho (up, down):  0.156E+01 0.156E+01

     total cpu time spent up to now is    66035.8 secs

     total energy              =   -2106.16360853 Ry
     Harris-Foulkes estimate   =   -2106.16474857 Ry
     estimated scf accuracy    <       0.02283219 Ry

     total magnetization       =     0.36 Bohr mag/cell
     absolute magnetization    =     0.64 Bohr mag/cell

     iteration # 77     ecut=    40.00 Ry     beta=0.70
     Davidson diagonalization with overlap
     ethr =  1.06E-09,  avg # of iterations =  3.0

     negative rho (up, down):  0.156E+01 0.156E+01

     total cpu time spent up to now is    66548.5 secs

     total energy              =   -2106.16417777 Ry
     Harris-Foulkes estimate   =   -2106.16417479 Ry
     estimated scf accuracy    <       0.00066824 Ry

     total magnetization       =     0.37 Bohr mag/cell
     absolute magnetization    =     0.63 Bohr mag/cell

     iteration # 78     ecut=    40.00 Ry     beta=0.70
     Davidson diagonalization with overlap
     ethr =  1.06E-09,  avg # of iterations =  3.0

     negative rho (up, down):  0.156E+01 0.156E+01

     total cpu time spent up to now is    67054.0 secs

     total energy              =   -2106.16427092 Ry
     Harris-Foulkes estimate   =   -2106.16430982 Ry
     estimated scf accuracy    <       0.00216315 Ry

     total magnetization       =     0.38 Bohr mag/cell
     absolute magnetization    =     0.65 Bohr mag/cell

     iteration # 79     ecut=    40.00 Ry     beta=0.70
     Davidson diagonalization with overlap
     ethr =  1.06E-09,  avg # of iterations =  3.0

     negative rho (up, down):  0.156E+01 0.156E+01

     total cpu time spent up to now is    67596.1 secs

     total energy              =   -2106.16435582 Ry
     Harris-Foulkes estimate   =   -2106.16469253 Ry
     estimated scf accuracy    <       0.00415998 Ry

     total magnetization       =     0.43 Bohr mag/cell
     absolute magnetization    =     0.74 Bohr mag/cell

     iteration # 80     ecut=    40.00 Ry     beta=0.70
     Davidson diagonalization with overlap
     ethr =  1.06E-09,  avg # of iterations =  3.4

     negative rho (up, down):  0.156E+01 0.156E+01

     total cpu time spent up to now is    68173.7 secs

     total energy              =   -2106.16444607 Ry
     Harris-Foulkes estimate   =   -2106.16520832 Ry
     estimated scf accuracy    <       0.00683523 Ry

     total magnetization       =     0.49 Bohr mag/cell
     absolute magnetization    =     0.86 Bohr mag/cell

     iteration # 81     ecut=    40.00 Ry     beta=0.70
     Davidson diagonalization with overlap
     ethr =  1.06E-09,  avg # of iterations =  3.0

     negative rho (up, down):  0.156E+01 0.156E+01

     total cpu time spent up to now is    68725.1 secs

     total energy              =   -2106.16486839 Ry
     Harris-Foulkes estimate   =   -2106.16485690 Ry
     estimated scf accuracy    <       0.00099389 Ry

     total magnetization       =     0.50 Bohr mag/cell
     absolute magnetization    =     0.88 Bohr mag/cell

     iteration # 82     ecut=    40.00 Ry     beta=0.70
     Davidson diagonalization with overlap
     ethr =  1.06E-09,  avg # of iterations =  2.0

     negative rho (up, down):  0.156E+01 0.156E+01

     total cpu time spent up to now is    69184.2 secs

     total energy              =   -2106.16485076 Ry
     Harris-Foulkes estimate   =   -2106.16489136 Ry
     estimated scf accuracy    <       0.00118794 Ry

     total magnetization       =     0.51 Bohr mag/cell
     absolute magnetization    =     0.89 Bohr mag/cell

     iteration # 83     ecut=    40.00 Ry     beta=0.70
     Davidson diagonalization with overlap
     ethr =  1.06E-09,  avg # of iterations =  2.8

     negative rho (up, down):  0.156E+01 0.156E+01

     total cpu time spent up to now is    69673.2 secs

     total energy              =   -2106.16483001 Ry
     Harris-Foulkes estimate   =   -2106.16487678 Ry
     estimated scf accuracy    <       0.00114100 Ry

     total magnetization       =     0.50 Bohr mag/cell
     absolute magnetization    =     0.87 Bohr mag/cell

     iteration # 84     ecut=    40.00 Ry     beta=0.70
     Davidson diagonalization with overlap
     ethr =  1.06E-09,  avg # of iterations =  3.0

     negative rho (up, down):  0.156E+01 0.156E+01

     total cpu time spent up to now is    70194.5 secs

     total energy              =   -2106.16486933 Ry
     Harris-Foulkes estimate   =   -2106.16496573 Ry
     estimated scf accuracy    <       0.00246007 Ry

     total magnetization       =     0.51 Bohr mag/cell
     absolute magnetization    =     0.89 Bohr mag/cell

     iteration # 85     ecut=    40.00 Ry     beta=0.70
     Davidson diagonalization with overlap
     ethr =  1.06E-09,  avg # of iterations =  3.0

     negative rho (up, down):  0.156E+01 0.156E+01

     total cpu time spent up to now is    70720.3 secs

     total energy              =   -2106.16491639 Ry
     Harris-Foulkes estimate   =   -2106.16501676 Ry
     estimated scf accuracy    <       0.00176100 Ry

     total magnetization       =     0.53 Bohr mag/cell
     absolute magnetization    =     0.92 Bohr mag/cell

     iteration # 86     ecut=    40.00 Ry     beta=0.70
     Davidson diagonalization with overlap
     ethr =  1.06E-09,  avg # of iterations =  3.0

     negative rho (up, down):  0.156E+01 0.156E+01

     total cpu time spent up to now is    71268.0 secs

     total energy              =   -2106.16417517 Ry
     Harris-Foulkes estimate   =   -2106.16586331 Ry
     estimated scf accuracy    <       0.03742191 Ry

     total magnetization       =     0.50 Bohr mag/cell
     absolute magnetization    =     0.91 Bohr mag/cell

     iteration # 87     ecut=    40.00 Ry     beta=0.70
     Davidson diagonalization with overlap
     ethr =  1.06E-09,  avg # of iterations =  4.2

     negative rho (up, down):  0.156E+01 0.156E+01

     total cpu time spent up to now is    71906.4 secs

     total energy              =   -2106.16441477 Ry
     Harris-Foulkes estimate   =   -2106.16630331 Ry
     estimated scf accuracy    <       0.01492223 Ry

     total magnetization       =     0.58 Bohr mag/cell
     absolute magnetization    =     1.01 Bohr mag/cell

     iteration # 88     ecut=    40.00 Ry     beta=0.70
     Davidson diagonalization with overlap
     ethr =  1.06E-09,  avg # of iterations =  4.0

     negative rho (up, down):  0.156E+01 0.156E+01

     total cpu time spent up to now is    72520.0 secs

     total energy              =   -2106.16487634 Ry
     Harris-Foulkes estimate   =   -2106.16649814 Ry
     estimated scf accuracy    <       0.01612927 Ry

     total magnetization       =     0.60 Bohr mag/cell
     absolute magnetization    =     1.09 Bohr mag/cell

     iteration # 89     ecut=    40.00 Ry     beta=0.70
     Davidson diagonalization with overlap
     ethr =  1.06E-09,  avg # of iterations =  3.2

     negative rho (up, down):  0.156E+01 0.156E+01

     total cpu time spent up to now is    73087.8 secs

     total energy              =   -2106.16561337 Ry
     Harris-Foulkes estimate   =   -2106.16602257 Ry
     estimated scf accuracy    <       0.00504945 Ry

     total magnetization       =     0.64 Bohr mag/cell
     absolute magnetization    =     1.14 Bohr mag/cell

     iteration # 90     ecut=    40.00 Ry     beta=0.70
     Davidson diagonalization with overlap
     ethr =  1.06E-09,  avg # of iterations =  3.0

     negative rho (up, down):  0.156E+01 0.156E+01

     total cpu time spent up to now is    73620.3 secs

     total energy              =   -2106.16592866 Ry
     Harris-Foulkes estimate   =   -2106.16588122 Ry
     estimated scf accuracy    <       0.00162004 Ry

     total magnetization       =     0.65 Bohr mag/cell
     absolute magnetization    =     1.17 Bohr mag/cell

     iteration # 91     ecut=    40.00 Ry     beta=0.70
     Davidson diagonalization with overlap
     ethr =  1.06E-09,  avg # of iterations =  3.0

     negative rho (up, down):  0.156E+01 0.156E+01

     total cpu time spent up to now is    74127.1 secs

     total energy              =   -2106.16583089 Ry
     Harris-Foulkes estimate   =   -2106.16601490 Ry
     estimated scf accuracy    <       0.00227131 Ry

     total magnetization       =     0.67 Bohr mag/cell
     absolute magnetization    =     1.19 Bohr mag/cell

     iteration # 92     ecut=    40.00 Ry     beta=0.70
     Davidson diagonalization with overlap
     ethr =  1.06E-09,  avg # of iterations =  3.0

     negative rho (up, down):  0.156E+01 0.156E+01

     total cpu time spent up to now is    74637.6 secs

     total energy              =   -2106.16566054 Ry
     Harris-Foulkes estimate   =   -2106.16594712 Ry
     estimated scf accuracy    <       0.00230711 Ry

     total magnetization       =     0.64 Bohr mag/cell
     absolute magnetization    =     1.17 Bohr mag/cell

     iteration # 93     ecut=    40.00 Ry     beta=0.70
     Davidson diagonalization with overlap
     ethr =  1.06E-09,  avg # of iterations =  4.0

     negative rho (up, down):  0.156E+01 0.156E+01

     total cpu time spent up to now is    75259.5 secs

     total energy              =   -2106.16429395 Ry
     Harris-Foulkes estimate   =   -2106.16761424 Ry
     estimated scf accuracy    <       0.02234358 Ry

     total magnetization       =     0.63 Bohr mag/cell
     absolute magnetization    =     1.17 Bohr mag/cell

     iteration # 94     ecut=    40.00 Ry     beta=0.70
     Davidson diagonalization with overlap
     ethr =  1.06E-09,  avg # of iterations =  4.0

     negative rho (up, down):  0.156E+01 0.156E+01

     total cpu time spent up to now is    75890.1 secs

     total energy              =   -2106.16547540 Ry
     Harris-Foulkes estimate   =   -2106.16732666 Ry
     estimated scf accuracy    <       0.01889643 Ry

     total magnetization       =     0.70 Bohr mag/cell
     absolute magnetization    =     1.24 Bohr mag/cell

     iteration # 95     ecut=    40.00 Ry     beta=0.70
     Davidson diagonalization with overlap
     ethr =  1.06E-09,  avg # of iterations =  4.0

     negative rho (up, down):  0.156E+01 0.156E+01

     total cpu time spent up to now is    76494.1 secs

     total energy              =   -2106.16661629 Ry
     Harris-Foulkes estimate   =   -2106.16682013 Ry
     estimated scf accuracy    <       0.00278812 Ry

     total magnetization       =     0.76 Bohr mag/cell
     absolute magnetization    =     1.38 Bohr mag/cell

     iteration # 96     ecut=    40.00 Ry     beta=0.70
     Davidson diagonalization with overlap
     ethr =  1.06E-09,  avg # of iterations =  3.7

     negative rho (up, down):  0.156E+01 0.156E+01

     total cpu time spent up to now is    77107.8 secs

     total energy              =   -2106.16450337 Ry
     Harris-Foulkes estimate   =   -2106.16916632 Ry
     estimated scf accuracy    <       0.08928263 Ry

     total magnetization       =     0.68 Bohr mag/cell
     absolute magnetization    =     1.37 Bohr mag/cell

     iteration # 97     ecut=    40.00 Ry     beta=0.70
     Davidson diagonalization with overlap
     ethr =  1.06E-09,  avg # of iterations =  4.3

     negative rho (up, down):  0.156E+01 0.156E+01

     total cpu time spent up to now is    77752.4 secs

     total energy              =   -2106.16666717 Ry
     Harris-Foulkes estimate   =   -2106.16717710 Ry
     estimated scf accuracy    <       0.00501875 Ry

     total magnetization       =     0.76 Bohr mag/cell
     absolute magnetization    =     1.41 Bohr mag/cell

     iteration # 98     ecut=    40.00 Ry     beta=0.70
     Davidson diagonalization with overlap
     ethr =  1.06E-09,  avg # of iterations =  3.0

     negative rho (up, down):  0.156E+01 0.156E+01

     total cpu time spent up to now is    78294.8 secs

     total energy              =   -2106.16707624 Ry
     Harris-Foulkes estimate   =   -2106.16707393 Ry
     estimated scf accuracy    <       0.00207991 Ry

     total magnetization       =     0.77 Bohr mag/cell
     absolute magnetization    =     1.45 Bohr mag/cell

     iteration # 99     ecut=    40.00 Ry     beta=0.70
     Davidson diagonalization with overlap
     ethr =  1.06E-09,  avg # of iterations =  3.0

     negative rho (up, down):  0.156E+01 0.156E+01

     total cpu time spent up to now is    78825.7 secs

     total energy              =   -2106.16708384 Ry
     Harris-Foulkes estimate   =   -2106.16731969 Ry
     estimated scf accuracy    <       0.00362705 Ry

     total magnetization       =     0.79 Bohr mag/cell
     absolute magnetization    =     1.48 Bohr mag/cell

     iteration #100     ecut=    40.00 Ry     beta=0.70
     Davidson diagonalization with overlap
     ethr =  1.06E-09,  avg # of iterations =  3.0

     negative rho (up, down):  0.156E+01 0.156E+01

     total cpu time spent up to now is    79352.5 secs

     total energy              =   -2106.16717317 Ry
     Harris-Foulkes estimate   =   -2106.16727946 Ry
     estimated scf accuracy    <       0.00131068 Ry

     total magnetization       =     0.80 Bohr mag/cell
     absolute magnetization    =     1.51 Bohr mag/cell

     End of self-consistent calculation

     convergence NOT achieved after 100 iterations: stopping

     init_run     :    110.66s CPU    146.85s WALL (       1 calls)
     electrons    :  59529.26s CPU  78880.31s WALL (       4 calls)
     update_pot   :     20.73s CPU     24.44s WALL (       3 calls)
     forces       :    213.10s CPU    234.85s WALL (       3 calls)

     Called by init_run:
     wfcinit      :     87.03s CPU    121.76s WALL (       1 calls)
     potinit      :      3.13s CPU      4.03s WALL (       1 calls)

     Called by electrons:
     c_bands      :  47644.92s CPU  62921.04s WALL (     170 calls)
     sum_band     :   8275.75s CPU  11737.67s WALL (     170 calls)
     v_of_rho     :    199.20s CPU    320.02s WALL (     174 calls)
     newd         :   3377.20s CPU   3719.87s WALL (     174 calls)
     mix_rho      :     39.65s CPU     68.40s WALL (     170 calls)

     Called by c_bands:
     init_us_2    :     47.31s CPU     47.91s WALL (    6880 calls)
     cegterg      :  47395.13s CPU  62669.59s WALL (    3400 calls)

     Called by *egterg:
     h_psi        :  23378.56s CPU  36884.94s WALL (   10863 calls)
     s_psi        :   1741.18s CPU   1742.67s WALL (   10863 calls)
     g_psi        :     37.75s CPU     37.75s WALL (    7443 calls)
     cdiaghg      :  12779.28s CPU  13168.39s WALL (   10783 calls)

     Called by h_psi:
     add_vuspsi   :   1761.04s CPU   1769.57s WALL (   10863 calls)

     General routines
     calbec       :   2747.74s CPU   3042.53s WALL (   14323 calls)
     fft          :    488.36s CPU    923.80s WALL (    5415 calls)
     ffts         :      6.02s CPU     11.67s WALL (     688 calls)
     fftw         :  21599.74s CPU  37948.11s WALL ( 6625352 calls)
     interpolate  :     42.51s CPU     77.93s WALL (     688 calls)
     davcio       :      0.00s CPU      0.17s WALL (      20 calls)

     Parallel routines
     fft_scatter  :  16052.00s CPU  32698.58s WALL ( 6631455 calls)

     PWSCF        :    16h38m CPU       22h 2m WALL


   This run was terminated on:   7:11:22   2Apr2014            

=------------------------------------------------------------------------------=
   JOB DONE.
=------------------------------------------------------------------------------=
STOP 1
STOP 1
STOP 1
STOP 1
STOP 1
STOP 1
STOP 1
STOP 1
STOP 1
STOP 1
STOP 1
STOP 1
STOP 1
STOP 1
STOP 1
STOP 1
--------------------------------------------------------------------------
mpirun noticed that the job aborted, but has no info as to the process
that caused that situation.
--------------------------------------------------------------------------
---------------------------------------
Running PBS batch system epilogue script
Job id: 320659.audhumbla.fysik.dtu.dk
Username: zhonxu
Groupname: campgst
Jobname: IrO2/Eads-2-layers/O-relax-surf
Sessionid: 4354
Resources limits: neednodes=2:ppn=8:xeon8,nodes=2:ppn=8:xeon8,walltime=48:00:00
Resources used: cput=352:27:04,mem=10289492kb,vmem=13759916kb,walltime=22:03:01
Queuename: verylong
Accounting:
This job has allocated the following 16 nodes:
a110 a110 a110 a110 a110 a110 a110 a110 a101 a101 a101 a101 a101 a101 a101 a101
Finished epilogue job 320659.audhumbla.fysik.dtu.dk for zhonxu
