
     Program PWSCF v.5.0.2 (svn rev. 9656) starts on  7Apr2014 at 20:32:37 

     This program is part of the open-source Quantum ESPRESSO suite
     for quantum simulation of materials; please cite
         "P. Giannozzi et al., J. Phys.:Condens. Matter 21 395502 (2009);
          URL http://www.quantum-espresso.org", 
     in publications or presentations arising from this work. More details at
     http://www.quantum-espresso.org/quote.php

     Parallel version (MPI), running on    16 processors
     R & G space division:  proc/nbgrp/npool/nimage =      16

     Current dimensions of program PWSCF are:
     Max number of different atomic species (ntypx) = 10
     Max number of k-points (npk) =  40000
     Max angular momentum in pseudopotentials (lmaxx) =  3
     Reading input from pwscf.in
Warning: card &CELL ignored
Warning: card / ignored

     Subspace diagonalization in iterative solution of the eigenvalue problem:
     a serial algorithm will be used


     Parallelization info
     --------------------
     sticks:   dense  smooth     PW     G-vecs:    dense   smooth      PW
     Min         362     116     32                85908    15544    2296
     Max         363     117     33                85921    15579    2307
     Sum        5803    1869    517              1374641   249013   36807



     bravais-lattice index     =            0
     lattice parameter (alat)  =      12.0187  a.u.
     unit-cell volume          =    7280.5819 (a.u.)^3
     number of atoms/cell      =           31
     number of atomic types    =            3
     number of electrons       =       238.00
     number of Kohn-Sham states=          357
     kinetic-energy cutoff     =      40.0000  Ry
     charge density cutoff     =     500.0000  Ry
     convergence threshold     =      1.0E-06
     mixing beta               =       0.3000
     number of iterations used =            8  plain     mixing
     Exchange-correlation      = SLA  PW   PBE  PBE ( 1 4 3 4 0)
     EXX-fraction              =        0.00
     nstep                     =           50


     celldm(1)=  12.018658  celldm(2)=   0.000000  celldm(3)=   0.000000
     celldm(4)=   0.000000  celldm(5)=   0.000000  celldm(6)=   0.000000

     crystal axes: (cart. coord. in units of alat)
               a(1) = (   1.000000   0.000000   0.000000 )  
               a(2) = (   0.000000   1.009517   0.000000 )  
               a(3) = (   0.000000   0.000000   4.154171 )  

     reciprocal axes: (cart. coord. in units 2 pi/alat)
               b(1) = (  1.000000  0.000000  0.000000 )  
               b(2) = (  0.000000  0.990572  0.000000 )  
               b(3) = (  0.000000  0.000000  0.240722 )  


     PseudoPot. # 1 for O  read from file:
     /home/camp/zhonxu/pseudo/o_pbe_v1.01.uspp.F.UPF
     MD5 check sum: 2bcb18d16ea4b960afae9ec6d52f22d2
     Pseudo is Ultrasoft + core correction, Zval =  6.0
     Generated by new atomic code, or converted to UPF format
     Using radial grid of  737 points,  5 beta functions with: 
                l(1) =   0
                l(2) =   0
                l(3) =   1
                l(4) =   1
                l(5) =   2
     Q(r) pseudized with  8 coefficients,  rinner =    0.900   0.900   0.900
                                                       0.900   0.900

     PseudoPot. # 2 for Ir read from file:
     /home/camp/zhonxu/pseudo/ir_pbe_v1.uspp.F.UPF
     MD5 check sum: abf987a9674477536ede83817f8f8b70
     Pseudo is Ultrasoft + core correction, Zval = 15.0
     Generated by new atomic code, or converted to UPF format
     Using radial grid of  983 points,  7 beta functions with: 
                l(1) =   0
                l(2) =   0
                l(3) =   1
                l(4) =   1
                l(5) =   1
                l(6) =   2
                l(7) =   2
     Q(r) pseudized with  8 coefficients,  rinner =    1.350   1.350   1.350
                                                       1.350   1.350

     PseudoPot. # 3 for H  read from file:
     /home/camp/zhonxu/pseudo/h_pbe_v1.uspp.F.UPF
     MD5 check sum: 3408e3ff4ec8b0a4e358431e7e038a48
     Pseudo is Ultrasoft, Zval =  1.0
     Generated by new atomic code, or converted to UPF format
     Using radial grid of  615 points,  2 beta functions with: 
                l(1) =   0
                l(2) =   0
     Q(r) pseudized with  8 coefficients,  rinner =    0.700

     atomic species   valence    mass     pseudopotential
        O0             6.00    15.99940     O ( 1.00)
        Ir1           15.00   192.22000     Ir( 1.00)
        H2             1.00     1.00794     H ( 1.00)

     Starting magnetic structure 
     atomic species   magnetization
        O0           0.000
        Ir1          0.000
        H2           0.000

     No symmetry found



   Cartesian axes

     site n.     atom                  positions (alat units)
         1           O0  tau(   1) = (   0.0000000   0.0000000   1.5732262  )
         2           O0  tau(   2) = (   0.0000000   0.5047586   1.6698522  )
         3           Ir1 tau(   3) = (   0.2500000   0.5047586   1.8782255  )
         4           Ir1 tau(   4) = (   0.0000000   0.0000000   1.8842075  )
         5           O0  tau(   5) = (   0.2500000   0.8177090   1.8820058  )
         6           O0  tau(   6) = (   0.2500000   0.1918083   1.8805103  )
         7           O0  tau(   7) = (   0.0000000   0.5047586   2.0704805  )
         8           O0  tau(   8) = (   0.0000000   0.0000000   2.1996337  )
         9           Ir1 tau(   9) = (   0.2500000   0.0000000   2.3950459  )
        10           Ir1 tau(  10) = (   0.0000000   0.5047586   2.3772245  )
        11           O0  tau(  11) = (   0.2500000   0.6965669   2.3867791  )
        12           O0  tau(  12) = (   0.2500000   0.3129503   2.3868622  )
        13           O0  tau(  13) = (   0.0000000   0.0000000   2.5802389  )
        14           O0  tau(  14) = (   0.5000000   0.0000000   1.5728939  )
        15           O0  tau(  15) = (   0.5000000   0.5047586   1.6661135  )
        16           Ir1 tau(  16) = (   0.7500000   0.5047586   1.8781839  )
        17           Ir1 tau(  17) = (   0.5000000   0.0000000   1.8839998  )
        18           O0  tau(  18) = (   0.7500000   0.8177090   1.8820473  )
        19           O0  tau(  19) = (   0.7500000   0.1918083   1.8805518  )
        20           O0  tau(  20) = (   0.5000000   0.5047586   2.0728484  )
        21           O0  tau(  21) = (   0.5000000   0.0000000   2.1993429  )
        22           Ir1 tau(  22) = (   0.7500000   0.0000000   2.3950875  )
        23           Ir1 tau(  23) = (   0.5000000   0.5047586   2.3984524  )
        24           O0  tau(  24) = (   0.7500000   0.6965669   2.3868207  )
        25           O0  tau(  25) = (   0.7500000   0.3129503   2.3868622  )
        26           O0  tau(  26) = (   0.5000000   0.0000000   2.5790342  )
        27           H2  tau(  27) = (  -0.0000600   0.6410031   1.5936647  )
        28           H2  tau(  28) = (   0.4999400   0.6427899   1.5931662  )
        29           H2  tau(  29) = (   0.1435300   0.0338794   1.5249132  )
        30           H2  tau(  30) = (   0.6435300   0.0340712   1.5248301  )
        31           O0  tau(  31) = (   0.4999900   0.5041428   2.6768649  )

     number of k points=    20  Methfessel-Paxton smearing, width (Ry)=  0.0100
                       cart. coord. in units 2pi/alat
        k(    1) = (   0.0000000   0.0000000   0.0000000), wk =   0.0625000
        k(    2) = (   0.0000000   0.2476431   0.0000000), wk =   0.1250000
        k(    3) = (   0.0000000  -0.4952862   0.0000000), wk =   0.0625000
        k(    4) = (   0.2500000   0.0000000   0.0000000), wk =   0.1250000
        k(    5) = (   0.2500000   0.2476431   0.0000000), wk =   0.1250000
        k(    6) = (   0.2500000  -0.4952862   0.0000000), wk =   0.1250000
        k(    7) = (  -0.5000000   0.0000000   0.0000000), wk =   0.0625000
        k(    8) = (  -0.5000000   0.2476431   0.0000000), wk =   0.1250000
        k(    9) = (  -0.5000000  -0.4952862   0.0000000), wk =   0.0625000
        k(   10) = (  -0.2500000   0.2476431   0.0000000), wk =   0.1250000
        k(   11) = (   0.0000000   0.0000000   0.0000000), wk =   0.0625000
        k(   12) = (   0.0000000   0.2476431   0.0000000), wk =   0.1250000
        k(   13) = (   0.0000000  -0.4952862   0.0000000), wk =   0.0625000
        k(   14) = (   0.2500000   0.0000000   0.0000000), wk =   0.1250000
        k(   15) = (   0.2500000   0.2476431   0.0000000), wk =   0.1250000
        k(   16) = (   0.2500000  -0.4952862   0.0000000), wk =   0.1250000
        k(   17) = (  -0.5000000   0.0000000   0.0000000), wk =   0.0625000
        k(   18) = (  -0.5000000   0.2476431   0.0000000), wk =   0.1250000
        k(   19) = (  -0.5000000  -0.4952862   0.0000000), wk =   0.0625000
        k(   20) = (  -0.2500000   0.2476431   0.0000000), wk =   0.1250000

     Dense  grid:  1374641 G-vectors     FFT dimensions: (  90,  90, 360)

     Smooth grid:   249013 G-vectors     FFT dimensions: (  50,  50, 216)

     Largest allocated arrays     est. size (Mb)     dimensions
        Kohn-Sham Wavefunctions        10.71 Mb     (   1966,  357)
        NL pseudopotentials            12.69 Mb     (   1966,  423)
        Each V/rho on FFT grid          5.69 Mb     ( 186300,   2)
        Each G-vector array             0.66 Mb     (  85921)
        G-vector shells                 0.32 Mb     (  41722)
     Largest temporary arrays     est. size (Mb)     dimensions
        Auxiliary wavefunctions        42.84 Mb     (   1966, 1428)
        Each subspace H/S matrix       31.12 Mb     (1428,1428)
        Each <psi_i|beta_j> matrix      2.30 Mb     (    423,  357)
        Arrays for rho mixing          22.74 Mb     ( 186300,   8)

     Check: negative/imaginary core charge=   -0.000003    0.000000

     Initial potential from superposition of free atoms
     Check: negative starting charge=(component1):   -1.666725
     Check: negative starting charge=(component2):   -1.666725

     starting charge  233.99968, renormalised to  238.00000

     negative rho (up, down):  0.170E+01 0.170E+01
     Starting wfc are  176 randomized atomic wfcs

     total cpu time spent up to now is      151.1 secs

     per-process dynamical memory:   305.5 Mb

     Self-consistent Calculation

     iteration #  1     ecut=    40.00 Ry     beta=0.30
     Davidson diagonalization with overlap
     ethr =  1.00E-02,  avg # of iterations =  9.6

     negative rho (up, down):  0.159E+01 0.159E+01

     total cpu time spent up to now is     1301.0 secs

     total energy              =   -2096.82801917 Ry
     Harris-Foulkes estimate   =   -2111.55364872 Ry
     estimated scf accuracy    <      31.05836863 Ry

     total magnetization       =     0.00 Bohr mag/cell
     absolute magnetization    =     0.01 Bohr mag/cell

     iteration #  2     ecut=    40.00 Ry     beta=0.30
     Davidson diagonalization with overlap
     ethr =  1.00E-02,  avg # of iterations =  3.5

     negative rho (up, down):  0.152E+01 0.152E+01

     total cpu time spent up to now is     1869.8 secs

     total energy              =   -2073.40659457 Ry
     Harris-Foulkes estimate   =   -2131.04605609 Ry
     estimated scf accuracy    <     792.40322152 Ry

     total magnetization       =    -0.00 Bohr mag/cell
     absolute magnetization    =     0.03 Bohr mag/cell

     iteration #  3     ecut=    40.00 Ry     beta=0.30
     Davidson diagonalization with overlap
     ethr =  1.00E-02,  avg # of iterations =  3.0

     negative rho (up, down):  0.149E+01 0.149E+01

     total cpu time spent up to now is     2388.6 secs

     total energy              =   -2103.81413465 Ry
     Harris-Foulkes estimate   =   -2107.59588812 Ry
     estimated scf accuracy    <      35.89427273 Ry

     total magnetization       =    -0.00 Bohr mag/cell
     absolute magnetization    =     0.01 Bohr mag/cell

     iteration #  4     ecut=    40.00 Ry     beta=0.30
     Davidson diagonalization with overlap
     ethr =  1.00E-02,  avg # of iterations =  2.0

     negative rho (up, down):  0.149E+01 0.149E+01

     total cpu time spent up to now is     2790.2 secs

     total energy              =   -2106.06251034 Ry
     Harris-Foulkes estimate   =   -2106.80858110 Ry
     estimated scf accuracy    <       3.72330218 Ry

     total magnetization       =     0.00 Bohr mag/cell
     absolute magnetization    =     0.00 Bohr mag/cell

     iteration #  5     ecut=    40.00 Ry     beta=0.30
     Davidson diagonalization with overlap
     ethr =  1.56E-03,  avg # of iterations =  2.0

     negative rho (up, down):  0.149E+01 0.149E+01

     total cpu time spent up to now is     3187.7 secs

     total energy              =   -2106.15541078 Ry
     Harris-Foulkes estimate   =   -2106.42061283 Ry
     estimated scf accuracy    <       1.74858254 Ry

     total magnetization       =     0.00 Bohr mag/cell
     absolute magnetization    =     0.00 Bohr mag/cell

     iteration #  6     ecut=    40.00 Ry     beta=0.30
     Davidson diagonalization with overlap
     ethr =  7.35E-04,  avg # of iterations =  1.3

     negative rho (up, down):  0.150E+01 0.150E+01

     total cpu time spent up to now is     3568.6 secs

     total energy              =   -2106.21633393 Ry
     Harris-Foulkes estimate   =   -2106.32298281 Ry
     estimated scf accuracy    <       1.32838632 Ry

     total magnetization       =     0.00 Bohr mag/cell
     absolute magnetization    =     0.00 Bohr mag/cell

     iteration #  7     ecut=    40.00 Ry     beta=0.30
     Davidson diagonalization with overlap
     ethr =  5.58E-04,  avg # of iterations =  1.4

     negative rho (up, down):  0.151E+01 0.151E+01

     total cpu time spent up to now is     3951.7 secs

     total energy              =   -2106.15176261 Ry
     Harris-Foulkes estimate   =   -2106.25544036 Ry
     estimated scf accuracy    <       0.46327054 Ry

     total magnetization       =     0.00 Bohr mag/cell
     absolute magnetization    =     0.00 Bohr mag/cell

     iteration #  8     ecut=    40.00 Ry     beta=0.30
     Davidson diagonalization with overlap
     ethr =  1.95E-04,  avg # of iterations =  5.5

     negative rho (up, down):  0.153E+01 0.153E+01

     total cpu time spent up to now is     4453.6 secs

     total energy              =   -2106.14925807 Ry
     Harris-Foulkes estimate   =   -2106.18782296 Ry
     estimated scf accuracy    <       0.16819226 Ry

     total magnetization       =     0.00 Bohr mag/cell
     absolute magnetization    =     0.00 Bohr mag/cell

     iteration #  9     ecut=    40.00 Ry     beta=0.30
     Davidson diagonalization with overlap
     ethr =  7.07E-05,  avg # of iterations =  6.2

     negative rho (up, down):  0.153E+01 0.153E+01

     total cpu time spent up to now is     4969.0 secs

     total energy              =   -2106.15514200 Ry
     Harris-Foulkes estimate   =   -2106.17856595 Ry
     estimated scf accuracy    <       0.26046611 Ry

     total magnetization       =     0.00 Bohr mag/cell
     absolute magnetization    =     0.00 Bohr mag/cell

     iteration # 10     ecut=    40.00 Ry     beta=0.30
     Davidson diagonalization with overlap
     ethr =  7.07E-05,  avg # of iterations =  1.0

     negative rho (up, down):  0.154E+01 0.154E+01

     total cpu time spent up to now is     5339.6 secs

     total energy              =   -2106.16163665 Ry
     Harris-Foulkes estimate   =   -2106.16813975 Ry
     estimated scf accuracy    <       0.04010919 Ry

     total magnetization       =     0.00 Bohr mag/cell
     absolute magnetization    =     0.00 Bohr mag/cell

     iteration # 11     ecut=    40.00 Ry     beta=0.30
     Davidson diagonalization with overlap
     ethr =  1.69E-05,  avg # of iterations =  5.5

     negative rho (up, down):  0.155E+01 0.155E+01

     total cpu time spent up to now is     5847.4 secs

     total energy              =   -2106.16181869 Ry
     Harris-Foulkes estimate   =   -2106.16606436 Ry
     estimated scf accuracy    <       0.03456416 Ry

     total magnetization       =     0.00 Bohr mag/cell
     absolute magnetization    =     0.00 Bohr mag/cell

     iteration # 12     ecut=    40.00 Ry     beta=0.30
     Davidson diagonalization with overlap
     ethr =  1.45E-05,  avg # of iterations =  1.1

     negative rho (up, down):  0.155E+01 0.155E+01

     total cpu time spent up to now is     6216.1 secs

     total energy              =   -2106.16316073 Ry
     Harris-Foulkes estimate   =   -2106.16387589 Ry
     estimated scf accuracy    <       0.00563202 Ry

     total magnetization       =     0.00 Bohr mag/cell
     absolute magnetization    =     0.00 Bohr mag/cell

     iteration # 13     ecut=    40.00 Ry     beta=0.30
     Davidson diagonalization with overlap
     ethr =  2.37E-06,  avg # of iterations =  5.4

     negative rho (up, down):  0.155E+01 0.155E+01

     total cpu time spent up to now is     6729.2 secs

     total energy              =   -2106.16332121 Ry
     Harris-Foulkes estimate   =   -2106.16353008 Ry
     estimated scf accuracy    <       0.00175601 Ry

     total magnetization       =     0.00 Bohr mag/cell
     absolute magnetization    =     0.00 Bohr mag/cell

     iteration # 14     ecut=    40.00 Ry     beta=0.30
     Davidson diagonalization with overlap
     ethr =  7.38E-07,  avg # of iterations =  1.0

     negative rho (up, down):  0.156E+01 0.156E+01

     total cpu time spent up to now is     7104.4 secs

     total energy              =   -2106.16334290 Ry
     Harris-Foulkes estimate   =   -2106.16346632 Ry
     estimated scf accuracy    <       0.00069419 Ry

     total magnetization       =     0.00 Bohr mag/cell
     absolute magnetization    =     0.00 Bohr mag/cell

     iteration # 15     ecut=    40.00 Ry     beta=0.30
     Davidson diagonalization with overlap
     ethr =  2.92E-07,  avg # of iterations =  1.0

     negative rho (up, down):  0.156E+01 0.156E+01

     total cpu time spent up to now is     7478.6 secs

     total energy              =   -2106.16335358 Ry
     Harris-Foulkes estimate   =   -2106.16343715 Ry
     estimated scf accuracy    <       0.00058977 Ry

     total magnetization       =     0.00 Bohr mag/cell
     absolute magnetization    =     0.00 Bohr mag/cell

     iteration # 16     ecut=    40.00 Ry     beta=0.30
     Davidson diagonalization with overlap
     ethr =  2.48E-07,  avg # of iterations =  1.0

     negative rho (up, down):  0.156E+01 0.156E+01

     total cpu time spent up to now is     7853.9 secs

     total energy              =   -2106.16337943 Ry
     Harris-Foulkes estimate   =   -2106.16341655 Ry
     estimated scf accuracy    <       0.00024715 Ry

     total magnetization       =     0.00 Bohr mag/cell
     absolute magnetization    =     0.00 Bohr mag/cell

     iteration # 17     ecut=    40.00 Ry     beta=0.30
     Davidson diagonalization with overlap
     ethr =  1.04E-07,  avg # of iterations =  1.0

     negative rho (up, down):  0.156E+01 0.156E+01

     total cpu time spent up to now is     8222.0 secs

     total energy              =   -2106.16338561 Ry
     Harris-Foulkes estimate   =   -2106.16340791 Ry
     estimated scf accuracy    <       0.00020677 Ry

     total magnetization       =     0.00 Bohr mag/cell
     absolute magnetization    =     0.00 Bohr mag/cell

     iteration # 18     ecut=    40.00 Ry     beta=0.30
     Davidson diagonalization with overlap
     ethr =  8.69E-08,  avg # of iterations =  1.0

     negative rho (up, down):  0.156E+01 0.156E+01

     total cpu time spent up to now is     8592.6 secs

     total energy              =   -2106.16339393 Ry
     Harris-Foulkes estimate   =   -2106.16340073 Ry
     estimated scf accuracy    <       0.00006017 Ry

     total magnetization       =     0.00 Bohr mag/cell
     absolute magnetization    =     0.00 Bohr mag/cell

     iteration # 19     ecut=    40.00 Ry     beta=0.30
     Davidson diagonalization with overlap
     ethr =  2.53E-08,  avg # of iterations =  1.0

     negative rho (up, down):  0.156E+01 0.156E+01

     total cpu time spent up to now is     8963.2 secs

     total energy              =   -2106.16339637 Ry
     Harris-Foulkes estimate   =   -2106.16339858 Ry
     estimated scf accuracy    <       0.00002358 Ry

     total magnetization       =     0.00 Bohr mag/cell
     absolute magnetization    =     0.00 Bohr mag/cell

     iteration # 20     ecut=    40.00 Ry     beta=0.30
     Davidson diagonalization with overlap
     ethr =  9.91E-09,  avg # of iterations =  1.0

     negative rho (up, down):  0.156E+01 0.156E+01

     total cpu time spent up to now is     9343.8 secs

     total energy              =   -2106.16339682 Ry
     Harris-Foulkes estimate   =   -2106.16339790 Ry
     estimated scf accuracy    <       0.00000862 Ry

     total magnetization       =     0.00 Bohr mag/cell
     absolute magnetization    =     0.00 Bohr mag/cell

     iteration # 21     ecut=    40.00 Ry     beta=0.30
     Davidson diagonalization with overlap
     ethr =  3.62E-09,  avg # of iterations =  1.0

     negative rho (up, down):  0.156E+01 0.156E+01

     total cpu time spent up to now is     9724.9 secs

     total energy              =   -2106.16339701 Ry
     Harris-Foulkes estimate   =   -2106.16339775 Ry
     estimated scf accuracy    <       0.00000454 Ry

     total magnetization       =     0.00 Bohr mag/cell
     absolute magnetization    =     0.00 Bohr mag/cell

     iteration # 22     ecut=    40.00 Ry     beta=0.30
     Davidson diagonalization with overlap
     ethr =  1.91E-09,  avg # of iterations =  1.0

     negative rho (up, down):  0.156E+01 0.156E+01

     total cpu time spent up to now is    10107.8 secs

     total energy              =   -2106.16339710 Ry
     Harris-Foulkes estimate   =   -2106.16339787 Ry
     estimated scf accuracy    <       0.00000637 Ry

     total magnetization       =     0.00 Bohr mag/cell
     absolute magnetization    =     0.00 Bohr mag/cell

     iteration # 23     ecut=    40.00 Ry     beta=0.30
     Davidson diagonalization with overlap
     ethr =  1.91E-09,  avg # of iterations =  1.0

     negative rho (up, down):  0.156E+01 0.156E+01

     total cpu time spent up to now is    10497.4 secs

     End of self-consistent calculation

 ------ SPIN UP ------------


          k = 0.0000 0.0000 0.0000 ( 31045 PWs)   bands (ev):

   -52.4692 -52.1801 -52.0696 -51.5250 -51.5186 -51.3980 -51.3743 -51.3425
   -51.3332 -51.2955 -51.2715 -51.1797 -51.1522 -51.1490 -51.1304 -51.1258
   -51.1236 -51.1010 -51.0140 -51.0119 -51.0018 -50.9993 -50.9823 -50.8021
   -21.9160 -21.5739 -21.3435 -21.3158 -20.6709 -20.6650 -20.6083 -20.5452
   -20.4909 -20.4350 -20.2978 -20.2046 -19.9961 -19.9735 -19.9088 -19.7372
   -18.9449 -18.8642 -18.7854 -10.5774 -10.4780  -9.9786  -9.1913  -9.0802
    -9.0367  -8.9467  -8.9406  -8.9143  -8.8700  -8.7805  -8.6811  -8.6035
    -8.3729  -8.3515  -8.2600  -8.2239  -8.1307  -7.9365  -7.8264  -7.5076
    -7.3987  -7.2506  -7.2456  -6.7734  -6.7154  -6.6156  -6.2926  -5.9989
    -5.9791  -5.8598  -5.8398  -5.7101  -5.6815  -5.5795  -5.4943  -5.4639
    -5.3063  -5.2498  -5.1870  -5.1033  -5.0410  -4.8292  -4.8202  -4.7860
    -4.6247  -4.4370  -4.3792  -4.2500  -4.2138  -4.0903  -4.0353  -3.8844
    -3.7751  -3.7212  -3.6066  -3.3882  -3.3761  -3.3584  -3.1509  -3.1271
    -2.8941  -2.8331  -2.7698  -2.6278  -2.4926  -2.4028  -2.2292  -2.0805
    -1.9518  -1.8612  -1.8509  -1.7179  -1.6905  -1.2361  -1.0975  -0.8736
    -0.8289  -0.6746  -0.6371  -0.3681  -0.1076   0.6322   0.9527   1.0242
     1.1288   1.1917   1.3585   1.7813   2.0258   2.2922   2.6188   2.8045
     2.9012   2.9647   3.0955   3.5019   3.7117   4.0383   4.4474   4.9651
     5.1270   5.8609   5.9851   6.0876   6.1425   6.7184   6.8493   7.0670
     7.4338   7.5798   7.6681   7.6733   7.6865   7.7567   7.7706   7.9688
     8.0039   8.0565   8.1516   8.1650   8.2151   8.2667   8.4162   8.4735
     8.5027   8.5651   8.5651   8.5655   8.5662   8.6364   8.7109   8.7179
     8.7424   8.7439   8.7584   8.7914   8.9789   9.0254   9.1495   9.2231
     9.2669   9.2912   9.3904   9.4801   9.5529   9.8439   9.8825   9.9110
    10.0655  10.2093  10.2884  10.3046  10.4567  10.5502  10.6132  10.6758
    10.8517  10.9820  11.0922  11.1375  11.1704  11.1846  11.2099  11.2346
    11.3299  11.5250  11.5734  11.6604  11.7587  11.7884  11.8621  11.9742
    12.0321  12.0737  12.1449  12.1974  12.2337  12.3483  12.3881  12.4328
    12.5305  12.5521  12.5602  12.6456  12.7981  12.8610  12.8895  12.9133
    12.9802  13.1288  13.2173  13.3343  13.4608  13.6690  13.6966  13.7687
    13.7771  13.8864  13.9132  14.0725  14.1467  14.2054  14.3663  14.3844
    14.5172  14.6000  14.6223  14.6557  14.7148  14.8986  14.9322  15.0687
    15.2495  15.3584  15.3871  15.4749  15.5569  15.7200  15.7322  15.7932
    15.8299  15.9980  16.0568  16.0686  16.2279  16.2515  16.3125  16.4629
    16.5594  16.6774  16.7566  16.8855  17.0375  17.1091  17.2034  17.2295
    17.2886  17.3567  17.4040  17.5462  17.6182  17.6213  17.6820  17.8593
    17.9478  17.9799  18.0877  18.2511  18.3332  18.4209  18.5147  18.5310
    18.6288  18.6584  18.7403  18.7978  18.9002  18.9604  19.0449  19.0496
    19.1224  19.1924  19.2347  19.2732  19.3158  19.4155  19.4762  19.5124
    19.6130  19.6876  19.6919  19.7650  19.8114  19.8647  19.8945  19.8989
    19.9326  19.9948  20.0299  20.1125  20.2265  20.3045  20.4586  20.4973
    20.5185  20.5702  20.6264  20.7088  20.7599  20.7893  20.9005  20.9630
    21.0754  21.1134  21.2072  21.2276  21.2790  21.3729  21.4034  21.5362
    21.5951  21.6855  21.7118  21.8007  21.8268  21.9107  21.9435  22.0026
    22.0112  22.1374  22.1841  22.2160  22.2606

          k = 0.0000 0.2476 0.0000 ( 31078 PWs)   bands (ev):

   -52.4692 -52.1802 -52.0695 -51.5250 -51.5187 -51.3984 -51.3744 -51.3426
   -51.3332 -51.2954 -51.2715 -51.1760 -51.1520 -51.1489 -51.1311 -51.1293
   -51.1236 -51.1005 -51.0140 -51.0119 -51.0018 -50.9993 -50.9824 -50.8022
   -21.8323 -21.4606 -21.3318 -21.3079 -20.7600 -20.7298 -20.6842 -20.6041
   -20.3689 -20.3428 -20.3046 -20.2159 -20.0914 -20.0691 -19.9597 -19.7381
   -18.9310 -18.8727 -18.7877 -10.0958 -10.0786  -9.8881  -9.4576  -9.2061
    -9.0270  -8.9542  -8.9455  -8.8748  -8.8497  -8.7643  -8.6386  -8.5479
    -8.3505  -8.2792  -8.2632  -8.2167  -8.0560  -7.7174  -7.5528  -7.3745
    -7.3228  -7.2490  -6.9100  -6.8361  -6.8172  -6.6791  -6.5993  -6.4007
    -6.3623  -6.2201  -5.9765  -5.8805  -5.8551  -5.7834  -5.6112  -5.4587
    -5.4052  -5.2911  -5.2828  -5.2233  -5.1330  -4.9832  -4.7502  -4.6972
    -4.6598  -4.5591  -4.4569  -4.2887  -4.2536  -4.1739  -4.0763  -4.0653
    -3.7646  -3.5797  -3.3867  -3.3544  -3.2282  -2.9169  -2.9079  -2.8419
    -2.8154  -2.7512  -2.6558  -2.6260  -2.5969  -2.5591  -2.4618  -2.3902
    -2.2544  -1.8447  -1.7138  -1.7063  -1.6428  -1.1407  -0.9283  -0.8900
    -0.7345  -0.6044  -0.5380  -0.4283  -0.2940   0.2316   0.4120   0.9312
     1.1540   1.3390   1.8588   2.2858   2.5325   2.6068   2.6959   2.8340
     2.9202   2.9730   3.1453   3.5059   3.6314   4.1917   4.6510   5.1360
     5.2641   5.3588   6.0484   6.2194   6.2426   6.4456   6.5377   6.8406
     6.8988   7.0106   7.2068   7.5315   7.5832   7.6157   7.6681   7.7699
     8.0245   8.1182   8.2062   8.2333   8.2539   8.3502   8.4827   8.5178
     8.5631   8.5652   8.5656   8.5665   8.5783   8.6925   8.7424   8.7439
     8.7615   8.8243   8.8519   8.9609   9.0910   9.1985   9.2500   9.3657
     9.3973   9.4625   9.5948   9.6674   9.7491   9.7694   9.8554  10.0242
    10.1995  10.2655  10.3337  10.3797  10.4437  10.4752  10.5390  10.6249
    10.6861  10.7753  10.8055  10.8699  11.0118  11.0416  11.1634  11.2797
    11.3573  11.3724  11.4691  11.5983  11.6954  11.7076  11.7648  11.8387
    12.0637  12.1506  12.2243  12.3802  12.4587  12.5304  12.5658  12.6113
    12.7067  12.8237  12.8838  12.9465  12.9658  12.9975  13.1744  13.2339
    13.2871  13.5862  13.6346  13.7196  13.8407  13.8529  13.8867  14.0350
    14.0506  14.1254  14.1664  14.2050  14.3380  14.4691  14.4879  14.5996
    14.6184  14.6933  14.8172  14.8619  14.9040  14.9535  15.0158  15.1999
    15.3674  15.3843  15.4650  15.6268  15.6833  15.7703  15.7948  15.9120
    15.9432  16.0101  16.0631  16.1792  16.2063  16.2390  16.3062  16.3683
    16.4109  16.4683  16.5343  16.6442  16.7391  16.8207  16.9173  17.0058
    17.0516  17.0835  17.1508  17.2511  17.2896  17.3876  17.4043  17.5059
    17.5476  17.6251  17.7131  17.7460  18.0662  18.1155  18.1563  18.2858
    18.4422  18.5100  18.5412  18.5622  18.6790  18.7434  18.8106  18.8943
    18.9128  18.9646  19.0916  19.1069  19.1604  19.2739  19.3217  19.3840
    19.4371  19.5413  19.5650  19.5698  19.6419  19.6632  19.7227  19.7478
    19.8130  19.8688  19.9318  19.9786  20.0450  20.0623  20.1351  20.1435
    20.1756  20.2314  20.3469  20.3820  20.4167  20.4703  20.7419  20.7603
    20.8438  20.8468  20.9196  20.9535  20.9802  21.0227  21.0524  21.0786
    21.1223  21.1940  21.2403  21.2858  21.4073  21.4656  21.5239  21.5949
    21.6471  21.7611  21.7988  21.8275  21.8645

          k = 0.0000-0.4953 0.0000 ( 31160 PWs)   bands (ev):

   -52.4692 -52.1803 -52.0693 -51.5251 -51.5188 -51.3988 -51.3744 -51.3426
   -51.3332 -51.2953 -51.2715 -51.1717 -51.1506 -51.1488 -51.1370 -51.1293
   -51.1235 -51.1000 -51.0140 -51.0120 -51.0018 -50.9993 -50.9824 -50.8024
   -21.7368 -21.3278 -21.3190 -21.2603 -20.8197 -20.7976 -20.7774 -20.6562
   -20.3675 -20.3002 -20.2829 -20.2222 -20.1749 -20.1649 -19.9690 -19.7390
   -18.9023 -18.8961 -18.7906  -9.9992  -9.6267  -9.4346  -9.3214  -9.2287
    -8.9528  -8.9444  -8.9157  -8.8379  -8.7755  -8.6426  -8.5886  -8.4686
    -8.3476  -8.2903  -8.2660  -8.1703  -8.0656  -7.6171  -7.5706  -7.4962
    -7.4277  -7.3344  -7.2940  -7.0795  -6.9256  -6.7517  -6.5427  -6.3801
    -6.3396  -6.3016  -6.2075  -6.1690  -6.0813  -5.9249  -5.9077  -5.7974
    -5.4295  -5.3216  -5.2211  -5.1945  -5.1476  -4.8316  -4.6942  -4.6006
    -4.5657  -4.5143  -4.3969  -4.3448  -4.3289  -4.2501  -4.1942  -4.0748
    -3.7194  -3.6288  -3.4707  -3.3185  -3.2299  -3.1826  -3.1631  -2.8142
    -2.7926  -2.6200  -2.6047  -2.4859  -2.4738  -2.3956  -2.3888  -2.2600
    -2.1437  -1.7434  -1.7365  -1.5785  -1.5600  -1.4163  -1.1779  -0.7975
    -0.7270  -0.5248  -0.4065  -0.3739  -0.3719  -0.1818   0.0215   1.0280
     1.1743   1.8744   2.0889   2.2836   2.4012   2.5522   2.9501   3.0430
     3.0976   3.1692   3.3859   3.5104   3.8576   4.3995   4.7573   5.2699
     5.3447   5.4559   5.7404   5.9488   5.9755   6.0743   6.4002   6.6091
     6.7247   6.8764   7.0492   7.1350   7.2117   7.6191   7.6681   7.8177
     8.0185   8.2223   8.2795   8.3558   8.4856   8.5455   8.5475   8.5531
     8.5653   8.5661   8.5667   8.5675   8.7389   8.7405   8.7546   8.7626
     8.8910   8.9935   9.0082   9.1299   9.1400   9.1632   9.2013   9.2738
     9.3314   9.4070   9.4248   9.5037   9.6309   9.6776   9.6968   9.9251
     9.9350  10.0410  10.1614  10.1717  10.2945  10.3178  10.3348  10.3392
    10.5120  11.0779  11.1152  11.1479  11.1733  11.2887  11.3029  11.3943
    11.5513  11.6038  11.7396  11.8398  11.9294  12.0624  12.1547  12.1708
    12.3339  12.3722  12.4256  12.4761  12.5334  12.6265  12.6494  12.8124
    12.8355  13.0172  13.0858  13.1552  13.1918  13.2391  13.2710  13.2941
    13.3523  13.4485  13.4901  13.5806  13.6064  13.6551  13.8311  13.8952
    14.0225  14.1590  14.2791  14.4550  14.5501  14.6763  14.6823  14.7623
    14.8630  14.9024  14.9430  15.1452  15.1700  15.3099  15.3920  15.4287
    15.4809  15.4991  15.6476  15.7278  15.7964  15.8073  15.9699  15.9754
    16.0644  16.1586  16.1824  16.2697  16.2949  16.3978  16.4589  16.4808
    16.5177  16.5503  16.6372  16.6653  16.7437  16.7613  16.7647  16.8123
    16.9198  16.9643  17.0278  17.0844  17.1564  17.2115  17.2684  17.3028
    17.5130  17.5716  17.5752  17.5994  17.7259  17.7846  17.8200  17.8803
    17.9736  18.0161  18.0505  18.0764  18.1719  18.3087  18.3191  18.3728
    18.3989  18.4959  18.5287  18.5729  18.6152  18.7412  18.7842  18.9808
    19.0201  19.0662  19.1958  19.2306  19.3283  19.4250  19.4715  19.6009
    19.6172  19.6867  19.7609  19.8288  19.8712  19.9039  20.0572  20.1483
    20.2157  20.2612  20.3264  20.3502  20.4477  20.4759  20.4932  20.5217
    20.5377  20.5611  20.6184  20.6709  20.7359  20.7713  20.8793  20.9064
    20.9668  20.9839  21.0208  21.0613  21.0906  21.1352  21.1514  21.2319
    21.2642  21.2745  21.3161  21.3795  21.4344

          k = 0.2500 0.0000 0.0000 ( 31106 PWs)   bands (ev):

   -52.4692 -52.1791 -52.0696 -51.5241 -51.5196 -51.3837 -51.3599 -51.3422
   -51.3337 -51.3093 -51.2865 -51.1778 -51.1558 -51.1503 -51.1294 -51.1255
   -51.1230 -51.0880 -51.0239 -51.0119 -51.0015 -50.9997 -50.9865 -50.8021
   -21.8002 -21.4641 -21.3583 -21.2420 -20.8928 -20.7407 -20.6472 -20.4622
   -20.4207 -20.3644 -20.2891 -20.2158 -20.0588 -19.9960 -19.9490 -19.7676
   -18.9683 -18.8916 -18.8365 -10.4011 -10.2980  -9.8473  -9.3832  -9.2975
    -9.2251  -8.9724  -8.9431  -8.8557  -8.8029  -8.6239  -8.5997  -8.4488
    -8.3296  -8.2540  -8.0770  -8.0457  -7.9798  -7.9623  -7.7813  -7.5587
    -7.3204  -7.3006  -7.0108  -6.8169  -6.5703  -6.4499  -6.4168  -6.3259
    -6.2294  -6.1502  -6.0286  -5.9206  -5.9009  -5.8150  -5.7624  -5.5919
    -5.4104  -5.2825  -5.2424  -5.1672  -5.0018  -4.9753  -4.9576  -4.8272
    -4.7534  -4.6966  -4.5351  -4.4779  -4.4345  -4.2102  -4.0502  -3.8269
    -3.6884  -3.5901  -3.5260  -3.4344  -3.4067  -3.0307  -2.9185  -2.8028
    -2.7655  -2.6288  -2.4908  -2.4187  -2.3015  -2.2622  -2.0233  -1.9853
    -1.9400  -1.8708  -1.6517  -1.5211  -1.3856  -1.3539  -1.1578  -1.0615
    -0.8966  -0.7809  -0.5790  -0.4788  -0.2519   0.8214   1.1327   1.1443
     1.3035   1.3927   1.4705   1.7875   1.8918   2.0491   2.5921   2.6496
     2.6980   2.8685   2.9602   3.2133   3.6347   4.3073   4.6773   5.1679
     5.1941   5.3769   6.0497   6.1309   6.4059   6.4248   6.7030   6.8850
     7.1343   7.2120   7.3399   7.4726   7.6681   7.7370   7.8581   7.8920
     7.9604   7.9958   8.0586   8.1810   8.2547   8.2898   8.3897   8.5649
     8.5653   8.5657   8.5663   8.6967   8.7293   8.7420   8.7442   8.7572
     8.7632   8.8689   8.9155   8.9976   9.1257   9.1947   9.2216   9.2805
     9.4635   9.4859   9.5845   9.6903   9.8017   9.9935  10.0913  10.1201
    10.1668  10.2553  10.2884  10.3498  10.4363  10.5039  10.5304  10.6118
    10.6730  10.7541  10.7845  10.8313  10.9779  11.1206  11.2194  11.2330
    11.2796  11.2960  11.3611  11.4378  11.5189  11.6028  11.6746  11.7403
    11.9196  11.9816  12.1163  12.1838  12.3797  12.4853  12.5354  12.6064
    12.6332  12.6649  12.8214  12.9039  12.9933  13.1354  13.2988  13.3176
    13.4503  13.5317  13.6773  13.8032  13.9020  13.9399  13.9715  14.0151
    14.0741  14.1282  14.1547  14.1984  14.2648  14.3115  14.4055  14.5068
    14.5312  14.6138  14.6659  14.7342  14.7824  14.8966  14.9910  15.0351
    15.0899  15.3055  15.3474  15.4163  15.5288  15.6531  15.6927  15.7755
    15.8091  15.8812  16.0054  16.0481  16.1183  16.1739  16.2943  16.3293
    16.3429  16.3719  16.4704  16.4868  16.7018  16.7478  16.8107  17.0586
    17.1404  17.2173  17.3124  17.3821  17.4382  17.5398  17.5834  17.7137
    17.7471  17.9366  17.9654  18.0129  18.0937  18.2382  18.2721  18.2875
    18.4798  18.5130  18.6220  18.8237  18.8650  18.9887  19.0730  19.1149
    19.1441  19.1995  19.2654  19.3348  19.3605  19.4113  19.4533  19.4962
    19.5012  19.5734  19.6025  19.6603  19.7068  19.7602  19.7767  19.7995
    19.8416  19.8609  19.9069  19.9680  20.1120  20.1613  20.2015  20.2377
    20.2803  20.3248  20.3502  20.4273  20.4691  20.4908  20.5650  20.5967
    20.6370  20.7574  20.8660  20.8951  20.9638  21.0326  21.0676  21.0880
    21.1909  21.2557  21.3052  21.3386  21.4229  21.4567  21.5168  21.5831
    21.6169  21.6592  21.7218  21.7531  21.8652

          k = 0.2500 0.2476 0.0000 ( 31099 PWs)   bands (ev):

   -52.4692 -52.1791 -52.0695 -51.5241 -51.5196 -51.3840 -51.3599 -51.3422
   -51.3337 -51.3095 -51.2865 -51.1743 -51.1544 -51.1502 -51.1312 -51.1286
   -51.1230 -51.0876 -51.0238 -51.0119 -51.0015 -50.9997 -50.9865 -50.8023
   -21.7296 -21.3673 -21.3439 -21.2050 -20.8601 -20.7401 -20.6655 -20.5405
   -20.4478 -20.4085 -20.2950 -20.2004 -20.1499 -20.1311 -19.9378 -19.7681
   -18.9566 -18.8949 -18.8424  -9.9376  -9.9185  -9.7586  -9.4124  -9.2317
    -8.9955  -8.9551  -8.8760  -8.8320  -8.7893  -8.7165  -8.5885  -8.5356
    -8.3806  -8.2144  -8.1326  -8.0149  -7.8734  -7.8300  -7.5800  -7.5211
    -7.3607  -7.3292  -7.1199  -6.7983  -6.6673  -6.5599  -6.4916  -6.4353
    -6.4045  -6.2487  -6.2233  -6.1741  -6.1262  -6.0566  -5.8999  -5.7723
    -5.6331  -5.5423  -5.4385  -5.2719  -5.1778  -5.0324  -4.9479  -4.8290
    -4.6679  -4.6037  -4.5725  -4.3878  -4.3252  -4.2311  -4.1182  -3.9069
    -3.5993  -3.5399  -3.4212  -3.3814  -3.1114  -2.7655  -2.7222  -2.6449
    -2.6114  -2.5851  -2.5192  -2.4112  -2.3637  -2.3033  -2.2467  -2.1759
    -1.9987  -1.8072  -1.6824  -1.5276  -1.3671  -1.2143  -1.0098  -0.9668
    -0.8914  -0.7727  -0.6818  -0.4710  -0.3099   0.4732   0.6466   1.0123
     1.3292   1.4183   1.7973   1.9276   2.2846   2.4282   2.4558   2.6206
     2.7743   2.9810   3.0200   3.5169   3.5815   4.4960   4.8861   5.3351
     5.3599   5.5190   5.6041   6.1608   6.4728   6.5868   6.6926   6.7929
     6.9271   7.0018   7.2011   7.2904   7.3228   7.3751   7.5492   7.6681
     7.8346   7.8678   7.9393   8.0315   8.1419   8.2346   8.3819   8.4229
     8.5643   8.5652   8.5658   8.5660   8.5697   8.6914   8.7419   8.7447
     8.7612   8.8229   8.8866   8.9150   9.0502   9.0964   9.2131   9.3470
     9.4193   9.6021   9.6569   9.7297   9.8173   9.9139  10.0204  10.1156
    10.2373  10.2708  10.4229  10.4364  10.5112  10.5868  10.6632  10.7628
    10.9293  10.9549  11.0603  11.1122  11.1721  11.2775  11.4049  11.5640
    11.6374  11.6753  11.7568  11.8085  11.8420  11.9972  12.0540  12.1699
    12.2358  12.2670  12.4028  12.4612  12.5603  12.6453  12.6860  12.7496
    12.8373  12.8470  12.8782  12.9428  13.0390  13.0660  13.1414  13.1982
    13.2472  13.4313  13.4754  13.5116  13.6306  13.8004  13.8729  13.9156
    14.0300  14.0700  14.1666  14.2482  14.3053  14.3950  14.4662  14.5845
    14.6375  14.7838  14.8371  14.9389  15.0618  15.1442  15.1910  15.2547
    15.3308  15.4045  15.5523  15.6196  15.6660  15.7557  15.7975  15.8857
    15.9302  16.0028  16.0512  16.1400  16.1559  16.2254  16.3009  16.3600
    16.4140  16.4392  16.5313  16.5761  16.6490  16.7146  16.7557  16.8025
    16.8672  17.0185  17.0741  17.1743  17.2622  17.3138  17.3748  17.4448
    17.4905  17.5634  17.6003  17.6500  17.7074  17.7727  17.8565  17.9174
    17.9756  18.0586  18.0886  18.1935  18.2164  18.2619  18.4240  18.4569
    18.5247  18.5841  18.6485  18.6850  18.7636  18.8757  18.9608  19.0090
    19.0546  19.0906  19.1618  19.2248  19.2776  19.3320  19.4155  19.4841
    19.5759  19.6449  19.7077  19.7377  19.8362  19.9329  19.9684  20.0145
    20.1254  20.2745  20.3309  20.4310  20.4603  20.5115  20.5727  20.6379
    20.7264  20.7461  20.8042  20.8335  20.8993  20.9170  20.9770  21.0932
    21.1863  21.2901  21.4148  21.4556  21.4891  21.5360  21.5892  21.6976
    21.7680  21.8053  21.8442  21.8955  21.9233

          k = 0.2500-0.4953 0.0000 ( 31088 PWs)   bands (ev):

   -52.4692 -52.1792 -52.0693 -51.5242 -51.5197 -51.3844 -51.3599 -51.3421
   -51.3337 -51.3094 -51.2865 -51.1711 -51.1514 -51.1501 -51.1358 -51.1303
   -51.1230 -51.0872 -51.0238 -51.0119 -51.0015 -50.9997 -50.9865 -50.8024
   -21.6554 -21.3500 -21.1932 -21.1507 -20.7901 -20.7763 -20.7111 -20.6517
   -20.4788 -20.4710 -20.3734 -20.2128 -20.2040 -20.1831 -19.9390 -19.7682
   -18.9406 -18.9023 -18.8493  -9.8525  -9.4550  -9.1316  -9.0748  -9.0328
    -9.0171  -8.9206  -8.8239  -8.8069  -8.7279  -8.7039  -8.6742  -8.5560
    -8.4230  -8.2887  -8.1820  -8.0193  -7.7462  -7.6596  -7.5523  -7.4430
    -7.3631  -7.2842  -7.2171  -7.1799  -7.1465  -7.0497  -6.8587  -6.6372
    -6.5290  -6.4138  -6.3745  -6.3108  -6.2467  -6.0910  -5.9026  -5.8214
    -5.7789  -5.6574  -5.5624  -5.2732  -5.1109  -5.0717  -4.9504  -4.8308
    -4.7206  -4.5019  -4.4619  -4.3346  -4.2632  -4.0383  -3.9745  -3.8804
    -3.8091  -3.5773  -3.3886  -3.2090  -3.0825  -3.0253  -2.8853  -2.6576
    -2.5509  -2.5076  -2.4597  -2.4245  -2.3174  -2.2327  -1.9979  -1.9796
    -1.9243  -1.6994  -1.5859  -1.5383  -1.3822  -1.3336  -1.2110  -0.8508
    -0.8429  -0.7391  -0.6229  -0.5740  -0.2142   0.0257   0.2212   1.0655
     1.3482   1.7451   1.8043   1.9332   2.0320   2.3047   2.8718   2.9113
     2.9661   3.1264   3.1627   3.2943   4.1459   4.6819   4.9417   5.5307
     5.6322   5.6389   5.7509   6.0045   6.2193   6.2408   6.3550   6.4045
     6.7571   6.9735   7.1540   7.2420   7.3147   7.4220   7.5024   7.6028
     7.6681   7.7439   7.9179   7.9998   8.0128   8.0820   8.1756   8.2878
     8.3778   8.5369   8.5652   8.5655   8.5661   8.5662   8.6987   8.7410
     8.7431   8.7617   8.7981   8.8314   8.8586   9.0223   9.2372   9.4241
     9.4383   9.5131   9.5555   9.6221   9.7304   9.7487   9.9506  10.0949
    10.2297  10.2889  10.3878  10.4855  10.5062  11.0032  11.0997  11.1414
    11.2006  11.2901  11.3634  11.4771  11.5673  11.6248  11.7262  11.7485
    11.7940  11.8647  11.9598  12.0006  12.1655  12.2061  12.2966  12.3072
    12.4394  12.4579  12.5617  12.5784  12.6947  12.7439  12.7965  12.8741
    12.9668  13.0834  13.2129  13.2506  13.3238  13.3402  13.3667  13.4074
    13.5726  13.6157  13.6529  13.7110  13.7244  13.8782  13.9198  13.9416
    14.0574  14.3215  14.3462  14.4328  14.4639  14.5487  14.5771  14.6004
    14.6381  14.7162  14.7825  14.8826  14.9023  14.9797  15.0326  15.0934
    15.1287  15.1968  15.2415  15.3199  15.4048  15.4255  15.5580  15.5805
    15.6684  15.7935  15.8778  16.0261  16.1298  16.1331  16.1770  16.2564
    16.3441  16.3841  16.4356  16.5266  16.5623  16.6478  16.6785  16.7089
    16.7692  16.8597  16.9487  17.0311  17.0751  17.1028  17.1561  17.2501
    17.3008  17.3249  17.3489  17.4144  17.4888  17.5560  17.6177  17.6982
    17.8790  17.9310  17.9753  17.9985  18.0906  18.2141  18.3042  18.3190
    18.3951  18.4785  18.5470  18.5861  18.6489  18.6883  18.7185  18.7762
    18.8550  18.9540  18.9819  19.0615  19.0798  19.1853  19.1928  19.2625
    19.3486  19.3659  19.4320  19.4572  19.6224  19.6353  19.6750  19.7250
    19.7837  19.8874  19.9369  19.9762  20.0115  20.1709  20.2419  20.4243
    20.4890  20.5328  20.6431  20.6916  20.7154  20.7895  20.8494  20.9672
    21.0597  21.0836  21.1353  21.1697  21.2318  21.2934  21.3734  21.5116
    21.5716  21.6313  21.6822  21.8006  21.8319

          k =-0.5000 0.0000 0.0000 ( 31104 PWs)   bands (ev):

   -52.4692 -52.1780 -52.0696 -51.5224 -51.5213 -51.3557 -51.3466 -51.3371
   -51.3330 -51.3220 -51.3209 -51.1751 -51.1600 -51.1517 -51.1286 -51.1252
   -51.1227 -51.0558 -51.0552 -51.0072 -51.0062 -50.9954 -50.9922 -50.8021
   -21.5692 -21.4949 -21.2037 -21.1987 -21.0183 -21.0175 -20.6813 -20.3280
   -20.3036 -20.2695 -20.2497 -20.2361 -20.1858 -20.1789 -19.8685 -19.8492
   -18.9882 -18.9350 -18.8765  -9.9738  -9.8862  -9.8197  -9.8159  -9.6201
    -9.4649  -8.8536  -8.8169  -8.8098  -8.7622  -8.6920  -8.6353  -8.4420
    -8.4366  -7.9576  -7.9163  -7.7313  -7.7019  -7.4722  -7.4265  -7.3704
    -7.2544  -7.2425  -7.1973  -7.0464  -7.0186  -6.7561  -6.6934  -6.4844
    -6.3634  -6.3342  -6.3009  -6.1105  -5.8333  -5.7192  -5.6855  -5.6471
    -5.6133  -5.5864  -5.5663  -5.4367  -5.3240  -5.2528  -5.0196  -4.8429
    -4.7439  -4.6956  -4.5893  -4.5185  -4.3842  -4.0407  -3.9399  -3.8176
    -3.6936  -3.6140  -3.5858  -3.3623  -3.2772  -2.9645  -2.7783  -2.7747
    -2.6581  -2.4588  -2.3794  -2.1936  -2.0668  -1.9722  -1.9568  -1.8665
    -1.8151  -1.6914  -1.4649  -1.4151  -1.2811  -1.2584  -1.2465  -1.1081
    -1.0529  -0.9844  -0.6139  -0.6077  -0.3297   1.1795   1.3231   1.3362
     1.4938   1.5052   1.7456   1.9558   1.9574   1.9807   1.9945   2.0416
     2.0688   2.8599   2.9877   3.3077   4.0804   4.1161   4.8968   5.2889
     5.3317   5.5611   5.8061   6.0158   6.0436   6.0983   6.6353   6.6801
     6.7209   7.0418   7.0796   7.2468   7.6681   7.7519   7.9091   7.9195
     8.1748   8.2389   8.3392   8.3686   8.4625   8.5642   8.5653   8.5658
     8.5666   8.5862   8.6586   8.7288   8.7424   8.7440   8.7621   8.9215
     8.9443   9.0030   9.0841   9.1015   9.1792   9.3043   9.3349   9.4493
     9.4721   9.4840   9.5109   9.5560   9.6154   9.6824   9.6986   9.8087
     9.8612  10.0158  10.1011  10.1281  10.1967  10.2022  10.3970  10.4167
    10.6163  10.7168  11.0262  11.0699  11.0818  11.1476  11.2661  11.3040
    11.5907  11.6255  11.6922  11.8534  11.8683  11.8979  11.9247  11.9709
    12.0839  12.2432  12.3346  12.4215  12.5572  12.6211  12.8261  12.8404
    12.9056  12.9367  12.9891  13.0448  13.1097  13.1909  13.2372  13.3177
    13.3294  13.3935  13.4873  13.5120  13.5451  13.6653  13.7435  13.7881
    13.8189  14.0781  14.1064  14.1360  14.1602  14.2619  14.4009  14.4927
    14.5335  14.6779  14.7318  14.8002  14.8965  15.0012  15.1229  15.1830
    15.2785  15.3086  15.4148  15.5288  15.8791  15.9739  15.9898  16.0720
    16.1488  16.1626  16.1767  16.1998  16.3612  16.3914  16.4077  16.4551
    16.5636  16.6097  16.6979  16.7410  16.7765  16.7941  16.8094  16.8171
    16.8755  16.9181  16.9613  17.0185  17.1953  17.2448  17.3415  17.5562
    17.6165  17.7172  17.7509  17.7716  17.9302  18.0091  18.1220  18.1568
    18.1809  18.3270  18.3467  18.3883  18.4507  18.5502  18.5856  18.7445
    18.7563  18.8217  18.8842  18.8985  18.9305  19.0299  19.1154  19.1581
    19.2053  19.3117  19.3223  19.4316  19.5380  19.5411  19.6111  19.6593
    19.7170  19.8381  19.8499  19.9871  20.0498  20.0975  20.1104  20.1201
    20.1691  20.2181  20.2769  20.2969  20.3453  20.4105  20.4881  20.4965
    20.5474  20.6321  20.6946  20.7379  20.7698  20.8140  20.9053  20.9340
    21.0170  21.0481  21.1006  21.1158  21.1344  21.1675  21.2113  21.2704
    21.3214  21.3403  21.4339  21.4956  21.5057

          k =-0.5000 0.2476 0.0000 ( 31120 PWs)   bands (ev):

   -52.4692 -52.1780 -52.0694 -51.5223 -51.5214 -51.3559 -51.3467 -51.3372
   -51.3332 -51.3220 -51.3209 -51.1728 -51.1566 -51.1516 -51.1310 -51.1283
   -51.1227 -51.0557 -51.0551 -51.0072 -51.0062 -50.9954 -50.9922 -50.8023
   -21.5403 -21.4619 -21.1147 -21.1101 -20.9391 -20.9342 -20.7047 -20.4895
   -20.4212 -20.3277 -20.3216 -20.2586 -20.2348 -20.2093 -19.8649 -19.8458
   -18.9762 -18.9340 -18.8871  -9.6120  -9.5852  -9.5389  -9.4579  -9.4488
    -9.4345  -8.8246  -8.8135  -8.7720  -8.6627  -8.6448  -8.5546  -8.3547
    -8.3461  -8.0222  -8.0019  -7.8158  -7.7461  -7.7188  -7.6667  -7.5698
    -7.5048  -7.2886  -7.1779  -7.0802  -6.9913  -6.7695  -6.6419  -6.4979
    -6.4308  -6.3528  -6.3182  -6.2166  -6.0236  -5.9975  -5.9596  -5.9399
    -5.9262  -5.8051  -5.7352  -5.4474  -5.4143  -5.1673  -5.0845  -4.8349
    -4.8020  -4.7123  -4.5876  -4.4928  -4.3466  -4.1657  -3.8555  -3.7817
    -3.6857  -3.6040  -3.4335  -3.3152  -2.8620  -2.8097  -2.5970  -2.5475
    -2.4374  -2.3459  -2.3339  -2.2607  -2.1899  -2.1592  -1.9974  -1.9777
    -1.6597  -1.6253  -1.4273  -1.3703  -1.2534  -1.2104  -1.1907  -1.1098
    -1.0666  -1.0479  -0.7756  -0.6932  -0.2116   0.9477   1.1556   1.2658
     1.3047   1.4022   1.4116   1.7606   1.8162   2.1487   2.2625   2.4855
     2.5009   2.8109   3.0548   3.4123   4.3244   4.3474   5.0029   5.5247
     5.5507   5.7980   5.9617   6.0523   6.1869   6.2754   6.3333   6.3660
     6.7473   7.0812   7.1844   7.2844   7.3396   7.4469   7.4726   7.6158
     7.6682   7.8833   7.9467   7.9824   8.0435   8.0894   8.3693   8.4066
     8.5471   8.5651   8.5654   8.5662   8.5681   8.6137   8.7245   8.7420
     8.7434   8.7608   8.7734   8.9273   8.9785   9.0713   9.2423   9.3715
     9.5238   9.5799   9.6533   9.7334   9.7707   9.8764   9.9740  10.1614
    10.1700  10.2346  10.3981  10.4363  10.7684  10.7970  10.9085  10.9769
    11.1284  11.1409  11.3065  11.3359  11.4574  11.5564  11.5661  11.6059
    11.6966  11.7434  11.9263  11.9598  12.1150  12.1827  12.2728  12.3288
    12.4067  12.4844  12.4962  12.5612  12.6603  12.8611  12.9536  12.9880
    13.1134  13.1374  13.1534  13.1807  13.2899  13.3210  13.4194  13.4788
    13.4941  13.6465  13.6798  13.7242  13.7529  13.8180  13.8605  13.9000
    13.9661  14.0157  14.2519  14.2692  14.3411  14.3711  14.4522  14.4879
    14.5331  14.6067  14.6118  14.7589  14.8372  14.8749  14.9523  15.0153
    15.0583  15.1021  15.2198  15.2634  15.3200  15.3536  15.4730  15.5877
    15.6781  15.7052  15.8814  15.9812  16.0910  16.1741  16.2266  16.3495
    16.3723  16.4122  16.4457  16.5126  16.5698  16.6000  16.7047  16.7716
    16.7856  16.8274  16.9024  16.9858  17.0196  17.0743  17.1496  17.2273
    17.2883  17.4770  17.4882  17.5273  17.6158  17.6996  17.7863  17.8447
    17.8945  17.9283  18.0349  18.0642  18.1367  18.2762  18.3846  18.4521
    18.5134  18.5281  18.6182  18.6624  18.6723  18.7881  18.8134  18.8871
    18.9467  19.0113  19.0266  19.1331  19.1507  19.2204  19.2349  19.4078
    19.4466  19.4939  19.5345  19.6356  19.7009  19.7319  19.8448  19.8592
    19.9475  20.0665  20.0927  20.1696  20.2665  20.2866  20.3224  20.3952
    20.4635  20.5382  20.5827  20.7267  20.7724  20.8467  20.8822  20.9393
    20.9647  21.2001  21.2606  21.3435  21.4076  21.4913  21.5398  21.6144
    21.6480  21.6889  21.7286  21.8221  21.8435

          k =-0.5000-0.4953 0.0000 ( 31140 PWs)   bands (ev):

   -52.4692 -52.1781 -52.0693 -51.5224 -51.5214 -51.3561 -51.3469 -51.3372
   -51.3333 -51.3220 -51.3209 -51.1703 -51.1523 -51.1514 -51.1339 -51.1321
   -51.1227 -51.0556 -51.0549 -51.0072 -51.0062 -50.9954 -50.9922 -50.8024
   -21.5135 -21.4324 -20.9292 -20.8840 -20.8804 -20.8767 -20.6543 -20.6440
   -20.6423 -20.5696 -20.4739 -20.2476 -20.2339 -20.2113 -19.8635 -19.8447
   -18.9598 -18.9332 -18.9024  -9.5923  -9.4257  -9.0353  -8.8645  -8.8473
    -8.8396  -8.8034  -8.7507  -8.6828  -8.6587  -8.5271  -8.4302  -8.3793
    -8.3632  -8.2114  -8.1641  -8.1360  -8.1103  -8.0200  -8.0063  -7.6950
    -7.4965  -7.2338  -7.1892  -6.9324  -6.8611  -6.7612  -6.7213  -6.7162
    -6.7087  -6.6123  -6.5807  -6.5451  -6.4427  -6.3837  -6.2251  -6.1354
    -6.0734  -5.9373  -5.8017  -5.4283  -5.2144  -5.0900  -4.9843  -4.8435
    -4.6685  -4.6440  -4.5972  -4.3517  -4.2996  -4.1803  -3.8831  -3.6928
    -3.5562  -3.4303  -3.3816  -3.2330  -2.9020  -2.7890  -2.6743  -2.5796
    -2.5542  -2.3370  -2.3099  -2.2128  -2.0541  -2.0005  -1.8958  -1.8267
    -1.5733  -1.4688  -1.3921  -1.3573  -1.3242  -1.1906  -1.1401  -1.0948
    -1.0092  -0.9397  -0.9010  -0.8434  -0.1231   0.4952   0.8688   0.8791
     1.0155   1.2614   1.4338   1.8653   1.8788   2.4453   2.5282   2.5821
     2.7273   3.1071   3.1645   3.1718   4.7665   4.7910   5.1860   5.3896
     5.3971   6.2168   6.2263   6.3521   6.3649   6.4029   6.4681   6.5991
     6.7085   6.8611   6.8759   6.9439   6.9842   7.0399   7.0631   7.0832
     7.5160   7.5973   7.6681   7.7222   7.8238   7.8983   7.9672   8.0414
     8.1638   8.4864   8.5652   8.5655   8.5658   8.5662   8.7293   8.7424
     8.7486   8.7618   8.8672   8.9534   8.9917   9.1140   9.1307   9.2818
     9.3463   9.3621   9.8956   9.9286   9.9773  10.0104  10.0587  10.0777
    10.1656  10.2354  10.4575  10.5988  10.8654  10.9194  10.9694  11.0006
    11.2637  11.2940  11.6581  11.7450  11.8365  11.9560  12.0056  12.1141
    12.2359  12.2504  12.3703  12.4192  12.6278  12.6631  12.7051  12.8173
    12.8641  12.8990  13.0414  13.0916  13.1024  13.2314  13.3766  13.3790
    13.4303  13.4680  13.4823  13.5933  13.6652  13.6753  13.7300  13.7325
    13.8086  13.8107  13.9189  13.9525  13.9630  13.9895  14.0021  14.0484
    14.1195  14.1280  14.1990  14.2253  14.2502  14.2771  14.2958  14.3324
    14.3782  14.4872  14.5067  14.5433  14.6361  14.6500  14.6887  14.7358
    14.8794  15.0545  15.1039  15.1575  15.2153  15.2174  15.2717  15.3044
    15.3417  15.3645  15.3711  15.4011  15.4298  15.5612  15.5916  15.6227
    15.8079  15.8338  15.8399  15.8561  15.8862  15.9729  16.0039  16.1699
    16.2851  16.3159  16.5007  16.5755  16.7351  16.8111  16.8741  16.8997
    16.9449  16.9798  17.0271  17.0841  17.1967  17.2531  17.2556  17.3881
    17.6407  17.7848  17.8222  17.9755  18.0640  18.1244  18.1444  18.1756
    18.2360  18.3449  18.3945  18.4065  18.5770  18.6418  18.7660  18.9500
    18.9757  19.1152  19.1716  19.3474  19.3804  19.4200  19.4594  19.5155
    19.6494  19.7029  19.7464  19.9144  19.9493  20.0718  20.1229  20.1764
    20.2073  20.2962  20.3975  20.5688  20.6261  20.6389  20.6713  20.7364
    20.7516  20.8586  20.9494  21.1228  21.1457  21.1910  21.1990  21.2693
    21.2866  21.3096  21.3401  21.3605  21.3764  21.4480  21.4669  21.5228
    21.5743  21.5934  21.6298  21.6548  21.6780

          k =-0.2500 0.2476 0.0000 ( 31099 PWs)   bands (ev):

   -52.4692 -52.1791 -52.0695 -51.5241 -51.5196 -51.3841 -51.3599 -51.3421
   -51.3337 -51.3093 -51.2865 -51.1749 -51.1538 -51.1502 -51.1310 -51.1288
   -51.1230 -51.0876 -51.0238 -51.0119 -51.0015 -50.9997 -50.9865 -50.8023
   -21.7298 -21.3672 -21.3438 -21.2048 -20.8599 -20.7400 -20.6653 -20.5401
   -20.4491 -20.4101 -20.2951 -20.1986 -20.1485 -20.1318 -19.9387 -19.7677
   -18.9567 -18.8949 -18.8424  -9.9376  -9.9154  -9.7601  -9.4149  -9.2315
    -9.0092  -8.9550  -8.8746  -8.8240  -8.7935  -8.6995  -8.5929  -8.5351
    -8.3820  -8.2186  -8.1343  -8.0361  -7.8697  -7.8276  -7.5846  -7.5263
    -7.3470  -7.2756  -7.1072  -6.8152  -6.6651  -6.5741  -6.4944  -6.4559
    -6.3975  -6.3125  -6.2231  -6.1716  -6.1176  -6.0151  -5.9090  -5.7762
    -5.6341  -5.5283  -5.4388  -5.2464  -5.1907  -5.0216  -4.9593  -4.8406
    -4.7376  -4.5780  -4.4926  -4.3837  -4.3126  -4.2836  -4.1352  -3.8959
    -3.6250  -3.5438  -3.4241  -3.2853  -3.1238  -2.7745  -2.7461  -2.7018
    -2.6172  -2.5298  -2.5061  -2.4140  -2.3779  -2.3231  -2.2709  -2.1429
    -1.9968  -1.7815  -1.6870  -1.5308  -1.3674  -1.2186  -1.0207  -0.9644
    -0.8940  -0.7612  -0.6826  -0.4724  -0.3104   0.4731   0.6450   1.0121
     1.3291   1.4204   1.7979   1.9277   2.2808   2.4265   2.4609   2.6251
     2.7733   2.9774   3.0197   3.5127   3.5833   4.4961   4.8889   5.3526
     5.3790   5.5175   5.6126   6.1627   6.4673   6.5321   6.6987   6.7946
     6.9201   6.9633   7.2044   7.2863   7.3384   7.3661   7.5492   7.6681
     7.8278   7.8715   7.9526   8.0378   8.1784   8.2231   8.3541   8.4250
     8.5522   8.5652   8.5655   8.5659   8.5665   8.7003   8.7425   8.7445
     8.7612   8.8317   8.9075   8.9283   9.0480   9.0872   9.2143   9.3871
     9.4336   9.6076   9.6609   9.7427   9.7943   9.8765  10.0027  10.1219
    10.1694  10.2630  10.4049  10.4772  10.5170  10.5884  10.6690  10.8280
    10.9045  10.9538  11.0490  11.1105  11.1709  11.3009  11.4193  11.5647
    11.6404  11.6751  11.7458  11.8184  11.8458  11.9986  12.0479  12.1814
    12.2453  12.2702  12.3970  12.4700  12.5561  12.6652  12.6827  12.7431
    12.7985  12.8582  12.9175  12.9647  13.0446  13.0647  13.1568  13.2128
    13.2778  13.4030  13.4480  13.4995  13.6164  13.7882  13.9092  13.9248
    13.9831  14.0693  14.1795  14.2197  14.2709  14.3953  14.4598  14.5997
    14.6562  14.7500  14.7982  14.9269  15.0335  15.0906  15.1942  15.2741
    15.3580  15.4066  15.5256  15.6096  15.6648  15.7376  15.8245  15.8437
    15.9319  15.9872  16.0492  16.1488  16.1519  16.2197  16.3145  16.3423
    16.4241  16.4275  16.5348  16.5818  16.6455  16.6869  16.7460  16.7924
    16.8634  17.0041  17.1516  17.2101  17.2554  17.3221  17.3629  17.4794
    17.5050  17.5572  17.5911  17.6634  17.7270  17.8078  17.8771  17.9247
    17.9743  18.0430  18.1079  18.1908  18.2096  18.2530  18.3875  18.4323
    18.5440  18.6157  18.6295  18.7193  18.7806  18.9033  18.9965  19.0328
    19.0571  19.0940  19.1882  19.2355  19.2716  19.3513  19.3952  19.4713
    19.5849  19.6188  19.6804  19.7223  19.8493  19.9437  19.9707  20.0669
    20.1832  20.2731  20.3095  20.3748  20.4225  20.5052  20.5860  20.6806
    20.7102  20.7560  20.7908  20.8108  20.8404  20.9399  21.0710  21.1333
    21.2151  21.2833  21.3792  21.4256  21.4948  21.5486  21.5968  21.6895
    21.7459  21.7982  21.8660  21.8825  21.9355

 ------ SPIN DOWN ----------


          k = 0.0000 0.0000 0.0000 ( 31045 PWs)   bands (ev):

   -52.4691 -52.1801 -52.0695 -51.5250 -51.5186 -51.3980 -51.3743 -51.3425
   -51.3332 -51.2955 -51.2715 -51.1797 -51.1522 -51.1490 -51.1304 -51.1258
   -51.1236 -51.1010 -51.0140 -51.0119 -51.0018 -50.9993 -50.9823 -50.8021
   -21.9160 -21.5739 -21.3435 -21.3158 -20.6709 -20.6650 -20.6083 -20.5452
   -20.4909 -20.4350 -20.2978 -20.2046 -19.9961 -19.9735 -19.9088 -19.7372
   -18.9448 -18.8641 -18.7854 -10.5774 -10.4780  -9.9786  -9.1913  -9.0802
    -9.0367  -8.9467  -8.9406  -8.9143  -8.8700  -8.7805  -8.6811  -8.6035
    -8.3729  -8.3515  -8.2600  -8.2239  -8.1307  -7.9365  -7.8263  -7.5076
    -7.3987  -7.2506  -7.2456  -6.7733  -6.7154  -6.6156  -6.2926  -5.9989
    -5.9790  -5.8598  -5.8398  -5.7101  -5.6814  -5.5795  -5.4943  -5.4639
    -5.3063  -5.2497  -5.1869  -5.1033  -5.0410  -4.8291  -4.8202  -4.7860
    -4.6247  -4.4370  -4.3792  -4.2500  -4.2138  -4.0903  -4.0353  -3.8843
    -3.7750  -3.7212  -3.6066  -3.3882  -3.3761  -3.3584  -3.1509  -3.1271
    -2.8941  -2.8331  -2.7698  -2.6278  -2.4926  -2.4028  -2.2291  -2.0805
    -1.9517  -1.8612  -1.8509  -1.7179  -1.6904  -1.2361  -1.0975  -0.8735
    -0.8288  -0.6746  -0.6371  -0.3681  -0.1076   0.6322   0.9528   1.0242
     1.1288   1.1917   1.3585   1.7813   2.0258   2.2922   2.6188   2.8045
     2.9012   2.9647   3.0955   3.5019   3.7117   4.0383   4.4474   4.9651
     5.1270   5.8609   5.9851   6.0876   6.1425   6.7184   6.8493   7.0670
     7.4338   7.5798   7.6681   7.6733   7.6865   7.7567   7.7706   7.9688
     8.0039   8.0565   8.1516   8.1650   8.2151   8.2667   8.4162   8.4735
     8.5027   8.5651   8.5651   8.5655   8.5662   8.6364   8.7109   8.7179
     8.7424   8.7439   8.7584   8.7914   8.9789   9.0254   9.1495   9.2231
     9.2669   9.2912   9.3904   9.4801   9.5529   9.8439   9.8825   9.9110
    10.0655  10.2093  10.2884  10.3046  10.4567  10.5502  10.6133  10.6758
    10.8517  10.9820  11.0922  11.1376  11.1704  11.1846  11.2099  11.2346
    11.3299  11.5250  11.5734  11.6604  11.7587  11.7884  11.8621  11.9742
    12.0321  12.0737  12.1449  12.1974  12.2337  12.3483  12.3881  12.4328
    12.5305  12.5521  12.5602  12.6456  12.7981  12.8610  12.8895  12.9133
    12.9802  13.1288  13.2173  13.3343  13.4608  13.6690  13.6966  13.7687
    13.7771  13.8864  13.9132  14.0725  14.1467  14.2054  14.3663  14.3844
    14.5172  14.6000  14.6223  14.6557  14.7148  14.8986  14.9322  15.0687
    15.2495  15.3584  15.3871  15.4749  15.5570  15.7200  15.7322  15.7932
    15.8299  15.9980  16.0568  16.0686  16.2279  16.2515  16.3125  16.4629
    16.5594  16.6774  16.7566  16.8855  17.0375  17.1091  17.2034  17.2295
    17.2886  17.3567  17.4040  17.5462  17.6183  17.6213  17.6820  17.8593
    17.9478  17.9799  18.0877  18.2511  18.3332  18.4209  18.5147  18.5310
    18.6288  18.6584  18.7404  18.7978  18.9002  18.9604  19.0449  19.0496
    19.1224  19.1924  19.2347  19.2732  19.3158  19.4155  19.4762  19.5124
    19.6130  19.6876  19.6919  19.7650  19.8114  19.8647  19.8946  19.8989
    19.9326  19.9948  20.0299  20.1125  20.2265  20.3045  20.4586  20.4973
    20.5185  20.5702  20.6264  20.7088  20.7599  20.7893  20.9005  20.9630
    21.0754  21.1134  21.2072  21.2276  21.2790  21.3729  21.4034  21.5362
    21.5951  21.6855  21.7118  21.8007  21.8268  21.9107  21.9435  22.0026
    22.0112  22.1374  22.1841  22.2160  22.2607

          k = 0.0000 0.2476 0.0000 ( 31078 PWs)   bands (ev):

   -52.4691 -52.1802 -52.0694 -51.5250 -51.5187 -51.3984 -51.3744 -51.3425
   -51.3332 -51.2954 -51.2715 -51.1760 -51.1520 -51.1489 -51.1311 -51.1293
   -51.1236 -51.1005 -51.0140 -51.0119 -51.0018 -50.9993 -50.9824 -50.8022
   -21.8323 -21.4606 -21.3318 -21.3079 -20.7600 -20.7298 -20.6842 -20.6041
   -20.3689 -20.3428 -20.3046 -20.2159 -20.0914 -20.0691 -19.9597 -19.7381
   -18.9309 -18.8726 -18.7877 -10.0958 -10.0786  -9.8881  -9.4576  -9.2061
    -9.0270  -8.9542  -8.9455  -8.8748  -8.8497  -8.7643  -8.6386  -8.5479
    -8.3505  -8.2792  -8.2632  -8.2167  -8.0560  -7.7174  -7.5528  -7.3744
    -7.3228  -7.2490  -6.9100  -6.8361  -6.8172  -6.6791  -6.5993  -6.4007
    -6.3622  -6.2201  -5.9765  -5.8804  -5.8551  -5.7834  -5.6111  -5.4587
    -5.4052  -5.2911  -5.2828  -5.2233  -5.1330  -4.9832  -4.7502  -4.6972
    -4.6598  -4.5591  -4.4569  -4.2887  -4.2535  -4.1738  -4.0762  -4.0653
    -3.7646  -3.5797  -3.3866  -3.3544  -3.2282  -2.9169  -2.9079  -2.8419
    -2.8154  -2.7512  -2.6558  -2.6260  -2.5969  -2.5591  -2.4618  -2.3902
    -2.2544  -1.8446  -1.7138  -1.7063  -1.6427  -1.1406  -0.9283  -0.8899
    -0.7345  -0.6044  -0.5380  -0.4282  -0.2939   0.2316   0.4120   0.9312
     1.1540   1.3390   1.8588   2.2858   2.5325   2.6068   2.6960   2.8340
     2.9202   2.9730   3.1453   3.5059   3.6314   4.1917   4.6510   5.1360
     5.2641   5.3588   6.0484   6.2194   6.2426   6.4456   6.5377   6.8406
     6.8988   7.0106   7.2068   7.5315   7.5832   7.6157   7.6681   7.7699
     8.0245   8.1182   8.2062   8.2333   8.2539   8.3502   8.4827   8.5178
     8.5631   8.5652   8.5656   8.5665   8.5783   8.6925   8.7424   8.7439
     8.7615   8.8243   8.8519   8.9609   9.0910   9.1985   9.2500   9.3657
     9.3973   9.4625   9.5948   9.6674   9.7491   9.7694   9.8554  10.0242
    10.1995  10.2655  10.3337  10.3797  10.4437  10.4752  10.5390  10.6249
    10.6861  10.7753  10.8055  10.8699  11.0118  11.0416  11.1634  11.2797
    11.3574  11.3724  11.4691  11.5983  11.6954  11.7076  11.7648  11.8387
    12.0637  12.1506  12.2243  12.3802  12.4587  12.5305  12.5658  12.6113
    12.7067  12.8237  12.8838  12.9465  12.9658  12.9975  13.1744  13.2339
    13.2871  13.5862  13.6346  13.7196  13.8407  13.8529  13.8867  14.0350
    14.0506  14.1254  14.1664  14.2050  14.3380  14.4691  14.4879  14.5996
    14.6185  14.6933  14.8172  14.8619  14.9040  14.9535  15.0158  15.1999
    15.3674  15.3843  15.4650  15.6268  15.6833  15.7703  15.7948  15.9120
    15.9432  16.0101  16.0631  16.1792  16.2063  16.2390  16.3062  16.3683
    16.4110  16.4683  16.5343  16.6442  16.7391  16.8207  16.9173  17.0058
    17.0516  17.0835  17.1508  17.2511  17.2896  17.3876  17.4043  17.5059
    17.5476  17.6251  17.7131  17.7460  18.0662  18.1155  18.1563  18.2858
    18.4422  18.5100  18.5413  18.5622  18.6790  18.7434  18.8106  18.8943
    18.9128  18.9646  19.0916  19.1069  19.1604  19.2739  19.3217  19.3840
    19.4371  19.5413  19.5650  19.5698  19.6419  19.6632  19.7227  19.7478
    19.8130  19.8688  19.9318  19.9786  20.0450  20.0623  20.1351  20.1435
    20.1756  20.2314  20.3469  20.3820  20.4167  20.4703  20.7419  20.7603
    20.8438  20.8469  20.9196  20.9535  20.9802  21.0227  21.0524  21.0786
    21.1223  21.1940  21.2403  21.2858  21.4073  21.4656  21.5239  21.5949
    21.6471  21.7611  21.7988  21.8274  21.8642

          k = 0.0000-0.4953 0.0000 ( 31160 PWs)   bands (ev):

   -52.4691 -52.1802 -52.0693 -51.5251 -51.5188 -51.3988 -51.3744 -51.3425
   -51.3332 -51.2953 -51.2715 -51.1717 -51.1506 -51.1488 -51.1370 -51.1293
   -51.1235 -51.1000 -51.0140 -51.0120 -51.0018 -50.9993 -50.9824 -50.8024
   -21.7368 -21.3278 -21.3190 -21.2603 -20.8197 -20.7976 -20.7774 -20.6562
   -20.3675 -20.3002 -20.2829 -20.2222 -20.1749 -20.1649 -19.9690 -19.7390
   -18.9022 -18.8961 -18.7905  -9.9992  -9.6267  -9.4346  -9.3214  -9.2287
    -8.9528  -8.9444  -8.9157  -8.8379  -8.7755  -8.6426  -8.5886  -8.4686
    -8.3476  -8.2903  -8.2660  -8.1703  -8.0656  -7.6170  -7.5706  -7.4962
    -7.4277  -7.3344  -7.2940  -7.0795  -6.9256  -6.7517  -6.5427  -6.3801
    -6.3396  -6.3016  -6.2075  -6.1690  -6.0813  -5.9249  -5.9077  -5.7974
    -5.4295  -5.3216  -5.2211  -5.1945  -5.1476  -4.8316  -4.6941  -4.6006
    -4.5657  -4.5143  -4.3968  -4.3448  -4.3289  -4.2501  -4.1942  -4.0747
    -3.7194  -3.6288  -3.4707  -3.3184  -3.2299  -3.1826  -3.1631  -2.8142
    -2.7926  -2.6199  -2.6047  -2.4859  -2.4738  -2.3956  -2.3887  -2.2600
    -2.1437  -1.7433  -1.7365  -1.5784  -1.5600  -1.4163  -1.1779  -0.7974
    -0.7270  -0.5247  -0.4065  -0.3739  -0.3719  -0.1818   0.0215   1.0280
     1.1744   1.8744   2.0890   2.2836   2.4012   2.5522   2.9501   3.0430
     3.0976   3.1692   3.3859   3.5104   3.8576   4.3995   4.7573   5.2699
     5.3448   5.4559   5.7404   5.9488   5.9755   6.0743   6.4002   6.6092
     6.7248   6.8764   7.0492   7.1350   7.2117   7.6191   7.6681   7.8177
     8.0185   8.2223   8.2796   8.3558   8.4856   8.5455   8.5475   8.5531
     8.5653   8.5661   8.5667   8.5674   8.7389   8.7405   8.7546   8.7626
     8.8910   8.9935   9.0082   9.1299   9.1400   9.1632   9.2013   9.2738
     9.3314   9.4070   9.4248   9.5037   9.6309   9.6776   9.6968   9.9251
     9.9350  10.0410  10.1614  10.1717  10.2945  10.3178  10.3348  10.3392
    10.5120  11.0779  11.1152  11.1479  11.1733  11.2887  11.3029  11.3943
    11.5513  11.6038  11.7396  11.8398  11.9295  12.0624  12.1547  12.1708
    12.3339  12.3722  12.4256  12.4761  12.5334  12.6265  12.6494  12.8124
    12.8355  13.0172  13.0858  13.1552  13.1918  13.2391  13.2710  13.2941
    13.3523  13.4485  13.4901  13.5806  13.6065  13.6551  13.8311  13.8952
    14.0225  14.1590  14.2791  14.4550  14.5501  14.6763  14.6823  14.7623
    14.8630  14.9024  14.9430  15.1452  15.1700  15.3099  15.3921  15.4287
    15.4809  15.4991  15.6476  15.7278  15.7964  15.8073  15.9699  15.9754
    16.0644  16.1586  16.1824  16.2697  16.2949  16.3978  16.4589  16.4808
    16.5177  16.5503  16.6372  16.6653  16.7437  16.7613  16.7647  16.8123
    16.9198  16.9643  17.0278  17.0844  17.1564  17.2115  17.2684  17.3028
    17.5130  17.5716  17.5752  17.5994  17.7259  17.7846  17.8200  17.8803
    17.9736  18.0161  18.0505  18.0764  18.1719  18.3087  18.3191  18.3728
    18.3989  18.4959  18.5287  18.5729  18.6152  18.7412  18.7842  18.9809
    19.0201  19.0662  19.1958  19.2306  19.3283  19.4250  19.4715  19.6009
    19.6172  19.6867  19.7609  19.8288  19.8712  19.9039  20.0572  20.1483
    20.2157  20.2612  20.3264  20.3502  20.4477  20.4759  20.4932  20.5217
    20.5377  20.5611  20.6184  20.6709  20.7359  20.7713  20.8793  20.9064
    20.9668  20.9839  21.0208  21.0613  21.0906  21.1352  21.1514  21.2319
    21.2642  21.2745  21.3161  21.3795  21.4344

          k = 0.2500 0.0000 0.0000 ( 31106 PWs)   bands (ev):

   -52.4691 -52.1790 -52.0695 -51.5241 -51.5195 -51.3837 -51.3599 -51.3421
   -51.3336 -51.3093 -51.2865 -51.1778 -51.1558 -51.1503 -51.1294 -51.1255
   -51.1230 -51.0880 -51.0239 -51.0119 -51.0015 -50.9997 -50.9865 -50.8021
   -21.8002 -21.4641 -21.3583 -21.2420 -20.8927 -20.7407 -20.6472 -20.4622
   -20.4207 -20.3644 -20.2891 -20.2158 -20.0588 -19.9960 -19.9490 -19.7676
   -18.9682 -18.8915 -18.8364 -10.4011 -10.2980  -9.8473  -9.3832  -9.2974
    -9.2251  -8.9724  -8.9431  -8.8557  -8.8029  -8.6239  -8.5997  -8.4488
    -8.3296  -8.2540  -8.0770  -8.0457  -7.9798  -7.9623  -7.7813  -7.5587
    -7.3204  -7.3006  -7.0107  -6.8169  -6.5703  -6.4499  -6.4168  -6.3258
    -6.2294  -6.1501  -6.0286  -5.9206  -5.9009  -5.8150  -5.7624  -5.5918
    -5.4104  -5.2825  -5.2424  -5.1671  -5.0018  -4.9752  -4.9576  -4.8272
    -4.7533  -4.6966  -4.5351  -4.4779  -4.4344  -4.2102  -4.0502  -3.8269
    -3.6884  -3.5901  -3.5259  -3.4344  -3.4067  -3.0307  -2.9185  -2.8028
    -2.7655  -2.6288  -2.4908  -2.4187  -2.3015  -2.2622  -2.0233  -1.9853
    -1.9399  -1.8708  -1.6517  -1.5211  -1.3856  -1.3539  -1.1577  -1.0614
    -0.8965  -0.7809  -0.5790  -0.4787  -0.2519   0.8214   1.1327   1.1443
     1.3035   1.3927   1.4705   1.7875   1.8918   2.0491   2.5921   2.6497
     2.6980   2.8685   2.9602   3.2133   3.6347   4.3073   4.6773   5.1679
     5.1941   5.3769   6.0497   6.1309   6.4059   6.4248   6.7030   6.8850
     7.1343   7.2120   7.3399   7.4726   7.6681   7.7370   7.8581   7.8920
     7.9604   7.9959   8.0586   8.1810   8.2547   8.2898   8.3897   8.5649
     8.5653   8.5657   8.5663   8.6967   8.7293   8.7420   8.7442   8.7572
     8.7632   8.8689   8.9155   8.9976   9.1257   9.1947   9.2216   9.2805
     9.4635   9.4859   9.5845   9.6903   9.8017   9.9935  10.0913  10.1201
    10.1668  10.2553  10.2884  10.3498  10.4363  10.5039  10.5304  10.6118
    10.6730  10.7541  10.7845  10.8313  10.9779  11.1206  11.2194  11.2330
    11.2796  11.2960  11.3611  11.4378  11.5189  11.6028  11.6746  11.7403
    11.9196  11.9816  12.1163  12.1838  12.3797  12.4853  12.5354  12.6064
    12.6332  12.6649  12.8215  12.9039  12.9933  13.1354  13.2988  13.3176
    13.4503  13.5317  13.6773  13.8032  13.9020  13.9399  13.9715  14.0151
    14.0741  14.1282  14.1547  14.1984  14.2648  14.3115  14.4055  14.5068
    14.5312  14.6138  14.6659  14.7342  14.7824  14.8966  14.9910  15.0351
    15.0899  15.3055  15.3474  15.4163  15.5288  15.6531  15.6927  15.7755
    15.8091  15.8812  16.0054  16.0481  16.1183  16.1739  16.2943  16.3293
    16.3429  16.3719  16.4704  16.4868  16.7018  16.7478  16.8107  17.0586
    17.1404  17.2173  17.3124  17.3821  17.4382  17.5398  17.5834  17.7137
    17.7471  17.9366  17.9654  18.0129  18.0937  18.2382  18.2721  18.2875
    18.4798  18.5130  18.6220  18.8237  18.8650  18.9887  19.0730  19.1149
    19.1441  19.1995  19.2654  19.3348  19.3605  19.4113  19.4533  19.4962
    19.5012  19.5734  19.6025  19.6603  19.7068  19.7602  19.7767  19.7995
    19.8416  19.8609  19.9069  19.9680  20.1120  20.1613  20.2015  20.2377
    20.2803  20.3248  20.3502  20.4273  20.4691  20.4909  20.5650  20.5967
    20.6370  20.7574  20.8660  20.8951  20.9638  21.0326  21.0676  21.0880
    21.1909  21.2557  21.3052  21.3386  21.4229  21.4567  21.5168  21.5831
    21.6169  21.6592  21.7218  21.7531  21.8652

          k = 0.2500 0.2476 0.0000 ( 31099 PWs)   bands (ev):

   -52.4691 -52.1791 -52.0694 -51.5241 -51.5196 -51.3840 -51.3599 -51.3421
   -51.3336 -51.3095 -51.2865 -51.1743 -51.1544 -51.1502 -51.1312 -51.1286
   -51.1230 -51.0876 -51.0239 -51.0119 -51.0015 -50.9997 -50.9865 -50.8023
   -21.7296 -21.3673 -21.3439 -21.2050 -20.8601 -20.7401 -20.6655 -20.5405
   -20.4478 -20.4085 -20.2949 -20.2004 -20.1499 -20.1311 -19.9378 -19.7680
   -18.9566 -18.8948 -18.8424  -9.9376  -9.9185  -9.7586  -9.4124  -9.2317
    -8.9955  -8.9551  -8.8760  -8.8320  -8.7893  -8.7165  -8.5885  -8.5356
    -8.3806  -8.2144  -8.1326  -8.0149  -7.8734  -7.8300  -7.5800  -7.5210
    -7.3607  -7.3292  -7.1199  -6.7983  -6.6672  -6.5599  -6.4915  -6.4353
    -6.4045  -6.2487  -6.2233  -6.1741  -6.1262  -6.0566  -5.8999  -5.7723
    -5.6331  -5.5423  -5.4385  -5.2719  -5.1778  -5.0324  -4.9479  -4.8289
    -4.6678  -4.6037  -4.5725  -4.3878  -4.3252  -4.2311  -4.1182  -3.9068
    -3.5993  -3.5399  -3.4211  -3.3814  -3.1113  -2.7655  -2.7222  -2.6448
    -2.6114  -2.5851  -2.5192  -2.4112  -2.3636  -2.3033  -2.2467  -2.1759
    -1.9987  -1.8072  -1.6824  -1.5276  -1.3671  -1.2143  -1.0098  -0.9667
    -0.8914  -0.7727  -0.6818  -0.4710  -0.3098   0.4732   0.6466   1.0123
     1.3292   1.4183   1.7973   1.9276   2.2846   2.4282   2.4558   2.6206
     2.7743   2.9810   3.0200   3.5169   3.5815   4.4960   4.8861   5.3351
     5.3599   5.5190   5.6041   6.1608   6.4728   6.5868   6.6926   6.7929
     6.9272   7.0018   7.2011   7.2904   7.3228   7.3751   7.5492   7.6681
     7.8346   7.8678   7.9393   8.0315   8.1419   8.2346   8.3819   8.4229
     8.5643   8.5652   8.5657   8.5660   8.5697   8.6914   8.7419   8.7447
     8.7612   8.8229   8.8866   8.9150   9.0502   9.0964   9.2131   9.3470
     9.4193   9.6021   9.6569   9.7297   9.8173   9.9139  10.0204  10.1156
    10.2373  10.2708  10.4229  10.4364  10.5112  10.5868  10.6632  10.7628
    10.9293  10.9549  11.0603  11.1122  11.1721  11.2775  11.4049  11.5640
    11.6374  11.6753  11.7568  11.8085  11.8420  11.9972  12.0540  12.1699
    12.2358  12.2670  12.4028  12.4612  12.5603  12.6453  12.6860  12.7496
    12.8373  12.8471  12.8782  12.9428  13.0390  13.0660  13.1414  13.1982
    13.2472  13.4313  13.4754  13.5116  13.6306  13.8004  13.8729  13.9156
    14.0301  14.0700  14.1666  14.2482  14.3053  14.3950  14.4662  14.5845
    14.6375  14.7838  14.8371  14.9389  15.0618  15.1442  15.1910  15.2548
    15.3308  15.4045  15.5523  15.6196  15.6660  15.7557  15.7975  15.8857
    15.9302  16.0028  16.0512  16.1400  16.1559  16.2254  16.3009  16.3600
    16.4140  16.4392  16.5313  16.5761  16.6490  16.7146  16.7557  16.8025
    16.8672  17.0185  17.0741  17.1743  17.2622  17.3138  17.3748  17.4448
    17.4905  17.5635  17.6003  17.6500  17.7074  17.7727  17.8565  17.9174
    17.9756  18.0586  18.0886  18.1935  18.2164  18.2619  18.4240  18.4569
    18.5247  18.5841  18.6486  18.6850  18.7636  18.8757  18.9608  19.0090
    19.0546  19.0906  19.1618  19.2248  19.2776  19.3320  19.4155  19.4841
    19.5759  19.6450  19.7077  19.7377  19.8362  19.9329  19.9684  20.0145
    20.1254  20.2745  20.3309  20.4310  20.4603  20.5115  20.5727  20.6379
    20.7264  20.7461  20.8042  20.8335  20.8993  20.9170  20.9770  21.0932
    21.1863  21.2901  21.4148  21.4556  21.4891  21.5360  21.5892  21.6976
    21.7680  21.8053  21.8442  21.8955  21.9234

          k = 0.2500-0.4953 0.0000 ( 31088 PWs)   bands (ev):

   -52.4691 -52.1791 -52.0693 -51.5241 -51.5197 -51.3844 -51.3599 -51.3421
   -51.3337 -51.3094 -51.2865 -51.1711 -51.1514 -51.1501 -51.1358 -51.1303
   -51.1230 -51.0873 -51.0238 -51.0119 -51.0015 -50.9997 -50.9865 -50.8024
   -21.6554 -21.3500 -21.1932 -21.1507 -20.7901 -20.7763 -20.7111 -20.6517
   -20.4788 -20.4710 -20.3734 -20.2128 -20.2040 -20.1831 -19.9390 -19.7682
   -18.9406 -18.9022 -18.8492  -9.8525  -9.4550  -9.1316  -9.0748  -9.0328
    -9.0170  -8.9206  -8.8239  -8.8069  -8.7279  -8.7039  -8.6742  -8.5560
    -8.4230  -8.2887  -8.1820  -8.0193  -7.7462  -7.6596  -7.5522  -7.4430
    -7.3631  -7.2842  -7.2171  -7.1799  -7.1465  -7.0497  -6.8587  -6.6372
    -6.5290  -6.4138  -6.3745  -6.3108  -6.2467  -6.0910  -5.9026  -5.8213
    -5.7789  -5.6574  -5.5624  -5.2732  -5.1109  -5.0716  -4.9504  -4.8307
    -4.7206  -4.5019  -4.4619  -4.3346  -4.2632  -4.0383  -3.9745  -3.8804
    -3.8091  -3.5773  -3.3886  -3.2090  -3.0825  -3.0253  -2.8853  -2.6576
    -2.5509  -2.5076  -2.4597  -2.4245  -2.3174  -2.2327  -1.9979  -1.9796
    -1.9243  -1.6994  -1.5859  -1.5383  -1.3822  -1.3335  -1.2110  -0.8507
    -0.8428  -0.7390  -0.6229  -0.5740  -0.2141   0.0258   0.2212   1.0655
     1.3482   1.7452   1.8043   1.9332   2.0320   2.3047   2.8718   2.9113
     2.9662   3.1264   3.1627   3.2943   4.1459   4.6819   4.9417   5.5307
     5.6322   5.6389   5.7509   6.0045   6.2193   6.2408   6.3550   6.4045
     6.7571   6.9735   7.1540   7.2420   7.3147   7.4221   7.5024   7.6029
     7.6681   7.7439   7.9179   7.9998   8.0128   8.0820   8.1756   8.2878
     8.3778   8.5369   8.5652   8.5655   8.5661   8.5662   8.6987   8.7410
     8.7431   8.7617   8.7981   8.8314   8.8586   9.0223   9.2372   9.4241
     9.4383   9.5131   9.5555   9.6221   9.7304   9.7487   9.9506  10.0950
    10.2297  10.2889  10.3878  10.4855  10.5062  11.0032  11.0998  11.1414
    11.2006  11.2901  11.3634  11.4771  11.5673  11.6248  11.7262  11.7485
    11.7940  11.8647  11.9598  12.0006  12.1655  12.2061  12.2966  12.3072
    12.4394  12.4579  12.5617  12.5784  12.6947  12.7439  12.7965  12.8741
    12.9668  13.0834  13.2129  13.2506  13.3238  13.3402  13.3668  13.4074
    13.5726  13.6157  13.6529  13.7110  13.7244  13.8782  13.9198  13.9416
    14.0574  14.3215  14.3462  14.4328  14.4639  14.5487  14.5771  14.6004
    14.6381  14.7162  14.7825  14.8826  14.9023  14.9797  15.0326  15.0934
    15.1287  15.1968  15.2415  15.3199  15.4048  15.4255  15.5580  15.5805
    15.6684  15.7935  15.8778  16.0261  16.1298  16.1331  16.1770  16.2564
    16.3441  16.3841  16.4356  16.5266  16.5623  16.6478  16.6785  16.7089
    16.7692  16.8597  16.9487  17.0311  17.0751  17.1028  17.1561  17.2501
    17.3008  17.3249  17.3489  17.4144  17.4888  17.5560  17.6177  17.6982
    17.8790  17.9310  17.9753  17.9985  18.0906  18.2141  18.3042  18.3190
    18.3951  18.4785  18.5470  18.5861  18.6489  18.6883  18.7185  18.7762
    18.8550  18.9540  18.9819  19.0615  19.0798  19.1853  19.1928  19.2625
    19.3486  19.3659  19.4320  19.4572  19.6224  19.6353  19.6750  19.7250
    19.7837  19.8874  19.9369  19.9762  20.0115  20.1709  20.2419  20.4243
    20.4890  20.5328  20.6431  20.6916  20.7154  20.7895  20.8494  20.9672
    21.0598  21.0836  21.1353  21.1697  21.2318  21.2934  21.3734  21.5116
    21.5716  21.6313  21.6822  21.8006  21.8320

          k =-0.5000 0.0000 0.0000 ( 31104 PWs)   bands (ev):

   -52.4691 -52.1779 -52.0695 -51.5224 -51.5213 -51.3557 -51.3466 -51.3371
   -51.3330 -51.3220 -51.3209 -51.1751 -51.1600 -51.1517 -51.1286 -51.1252
   -51.1227 -51.0558 -51.0552 -51.0072 -51.0062 -50.9954 -50.9922 -50.8021
   -21.5692 -21.4949 -21.2037 -21.1987 -21.0182 -21.0175 -20.6813 -20.3280
   -20.3036 -20.2695 -20.2497 -20.2361 -20.1858 -20.1789 -19.8685 -19.8492
   -18.9881 -18.9350 -18.8764  -9.9738  -9.8862  -9.8197  -9.8159  -9.6201
    -9.4649  -8.8536  -8.8169  -8.8098  -8.7622  -8.6920  -8.6353  -8.4420
    -8.4366  -7.9576  -7.9163  -7.7313  -7.7019  -7.4722  -7.4265  -7.3704
    -7.2544  -7.2425  -7.1973  -7.0464  -7.0186  -6.7561  -6.6934  -6.4844
    -6.3634  -6.3342  -6.3009  -6.1105  -5.8333  -5.7192  -5.6855  -5.6471
    -5.6132  -5.5864  -5.5663  -5.4367  -5.3240  -5.2528  -5.0196  -4.8428
    -4.7439  -4.6956  -4.5893  -4.5184  -4.3842  -4.0407  -3.9399  -3.8176
    -3.6936  -3.6140  -3.5858  -3.3622  -3.2772  -2.9645  -2.7783  -2.7747
    -2.6581  -2.4588  -2.3794  -2.1936  -2.0668  -1.9722  -1.9568  -1.8665
    -1.8151  -1.6914  -1.4648  -1.4151  -1.2811  -1.2584  -1.2464  -1.1079
    -1.0529  -0.9844  -0.6138  -0.6077  -0.3297   1.1795   1.3231   1.3362
     1.4938   1.5052   1.7456   1.9558   1.9574   1.9807   1.9945   2.0416
     2.0688   2.8599   2.9877   3.3077   4.0804   4.1161   4.8968   5.2889
     5.3317   5.5611   5.8061   6.0158   6.0436   6.0984   6.6353   6.6801
     6.7209   7.0418   7.0796   7.2468   7.6681   7.7519   7.9091   7.9195
     8.1748   8.2389   8.3392   8.3686   8.4625   8.5642   8.5653   8.5658
     8.5666   8.5862   8.6586   8.7288   8.7424   8.7440   8.7621   8.9215
     8.9443   9.0030   9.0841   9.1015   9.1792   9.3043   9.3349   9.4493
     9.4721   9.4840   9.5109   9.5560   9.6154   9.6825   9.6986   9.8087
     9.8612  10.0158  10.1011  10.1281  10.1967  10.2023  10.3971  10.4168
    10.6163  10.7168  11.0262  11.0699  11.0818  11.1476  11.2661  11.3040
    11.5908  11.6255  11.6922  11.8534  11.8683  11.8979  11.9247  11.9709
    12.0839  12.2432  12.3346  12.4215  12.5572  12.6211  12.8261  12.8404
    12.9056  12.9367  12.9891  13.0448  13.1097  13.1909  13.2372  13.3177
    13.3294  13.3935  13.4873  13.5120  13.5451  13.6653  13.7435  13.7881
    13.8189  14.0781  14.1064  14.1360  14.1602  14.2619  14.4009  14.4927
    14.5335  14.6779  14.7318  14.8002  14.8965  15.0012  15.1229  15.1830
    15.2786  15.3086  15.4148  15.5288  15.8791  15.9739  15.9898  16.0720
    16.1488  16.1626  16.1767  16.1998  16.3612  16.3914  16.4077  16.4551
    16.5636  16.6097  16.6979  16.7410  16.7765  16.7941  16.8094  16.8171
    16.8755  16.9181  16.9613  17.0185  17.1953  17.2448  17.3415  17.5562
    17.6165  17.7172  17.7509  17.7716  17.9302  18.0091  18.1220  18.1568
    18.1809  18.3270  18.3467  18.3883  18.4507  18.5502  18.5856  18.7445
[...]
     8.9443   9.0264   9.0897   9.1050   9.1834   9.2987   9.3432   9.4487
     9.4884   9.5048   9.5257   9.5516   9.6150   9.6998   9.7149   9.8145
     9.8608  10.0011  10.1210  10.1481  10.1900  10.1966  10.3967  10.4241
    10.6151  10.7157  11.0211  11.0685  11.0851  11.1482  11.2451  11.2776
    11.5848  11.6194  11.6923  11.8465  11.8655  11.9049  11.9300  11.9838
    12.0847  12.2419  12.3437  12.4175  12.5912  12.6644  12.8461  12.8599
    12.9064  12.9386  12.9826  13.0351  13.1112  13.2051  13.2373  13.3283
    13.4067  13.4633  13.4867  13.5293  13.5729  13.6534  13.7464  13.7880
    13.8232  14.0695  14.0949  14.1283  14.1491  14.2531  14.3934  14.4970
    14.5193  14.6530  14.7094  14.7967  14.8764  14.9897  15.1019  15.1750
    15.2783  15.2926  15.4032  15.4782  15.8672  15.9818  15.9854  16.0832
    16.1586  16.1764  16.1814  16.2095  16.3602  16.3938  16.4100  16.4509
    16.5778  16.6156  16.7154  16.7418  16.7753  16.7930  16.8125  16.8169
    16.8780  16.9115  16.9581  17.0174  17.1928  17.2495  17.3359  17.5613
    17.6262  17.7153  17.7547  17.7706  17.9279  18.0044  18.1170  18.1595
    18.1848  18.3456  18.3761  18.3902  18.4616  18.5459  18.5866  18.7575
    18.7716  18.8331  18.8790  18.8892  18.9236  19.0074  19.1222  19.1667
    19.1921  19.2960  19.3199  19.4567  19.5389  19.5421  19.6251  19.6736
    19.7180  19.8434  19.8546  20.0035  20.0606  20.0919  20.1204  20.1263
    20.1951  20.2277  20.2674  20.3053  20.3557  20.4183  20.5030  20.5091
    20.5476  20.6616  20.6850  20.7514  20.7697  20.8167  20.8883  20.9328
    21.0330  21.0497  21.1148  21.1228  21.1467  21.2035  21.2134  21.2598
    21.3176  21.3745  21.4231  21.4825  21.4999

          k =-0.5000 0.2476 0.0000 ( 31120 PWs)   bands (ev):

   -52.5011 -52.2049 -52.0863 -51.4911 -51.4903 -51.3537 -51.3427 -51.3390
   -51.3284 -51.3051 -51.3045 -51.1686 -51.1646 -51.1565 -51.1561 -51.1289
   -51.1264 -51.0643 -51.0621 -50.9986 -50.9961 -50.9754 -50.9751 -50.8247
   -21.5700 -21.4812 -21.1370 -21.1109 -20.9340 -20.9306 -20.8217 -20.4902
   -20.4373 -20.3187 -20.3169 -20.2641 -20.2556 -20.2149 -19.8636 -19.8478
   -18.9610 -18.9262 -18.8945  -9.6851  -9.5823  -9.5411  -9.5014  -9.4464
    -9.4438  -8.8671  -8.8525  -8.8349  -8.7125  -8.6579  -8.5633  -8.3606
    -8.3553  -8.0365  -8.0201  -7.8364  -7.7758  -7.7249  -7.6734  -7.5926
    -7.5328  -7.3087  -7.1966  -7.1028  -7.0020  -6.7749  -6.6540  -6.5120
    -6.4271  -6.3321  -6.3237  -6.2032  -6.0197  -6.0004  -5.9596  -5.9454
    -5.9332  -5.7927  -5.7304  -5.4677  -5.4433  -5.1593  -5.0975  -4.8283
    -4.7928  -4.7096  -4.5791  -4.4968  -4.3507  -4.1895  -3.8610  -3.7793
    -3.6824  -3.6030  -3.4476  -3.3346  -2.8772  -2.8061  -2.5989  -2.5513
    -2.4417  -2.3427  -2.3337  -2.2825  -2.1871  -2.1586  -2.0177  -1.9812
    -1.6473  -1.6152  -1.4147  -1.3494  -1.2288  -1.1866  -1.1645  -1.0973
    -1.0672  -1.0366  -0.7491  -0.6703  -0.1472   0.9265   1.1584   1.2774
     1.3236   1.3820   1.4176   1.8010   1.8636   2.1603   2.2822   2.4985
     2.5172   2.8488   3.0943   3.4367   4.3247   4.3413   5.0144   5.5261
     5.5544   5.8050   5.9602   6.0495   6.1898   6.2709   6.3408   6.3661
     6.7594   7.0770   7.1856   7.2919   7.3432   7.4500   7.4790   7.6242
     7.6436   7.8869   7.9441   7.9864   8.0432   8.0840   8.3658   8.4075
     8.5584   8.5740   8.5761   8.5961   8.5967   8.6275   8.7311   8.7426
     8.7440   8.7476   8.7818   8.9352   8.9833   9.0799   9.2480   9.3868
     9.5261   9.6028   9.6767   9.7429   9.7643   9.8975   9.9930  10.1789
    10.1840  10.2338  10.4101  10.4410  10.7599  10.7991  10.9012  10.9776
    11.1283  11.1417  11.3013  11.3280  11.4487  11.5356  11.5690  11.6075
    11.6986  11.7448  11.9304  11.9535  12.1148  12.1852  12.2752  12.3291
    12.4409  12.4974  12.5077  12.5662  12.6657  12.8763  12.9847  13.0086
    13.1142  13.1423  13.1703  13.2132  13.3116  13.3374  13.4182  13.4817
    13.4994  13.6339  13.6872  13.7381  13.7633  13.8299  13.8599  13.8821
    13.9592  14.0080  14.2500  14.2664  14.3248  14.3795  14.4515  14.4835
    14.5327  14.5997  14.6093  14.7569  14.8213  14.8659  14.9499  15.0101
    15.0567  15.1015  15.2140  15.2602  15.3198  15.3522  15.4666  15.5677
    15.6721  15.7046  15.8739  15.9752  16.0755  16.1625  16.2266  16.3506
    16.3733  16.4196  16.4518  16.5166  16.5734  16.6014  16.7083  16.7694
    16.7846  16.8295  16.9169  16.9921  17.0210  17.0708  17.1716  17.2480
    17.3075  17.4609  17.4811  17.5487  17.6410  17.7230  17.7920  17.8519
    17.8876  17.9190  18.0376  18.0672  18.1350  18.2735  18.3904  18.4594
    18.5067  18.5256  18.6202  18.6558  18.6648  18.7891  18.8197  18.8862
    18.9491  19.0172  19.0303  19.1352  19.1493  19.2088  19.2423  19.4205
    19.4465  19.4955  19.5382  19.6473  19.7040  19.7405  19.8391  19.8554
    19.9573  20.0555  20.0899  20.1769  20.2702  20.2767  20.3245  20.4070
    20.4770  20.5495  20.5889  20.7364  20.7719  20.8560  20.8868  20.9490
    20.9834  21.1666  21.2492  21.3129  21.3983  21.4856  21.5333  21.6201
    21.6635  21.6896  21.7297  21.8296  21.8484

          k =-0.5000-0.4953 0.0000 ( 31140 PWs)   bands (ev):

   -52.5011 -52.2050 -52.0862 -51.4912 -51.4903 -51.3538 -51.3428 -51.3390
   -51.3285 -51.3051 -51.3045 -51.1660 -51.1645 -51.1560 -51.1526 -51.1319
   -51.1299 -51.0642 -51.0619 -50.9986 -50.9961 -50.9754 -50.9751 -50.8248
   -21.5423 -21.4531 -21.0120 -20.8887 -20.8829 -20.8774 -20.6800 -20.6480
   -20.6379 -20.5546 -20.4962 -20.2643 -20.2453 -20.2266 -19.8622 -19.8468
   -18.9317 -18.9252 -18.9225  -9.6714  -9.4893  -9.0315  -8.8835  -8.8664
    -8.8500  -8.8354  -8.7657  -8.7428  -8.6928  -8.5324  -8.4504  -8.3812
    -8.3556  -8.2083  -8.1777  -8.1457  -8.1095  -8.0524  -8.0093  -7.7202
    -7.5349  -7.2459  -7.2032  -6.9584  -6.8778  -6.7776  -6.7384  -6.7197
    -6.7063  -6.6068  -6.5881  -6.5630  -6.4562  -6.3572  -6.2361  -6.1795
    -6.0761  -5.9298  -5.7935  -5.4152  -5.2111  -5.0759  -4.9848  -4.8460
    -4.6788  -4.6525  -4.5949  -4.3745  -4.2884  -4.1632  -3.8977  -3.6870
    -3.5689  -3.4350  -3.3916  -3.2520  -2.8954  -2.7926  -2.6459  -2.6090
    -2.5814  -2.3332  -2.3071  -2.1961  -2.0914  -1.9993  -1.9006  -1.8716
    -1.5391  -1.4612  -1.3855  -1.3417  -1.2879  -1.1877  -1.1204  -1.0773
    -0.9706  -0.9247  -0.8814  -0.8298  -0.0544   0.4715   0.8717   0.8831
     1.0158   1.2911   1.4104   1.9152   1.9279   2.4567   2.5613   2.6144
     2.7349   3.1543   3.1625   3.2122   4.7649   4.7908   5.1937   5.3827
     5.3859   6.2162   6.2294   6.3589   6.3657   6.4129   6.4689   6.6088
     6.7125   6.8505   6.8741   6.9471   6.9915   7.0486   7.0734   7.0871
     7.5149   7.5837   7.6435   7.7206   7.8297   7.8960   7.9746   8.0575
     8.1802   8.4754   8.5715   8.5761   8.5960   8.5965   8.7223   8.7427
     8.7468   8.7475   8.8686   8.9610   8.9941   9.1549   9.1609   9.2759
     9.3535   9.3736   9.8763   9.9411   9.9779   9.9996  10.0489  10.1137
    10.1722  10.2811  10.4500  10.5949  10.8734  10.9438  10.9927  11.0132
    11.2715  11.3125  11.6688  11.7424  11.8427  11.9347  11.9967  12.1159
    12.2451  12.2565  12.4012  12.4250  12.5799  12.6585  12.7089  12.8376
    12.8981  12.9107  13.0416  13.0968  13.1188  13.2497  13.3778  13.3803
    13.4405  13.4674  13.4826  13.5769  13.6653  13.6751  13.7300  13.7342
    13.8019  13.8114  13.9310  13.9568  13.9686  13.9871  14.0075  14.0522
    14.1094  14.1267  14.2046  14.2243  14.2595  14.2911  14.3086  14.3450
    14.3554  14.4840  14.4997  14.5377  14.6390  14.6554  14.6932  14.7350
    14.8786  15.0455  15.0871  15.1471  15.2148  15.2345  15.2663  15.3078
    15.3315  15.3536  15.3768  15.3964  15.4313  15.5679  15.5952  15.6265
    15.8088  15.8447  15.8567  15.8630  15.8849  15.9757  16.0211  16.1854
    16.2859  16.3276  16.4882  16.5519  16.7350  16.8202  16.8838  16.9066
    16.9439  16.9782  17.0332  17.0800  17.1907  17.2491  17.2518  17.3802
    17.6393  17.7691  17.8174  17.9748  18.0673  18.1133  18.1450  18.1955
    18.2434  18.3652  18.3834  18.4158  18.5851  18.6415  18.7599  18.9474
    18.9768  19.1082  19.1565  19.3491  19.3830  19.4206  19.4520  19.5286
    19.6459  19.7025  19.7467  19.9233  19.9504  20.0504  20.1076  20.1785
    20.2289  20.3010  20.4356  20.5778  20.6218  20.6404  20.6710  20.7448
    20.7548  20.8919  20.9676  21.1115  21.1464  21.1875  21.1952  21.2625
    21.2862  21.3179  21.3426  21.3654  21.4034  21.4574  21.5143  21.5181
    21.5426  21.5878  21.6214  21.6512  21.6716

          k =-0.2500 0.2476 0.0000 ( 31099 PWs)   bands (ev):

   -52.5011 -52.2060 -52.0864 -51.4929 -51.4884 -51.3792 -51.3462 -51.3426
   -51.3320 -51.3041 -51.2691 -51.1712 -51.1634 -51.1564 -51.1532 -51.1290
   -51.1268 -51.0964 -51.0296 -51.0025 -50.9920 -50.9805 -50.9700 -50.8246
   -21.7622 -21.3737 -21.3533 -21.2061 -20.9108 -20.7644 -20.7130 -20.5676
   -20.4489 -20.4095 -20.2770 -20.2317 -20.1506 -20.1291 -19.9383 -19.7688
   -18.9483 -18.8990 -18.8326  -9.9699  -9.9317  -9.7819  -9.4495  -9.2317
    -9.0221  -8.9894  -8.8816  -8.8502  -8.8158  -8.7278  -8.6469  -8.5507
    -8.4155  -8.2544  -8.1738  -8.0581  -7.8942  -7.8329  -7.5863  -7.5545
    -7.3581  -7.2702  -7.1071  -6.8316  -6.6863  -6.5811  -6.4939  -6.4629
    -6.3828  -6.3116  -6.2325  -6.1850  -6.1376  -6.0109  -5.9091  -5.7922
    -5.6356  -5.5656  -5.4474  -5.2366  -5.1843  -5.0279  -4.9522  -4.8455
    -4.7530  -4.5726  -4.4902  -4.3811  -4.3117  -4.2767  -4.1594  -3.8874
    -3.6259  -3.5439  -3.4303  -3.2979  -3.1370  -2.7766  -2.7440  -2.7013
    -2.6135  -2.5258  -2.5101  -2.4270  -2.3780  -2.3244  -2.2777  -2.1491
    -1.9777  -1.7703  -1.6809  -1.5246  -1.3359  -1.1980  -1.0234  -0.9511
    -0.8773  -0.7412  -0.6588  -0.4495  -0.2480   0.4549   0.6500   0.9941
     1.3617   1.4540   1.8166   1.9280   2.2893   2.4287   2.4788   2.6474
     2.7975   3.0242   3.0580   3.5224   3.5992   4.5091   4.8931   5.3527
     5.3746   5.5231   5.6120   6.1774   6.4663   6.5243   6.7029   6.8024
     6.9190   6.9661   7.2107   7.2802   7.3410   7.3669   7.5478   7.6435
     7.8306   7.8812   7.9530   8.0409   8.1816   8.2375   8.3588   8.4442
     8.5596   8.5717   8.5761   8.5960   8.5966   8.7100   8.7428   8.7454
     8.7470   8.8298   8.9183   8.9430   9.0526   9.0952   9.2458   9.3999
     9.4569   9.6033   9.6500   9.7430   9.7911   9.8813  10.0084  10.1242
    10.1593  10.2634  10.4074  10.4774  10.5206  10.5889  10.6714  10.8583
    10.9123  10.9544  11.0561  11.1101  11.1797  11.3146  11.4356  11.5700
    11.6330  11.6618  11.7464  11.8209  11.8520  12.0291  12.0548  12.1818
    12.2480  12.2743  12.4021  12.4798  12.5578  12.6670  12.6894  12.7353
    12.8021  12.8688  12.9206  12.9649  13.0488  13.0720  13.1683  13.2252
    13.2776  13.4005  13.4525  13.4924  13.6127  13.7945  13.8954  13.9218
    13.9937  14.0733  14.1821  14.2172  14.2738  14.4095  14.4543  14.5990
    14.6623  14.7434  14.7929  14.9281  15.0285  15.0784  15.1953  15.2616
    15.3516  15.4099  15.5449  15.6176  15.6645  15.7432  15.8214  15.8438
    15.9394  15.9960  16.0421  16.1382  16.1519  16.2237  16.3194  16.3441
    16.4147  16.4308  16.5376  16.5881  16.6474  16.6969  16.7437  16.7907
    16.8658  17.0128  17.1519  17.2082  17.2613  17.3164  17.3628  17.4829
    17.5101  17.5534  17.6032  17.6769  17.7370  17.8101  17.8814  17.9270
    17.9787  18.0400  18.1028  18.1884  18.2054  18.2569  18.3916  18.4254
    18.5378  18.6111  18.6373  18.7272  18.7837  18.9108  19.0055  19.0394
    19.0646  19.1099  19.1915  19.2197  19.2693  19.3530  19.3941  19.4778
    19.5921  19.6307  19.6779  19.7223  19.8470  19.9339  19.9754  20.0708
    20.1802  20.2811  20.3083  20.3674  20.4334  20.4849  20.5840  20.6963
    20.7176  20.7624  20.8079  20.8223  20.8476  20.9371  21.0656  21.1355
    21.2120  21.2885  21.3735  21.4277  21.4826  21.5354  21.5841  21.6845
    21.7541  21.8000  21.8607  21.8814  21.9320

     the Fermi energy is    -1.0585 ev

!    total energy              =   -2106.16573818 Ry
     Harris-Foulkes estimate   =   -2106.16573819 Ry
     estimated scf accuracy    <          9.6E-09 Ry

     The total energy is the sum of the following terms:

     one-electron contribution =  -22669.85426434 Ry
     hartree contribution      =   11375.07267187 Ry
     xc contribution           =    -576.24879361 Ry
     ewald contribution        =    9764.86462621 Ry
     smearing contrib. (-TS)   =       0.00002170 Ry

     total magnetization       =     0.00 Bohr mag/cell
     absolute magnetization    =     0.00 Bohr mag/cell

     convergence has been achieved in  17 iterations

     Forces acting on atoms (Ry/au):


     negative rho (up, down):  0.156E+01 0.156E+01
     atom    1 type  1   force =    -0.00708886   -0.01392311   -0.00014838
     atom    2 type  1   force =     0.00006501    0.00465933    0.00009070
     atom    3 type  2   force =     0.03880149    0.00675150   -0.00032722
     atom    4 type  2   force =     0.00950559    0.00864337    0.00001996
     atom    5 type  1   force =    -0.00205805   -0.01703950   -0.00003472
     atom    6 type  1   force =     0.00359728    0.01476226   -0.00000959
     atom    7 type  1   force =    -0.00025397   -0.00169800   -0.00044192
     atom    8 type  1   force =    -0.00334598   -0.00076404    0.00024117
     atom    9 type  2   force =     0.00684699    0.00065350    0.00028238
     atom   10 type  2   force =     0.00001280   -0.00101996   -0.00024682
     atom   11 type  1   force =     0.00033249    0.00383270   -0.00011012
     atom   12 type  1   force =    -0.00006199   -0.00429637   -0.00009598
     atom   13 type  1   force =    -0.00100049    0.00002934    0.00026734
     atom   14 type  1   force =    -0.00739602   -0.01431902   -0.00020661
     atom   15 type  1   force =     0.00013432    0.00560960    0.00017124
     atom   16 type  2   force =    -0.03907112    0.00583323   -0.00034151
     atom   17 type  2   force =     0.00945979    0.00878876    0.00001326
     atom   18 type  1   force =    -0.00213133   -0.01661283   -0.00003572
     atom   19 type  1   force =     0.00267994    0.01519201   -0.00000761
     atom   20 type  1   force =    -0.00015460   -0.00493614   -0.00085161
     atom   21 type  1   force =    -0.00327056   -0.00051969    0.00033053
     atom   22 type  2   force =    -0.00426064    0.00048534    0.00029125
     atom   23 type  2   force =    -0.00006948    0.00022870    0.00048613
     atom   24 type  1   force =    -0.00035753    0.00382871   -0.00010811
     atom   25 type  1   force =     0.00035194   -0.00437336   -0.00010267
     atom   26 type  1   force =    -0.00095064   -0.00013682    0.00028957
     atom   27 type  3   force =     0.00000636    0.00013616    0.00051202
     atom   28 type  3   force =     0.00001749    0.00008901    0.00055213
     atom   29 type  3   force =    -0.00016293   -0.00001749   -0.00064442
     atom   30 type  3   force =    -0.00017888    0.00012126   -0.00063065
     atom   31 type  1   force =     0.00000157    0.00001156    0.00079600

     Total force =     0.002047     Total SCF correction =     0.000140

     bfgs converged in  13 scf cycles and  12 bfgs steps
     (criteria: energy < 0.10E-03, force < 0.10E-02)

     End of BFGS Geometry Optimization

     Final energy   =   -2106.1657381807 Ry
Begin final coordinates

ATOMIC_POSITIONS (crystal)
O0       0.000000000   0.000000000   0.378084330    0   0   1
O0       0.000000000   0.500000000   0.403157122    0   0   1
Ir1      0.250000000   0.500000000   0.453291435    0   0   1
Ir1      0.000000000   0.000000000   0.452862101    0   0   1
O0       0.250000000   0.810000000   0.452868221    0   0   1
O0       0.250000000   0.190000000   0.452538772    0   0   1
O0       0.000000000   0.500000000   0.498829619    0   0   1
O0       0.000000000   0.000000000   0.528340597    0   0   1
Ir1      0.250000000   0.000000000   0.575294975    0   0   1
Ir1      0.000000000   0.500000000   0.571979921    0   0   1
O0       0.250000000   0.690000000   0.574767062    0   0   1
O0       0.250000000   0.310000000   0.574800871    0   0   1
O0       0.000000000   0.000000000   0.619675985    0   0   1
O0       0.500000000   0.000000000   0.377999934    0   0   1
O0       0.500000000   0.500000000   0.402604044    0   0   1
Ir1      0.750000000   0.500000000   0.453295106    0   0   1
Ir1      0.500000000   0.000000000   0.452829950    0   0   1
O0       0.750000000   0.810000000   0.452881668    0   0   1
O0       0.750000000   0.190000000   0.452547843    0   0   1
O0       0.500000000   0.500000000   0.500753421    0   0   1
O0       0.500000000   0.000000000   0.528257472    0   0   1
Ir1      0.750000000   0.000000000   0.575294088    0   0   1
Ir1      0.500000000   0.500000000   0.578668269    0   0   1
O0       0.750000000   0.690000000   0.574763206    0   0   1
O0       0.750000000   0.310000000   0.574796128    0   0   1
O0       0.500000000   0.000000000   0.619483023    0   0   1
H2      -0.000072117   0.633399739   0.384125593
H2       0.499965051   0.635925113   0.384612790
H2       0.143615100   0.033970729   0.366548364
H2       0.643292184   0.034988979   0.366441699
O0       0.500013204   0.499507057   0.645666390
End final coordinates



     init_run     :    108.12s CPU    149.84s WALL (       1 calls)
     electrons    :  87316.83s CPU 118820.64s WALL (      13 calls)
     update_pot   :     83.30s CPU     98.44s WALL (      12 calls)
     forces       :    902.82s CPU    987.54s WALL (      13 calls)

     Called by init_run:
     wfcinit      :     86.90s CPU    126.06s WALL (       1 calls)
     potinit      :      3.08s CPU      4.43s WALL (       1 calls)

     Called by electrons:
     c_bands      :  67443.46s CPU  91776.38s WALL (     297 calls)
     sum_band     :  14054.57s CPU  20119.04s WALL (     297 calls)
     v_of_rho     :    347.62s CPU    561.74s WALL (     304 calls)
     newd         :   5536.83s CPU   6170.28s WALL (     304 calls)
     mix_rho      :     64.92s CPU    113.52s WALL (     297 calls)

     Called by c_bands:
     init_us_2    :     87.91s CPU     88.66s WALL (   12160 calls)
     cegterg      :  67016.34s CPU  91347.27s WALL (    5940 calls)

     Called by *egterg:
     h_psi        :  37534.44s CPU  59209.90s WALL (   14135 calls)
     s_psi        :   2787.45s CPU   2789.48s WALL (   14135 calls)
     g_psi        :     56.67s CPU     56.75s WALL (    8175 calls)
     cdiaghg      :  12576.70s CPU  13064.54s WALL (   13755 calls)

     Called by h_psi:
     add_vuspsi   :   2815.19s CPU   2829.25s WALL (   14135 calls)

     General routines
     calbec       :   4551.63s CPU   5015.62s WALL (   20335 calls)
     fft          :    894.08s CPU   1670.84s WALL (    9589 calls)
     ffts         :     10.61s CPU     20.62s WALL (    1202 calls)
     fftw         :  35038.61s CPU  61777.41s WALL (10838120 calls)
     interpolate  :     73.65s CPU    135.86s WALL (    1202 calls)

     Parallel routines
     fft_scatter  :  26059.52s CPU  53435.60s WALL (10848911 calls)

     PWSCF        :     1d    0h37m CPU        1d    9h25m WALL


   This run was terminated on:   5:57:42   9Apr2014            

=------------------------------------------------------------------------------=
   JOB DONE.
=------------------------------------------------------------------------------=
---------------------------------------
Running PBS batch system epilogue script
Job id: 329690.audhumbla.fysik.dtu.dk
Username: zhonxu
Groupname: campgst
Jobname: IrO2/Eads-2-layers/O-relax-surf
Sessionid: 17870
Resources limits: neednodes=2:ppn=8:xeon8,nodes=2:ppn=8:xeon8,walltime=48:00:00
Resources used: cput=534:20:30,mem=10102220kb,vmem=13593528kb,walltime=33:25:48
Queuename: verylong
Accounting:
This job has allocated the following 16 nodes:
b064 b064 b064 b064 b064 b064 b064 b064 b056 b056 b056 b056 b056 b056 b056 b056
Finished epilogue job 329690.audhumbla.fysik.dtu.dk for zhonxu
