
     Program PWSCF v.5.0.2 (svn rev. 9656) starts on 10May2014 at 18:23:39 

     This program is part of the open-source Quantum ESPRESSO suite
     for quantum simulation of materials; please cite
         "P. Giannozzi et al., J. Phys.:Condens. Matter 21 395502 (2009);
          URL http://www.quantum-espresso.org", 
     in publications or presentations arising from this work. More details at
     http://www.quantum-espresso.org/quote.php

     Parallel version (MPI), running on    32 processors
     K-points division:     npool     =       4
     R & G space division:  proc/nbgrp/npool/nimage =       8

     Current dimensions of program PWSCF are:
     Max number of different atomic species (ntypx) = 10
     Max number of k-points (npk) =  40000
     Max angular momentum in pseudopotentials (lmaxx) =  3
     Reading input from pwscf.in
Warning: card &CELL ignored
Warning: card / ignored

     Subspace diagonalization in iterative solution of the eigenvalue problem:
     a serial algorithm will be used


     Parallelization info
     --------------------
     sticks:   dense  smooth     PW     G-vecs:    dense   smooth      PW
     Min         622     198     56               199218    36067    5410
     Max         623     199     57               199233    36099    5421
     Sum        4979    1589    451              1593815   288631   43339



     bravais-lattice index     =            0
     lattice parameter (alat)  =      10.7336  a.u.
     unit-cell volume          =    8441.1435 (a.u.)^3
     number of atoms/cell      =           49
     number of atomic types    =            2
     number of electrons       =       438.00 (up: 242.00, down: 196.00)
     number of Kohn-Sham states=          633
     kinetic-energy cutoff     =      40.0000  Ry
     charge density cutoff     =     500.0000  Ry
     convergence threshold     =      1.0E-06
     mixing beta               =       0.3000
     number of iterations used =            8  plain     mixing
     Exchange-correlation      = SLA  PW   PBE  PBE ( 1 4 3 4 0)
     EXX-fraction              =        0.00
     nstep                     =           50


     celldm(1)=  10.733644  celldm(2)=   0.000000  celldm(3)=   0.000000
     celldm(4)=   0.000000  celldm(5)=   0.000000  celldm(6)=   0.000000

     crystal axes: (cart. coord. in units of alat)
               a(1) = (   1.000000   0.000000   0.000000 )  
               a(2) = (   0.000000   1.085558   0.000000 )  
               a(3) = (   0.000000   0.000000   6.287913 )  

     reciprocal axes: (cart. coord. in units 2 pi/alat)
               b(1) = (  1.000000  0.000000  0.000000 )  
               b(2) = (  0.000000  0.921185  0.000000 )  
               b(3) = (  0.000000  0.000000  0.159035 )  


     PseudoPot. # 1 for O  read from file:
     /home/camp/zhonxu/pseudo/o_pbe_v1.01.uspp.F.UPF
     MD5 check sum: 2bcb18d16ea4b960afae9ec6d52f22d2
     Pseudo is Ultrasoft + core correction, Zval =  6.0
     Generated by new atomic code, or converted to UPF format
     Using radial grid of  737 points,  5 beta functions with: 
                l(1) =   0
                l(2) =   0
                l(3) =   1
                l(4) =   1
                l(5) =   2
     Q(r) pseudized with  8 coefficients,  rinner =    0.900   0.900   0.900
                                                       0.900   0.900

     PseudoPot. # 2 for Mn read from file:
     /home/camp/zhonxu/pseudo/mn_pbe_v1.uspp.F.UPF
     MD5 check sum: 5fd7c7b5c956fd19902447332617373a
     Pseudo is Ultrasoft + core correction, Zval = 15.0
     Generated by new atomic code, or converted to UPF format
     Using radial grid of  859 points,  6 beta functions with: 
                l(1) =   0
                l(2) =   0
                l(3) =   1
                l(4) =   1
                l(5) =   2
                l(6) =   2
     Q(r) pseudized with  6 coefficients,  rinner =    1.150   1.150   1.150
                                                       1.150   1.150

     atomic species   valence    mass     pseudopotential
        O0             6.00    15.99940     O ( 1.00)
        Mn1           15.00    54.93800     Mn( 1.00)

     Starting magnetic structure 
     atomic species   magnetization
        O0           0.000
        Mn1          0.600

      4 Sym. Ops. (no inversion) found



   Cartesian axes

     site n.     atom                  positions (alat units)
         1           O0  tau(   1) = (   0.0000000   0.5427791   2.1126758  )
         2           Mn1 tau(   2) = (   0.2500000   0.5427791   2.3297975  )
         3           Mn1 tau(   3) = (   0.0000000   0.0000000   2.3297975  )
         4           O0  tau(   4) = (   0.2500000   0.8684466   2.3297975  )
         5           O0  tau(   5) = (   0.2500000   0.2171117   2.3297975  )
         6           O0  tau(   6) = (   0.0000000   0.5427791   2.5469191  )
         7           O0  tau(   7) = (   0.0000000   0.0000000   2.6554485  )
         8           Mn1 tau(   8) = (   0.2500000   0.0000000   2.8725701  )
         9           Mn1 tau(   9) = (   0.0000000   0.5427791   2.8725701  )
        10           O0  tau(  10) = (   0.2500000   0.7598908   2.8725701  )
        11           O0  tau(  11) = (   0.2500000   0.3256675   2.8725701  )
        12           O0  tau(  12) = (   0.0000000   0.0000000   3.0896918  )
        13           O0  tau(  13) = (   0.0000000   0.5427791   3.2125576  )
        14           Mn1 tau(  14) = (   0.2567200   0.5427791   3.4288618  )
        15           Mn1 tau(  15) = (   0.0000000   0.0000000   3.4377277  )
        16           O0  tau(  16) = (   0.2503200   0.8732231   3.4296163  )
        17           O0  tau(  17) = (   0.2503200   0.2123352   3.4296163  )
        18           O0  tau(  18) = (   0.0000000   0.5427791   3.6484357  )
        19           O0  tau(  19) = (   0.0000000   0.0000000   3.7716159  )
        20           Mn1 tau(  20) = (   0.2510800   0.0000000   4.0031997  )
        21           Mn1 tau(  21) = (   0.0000000   0.5427791   3.9635230  )
        22           O0  tau(  22) = (   0.2517000   0.7483405   4.0155869  )
        23           O0  tau(  23) = (   0.2517000   0.3372178   4.0155869  )
        24           O0  tau(  24) = (   0.0000000   0.0000000   4.2027152  )
        25           O0  tau(  25) = (   0.5000000   0.5427791   2.1126758  )
        26           Mn1 tau(  26) = (   0.7500000   0.5427791   2.3297975  )
        27           Mn1 tau(  27) = (   0.5000000   0.0000000   2.3297975  )
        28           O0  tau(  28) = (   0.7500000   0.8684466   2.3297975  )
        29           O0  tau(  29) = (   0.7500000   0.2171117   2.3297975  )
        30           O0  tau(  30) = (   0.5000000   0.5427791   2.5469191  )
        31           O0  tau(  31) = (   0.5000000   0.0000000   2.6554485  )
        32           Mn1 tau(  32) = (   0.7500000   0.0000000   2.8725701  )
        33           Mn1 tau(  33) = (   0.5000000   0.5427791   2.8725701  )
        34           O0  tau(  34) = (   0.7500000   0.7598908   2.8725701  )
        35           O0  tau(  35) = (   0.7500000   0.3256675   2.8725701  )
        36           O0  tau(  36) = (   0.5000000   0.0000000   3.0896918  )
        37           O0  tau(  37) = (   0.5000000   0.5427791   3.2096022  )
        38           Mn1 tau(  38) = (   0.7432800   0.5427791   3.4288618  )
        39           Mn1 tau(  39) = (   0.5000000   0.0000000   3.4396141  )
        40           O0  tau(  40) = (   0.7496800   0.8732231   3.4296163  )
        41           O0  tau(  41) = (   0.7496800   0.2123352   3.4296163  )
        42           O0  tau(  42) = (   0.5000000   0.5427791   3.6401985  )
        43           O0  tau(  43) = (   0.5000000   0.0000000   3.7724333  )
        44           Mn1 tau(  44) = (   0.7489200   0.0000000   4.0031997  )
        45           Mn1 tau(  45) = (   0.5000000   0.5427791   4.0830562  )
        46           O0  tau(  46) = (   0.7483000   0.7483405   4.0155869  )
        47           O0  tau(  47) = (   0.7483000   0.3372178   4.0155869  )
        48           O0  tau(  48) = (   0.5000000   0.0000000   4.2043501  )
        49           O0  tau(  49) = (   0.5000000   0.5427791   4.3615479  )

     number of k points=    18  Methfessel-Paxton smearing, width (Ry)=  0.0100
                       cart. coord. in units 2pi/alat
        k(    1) = (   0.0000000   0.0000000   0.0000000), wk =   0.0625000
        k(    2) = (   0.0000000   0.2302962   0.0000000), wk =   0.1250000
        k(    3) = (   0.0000000  -0.4605925   0.0000000), wk =   0.0625000
        k(    4) = (   0.2500000   0.0000000   0.0000000), wk =   0.1250000
        k(    5) = (   0.2500000   0.2302962   0.0000000), wk =   0.2500000
        k(    6) = (   0.2500000  -0.4605925   0.0000000), wk =   0.1250000
        k(    7) = (  -0.5000000   0.0000000   0.0000000), wk =   0.0625000
        k(    8) = (  -0.5000000   0.2302962   0.0000000), wk =   0.1250000
        k(    9) = (  -0.5000000  -0.4605925   0.0000000), wk =   0.0625000
        k(   10) = (   0.0000000   0.0000000   0.0000000), wk =   0.0625000
        k(   11) = (   0.0000000   0.2302962   0.0000000), wk =   0.1250000
        k(   12) = (   0.0000000  -0.4605925   0.0000000), wk =   0.0625000
        k(   13) = (   0.2500000   0.0000000   0.0000000), wk =   0.1250000
        k(   14) = (   0.2500000   0.2302962   0.0000000), wk =   0.2500000
        k(   15) = (   0.2500000  -0.4605925   0.0000000), wk =   0.1250000
        k(   16) = (  -0.5000000   0.0000000   0.0000000), wk =   0.0625000
        k(   17) = (  -0.5000000   0.2302962   0.0000000), wk =   0.1250000
        k(   18) = (  -0.5000000  -0.4605925   0.0000000), wk =   0.0625000

     Dense  grid:  1593815 G-vectors     FFT dimensions: (  80,  90, 486)

     Smooth grid:   288631 G-vectors     FFT dimensions: (  45,  48, 288)

     Largest allocated arrays     est. size (Mb)     dimensions
        Kohn-Sham Wavefunctions        44.00 Mb     (   4555,  633)
        NL pseudopotentials            49.83 Mb     (   4555,  717)
        Each V/rho on FFT grid         13.40 Mb     ( 439200,   2)
        Each G-vector array             1.52 Mb     ( 199231)
        G-vector shells                 0.71 Mb     (  93597)
     Largest temporary arrays     est. size (Mb)     dimensions
        Auxiliary wavefunctions       175.98 Mb     (   4555, 2532)
        Each subspace H/S matrix       97.82 Mb     (2532,2532)
        Each <psi_i|beta_j> matrix      6.93 Mb     (    717,  633)
        Arrays for rho mixing          53.61 Mb     ( 439200,   8)

     Check: negative/imaginary core charge=   -0.000029    0.000000

     Initial potential from superposition of free atoms
     Check: negative starting charge=(component1):   -0.000993
     Check: negative starting charge=(component2):   -0.000244

     starting charge  421.99982, renormalised to  438.00000

     negative rho (up, down):  0.103E-02 0.253E-03
     Starting wfc are  340 randomized atomic wfcs

     total cpu time spent up to now is      156.5 secs

     Self-consistent Calculation

     iteration #  1     ecut=    40.00 Ry     beta=0.30
     Davidson diagonalization with overlap
     ethr =  1.00E-02,  avg # of iterations =  5.5

     negative rho (up, down):  0.104E-02 0.685E-03

     total cpu time spent up to now is     1418.1 secs

     total energy              =   -4428.97039454 Ry
     Harris-Foulkes estimate   =   -4466.88832354 Ry
     estimated scf accuracy    <      99.32816617 Ry

     total magnetization       =    46.00 Bohr mag/cell
     absolute magnetization    =    60.15 Bohr mag/cell

     iteration #  2     ecut=    40.00 Ry     beta=0.30
     Davidson diagonalization with overlap
     ethr =  1.00E-02,  avg # of iterations =  5.0

     negative rho (up, down):  0.395E-02 0.261E-02

     total cpu time spent up to now is     2581.6 secs

     total energy              =   -4199.40546290 Ry
     Harris-Foulkes estimate   =   -4888.17238729 Ry
     estimated scf accuracy    <   23060.33127452 Ry

     total magnetization       =    46.00 Bohr mag/cell
     absolute magnetization    =    47.14 Bohr mag/cell

     iteration #  3     ecut=    40.00 Ry     beta=0.30
     Davidson diagonalization with overlap
     ethr =  1.00E-02,  avg # of iterations =  6.0

     negative rho (up, down):  0.548E-02 0.457E-02

     total cpu time spent up to now is     3617.3 secs

     total energy              =   -4455.00043413 Ry
     Harris-Foulkes estimate   =   -4473.71045278 Ry
     estimated scf accuracy    <     183.16808398 Ry

     total magnetization       =    46.00 Bohr mag/cell
     absolute magnetization    =    55.57 Bohr mag/cell

     iteration #  4     ecut=    40.00 Ry     beta=0.30
     Davidson diagonalization with overlap
     ethr =  1.00E-02,  avg # of iterations =  3.8

     negative rho (up, down):  0.669E-02 0.744E-02

     total cpu time spent up to now is     4127.0 secs

     total energy              =   -4453.36148558 Ry
     Harris-Foulkes estimate   =   -4476.89010148 Ry
     estimated scf accuracy    <     526.46715093 Ry

     total magnetization       =    46.00 Bohr mag/cell
     absolute magnetization    =    52.26 Bohr mag/cell

     iteration #  5     ecut=    40.00 Ry     beta=0.30
     Davidson diagonalization with overlap
     ethr =  1.00E-02,  avg # of iterations =  2.0

     negative rho (up, down):  0.593E-02 0.494E-02

     total cpu time spent up to now is     4532.7 secs

     total energy              =   -4468.04214880 Ry
     Harris-Foulkes estimate   =   -4469.88551397 Ry
     estimated scf accuracy    <      33.22003906 Ry

     total magnetization       =    46.00 Bohr mag/cell
     absolute magnetization    =    62.36 Bohr mag/cell

     iteration #  6     ecut=    40.00 Ry     beta=0.30
     Davidson diagonalization with overlap
     ethr =  7.58E-03,  avg # of iterations =  1.0

     negative rho (up, down):  0.203E-02 0.209E-02

     total cpu time spent up to now is     4894.4 secs

     total energy              =   -4470.24870131 Ry
     Harris-Foulkes estimate   =   -4469.69322795 Ry
     estimated scf accuracy    <       8.03939835 Ry

     total magnetization       =    46.00 Bohr mag/cell
     absolute magnetization    =    59.31 Bohr mag/cell

     iteration #  7     ecut=    40.00 Ry     beta=0.30
     Davidson diagonalization with overlap
     ethr =  1.84E-03,  avg # of iterations =  2.4

     negative rho (up, down):  0.199E-02 0.116E-02

     total cpu time spent up to now is     5317.3 secs

     total energy              =   -4470.54431142 Ry
     Harris-Foulkes estimate   =   -4471.22004398 Ry
     estimated scf accuracy    <       9.78910495 Ry

     total magnetization       =    46.00 Bohr mag/cell
     absolute magnetization    =    56.08 Bohr mag/cell

     iteration #  8     ecut=    40.00 Ry     beta=0.30
     Davidson diagonalization with overlap
     ethr =  1.84E-03,  avg # of iterations =  2.3

     negative rho (up, down):  0.177E-02 0.111E-02

     total cpu time spent up to now is     5728.5 secs

     total energy              =   -4471.15382176 Ry
     Harris-Foulkes estimate   =   -4471.31893862 Ry
     estimated scf accuracy    <       2.01808340 Ry

     total magnetization       =    46.00 Bohr mag/cell
     absolute magnetization    =    53.41 Bohr mag/cell

     iteration #  9     ecut=    40.00 Ry     beta=0.30
     Davidson diagonalization with overlap
     ethr =  4.61E-04,  avg # of iterations =  5.6

     negative rho (up, down):  0.201E-02 0.134E-02

     total cpu time spent up to now is     6286.0 secs

     total energy              =   -4471.29561464 Ry
     Harris-Foulkes estimate   =   -4471.43174114 Ry
     estimated scf accuracy    <       1.53171711 Ry

     total magnetization       =    46.00 Bohr mag/cell
     absolute magnetization    =    52.07 Bohr mag/cell

     iteration # 10     ecut=    40.00 Ry     beta=0.30
     Davidson diagonalization with overlap
     ethr =  3.50E-04,  avg # of iterations =  4.3

     negative rho (up, down):  0.201E-02 0.136E-02

     total cpu time spent up to now is     6763.8 secs

     total energy              =   -4471.39064320 Ry
     Harris-Foulkes estimate   =   -4471.46627413 Ry
     estimated scf accuracy    <       1.02309038 Ry

     total magnetization       =    46.00 Bohr mag/cell
     absolute magnetization    =    50.62 Bohr mag/cell

     iteration # 11     ecut=    40.00 Ry     beta=0.30
     Davidson diagonalization with overlap
     ethr =  2.34E-04,  avg # of iterations =  1.8

     negative rho (up, down):  0.199E-02 0.136E-02

     total cpu time spent up to now is     7167.3 secs

     total energy              =   -4471.43121845 Ry
     Harris-Foulkes estimate   =   -4471.46014316 Ry
     estimated scf accuracy    <       0.86984577 Ry

     total magnetization       =    46.00 Bohr mag/cell
     absolute magnetization    =    50.36 Bohr mag/cell

     iteration # 12     ecut=    40.00 Ry     beta=0.30
     Davidson diagonalization with overlap
     ethr =  1.99E-04,  avg # of iterations =  1.1

     negative rho (up, down):  0.203E-02 0.140E-02

     total cpu time spent up to now is     7527.6 secs

     total energy              =   -4471.45122132 Ry
     Harris-Foulkes estimate   =   -4471.45863649 Ry
     estimated scf accuracy    <       0.19862751 Ry

     total magnetization       =    46.00 Bohr mag/cell
     absolute magnetization    =    49.76 Bohr mag/cell

     iteration # 13     ecut=    40.00 Ry     beta=0.30
     Davidson diagonalization with overlap
     ethr =  4.53E-05,  avg # of iterations =  5.9

     negative rho (up, down):  0.220E-02 0.135E-02

     total cpu time spent up to now is     8087.6 secs

     total energy              =   -4471.45479775 Ry
     Harris-Foulkes estimate   =   -4471.48302416 Ry
     estimated scf accuracy    <       1.18342431 Ry

     total magnetization       =    46.00 Bohr mag/cell
     absolute magnetization    =    49.16 Bohr mag/cell

     iteration # 14     ecut=    40.00 Ry     beta=0.30
     Davidson diagonalization with overlap
     ethr =  4.53E-05,  avg # of iterations =  4.0

     negative rho (up, down):  0.219E-02 0.137E-02

     total cpu time spent up to now is     8551.6 secs

     total energy              =   -4471.46556259 Ry
     Harris-Foulkes estimate   =   -4471.47910404 Ry
     estimated scf accuracy    <       0.19652888 Ry

     total magnetization       =    46.00 Bohr mag/cell
     absolute magnetization    =    49.32 Bohr mag/cell

     iteration # 15     ecut=    40.00 Ry     beta=0.30
     Davidson diagonalization with overlap
     ethr =  4.49E-05,  avg # of iterations =  4.4

     negative rho (up, down):  0.221E-02 0.136E-02

     total cpu time spent up to now is     9006.8 secs

     total energy              =   -4471.47635319 Ry
     Harris-Foulkes estimate   =   -4471.47998813 Ry
     estimated scf accuracy    <       0.11191059 Ry

     total magnetization       =    46.00 Bohr mag/cell
     absolute magnetization    =    48.91 Bohr mag/cell

     iteration # 16     ecut=    40.00 Ry     beta=0.30
     Davidson diagonalization with overlap
     ethr =  2.56E-05,  avg # of iterations =  1.6

     negative rho (up, down):  0.216E-02 0.137E-02

     total cpu time spent up to now is     9400.3 secs

     total energy              =   -4471.48428085 Ry
     Harris-Foulkes estimate   =   -4471.48222693 Ry
     estimated scf accuracy    <       0.06577394 Ry

     total magnetization       =    46.00 Bohr mag/cell
     absolute magnetization    =    48.73 Bohr mag/cell

     iteration # 17     ecut=    40.00 Ry     beta=0.30
     Davidson diagonalization with overlap
     ethr =  1.50E-05,  avg # of iterations =  3.8

     negative rho (up, down):  0.302E-02 0.173E-02

     total cpu time spent up to now is     9853.4 secs

     total energy              =   -4471.48848814 Ry
     Harris-Foulkes estimate   =   -4471.48786658 Ry
     estimated scf accuracy    <       0.06504506 Ry

     total magnetization       =    46.00 Bohr mag/cell
     absolute magnetization    =    48.50 Bohr mag/cell

     iteration # 18     ecut=    40.00 Ry     beta=0.30
     Davidson diagonalization with overlap
     ethr =  1.49E-05,  avg # of iterations =  4.1

     negative rho (up, down):  0.422E-02 0.226E-02

     total cpu time spent up to now is    10322.5 secs

     total energy              =   -4471.49205902 Ry
     Harris-Foulkes estimate   =   -4471.49174565 Ry
     estimated scf accuracy    <       0.01641782 Ry

     total magnetization       =    46.00 Bohr mag/cell
     absolute magnetization    =    48.21 Bohr mag/cell

     iteration # 19     ecut=    40.00 Ry     beta=0.30
     Davidson diagonalization with overlap
     ethr =  3.75E-06,  avg # of iterations =  6.6

     negative rho (up, down):  0.445E-02 0.237E-02

     total cpu time spent up to now is    10996.5 secs

     total energy              =   -4471.49335017 Ry
     Harris-Foulkes estimate   =   -4471.49310643 Ry
     estimated scf accuracy    <       0.00515750 Ry

     total magnetization       =    46.00 Bohr mag/cell
     absolute magnetization    =    48.09 Bohr mag/cell

     iteration # 20     ecut=    40.00 Ry     beta=0.30
     Davidson diagonalization with overlap
     ethr =  1.18E-06,  avg # of iterations =  1.0

     negative rho (up, down):  0.499E-02 0.263E-02

     total cpu time spent up to now is    11357.5 secs

     total energy              =   -4471.49402632 Ry
     Harris-Foulkes estimate   =   -4471.49401906 Ry
     estimated scf accuracy    <       0.00498164 Ry

     total magnetization       =    46.00 Bohr mag/cell
     absolute magnetization    =    48.04 Bohr mag/cell

     iteration # 21     ecut=    40.00 Ry     beta=0.30
     Davidson diagonalization with overlap
     ethr =  1.14E-06,  avg # of iterations =  1.0

     negative rho (up, down):  0.572E-02 0.297E-02

     total cpu time spent up to now is    11717.3 secs

     total energy              =   -4471.49454542 Ry
     Harris-Foulkes estimate   =   -4471.49452296 Ry
     estimated scf accuracy    <       0.00582797 Ry

     total magnetization       =    46.00 Bohr mag/cell
     absolute magnetization    =    47.99 Bohr mag/cell

     iteration # 22     ecut=    40.00 Ry     beta=0.30
     Davidson diagonalization with overlap
     ethr =  1.14E-06,  avg # of iterations =  1.0

     negative rho (up, down):  0.455E-02 0.239E-02

     total cpu time spent up to now is    12077.7 secs

     total energy              =   -4471.49487750 Ry
     Harris-Foulkes estimate   =   -4471.49489706 Ry
     estimated scf accuracy    <       0.00238259 Ry

     total magnetization       =    46.00 Bohr mag/cell
     absolute magnetization    =    47.92 Bohr mag/cell

     iteration # 23     ecut=    40.00 Ry     beta=0.30
     Davidson diagonalization with overlap
     ethr =  5.44E-07,  avg # of iterations =  1.0

     negative rho (up, down):  0.475E-02 0.246E-02

     total cpu time spent up to now is    12438.0 secs

     total energy              =   -4471.49498480 Ry
     Harris-Foulkes estimate   =   -4471.49519539 Ry
     estimated scf accuracy    <       0.00737892 Ry

     total magnetization       =    46.00 Bohr mag/cell
     absolute magnetization    =    47.92 Bohr mag/cell

     iteration # 24     ecut=    40.00 Ry     beta=0.30
     Davidson diagonalization with overlap
     ethr =  5.44E-07,  avg # of iterations =  1.5

     negative rho (up, down):  0.411E-02 0.216E-02

     total cpu time spent up to now is    12833.5 secs

     total energy              =   -4471.49512959 Ry
     Harris-Foulkes estimate   =   -4471.49547777 Ry
     estimated scf accuracy    <       0.01211338 Ry

     total magnetization       =    46.00 Bohr mag/cell
     absolute magnetization    =    47.86 Bohr mag/cell

     iteration # 25     ecut=    40.00 Ry     beta=0.30
     Davidson diagonalization with overlap
     ethr =  5.44E-07,  avg # of iterations =  1.0

     negative rho (up, down):  0.451E-02 0.235E-02

     total cpu time spent up to now is    13193.5 secs

     total energy              =   -4471.49525058 Ry
     Harris-Foulkes estimate   =   -4471.49539246 Ry
     estimated scf accuracy    <       0.00120201 Ry

     total magnetization       =    46.00 Bohr mag/cell
     absolute magnetization    =    47.87 Bohr mag/cell

     iteration # 26     ecut=    40.00 Ry     beta=0.30
     Davidson diagonalization with overlap
     ethr =  2.74E-07,  avg # of iterations =  1.0

     negative rho (up, down):  0.423E-02 0.222E-02

     total cpu time spent up to now is    13553.4 secs

     total energy              =   -4471.49534023 Ry
     Harris-Foulkes estimate   =   -4471.49539938 Ry
     estimated scf accuracy    <       0.00178794 Ry

     total magnetization       =    46.00 Bohr mag/cell
     absolute magnetization    =    47.84 Bohr mag/cell

     iteration # 27     ecut=    40.00 Ry     beta=0.30
     Davidson diagonalization with overlap
     ethr =  2.74E-07,  avg # of iterations =  1.0

     negative rho (up, down):  0.385E-02 0.203E-02

     total cpu time spent up to now is    13913.6 secs

     total energy              =   -4471.49540447 Ry
     Harris-Foulkes estimate   =   -4471.49542281 Ry
     estimated scf accuracy    <       0.00175196 Ry

     total magnetization       =    46.00 Bohr mag/cell
     absolute magnetization    =    47.83 Bohr mag/cell

     iteration # 28     ecut=    40.00 Ry     beta=0.30
     Davidson diagonalization with overlap
     ethr =  2.74E-07,  avg # of iterations =  1.0

     negative rho (up, down):  0.361E-02 0.192E-02

     total cpu time spent up to now is    14275.6 secs

     total energy              =   -4471.49545216 Ry
     Harris-Foulkes estimate   =   -4471.49544020 Ry
     estimated scf accuracy    <       0.00016683 Ry

     total magnetization       =    46.00 Bohr mag/cell
     absolute magnetization    =    47.83 Bohr mag/cell

     iteration # 29     ecut=    40.00 Ry     beta=0.30
     Davidson diagonalization with overlap
     ethr =  3.81E-08,  avg # of iterations =  1.0

     negative rho (up, down):  0.337E-02 0.181E-02

     total cpu time spent up to now is    14637.6 secs

     total energy              =   -4471.49551366 Ry
     Harris-Foulkes estimate   =   -4471.49550241 Ry
     estimated scf accuracy    <       0.00014789 Ry

     total magnetization       =    46.00 Bohr mag/cell
     absolute magnetization    =    47.83 Bohr mag/cell

     iteration # 30     ecut=    40.00 Ry     beta=0.30
     Davidson diagonalization with overlap
     ethr =  3.38E-08,  avg # of iterations =  1.0

     negative rho (up, down):  0.326E-02 0.176E-02

     total cpu time spent up to now is    14999.4 secs

     total energy              =   -4471.49552827 Ry
     Harris-Foulkes estimate   =   -4471.49552854 Ry
     estimated scf accuracy    <       0.00009206 Ry

     total magnetization       =    46.00 Bohr mag/cell
     absolute magnetization    =    47.83 Bohr mag/cell

     iteration # 31     ecut=    40.00 Ry     beta=0.30
     Davidson diagonalization with overlap
     ethr =  2.10E-08,  avg # of iterations =  1.2

     negative rho (up, down):  0.314E-02 0.170E-02

     total cpu time spent up to now is    15376.7 secs

     total energy              =   -4471.49553911 Ry
     Harris-Foulkes estimate   =   -4471.49554042 Ry
     estimated scf accuracy    <       0.00027656 Ry

     total magnetization       =    46.00 Bohr mag/cell
     absolute magnetization    =    47.83 Bohr mag/cell

     iteration # 32     ecut=    40.00 Ry     beta=0.30
     Davidson diagonalization with overlap
     ethr =  2.10E-08,  avg # of iterations =  1.0

     negative rho (up, down):  0.307E-02 0.167E-02

     total cpu time spent up to now is    15738.8 secs

     total energy              =   -4471.49554794 Ry
     Harris-Foulkes estimate   =   -4471.49554872 Ry
     estimated scf accuracy    <       0.00006449 Ry

     total magnetization       =    46.00 Bohr mag/cell
     absolute magnetization    =    47.83 Bohr mag/cell

     iteration # 33     ecut=    40.00 Ry     beta=0.30
     Davidson diagonalization with overlap
     ethr =  1.47E-08,  avg # of iterations =  1.0

     negative rho (up, down):  0.306E-02 0.167E-02

     total cpu time spent up to now is    16101.7 secs

     total energy              =   -4471.49555481 Ry
     Harris-Foulkes estimate   =   -4471.49555520 Ry
     estimated scf accuracy    <       0.00008078 Ry

     total magnetization       =    46.00 Bohr mag/cell
     absolute magnetization    =    47.83 Bohr mag/cell

     iteration # 34     ecut=    40.00 Ry     beta=0.30
     Davidson diagonalization with overlap
     ethr =  1.47E-08,  avg # of iterations =  1.0

     negative rho (up, down):  0.300E-02 0.164E-02

     total cpu time spent up to now is    16464.4 secs

     total energy              =   -4471.49555891 Ry
     Harris-Foulkes estimate   =   -4471.49555925 Ry
     estimated scf accuracy    <       0.00006352 Ry

     total magnetization       =    46.00 Bohr mag/cell
     absolute magnetization    =    47.83 Bohr mag/cell

     iteration # 35     ecut=    40.00 Ry     beta=0.30
     Davidson diagonalization with overlap
     ethr =  1.45E-08,  avg # of iterations =  1.0

     negative rho (up, down):  0.303E-02 0.165E-02

     total cpu time spent up to now is    16824.3 secs

     total energy              =   -4471.49556001 Ry
     Harris-Foulkes estimate   =   -4471.49556505 Ry
     estimated scf accuracy    <       0.00007201 Ry

     total magnetization       =    46.00 Bohr mag/cell
     absolute magnetization    =    47.83 Bohr mag/cell

     iteration # 36     ecut=    40.00 Ry     beta=0.30
     Davidson diagonalization with overlap
     ethr =  1.45E-08,  avg # of iterations =  1.0

     negative rho (up, down):  0.303E-02 0.165E-02

     total cpu time spent up to now is    17185.9 secs

     total energy              =   -4471.49556322 Ry
     Harris-Foulkes estimate   =   -4471.49556391 Ry
     estimated scf accuracy    <       0.00005200 Ry

     total magnetization       =    46.00 Bohr mag/cell
     absolute magnetization    =    47.83 Bohr mag/cell

     iteration # 37     ecut=    40.00 Ry     beta=0.30
     Davidson diagonalization with overlap
     ethr =  1.19E-08,  avg # of iterations =  1.0

     negative rho (up, down):  0.301E-02 0.164E-02

     total cpu time spent up to now is    17552.5 secs

     total energy              =   -4471.49556461 Ry
     Harris-Foulkes estimate   =   -4471.49556584 Ry
     estimated scf accuracy    <       0.00007449 Ry

     total magnetization       =    46.00 Bohr mag/cell
     absolute magnetization    =    47.83 Bohr mag/cell

     iteration # 38     ecut=    40.00 Ry     beta=0.30
     Davidson diagonalization with overlap
     ethr =  1.19E-08,  avg # of iterations =  1.0

     negative rho (up, down):  0.302E-02 0.165E-02

     total cpu time spent up to now is    17919.5 secs

     total energy              =   -4471.49556675 Ry
     Harris-Foulkes estimate   =   -4471.49556701 Ry
     estimated scf accuracy    <       0.00001677 Ry

     total magnetization       =    46.00 Bohr mag/cell
     absolute magnetization    =    47.84 Bohr mag/cell

     iteration # 39     ecut=    40.00 Ry     beta=0.30
     Davidson diagonalization with overlap
     ethr =  3.83E-09,  avg # of iterations =  1.0

     negative rho (up, down):  0.303E-02 0.165E-02

     total cpu time spent up to now is    18285.9 secs

     total energy              =   -4471.49556756 Ry
     Harris-Foulkes estimate   =   -4471.49556768 Ry
     estimated scf accuracy    <       0.00000885 Ry

     total magnetization       =    46.00 Bohr mag/cell
     absolute magnetization    =    47.84 Bohr mag/cell

     iteration # 40     ecut=    40.00 Ry     beta=0.30
     Davidson diagonalization with overlap
     ethr =  2.02E-09,  avg # of iterations =  1.0

     negative rho (up, down):  0.304E-02 0.166E-02

     total cpu time spent up to now is    18652.3 secs

     total energy              =   -4471.49556795 Ry
     Harris-Foulkes estimate   =   -4471.49556798 Ry
     estimated scf accuracy    <       0.00000377 Ry

     total magnetization       =    46.00 Bohr mag/cell
     absolute magnetization    =    47.84 Bohr mag/cell

     iteration # 41     ecut=    40.00 Ry     beta=0.30
     Davidson diagonalization with overlap
     ethr =  8.62E-10,  avg # of iterations =  1.0

     negative rho (up, down):  0.306E-02 0.167E-02

     total cpu time spent up to now is    19018.9 secs

     total energy              =   -4471.49556832 Ry
     Harris-Foulkes estimate   =   -4471.49556819 Ry
     estimated scf accuracy    <       0.00000140 Ry

     total magnetization       =    46.00 Bohr mag/cell
     absolute magnetization    =    47.84 Bohr mag/cell

     iteration # 42     ecut=    40.00 Ry     beta=0.30
     Davidson diagonalization with overlap
     ethr =  3.19E-10,  avg # of iterations =  1.0

     negative rho (up, down):  0.307E-02 0.167E-02

     total cpu time spent up to now is    19383.8 secs

     total energy              =   -4471.49556854 Ry
     Harris-Foulkes estimate   =   -4471.49556847 Ry
     estimated scf accuracy    <       0.00000374 Ry

     total magnetization       =    46.00 Bohr mag/cell
     absolute magnetization    =    47.84 Bohr mag/cell

     iteration # 43     ecut=    40.00 Ry     beta=0.30
     Davidson diagonalization with overlap
     ethr =  3.19E-10,  avg # of iterations =  1.0

     negative rho (up, down):  0.308E-02 0.168E-02

     total cpu time spent up to now is    19749.6 secs

     total energy              =   -4471.49556856 Ry
     Harris-Foulkes estimate   =   -4471.49556869 Ry
     estimated scf accuracy    <       0.00000329 Ry

     total magnetization       =    46.00 Bohr mag/cell
     absolute magnetization    =    47.84 Bohr mag/cell

     iteration # 44     ecut=    40.00 Ry     beta=0.30
     Davidson diagonalization with overlap
     ethr =  3.19E-10,  avg # of iterations =  1.0

     negative rho (up, down):  0.310E-02 0.168E-02

     total cpu time spent up to now is    20113.0 secs

     total energy              =   -4471.49556877 Ry
     Harris-Foulkes estimate   =   -4471.49556875 Ry
     estimated scf accuracy    <       0.00000211 Ry

     total magnetization       =    46.00 Bohr mag/cell
     absolute magnetization    =    47.84 Bohr mag/cell

     iteration # 45     ecut=    40.00 Ry     beta=0.30
     Davidson diagonalization with overlap
     ethr =  3.19E-10,  avg # of iterations =  1.0

     negative rho (up, down):  0.310E-02 0.168E-02

     total cpu time spent up to now is    20475.5 secs

     total energy              =   -4471.49556884 Ry
     Harris-Foulkes estimate   =   -4471.49556888 Ry
     estimated scf accuracy    <       0.00000117 Ry

     total magnetization       =    46.00 Bohr mag/cell
     absolute magnetization    =    47.84 Bohr mag/cell

     iteration # 46     ecut=    40.00 Ry     beta=0.30
     Davidson diagonalization with overlap
     ethr =  2.67E-10,  avg # of iterations =  1.0

     negative rho (up, down):  0.311E-02 0.169E-02

     total cpu time spent up to now is    20840.2 secs

     total energy              =   -4471.49556874 Ry
     Harris-Foulkes estimate   =   -4471.49556897 Ry
     estimated scf accuracy    <       0.00000330 Ry

     total magnetization       =    46.00 Bohr mag/cell
     absolute magnetization    =    47.84 Bohr mag/cell

     iteration # 47     ecut=    40.00 Ry     beta=0.30
     Davidson diagonalization with overlap
     ethr =  2.67E-10,  avg # of iterations =  1.0

     negative rho (up, down):  0.311E-02 0.169E-02

     total cpu time spent up to now is    21202.4 secs

     total energy              =   -4471.49556882 Ry
     Harris-Foulkes estimate   =   -4471.49556894 Ry
     estimated scf accuracy    <       0.00000708 Ry

     total magnetization       =    46.00 Bohr mag/cell
     absolute magnetization    =    47.84 Bohr mag/cell

     iteration # 48     ecut=    40.00 Ry     beta=0.30
     Davidson diagonalization with overlap
     ethr =  2.67E-10,  avg # of iterations =  1.0

     negative rho (up, down):  0.311E-02 0.169E-02

     total cpu time spent up to now is    21563.5 secs

     End of self-consistent calculation

 ------ SPIN UP ------------


          k = 0.0000 0.0000 0.0000 ( 36065 PWs)   bands (ev):

   -82.8269 -82.7667 -82.6630 -82.6525 -82.6349 -82.6123 -82.5859 -82.5751
   -82.5495 -82.5392 -82.5293 -82.5183 -82.2714 -82.2708 -82.2612 -82.2604
   -51.5928 -51.5065 -51.4991 -51.4948 -51.4926 -51.4643 -51.4276 -51.4250
   -51.4138 -51.3844 -51.3766 -51.3606 -51.3420 -51.3117 -51.3104 -51.3024
   -51.3015 -51.3004 -51.2900 -51.2758 -51.2630 -51.2623 -51.2506 -51.2405
   -51.2147 -51.2016 -51.1824 -51.1779 -51.1610 -51.1604 -51.1539 -51.1498
   -51.1427 -51.1415 -51.1300 -51.1243 -51.0301 -51.0098 -51.0011 -50.9931
   -50.9853 -50.9767 -50.9054 -50.8892 -50.8772 -50.8718 -50.8581 -50.8523
   -20.5666 -20.3281 -20.0766 -19.8470 -19.4395 -19.2173 -19.1803 -19.0924
   -18.9864 -18.9855 -18.9143 -18.8822 -18.8292 -18.7733 -18.7617 -18.7583
   -18.7190 -18.6993 -18.6694 -18.6667 -18.6438 -18.5697 -18.5134 -18.5055
   -18.4839 -18.4434 -18.3728 -18.2280 -18.0777 -17.8446 -17.7538 -17.4426
   -17.3372  -8.6028  -8.5120  -8.4446  -8.3656  -7.9546  -7.8453  -7.5878
    -7.4694  -7.3274  -7.2894  -7.2884  -7.2295  -7.2117  -7.1655  -7.1181
    -7.0997  -7.0421  -7.0364  -7.0287  -6.9717  -6.9274  -6.8669  -6.8456
    -6.8413  -6.6983  -6.6221  -6.6082  -6.5353  -6.5207  -6.5122  -6.3858
    -6.3776  -6.3288  -6.2301  -6.1005  -6.0773  -5.9769  -5.9660  -5.9187
    -5.9072  -5.7604  -5.5858  -5.5225  -5.5024  -5.4205  -5.3335  -5.3095
    -5.1745  -5.1498  -5.0983  -5.0706  -4.9667  -4.9425  -4.8921  -4.7898
    -4.6940  -4.6673  -4.6574  -4.4599  -4.4587  -4.4492  -4.3923  -4.3283
    -4.3067  -4.2861  -4.1958  -4.1641  -4.1218  -4.0253  -3.9998  -3.9763
    -3.9556  -3.9497  -3.8451  -3.8364  -3.8094  -3.7549  -3.5302  -3.5291
    -3.4631  -3.4034  -3.3589  -3.3495  -3.3297  -3.3128  -3.2782  -3.2530
    -3.2506  -3.2338  -3.2184  -3.2081  -3.1812  -3.1481  -3.0020  -2.9612
    -2.8928  -2.8928  -2.8484  -2.7824  -2.7522  -2.6941  -2.6941  -2.6422
    -2.6265  -2.6248  -2.6172  -2.5961  -2.4849  -2.3888  -2.3621  -2.2579
    -2.1520  -2.1406  -2.1406  -2.1184  -2.1135  -2.0971  -1.8541  -1.7891
    -1.7633  -1.7400  -1.6573  -1.5965  -1.5563  -1.5486  -1.5217  -1.4905
    -1.4698  -1.4181  -1.4181  -1.3480  -1.2433  -1.1277  -0.9660  -0.9034
    -0.8682  -0.8664  -0.7911  -0.7240  -0.7100  -0.6086  -0.5497  -0.5041
    -0.4527  -0.4310  -0.4195  -0.4047  -0.3659  -0.3179  -0.2076   0.0741
     0.3171   0.3796   0.7258   0.7629   1.0084   1.0592   1.1403   1.2062
     1.3261   1.3423   1.4035   1.4738   1.5782   1.6076   1.7201   1.8468
     2.0141   2.0310   2.0676   2.1146   2.1390   2.1956   2.3088   2.4061
     2.5520   2.5673   2.6395   2.8443   4.4060   5.3716   5.4416   5.7584
     6.1485   6.6347   7.1315   7.4090   7.7007   7.8737   8.6334   8.6672
     8.7132   9.0631   9.1921   9.2812   9.3335   9.4316   9.4808   9.7724
     9.7764   9.9002   9.9777   9.9801  10.1032  10.1906  10.1995  10.2235
    10.3881  10.4447  10.5085  10.5131  10.5968  10.6636  10.7498  10.8081
    10.8462  10.8767  10.9734  10.9858  11.1191  11.1390  11.2464  11.2506
    11.2914  11.3831  11.4079  11.4805  11.6488  11.7381  11.8327  11.8408
    11.8478  11.8546  12.0006  12.0543  12.1167  12.2738  12.3978  12.5066
    12.5212  12.5229  12.6332  12.6740  12.7635  12.7674  12.7877  12.8499
    13.0673  13.0809  13.2023  13.4413  13.4446  13.5164  13.5848  13.6538
    13.7170  13.7461  13.8211  13.8600  13.8747  13.9375  13.9499  14.0219
    14.0597  14.1230  14.1407  14.1461  14.2001  14.2077  14.2872  14.3156
    14.3364  14.3892  14.4182  14.4451  14.4525  14.5590  14.6071  14.6111
    14.6621  14.7038  14.7138  14.7412  14.7702  14.8253  14.8626  14.8847
    14.8904  14.9061  15.0314  15.0721  15.1016  15.1873  15.2248  15.2420
    15.2705  15.3162  15.3725  15.4083  15.5583  15.6220  15.6514  15.7269
    15.7422  15.7657  15.8786  15.9380  15.9394  15.9470  16.0154  16.0898
    16.1269  16.1648  16.1910  16.2868  16.3180  16.4987  16.5728  16.6381
    16.6670  16.6712  16.7376  16.8300  16.9084  16.9579  16.9634  16.9822
    17.0070  17.0360  17.1314  17.1817  17.2196  17.2534  17.4407  17.4412
    17.4899  17.6786  17.6797  17.7644  17.7934  17.8784  17.9328  18.0173
    18.0592  18.1232  18.1570  18.2022  18.2776  18.4188  18.4472  18.5336
    18.6250  18.6911  18.7093  18.7780  18.9203  18.9333  18.9356  19.0791
    19.1104  19.1974  19.2275  19.2720  19.3552  19.5060  19.5341  19.6196
    19.8629  19.8811  19.9309  19.9539  20.0796  20.0964  20.1551  20.2152
    20.2256  20.2437  20.3195  20.3894  20.4907  20.5023  20.5588  20.6896
    20.7163  20.7862  20.9015  21.0055  21.0852  21.1072  21.1491  21.2422
    21.2619  21.2710  21.3089  21.3759  21.4176  21.4807  21.4909  21.5120
    21.5263  21.5647  21.5782  21.6221  21.6920  21.7586  21.8012  21.8546
    21.8858  21.9030  22.0503  22.1366  22.2147  22.2976  22.4102  22.4563
    22.4644  22.5670  22.5936  22.6318  22.6598  22.7116  22.7619  22.7623
    22.8516  22.8998  22.9609  22.9749  23.0414  23.1223  23.1274  23.2322
    23.3886  23.4239  23.4894  23.5053  23.5690  23.6491  23.6805  23.7401
    23.9068  23.9912  23.9924  24.0615  24.1120  24.1318  24.1556  24.1974
    24.2633  24.3058  24.3195  24.3492  24.4326  24.4746  24.5369  24.5447
    24.6251  24.7531  24.7693  24.7806  24.7996  24.8448  24.8932  24.9827
    25.0044  25.0438  25.0631  25.1557  25.1944  25.2049  25.2374  25.2927
    25.3862  25.4118  25.4192  25.4358  25.4908  25.6321  25.6847  25.7315
    25.7775  25.8305  25.8615  25.8662  25.9147  25.9500  25.9790  26.0012
    26.0500  26.1019  26.1079  26.2102  26.2201  26.2252  26.2480  26.3254
    26.3387  26.3648  26.3898  26.4294  26.4296  26.5196  26.5233  26.5550
    26.5836  26.6166  26.6334  26.7819  26.7924  26.8202  26.8966  26.9283
    27.0024  27.0730  27.1567  27.1864  27.2031  27.2306  27.2799  27.2805
    27.3457  27.3579  27.4005  27.4485  27.4721  27.5214  27.5431  27.6087
    27.6441  27.6701  27.6777  27.7514  27.7914  27.8277  27.8411  27.9152
    27.9198

          k = 0.0000 0.2303 0.0000 ( 36087 PWs)   bands (ev):

   -82.8269 -82.7667 -82.6630 -82.6525 -82.6349 -82.6123 -82.5859 -82.5751
   -82.5495 -82.5392 -82.5293 -82.5183 -82.2714 -82.2708 -82.2612 -82.2604
   -51.5929 -51.5064 -51.4992 -51.4948 -51.4926 -51.4644 -51.4278 -51.4250
   -51.4137 -51.3846 -51.3766 -51.3607 -51.3420 -51.3117 -51.3101 -51.3023
   -51.3014 -51.2996 -51.2900 -51.2755 -51.2624 -51.2619 -51.2507 -51.2402
   -51.2146 -51.2016 -51.1823 -51.1779 -51.1620 -51.1603 -51.1536 -51.1511
   -51.1424 -51.1415 -51.1300 -51.1243 -51.0301 -51.0098 -51.0017 -50.9928
   -50.9856 -50.9765 -50.9054 -50.8893 -50.8772 -50.8718 -50.8581 -50.8523
   -20.4379 -20.2062 -19.9627 -19.7439 -19.6321 -19.3985 -19.1245 -19.0881
   -19.0621 -19.0025 -18.9832 -18.9706 -18.9298 -18.8558 -18.8198 -18.8156
   -18.7289 -18.7251 -18.6795 -18.6052 -18.5811 -18.5606 -18.5147 -18.4877
   -18.4572 -18.3685 -18.3384 -18.2312 -18.0762 -17.8449 -17.7424 -17.4291
   -17.3367  -8.2933  -8.2103  -8.1487  -8.0993  -7.9569  -7.8248  -7.7145
    -7.5746  -7.5306  -7.4891  -7.4530  -7.4324  -7.2063  -7.1657  -7.0928
    -7.0105  -6.9655  -6.9177  -6.9151  -6.8758  -6.8745  -6.8040  -6.6968
    -6.6401  -6.6007  -6.5616  -6.5464  -6.4778  -6.4570  -6.3737  -6.2872
    -6.2386  -6.1836  -6.1161  -5.9519  -5.9517  -5.9171  -5.9149  -5.9046
    -5.7865  -5.6744  -5.5562  -5.5201  -5.5152  -5.4655  -5.4528  -5.4043
    -5.3474  -5.2987  -5.2085  -5.1762  -5.1522  -5.0952  -5.0799  -5.0579
    -4.9280  -4.9058  -4.8752  -4.7079  -4.6779  -4.4211  -4.3962  -4.3594
    -4.2672  -4.2339  -4.2183  -4.1890  -4.1420  -4.1378  -4.0771  -4.0381
    -4.0009  -3.9782  -3.9253  -3.8774  -3.8482  -3.7672  -3.7563  -3.7222
    -3.6295  -3.5763  -3.5298  -3.4771  -3.4363  -3.3681  -3.3505  -3.3193
    -3.2243  -3.2242  -3.0635  -3.0568  -3.0472  -2.9390  -2.8772  -2.8741
    -2.8338  -2.8094  -2.7834  -2.6871  -2.6124  -2.6028  -2.5463  -2.5359
    -2.4907  -2.4742  -2.4063  -2.3574  -2.3559  -2.2854  -2.2853  -2.2570
    -2.1940  -2.1467  -2.1370  -2.1203  -2.1158  -2.0870  -2.0718  -2.0298
    -1.9667  -1.9054  -1.8989  -1.8276  -1.8237  -1.7679  -1.6841  -1.6596
    -1.5319  -1.5269  -1.3057  -1.3000  -1.2552  -1.0272  -0.8765  -0.8437
    -0.7807  -0.7492  -0.7389  -0.7008  -0.6499  -0.6074  -0.5821  -0.5395
    -0.4966  -0.4009  -0.3778  -0.3637  -0.3490  -0.2894  -0.1845  -0.0250
     0.1285   0.1881   0.2489   0.2810   0.4116   0.6779   1.0398   1.2486
     1.5590   1.5991   1.6975   1.8772   1.9029   1.9196   1.9672   2.0176
     2.0428   2.1145   2.1789   2.1835   2.3437   2.4374   2.4746   2.5586
     2.5709   2.5730   2.6449   2.7297   4.5923   5.6191   5.6861   5.9939
     6.3770   6.8351   7.2860   7.4297   7.5139   7.6880   7.7981   7.9882
     8.1059   8.2935   8.6204   8.8643   9.1068   9.1136   9.3207   9.5907
     9.8804  10.0661  10.1658  10.1794  10.2143  10.2971  10.3086  10.4426
    10.4460  10.5686  10.6141  10.6406  10.7718  10.9145  10.9609  11.0099
    11.0469  11.0729  11.2302  11.3185  11.4058  11.4527  11.5406  11.5786
    11.5801  11.6100  11.6664  11.7449  11.7924  11.8672  11.8832  11.8884
    12.0029  12.0175  12.1832  12.1897  12.2238  12.2571  12.2913  12.3500
    12.3915  12.5002  12.5567  12.5908  12.6416  12.6419  12.7190  12.7833
    12.8447  12.9833  13.0225  13.0314  13.0616  13.1274  13.1799  13.2032
    13.2611  13.4084  13.5811  13.6652  13.7323  13.7439  13.7637  13.7688
    13.8173  13.9290  14.0373  14.1804  14.2160  14.3184  14.3366  14.3864
    14.4007  14.4900  14.5119  14.5749  14.6251  14.7016  14.7033  14.7336
    14.8125  14.9171  14.9407  15.0126  15.0147  15.0182  15.1175  15.1563
    15.1622  15.2280  15.3147  15.3398  15.3547  15.3670  15.3893  15.5640
    15.6038  15.6117  15.7110  15.7661  15.8133  15.8760  15.9427  16.0057
    16.0662  16.1586  16.1735  16.2110  16.2116  16.2462  16.2668  16.3304
    16.3685  16.4521  16.4654  16.5080  16.5313  16.5555  16.5648  16.6543
    16.7248  16.7497  16.8281  16.8941  16.9672  17.0117  17.0517  17.0552
    17.1096  17.1347  17.1973  17.2215  17.2887  17.3561  17.4413  17.5407
    17.5751  17.5858  17.6175  17.6616  17.6713  17.7130  17.8194  17.8234
    17.8908  17.9544  18.0054  18.0173  18.1154  18.1405  18.2967  18.3291
    18.3579  18.4609  18.5016  18.6642  18.7139  18.8122  18.8540  18.9625
    18.9994  19.0275  19.0297  19.0549  19.1619  19.2229  19.2605  19.5043
    19.5275  19.5513  19.6119  19.6850  19.7331  19.8830  20.0556  20.0598
    20.0832  20.1746  20.1874  20.2473  20.3136  20.3376  20.5146  20.6233
    20.6608  20.6851  20.6984  20.7897  20.8608  20.9093  20.9304  20.9798
    21.0942  21.1223  21.2432  21.2670  21.3679  21.3747  21.4134  21.4327
    21.4831  21.5300  21.5534  21.6328  21.6511  21.7114  21.7749  21.8144
    21.9239  22.0020  22.0547  22.0554  22.0923  22.0947  22.1431  22.2071
    22.3269  22.3488  22.3662  22.4230  22.5165  22.5387  22.6147  22.6254
    22.6668  22.6956  22.7350  22.7494  22.8734  22.9296  22.9591  23.0200
    23.0503  23.0821  23.1021  23.2185  23.2188  23.3163  23.3936  23.5010
    23.5567  23.6242  23.6250  23.6885  23.8225  23.8905  23.9620  23.9868
    24.1372  24.1431  24.1942  24.2586  24.2612  24.3191  24.3568  24.4247
    24.4795  24.5008  24.5592  24.5755  24.6739  24.6858  24.7651  24.7858
    24.8819  24.8870  24.9247  24.9396  24.9624  25.0412  25.1085  25.1567
    25.1730  25.2614  25.3460  25.3927  25.4332  25.4792  25.5103  25.5323
    25.5493  25.6050  25.6250  25.6620  25.6796  25.7338  25.7930  25.8096
    25.8286  25.8643  25.9226  25.9518  26.0360  26.1058  26.1179  26.1376
    26.1494  26.2151  26.2515  26.2918  26.3433  26.3484  26.3807  26.4297
    26.4791  26.5355  26.5475  26.6087  26.6575  26.6850  26.7125  26.8337
    26.8430  26.8584  26.9150  26.9457  26.9554  27.0327  27.1018  27.1342
    27.1801  27.2265  27.2782  27.3369  27.3412  27.3931  27.4880  27.4926
    27.5146  27.5701  27.6526  27.6568  27.6945  27.7796  27.8146  27.8664
    27.9187

          k = 0.0000-0.4606 0.0000 ( 36028 PWs)   bands (ev):

   -82.8269 -82.7667 -82.6630 -82.6525 -82.6349 -82.6123 -82.5859 -82.5751
   -82.5495 -82.5392 -82.5293 -82.5183 -82.2714 -82.2708 -82.2612 -82.2604
   -51.5928 -51.5063 -51.4991 -51.4948 -51.4925 -51.4645 -51.4278 -51.4250
   -51.4135 -51.3846 -51.3765 -51.3607 -51.3419 -51.3117 -51.3097 -51.3022
   -51.3014 -51.2987 -51.2899 -51.2751 -51.2624 -51.2608 -51.2507 -51.2399
   -51.2146 -51.2016 -51.1823 -51.1779 -51.1630 -51.1602 -51.1533 -51.1523
   -51.1421 -51.1415 -51.1300 -51.1243 -51.0300 -51.0096 -51.0021 -50.9926
   -50.9858 -50.9763 -50.9054 -50.8892 -50.8772 -50.8717 -50.8581 -50.8523
   -20.1267 -20.0827 -19.9219 -19.8398 -19.6306 -19.4739 -19.3218 -19.3006
   -19.0831 -19.0117 -18.9856 -18.9536 -18.9441 -18.9339 -18.8800 -18.8067
   -18.7605 -18.7252 -18.6948 -18.5869 -18.5842 -18.5384 -18.5097 -18.4915
   -18.3947 -18.3240 -18.3200 -18.2366 -18.0769 -17.8454 -17.7314 -17.4170
   -17.3361  -8.0255  -7.9532  -7.7944  -7.7796  -7.7587  -7.7570  -7.7440
    -7.7278  -7.7013  -7.6765  -7.4588  -7.4569  -7.2206  -7.0009  -6.9952
    -6.9886  -6.8954  -6.8948  -6.8162  -6.7549  -6.7312  -6.6574  -6.4977
    -6.4758  -6.4670  -6.4335  -6.4273  -6.4016  -6.3987  -6.3561  -6.3552
    -6.2935  -6.2877  -6.1644  -6.0595  -5.9607  -5.9078  -5.9036  -5.8340
    -5.8313  -5.7539  -5.7262  -5.6414  -5.6125  -5.5594  -5.5442  -5.5209
    -5.4365  -5.3777  -5.3036  -5.3029  -5.2435  -5.1404  -5.0675  -5.0613
    -5.0092  -4.8705  -4.7816  -4.7587  -4.6940  -4.6936  -4.5852  -4.4539
    -4.4516  -4.3898  -4.3525  -4.3516  -4.3232  -4.2922  -4.2558  -4.1049
    -4.0749  -4.0086  -3.9789  -3.8598  -3.8352  -3.8297  -3.7818  -3.6929
    -3.5904  -3.4949  -3.4223  -3.3897  -3.3557  -3.3524  -3.3102  -3.2677
    -3.2481  -3.2283  -3.1495  -3.0745  -3.0540  -2.9891  -2.7490  -2.7017
    -2.6891  -2.6773  -2.6645  -2.6300  -2.5821  -2.5631  -2.5417  -2.5008
    -2.4960  -2.4757  -2.4619  -2.4095  -2.3801  -2.3754  -2.3660  -2.3179
    -2.3143  -2.2873  -2.2143  -2.1271  -2.0953  -2.0850  -2.0706  -2.0004
    -1.9991  -1.9860  -1.8926  -1.8852  -1.7133  -1.6694  -1.6478  -1.5967
    -1.5854  -1.5441  -1.2781  -1.2673  -1.2049  -1.2030  -1.1447  -0.9568
    -0.9258  -0.7753  -0.6844  -0.6525  -0.5780  -0.5416  -0.5298  -0.5096
    -0.4844  -0.4544  -0.4495  -0.3716  -0.3588  -0.2918  -0.2515  -0.2220
    -0.2006  -0.1505  -0.0927   0.3090   0.4098   1.0346   1.1308   1.3422
     1.6115   1.7588   1.7939   1.8125   1.8550   1.9050   1.9962   2.0187
     2.0500   2.0912   2.2436   2.3873   2.4714   2.5221   2.5694   2.5966
     2.6493   2.8602   2.8792   2.9718   4.8520   6.1744   6.2316   6.3694
     6.5581   6.5676   6.8301   6.8983   7.2584   7.3354   7.6255   7.8001
     7.8588   8.3990   8.4224   8.8098   8.9460   9.0371   9.1389   9.1735
     9.5970   9.6915   9.7912   9.9637  10.4980  10.5289  10.5779  10.5909
    10.6781  10.7881  10.7915  10.7925  10.9540  11.0321  11.1222  11.1454
    11.1465  11.2088  11.3219  11.3550  11.3601  11.3656  11.3965  11.4315
    11.4764  11.5885  11.5939  11.7124  11.7467  11.7565  11.7897  11.8106
    11.9685  12.0073  12.1592  12.2135  12.2516  12.2821  12.3057  12.3662
    12.4264  12.4769  12.5387  12.6958  12.7620  12.8332  12.8972  12.9717
    13.0425  13.0928  13.1058  13.2599  13.2651  13.3576  13.3756  13.4112
    13.4954  13.5217  13.6419  13.8030  13.9437  13.9692  14.0244  14.0704
    14.0740  14.1902  14.2105  14.2762  14.3256  14.3311  14.4172  14.4707
    14.5283  14.6173  14.6390  14.6777  14.7020  14.7036  14.7930  14.8639
    14.8808  14.8848  14.9410  14.9729  15.0031  15.1215  15.1601  15.2022
    15.2996  15.3210  15.3779  15.4088  15.4183  15.4622  15.5014  15.5704
    15.6397  15.6466  15.6811  15.7437  15.8002  15.8003  15.8951  15.9059
    15.9799  16.0201  16.0226  16.0288  16.0646  16.1124  16.1217  16.1290
    16.1432  16.2411  16.2522  16.3157  16.4342  16.4665  16.5564  16.5865
    16.6041  16.6371  16.6729  16.7123  16.7802  16.8830  16.9259  16.9587
    17.0154  17.0936  17.1606  17.2653  17.2802  17.3516  17.4062  17.4435
    17.4805  17.5295  17.7913  17.9413  18.0792  18.1242  18.2384  18.3400
    18.3542  18.4502  18.5001  18.5212  18.5317  18.5576  18.6398  18.6749
    18.7519  18.8009  18.8145  18.8567  18.9077  19.0038  19.0046  19.1246
    19.1271  19.1847  19.2004  19.2031  19.2185  19.4554  19.4579  19.4897
    19.5403  19.5588  19.5874  19.6052  19.7573  19.8053  19.8438  19.8834
    19.8855  19.9283  19.9615  20.0419  20.0771  20.0864  20.1665  20.1795
    20.3206  20.3246  20.5651  20.6231  20.6234  20.6546  20.6743  20.6905
    20.7105  20.7868  20.8148  20.8421  20.8884  20.9159  20.9908  21.1454
    21.1474  21.2695  21.2769  21.2946  21.3126  21.3636  21.4229  21.4598
    21.4599  21.5584  21.5686  21.7123  21.7839  21.9239  21.9391  21.9495
    21.9779  22.0555  22.0555  22.0711  22.1626  22.1762  22.2053  22.2061
    22.2872  22.3821  22.4143  22.4797  22.5896  22.6118  22.6627  22.7959
    22.8351  22.8697  22.8854  22.8917  22.9132  22.9949  23.1637  23.1928
    23.2631  23.2900  23.3012  23.4325  23.4897  23.6937  23.7379  23.7633
    23.8046  23.9163  23.9745  23.9884  24.0491  24.2303  24.3432  24.3825
    24.4226  24.4587  24.5096  24.6138  24.7231  24.7895  24.8605  24.8941
    24.9004  24.9055  24.9472  24.9490  24.9843  25.0194  25.0295  25.0406
    25.0765  25.1678  25.2168  25.2299  25.2578  25.3134  25.3719  25.4045
    25.4467  25.4940  25.5369  25.5612  25.6198  25.6702  25.6902  25.7385
    25.8180  25.8184  25.8431  25.8438  25.8683  25.9252  26.0122  26.0338
    26.0339  26.1606  26.1969  26.2045  26.2065  26.2430  26.3093  26.3438
    26.4786  26.4848  26.4933  26.5691  26.5695  26.5711  26.6817  26.7065
    26.8963  26.9292  26.9862  27.0139  27.0522  27.1185  27.1713  27.2598
    27.2964  27.3535  27.3829  27.4645  27.4692  27.4956  27.5021  27.5511
    27.6675  27.7350  27.7754  27.7853  27.9227  27.9315  27.9352  27.9712
    28.0316

          k = 0.2500 0.0000 0.0000 ( 36052 PWs)   bands (ev):

   -82.8267 -82.7668 -82.6615 -82.6539 -82.6343 -82.6129 -82.5844 -82.5766
   -82.5480 -82.5408 -82.5279 -82.5196 -82.2699 -82.2693 -82.2627 -82.2619
   -51.5811 -51.5091 -51.5062 -51.4905 -51.4812 -51.4469 -51.4243 -51.4141
   -51.4093 -51.3946 -51.3667 -51.3595 -51.3453 -51.3207 -51.3104 -51.3074
   -51.3027 -51.2979 -51.2930 -51.2802 -51.2784 -51.2640 -51.2598 -51.2437
   -51.2142 -51.1988 -51.1852 -51.1779 -51.1599 -51.1569 -51.1550 -51.1489
   -51.1436 -51.1405 -51.1311 -51.1301 -51.0120 -50.9999 -50.9943 -50.9923
   -50.9840 -50.9780 -50.9238 -50.9070 -50.8744 -50.8688 -50.8609 -50.8551
   -20.4148 -20.1903 -19.9528 -19.7302 -19.4775 -19.4055 -19.3291 -19.2502
   -19.1487 -19.0733 -18.8916 -18.8199 -18.8086 -18.7421 -18.7254 -18.7168
   -18.6964 -18.6833 -18.6582 -18.6509 -18.6396 -18.5904 -18.5101 -18.4998
   -18.4616 -18.4358 -18.3780 -18.2688 -18.1278 -17.8590 -17.7770 -17.4415
   -17.3685  -8.4067  -8.3371  -8.2780  -8.2314  -7.7904  -7.6896  -7.5463
    -7.4465  -7.4159  -7.3575  -7.3459  -7.2729  -7.1867  -7.1627  -7.1142
    -7.0805  -7.0711  -6.9906  -6.9890  -6.9231  -6.9099  -6.8726  -6.8616
    -6.7935  -6.7438  -6.7356  -6.7183  -6.7005  -6.5979  -6.5737  -6.3916
    -6.3869  -6.2808  -6.1820  -6.1228  -6.0113  -5.9045  -5.8905  -5.8328
    -5.7632  -5.6462  -5.6079  -5.5410  -5.4360  -5.4189  -5.2402  -5.1886
    -5.1090  -5.0985  -5.0643  -4.9405  -4.8715  -4.8667  -4.7463  -4.7387
    -4.7111  -4.6805  -4.6327  -4.5691  -4.5437  -4.5420  -4.4854  -4.4641
    -4.4324  -4.4100  -4.3208  -4.2877  -4.2494  -4.1940  -4.1722  -4.1032
    -4.0950  -4.0558  -3.9705  -3.9378  -3.8704  -3.7985  -3.7404  -3.7148
    -3.6731  -3.6636  -3.6464  -3.5649  -3.5578  -3.5478  -3.5030  -3.4191
    -3.3308  -3.2714  -3.2286  -3.1453  -3.1076  -3.0941  -3.0744  -2.9633
    -2.8901  -2.8448  -2.7901  -2.7501  -2.7276  -2.7147  -2.6700  -2.6611
    -2.6159  -2.5809  -2.5241  -2.3243  -2.3079  -2.2596  -2.2347  -2.1266
    -2.1255  -2.0793  -2.0447  -1.9453  -1.8729  -1.8691  -1.8006  -1.7576
    -1.6994  -1.6188  -1.5614  -1.5337  -1.4797  -1.4660  -1.4196  -1.3121
    -1.2769  -1.2482  -1.2249  -1.1782  -1.1534  -1.1065  -0.9970  -0.9911
    -0.9607  -0.9273  -0.7979  -0.7168  -0.6513  -0.6394  -0.6091  -0.5849
    -0.5755  -0.5304  -0.5073  -0.4944  -0.4663  -0.2878  -0.2359   0.2116
     0.4449   0.5331   0.8444   0.9104   0.9936   1.1747   1.2081   1.2369
     1.3236   1.3745   1.4181   1.4665   1.5550   1.5872   1.5972   1.7433
     1.7527   1.7759   1.8089   1.8533   1.9467   2.0326   2.1423   2.1944
     2.3548   2.4204   2.4830   2.7597   4.7095   5.6752   5.7503   6.0587
     6.4530   6.5825   6.9329   7.4517   7.9814   8.0360   8.0664   8.2534
     8.4335   8.7605   8.9240   8.9339   9.0768   9.3721   9.4938   9.5171
     9.6535   9.7141   9.7713   9.9258  10.0536  10.1121  10.1973  10.2873
    10.4760  10.4814  10.5692  10.7234  10.8580  10.8622  10.8859  10.9243
    11.1072  11.1398  11.2291  11.2531  11.3139  11.3724  11.3842  11.4324
    11.4798  11.5825  11.5840  11.7175  11.7412  11.8801  11.9147  12.0116
    12.0200  12.0880  12.1464  12.1829  12.2237  12.3237  12.4586  12.4934
    12.5249  12.5772  12.6241  12.6830  12.7476  12.7728  12.8515  12.9184
    12.9546  12.9751  13.0359  13.1261  13.1721  13.2098  13.3647  13.3930
    13.4341  13.4707  13.4803  13.5592  13.7282  13.7559  13.7963  13.8957
    13.9541  13.9560  14.0135  14.0353  14.1291  14.1733  14.1809  14.3062
    14.3367  14.3829  14.4214  14.4483  14.5379  14.5998  14.6754  14.7009
    14.7169  14.7461  14.8306  14.8873  14.9103  14.9871  15.0922  15.1015
    15.1623  15.2153  15.2244  15.2734  15.3485  15.3575  15.4018  15.4475
    15.5520  15.7389  15.7710  15.8333  15.8838  15.9071  15.9291  15.9535
    16.0813  16.0951  16.1718  16.2066  16.2606  16.3304  16.4638  16.5044
    16.5577  16.6011  16.6353  16.6581  16.6811  16.7175  16.8136  16.8434
    16.8773  16.9086  16.9379  16.9854  17.0070  17.0791  17.0848  17.1436
    17.1926  17.2378  17.2619  17.2686  17.4130  17.4641  17.5186  17.6006
    17.6540  17.6916  17.6962  17.7561  17.8312  17.8977  17.9108  18.0309
    18.0869  18.1222  18.2328  18.2489  18.3023  18.3157  18.3690  18.4563
    18.5588  18.6179  18.6813  18.8032  18.8273  18.9252  18.9820  19.0009
    19.0868  19.1642  19.1719  19.2579  19.4214  19.4638  19.5323  19.5839
    19.6151  19.7062  19.7411  19.7522  19.7806  19.8380  19.8888  20.0403
    20.0407  20.1718  20.2225  20.2577  20.3572  20.3697  20.4711  20.5224
    20.5489  20.7248  20.8239  20.8379  20.8565  20.8641  20.9381  21.0629
    21.0673  21.0876  21.1731  21.1938  21.2401  21.3604  21.4589  21.4781
    21.5333  21.5887  21.6305  21.6490  21.7061  21.8655  21.9067  21.9076
    21.9506  21.9618  22.0569  22.0803  22.1275  22.2121  22.2659  22.2869
    22.3313  22.3783  22.3821  22.4227  22.4841  22.5053  22.6995  22.7248
    22.7872  22.8061  22.9042  22.9139  22.9662  23.0537  23.1541  23.2126
    23.2615  23.3016  23.3472  23.3885  23.4329  23.4503  23.4767  23.5501
    23.5515  23.5882  23.5990  23.6155  23.6413  23.6895  23.7354  23.8110
    23.8534  23.8866  23.8885  23.9495  23.9507  23.9580  23.9913  24.0214
    24.0944  24.1791  24.1895  24.2213  24.2467  24.2885  24.3036  24.3706
    24.4964  24.5173  24.5387  24.5954  24.6551  24.6752  24.6832  24.7756
    24.7926  24.8098  24.8138  24.8510  24.8878  24.9604  24.9919  25.0554
    25.0793  25.1990  25.2062  25.2451  25.2766  25.2867  25.3251  25.3337
    25.4061  25.4785  25.5331  25.5657  25.5933  25.6050  25.6265  25.6923
    25.7254  25.7614  25.8452  25.8795  25.9490  25.9764  26.0600  26.2296
    26.2915  26.3573  26.3744  26.3878  26.4091  26.4536  26.6084  26.6802
    26.7159  26.7853  26.8100  26.8444  26.9118  26.9368  26.9843  26.9995
    27.0666  27.1700  27.1809  27.2572  27.3253  27.3879  27.4710  27.5091
    27.5657  27.6044  27.6320  27.7073  27.7621  27.7651  27.8268  27.9010
    27.9756

          k = 0.2500 0.2303 0.0000 ( 36026 PWs)   bands (ev):

   -82.8267 -82.7668 -82.6615 -82.6539 -82.6343 -82.6129 -82.5844 -82.5766
   -82.5480 -82.5407 -82.5279 -82.5196 -82.2699 -82.2693 -82.2627 -82.2619
   -51.5812 -51.5092 -51.5061 -51.4904 -51.4812 -51.4470 -51.4243 -51.4139
   -51.4095 -51.3947 -51.3668 -51.3595 -51.3454 -51.3207 -51.3105 -51.3072
   -51.3027 -51.2973 -51.2928 -51.2802 -51.2777 -51.2644 -51.2585 -51.2432
   -51.2142 -51.1988 -51.1852 -51.1779 -51.1608 -51.1569 -51.1547 -51.1499
   -51.1434 -51.1405 -51.1310 -51.1301 -51.0120 -51.0003 -50.9941 -50.9922
   -50.9842 -50.9778 -50.9239 -50.9070 -50.8744 -50.8689 -50.8609 -50.8551
   -20.2918 -20.0748 -19.8439 -19.6283 -19.5306 -19.4105 -19.3545 -19.2728
   -19.1865 -19.0676 -18.9971 -18.9760 -18.9485 -18.8681 -18.8159 -18.7928
   -18.7552 -18.7197 -18.6328 -18.6170 -18.5937 -18.5737 -18.5068 -18.4528
   -18.4378 -18.3697 -18.3426 -18.2657 -18.1200 -17.8573 -17.7662 -17.4303
   -17.3682  -8.1010  -8.0296  -7.9767  -7.9607  -7.7939  -7.6666  -7.5062
    -7.3935  -7.3722  -7.2748  -7.2584  -7.2135  -7.1914  -7.1596  -7.1460
    -7.0976  -7.0422  -6.9820  -6.9706  -6.9243  -6.8719  -6.8538  -6.8228
    -6.8193  -6.7367  -6.7124  -6.6852  -6.6224  -6.5279  -6.4668  -6.3335
    -6.2546  -6.2028  -6.1112  -6.0761  -5.9286  -5.9089  -5.8649  -5.8485
    -5.7390  -5.6860  -5.6204  -5.4718  -5.4141  -5.3951  -5.3765  -5.2975
    -5.2334  -5.1543  -5.1404  -5.0661  -5.0527  -5.0132  -4.9152  -4.8884
    -4.8235  -4.7923  -4.7517  -4.7295  -4.7000  -4.6589  -4.6429  -4.6013
    -4.5655  -4.5208  -4.5033  -4.4520  -4.4111  -4.3653  -4.2885  -4.2710
    -4.1932  -4.1268  -4.1207  -4.0639  -3.9796  -3.9476  -3.8764  -3.8475
    -3.7546  -3.6412  -3.5532  -3.5347  -3.4839  -3.4713  -3.4406  -3.3950
    -3.3160  -3.2597  -3.2156  -3.1553  -3.0944  -3.0607  -3.0187  -2.9570
    -2.8683  -2.8400  -2.6702  -2.6079  -2.5776  -2.5613  -2.4775  -2.4359
    -2.3746  -2.3140  -2.2865  -2.2129  -2.2072  -2.1941  -2.1889  -2.0841
    -2.0660  -2.0477  -2.0267  -1.9911  -1.9629  -1.9073  -1.8751  -1.8583
    -1.7712  -1.7108  -1.6647  -1.6497  -1.6041  -1.5718  -1.5427  -1.4544
    -1.3593  -1.3128  -1.2633  -1.1559  -1.1143  -1.0038  -0.9609  -0.9589
    -0.8897  -0.8593  -0.8370  -0.7812  -0.7257  -0.7147  -0.6411  -0.6091
    -0.5818  -0.5213  -0.5009  -0.4844  -0.3528  -0.2168  -0.1028   0.1362
     0.2666   0.3282   0.3998   0.4445   0.5626   0.7116   1.1018   1.2276
     1.4204   1.4443   1.4515   1.5701   1.5966   1.7473   1.7979   1.8360
     1.9545   2.0098   2.0651   2.1586   2.2083   2.2326   2.3327   2.4188
     2.4461   2.5081   2.5459   2.7343   4.8693   5.9145   5.9845   6.2863
     6.6639   6.6676   7.1159   7.5628   7.7329   7.9948   8.0731   8.2186
     8.3098   8.3559   8.4503   8.5823   8.6818   8.9285   9.0153   9.1551
     9.4081   9.5486   9.6423   9.8486   9.9313  10.0769  10.2200  10.2643
    10.3585  10.3841  10.4402  10.5263  10.6286  10.7480  10.7757  10.8269
    10.9613  11.0337  11.0998  11.1758  11.3489  11.3904  11.4312  11.4344
    11.5305  11.6184  11.6895  11.7598  11.8918  11.9587  12.0119  12.0946
    12.1422  12.1558  12.2946  12.3305  12.5249  12.5983  12.6417  12.7314
    12.7648  12.7925  12.8859  12.9086  12.9930  13.0342  13.0722  13.1382
    13.2258  13.3216  13.3341  13.3827  13.4287  13.5308  13.5688  13.6199
    13.7300  13.7436  13.8241  13.8897  13.9739  14.0546  14.0990  14.1445
    14.1951  14.2061  14.2878  14.3365  14.3729  14.4161  14.4566  14.4802
    14.5459  14.5889  14.6391  14.6687  14.6792  14.7175  14.8061  14.8550
    14.8880  14.8972  14.9504  14.9784  15.0346  15.0822  15.1624  15.1999
    15.2244  15.2512  15.2701  15.3337  15.3791  15.4321  15.4625  15.4822
    15.5350  15.6392  15.6583  15.7003  15.7487  15.8686  15.9124  15.9425
    15.9876  15.9913  16.1334  16.1776  16.2128  16.2594  16.2695  16.3216
    16.3457  16.3643  16.3885  16.4234  16.4696  16.5498  16.6123  16.6741
    16.7117  16.7574  16.7928  16.8867  16.9254  16.9618  17.0475  17.1234
    17.2292  17.3385  17.3969  17.4360  17.4807  17.5234  17.5425  17.6156
    17.6836  17.8099  17.8495  17.9244  17.9427  18.0086  18.0520  18.1117
    18.1398  18.1952  18.2265  18.2340  18.2657  18.3263  18.3795  18.4344
    18.4873  18.5622  18.6039  18.6233  18.6719  18.7364  18.8059  18.9250
    18.9747  19.0063  19.0623  19.1321  19.1794  19.2494  19.3101  19.4361
    19.4960  19.5232  19.6137  19.6541  19.6849  19.7437  19.7796  19.8485
    19.8910  19.9363  19.9796  20.0288  20.1465  20.1605  20.2259  20.2503
    20.2557  20.2869  20.3172  20.3960  20.5263  20.5572  20.7100  20.7372
    20.7594  20.7821  20.7985  20.8402  20.9038  20.9918  20.9979  21.1098
    21.1423  21.1575  21.2845  21.3601  21.3947  21.4137  21.4406  21.4646
    21.5485  21.6158  21.6896  21.7774  21.7983  21.8298  21.8491  21.9247
    21.9394  21.9776  21.9988  22.0477  22.0806  22.1088  22.2252  22.2720
    22.4154  22.4792  22.5132  22.6161  22.6377  22.6919  22.8089  22.8276
    22.8686  22.9125  22.9775  23.0009  23.0575  23.1387  23.1839  23.2073
    23.2822  23.3525  23.4161  23.4559  23.5455  23.5976  23.6369  23.7415
    23.8188  23.9039  23.9979  24.0549  24.0767  24.1455  24.2003  24.2409
    24.2546  24.3473  24.4077  24.4180  24.4700  24.5852  24.6330  24.6747
    24.7927  24.8150  24.8566  24.9245  24.9545  24.9948  25.0552  25.0644
    25.1139  25.2179  25.2491  25.2777  25.3151  25.3584  25.4004  25.4644
    25.4906  25.5047  25.5375  25.6043  25.6656  25.6772  25.7418  25.7591
    25.7745  25.7933  25.8212  25.8359  25.8965  25.9075  25.9541  25.9920
    26.0532  26.0723  26.1005  26.1445  26.1966  26.2000  26.3223  26.3710
    26.3982  26.4193  26.4547  26.5282  26.5778  26.6174  26.6323  26.6983
    26.7429  26.7990  26.8947  26.9615  26.9816  27.0277  27.0701  27.0955
    27.1257  27.1829  27.2465  27.3052  27.3788  27.4279  27.4556  27.4826
    27.6047  27.6520  27.6753  27.7189  27.7559  27.7888  27.8566  27.8615
    27.9380

          k = 0.2500-0.4606 0.0000 ( 36102 PWs)   bands (ev):

   -82.8267 -82.7668 -82.6615 -82.6539 -82.6343 -82.6129 -82.5844 -82.5766
   -82.5480 -82.5408 -82.5279 -82.5196 -82.2699 -82.2693 -82.2627 -82.2619
   -51.5813 -51.5093 -51.5060 -51.4905 -51.4814 -51.4472 -51.4243 -51.4139
   -51.4097 -51.3947 -51.3670 -51.3596 -51.3456 -51.3208 -51.3104 -51.3068
   -51.3028 -51.2967 -51.2928 -51.2802 -51.2772 -51.2647 -51.2573 -51.2429
   -51.2141 -51.1988 -51.1852 -51.1779 -51.1615 -51.1568 -51.1548 -51.1509
   -51.1435 -51.1405 -51.1309 -51.1303 -51.0120 -51.0007 -50.9940 -50.9922
   -50.9844 -50.9778 -50.9239 -50.9070 -50.8744 -50.8688 -50.8609 -50.8552
   -19.9950 -19.9554 -19.8072 -19.7135 -19.5386 -19.3754 -19.2764 -19.2522
   -19.2203 -19.2067 -19.1677 -19.0690 -19.0253 -18.9542 -18.8974 -18.8744
   -18.7770 -18.7769 -18.6200 -18.6100 -18.5933 -18.5526 -18.5009 -18.4314
   -18.3887 -18.3397 -18.3116 -18.2677 -18.1152 -17.8560 -17.7560 -17.4201
   -17.3680  -7.8500  -7.7931  -7.6167  -7.5688  -7.5254  -7.4939  -7.4787
    -7.4364  -7.4150  -7.3936  -7.2283  -7.1706  -7.1692  -7.1008  -7.0715
    -6.9888  -6.9597  -6.9495  -6.8804  -6.7903  -6.7878  -6.7639  -6.7498
    -6.7495  -6.7005  -6.6964  -6.6406  -6.6306  -6.5847  -6.4431  -6.2910
    -6.1300  -6.1195  -6.0700  -6.0416  -6.0134  -5.9655  -5.8287  -5.7672
    -5.7485  -5.6907  -5.6231  -5.6112  -5.5850  -5.4648  -5.4328  -5.3737
    -5.3610  -5.3425  -5.3208  -5.2855  -5.2422  -5.1484  -5.1078  -5.1054
    -5.0267  -4.9250  -4.9170  -4.9053  -4.9033  -4.7849  -4.7712  -4.7536
    -4.7146  -4.6312  -4.6277  -4.5265  -4.4580  -4.4389  -4.3820  -4.3650
    -4.3140  -4.2294  -4.2184  -4.1293  -4.0183  -4.0031  -3.8833  -3.8136
    -3.7534  -3.6864  -3.5705  -3.5416  -3.4946  -3.3848  -3.3552  -3.3037
    -3.2403  -3.1060  -3.0941  -3.0610  -3.0207  -3.0035  -2.9732  -2.9584
    -2.9269  -2.7799  -2.6051  -2.5310  -2.5111  -2.4297  -2.3827  -2.3471
    -2.3281  -2.2929  -2.2694  -2.2363  -2.2140  -2.1875  -2.1680  -2.1251
    -2.0878  -2.0736  -1.9393  -1.9099  -1.9012  -1.8762  -1.8391  -1.8288
    -1.7648  -1.6666  -1.6548  -1.6079  -1.5934  -1.5651  -1.5163  -1.4725
    -1.3849  -1.3596  -1.2681  -1.2382  -1.1503  -1.1151  -1.0316  -1.0060
    -0.9430  -0.9202  -0.8425  -0.7899  -0.6975  -0.6626  -0.6284  -0.6165
    -0.5758  -0.5604  -0.5361  -0.4275  -0.3278  -0.2662  -0.1174  -0.1062
    -0.0518  -0.0319   0.0158   0.4451   0.5453   1.0015   1.1314   1.2291
     1.2532   1.2923   1.3751   1.4405   1.5853   1.7980   1.8214   1.8946
     2.0755   2.2279   2.2491   2.2681   2.2920   2.4458   2.4711   2.5183
     2.5624   2.7632   2.7841   2.8834   5.0832   6.4425   6.5241   6.6592
     6.7540   6.8451   6.8578   7.1164   7.1842   7.5461   7.6164   8.0918
     8.1375   8.7056   8.7193   8.7978   8.9514   9.0319   9.0830   9.1851
     9.1921   9.3435   9.3437   9.3957   9.5127   9.6213   9.7385   9.9577
     9.9684  10.1480  10.1837  10.2030  10.3291  10.5194  10.5976  10.8380
    10.8568  10.9187  10.9320  11.0704  11.1695  11.2270  11.3722  11.4687
    11.5410  11.7405  11.7620  11.8140  11.9426  12.0112  12.1799  12.1969
    12.3062  12.4062  12.6849  12.6960  12.7695  12.8527  12.8754  12.9250
    13.0248  13.1315  13.2875  13.3692  13.4196  13.4536  13.4625  13.4634
    13.6286  13.6324  13.6987  13.7331  13.7397  13.7677  13.9667  13.9724
    14.0198  14.0559  14.1118  14.1745  14.1804  14.2755  14.2840  14.3565
    14.4028  14.4217  14.5134  14.5319  14.5623  14.6000  14.6430  14.6935
    14.7509  14.7866  14.8160  14.8230  14.8998  14.9282  14.9477  14.9804
    14.9915  15.0459  15.0962  15.1352  15.1694  15.2100  15.2213  15.2621
    15.2759  15.3509  15.4219  15.4644  15.4674  15.4722  15.5797  15.6017
    15.6144  15.6488  15.6850  15.7028  15.7455  15.7750  15.8339  15.9414
    15.9963  16.1017  16.1375  16.1944  16.2331  16.2590  16.3148  16.3722
    16.4245  16.4298  16.4341  16.4497  16.4600  16.4906  16.5062  16.6766
    16.6921  16.7130  16.7868  16.8296  16.8529  16.8851  16.9047  17.0092
    17.0234  17.0994  17.1268  17.1492  17.1798  17.2093  17.2891  17.3118
    17.3969  17.4104  17.4880  17.5312  17.5567  17.5882  17.6151  17.6422
    17.6760  17.7470  17.8545  17.9811  18.0329  18.0798  18.1072  18.1411
    18.2262  18.2685  18.3418  18.5086  18.5760  18.7106  18.7306  18.7506
    18.7811  18.9054  18.9127  18.9814  19.0037  19.1584  19.1753  19.1854
    19.3147  19.3395  19.3863  19.4619  19.5333  19.6492  19.6555  19.7259
    19.7802  19.7880  19.8196  20.0514  20.0668  20.1506  20.1535  20.2449
    20.2576  20.2602  20.4160  20.4473  20.4514  20.5432  20.5627  20.5943
    20.7035  20.7175  20.7882  20.8369  20.8512  20.8824  20.8872  21.0755
    21.0815  21.1151  21.1558  21.2001  21.2490  21.3003  21.3134  21.4601
    21.4773  21.5657  21.5684  21.6342  21.6505  21.6944  21.7387  21.8392
    21.8544  21.9271  21.9320  22.0045  22.0286  22.0912  22.1464  22.2499
    22.2657  22.2881  22.3834  22.4454  22.4970  22.4996  22.5502  22.5856
    22.5894  22.6481  22.7254  22.8175  22.8203  22.9270  22.9795  22.9996
    23.0359  23.1206  23.1940  23.2336  23.4256  23.4687  23.6239  23.6808
    23.7034  23.7666  23.7950  23.7962  23.8483  23.8862  23.9248  24.0023
    24.0372  24.0375  24.0914  24.1131  24.1325  24.1330  24.3324  24.3929
    24.4922  24.5938  24.6722  24.6984  24.7466  24.8079  24.8483  24.8855
    24.9297  25.0087  25.0313  25.0655  25.0995  25.1334  25.1882  25.2087
    25.2201  25.2215  25.3134  25.4437  25.4606  25.4974  25.6118  25.6576
    25.6771  25.7410  25.7889  25.8649  25.9454  26.0058  26.0417  26.1231
    26.1357  26.2389  26.2820  26.3153  26.4747  26.5675  26.5911  26.6198
    26.7013  26.7248  26.8406  26.8689  26.8888  26.9377  26.9715  26.9904
    27.1531  27.1830  27.2367  27.2460  27.2967  27.3239  27.3614  27.4101
    27.4679  27.5274  27.6892  27.7636  27.8645  27.8683  27.9191  28.0087
    28.0287  28.0837  28.0975  28.1091  28.1649  28.1741  28.2168  28.2578
    28.3172

          k =-0.5000 0.0000 0.0000 ( 36178 PWs)   bands (ev):

   -82.8266 -82.7670 -82.6588 -82.6567 -82.6337 -82.6135 -82.5818 -82.5792
   -82.5444 -82.5444 -82.5257 -82.5218 -82.2663 -82.2663 -82.2659 -82.2653
   -51.5628 -51.5286 -51.5060 -51.4901 -51.4390 -51.4371 -51.4238 -51.4145
   -51.4127 -51.3941 -51.3687 -51.3618 -51.3243 -51.3242 -51.3198 -51.3071
   -51.3048 -51.3012 -51.2995 -51.2946 -51.2877 -51.2819 -51.2538 -51.2499
   -51.2138 -51.1921 -51.1920 -51.1780 -51.1575 -51.1574 -51.1507 -51.1476
   -51.1450 -51.1393 -51.1390 -51.1320 -50.9972 -50.9972 -50.9813 -50.9808
   -50.9707 -50.9656 -50.9498 -50.9498 -50.8677 -50.8677 -50.8626 -50.8613
   -20.0108 -20.0013 -19.8508 -19.8046 -19.6491 -19.6107 -19.4389 -19.4212
   -19.1030 -19.0970 -19.0118 -18.8281 -18.7612 -18.7611 -18.7149 -18.6848
   -18.6694 -18.6685 -18.6430 -18.6406 -18.5745 -18.5744 -18.5274 -18.4677
   -18.4544 -18.4234 -18.4177 -18.3280 -18.1903 -17.8559 -17.8113 -17.4212
   -17.4203  -7.9201  -7.9201  -7.8933  -7.8925  -7.8861  -7.8651  -7.8350
    -7.8261  -7.4289  -7.3935  -7.3333  -7.2826  -7.2802  -7.2801  -7.1763
    -7.1718  -7.0739  -7.0660  -7.0584  -7.0136  -6.8776  -6.8772  -6.8651
    -6.8575  -6.7705  -6.7632  -6.5619  -6.5563  -6.4079  -6.3974  -6.1238
    -6.1145  -6.0147  -5.9636  -5.9191  -5.8961  -5.8915  -5.8618  -5.7215
    -5.6007  -5.5904  -5.5402  -5.4968  -5.4655  -5.4375  -5.3380  -5.3248
    -5.2790  -5.2153  -5.2013  -5.1259  -5.1227  -5.0686  -5.0328  -4.9573
    -4.8709  -4.7551  -4.7399  -4.5886  -4.5793  -4.5222  -4.4222  -4.3909
    -4.3871  -4.3711  -4.3575  -4.3196  -4.3118  -4.2868  -4.2233  -4.2048
    -4.1780  -4.1687  -4.1455  -4.0662  -4.0135  -3.9930  -3.9752  -3.9108
    -3.8527  -3.7578  -3.7364  -3.7044  -3.6600  -3.6169  -3.4898  -3.4072
    -3.3847  -3.3783  -3.2080  -3.1091  -3.0891  -3.0383  -3.0067  -2.9913
    -2.9296  -2.9220  -2.8487  -2.6735  -2.6454  -2.5940  -2.5842  -2.5413
    -2.5400  -2.4834  -2.4709  -2.2924  -2.2875  -2.0833  -2.0122  -1.9935
    -1.9624  -1.9325  -1.9219  -1.8908  -1.8733  -1.8388  -1.8332  -1.7821
    -1.7804  -1.6971  -1.6082  -1.3334  -1.2293  -1.1966  -1.1953  -1.1535
    -1.1365  -1.1350  -1.0863  -1.0424  -0.9887  -0.9883  -0.9465  -0.9457
    -0.9150  -0.9051  -0.8823  -0.8743  -0.8022  -0.7869  -0.7626  -0.7546
    -0.7536  -0.7181  -0.7061  -0.3706  -0.3601  -0.2511  -0.2269   0.4234
     0.4807   0.8366   0.9278   0.9938   1.1135   1.2472   1.2812   1.2914
     1.3060   1.3683   1.3693   1.3702   1.4275   1.4331   1.4375   1.5546
     1.5776   1.5920   1.6134   1.6391   1.7437   1.8493   1.8722   1.9282
     2.3271   2.3489   2.4857   2.4950   5.4933   5.4936   6.4026   6.5625
     6.5727   6.7485   6.8850   7.0342   7.2726   7.4658   7.7499   8.0095
     8.2956   8.6225   8.8999   9.1124   9.1509   9.4671   9.6917   9.7046
     9.7060   9.8254   9.8263   9.9643  10.3383  10.3484  10.3694  10.4879
    10.5316  10.5659  10.6004  10.6122  10.6406  10.7058  10.8387  10.8751
    10.9336  10.9519  10.9686  11.2341  11.2410  11.2508  11.2950  11.3590
    11.5381  11.6053  11.6230  11.7612  11.7897  11.7963  11.8874  11.9314
    12.1723  12.2621  12.2729  12.2758  12.3733  12.3824  12.4138  12.4747
    12.5468  12.6033  12.6113  12.6472  12.7146  12.7753  12.7780  12.8354
    12.8601  12.9093  13.0308  13.1249  13.1336  13.1620  13.3098  13.3934
    13.5885  13.6454  13.7054  13.7709  13.8512  13.8590  13.9372  13.9716
    14.0437  14.0678  14.1235  14.1302  14.1670  14.2920  14.4199  14.4899
    14.5052  14.5457  14.5899  14.6284  14.6331  14.6639  14.7498  14.7900
    14.8291  14.8827  14.9311  15.0461  15.0970  15.3988  15.4149  15.5036
    15.5054  15.5409  15.5700  15.6126  15.7193  15.7281  15.8316  15.8945
    15.9055  15.9174  15.9714  16.0091  16.0953  16.1086  16.1455  16.1637
    16.2453  16.3002  16.3259  16.3441  16.3604  16.3830  16.3907  16.3988
    16.4030  16.4217  16.4777  16.5928  16.6630  16.6889  16.6916  16.6938
    16.7122  16.7126  16.8258  16.8551  16.8988  16.9631  16.9705  16.9932
    17.0341  17.0417  17.1029  17.1308  17.2888  17.4101  17.4892  17.5477
    17.5929  17.6822  17.7521  17.8220  18.0111  18.0297  18.1072  18.2085
    18.2820  18.3148  18.3878  18.4494  18.4747  18.5947  18.7798  18.8666
    18.9421  18.9535  19.0132  19.0213  19.0664  19.1520  19.2788  19.4171
    19.4859  19.5776  19.6109  19.6239  19.6742  19.7009  19.7369  19.7396
    19.7619  19.8137  19.8215  19.8292  19.8701  19.9104  19.9108  20.0514
    20.1770  20.1919  20.2359  20.2456  20.2587  20.2597  20.2812  20.2957
    20.3230  20.4459  20.5006  20.5144  20.6844  20.7749  20.8483  20.8579
    20.9251  20.9476  21.0185  21.0384  21.0434  21.0691  21.1010  21.1750
    21.2464  21.2486  21.3022  21.3420  21.4465  21.4498  21.6062  21.8093
    21.8174  21.8501  21.9145  22.0499  22.0682  22.0686  22.0856  22.1905
    22.2217  22.2598  22.3225  22.3350  22.3817  22.4068  22.4250  22.5378
    22.5461  22.5813  22.5890  22.6575  22.6748  22.6753  22.7593  22.7761
    22.8176  22.8246  22.8537  22.8776  22.9036  22.9176  23.0536  23.0547
    23.0633  23.0994  23.0997  23.1222  23.1300  23.1855  23.2556  23.2694
    23.3101  23.3266  23.4229  23.4330  23.5241  23.5517  23.6180  23.6266
    23.6409  23.6906  23.7160  23.7395  23.8454  23.8815  24.0518  24.0777
    24.2616  24.2734  24.2940  24.3198  24.3635  24.3811  24.3826  24.3901
    24.4013  24.4489  24.4942  24.5289  24.5679  24.5692  24.6123  24.6352
    24.7374  24.7792  24.7956  24.8132  24.9215  24.9808  25.1289  25.1602
    25.1684  25.1924  25.2732  25.3320  25.3391  25.3866  25.4070  25.4817
    25.5049  25.5407  25.5959  25.6964  25.7260  25.7785  25.7998  25.8543
    25.8550  25.8681  26.0528  26.0700  26.1871  26.2233  26.2282  26.3987
    26.4029  26.4887  26.5062  26.5663  26.5973  26.6284  26.6363  26.6604
    26.6688  26.8614  26.8861  26.9435  26.9844  27.0040  27.0561  27.0623
    27.1185  27.2848  27.3179  27.4849  27.5322  27.5844  27.6429  27.6893
    27.6903

          k =-0.5000 0.2303 0.0000 ( 36078 PWs)   bands (ev):

   -82.8266 -82.7670 -82.6588 -82.6567 -82.6337 -82.6135 -82.5818 -82.5792
   -82.5444 -82.5444 -82.5257 -82.5218 -82.2663 -82.2663 -82.2659 -82.2653
   -51.5627 -51.5286 -51.5058 -51.4901 -51.4391 -51.4371 -51.4238 -51.4143
   -51.4127 -51.3941 -51.3687 -51.3618 -51.3244 -51.3244 -51.3199 -51.3071
   -51.3048 -51.3009 -51.2992 -51.2937 -51.2879 -51.2811 -51.2530 -51.2490
   -51.2138 -51.1920 -51.1920 -51.1780 -51.1578 -51.1577 -51.1506 -51.1480
   -51.1453 -51.1393 -51.1389 -51.1320 -50.9972 -50.9972 -50.9812 -50.9808
   -50.9707 -50.9655 -50.9497 -50.9497 -50.8677 -50.8677 -50.8626 -50.8613
   -19.9063 -19.8980 -19.7581 -19.7051 -19.5567 -19.5167 -19.3466 -19.3341
   -19.2699 -19.2622 -19.1376 -19.0266 -18.8921 -18.8560 -18.8410 -18.8044
   -18.6980 -18.6705 -18.6493 -18.6192 -18.6100 -18.6059 -18.4996 -18.4067
   -18.4059 -18.3829 -18.3771 -18.3018 -18.1749 -17.8500 -17.8024 -17.4163
   -17.4154  -7.6505  -7.6475  -7.6282  -7.6033  -7.6031  -7.5823  -7.5631
    -7.5329  -7.4110  -7.3932  -7.2903  -7.2443  -7.1761  -7.1752  -7.0886
    -7.0862  -7.0549  -7.0475  -7.0021  -6.9650  -6.9044  -6.8869  -6.8591
    -6.8491  -6.8143  -6.7757  -6.7168  -6.7162  -6.2010  -6.1865  -6.1292
    -6.1014  -6.0260  -6.0236  -5.9532  -5.9287  -5.8690  -5.8526  -5.7884
    -5.7827  -5.7155  -5.6955  -5.6849  -5.6647  -5.5229  -5.5162  -5.3840
    -5.3250  -5.3139  -5.2527  -5.2114  -5.2013  -5.0930  -5.0577  -4.9446
[...]
    -2.3255  -2.3213  -2.2896  -2.2553  -2.1488  -2.1428  -1.9130  -1.8485
    -1.6309  -1.6115  -1.4811  -1.4527  -0.2882   0.0386   0.0452   0.1387
     0.2206   0.2253   0.4018   0.4228   0.4473   0.4620   0.4939   0.5266
     0.5330   0.5653   0.5705   0.6170   0.6828   0.6968   0.7024   0.7431
     0.7443   0.7529   0.7923   0.7984   0.8627   0.8761   0.9303   0.9536
     1.0396   1.0559   1.1264   1.1280   1.1580   1.1598   1.2106   1.2383
     1.2383   1.3070   1.3490   1.3549   1.4133   1.4191   1.4723   1.4911
     1.5911   1.5972   1.7076   1.7424   1.8646   1.8898   1.9429   1.9467
     2.3503   2.3904   2.4369   2.4960   2.5785   2.5940   2.6004   2.6581
     2.6744   2.6752   2.6938   2.7135   3.1121   3.2043   3.2223   3.2434
     3.2763   3.3902   3.4074   3.4359   3.6103   3.6681   3.7716   3.8018
     3.9242   3.9512   4.1430   4.1474   6.1061   6.1073   6.7641   6.8376
     6.8641   7.0288   7.1850   7.3301   7.5827   7.7637   8.0460   8.2731
     8.4713   8.6136   8.6631   8.8690   8.8990   8.9484   8.9742   9.1261
     9.3347   9.3816   9.4310   9.5853   9.6961   9.8956   9.9061   9.9723
    10.1203  10.3384  10.4644  10.5545  10.6277  10.7452  10.8370  11.0142
    11.1659  11.3387  11.3426  11.4424  11.4528  11.5831  11.6668  11.6815
    11.9586  12.0710  12.1163  12.2897  12.3554  12.4338  12.5328  12.6014
    12.7326  12.7589  12.8111  12.8424  12.8630  12.9597  13.0174  13.0416
    13.1078  13.2207  13.2698  13.2796  13.4654  13.5068  13.5229  13.5642
    13.5824  13.6996  13.7325  13.7926  13.8823  13.8837  14.0129  14.0343
    14.2198  14.2413  14.2677  14.3008  14.3193  14.3980  14.4633  14.5108
    14.5177  14.5682  14.7406  14.7513  14.7535  14.8146  14.9204  14.9323
    14.9843  14.9930  15.0164  15.0325  15.1451  15.1984  15.2105  15.2368
    15.4845  15.5243  15.5356  15.6478  15.7367  15.8697  15.8795  15.9192
    15.9221  15.9960  16.0714  16.0979  16.1242  16.1568  16.1687  16.2286
    16.2818  16.3097  16.3450  16.3748  16.4392  16.4842  16.5328  16.5431
    16.5791  16.6026  16.6151  16.6505  16.7213  16.7517  16.7688  16.8646
    16.9872  16.9993  17.0335  17.0844  17.1095  17.1491  17.1555  17.1880
    17.2661  17.2875  17.4061  17.4320  17.4645  17.4905  17.5143  17.5361
    17.5801  17.5813  17.6312  17.6461  17.6860  17.7024  17.7694  17.8774
    17.9153  18.0181  18.1170  18.1177  18.1817  18.2161  18.2505  18.2762
    18.3439  18.3533  18.4214  18.4674  18.4868  18.5630  18.5743  18.6353
    18.6750  18.7072  18.7607  18.7683  18.8098  18.9552  18.9606  19.0134
    19.0449  19.0868  19.1104  19.1116  19.2641  19.3319  19.3329  19.3630
    19.4398  19.4887  19.5230  19.5524  19.6049  19.6102  19.6645  19.6980
    19.7276  19.7535  19.7976  19.9672  19.9804  20.0333  20.1555  20.1590
    20.2123  20.2190  20.3028  20.4279  20.4327  20.5295  20.5380  20.5992
    20.6142  20.6858  20.7970  20.8339  20.8886  20.9075  20.9676  20.9753
    21.0339  21.2003  21.2826  21.3537  21.3802  21.5206  21.5410  21.5763
    21.5931  21.7051  21.8122  21.9025  21.9234  22.0003  22.0099  22.0578
    22.1005  22.1936  22.2645  22.3287  22.3332  22.3992  22.4068  22.4444
    22.4733  22.4891  22.5064  22.7085  22.7386  22.8799  22.9046  22.9934
    23.0034  23.0441  23.0527  23.1211  23.1664  23.1762  23.2151  23.2204
    23.3430  23.3694  23.3744  23.7200  23.7205  23.8327  23.8533  23.9244
    23.9259  23.9717  24.0079  24.0328  24.1168  24.1546  24.1613  24.2502
    24.2678  24.4003  24.4723  24.4821  24.5529  24.7046  24.7119  24.7839
    24.8228  24.8999  25.0336  25.0404  25.1009  25.1227  25.1646  25.1655
    25.2375  25.2685  25.3152  25.3223  25.4279  25.4310  25.4540  25.5311
    25.5368  25.6122  25.6535  25.7558  25.7618  25.8644  25.8731  25.9534
    26.0101  26.0640  26.1194  26.1383  26.1929  26.1983  26.2625  26.3369
    26.3582  26.4305  26.4965  26.4976  26.5449  26.5576  26.6154  26.6302
    26.6856  26.6961  26.7993  26.8002  26.8576  26.8609  26.9205  26.9266
    26.9427  27.0386  27.0643  27.0993  27.1062  27.1944  27.2010  27.2154
    27.2955  27.3662  27.4178  27.4692  27.4931  27.6106  27.6711  27.6951
    27.7405  27.7959  27.8458  27.8602  27.9009  27.9588  27.9984  28.0161
    28.0337

          k =-0.5000-0.4606 0.0000 ( 36040 PWs)   bands (ev):

   -80.6969 -79.3495 -79.3322 -79.3197 -79.2797 -79.2705 -79.2657 -79.2612
   -79.2089 -79.2089 -79.1906 -79.1906 -79.1409 -79.1403 -78.9883 -78.9844
   -49.8547 -49.3214 -49.2253 -48.3276 -48.2148 -48.1929 -48.1907 -48.1824
   -48.1640 -48.1227 -48.1100 -48.1075 -48.0813 -48.0812 -48.0810 -48.0789
   -48.0767 -48.0618 -48.0564 -48.0564 -48.0469 -48.0418 -48.0418 -48.0409
   -48.0257 -48.0126 -48.0084 -48.0072 -48.0039 -47.9944 -47.9910 -47.9874
   -47.9630 -47.9629 -47.9331 -47.9327 -47.9286 -47.9283 -47.9219 -47.9209
   -47.8306 -47.8306 -47.8099 -47.8070 -47.7429 -47.7408 -47.5666 -47.5616
   -19.5335 -19.4840 -19.4838 -19.4617 -19.3953 -19.3445 -19.2108 -19.1985
   -19.1797 -19.1038 -19.0146 -18.9970 -18.9101 -18.9084 -18.9001 -18.8346
   -18.5414 -18.5091 -18.5071 -18.4220 -18.4208 -18.4133 -18.2730 -18.2284
   -18.2157 -18.1858 -18.1796 -18.0995 -17.9445 -17.6759 -17.6331 -17.2752
   -17.2706  -6.9854  -6.9395  -6.9311  -6.8446  -6.7393  -6.6630  -6.5843
    -6.5651  -6.5266  -6.4650  -6.4599  -6.4411  -6.4391  -6.4166  -6.3974
    -6.3534  -6.3204  -6.2573  -6.2465  -6.2413  -6.2026  -6.1364  -6.1253
    -6.1249  -6.1145  -6.0887  -6.0514  -5.9665  -5.8628  -5.7173  -5.6739
    -5.6710  -5.5937  -5.5860  -5.5806  -5.5157  -5.4533  -5.4213  -5.3975
    -5.3284  -5.1852  -5.1472  -5.0082  -4.9001  -4.8235  -4.8103  -4.7568
    -4.7477  -4.7323  -4.7300  -4.6890  -4.6843  -4.6150  -4.5514  -4.5173
    -4.4983  -4.4069  -4.3749  -4.2597  -4.2444  -4.1982  -4.1480  -4.1067
    -4.0310  -3.9983  -3.9645  -3.9583  -3.9304  -3.8456  -3.8358  -3.6149
    -3.5417  -3.4369  -3.3182  -3.2729  -3.2152  -3.1399  -3.0594  -2.9126
    -2.7043  -2.5742  -2.4951  -2.4855  -2.4110  -2.3762  -2.3617  -2.3212
    -2.2738  -2.1359  -2.0934  -2.0768  -1.9727  -1.8694  -1.8391  -1.8203
    -1.7135  -1.7094  -1.6961  -1.6871  -0.1886   0.1329   0.2074   0.2110
     0.2142   0.2578   0.2739   0.3432   0.4290   0.4716   0.4750   0.4841
     0.5084   0.5279   0.5642   0.6811   0.6991   0.7745   0.8057   0.8168
     0.8784   0.9378   0.9507   0.9587   0.9659   1.0541   1.0878   1.0963
     1.1085   1.1469   1.1618   1.1638   1.1904   1.2058   1.2387   1.2632
     1.2883   1.3396   1.3471   1.3476   1.3718   1.4344   1.4501   1.4543
     1.4925   1.5720   1.5983   1.6145   1.6221   1.9461   2.0162   2.0193
     2.1613   2.1630   2.1777   2.1846   2.2750   2.2752   2.3393   2.4583
     2.5737   2.5877   2.6577   2.6965   3.1504   3.2412   3.2503   3.2607
     3.4166   3.4652   3.5247   3.6205   3.7652   3.8408   3.9624   4.0183
     4.0912   4.1002   4.1655   4.1712   6.3209   6.3216   7.1679   7.4179
     7.4183   7.5537   7.5580   7.6830   7.7174   7.7402   7.7533   7.8993
     8.0019   8.0478   8.0734   8.2857   8.4436   8.5011   8.5273   8.7946
     9.0050   9.0797   9.0801   9.3858   9.6570   9.6913   9.7600   9.9270
    10.2596  10.2845  10.4218  10.4339  10.4633  10.5330  10.5927  10.6987
    11.0737  11.1234  11.1414  11.2253  11.2948  11.3214  11.4148  11.5059
    11.9856  11.9943  12.0202  12.2029  12.2264  12.2272  12.3121  12.4625
    12.9621  12.9795  12.9863  13.0031  13.3449  13.3731  13.4296  13.4863
    13.7982  13.8153  13.8292  13.8997  14.0816  14.3017  14.3059  14.3152
    14.3330  14.3811  14.4814  14.5106  14.5253  14.5650  14.6170  14.6301
    14.6402  14.7020  14.7411  14.8291  14.9623  14.9759  14.9828  14.9859
    15.0339  15.0766  15.1155  15.1376  15.1812  15.2030  15.2039  15.2242
    15.2532  15.3407  15.4652  15.4654  15.4717  15.4734  15.5418  15.5491
    15.5554  15.5905  15.6696  15.6870  15.7059  15.7535  15.8933  15.9005
    15.9543  15.9621  16.0042  16.0560  16.0601  16.1301  16.1761  16.1821
    16.2063  16.3095  16.3214  16.4024  16.4385  16.4503  16.5278  16.5634
    16.6189  16.6466  16.6545  16.6697  16.7274  16.7661  16.7800  16.8072
    16.8337  16.8738  16.8799  16.8916  16.9293  16.9571  16.9600  16.9842
    17.0591  17.0598  17.0956  17.0979  17.1737  17.2173  17.2418  17.2673
    17.3572  17.3680  17.3755  17.4117  17.5556  17.5766  17.5880  17.5978
    17.6134  17.6277  17.6583  17.7094  17.7244  17.7511  17.7762  17.8342
    17.9343  17.9732  18.0360  18.0828  18.1377  18.1492  18.1710  18.1862
    18.2676  18.3147  18.3439  18.3494  18.4310  18.4407  18.5486  18.5595
    18.5761  18.6610  18.6869  18.7808  18.8323  18.8947  18.9129  18.9866
    19.0212  19.0567  19.0741  19.1141  19.1295  19.1559  19.1806  19.2602
    19.3630  19.4867  19.5212  19.5432  19.7192  19.7232  19.7679  19.7763
    19.8549  19.8986  19.9142  20.0765  20.1044  20.1737  20.1866  20.2148
    20.2632  20.2639  20.3148  20.4370  20.5151  20.5752  20.6738  20.7140
    20.8068  20.8282  20.8702  21.0801  21.1106  21.2370  21.2886  21.3935
    21.4095  21.4450  21.5374  21.7880  21.8260  21.8278  21.8684  22.0048
    22.0252  22.0442  22.1154  22.1591  22.1865  22.2855  22.3037  22.4376
    22.4440  22.5602  22.6259  23.1089  23.1643  23.1834  23.1986  23.2639
    23.3032  23.3238  23.3317  23.5090  23.5150  23.5426  23.6516  23.6698
    23.8542  23.9216  23.9602  24.0368  24.2236  24.2415  24.3144  24.4542
    24.4695  24.5517  24.5788  24.6082  24.6153  24.6401  24.7400  24.8045
    24.8458  24.8522  24.8537  24.8953  24.9056  24.9116  24.9757  24.9825
    25.0634  25.0814  25.1046  25.1082  25.1724  25.1972  25.2143  25.2197
    25.4723  25.4737  25.4843  25.5248  25.6143  25.6242  25.6518  25.6722
    25.6750  25.6818  25.6820  25.9194  25.9318  26.0086  26.0161  26.0465
    26.0504  26.1033  26.1142  26.1336  26.1648  26.1880  26.2740  26.2783
    26.3397  26.3561  26.3576  26.4086  26.4257  26.4549  26.4697  26.5437
    26.5635  26.5998  26.6516  26.6517  26.6544  26.7129  26.7392  26.8205
    26.8603  26.9001  26.9111  26.9144  26.9479  27.0575  27.0950  27.2359
    27.2476  27.2549  27.2754  27.3326  27.4467  27.5656  27.5950  27.6230
    27.7405  27.7535  27.7586  27.7768  27.8279  27.8305  27.8462  27.9170
    27.9203

     the spin up/dw Fermi energies are    -0.5027   -0.7583 ev

!    total energy              =   -4471.49559641 Ry
     Harris-Foulkes estimate   =   -4471.49559640 Ry
     estimated scf accuracy    <          7.1E-09 Ry

     The total energy is the sum of the following terms:

     one-electron contribution =  -92008.49711760 Ry
     hartree contribution      =   46048.72900776 Ry
     xc contribution           =    -654.79077717 Ry
     ewald contribution        =   42143.06404614 Ry
     smearing contrib. (-TS)   =      -0.00075554 Ry

     total magnetization       =    46.00 Bohr mag/cell
     absolute magnetization    =    47.84 Bohr mag/cell

     convergence has been achieved in  17 iterations

     Forces acting on atoms (Ry/au):


     negative rho (up, down):  0.311E-02 0.169E-02
     atom    1 type  1   force =     0.00000000    0.00000000    0.05024711
     atom    2 type  2   force =    -0.00079066    0.00000000   -0.08424346
     atom    3 type  2   force =     0.00000000    0.00000000    0.05077316
     atom    4 type  1   force =    -0.00005178    0.05149420   -0.04366868
     atom    5 type  1   force =    -0.00005178   -0.05149420   -0.04366868
     atom    6 type  1   force =     0.00000000    0.00000000    0.00659492
     atom    7 type  1   force =     0.00000000    0.00000000    0.00570971
     atom    8 type  2   force =     0.00066028    0.00000000    0.03409479
     atom    9 type  2   force =     0.00000000    0.00000000    0.02349126
     atom   10 type  1   force =     0.00083583   -0.03134616    0.00256078
     atom   11 type  1   force =     0.00083583    0.03134616    0.00256078
     atom   12 type  1   force =     0.00000000    0.00000000    0.00370163
     atom   13 type  1   force =     0.00000000    0.00000000   -0.00016628
     atom   14 type  2   force =     0.00010109    0.00000000    0.00001542
     atom   15 type  2   force =     0.00000000    0.00000000    0.00018387
     atom   16 type  1   force =     0.00000729   -0.00001575    0.00043373
     atom   17 type  1   force =     0.00000729    0.00001575    0.00043373
     atom   18 type  1   force =     0.00000000    0.00000000   -0.00060927
     atom   19 type  1   force =     0.00000000    0.00000000    0.00031199
     atom   20 type  2   force =    -0.00005975    0.00000000    0.00022404
     atom   21 type  2   force =     0.00000000    0.00000000   -0.00086715
     atom   22 type  1   force =    -0.00067836   -0.00001994    0.00053644
     atom   23 type  1   force =    -0.00067836    0.00001994    0.00053644
     atom   24 type  1   force =     0.00000000    0.00000000    0.00045135
     atom   25 type  1   force =     0.00000000    0.00000000    0.05068727
     atom   26 type  2   force =     0.00079066    0.00000000   -0.08424346
     atom   27 type  2   force =     0.00000000    0.00000000    0.05071909
     atom   28 type  1   force =     0.00005178    0.05149420   -0.04366868
     atom   29 type  1   force =     0.00005178   -0.05149420   -0.04366868
     atom   30 type  1   force =     0.00000000    0.00000000    0.00832455
     atom   31 type  1   force =     0.00000000    0.00000000    0.00573347
     atom   32 type  2   force =    -0.00066028    0.00000000    0.03409479
     atom   33 type  2   force =     0.00000000    0.00000000   -0.00000268
     atom   34 type  1   force =    -0.00083583   -0.03134616    0.00256078
     atom   35 type  1   force =    -0.00083583    0.03134616    0.00256078
     atom   36 type  1   force =     0.00000000    0.00000000    0.00418855
     atom   37 type  1   force =     0.00000000    0.00000000    0.00020161
     atom   38 type  2   force =    -0.00010109    0.00000000    0.00001542
     atom   39 type  2   force =     0.00000000    0.00000000    0.00033302
     atom   40 type  1   force =    -0.00000729   -0.00001575    0.00043373
     atom   41 type  1   force =    -0.00000729    0.00001575    0.00043373
     atom   42 type  1   force =     0.00000000    0.00000000    0.00079588
     atom   43 type  1   force =     0.00000000    0.00000000    0.00015409
     atom   44 type  2   force =     0.00005975    0.00000000    0.00022404
     atom   45 type  2   force =     0.00000000    0.00000000   -0.00031363
     atom   46 type  1   force =     0.00067836   -0.00001994    0.00053644
     atom   47 type  1   force =     0.00067836    0.00001994    0.00053644
     atom   48 type  1   force =     0.00000000    0.00000000   -0.00000576
     atom   49 type  1   force =     0.00000000    0.00000000   -0.00026841

     Total force =     0.002518     Total SCF correction =     0.000317
     SCF correction compared to forces is large: reduce conv_thr to get better values

     bfgs converged in   3 scf cycles and   2 bfgs steps
     (criteria: energy < 0.10E-03, force < 0.10E-02)

     End of BFGS Geometry Optimization

     Final energy   =   -4471.4955964102 Ry
Begin final coordinates

ATOMIC_POSITIONS (crystal)
O0       0.000000000   0.500000000   0.335990000    0   0   0
Mn1      0.250000000   0.500000000   0.370520000    0   0   0
Mn1      0.000000000   0.000000000   0.370520000    0   0   0
O0       0.250000000   0.800000000   0.370520000    0   0   0
O0       0.250000000   0.200000000   0.370520000    0   0   0
O0       0.000000000   0.500000000   0.405050000    0   0   0
O0       0.000000000   0.000000000   0.422310000    0   0   0
Mn1      0.250000000   0.000000000   0.456840000    0   0   0
Mn1      0.000000000   0.500000000   0.456840000    0   0   0
O0       0.250000000   0.700000000   0.456840000    0   0   0
O0       0.250000000   0.300000000   0.456840000    0   0   0
O0       0.000000000   0.000000000   0.491370000    0   0   0
O0       0.000000000   0.500000000   0.510892555
Mn1      0.256775725   0.500000000   0.545317667
Mn1      0.000000000   0.000000000   0.546728032
O0       0.250330789   0.804399168   0.545447357
O0       0.250330789   0.195600832   0.545447357
O0       0.000000000   0.500000000   0.580195442
O0       0.000000000   0.000000000   0.599836908
Mn1      0.251026933   0.000000000   0.636660537
Mn1      0.000000000   0.500000000   0.630297056
O0       0.251447585   0.689435902   0.638638428
O0       0.251447585   0.310564098   0.638638428
O0       0.000000000   0.000000000   0.668389631
O0       0.500000000   0.500000000   0.335990000    0   0   0
Mn1      0.750000000   0.500000000   0.370520000    0   0   0
Mn1      0.500000000   0.000000000   0.370520000    0   0   0
O0       0.750000000   0.800000000   0.370520000    0   0   0
O0       0.750000000   0.200000000   0.370520000    0   0   0
O0       0.500000000   0.500000000   0.405050000    0   0   0
O0       0.500000000   0.000000000   0.422310000    0   0   0
Mn1      0.750000000   0.000000000   0.456840000    0   0   0
Mn1      0.500000000   0.500000000   0.456840000    0   0   0
O0       0.750000000   0.700000000   0.456840000    0   0   0
O0       0.750000000   0.300000000   0.456840000    0   0   0
O0       0.500000000   0.000000000   0.491370000    0   0   0
O0       0.500000000   0.500000000   0.510439529
Mn1      0.743224275   0.500000000   0.545317667
Mn1      0.500000000   0.000000000   0.547034552
O0       0.749669211   0.804399168   0.545447357
O0       0.749669211   0.195600832   0.545447357
O0       0.500000000   0.500000000   0.578956742
O0       0.500000000   0.000000000   0.599940559
Mn1      0.748973067   0.000000000   0.636660537
Mn1      0.500000000   0.500000000   0.649341177
O0       0.748552415   0.689435902   0.638638428
O0       0.748552415   0.310564098   0.638638428
O0       0.500000000   0.000000000   0.668639010
O0       0.500000000   0.500000000   0.693641319
End final coordinates



     init_run     :    134.17s CPU    155.52s WALL (       1 calls)
     electrons    :  29575.50s CPU  31951.87s WALL (       3 calls)
     update_pot   :     19.03s CPU     19.99s WALL (       2 calls)
     forces       :    502.47s CPU    504.51s WALL (       3 calls)

     Called by init_run:
     wfcinit      :     86.65s CPU     91.46s WALL (       1 calls)
     potinit      :      3.94s CPU      4.04s WALL (       1 calls)

     Called by electrons:
     c_bands      :  22373.04s CPU  23235.67s WALL (      75 calls)
     sum_band     :   4334.63s CPU   4527.88s WALL (      75 calls)
     v_of_rho     :    111.86s CPU    118.06s WALL (      77 calls)
     newd         :   2813.94s CPU   4121.25s WALL (      77 calls)
     mix_rho      :     14.59s CPU     15.76s WALL (      75 calls)

     Called by c_bands:
     init_us_2    :     13.76s CPU     14.57s WALL (     770 calls)
     cegterg      :  21722.32s CPU  22581.76s WALL (     375 calls)

     Called by *egterg:
     h_psi        :   6743.48s CPU   7403.98s WALL (    1089 calls)
     s_psi        :   1572.04s CPU   1584.01s WALL (    1089 calls)
     g_psi        :     13.04s CPU     13.08s WALL (     709 calls)
     cdiaghg      :   5806.47s CPU   5883.64s WALL (    1069 calls)

     Called by h_psi:
     add_vuspsi   :   1572.52s CPU   1584.94s WALL (    1089 calls)

     General routines
     calbec       :   2381.25s CPU   2396.78s WALL (    1479 calls)
     fft          :    126.94s CPU    134.14s WALL (    2422 calls)
     ffts         :      1.22s CPU      1.45s WALL (     304 calls)
     fftw         :   3184.93s CPU   3989.39s WALL ( 1243403 calls)
     interpolate  :     11.47s CPU     13.28s WALL (     304 calls)

     Parallel routines
     fft_scatter  :   1017.78s CPU   1564.30s WALL ( 1246129 calls)

     PWSCF        :     8h25m CPU        9h 5m WALL


   This run was terminated on:   3:29:20  11May2014            

=------------------------------------------------------------------------------=
   JOB DONE.
=------------------------------------------------------------------------------=
