ScientificPython/2.8-dl160g6-numpy-1.7.1-1(15):ERROR:151: Module 'ScientificPython/2.8-dl160g6-numpy-1.7.1-1' depends on one of the module(s) 'numpy/1.7.1-dl160g6-gfortran-internal-1'
ScientificPython/2.8-dl160g6-numpy-1.7.1-1(15):ERROR:102: Tcl command execution failed: prereq numpy/1.7.1-dl160g6-gfortran-internal-1


     Program PWSCF v.5.0.2 (svn rev. 9656) starts on  1Jun2014 at 19:29:28 

     This program is part of the open-source Quantum ESPRESSO suite
     for quantum simulation of materials; please cite
         "P. Giannozzi et al., J. Phys.:Condens. Matter 21 395502 (2009);
          URL http://www.quantum-espresso.org", 
     in publications or presentations arising from this work. More details at
     http://www.quantum-espresso.org/quote.php

     Parallel version (MPI), running on    16 processors
     K-points division:     npool     =       4
     R & G space division:  proc/nbgrp/npool/nimage =       4

     Current dimensions of program PWSCF are:
     Max number of different atomic species (ntypx) = 10
     Max number of k-points (npk) =  40000
     Max angular momentum in pseudopotentials (lmaxx) =  3
     Reading input from pwscf.in
Warning: card &CELL ignored
Warning: card / ignored

     Subspace diagonalization in iterative solution of the eigenvalue problem:
     a serial algorithm will be used


     Parallelization info
     --------------------
     sticks:   dense  smooth     PW     G-vecs:    dense   smooth      PW
     Min        1244     397    112               291872    52833    7934
     Max        1245     398    113               291883    52857    7939
     Sum        4979    1589    451              1167509   211387   31747



     bravais-lattice index     =            0
     lattice parameter (alat)  =      10.7336  a.u.
     unit-cell volume          =    6184.1966 (a.u.)^3
     number of atoms/cell      =           33
     number of atomic types    =            3
     number of electrons       =       245.00 (up: 134.00, down: 111.00)
     number of Kohn-Sham states=          355
     kinetic-energy cutoff     =      40.0000  Ry
     charge density cutoff     =     500.0000  Ry
     convergence threshold     =      1.0E-06
     mixing beta               =       0.7000
     number of iterations used =            8  plain     mixing
     Exchange-correlation      = SLA  PW   PBE  PBE ( 1 4 3 4 0)
     EXX-fraction              =        0.00
     nstep                     =           50


     celldm(1)=  10.733644  celldm(2)=   0.000000  celldm(3)=   0.000000
     celldm(4)=   0.000000  celldm(5)=   0.000000  celldm(6)=   0.000000

     crystal axes: (cart. coord. in units of alat)
               a(1) = (   1.000000   0.000000   0.000000 )  
               a(2) = (   0.000000   1.085558   0.000000 )  
               a(3) = (   0.000000   0.000000   4.606685 )  

     reciprocal axes: (cart. coord. in units 2 pi/alat)
               b(1) = (  1.000000  0.000000  0.000000 )  
               b(2) = (  0.000000  0.921185  0.000000 )  
               b(3) = (  0.000000  0.000000  0.217076 )  


     PseudoPot. # 1 for O  read from file:
     /home/camp/zhonxu/pseudo/o_pbe_v1.01.uspp.F.UPF
     MD5 check sum: 2bcb18d16ea4b960afae9ec6d52f22d2
     Pseudo is Ultrasoft + core correction, Zval =  6.0
     Generated by new atomic code, or converted to UPF format
     Using radial grid of  737 points,  5 beta functions with: 
                l(1) =   0
                l(2) =   0
                l(3) =   1
                l(4) =   1
                l(5) =   2
     Q(r) pseudized with  8 coefficients,  rinner =    0.900   0.900   0.900
                                                       0.900   0.900

     PseudoPot. # 2 for Mn read from file:
     /home/camp/zhonxu/pseudo/mn_pbe_v1.uspp.F.UPF
     MD5 check sum: 5fd7c7b5c956fd19902447332617373a
     Pseudo is Ultrasoft + core correction, Zval = 15.0
     Generated by new atomic code, or converted to UPF format
     Using radial grid of  859 points,  6 beta functions with: 
                l(1) =   0
                l(2) =   0
                l(3) =   1
                l(4) =   1
                l(5) =   2
                l(6) =   2
     Q(r) pseudized with  6 coefficients,  rinner =    1.150   1.150   1.150
                                                       1.150   1.150

     PseudoPot. # 3 for H  read from file:
     /home/camp/zhonxu/pseudo/h_pbe_v1.uspp.F.UPF
     MD5 check sum: 3408e3ff4ec8b0a4e358431e7e038a48
     Pseudo is Ultrasoft, Zval =  1.0
     Generated by new atomic code, or converted to UPF format
     Using radial grid of  615 points,  2 beta functions with: 
                l(1) =   0
                l(2) =   0
     Q(r) pseudized with  8 coefficients,  rinner =    0.700

     atomic species   valence    mass     pseudopotential
        O0             6.00    15.99940     O ( 1.00)
        Mn1           15.00    54.93800     Mn( 1.00)
        H2             1.00     1.00794     H ( 1.00)

     Starting magnetic structure 
     atomic species   magnetization
        O0           0.000
        Mn1          0.600
        H2           0.000


     Simplified LDA+U calculation (l_max = 2) with parameters (eV):
     atomic species    L          U    alpha       J0     beta
        Mn1            2     4.5000   0.0000   0.0000   0.0000



     No symmetry found



   Cartesian axes

     site n.     atom                  positions (alat units)
         1           O0  tau(   1) = (   0.0000000   0.0000000   1.7457494  )
         2           O0  tau(   2) = (   0.0000000   0.5427791   1.8442864  )
         3           Mn1 tau(   3) = (   0.2500000   0.5427791   2.0803790  )
         4           Mn1 tau(   4) = (   0.0000000   0.0000000   2.0733307  )
         5           O0  tau(   5) = (   0.2500000   0.8684466   2.0718105  )
         6           O0  tau(   6) = (   0.2500000   0.2171117   2.0783981  )
         7           O0  tau(   7) = (   0.0000000   0.5427791   2.2929314  )
         8           O0  tau(   8) = (   0.0000000   0.0000000   2.4163906  )
         9           Mn1 tau(   9) = (   0.2500000   0.0000000   2.6432698  )
        10           Mn1 tau(  10) = (   0.0000000   0.5427791   2.6163668  )
        11           O0  tau(  11) = (   0.2500000   0.7598908   2.6487057  )
        12           O0  tau(  12) = (   0.2500000   0.3256675   2.6647830  )
        13           O0  tau(  13) = (   0.0000000   0.0000000   2.8448584  )
        14           O0  tau(  14) = (   0.5000000   0.0000000   1.7464864  )
        15           O0  tau(  15) = (   0.5000000   0.5427791   1.8448852  )
        16           Mn1 tau(  16) = (   0.7500000   0.5427791   2.0803790  )
        17           Mn1 tau(  17) = (   0.5000000   0.0000000   2.0744363  )
        18           O0  tau(  18) = (   0.7500000   0.8684466   2.0716723  )
        19           O0  tau(  19) = (   0.7500000   0.2171117   2.0786745  )
        20           O0  tau(  20) = (   0.5000000   0.5427791   2.2968932  )
        21           O0  tau(  21) = (   0.5000000   0.0000000   2.4162984  )
        22           Mn1 tau(  22) = (   0.7500000   0.0000000   2.6433159  )
        23           Mn1 tau(  23) = (   0.5000000   0.5427791   2.6660729  )
        24           O0  tau(  24) = (   0.7500000   0.7598908   2.6487057  )
        25           O0  tau(  25) = (   0.7500000   0.3256675   2.6648291  )
        26           O0  tau(  26) = (   0.5000000   0.0000000   2.8426011  )
        27           H2  tau(  27) = (   0.0000600   0.7014769   1.7682761  )
        28           H2  tau(  28) = (   0.5000200   0.7014226   1.7687367  )
        29           H2  tau(  29) = (   0.1615100   0.0393949   1.6915287  )
        30           H2  tau(  30) = (   0.6615300   0.0393515   1.6922658  )
        31           O0  tau(  31) = (   0.4998600   0.5845297   2.9855926  )
        32           O0  tau(  32) = (   0.5002900   0.3746370   3.1260965  )
        33           H2  tau(  33) = (   0.4998600   0.4487589   3.2835069  )

     number of k points=    20  Methfessel-Paxton smearing, width (Ry)=  0.0100
                       cart. coord. in units 2pi/alat
        k(    1) = (   0.0000000   0.0000000   0.0000000), wk =   0.0625000
        k(    2) = (   0.0000000   0.2302962   0.0000000), wk =   0.1250000
        k(    3) = (   0.0000000  -0.4605925   0.0000000), wk =   0.0625000
        k(    4) = (   0.2500000   0.0000000   0.0000000), wk =   0.1250000
        k(    5) = (   0.2500000   0.2302962   0.0000000), wk =   0.1250000
        k(    6) = (   0.2500000  -0.4605925   0.0000000), wk =   0.1250000
        k(    7) = (  -0.5000000   0.0000000   0.0000000), wk =   0.0625000
        k(    8) = (  -0.5000000   0.2302962   0.0000000), wk =   0.1250000
        k(    9) = (  -0.5000000  -0.4605925   0.0000000), wk =   0.0625000
        k(   10) = (  -0.2500000   0.2302962   0.0000000), wk =   0.1250000
        k(   11) = (   0.0000000   0.0000000   0.0000000), wk =   0.0625000
        k(   12) = (   0.0000000   0.2302962   0.0000000), wk =   0.1250000
        k(   13) = (   0.0000000  -0.4605925   0.0000000), wk =   0.0625000
        k(   14) = (   0.2500000   0.0000000   0.0000000), wk =   0.1250000
        k(   15) = (   0.2500000   0.2302962   0.0000000), wk =   0.1250000
        k(   16) = (   0.2500000  -0.4605925   0.0000000), wk =   0.1250000
        k(   17) = (  -0.5000000   0.0000000   0.0000000), wk =   0.0625000
        k(   18) = (  -0.5000000   0.2302962   0.0000000), wk =   0.1250000
        k(   19) = (  -0.5000000  -0.4605925   0.0000000), wk =   0.0625000
        k(   20) = (  -0.2500000   0.2302962   0.0000000), wk =   0.1250000

     Dense  grid:  1167509 G-vectors     FFT dimensions: (  80,  90, 360)

     Smooth grid:   211387 G-vectors     FFT dimensions: (  45,  48, 200)

     Largest allocated arrays     est. size (Mb)     dimensions
        Kohn-Sham Wavefunctions        35.97 Mb     (   6641,  355)
        Atomic wavefunctions           19.15 Mb     (   6641,  189)
        NL pseudopotentials            41.95 Mb     (   6641,  414)
        Each V/rho on FFT grid         19.78 Mb     ( 648000,   2)
        Each G-vector array             2.23 Mb     ( 291883)
        G-vector shells                 0.97 Mb     ( 127585)
     Largest temporary arrays     est. size (Mb)     dimensions
        Auxiliary wavefunctions       143.89 Mb     (   6641, 1420)
        Each subspace H/S matrix       30.77 Mb     (1420,1420)
        Each <psi_i|beta_j> matrix      2.24 Mb     (    414,  355)
        Arrays for rho mixing          79.10 Mb     ( 648000,   8)

     Check: negative/imaginary core charge=   -0.000022    0.000000

     Initial potential from superposition of free atoms
     Check: negative starting charge=(component1):   -0.000643
     Check: negative starting charge=(component2):   -0.000358

     starting charge  236.99986, renormalised to  245.00000

     negative rho (up, down):  0.665E-03 0.370E-03
     Number of +U iterations with fixed ns =  0
     Starting occupations:
 --- enter write_ns ---
 LDA+U parameters:
U( 2)     =  4.50000000
alpha( 2) =  0.00000000
atom    3   Tr[ns(na)] (up, down, total) =   5.00000  0.00000  5.00000
   spin  1
    eigenvalues: 
  1.000  1.000  1.000  1.000  1.000
    eigenvectors:
  1.000  0.000  0.000  0.000  0.000
  0.000  1.000  0.000  0.000  0.000
  0.000  0.000  1.000  0.000  0.000
  0.000  0.000  0.000  1.000  0.000
  0.000  0.000  0.000  0.000  1.000
    occupations:
  1.000  0.000  0.000  0.000  0.000
  0.000  1.000  0.000  0.000  0.000
  0.000  0.000  1.000  0.000  0.000
  0.000  0.000  0.000  1.000  0.000
  0.000  0.000  0.000  0.000  1.000
   spin  2
    eigenvalues: 
  0.000  0.000  0.000  0.000  0.000
    eigenvectors:
  1.000  0.000  0.000  0.000  0.000
  0.000  1.000  0.000  0.000  0.000
  0.000  0.000  1.000  0.000  0.000
  0.000  0.000  0.000  1.000  0.000
  0.000  0.000  0.000  0.000  1.000
    occupations:
  0.000  0.000  0.000  0.000  0.000
  0.000  0.000  0.000  0.000  0.000
  0.000  0.000  0.000  0.000  0.000
  0.000  0.000  0.000  0.000  0.000
  0.000  0.000  0.000  0.000  0.000
atomic mag. moment =     5.000000
atom    4   Tr[ns(na)] (up, down, total) =   5.00000  0.00000  5.00000
   spin  1
    eigenvalues: 
  1.000  1.000  1.000  1.000  1.000
    eigenvectors:
  1.000  0.000  0.000  0.000  0.000
  0.000  1.000  0.000  0.000  0.000
  0.000  0.000  1.000  0.000  0.000
  0.000  0.000  0.000  1.000  0.000
  0.000  0.000  0.000  0.000  1.000
    occupations:
  1.000  0.000  0.000  0.000  0.000
  0.000  1.000  0.000  0.000  0.000
  0.000  0.000  1.000  0.000  0.000
  0.000  0.000  0.000  1.000  0.000
  0.000  0.000  0.000  0.000  1.000
   spin  2
    eigenvalues: 
  0.000  0.000  0.000  0.000  0.000
    eigenvectors:
  1.000  0.000  0.000  0.000  0.000
  0.000  1.000  0.000  0.000  0.000
  0.000  0.000  1.000  0.000  0.000
  0.000  0.000  0.000  1.000  0.000
  0.000  0.000  0.000  0.000  1.000
    occupations:
  0.000  0.000  0.000  0.000  0.000
  0.000  0.000  0.000  0.000  0.000
  0.000  0.000  0.000  0.000  0.000
  0.000  0.000  0.000  0.000  0.000
  0.000  0.000  0.000  0.000  0.000
atomic mag. moment =     5.000000
atom    9   Tr[ns(na)] (up, down, total) =   5.00000  0.00000  5.00000
   spin  1
    eigenvalues: 
  1.000  1.000  1.000  1.000  1.000
    eigenvectors:
  1.000  0.000  0.000  0.000  0.000
  0.000  1.000  0.000  0.000  0.000
  0.000  0.000  1.000  0.000  0.000
  0.000  0.000  0.000  1.000  0.000
  0.000  0.000  0.000  0.000  1.000
    occupations:
  1.000  0.000  0.000  0.000  0.000
  0.000  1.000  0.000  0.000  0.000
  0.000  0.000  1.000  0.000  0.000
  0.000  0.000  0.000  1.000  0.000
  0.000  0.000  0.000  0.000  1.000
   spin  2
    eigenvalues: 
  0.000  0.000  0.000  0.000  0.000
    eigenvectors:
  1.000  0.000  0.000  0.000  0.000
  0.000  1.000  0.000  0.000  0.000
  0.000  0.000  1.000  0.000  0.000
  0.000  0.000  0.000  1.000  0.000
  0.000  0.000  0.000  0.000  1.000
    occupations:
  0.000  0.000  0.000  0.000  0.000
  0.000  0.000  0.000  0.000  0.000
  0.000  0.000  0.000  0.000  0.000
  0.000  0.000  0.000  0.000  0.000
  0.000  0.000  0.000  0.000  0.000
atomic mag. moment =     5.000000
atom   10   Tr[ns(na)] (up, down, total) =   5.00000  0.00000  5.00000
   spin  1
    eigenvalues: 
  1.000  1.000  1.000  1.000  1.000
    eigenvectors:
  1.000  0.000  0.000  0.000  0.000
  0.000  1.000  0.000  0.000  0.000
  0.000  0.000  1.000  0.000  0.000
  0.000  0.000  0.000  1.000  0.000
  0.000  0.000  0.000  0.000  1.000
    occupations:
  1.000  0.000  0.000  0.000  0.000
  0.000  1.000  0.000  0.000  0.000
  0.000  0.000  1.000  0.000  0.000
  0.000  0.000  0.000  1.000  0.000
  0.000  0.000  0.000  0.000  1.000
   spin  2
    eigenvalues: 
  0.000  0.000  0.000  0.000  0.000
    eigenvectors:
  1.000  0.000  0.000  0.000  0.000
  0.000  1.000  0.000  0.000  0.000
  0.000  0.000  1.000  0.000  0.000
  0.000  0.000  0.000  1.000  0.000
  0.000  0.000  0.000  0.000  1.000
    occupations:
  0.000  0.000  0.000  0.000  0.000
  0.000  0.000  0.000  0.000  0.000
  0.000  0.000  0.000  0.000  0.000
  0.000  0.000  0.000  0.000  0.000
  0.000  0.000  0.000  0.000  0.000
atomic mag. moment =     5.000000
atom   16   Tr[ns(na)] (up, down, total) =   5.00000  0.00000  5.00000
   spin  1
    eigenvalues: 
  1.000  1.000  1.000  1.000  1.000
    eigenvectors:
  1.000  0.000  0.000  0.000  0.000
  0.000  1.000  0.000  0.000  0.000
  0.000  0.000  1.000  0.000  0.000
  0.000  0.000  0.000  1.000  0.000
  0.000  0.000  0.000  0.000  1.000
    occupations:
  1.000  0.000  0.000  0.000  0.000
  0.000  1.000  0.000  0.000  0.000
  0.000  0.000  1.000  0.000  0.000
  0.000  0.000  0.000  1.000  0.000
  0.000  0.000  0.000  0.000  1.000
   spin  2
    eigenvalues: 
  0.000  0.000  0.000  0.000  0.000
    eigenvectors:
  1.000  0.000  0.000  0.000  0.000
  0.000  1.000  0.000  0.000  0.000
  0.000  0.000  1.000  0.000  0.000
  0.000  0.000  0.000  1.000  0.000
  0.000  0.000  0.000  0.000  1.000
    occupations:
  0.000  0.000  0.000  0.000  0.000
  0.000  0.000  0.000  0.000  0.000
  0.000  0.000  0.000  0.000  0.000
  0.000  0.000  0.000  0.000  0.000
  0.000  0.000  0.000  0.000  0.000
atomic mag. moment =     5.000000
atom   17   Tr[ns(na)] (up, down, total) =   5.00000  0.00000  5.00000
   spin  1
    eigenvalues: 
  1.000  1.000  1.000  1.000  1.000
    eigenvectors:
  1.000  0.000  0.000  0.000  0.000
  0.000  1.000  0.000  0.000  0.000
  0.000  0.000  1.000  0.000  0.000
  0.000  0.000  0.000  1.000  0.000
  0.000  0.000  0.000  0.000  1.000
    occupations:
  1.000  0.000  0.000  0.000  0.000
  0.000  1.000  0.000  0.000  0.000
  0.000  0.000  1.000  0.000  0.000
  0.000  0.000  0.000  1.000  0.000
  0.000  0.000  0.000  0.000  1.000
   spin  2
    eigenvalues: 
  0.000  0.000  0.000  0.000  0.000
    eigenvectors:
  1.000  0.000  0.000  0.000  0.000
  0.000  1.000  0.000  0.000  0.000
  0.000  0.000  1.000  0.000  0.000
  0.000  0.000  0.000  1.000  0.000
  0.000  0.000  0.000  0.000  1.000
    occupations:
  0.000  0.000  0.000  0.000  0.000
  0.000  0.000  0.000  0.000  0.000
  0.000  0.000  0.000  0.000  0.000
  0.000  0.000  0.000  0.000  0.000
  0.000  0.000  0.000  0.000  0.000
atomic mag. moment =     5.000000
atom   22   Tr[ns(na)] (up, down, total) =   5.00000  0.00000  5.00000
   spin  1
    eigenvalues: 
  1.000  1.000  1.000  1.000  1.000
    eigenvectors:
  1.000  0.000  0.000  0.000  0.000
  0.000  1.000  0.000  0.000  0.000
  0.000  0.000  1.000  0.000  0.000
  0.000  0.000  0.000  1.000  0.000
  0.000  0.000  0.000  0.000  1.000
    occupations:
  1.000  0.000  0.000  0.000  0.000
  0.000  1.000  0.000  0.000  0.000
  0.000  0.000  1.000  0.000  0.000
  0.000  0.000  0.000  1.000  0.000
  0.000  0.000  0.000  0.000  1.000
   spin  2
    eigenvalues: 
  0.000  0.000  0.000  0.000  0.000
    eigenvectors:
  1.000  0.000  0.000  0.000  0.000
  0.000  1.000  0.000  0.000  0.000
  0.000  0.000  1.000  0.000  0.000
  0.000  0.000  0.000  1.000  0.000
  0.000  0.000  0.000  0.000  1.000
    occupations:
  0.000  0.000  0.000  0.000  0.000
  0.000  0.000  0.000  0.000  0.000
  0.000  0.000  0.000  0.000  0.000
  0.000  0.000  0.000  0.000  0.000
  0.000  0.000  0.000  0.000  0.000
atomic mag. moment =     5.000000
atom   23   Tr[ns(na)] (up, down, total) =   5.00000  0.00000  5.00000
   spin  1
    eigenvalues: 
  1.000  1.000  1.000  1.000  1.000
    eigenvectors:
  1.000  0.000  0.000  0.000  0.000
  0.000  1.000  0.000  0.000  0.000
  0.000  0.000  1.000  0.000  0.000
  0.000  0.000  0.000  1.000  0.000
  0.000  0.000  0.000  0.000  1.000
    occupations:
  1.000  0.000  0.000  0.000  0.000
  0.000  1.000  0.000  0.000  0.000
  0.000  0.000  1.000  0.000  0.000
  0.000  0.000  0.000  1.000  0.000
  0.000  0.000  0.000  0.000  1.000
   spin  2
    eigenvalues: 
  0.000  0.000  0.000  0.000  0.000
    eigenvectors:
  1.000  0.000  0.000  0.000  0.000
  0.000  1.000  0.000  0.000  0.000
  0.000  0.000  1.000  0.000  0.000
  0.000  0.000  0.000  1.000  0.000
  0.000  0.000  0.000  0.000  1.000
    occupations:
  0.000  0.000  0.000  0.000  0.000
  0.000  0.000  0.000  0.000  0.000
  0.000  0.000  0.000  0.000  0.000
  0.000  0.000  0.000  0.000  0.000
  0.000  0.000  0.000  0.000  0.000
atomic mag. moment =     5.000000
N of occupied +U levels =  40.0000000
 --- exit write_ns ---
 Atomic wfc used for LDA+U Projector are NOT orthogonalized
     Starting wfc are  189 randomized atomic wfcs

     total cpu time spent up to now is      127.4 secs

     per-process dynamical memory:   476.4 Mb

     Self-consistent Calculation

     iteration #  1     ecut=    40.00 Ry     beta=0.70
     Davidson diagonalization with overlap
     ethr =  1.00E-02,  avg # of iterations =  5.5
 --- enter write_ns ---
 LDA+U parameters:
U( 2)     =  4.50000000
alpha( 2) =  0.00000000
atom    3   Tr[ns(na)] (up, down, total) =   4.46876  0.52061  4.98936
   spin  1
    eigenvalues: 
  0.740  0.742  0.989  0.994  1.003
    eigenvectors:
  0.183  0.018  0.000  0.789  0.009
  0.076  0.921  0.003  0.000  0.000
  0.000  0.000  0.000  0.014  0.986
  0.741  0.058  0.000  0.196  0.005
  0.000  0.002  0.997  0.000  0.000
    occupations:
  0.943  0.003 -0.001 -0.102  0.000
  0.003  0.742  0.000 -0.002 -0.013
 -0.001  0.000  1.003 -0.005  0.000
 -0.102 -0.002 -0.005  0.791 -0.001
  0.000 -0.013  0.000 -0.001  0.989
   spin  2
    eigenvalues: 
  0.052  0.057  0.057  0.172  0.183
    eigenvectors:
  0.522  0.107  0.182  0.000  0.189
  0.000  0.001  0.000  0.999  0.000
  0.355  0.194  0.451  0.000  0.000
  0.122  0.025  0.042  0.000  0.811
  0.001  0.674  0.324  0.001  0.000
    occupations:
  0.078 -0.000 -0.002  0.051  0.000
 -0.000  0.172  0.000  0.000  0.003
 -0.002  0.000  0.055  0.001 -0.000
  0.051  0.000  0.001  0.159 -0.000
  0.000  0.003 -0.000 -0.000  0.057
atomic mag. moment =     3.948147
atom    4   Tr[ns(na)] (up, down, total) =   4.50805  0.53628  5.04433
   spin  1
    eigenvalues: 
  0.739  0.807  0.974  0.988  1.000
    eigenvectors:
  0.000  0.993  0.000  0.001  0.006
  0.000  0.004  0.076  0.010  0.910
  0.000  0.001  0.918  0.012  0.069
  0.000  0.002  0.006  0.977  0.015
  1.000  0.000  0.000  0.000  0.000
    occupations:
  0.808 -0.013 -0.005  0.007 -0.000
 -0.013  0.997  0.006 -0.001  0.004
 -0.005  0.006  0.976  0.001 -0.000
  0.007 -0.001  0.001  0.988 -0.000
 -0.000  0.004 -0.000 -0.000  0.739
   spin  2
    eigenvalues: 
  0.052  0.058  0.066  0.173  0.187
    eigenvectors:
  0.008  0.001  0.000  0.000  0.991
  0.009  0.823  0.166  0.000  0.001
  0.003  0.163  0.833  0.000  0.000
  0.979  0.013  0.000  0.000  0.008
  0.000  0.000  0.000  1.000  0.000
    occupations:
  0.186  0.005  0.002 -0.012  0.000
  0.005  0.060 -0.003  0.000 -0.002
  0.002 -0.003  0.065  0.000  0.000
 -0.012  0.000  0.000  0.053  0.000
  0.000 -0.002  0.000  0.000  0.173
atomic mag. moment =     3.971771
atom    9   Tr[ns(na)] (up, down, total) =   4.47841  0.59841  5.07682
   spin  1
    eigenvalues: 
  0.743  0.754  0.987  0.991  1.003
    eigenvectors:
  0.001  0.130  0.807  0.062  0.000
  0.998  0.002  0.000  0.000  0.000
  0.000  0.001  0.010  0.111  0.879
  0.001  0.868  0.119  0.012  0.001
  0.000  0.000  0.064  0.815  0.121
    occupations:
  0.957 -0.003 -0.002 -0.078 -0.001
 -0.003  0.743 -0.000  0.001  0.000
 -0.002 -0.000  1.002 -0.007  0.004
 -0.078  0.001 -0.007  0.785  0.000
 -0.001  0.000  0.004  0.000  0.992
   spin  2
    eigenvalues: 
  0.063  0.072  0.074  0.193  0.197
    eigenvectors:
  0.000  0.865  0.004  0.123  0.008
  0.000  0.000  0.000  0.068  0.932
  0.994  0.000  0.005  0.001  0.000
  0.001  0.130  0.000  0.808  0.060
  0.005  0.005  0.991  0.000  0.000
    occupations:
  0.087  0.000  0.001  0.041  0.000
  0.000  0.197 -0.000 -0.001  0.000
  0.001 -0.000  0.063  0.003 -0.001
  0.041 -0.001  0.003  0.177 -0.000
  0.000  0.000 -0.001 -0.000  0.074
atomic mag. moment =     3.879994
atom   10   Tr[ns(na)] (up, down, total) =   4.89995  0.44837  5.34833
   spin  1
    eigenvalues: 
  0.914  0.984  0.998  1.000  1.005
    eigenvectors:
  0.000  0.831  0.169  0.000  0.000
  0.003  0.000  0.000  0.997  0.000
  0.000  0.000  0.001  0.000  0.999
  0.000  0.169  0.830  0.000  0.001
  0.997  0.000  0.000  0.003  0.000
    occupations:
  0.986  0.000  0.000  0.005 -0.000
  0.000  1.000 -0.000  0.000 -0.005
  0.000 -0.000  1.005 -0.000 -0.000
  0.005  0.000 -0.000  0.996 -0.000
 -0.000 -0.005 -0.000 -0.000  0.914
   spin  2
    eigenvalues: 
  0.049  0.051  0.056  0.120  0.172
    eigenvectors:
  0.003  0.019  0.000  0.978  0.000
  0.000  0.000  0.999  0.000  0.001
  0.893  0.107  0.000  0.000  0.000
  0.104  0.874  0.000  0.022  0.000
  0.000  0.000  0.001  0.000  0.999
    occupations:
  0.118 -0.000 -0.001 -0.010  0.000
 -0.000  0.056  0.000  0.000  0.004
 -0.001  0.000  0.050 -0.000  0.000
 -0.010  0.000 -0.000  0.052  0.000
  0.000  0.004  0.000  0.000  0.172
atomic mag. moment =     4.451578
atom   16   Tr[ns(na)] (up, down, total) =   4.46886  0.52060  4.98945
   spin  1
    eigenvalues: 
  0.740  0.742  0.989  0.994  1.003
    eigenvectors:
  0.172  0.028  0.001  0.789  0.010
  0.124  0.873  0.003  0.000  0.000
  0.000  0.000  0.000  0.014  0.985
  0.703  0.096  0.000  0.196  0.005
  0.000  0.002  0.996  0.001  0.000
    occupations:
  0.944 -0.002 -0.001 -0.102 -0.000
 -0.002  0.742  0.000  0.002 -0.013
 -0.001  0.000  1.003 -0.005  0.000
 -0.102  0.002 -0.005  0.791 -0.000
 -0.000 -0.013  0.000 -0.000  0.989
   spin  2
    eigenvalues: 
  0.052  0.057  0.057  0.172  0.183
    eigenvectors:
  0.523  0.095  0.193  0.000  0.189
  0.000  0.001  0.000  0.999  0.000
  0.354  0.178  0.468  0.000  0.000
  0.122  0.022  0.045  0.000  0.811
  0.001  0.705  0.294  0.001  0.000
    occupations:
  0.078  0.000 -0.002  0.051 -0.000
  0.000  0.172 -0.000 -0.000  0.003
 -0.002 -0.000  0.055  0.001  0.000
  0.051 -0.000  0.001  0.159 -0.000
 -0.000  0.003  0.000 -0.000  0.057
atomic mag. moment =     3.948260
atom   17   Tr[ns(na)] (up, down, total) =   4.50193  0.53592  5.03786
   spin  1
    eigenvalues: 
  0.734  0.806  0.975  0.988  0.999
    eigenvectors:
  0.000  0.993  0.000  0.001  0.006
  0.000  0.004  0.077  0.009  0.909
  0.000  0.001  0.916  0.013  0.070
  0.000  0.002  0.007  0.977  0.015
  1.000  0.000  0.000  0.000  0.000
    occupations:
  0.807 -0.013 -0.005  0.007 -0.000
 -0.013  0.996  0.006 -0.001  0.004
 -0.005  0.006  0.976  0.001  0.000
  0.007 -0.001  0.001  0.988 -0.000
 -0.000  0.004  0.000 -0.000  0.734
   spin  2
    eigenvalues: 
  0.051  0.058  0.066  0.173  0.188
    eigenvectors:
  0.008  0.001  0.000  0.000  0.991
  0.009  0.821  0.169  0.000  0.001
  0.003  0.166  0.831  0.000  0.000
  0.980  0.012  0.000  0.000  0.008
  0.000  0.000  0.000  1.000  0.000
    occupations:
  0.187  0.005  0.002 -0.012  0.000
  0.005  0.060 -0.003  0.000 -0.002
  0.002 -0.003  0.064  0.000  0.000
 -0.012  0.000  0.000  0.053  0.000
  0.000 -0.002  0.000  0.000  0.173
atomic mag. moment =     3.966009
atom   22   Tr[ns(na)] (up, down, total) =   4.47806  0.59846  5.07652
   spin  1
    eigenvalues: 
  0.743  0.754  0.987  0.991  1.003
    eigenvectors:
  0.002  0.129  0.813  0.057  0.000
  0.994  0.006  0.000  0.000  0.000
  0.000  0.001  0.009  0.111  0.879
  0.004  0.865  0.120  0.011  0.001
  0.000  0.000  0.059  0.821  0.121
    occupations:
  0.957  0.004 -0.002 -0.078  0.001
  0.004  0.743  0.001 -0.000  0.000
 -0.002  0.001  1.002 -0.007 -0.004
 -0.078 -0.000 -0.007  0.785 -0.000
  0.001  0.000 -0.004 -0.000  0.992
   spin  2
    eigenvalues: 
  0.063  0.072  0.074  0.193  0.197
    eigenvectors:
  0.000  0.865  0.004  0.123  0.008
  0.000  0.000  0.000  0.067  0.933
  0.994  0.000  0.005  0.001  0.000
  0.001  0.130  0.000  0.809  0.059
  0.005  0.005  0.991  0.000  0.000
    occupations:
  0.087 -0.000  0.001  0.041 -0.000
 -0.000  0.197  0.000  0.001  0.000
  0.001  0.000  0.063  0.003  0.001
  0.041  0.001  0.003  0.177  0.000
 -0.000  0.000  0.001  0.000  0.074
atomic mag. moment =     3.879602
atom   23   Tr[ns(na)] (up, down, total) =   4.62913  0.55547  5.18459
   spin  1
    eigenvalues: 
  0.797  0.854  0.985  0.993  1.001
    eigenvectors:
  0.000  0.976  0.000  0.013  0.011
  0.001  0.000  0.999  0.000  0.000
  0.000  0.017  0.000  0.055  0.928
  0.000  0.007  0.000  0.932  0.061
  0.999  0.000  0.001  0.000  0.000
    occupations:
  0.857 -0.000  0.019  0.011 -0.000
 -0.000  0.985  0.000  0.000 -0.005
  0.019  0.000  0.998 -0.003 -0.000
  0.011  0.000 -0.003  0.992 -0.000
 -0.000 -0.005 -0.000 -0.000  0.797
   spin  2
    eigenvalues: 
  0.049  0.052  0.093  0.172  0.190
    eigenvectors:
  0.000  0.009  0.000  0.000  0.991
  0.000  0.000  1.000  0.000  0.000
  0.729  0.268  0.000  0.000  0.004
  0.271  0.723  0.000  0.000  0.006
  0.000  0.000  0.000  1.000  0.000
    occupations:
  0.189  0.000 -0.008 -0.010  0.000
  0.000  0.093  0.000  0.000 -0.000
 -0.008  0.000  0.050  0.002 -0.000
 -0.010  0.000  0.002  0.052 -0.000
  0.000 -0.000 -0.000 -0.000  0.172
atomic mag. moment =     4.073657
N of occupied +U levels =  40.7472672
 --- exit write_ns ---

     negative rho (up, down):  0.912E-03 0.980E-03

     total cpu time spent up to now is      645.3 secs

     total energy              =   -2342.36002520 Ry
     Harris-Foulkes estimate   =   -2350.40854073 Ry
     estimated scf accuracy    <      18.67981730 Ry

     total magnetization       =    23.00 Bohr mag/cell
     absolute magnetization    =    42.04 Bohr mag/cell

     iteration #  2     ecut=    40.00 Ry     beta=0.70
     Davidson diagonalization with overlap
     ethr =  7.62E-03,  avg # of iterations =  5.3

     negative rho (up, down):  0.436E-04 0.137E-04

     total cpu time spent up to now is     1024.0 secs

     total energy              =   -2242.23854533 Ry
     Harris-Foulkes estimate   =   -2422.44870295 Ry
     estimated scf accuracy    <    2951.43068690 Ry

     total magnetization       =    23.00 Bohr mag/cell
     absolute magnetization    =    24.51 Bohr mag/cell

     iteration #  3     ecut=    40.00 Ry     beta=0.70
     Davidson diagonalization with overlap
     ethr =  7.62E-03,  avg # of iterations =  4.0

     negative rho (up, down):  0.773E-06 0.525E-04

     total cpu time spent up to now is     1432.0 secs

     total energy              =   -2328.38632753 Ry
     Harris-Foulkes estimate   =   -2365.62495188 Ry
     estimated scf accuracy    <     257.14404247 Ry

     total magnetization       =    23.00 Bohr mag/cell
     absolute magnetization    =    26.78 Bohr mag/cell

     iteration #  4     ecut=    40.00 Ry     beta=0.70
     Davidson diagonalization with overlap
     ethr =  7.62E-03,  avg # of iterations =  3.4

     negative rho (up, down):  0.235E-06 0.316E-06

     total cpu time spent up to now is     1734.7 secs

     total energy              =   -2337.06866863 Ry
     Harris-Foulkes estimate   =   -2365.95586659 Ry
     estimated scf accuracy    <     425.81946723 Ry

     total magnetization       =    23.00 Bohr mag/cell
     absolute magnetization    =    23.97 Bohr mag/cell

     iteration #  5     ecut=    40.00 Ry     beta=0.70
     Davidson diagonalization with overlap
     ethr =  7.62E-03,  avg # of iterations =  3.3

     negative rho (up, down):  0.463E-05 0.729E-06

     total cpu time spent up to now is     2002.7 secs

     total energy              =   -2351.35961632 Ry
     Harris-Foulkes estimate   =   -2354.29914047 Ry
     estimated scf accuracy    <      11.62079083 Ry

     total magnetization       =    23.00 Bohr mag/cell
     absolute magnetization    =    29.77 Bohr mag/cell

     iteration #  6     ecut=    40.00 Ry     beta=0.70
     Davidson diagonalization with overlap
     ethr =  4.74E-03,  avg # of iterations =  3.1

     negative rho (up, down):  0.000E+00 0.103E-06

     total cpu time spent up to now is     2262.2 secs

     total energy              =   -2351.63698581 Ry
     Harris-Foulkes estimate   =   -2353.17508014 Ry
     estimated scf accuracy    <       7.59279531 Ry

     total magnetization       =    23.00 Bohr mag/cell
     absolute magnetization    =    34.43 Bohr mag/cell

     iteration #  7     ecut=    40.00 Ry     beta=0.70
     Davidson diagonalization with overlap
     ethr =  3.10E-03,  avg # of iterations =  3.4

     negative rho (up, down):  0.795E-07 0.231E-06

     total cpu time spent up to now is     2524.7 secs

     total energy              =   -2351.77627058 Ry
     Harris-Foulkes estimate   =   -2353.74387463 Ry
     estimated scf accuracy    <      11.74913597 Ry

     total magnetization       =    23.00 Bohr mag/cell
     absolute magnetization    =    32.06 Bohr mag/cell

     iteration #  8     ecut=    40.00 Ry     beta=0.70
     Davidson diagonalization with overlap
     ethr =  3.10E-03,  avg # of iterations =  1.4

     negative rho (up, down):  0.124E-06 0.318E-06

     total cpu time spent up to now is     2764.7 secs

     total energy              =   -2352.56585543 Ry
     Harris-Foulkes estimate   =   -2352.85620049 Ry
     estimated scf accuracy    <       1.64922305 Ry

     total magnetization       =    23.00 Bohr mag/cell
     absolute magnetization    =    30.81 Bohr mag/cell

     iteration #  9     ecut=    40.00 Ry     beta=0.70
     Davidson diagonalization with overlap
     ethr =  6.73E-04,  avg # of iterations =  2.4

     negative rho (up, down):  0.396E-06 0.493E-06

     total cpu time spent up to now is     3008.4 secs

     total energy              =   -2352.56660336 Ry
     Harris-Foulkes estimate   =   -2352.73904237 Ry
     estimated scf accuracy    <       1.17205287 Ry

     total magnetization       =    23.00 Bohr mag/cell
     absolute magnetization    =    30.68 Bohr mag/cell

     iteration # 10     ecut=    40.00 Ry     beta=0.70
     Davidson diagonalization with overlap
     ethr =  4.78E-04,  avg # of iterations =  1.4

     negative rho (up, down):  0.119E-06 0.504E-06

     total cpu time spent up to now is     3251.3 secs

     total energy              =   -2352.60325967 Ry
     Harris-Foulkes estimate   =   -2352.66448280 Ry
     estimated scf accuracy    <       0.64607680 Ry

     total magnetization       =    23.00 Bohr mag/cell
     absolute magnetization    =    31.18 Bohr mag/cell

     iteration # 11     ecut=    40.00 Ry     beta=0.70
     Davidson diagonalization with overlap
     ethr =  2.64E-04,  avg # of iterations =  3.5

     negative rho (up, down):  0.162E-05 0.666E-05

     total cpu time spent up to now is     3502.7 secs

     total energy              =   -2352.39082756 Ry
     Harris-Foulkes estimate   =   -2352.64188146 Ry
     estimated scf accuracy    <       0.47031526 Ry

     total magnetization       =    23.00 Bohr mag/cell
     absolute magnetization    =    31.59 Bohr mag/cell

     iteration # 12     ecut=    40.00 Ry     beta=0.70
     Davidson diagonalization with overlap
     ethr =  1.92E-04,  avg # of iterations =  7.0

     negative rho (up, down):  0.232E-04 0.137E-04

     total cpu time spent up to now is     3883.7 secs

     total energy              =   -2352.33087781 Ry
     Harris-Foulkes estimate   =   -2352.59676701 Ry
     estimated scf accuracy    <       0.97461695 Ry

     total magnetization       =    23.00 Bohr mag/cell
     absolute magnetization    =    30.67 Bohr mag/cell

     iteration # 13     ecut=    40.00 Ry     beta=0.70
     Davidson diagonalization with overlap
     ethr =  1.92E-04,  avg # of iterations =  3.0

     negative rho (up, down):  0.292E-04 0.261E-04

     total cpu time spent up to now is     4148.2 secs

     total energy              =   -2352.35742890 Ry
     Harris-Foulkes estimate   =   -2352.53814171 Ry
     estimated scf accuracy    <       0.75276980 Ry

     total magnetization       =    23.00 Bohr mag/cell
     absolute magnetization    =    31.87 Bohr mag/cell

     iteration # 14     ecut=    40.00 Ry     beta=0.70
     Davidson diagonalization with overlap
     ethr =  1.92E-04,  avg # of iterations =  4.8

     negative rho (up, down):  0.471E-03 0.496E-04

     total cpu time spent up to now is     4438.0 secs

     total energy              =   -2352.22222212 Ry
     Harris-Foulkes estimate   =   -2352.77080164 Ry
     estimated scf accuracy    <       6.82722952 Ry

     total magnetization       =    23.00 Bohr mag/cell
     absolute magnetization    =    31.99 Bohr mag/cell

     iteration # 15     ecut=    40.00 Ry     beta=0.70
     Davidson diagonalization with overlap
     ethr =  1.92E-04,  avg # of iterations =  4.4

     negative rho (up, down):  0.204E-03 0.815E-04

     total cpu time spent up to now is     4721.2 secs

     total energy              =   -2352.43494844 Ry
     Harris-Foulkes estimate   =   -2352.51091064 Ry
     estimated scf accuracy    <       0.37444309 Ry

     total magnetization       =    23.00 Bohr mag/cell
     absolute magnetization    =    30.72 Bohr mag/cell

     iteration # 16     ecut=    40.00 Ry     beta=0.70
     Davidson diagonalization with overlap
     ethr =  1.53E-04,  avg # of iterations =  1.0

     negative rho (up, down):  0.267E-03 0.168E-03

     total cpu time spent up to now is     4968.3 secs

     total energy              =   -2352.46343967 Ry
     Harris-Foulkes estimate   =   -2352.50259177 Ry
     estimated scf accuracy    <       0.27406011 Ry

     total magnetization       =    23.00 Bohr mag/cell
     absolute magnetization    =    31.02 Bohr mag/cell

     iteration # 17     ecut=    40.00 Ry     beta=0.70
     Davidson diagonalization with overlap
     ethr =  1.12E-04,  avg # of iterations =  1.0

     negative rho (up, down):  0.131E-02 0.796E-03

     total cpu time spent up to now is     5214.9 secs

     total energy              =   -2352.47324038 Ry
     Harris-Foulkes estimate   =   -2352.48135654 Ry
     estimated scf accuracy    <       0.06196522 Ry

     total magnetization       =    23.00 Bohr mag/cell
     absolute magnetization    =    30.86 Bohr mag/cell

     iteration # 18     ecut=    40.00 Ry     beta=0.70
     Davidson diagonalization with overlap
     ethr =  2.53E-05,  avg # of iterations =  5.0

     negative rho (up, down):  0.320E-03 0.232E-03

     total cpu time spent up to now is     5489.8 secs

     total energy              =   -2352.47030304 Ry
     Harris-Foulkes estimate   =   -2352.48048001 Ry
     estimated scf accuracy    <       0.03511215 Ry

     total magnetization       =    23.00 Bohr mag/cell
     absolute magnetization    =    30.84 Bohr mag/cell

     iteration # 19     ecut=    40.00 Ry     beta=0.70
     Davidson diagonalization with overlap
     ethr =  1.43E-05,  avg # of iterations =  3.5

     negative rho (up, down):  0.769E-03 0.353E-03

     total cpu time spent up to now is     5758.1 secs

     total energy              =   -2352.45696638 Ry
     Harris-Foulkes estimate   =   -2352.49465085 Ry
     estimated scf accuracy    <       0.36347232 Ry

     total magnetization       =    23.00 Bohr mag/cell
     absolute magnetization    =    31.55 Bohr mag/cell

     iteration # 20     ecut=    40.00 Ry     beta=0.70
     Davidson diagonalization with overlap
     ethr =  1.43E-05,  avg # of iterations =  2.3

     negative rho (up, down):  0.870E-03 0.534E-03

     total cpu time spent up to now is     5998.3 secs

     total energy              =   -2352.47095913 Ry
     Harris-Foulkes estimate   =   -2352.48393897 Ry
     estimated scf accuracy    <       0.09747476 Ry

     total magnetization       =    23.00 Bohr mag/cell
     absolute magnetization    =    31.00 Bohr mag/cell

     iteration # 21     ecut=    40.00 Ry     beta=0.70
     Davidson diagonalization with overlap
     ethr =  1.43E-05,  avg # of iterations =  1.0

     negative rho (up, down):  0.102E-02 0.669E-03

     total cpu time spent up to now is     6226.6 secs

     total energy              =   -2352.47724345 Ry
     Harris-Foulkes estimate   =   -2352.47892847 Ry
     estimated scf accuracy    <       0.03890717 Ry

     total magnetization       =    23.00 Bohr mag/cell
     absolute magnetization    =    30.68 Bohr mag/cell

     iteration # 22     ecut=    40.00 Ry     beta=0.70
     Davidson diagonalization with overlap
     ethr =  1.43E-05,  avg # of iterations =  1.0

     negative rho (up, down):  0.170E-02 0.119E-02

     total cpu time spent up to now is     6455.5 secs

     total energy              =   -2352.47757400 Ry
     Harris-Foulkes estimate   =   -2352.47800710 Ry
     estimated scf accuracy    <       0.00560611 Ry

     total magnetization       =    23.00 Bohr mag/cell
     absolute magnetization    =    30.78 Bohr mag/cell

     iteration # 23     ecut=    40.00 Ry     beta=0.70
     Davidson diagonalization with overlap
     ethr =  2.29E-06,  avg # of iterations =  3.7

     negative rho (up, down):  0.169E-02 0.120E-02

     total cpu time spent up to now is     6718.5 secs

     total energy              =   -2352.47768675 Ry
     Harris-Foulkes estimate   =   -2352.47809693 Ry
     estimated scf accuracy    <       0.00291373 Ry

     total magnetization       =    23.00 Bohr mag/cell
     absolute magnetization    =    30.83 Bohr mag/cell

     iteration # 24     ecut=    40.00 Ry     beta=0.70
     Davidson diagonalization with overlap
     ethr =  1.19E-06,  avg # of iterations =  1.0

     negative rho (up, down):  0.173E-02 0.124E-02

     total cpu time spent up to now is     6953.7 secs

     total energy              =   -2352.47786432 Ry
     Harris-Foulkes estimate   =   -2352.47798739 Ry
     estimated scf accuracy    <       0.00135755 Ry

     total magnetization       =    23.00 Bohr mag/cell
     absolute magnetization    =    30.76 Bohr mag/cell

     iteration # 25     ecut=    40.00 Ry     beta=0.70
     Davidson diagonalization with overlap
     ethr =  5.54E-07,  avg # of iterations =  1.0

     negative rho (up, down):  0.180E-02 0.129E-02

     total cpu time spent up to now is     7189.1 secs

     total energy              =   -2352.47781938 Ry
     Harris-Foulkes estimate   =   -2352.47816039 Ry
     estimated scf accuracy    <       0.00235668 Ry

     total magnetization       =    23.00 Bohr mag/cell
     absolute magnetization    =    30.77 Bohr mag/cell

     iteration # 26     ecut=    40.00 Ry     beta=0.70
     Davidson diagonalization with overlap
     ethr =  5.54E-07,  avg # of iterations =  1.0

     negative rho (up, down):  0.196E-02 0.142E-02

     total cpu time spent up to now is     7444.1 secs

     total energy              =   -2352.47797261 Ry
     Harris-Foulkes estimate   =   -2352.47804823 Ry
     estimated scf accuracy    <       0.00067023 Ry

     total magnetization       =    23.00 Bohr mag/cell
     absolute magnetization    =    30.75 Bohr mag/cell

     iteration # 27     ecut=    40.00 Ry     beta=0.70
     Davidson diagonalization with overlap
     ethr =  2.74E-07,  avg # of iterations =  1.0

     negative rho (up, down):  0.196E-02 0.142E-02

     total cpu time spent up to now is     7676.9 secs

     total energy              =   -2352.47802526 Ry
     Harris-Foulkes estimate   =   -2352.47805153 Ry
     estimated scf accuracy    <       0.00016485 Ry

     total magnetization       =    23.00 Bohr mag/cell
     absolute magnetization    =    30.72 Bohr mag/cell

     iteration # 28     ecut=    40.00 Ry     beta=0.70
     Davidson diagonalization with overlap
     ethr =  6.73E-08,  avg # of iterations =  2.0

     negative rho (up, down):  0.194E-02 0.139E-02

     total cpu time spent up to now is     7918.6 secs

     total energy              =   -2352.47798120 Ry
     Harris-Foulkes estimate   =   -2352.47812790 Ry
     estimated scf accuracy    <       0.00088294 Ry

     total magnetization       =    23.00 Bohr mag/cell
     absolute magnetization    =    30.70 Bohr mag/cell

     iteration # 29     ecut=    40.00 Ry     beta=0.70
     Davidson diagonalization with overlap
     ethr =  6.73E-08,  avg # of iterations =  1.6

     negative rho (up, down):  0.196E-02 0.141E-02

     total cpu time spent up to now is     8151.8 secs

     total energy              =   -2352.47804689 Ry
     Harris-Foulkes estimate   =   -2352.47806521 Ry
     estimated scf accuracy    <       0.00017632 Ry

     total magnetization       =    23.00 Bohr mag/cell
     absolute magnetization    =    30.69 Bohr mag/cell

     iteration # 30     ecut=    40.00 Ry     beta=0.70
     Davidson diagonalization with overlap
     ethr =  6.73E-08,  avg # of iterations =  1.0

     negative rho (up, down):  0.195E-02 0.140E-02

     total cpu time spent up to now is     8385.7 secs

     total energy              =   -2352.47805636 Ry
     Harris-Foulkes estimate   =   -2352.47806920 Ry
     estimated scf accuracy    <       0.00010681 Ry

     total magnetization       =    23.00 Bohr mag/cell
     absolute magnetization    =    30.69 Bohr mag/cell

     iteration # 31     ecut=    40.00 Ry     beta=0.70
     Davidson diagonalization with overlap
     ethr =  4.36E-08,  avg # of iterations =  1.0

     negative rho (up, down):  0.194E-02 0.139E-02

     total cpu time spent up to now is     8623.7 secs

     total energy              =   -2352.47804943 Ry
     Harris-Foulkes estimate   =   -2352.47807211 Ry
     estimated scf accuracy    <       0.00022784 Ry

     total magnetization       =    23.00 Bohr mag/cell
     absolute magnetization    =    30.67 Bohr mag/cell

     iteration # 32     ecut=    40.00 Ry     beta=0.70
     Davidson diagonalization with overlap
     ethr =  4.36E-08,  avg # of iterations =  1.0

     negative rho (up, down):  0.192E-02 0.138E-02

     total cpu time spent up to now is     8866.1 secs

     total energy              =   -2352.47803619 Ry
     Harris-Foulkes estimate   =   -2352.47809399 Ry
     estimated scf accuracy    <       0.00077473 Ry

     total magnetization       =    23.00 Bohr mag/cell
     absolute magnetization    =    30.70 Bohr mag/cell

     iteration # 33     ecut=    40.00 Ry     beta=0.70
     Davidson diagonalization with overlap
     ethr =  4.36E-08,  avg # of iterations =  1.0

     negative rho (up, down):  0.192E-02 0.138E-02

     total cpu time spent up to now is     9102.2 secs

     total energy              =   -2352.47806087 Ry
     Harris-Foulkes estimate   =   -2352.47806911 Ry
     estimated scf accuracy    <       0.00005424 Ry

     total magnetization       =    23.00 Bohr mag/cell
     absolute magnetization    =    30.67 Bohr mag/cell

     iteration # 34     ecut=    40.00 Ry     beta=0.70
     Davidson diagonalization with overlap
     ethr =  2.21E-08,  avg # of iterations =  1.0

     negative rho (up, down):  0.192E-02 0.138E-02

     total cpu time spent up to now is     9352.0 secs

     total energy              =   -2352.47806425 Ry
     Harris-Foulkes estimate   =   -2352.47806780 Ry
     estimated scf accuracy    <       0.00003673 Ry

     total magnetization       =    23.00 Bohr mag/cell
     absolute magnetization    =    30.68 Bohr mag/cell

     iteration # 35     ecut=    40.00 Ry     beta=0.70
     Davidson diagonalization with overlap
     ethr =  1.50E-08,  avg # of iterations =  1.0

     negative rho (up, down):  0.192E-02 0.138E-02

     total cpu time spent up to now is     9597.3 secs

     total energy              =   -2352.47806423 Ry
     Harris-Foulkes estimate   =   -2352.47806809 Ry
     estimated scf accuracy    <       0.00002734 Ry

     total magnetization       =    23.00 Bohr mag/cell
     absolute magnetization    =    30.67 Bohr mag/cell

     iteration # 36     ecut=    40.00 Ry     beta=0.70
     Davidson diagonalization with overlap
     ethr =  1.12E-08,  avg # of iterations =  1.0

     negative rho (up, down):  0.192E-02 0.137E-02

     total cpu time spent up to now is     9842.7 secs

     total energy              =   -2352.47806495 Ry
     Harris-Foulkes estimate   =   -2352.47806718 Ry
     estimated scf accuracy    <       0.00001513 Ry

     total magnetization       =    23.00 Bohr mag/cell
     absolute magnetization    =    30.67 Bohr mag/cell

     iteration # 37     ecut=    40.00 Ry     beta=0.70
     Davidson diagonalization with overlap
     ethr =  6.18E-09,  avg # of iterations =  1.0

     negative rho (up, down):  0.191E-02 0.137E-02

     total cpu time spent up to now is    10088.3 secs

     total energy              =   -2352.47806622 Ry
     Harris-Foulkes estimate   =   -2352.47806674 Ry
     estimated scf accuracy    <       0.00000614 Ry

     total magnetization       =    23.00 Bohr mag/cell
     absolute magnetization    =    30.67 Bohr mag/cell

     iteration # 38     ecut=    40.00 Ry     beta=0.70
     Davidson diagonalization with overlap
     ethr =  2.51E-09,  avg # of iterations =  1.0

     negative rho (up, down):  0.191E-02 0.137E-02

     total cpu time spent up to now is    10333.3 secs

     total energy              =   -2352.47806610 Ry
     Harris-Foulkes estimate   =   -2352.47806729 Ry
     estimated scf accuracy    <       0.00000578 Ry

     total magnetization       =    23.00 Bohr mag/cell
     absolute magnetization    =    30.67 Bohr mag/cell

     iteration # 39     ecut=    40.00 Ry     beta=0.70
     Davidson diagonalization with overlap
     ethr =  2.36E-09,  avg # of iterations =  1.0

     negative rho (up, down):  0.191E-02 0.137E-02

     total cpu time spent up to now is    10578.5 secs

     total energy              =   -2352.47806668 Ry
     Harris-Foulkes estimate   =   -2352.47806689 Ry
     estimated scf accuracy    <       0.00000328 Ry

     total magnetization       =    23.00 Bohr mag/cell
     absolute magnetization    =    30.67 Bohr mag/cell

     iteration # 40     ecut=    40.00 Ry     beta=0.70
     Davidson diagonalization with overlap
     ethr =  1.34E-09,  avg # of iterations =  1.0

     negative rho (up, down):  0.191E-02 0.137E-02

     total cpu time spent up to now is    10823.3 secs

     total energy              =   -2352.47806694 Ry
     Harris-Foulkes estimate   =   -2352.47806703 Ry
     estimated scf accuracy    <       0.00000257 Ry

     total magnetization       =    23.00 Bohr mag/cell
     absolute magnetization    =    30.66 Bohr mag/cell

     iteration # 41     ecut=    40.00 Ry     beta=0.70
     Davidson diagonalization with overlap
     ethr =  1.05E-09,  avg # of iterations =  1.0

     negative rho (up, down):  0.191E-02 0.137E-02

     total cpu time spent up to now is    11067.2 secs

     total energy              =   -2352.47806714 Ry
     Harris-Foulkes estimate   =   -2352.47806719 Ry
     estimated scf accuracy    <       0.00000113 Ry

     total magnetization       =    23.00 Bohr mag/cell
     absolute magnetization    =    30.66 Bohr mag/cell

     iteration # 42     ecut=    40.00 Ry     beta=0.70
     Davidson diagonalization with overlap
     ethr =  4.63E-10,  avg # of iterations =  1.0

     negative rho (up, down):  0.191E-02 0.137E-02

     total cpu time spent up to now is    11306.2 secs

     End of self-consistent calculation
 --- enter write_ns ---
 LDA+U parameters:
U( 2)     =  4.50000000
alpha( 2) =  0.00000000
atom    3   Tr[ns(na)] (up, down, total) =   4.32954  1.08987  5.41941
   spin  1
    eigenvalues: 
  0.655  0.674  0.998  0.998  1.004
    eigenvectors:
  0.161  0.075  0.747  0.002  0.014
  0.341  0.658  0.000  0.001  0.000
  0.000  0.000  0.016  0.000  0.984
  0.497  0.267  0.234  0.000  0.002
  0.000  0.000  0.002  0.997  0.000
    occupations:
  0.918  0.008 -0.003 -0.143  0.001
  0.008  0.668  0.000  0.006 -0.010
 -0.003  0.000  1.004 -0.004  0.000
 -0.143  0.006 -0.004  0.741  0.001
  0.001 -0.010  0.000  0.001  0.998
   spin  2
    eigenvalues: 
  0.092  0.121  0.142  0.361  0.374
    eigenvectors:
  0.785  0.000  0.004  0.039  0.172
  0.000  0.002  0.000  0.818  0.179
  0.004  0.026  0.969  0.000  0.000
  0.211  0.000  0.000  0.141  0.648
  0.000  0.971  0.027  0.002  0.000
    occupations:
  0.152 -0.002 -0.002  0.114 -0.000
 -0.002  0.362  0.000 -0.005  0.011
 -0.002  0.000  0.142  0.004 -0.003
  0.114 -0.005  0.004  0.313 -0.000
 -0.000  0.011 -0.003 -0.000  0.122
atomic mag. moment =     3.239664
atom    4   Tr[ns(na)] (up, down, total) =   4.31160  1.10896  5.42057
   spin  1
    eigenvalues: 
  0.633  0.676  0.996  1.002  1.004
    eigenvectors:
  0.000  0.998  0.000  0.000  0.001
  0.000  0.001  0.000  0.001  0.998
  0.000  0.000  0.000  0.999  0.001
  0.000  0.000  0.999  0.000  0.000
  1.000  0.000  0.000  0.000  0.000
    occupations:
  0.677 -0.010 -0.004  0.007 -0.000
 -0.010  1.004 -0.000  0.000  0.001
 -0.004 -0.000  1.002  0.000  0.000
  0.007  0.000  0.000  0.996  0.000
 -0.000  0.001  0.000  0.000  0.633
   spin  2
    eigenvalues: 
  0.090  0.123  0.143  0.372  0.381
    eigenvectors:
  0.003  0.003  0.000  0.000  0.994
  0.001  0.900  0.096  0.000  0.003
  0.001  0.096  0.904  0.000  0.000
  0.996  0.002  0.000  0.000  0.003
  0.000  0.000  0.000  0.999  0.000
    occupations:
  0.379  0.013  0.005 -0.015 -0.000
  0.013  0.125 -0.006  0.000 -0.003
  0.005 -0.006  0.141  0.001  0.000
 -0.015  0.000  0.001  0.091 -0.000
 -0.000 -0.003  0.000 -0.000  0.372
atomic mag. moment =     3.202643
atom    9   Tr[ns(na)] (up, down, total) =   4.28190  1.18953  5.47143
   spin  1
    eigenvalues: 
  0.659  0.670  0.968  0.988  0.997
    eigenvectors:
  0.185  0.000  0.000  0.005  0.810
  0.004  0.996  0.000  0.000  0.000
  0.000  0.000  0.002  0.993  0.004
  0.811  0.004  0.000  0.000  0.185
  0.000  0.000  0.998  0.002  0.000
    occupations:
  0.934 -0.002 -0.002 -0.132  0.000
 -0.002  0.670  0.000  0.000 -0.000
 -0.002  0.000  0.988 -0.005 -0.001
 -0.132  0.000 -0.005  0.721  0.002
  0.000 -0.000 -0.001  0.002  0.968
   spin  2
    eigenvalues: 
  0.126  0.134  0.141  0.381  0.408
    eigenvectors:
  0.842  0.002  0.000  0.156  0.000
  0.000  0.000  0.000  0.004  0.996
  0.001  0.996  0.003  0.001  0.000
  0.157  0.000  0.000  0.839  0.004
  0.000  0.003  0.997  0.000  0.000
    occupations:
  0.166  0.001  0.002  0.092 -0.000
  0.001  0.408 -0.000 -0.002  0.000
  0.002 -0.000  0.134  0.006 -0.000
  0.092 -0.002  0.006  0.341 -0.001
 -0.000  0.000 -0.000 -0.001  0.141
atomic mag. moment =     3.092366
atom   10   Tr[ns(na)] (up, down, total) =   4.50407  0.85883  5.36290
   spin  1
    eigenvalues: 
  0.636  0.873  0.996  0.997  1.002
    eigenvectors:
  0.000  0.987  0.012  0.000  0.001
  0.000  0.000  0.000  1.000  0.000
  0.000  0.000  0.008  0.000  0.992
  0.000  0.013  0.980  0.000  0.007
  1.000  0.000  0.000  0.000  0.000
    occupations:
  0.875 -0.000  0.002  0.014  0.000
 -0.000  0.997  0.000  0.000 -0.004
  0.002  0.000  1.001  0.000 -0.000
  0.014  0.000  0.000  0.995 -0.000
  0.000 -0.004 -0.000 -0.000  0.636
   spin  2
    eigenvalues: 
  0.079  0.109  0.111  0.217  0.342
    eigenvectors:
  0.013  0.000  0.000  0.987  0.000
  0.000  0.000  0.999  0.000  0.001
  0.001  0.999  0.000  0.000  0.000
  0.987  0.001  0.000  0.012  0.000
  0.000  0.000  0.001  0.000  0.999
    occupations:
  0.216 -0.000 -0.002 -0.015  0.000
 -0.000  0.111 -0.000  0.000  0.006
 -0.002 -0.000  0.109 -0.001  0.000
 -0.015  0.000 -0.001  0.081 -0.000
  0.000  0.006  0.000 -0.000  0.342
atomic mag. moment =     3.645243
atom   16   Tr[ns(na)] (up, down, total) =   4.32938  1.09004  5.41941
   spin  1
    eigenvalues: 
  0.655  0.674  0.998  0.998  1.004
    eigenvectors:
  0.165  0.072  0.750  0.000  0.013
  0.326  0.673  0.000  0.001  0.000
  0.000  0.000  0.014  0.000  0.985
  0.509  0.255  0.235  0.000  0.002
  0.000  0.001  0.000  0.999  0.000
    occupations:
  0.918 -0.008 -0.003 -0.143 -0.000
 -0.008  0.668 -0.001 -0.006 -0.010
 -0.003 -0.001  1.004 -0.004  0.000
 -0.143 -0.006 -0.004  0.741 -0.000
 -0.000 -0.010  0.000 -0.000  0.998
   spin  2
    eigenvalues: 
  0.092  0.121  0.142  0.361  0.374
    eigenvectors:
  0.785  0.000  0.004  0.038  0.174
  0.000  0.002  0.000  0.824  0.174
  0.004  0.026  0.970  0.000  0.000
  0.211  0.000  0.000  0.136  0.652
  0.000  0.972  0.026  0.002  0.000
    occupations:
  0.152  0.002 -0.002  0.114 -0.000
  0.002  0.362 -0.000  0.005  0.011
 -0.002 -0.000  0.142  0.004  0.003
  0.114  0.005  0.004  0.313 -0.000
 -0.000  0.011  0.003 -0.000  0.122
atomic mag. moment =     3.239339
atom   17   Tr[ns(na)] (up, down, total) =   4.31048  1.10872  5.41920
   spin  1
    eigenvalues: 
  0.634  0.675  0.996  1.002  1.004
    eigenvectors:
  0.000  0.998  0.000  0.000  0.001
  0.000  0.001  0.000  0.009  0.990
  0.000  0.000  0.000  0.991  0.009
  0.000  0.000  0.999  0.000  0.000
  1.000  0.000  0.000  0.000  0.000
    occupations:
  0.675 -0.010 -0.004  0.006 -0.000
 -0.010  1.003  0.000  0.000  0.001
 -0.004  0.000  1.002  0.000  0.000
  0.006  0.000  0.000  0.996  0.000
 -0.000  0.001  0.000  0.000  0.634
   spin  2
    eigenvalues: 
  0.091  0.123  0.142  0.372  0.381
    eigenvectors:
  0.003  0.003  0.000  0.000  0.994
  0.001  0.900  0.096  0.000  0.003
  0.001  0.095  0.904  0.000  0.000
  0.996  0.002  0.000  0.000  0.003
  0.000  0.000  0.000  0.999  0.000
    occupations:
  0.379  0.013  0.005 -0.015 -0.000
  0.013  0.126 -0.005  0.000 -0.003
  0.005 -0.005  0.140  0.001  0.000
 -0.015  0.000  0.001  0.091 -0.000
 -0.000 -0.003  0.000 -0.000  0.372
atomic mag. moment =     3.201761
atom   22   Tr[ns(na)] (up, down, total) =   4.28172  1.18976  5.47148
   spin  1
    eigenvalues: 
  0.658  0.670  0.968  0.988  0.997
    eigenvectors:
  0.181  0.004  0.000  0.005  0.810
  0.029  0.971  0.000  0.000  0.000
  0.000  0.000  0.002  0.993  0.005
  0.790  0.024  0.000  0.000  0.185
  0.000  0.000  0.998  0.002  0.000
    occupations:
  0.935  0.003 -0.002 -0.132 -0.000
  0.003  0.670 -0.000  0.001 -0.000
 -0.002 -0.000  0.988 -0.005  0.001
 -0.132  0.001 -0.005  0.721 -0.002
 -0.000 -0.000  0.001 -0.002  0.968
   spin  2
    eigenvalues: 
  0.126  0.134  0.141  0.381  0.408
    eigenvectors:
  0.842  0.002  0.000  0.156  0.000
  0.000  0.000  0.000  0.004  0.996
  0.001  0.996  0.002  0.001  0.000
  0.157  0.000  0.000  0.840  0.003
  0.000  0.002  0.998  0.000  0.000
    occupations:
  0.166 -0.001  0.002  0.092  0.000
 -0.001  0.408  0.000  0.002  0.000
  0.002  0.000  0.134  0.006  0.000
  0.092  0.002  0.006  0.341  0.001
  0.000  0.000  0.000  0.001  0.141
atomic mag. moment =     3.091956
atom   23   Tr[ns(na)] (up, down, total) =   4.33391  1.07329  5.40719
   spin  1
    eigenvalues: 
  0.665  0.679  0.990  0.998  1.001
    eigenvectors:
  0.000  0.998  0.000  0.001  0.002
  0.000  0.000  1.000  0.000  0.000
  0.000  0.002  0.000  0.058  0.940
  0.000  0.000  0.000  0.942  0.058
  1.000  0.000  0.000  0.000  0.000
    occupations:
  0.680 -0.000  0.015  0.004 -0.000
 -0.000  0.990 -0.000 -0.000 -0.001
  0.015 -0.000  1.000 -0.001  0.000
  0.004 -0.000 -0.001  0.998  0.000
 -0.000 -0.001  0.000  0.000  0.665
   spin  2
    eigenvalues: 
  0.094  0.109  0.150  0.336  0.385
    eigenvectors:
  0.002  0.002  0.000  0.996  0.000
  0.000  0.000  1.000  0.000  0.000
  0.000  0.998  0.000  0.002  0.000
  0.998  0.000  0.000  0.002  0.000
  0.000  0.000  0.000  0.000  1.000
    occupations:
  0.335  0.000 -0.010 -0.010  0.000
  0.000  0.150  0.000  0.000  0.005
 -0.010  0.000  0.109  0.001  0.000
 -0.010  0.000  0.001  0.094  0.000
  0.000  0.005  0.000  0.000  0.385
atomic mag. moment =     3.260620
N of occupied +U levels =  43.3915980
 --- exit write_ns ---

 ------ SPIN UP ------------


          k = 0.0000 0.0000 0.0000 ( 26393 PWs)   bands (ev):

   -83.8179 -83.7003 -83.6902 -83.4379 -83.4076 -83.3493 -83.3156 -83.3050
   -52.5053 -52.5019 -52.4956 -52.4573 -52.3831 -52.3462 -52.3327 -52.3287
   -52.3127 -52.2499 -52.1343 -52.1227 -52.1026 -52.0964 -52.0706 -52.0475
   -52.0330 -52.0228 -51.9918 -51.9846 -51.9529 -51.9464 -51.9191 -51.9002
   -24.2609 -21.1504 -20.5150 -20.4949 -20.1566 -19.6799 -19.3896 -19.3299
   -19.2980 -19.1794 -19.1598 -19.0960 -18.9485 -18.9211 -18.8757 -18.8004
   -18.5629 -18.3582 -18.1181 -17.6616  -9.9863  -9.8963  -9.7746  -9.5973
    -9.3735  -9.0864  -8.9308  -8.7652  -8.7353  -8.6829  -8.2257  -8.1262
    -8.0807  -8.0216  -7.9532  -7.9371  -7.8134  -7.7813  -7.6584  -7.6247
    -7.3685  -7.3063  -7.2872  -7.1670  -7.1630  -7.0788  -6.9280  -6.8447
    -6.8231  -6.7879  -6.6594  -6.5683  -6.4656  -6.3808  -6.2007  -6.1767
    -6.1554  -6.1284  -5.9642  -5.9428  -5.7949  -5.6333  -5.4149  -5.3910
    -5.2906  -5.1319  -5.0863  -5.0311  -4.9901  -4.9772  -4.7853  -4.6468
    -4.5172  -4.4783  -4.3512  -4.2867  -4.1689  -4.1424  -4.0333  -3.8803
    -3.7133  -3.6308  -3.5507  -3.4680  -3.1080  -2.9302  -2.7125  -2.5781
    -2.4962  -2.4772  -2.4220  -2.2239  -2.1154  -2.0308  -1.9878  -1.9109
    -1.8916  -1.8649  -1.7901  -1.7039  -1.5470  -1.5190  -1.2695  -1.2035
    -1.1004  -0.5377  -0.1747   0.0625   0.0976   0.2127   0.3163   0.6065
     0.6746   0.6884   1.1115   1.2886   1.4657   1.5648   1.7580   2.7089
     3.4036   3.6082   3.7793   4.3351   4.9365   5.5538   5.9637   6.4757
     6.9357   7.0338   7.2148   7.4192   7.4735   7.5683   7.5690   7.6239
     7.7952   7.9216   7.9277   8.1300   8.2653   8.3051   8.3360   8.5868
     8.7240   8.9103   8.9321   9.0392   9.1553   9.3277   9.5379   9.6656
     9.7047   9.7933   9.9799  10.0471  10.1147  10.2029  10.4461  10.5227
    10.5768  10.7214  10.8567  10.8870  11.0864  11.1050  11.1879  11.1978
    11.3383  11.4163  11.4500  11.5259  11.6379  11.8105  11.8319  11.8651
    11.8891  12.1011  12.1323  12.1407  12.2133  12.2226  12.2423  12.4088
    12.4959  12.5431  12.5582  12.6506  12.7476  12.8607  12.9067  13.0314
    13.0677  13.1960  13.2403  13.3631  13.3694  13.4284  13.5226  13.5773
    13.7259  13.7744  13.8008  13.8198  13.9199  13.9570  14.1038  14.1279
    14.3227  14.4230  14.5007  14.5592  14.6028  14.6228  14.7051  14.8716
    15.0616  15.0676  15.0912  15.1310  15.1904  15.3151  15.3671  15.4083
    15.4325  15.5236  15.6446  15.6991  15.7761  15.8280  16.0149  16.0497
    16.3721  16.5022  16.5280  16.5652  16.6610  16.7685  16.8457  16.9190
    16.9330  17.1922  17.1967  17.3361  17.4056  17.5561  17.6084  17.6795
    17.7679  17.8379  17.9435  18.0821  18.1861  18.2747  18.4017  18.4131
    18.5169  18.5446  18.6633  18.8517  18.9850  19.0587  19.1292  19.1534
    19.2010  19.2808  19.3578  19.3987  19.4584  19.4984  19.5797  19.6188
    19.7397  19.8092  19.8980  19.9729  20.0412  20.1348  20.1444  20.2569
    20.3038  20.3787  20.4042  20.6363  20.6802  20.7171  20.8621  20.9386
    21.0509  21.0763  21.1884  21.3444  21.3864  21.5186  21.5424  21.5644
    21.5924  21.6673  21.7277  21.8839  21.9353  21.9535  21.9765  22.1514
    22.1859  22.2060  22.2890  22.3703  22.4307  22.4735  22.4766  22.5867
    22.6028  22.6316  22.8103  22.8395  22.8783  22.9529  23.0065  23.1420
    23.1992  23.2871  23.3431

          k = 0.0000 0.2303 0.0000 ( 26455 PWs)   bands (ev):

   -83.8179 -83.7003 -83.6902 -83.4379 -83.4076 -83.3493 -83.3155 -83.3050
   -52.5054 -52.5018 -52.4956 -52.4572 -52.3832 -52.3460 -52.3329 -52.3285
   -52.3128 -52.2493 -52.1346 -52.1229 -52.1029 -52.0964 -52.0707 -52.0452
   -52.0325 -52.0251 -51.9919 -51.9846 -51.9529 -51.9466 -51.9191 -51.9003
   -24.2606 -21.0919 -20.4929 -20.3990 -20.1484 -19.7071 -19.4458 -19.4287
   -19.3928 -19.2876 -19.1059 -19.0599 -19.0177 -18.8977 -18.8330 -18.7716
   -18.5693 -18.3599 -18.1119 -17.6556  -9.8701  -9.6747  -9.6048  -9.5880
    -9.5177  -9.1334  -9.1101  -8.8169  -8.8052  -8.6853  -8.0982  -8.0692
    -7.9642  -7.9388  -7.8970  -7.7048  -7.6499  -7.6154  -7.5156  -7.4292
    -7.4131  -7.3806  -7.2949  -7.2687  -7.1605  -7.1176  -6.8814  -6.8085
    -6.7763  -6.7118  -6.6820  -6.6215  -6.5698  -6.5066  -6.3696  -6.2524
    -6.2060  -6.1186  -6.0753  -6.0494  -6.0069  -5.8334  -5.5003  -5.3423
    -5.3324  -5.1503  -5.1379  -5.0132  -4.9712  -4.9641  -4.7596  -4.6763
    -4.6181  -4.5137  -4.4046  -4.2521  -4.1803  -4.1014  -3.8585  -3.7746
    -3.6937  -3.5674  -3.4773  -3.2587  -3.0736  -2.9180  -2.7945  -2.7418
    -2.6574  -2.4964  -2.4685  -2.3972  -2.3178  -2.2468  -2.0494  -1.9080
    -1.8467  -1.8221  -1.7738  -1.7208  -1.5271  -1.5223  -1.3081  -1.2205
    -1.0851  -0.9103  -0.8002  -0.1237  -0.0453   0.3153   0.6006   0.7243
     0.9845   1.1673   1.3599   1.4712   1.5190   1.6119   1.7663   2.8388
     3.4798   3.8198   4.0262   4.5499   5.1399   5.3103   5.7103   5.8226
     6.0108   6.3534   6.6127   7.1307   7.3372   7.6104   7.6810   7.7883
     8.0038   8.0874   8.2347   8.3682   8.5350   8.5365   8.8303   8.9765
     8.9861   9.1146   9.1339   9.2877   9.4725   9.5378   9.6614   9.6864
     9.7771   9.8907   9.9472  10.0188  10.2414  10.3150  10.3864  10.4037
    10.4759  10.4942  10.5556  10.7453  10.8058  10.8665  10.8897  10.9711
    11.0672  11.0890  11.2833  11.4324  11.5091  11.6428  11.6769  11.7015
    11.8000  11.8892  12.0088  12.1520  12.1728  12.2798  12.3270  12.4904
    12.7216  12.7382  12.7856  12.8323  12.8520  13.1416  13.3082  13.3229
    13.3763  13.4826  13.5056  13.6855  13.7953  13.8224  13.8525  13.8923
    14.1101  14.1597  14.2005  14.2340  14.3562  14.3851  14.4026  14.4561
    14.5144  14.6441  14.6689  14.7318  14.7517  14.8591  14.9349  15.0332
    15.0590  15.1527  15.1870  15.2812  15.3596  15.3699  15.4295  15.4509
    15.4738  15.6440  15.7207  15.7369  15.8593  15.8789  15.9258  16.0207
    16.0523  16.0742  16.1905  16.3144  16.4372  16.5412  16.5704  16.6799
    16.7223  16.7809  17.0106  17.0292  17.1448  17.2287  17.2309  17.3614
    17.4435  17.5650  17.6804  17.6906  17.8863  17.9266  18.1150  18.2657
    18.3017  18.3475  18.4863  18.5526  18.6446  18.6646  18.8421  18.9287
    18.9536  19.1429  19.2088  19.2833  19.3111  19.3989  19.4277  19.4797
    19.6753  19.7183  19.8425  19.9830  20.0266  20.1781  20.2156  20.2801
    20.3302  20.3922  20.4271  20.4675  20.5283  20.5685  20.6516  20.6970
    20.7475  20.8833  20.8855  20.9800  21.1508  21.2111  21.2308  21.3026
    21.3785  21.4189  21.4975  21.5677  21.6397  21.6820  21.7733  21.8311
    21.8737  22.0142  22.0635  22.1187  22.1439  22.2744  22.4063  22.4501
    22.4928  22.5448  22.6551  22.6887  22.7836  22.8861  22.9497  23.0114
    23.0537  23.1007  23.1199

          k = 0.0000-0.4606 0.0000 ( 26364 PWs)   bands (ev):

   -83.8179 -83.7002 -83.6902 -83.4379 -83.4077 -83.3493 -83.3155 -83.3050
   -52.5053 -52.5017 -52.4955 -52.4571 -52.3831 -52.3457 -52.3331 -52.3282
   -52.3129 -52.2487 -52.1349 -52.1230 -52.1030 -52.0963 -52.0707 -52.0421
   -52.0320 -52.0281 -51.9918 -51.9846 -51.9528 -51.9465 -51.9191 -51.9002
   -24.2602 -21.0265 -20.4903 -20.2460 -20.0943 -19.8090 -19.6646 -19.4590
   -19.4391 -19.2571 -19.1445 -19.0680 -19.0360 -18.8862 -18.7858 -18.7538
   -18.5765 -18.3616 -18.1079 -17.6494  -9.8226  -9.7462  -9.5505  -9.4249
    -9.2938  -9.2462  -9.1363  -8.8442  -8.7576  -8.4549  -8.1590  -7.9655
    -7.9639  -7.9278  -7.8436  -7.7277  -7.6397  -7.5131  -7.4381  -7.4077
    -7.3979  -7.3342  -7.2724  -7.1604  -7.1311  -6.8808  -6.8472  -6.8058
    -6.7878  -6.7297  -6.7190  -6.6702  -6.5861  -6.5746  -6.4300  -6.3965
    -6.3623  -6.3022  -6.2447  -6.1436  -5.9779  -5.6572  -5.5812  -5.5599
    -5.3243  -5.3037  -5.1564  -5.0691  -5.0536  -4.9026  -4.8868  -4.8386
    -4.5644  -4.4835  -4.4824  -4.2348  -4.1272  -4.0154  -3.8218  -3.6311
    -3.5538  -3.4779  -3.4190  -3.0261  -2.9196  -2.8665  -2.8118  -2.7889
    -2.7419  -2.6475  -2.6148  -2.5732  -2.4282  -2.3539  -2.1092  -2.0708
    -1.9028  -1.8794  -1.7763  -1.6993  -1.5644  -1.5292  -1.5092  -1.4469
    -1.3432  -1.1832  -0.6193  -0.0742   0.3462   0.3989   0.5927   0.8395
     0.8510   1.0432   1.3408   1.5427   1.7677   1.8464   2.0863   3.0009
     3.6044   4.3018   4.4853   4.5975   4.7545   4.9805   5.2467   5.5421
     5.7491   6.1199   6.3267   6.9055   7.1912   7.6851   7.8303   7.8363
     8.1769   8.2457   8.4896   8.5524   8.6033   8.6620   8.7748   8.8544
     9.0395   9.1176   9.2168   9.2392   9.3154   9.3836   9.5532   9.7477
     9.7706   9.8715   9.8969   9.9958  10.0628  10.1772  10.2241  10.4026
    10.4310  10.5227  10.6929  10.7987  10.8640  11.0805  11.1565  11.2664
    11.3466  11.4095  11.4336  11.4835  11.5447  11.6331  11.7590  11.9592
    12.0366  12.1924  12.2200  12.3384  12.3928  12.4772  12.5013  12.5052
    12.7173  12.7665  12.8143  12.9726  13.0196  13.0845  13.2786  13.2898
    13.3584  13.4578  13.5548  13.6120  13.7177  13.7239  13.8510  13.9869
    14.0196  14.0306  14.0559  14.3135  14.3295  14.3573  14.5691  14.6006
    14.6195  14.6444  14.6767  14.7149  14.7910  14.8602  14.9303  14.9992
    15.2408  15.2601  15.3472  15.4040  15.4372  15.4852  15.5383  15.5669
    15.6676  15.7468  15.7612  15.8860  16.0147  16.0765  16.1215  16.2927
    16.3257  16.3850  16.4245  16.4883  16.6332  16.6701  16.7822  16.9444
    16.9943  17.0189  17.0719  17.1096  17.1810  17.2113  17.2720  17.2957
    17.4177  17.5164  17.6512  17.6987  17.7976  17.8204  17.8755  17.9038
    18.0048  18.1332  18.1531  18.1963  18.2321  18.4090  18.4307  18.5346
    18.6197  18.6919  18.7524  18.8849  18.9152  19.0309  19.0842  19.1238
    19.1723  19.1870  19.3345  19.4302  19.4656  19.4961  19.7504  19.8002
    19.9850  20.0462  20.1185  20.2107  20.2778  20.3798  20.4090  20.4747
    20.5855  20.6714  20.7062  20.7600  20.8478  20.8983  20.9346  21.0063
    21.0568  21.1256  21.1835  21.2158  21.3489  21.4796  21.5446  21.5764
    21.7406  21.8389  21.8847  22.0063  22.0508  22.2723  22.3496  22.5048
    22.5592  22.5734  22.6294  22.6700  22.7708  22.7895  22.8429  22.8461
    22.9043  22.9502  22.9972

          k = 0.2500 0.0000 0.0000 ( 26392 PWs)   bands (ev):

   -83.8176 -83.6986 -83.6914 -83.4372 -83.4078 -83.3491 -83.3138 -83.3063
   -52.5020 -52.5016 -52.4795 -52.4572 -52.3998 -52.3441 -52.3346 -52.3266
   -52.3153 -52.2335 -52.1470 -52.1260 -52.1069 -52.0978 -52.0528 -52.0463
   -52.0349 -52.0222 -51.9918 -51.9843 -51.9652 -51.9532 -51.9163 -51.9030
   -24.2607 -21.0374 -20.5618 -20.3860 -20.0618 -19.7523 -19.5512 -19.4728
   -19.2340 -19.1312 -19.0769 -19.0669 -18.9774 -18.9373 -18.9039 -18.8056
   -18.6005 -18.3798 -18.1711 -17.6603  -9.7491  -9.6807  -9.6385  -9.5398
    -9.2995  -8.8432  -8.7947  -8.6300  -8.6054  -8.5540  -8.4022  -8.3285
    -8.3106  -8.1560  -8.0657  -7.9740  -7.8822  -7.7933  -7.7295  -7.6571
    -7.4524  -7.3642  -7.3134  -7.2753  -7.0966  -7.0558  -7.0114  -6.9076
    -6.8926  -6.6607  -6.6291  -6.5894  -6.4431  -6.3679  -6.2831  -6.2686
    -6.2089  -6.1783  -6.1511  -6.0191  -5.9809  -5.7722  -5.5621  -5.4842
    -5.4177  -5.3143  -5.1068  -5.0474  -4.9427  -4.8601  -4.6590  -4.5106
    -4.4725  -4.3321  -4.1076  -4.0940  -4.0272  -3.9124  -3.8873  -3.8167
    -3.6603  -3.6110  -3.5365  -3.3480  -3.0937  -3.0578  -2.7690  -2.5854
    -2.5186  -2.4447  -2.3222  -2.2057  -2.1122  -2.0788  -2.0555  -2.0294
    -1.8903  -1.8205  -1.7489  -1.6889  -1.6423  -1.5301  -1.4628  -1.3846
    -0.9880  -0.3389  -0.1868   0.1358   0.1764   0.2037   0.2527   0.3354
     0.6969   0.8305   0.8636   0.9890   1.1842   1.4165   1.6523   2.8969
     3.5256   3.8738   4.0831   4.6292   5.2104   5.3193   6.0002   6.1148
     6.2358   6.5310   6.8038   7.0602   7.2212   7.3236   7.5200   7.6955
     7.7775   7.9138   8.0428   8.1177   8.2345   8.4598   8.5362   8.7430
     8.9230   9.0152   9.2350   9.2793   9.4628   9.4810   9.6902   9.7960
     9.8949   9.9868  10.0540  10.0744  10.1504  10.2971  10.3258  10.4118
    10.5142  10.5818  10.5994  10.7202  10.7747  10.8546  10.9293  10.9998
    11.1232  11.2016  11.3653  11.5238  11.5838  11.6358  11.6960  11.7435
    11.7975  11.8424  11.9671  12.1087  12.2146  12.3866  12.4747  12.4908
    12.6174  12.6701  12.8014  12.8456  13.0235  13.1939  13.2225  13.3655
    13.4407  13.4719  13.5386  13.5942  13.7059  13.8164  13.8680  13.9613
    14.0113  14.1049  14.1967  14.2796  14.3008  14.3738  14.5315  14.6236
    14.6475  14.7056  14.7893  14.8387  14.9107  14.9543  15.0306  15.1406
    15.1589  15.2424  15.3391  15.3915  15.4354  15.4789  15.5636  15.5774
    15.7844  15.8387  15.8651  15.9740  15.9960  16.1270  16.1707  16.3323
    16.3885  16.4930  16.5973  16.6517  16.7697  16.7888  16.8262  16.9514
    17.1101  17.1511  17.2254  17.3334  17.3959  17.4658  17.5757  17.6366
    17.7106  17.7489  17.8006  17.9311  17.9788  18.0513  18.1584  18.1943
    18.3312  18.4085  18.4505  18.6838  18.7442  18.7965  18.8292  18.9415
    19.0007  19.1257  19.1806  19.2835  19.3353  19.3546  19.4047  19.4936
    19.5651  19.6381  19.7223  19.7613  19.8567  19.9303  19.9870  20.0314
    20.1131  20.2259  20.2995  20.3499  20.4457  20.4849  20.5838  20.6549
    20.7243  20.7364  20.8799  20.9300  21.0278  21.0833  21.1928  21.2865
    21.3512  21.3840  21.4810  21.5503  21.5924  21.6225  21.6747  21.7625
    21.7747  21.8506  21.8874  21.9222  22.0166  22.0737  22.0890  22.1285
    22.1541  22.1808  22.2462  22.2633  22.3267  22.3613  22.4500  22.5160
    22.5777  22.6127  22.6626

          k = 0.2500 0.2303 0.0000 ( 26396 PWs)   bands (ev):

   -83.8176 -83.6986 -83.6914 -83.4372 -83.4078 -83.3491 -83.3137 -83.3063
   -52.5021 -52.5016 -52.4795 -52.4572 -52.3998 -52.3440 -52.3347 -52.3264
   -52.3154 -52.2330 -52.1471 -52.1262 -52.1072 -52.0978 -52.0531 -52.0437
   -52.0344 -52.0245 -51.9918 -51.9843 -51.9652 -51.9532 -51.9163 -51.9030
   -24.2604 -20.9893 -20.5569 -20.2776 -20.0320 -19.7492 -19.5427 -19.4491
   -19.3628 -19.2396 -19.1838 -19.1442 -19.0225 -18.8966 -18.8296 -18.7785
   -18.6013 -18.3825 -18.1659 -17.6543  -9.6721  -9.5860  -9.4276  -9.4140
    -9.3470  -8.9325  -8.8639  -8.6908  -8.6472  -8.5275  -8.2561  -8.2258
    -8.1676  -8.1079  -8.0644  -7.9296  -7.8349  -7.6959  -7.5210  -7.4862
    -7.4547  -7.3494  -7.2284  -7.1936  -7.1335  -6.9797  -6.9428  -6.8999
    -6.8380  -6.8013  -6.7081  -6.6161  -6.5670  -6.5458  -6.5155  -6.3659
    -6.3455  -6.3137  -6.2516  -6.1939  -6.0933  -6.0349  -5.5974  -5.4654
    -5.3977  -5.2657  -5.0077  -4.9372  -4.8989  -4.8759  -4.6456  -4.5569
    -4.5427  -4.3592  -4.2946  -4.2101  -3.9884  -3.8748  -3.7915  -3.6568
    -3.6017  -3.5316  -3.5014  -3.2352  -3.1500  -3.0155  -2.7685  -2.6393
    -2.5597  -2.5256  -2.4969  -2.2997  -2.2286  -2.1580  -1.9959  -1.9577
    -1.9384  -1.8685  -1.8421  -1.7610  -1.5494  -1.5161  -1.4483  -1.3840
    -0.8880  -0.7601  -0.6437  -0.0786   0.0118   0.2474   0.2615   0.5491
     0.7142   1.0516   1.1951   1.2657   1.4650   1.5954   1.6526   2.9903
     3.6168   4.0993   4.3212   4.8367   5.3299   5.4495   5.7751   6.0396
     6.2220   6.3009   6.3631   6.5445   6.7593   6.9365   7.1551   7.4932
     7.6167   7.7970   7.9069   8.1736   8.3313   8.4192   8.5016   8.6629
     8.8241   8.9370   9.2332   9.2700   9.4202   9.5590   9.6964   9.8393
     9.8859   9.9702  10.0493  10.1360  10.2374  10.3797  10.4953  10.5403
    10.6831  10.7313  10.8079  10.8840  11.0434  11.2454  11.3055  11.3774
    11.4633  11.5915  11.6712  11.7828  11.8193  11.8945  11.9723  12.0542
    12.1167  12.2075  12.3261  12.3933  12.4456  12.5183  12.6493  12.6994
    12.8238  12.8786  12.9530  13.0595  13.1477  13.1959  13.2624  13.3761
    13.4289  13.5162  13.5569  13.6406  13.7721  13.8136  13.9377  14.0189
    14.0466  14.0838  14.1940  14.2205  14.3116  14.3811  14.4707  14.5591
    14.6004  14.6749  14.7256  14.8064  14.9025  14.9378  15.0192  15.0810
    15.1259  15.1976  15.2719  15.4149  15.4600  15.5445  15.6310  15.6867
    15.7479  15.8047  15.9506  16.0192  16.0908  16.1697  16.2161  16.3192
    16.3634  16.4233  16.5165  16.5340  16.6424  16.6993  16.7787  16.8217
    16.8906  17.0352  17.0855  17.1576  17.2548  17.2903  17.3483  17.4641
    17.5172  17.5871  17.6234  17.7081  17.7487  17.8057  17.8700  17.9917
    18.0582  18.1624  18.2254  18.2518  18.3339  18.4347  18.4912  18.5995
    18.6529  18.6843  18.7267  18.8374  18.8557  18.9481  19.0282  19.0956
    19.2228  19.2823  19.3436  19.3999  19.4804  19.5979  19.6661  19.7203
    19.7861  19.8710  19.9434  19.9998  20.0878  20.1866  20.2457  20.3173
    20.3733  20.4544  20.5582  20.6152  20.6907  20.7491  20.8632  20.9025
    20.9879  21.0379  21.1541  21.1921  21.2954  21.3590  21.3898  21.5330
    21.5936  21.6723  21.7481  21.8421  21.9045  21.9817  22.0725  22.1186
    22.2296  22.3249  22.4102  22.4894  22.5372  22.5842  22.6961  22.7582
    22.8556  22.9552  23.0228

          k = 0.2500-0.4606 0.0000 ( 26462 PWs)   bands (ev):

   -83.8176 -83.6986 -83.6914 -83.4372 -83.4078 -83.3491 -83.3137 -83.3063
   -52.5021 -52.5015 -52.4795 -52.4571 -52.3998 -52.3438 -52.3349 -52.3262
   -52.3155 -52.2327 -52.1471 -52.1266 -52.1075 -52.0980 -52.0533 -52.0406
   -52.0336 -52.0281 -51.9919 -51.9843 -51.9652 -51.9533 -51.9163 -51.9031
   -24.2601 -20.9378 -20.5517 -20.1103 -19.9895 -19.7235 -19.6876 -19.4875
   -19.4068 -19.2770 -19.2368 -19.1896 -19.1368 -18.8725 -18.7809 -18.7600
   -18.6028 -18.3853 -18.1623 -17.6481  -9.6329  -9.5379  -9.5132  -9.1941
    -9.0797  -9.0133  -8.9209  -8.6790  -8.6201  -8.3866  -8.1615  -8.0992
    -8.0414  -7.9888  -7.9759  -7.7408  -7.6993  -7.6566  -7.5996  -7.5568
    -7.3924  -7.3602  -7.2830  -7.1803  -7.1347  -7.1224  -7.0475  -7.0132
    -6.9078  -6.8652  -6.8403  -6.7508  -6.7057  -6.6414  -6.4182  -6.3645
    -6.2957  -6.2603  -6.1883  -6.1302  -6.0783  -6.0115  -5.7289  -5.6109
    -5.5228  -5.4186  -5.0877  -5.0491  -4.9945  -4.9332  -4.8442  -4.7940
    -4.6695  -4.3215  -4.1777  -4.1321  -3.8922  -3.7990  -3.7034  -3.5894
    -3.4689  -3.4155  -3.2640  -3.2169  -3.0801  -2.8915  -2.7476  -2.7245
    -2.6179  -2.5771  -2.5201  -2.4497  -2.3401  -2.1922  -2.1193  -2.0457
    -1.9778  -1.8733  -1.8409  -1.7280  -1.5508  -1.5124  -1.4351  -1.3480
    -1.2959  -1.2596  -0.6012  -0.0003   0.2106   0.2944   0.3370   0.3865
     0.4990   1.1862   1.3032   1.4034   1.6240   1.7387   2.0074   3.0898
     3.7917   4.5751   4.7683   4.8798   5.0330   5.2684   5.5257   5.6687
     5.8441   6.2340   6.5537   6.7397   6.8005   6.8693   7.1482   7.2448
     7.3095   7.4716   7.5746   7.8175   8.0057   8.1715   8.3154   8.5358
     8.7730   8.9176   9.0777   9.1800   9.3261   9.3804   9.4744   9.7278
     9.8782  10.1281  10.2419  10.3535  10.4279  10.5340  10.6464  10.7893
    10.9085  11.1548  11.2926  11.4341  11.4779  11.5994  11.6374  11.7126
    11.8319  11.8806  11.9565  12.0426  12.0564  12.2564  12.2816  12.3343
    12.3687  12.5277  12.5727  12.6644  12.7499  12.8185  12.8682  12.9554
    13.0377  13.0864  13.1442  13.2225  13.2942  13.3434  13.4017  13.5090
    13.5172  13.6249  13.6651  13.8005  13.9105  13.9447  13.9855  14.0137
    14.1212  14.1595  14.1841  14.2267  14.2832  14.3282  14.5435  14.6147
    14.6308  14.6794  14.7118  14.7918  14.8650  14.9050  14.9506  15.0552
    15.0883  15.1175  15.1470  15.2223  15.3272  15.3970  15.4468  15.4713
    15.5038  15.5762  15.6613  15.6856  15.7280  15.7521  15.8193  15.9074
    16.0669  16.0965  16.1543  16.2414  16.3217  16.4155  16.4687  16.5620
    16.6083  16.7492  16.8191  16.8790  16.9300  16.9673  17.0701  17.1096
    17.3216  17.4178  17.5220  17.5833  17.6900  17.8538  17.9117  18.0160
    18.1401  18.1456  18.2848  18.3464  18.3981  18.4584  18.4914  18.5154
    18.6090  18.7069  18.7792  18.8430  18.8602  18.9308  18.9772  19.0700
    19.1688  19.1850  19.2511  19.2732  19.2997  19.3635  19.5536  19.5793
    19.6583  19.7281  19.7552  19.8215  19.8704  19.9487  19.9973  20.0828
    20.1175  20.2035  20.2814  20.3517  20.4708  20.5543  20.6280  20.7176
    20.7594  20.8632  20.9218  20.9395  21.0560  21.0909  21.0967  21.1740
    21.2657  21.3313  21.4203  21.5314  21.5598  21.6107  21.7759  21.9223
    21.9536  22.0172  22.1308  22.2597  22.3416  22.4162  22.4804  22.6076
    22.6983  22.7988  22.9194

          k =-0.5000 0.0000 0.0000 ( 26466 PWs)   bands (ev):

   -83.8174 -83.6954 -83.6941 -83.4365 -83.4080 -83.3489 -83.3099 -83.3096
   -52.5018 -52.4984 -52.4573 -52.4413 -52.4386 -52.3401 -52.3387 -52.3219
   -52.3206 -52.2031 -52.1774 -52.1257 -52.1113 -52.0993 -52.0449 -52.0372
   -52.0216 -52.0099 -52.0093 -51.9917 -51.9839 -51.9536 -51.9099 -51.9094
   -24.2606 -20.7959 -20.7572 -20.0825 -20.0508 -19.8187 -19.8058 -19.5894
   -19.1215 -19.0745 -19.0604 -19.0353 -18.9816 -18.9775 -18.8583 -18.7937
   -18.7868 -18.3102 -18.2811 -17.6590  -9.6060  -9.2871  -9.1994  -9.1728
    -9.0933  -9.0910  -9.0166  -8.7094  -8.5376  -8.5229  -8.4201  -8.3962
    -8.3198  -8.3030  -8.2025  -8.1037  -8.0819  -7.8545  -7.6901  -7.6870
    -7.6506  -7.3972  -7.3449  -7.0326  -7.0131  -6.9403  -6.8594  -6.8051
    -6.7527  -6.7465  -6.7171  -6.6344  -6.6079  -6.5563  -6.4436  -6.3962
    -6.2921  -6.2826  -6.1797  -6.1581  -6.1401  -5.9299  -5.7152  -5.6002
    -5.5221  -5.4644  -5.3371  -4.9591  -4.8013  -4.6311  -4.5344  -4.4251
    -4.3893  -4.1041  -4.0935  -4.0654  -3.9309  -3.7794  -3.7594  -3.6556
[...]

     total magnetization       =    23.00 Bohr mag/cell
     absolute magnetization    =    33.25 Bohr mag/cell

     convergence has been achieved in  20 iterations

     Forces acting on atoms (Ry/au):


     negative rho (up, down):  0.173E-02 0.129E-02
     atom    1 type  1   force =    -0.00582745   -0.01495245   -0.00121706
     atom    2 type  1   force =     0.00037417    0.00743367   -0.00269372
     atom    3 type  2   force =     0.00186211    0.00013072   -0.00000518
     atom    4 type  2   force =     0.00674827    0.01087046    0.00060583
     atom    5 type  1   force =     0.00240647    0.01539570   -0.00104812
     atom    6 type  1   force =    -0.00165056   -0.01963555   -0.00035321
     atom    7 type  1   force =     0.00006327    0.00012714    0.00096835
     atom    8 type  1   force =    -0.00132788   -0.00102540    0.00260272
     atom    9 type  2   force =     0.00037728    0.00182148   -0.00155473
     atom   10 type  2   force =    -0.00015670   -0.00263791   -0.00198943
     atom   11 type  1   force =    -0.00474943   -0.02678145    0.00009663
     atom   12 type  1   force =    -0.00397889    0.02834715   -0.00071868
     atom   13 type  1   force =    -0.00040854   -0.00099075    0.00005121
     atom   14 type  1   force =    -0.00567175   -0.01482719   -0.00098709
     atom   15 type  1   force =     0.00044006    0.01020893    0.00175164
     atom   16 type  2   force =    -0.00320609    0.00022673    0.00000005
     atom   17 type  2   force =     0.00656904    0.01079642    0.00142611
     atom   18 type  1   force =     0.00146356    0.01540436   -0.00109055
     atom   19 type  1   force =    -0.00278596   -0.01968705   -0.00051024
     atom   20 type  1   force =     0.00001331    0.00064292   -0.00105912
     atom   21 type  1   force =    -0.00142881   -0.00101074    0.00270345
     atom   22 type  2   force =     0.00116506    0.00190807   -0.00155916
     atom   23 type  2   force =     0.00005604   -0.00323042    0.00086475
     atom   24 type  1   force =     0.00486006   -0.02661256    0.00006797
     atom   25 type  1   force =     0.00395583    0.02834215   -0.00070473
     atom   26 type  1   force =    -0.00038373   -0.00197603    0.00018679
     atom   27 type  3   force =     0.00001641    0.00225665    0.00145094
     atom   28 type  3   force =     0.00006570   -0.00043717    0.00198838
     atom   29 type  3   force =     0.00062936   -0.00015900    0.00016623
     atom   30 type  3   force =     0.00057917   -0.00038718   -0.00015371
     atom   31 type  1   force =    -0.00009574   -0.00027436   -0.00009512
     atom   32 type  1   force =     0.00004115    0.00145369   -0.00098276
     atom   33 type  3   force =    -0.00001478   -0.00074102    0.00179157

     Total force =     0.007991     Total SCF correction =     0.000751


     entering subroutine stress ...


     negative rho (up, down):  0.173E-02 0.129E-02
          total   stress  (Ry/bohr**3)                   (kbar)     P=   23.58
   0.00026359  -0.00000291   0.00000408         38.78     -0.43      0.60
  -0.00000291   0.00026994   0.00000618         -0.43     39.71      0.91
   0.00000408   0.00000618  -0.00005271          0.60      0.91     -7.75


     number of scf cycles    =  24
     number of bfgs steps    =  23

     energy   old            =   -2352.5397983263 Ry
     energy   new            =   -2352.5399633843 Ry

     CASE: energy  _new < energy  _old

     new trust radius        =       0.0365174463 bohr
     new conv_thr            =       0.0000000165 Ry


ATOMIC_POSITIONS (crystal)
O0       0.000000000   0.000000000   0.373866770    0   0   1
O0       0.000000000   0.500000000   0.393908814    0   0   1
Mn1      0.250000000   0.500000000   0.446414163    0   0   1
Mn1      0.000000000   0.000000000   0.446323905    0   0   1
O0       0.250000000   0.800000000   0.446274273    0   0   1
O0       0.250000000   0.200000000   0.448231887    0   0   1
O0       0.000000000   0.500000000   0.493820720    0   0   1
O0       0.000000000   0.000000000   0.523984114    0   0   1
Mn1      0.250000000   0.000000000   0.572834668    0   0   1
Mn1      0.000000000   0.500000000   0.570628676    0   0   1
O0       0.250000000   0.700000000   0.581898553    0   0   1
O0       0.250000000   0.300000000   0.582799892    0   0   1
O0       0.000000000   0.000000000   0.620676797    0   0   1
O0       0.500000000   0.000000000   0.373761291    0   0   1
O0       0.500000000   0.500000000   0.393700751    0   0   1
Mn1      0.750000000   0.500000000   0.446406050    0   0   1
Mn1      0.500000000   0.000000000   0.446164695    0   0   1
O0       0.750000000   0.800000000   0.446325821    0   0   1
O0       0.750000000   0.200000000   0.448244220    0   0   1
O0       0.500000000   0.500000000   0.495018286    0   0   1
O0       0.500000000   0.000000000   0.523924887    0   0   1
Mn1      0.750000000   0.000000000   0.572822845    0   0   1
Mn1      0.500000000   0.500000000   0.572108964    0   0   1
O0       0.750000000   0.700000000   0.581915212    0   0   1
O0       0.750000000   0.300000000   0.582788461    0   0   1
O0       0.500000000   0.000000000   0.620586778    0   0   1
H2       0.000460600   0.646655115   0.377744135
H2       0.500482747   0.647248404   0.377797091
H2       0.161239395   0.042911980   0.363238479
H2       0.660980537   0.043942750   0.363199588
O0       0.498840286   0.547346798   0.668885377
O0       0.503277306   0.366194834   0.697681185
H2       0.498326788   0.422010318   0.733332650


     Check: negative starting charge=(component1):   -0.000903
     NEW-OLD atomic charge density approx. for the potential

     Check: negative/imaginary core charge=   -0.000023    0.000000
     Check: negative starting charge=(component1):   -0.000903

     negative rho (up, down):  0.160E-02 0.169E-02
 Atomic wfc used for LDA+U Projector are NOT orthogonalized

     total cpu time spent up to now is   170129.9 secs

     per-process dynamical memory:   494.9 Mb

     Self-consistent Calculation

     iteration #  1     ecut=    40.00 Ry     beta=0.70
     Davidson diagonalization with overlap
     ethr =  1.00E-06,  avg # of iterations =  3.1
 --- enter write_ns ---
 LDA+U parameters:
U( 2)     =  4.50000000
alpha( 2) =  0.00000000
atom    3   Tr[ns(na)] (up, down, total) =   4.36894  1.03532  5.40426
   spin  1
    eigenvalues: 
  0.666  0.702  0.998  0.998  1.005
    eigenvectors:
  0.248  0.000  0.011  0.724  0.017
  0.000  0.999  0.001  0.000  0.000
  0.000  0.000  0.001  0.019  0.980
  0.751  0.001  0.004  0.241  0.003
  0.000  0.001  0.983  0.016  0.000
    occupations:
  0.916  0.005 -0.003 -0.144  0.000
  0.005  0.702  0.000 -0.002 -0.008
 -0.003  0.000  1.004 -0.004  0.000
 -0.144 -0.002 -0.004  0.748  0.000
  0.000 -0.008  0.000  0.000  0.998
   spin  2
    eigenvalues: 
  0.087  0.113  0.131  0.342  0.362
    eigenvectors:
  0.774  0.000  0.004  0.003  0.219
  0.000  0.002  0.000  0.986  0.012
  0.005  0.002  0.993  0.000  0.000
  0.221  0.000  0.001  0.009  0.770
  0.000  0.996  0.002  0.002  0.000
    occupations:
  0.148 -0.001 -0.002  0.114 -0.000
 -0.001  0.342 -0.000  0.003  0.010
 -0.002 -0.000  0.131  0.003  0.001
  0.114  0.003  0.003  0.301 -0.000
 -0.000  0.010  0.001 -0.000  0.114
atomic mag. moment =     3.333614
atom    4   Tr[ns(na)] (up, down, total) =   4.34157  1.05657  5.39815
   spin  1
    eigenvalues: 
  0.641  0.695  0.996  1.005  1.005
    eigenvectors:
  0.000  0.998  0.001  0.001  0.000
  0.000  0.001  0.000  0.997  0.003
  0.000  0.000  0.000  0.002  0.997
  0.000  0.001  0.999  0.000  0.000
  1.000  0.000  0.000  0.000  0.000
    occupations:
  0.696 -0.010 -0.005  0.007 -0.000
 -0.010  1.004 -0.000  0.000  0.001
 -0.005 -0.000  1.005  0.000  0.000
  0.007  0.000  0.000  0.996  0.000
 -0.000  0.001  0.000  0.000  0.641
   spin  2
    eigenvalues: 
  0.090  0.116  0.130  0.351  0.371
    eigenvectors:
  0.004  0.003  0.000  0.994  0.000
  0.001  0.789  0.207  0.002  0.000
  0.001  0.206  0.793  0.001  0.000
  0.994  0.003  0.000  0.003  0.000
  0.000  0.000  0.000  0.000  1.000
    occupations:
  0.349  0.011  0.005 -0.015 -0.000
  0.011  0.119 -0.005  0.000 -0.004
  0.005 -0.005  0.127  0.001  0.000
 -0.015  0.000  0.001  0.091 -0.000
 -0.000 -0.004  0.000 -0.000  0.371
atomic mag. moment =     3.284999
atom    9   Tr[ns(na)] (up, down, total) =   4.32738  1.10114  5.42851
   spin  1
    eigenvalues: 
  0.681  0.686  0.977  0.985  0.999
    eigenvectors:
  0.216  0.005  0.000  0.000  0.779
  0.021  0.979  0.000  0.000  0.000
  0.000  0.000  0.018  0.982  0.000
  0.763  0.016  0.000  0.000  0.221
  0.000  0.000  0.982  0.018  0.000
    occupations:
  0.928  0.000 -0.000 -0.132  0.000
  0.000  0.686 -0.000  0.001  0.000
 -0.000 -0.000  0.985 -0.001 -0.001
 -0.132  0.001 -0.001  0.751  0.000
  0.000  0.000 -0.001  0.000  0.977
   spin  2
    eigenvalues: 
  0.106  0.121  0.124  0.366  0.384
    eigenvectors:
  0.813  0.000  0.000  0.187  0.000
  0.000  0.000  0.000  0.000  1.000
  0.000  0.000  1.000  0.000  0.000
  0.187  0.000  0.000  0.813  0.000
  0.000  1.000  0.000  0.000  0.000
    occupations:
  0.154  0.000  0.001  0.101 -0.000
  0.000  0.384 -0.000  0.000 -0.000
  0.001 -0.000  0.124  0.001  0.000
  0.101  0.000  0.001  0.317 -0.000
 -0.000 -0.000  0.000 -0.000  0.121
atomic mag. moment =     3.226238
atom   10   Tr[ns(na)] (up, down, total) =   4.58612  0.73572  5.32184
   spin  1
    eigenvalues: 
  0.656  0.938  0.995  0.998  0.999
    eigenvectors:
  0.000  0.951  0.000  0.049  0.000
  0.000  0.000  1.000  0.000  0.000
  0.000  0.000  0.000  0.001  0.999
  0.000  0.049  0.000  0.949  0.001
  1.000  0.000  0.000  0.000  0.000
    occupations:
  0.941  0.000  0.001  0.013  0.000
  0.000  0.995  0.000 -0.000 -0.002
  0.001  0.000  0.999 -0.000 -0.000
  0.013 -0.000 -0.000  0.995 -0.000
  0.000 -0.002 -0.000 -0.000  0.656
   spin  2
    eigenvalues: 
  0.076  0.085  0.093  0.159  0.323
    eigenvectors:
  0.032  0.000  0.000  0.968  0.000
  0.000  0.000  1.000  0.000  0.000
  0.001  0.999  0.000  0.000  0.000
  0.968  0.001  0.000  0.032  0.000
  0.000  0.000  0.000  0.000  1.000
    occupations:
  0.156  0.000 -0.000 -0.014 -0.000
  0.000  0.093 -0.000 -0.000  0.002
 -0.000 -0.000  0.085 -0.000  0.000
 -0.014 -0.000 -0.000  0.078  0.000
 -0.000  0.002  0.000  0.000  0.323
atomic mag. moment =     3.850402
atom   16   Tr[ns(na)] (up, down, total) =   4.36897  1.03525  5.40422
   spin  1
    eigenvalues: 
  0.666  0.702  0.998  0.998  1.005
    eigenvectors:
  0.248  0.000  0.013  0.722  0.017
  0.000  0.999  0.001  0.000  0.000
  0.000  0.000  0.000  0.020  0.980
  0.751  0.000  0.004  0.241  0.003
  0.000  0.001  0.982  0.017  0.000
    occupations:
  0.916 -0.005 -0.003 -0.144 -0.000
 -0.005  0.702 -0.001  0.002 -0.008
 -0.003 -0.001  1.004 -0.004  0.000
 -0.144  0.002 -0.004  0.748  0.000
 -0.000 -0.008  0.000  0.000  0.998
   spin  2
    eigenvalues: 
  0.087  0.113  0.131  0.342  0.362
    eigenvectors:
  0.774  0.000  0.004  0.004  0.218
  0.000  0.002  0.000  0.984  0.014
  0.005  0.003  0.993  0.000  0.000
  0.221  0.000  0.001  0.010  0.768
  0.000  0.996  0.003  0.002  0.000
    occupations:
  0.148  0.001 -0.002  0.114  0.000
  0.001  0.342  0.000 -0.003  0.010
 -0.002  0.000  0.131  0.003 -0.001
  0.114 -0.003  0.003  0.301 -0.000
  0.000  0.010 -0.001 -0.000  0.114
atomic mag. moment =     3.333712
atom   17   Tr[ns(na)] (up, down, total) =   4.34214  1.05584  5.39798
   spin  1
    eigenvalues: 
  0.641  0.696  0.996  1.005  1.005
    eigenvectors:
  0.000  0.998  0.001  0.001  0.000
  0.000  0.001  0.000  0.999  0.000
  0.000  0.000  0.000  0.000  0.999
  0.000  0.001  0.999  0.000  0.000
  1.000  0.000  0.000  0.000  0.000
    occupations:
  0.696 -0.010 -0.005  0.007 -0.000
 -0.010  1.005 -0.000  0.000  0.001
 -0.005 -0.000  1.005  0.000  0.000
  0.007  0.000  0.000  0.996  0.000
 -0.000  0.001  0.000  0.000  0.641
   spin  2
    eigenvalues: 
  0.089  0.115  0.130  0.350  0.371
    eigenvectors:
  0.004  0.003  0.000  0.994  0.000
  0.002  0.778  0.218  0.002  0.000
  0.001  0.217  0.782  0.001  0.000
  0.994  0.003  0.000  0.003  0.000
  0.000  0.000  0.000  0.000  1.000
    occupations:
  0.349  0.011  0.005 -0.015  0.000
  0.011  0.119 -0.006  0.000 -0.004
  0.005 -0.006  0.127  0.001  0.000
 -0.015  0.000  0.001  0.090 -0.000
  0.000 -0.004  0.000 -0.000  0.371
atomic mag. moment =     3.286304
atom   22   Tr[ns(na)] (up, down, total) =   4.32754  1.10083  5.42837
   spin  1
    eigenvalues: 
  0.681  0.686  0.977  0.985  0.999
    eigenvectors:
  0.221  0.000  0.000  0.000  0.779
  0.000  1.000  0.000  0.000  0.000
  0.000  0.000  0.020  0.980  0.000
  0.779  0.000  0.000  0.000  0.221
  0.000  0.000  0.980  0.020  0.000
    occupations:
  0.928  0.000 -0.000 -0.132  0.000
  0.000  0.686  0.000 -0.000  0.000
 -0.000  0.000  0.985 -0.001  0.001
 -0.132 -0.000 -0.001  0.751 -0.000
  0.000  0.000  0.001 -0.000  0.977
   spin  2
    eigenvalues: 
  0.106  0.121  0.124  0.366  0.384
    eigenvectors:
  0.813  0.000  0.000  0.187  0.000
  0.000  0.000  0.000  0.000  1.000
  0.000  0.000  1.000  0.000  0.000
  0.187  0.000  0.000  0.813  0.000
  0.000  1.000  0.000  0.000  0.000
    occupations:
  0.154 -0.000  0.001  0.101  0.000
 -0.000  0.384 -0.000 -0.000 -0.000
  0.001 -0.000  0.124  0.001 -0.000
  0.101 -0.000  0.001  0.317  0.000
  0.000 -0.000 -0.000  0.000  0.121
atomic mag. moment =     3.226708
atom   23   Tr[ns(na)] (up, down, total) =   4.55569  0.77083  5.32652
   spin  1
    eigenvalues: 
  0.661  0.899  0.998  0.998  1.000
    eigenvectors:
  0.000  0.982  0.018  0.000  0.000
  0.000  0.000  0.001  0.999  0.000
  0.000  0.000  0.001  0.000  0.999
  0.000  0.018  0.980  0.001  0.001
  1.000  0.000  0.000  0.000  0.000
    occupations:
  0.901 -0.000  0.002  0.013 -0.000
 -0.000  0.998  0.000 -0.000 -0.002
  0.002  0.000  1.000 -0.000  0.000
  0.013 -0.000 -0.000  0.996 -0.000
 -0.000 -0.002  0.000 -0.000  0.661
   spin  2
    eigenvalues: 
  0.079  0.086  0.094  0.178  0.333
    eigenvectors:
  0.022  0.000  0.000  0.978  0.000
  0.000  0.000  1.000  0.000  0.000
  0.002  0.998  0.000  0.000  0.000
  0.976  0.002  0.000  0.022  0.000
  0.000  0.000  0.000  0.000  1.000
    occupations:
  0.176  0.000 -0.001 -0.015  0.000
  0.000  0.094 -0.000  0.000  0.002
 -0.001 -0.000  0.086 -0.000  0.000
 -0.015  0.000 -0.000  0.081 -0.000
  0.000  0.002  0.000 -0.000  0.333
atomic mag. moment =     3.784865
N of occupied +U levels =  43.1098511
 --- exit write_ns ---

     negative rho (up, down):  0.282E-02 0.261E-02

     total cpu time spent up to now is   170509.8 secs

     total energy              =   -2352.53745170 Ry
     Harris-Foulkes estimate   =   -2352.54010135 Ry
     estimated scf accuracy    <       0.00354802 Ry

     total magnetization       =    23.00 Bohr mag/cell
     absolute magnetization    =    33.30 Bohr mag/cell

     iteration #  2     ecut=    40.00 Ry     beta=0.70
     Davidson diagonalization with overlap
     ethr =  1.45E-06,  avg # of iterations =  5.0

     negative rho (up, down):  0.250E-02 0.180E-02

     total cpu time spent up to now is   170846.3 secs

     total energy              =   -2352.50308049 Ry
     Harris-Foulkes estimate   =   -2352.57671937 Ry
     estimated scf accuracy    <       1.19942234 Ry

     total magnetization       =    23.00 Bohr mag/cell
     absolute magnetization    =    32.88 Bohr mag/cell

     iteration #  3     ecut=    40.00 Ry     beta=0.70
     Davidson diagonalization with overlap
     ethr =  1.45E-06,  avg # of iterations =  5.3

     negative rho (up, down):  0.213E-02 0.179E-02

     total cpu time spent up to now is   171179.9 secs

     total energy              =   -2352.53930298 Ry
     Harris-Foulkes estimate   =   -2352.54054905 Ry
     estimated scf accuracy    <       0.00720432 Ry

     total magnetization       =    23.00 Bohr mag/cell
     absolute magnetization    =    33.24 Bohr mag/cell

     iteration #  4     ecut=    40.00 Ry     beta=0.70
     Davidson diagonalization with overlap
     ethr =  1.45E-06,  avg # of iterations =  2.8

     negative rho (up, down):  0.194E-02 0.159E-02

     total cpu time spent up to now is   171436.7 secs

     total energy              =   -2352.53985992 Ry
     Harris-Foulkes estimate   =   -2352.54011245 Ry
     estimated scf accuracy    <       0.00151557 Ry

     total magnetization       =    23.00 Bohr mag/cell
     absolute magnetization    =    33.28 Bohr mag/cell

     iteration #  5     ecut=    40.00 Ry     beta=0.70
     Davidson diagonalization with overlap
     ethr =  6.19E-07,  avg # of iterations =  1.0

     negative rho (up, down):  0.183E-02 0.145E-02

     total cpu time spent up to now is   171684.2 secs

     total energy              =   -2352.53986925 Ry
     Harris-Foulkes estimate   =   -2352.54016156 Ry
     estimated scf accuracy    <       0.00225769 Ry

     total magnetization       =    23.00 Bohr mag/cell
     absolute magnetization    =    33.27 Bohr mag/cell

     iteration #  6     ecut=    40.00 Ry     beta=0.70
     Davidson diagonalization with overlap
     ethr =  6.19E-07,  avg # of iterations =  1.0

     negative rho (up, down):  0.175E-02 0.134E-02

     total cpu time spent up to now is   171933.6 secs

     total energy              =   -2352.53996553 Ry
     Harris-Foulkes estimate   =   -2352.54012223 Ry
     estimated scf accuracy    <       0.00115735 Ry

     total magnetization       =    23.00 Bohr mag/cell
     absolute magnetization    =    33.26 Bohr mag/cell

     iteration #  7     ecut=    40.00 Ry     beta=0.70
     Davidson diagonalization with overlap
     ethr =  4.72E-07,  avg # of iterations =  1.0

     negative rho (up, down):  0.173E-02 0.131E-02

     total cpu time spent up to now is   172188.0 secs

     total energy              =   -2352.54003896 Ry
     Harris-Foulkes estimate   =   -2352.54004783 Ry
     estimated scf accuracy    <       0.00003520 Ry

     total magnetization       =    23.00 Bohr mag/cell
     absolute magnetization    =    33.26 Bohr mag/cell

     iteration #  8     ecut=    40.00 Ry     beta=0.70
     Davidson diagonalization with overlap
     ethr =  1.44E-08,  avg # of iterations =  1.3

     negative rho (up, down):  0.172E-02 0.129E-02

     total cpu time spent up to now is   172432.5 secs

     total energy              =   -2352.54004298 Ry
     Harris-Foulkes estimate   =   -2352.54004689 Ry
     estimated scf accuracy    <       0.00002047 Ry

     total magnetization       =    23.00 Bohr mag/cell
     absolute magnetization    =    33.26 Bohr mag/cell

     iteration #  9     ecut=    40.00 Ry     beta=0.70
     Davidson diagonalization with overlap
     ethr =  8.36E-09,  avg # of iterations =  1.0

     negative rho (up, down):  0.172E-02 0.129E-02

     total cpu time spent up to now is   172678.9 secs

     total energy              =   -2352.54004419 Ry
     Harris-Foulkes estimate   =   -2352.54004664 Ry
     estimated scf accuracy    <       0.00001181 Ry

     total magnetization       =    23.00 Bohr mag/cell
     absolute magnetization    =    33.26 Bohr mag/cell

     iteration # 10     ecut=    40.00 Ry     beta=0.70
     Davidson diagonalization with overlap
=>> PBS: job killed: walltime 172812 exceeded limit 172800
mpirun: killing job...

---------------------------------------
Running PBS batch system epilogue script
Job id: 373401.audhumbla.fysik.dtu.dk
Username: zhonxu
Groupname: campgst
Jobname: MnO2/Eads-2-layers/OOH-U-4.5
Sessionid: 22448
Resources limits: neednodes=2:ppn=8:xeon8,nodes=2:ppn=8:xeon8,walltime=48:00:00
Resources used: cput=765:34:32,mem=17830908kb,vmem=21800016kb,walltime=48:00:13
Queuename: verylong
Accounting:
This job has allocated the following 16 nodes:
d064 d064 d064 d064 d064 d064 d064 d064 d025 d025 d025 d025 d025 d025 d025 d025
Finished epilogue job 373401.audhumbla.fysik.dtu.dk for zhonxu
