ScientificPython/2.8-dl160g6-numpy-1.7.1-1(15):ERROR:151: Module 'ScientificPython/2.8-dl160g6-numpy-1.7.1-1' depends on one of the module(s) 'numpy/1.7.1-dl160g6-gfortran-internal-1'
ScientificPython/2.8-dl160g6-numpy-1.7.1-1(15):ERROR:102: Tcl command execution failed: prereq numpy/1.7.1-dl160g6-gfortran-internal-1


     Program PWSCF v.5.0.2 (svn rev. 9656) starts on 28May2014 at  2:54:45 

     This program is part of the open-source Quantum ESPRESSO suite
     for quantum simulation of materials; please cite
         "P. Giannozzi et al., J. Phys.:Condens. Matter 21 395502 (2009);
          URL http://www.quantum-espresso.org", 
     in publications or presentations arising from this work. More details at
     http://www.quantum-espresso.org/quote.php

     Parallel version (MPI), running on    16 processors
     K-points division:     npool     =       4
     R & G space division:  proc/nbgrp/npool/nimage =       4

     Current dimensions of program PWSCF are:
     Max number of different atomic species (ntypx) = 10
     Max number of k-points (npk) =  40000
     Max angular momentum in pseudopotentials (lmaxx) =  3
     Reading input from pwscf.in
Warning: card &CELL ignored
Warning: card / ignored

     Subspace diagonalization in iterative solution of the eigenvalue problem:
     a serial algorithm will be used


     Parallelization info
     --------------------
     sticks:   dense  smooth     PW     G-vecs:    dense   smooth      PW
     Min        1357     434    120               328723    59498    8862
     Max        1358     435    121               328730    59528    8871
     Sum        5431    1737    483              1314909   238057   35467



     bravais-lattice index     =            0
     lattice parameter (alat)  =      10.3179  a.u.
     unit-cell volume          =    6964.3238 (a.u.)^3
     number of atoms/cell      =           33
     number of atomic types    =            3
     number of electrons       =       237.00
     number of Kohn-Sham states=          355
     kinetic-energy cutoff     =      40.0000  Ry
     charge density cutoff     =     500.0000  Ry
     convergence threshold     =      1.0E-06
     mixing beta               =       0.7000
     number of iterations used =            8  plain     mixing
     Exchange-correlation      = SLA  PW   PBE  PBE ( 1 4 3 4 0)
     EXX-fraction              =        0.00
     nstep                     =           50


     celldm(1)=  10.317905  celldm(2)=   0.000000  celldm(3)=   0.000000
     celldm(4)=   0.000000  celldm(5)=   0.000000  celldm(6)=   0.000000

     crystal axes: (cart. coord. in units of alat)
               a(1) = (   1.000000   0.000000   0.000000 )  
               a(2) = (   0.000000   1.282117   0.000000 )  
               a(3) = (   0.000000   0.000000   4.945120 )  

     reciprocal axes: (cart. coord. in units 2 pi/alat)
               b(1) = (  1.000000  0.000000  0.000000 )  
               b(2) = (  0.000000  0.779960  0.000000 )  
               b(3) = (  0.000000  0.000000  0.202220 )  


     PseudoPot. # 1 for O  read from file:
     /home/camp/zhonxu/pseudo/o_pbe_v1.01.uspp.F.UPF
     MD5 check sum: 2bcb18d16ea4b960afae9ec6d52f22d2
     Pseudo is Ultrasoft + core correction, Zval =  6.0
     Generated by new atomic code, or converted to UPF format
     Using radial grid of  737 points,  5 beta functions with: 
                l(1) =   0
                l(2) =   0
                l(3) =   1
                l(4) =   1
                l(5) =   2
     Q(r) pseudized with  8 coefficients,  rinner =    0.900   0.900   0.900
                                                       0.900   0.900

     PseudoPot. # 2 for Mo read from file:
     /home/camp/zhonxu/pseudo/mo_pbe_v1.uspp.F.UPF
     MD5 check sum: 30c4dcd161f5d35cd49bb5239c51a633
     Pseudo is Ultrasoft + core correction, Zval = 14.0
     Generated by new atomic code, or converted to UPF format
     Using radial grid of  889 points,  6 beta functions with: 
                l(1) =   0
                l(2) =   0
                l(3) =   1
                l(4) =   1
                l(5) =   2
                l(6) =   2
     Q(r) pseudized with  6 coefficients,  rinner =    1.000   1.000   1.000
                                                       1.000   1.000

     PseudoPot. # 3 for H  read from file:
     /home/camp/zhonxu/pseudo/h_pbe_v1.uspp.F.UPF
     MD5 check sum: 3408e3ff4ec8b0a4e358431e7e038a48
     Pseudo is Ultrasoft, Zval =  1.0
     Generated by new atomic code, or converted to UPF format
     Using radial grid of  615 points,  2 beta functions with: 
                l(1) =   0
                l(2) =   0
     Q(r) pseudized with  8 coefficients,  rinner =    0.700

     atomic species   valence    mass     pseudopotential
        O0             6.00    15.99940     O ( 1.00)
        Mo1           14.00    95.94000     Mo( 1.00)
        H2             1.00     1.00794     H ( 1.00)


     Simplified LDA+U calculation (l_max = 2) with parameters (eV):
     atomic species    L          U    alpha       J0     beta
        Mo1            2     4.0000   0.0000   0.0000   0.0000



     No symmetry found



   Cartesian axes

     site n.     atom                  positions (alat units)
         1           O0  tau(   1) = (   0.0000000   0.0000000   1.8345407  )
         2           O0  tau(   2) = (   0.0000000   0.6410583   1.8924976  )
         3           Mo1 tau(   3) = (   0.2500000   0.6410583   2.1781772  )
         4           Mo1 tau(   4) = (   0.0000000   0.0000000   2.1929631  )
         5           O0  tau(   5) = (   0.2500000   1.0000510   2.1897982  )
         6           O0  tau(   6) = (   0.2500000   0.2820657   2.1891553  )
         7           O0  tau(   7) = (   0.0000000   0.6410583   2.4607413  )
         8           O0  tau(   8) = (   0.0000000   0.0000000   2.5556382  )
         9           Mo1 tau(   9) = (   0.2500000   0.0000000   2.8453728  )
        10           Mo1 tau(  10) = (   0.0000000   0.6410583   2.7952787  )
        11           O0  tau(  11) = (   0.2500000   0.9231240   2.8196582  )
        12           O0  tau(  12) = (   0.2500000   0.3589927   2.8248011  )
        13           O0  tau(  13) = (   0.0000000   0.0000000   3.0952003  )
        14           O0  tau(  14) = (   0.5000000   0.0000000   1.8353814  )
        15           O0  tau(  15) = (   0.5000000   0.6410583   1.8936349  )
        16           Mo1 tau(  16) = (   0.7500000   0.6410583   2.1781277  )
        17           Mo1 tau(  17) = (   0.5000000   0.0000000   2.1954851  )
        18           O0  tau(  18) = (   0.7500000   1.0000510   2.1899960  )
        19           O0  tau(  19) = (   0.7500000   0.2820657   2.1890564  )
        20           O0  tau(  20) = (   0.5000000   0.6410583   2.4612853  )
        21           O0  tau(  21) = (   0.5000000   0.0000000   2.5539074  )
        22           Mo1 tau(  22) = (   0.7500000   0.0000000   2.8439387  )
        23           Mo1 tau(  23) = (   0.5000000   0.6410583   2.8209934  )
        24           O0  tau(  24) = (   0.7500000   0.9231240   2.8195098  )
        25           O0  tau(  25) = (   0.7500000   0.3589927   2.8246033  )
        26           O0  tau(  26) = (   0.5000000   0.0000000   3.0932717  )
        27           H2  tau(  27) = (  -0.0005800   0.7846554   1.7836060  )
        28           H2  tau(  28) = (   0.4995100   0.7915788   1.7940402  )
        29           H2  tau(  29) = (   0.1672700   0.0232576   1.7642706  )
        30           H2  tau(  30) = (   0.6659000   0.0248346   1.7633310  )
        31           O0  tau(  31) = (   0.5002100   0.6666879   3.1760530  )
        32           O0  tau(  32) = (   0.4999400   0.4570233   3.3393409  )
        33           H2  tau(  33) = (   0.5000100   0.5446560   3.4973869  )

     number of k points=    10  Methfessel-Paxton smearing, width (Ry)=  0.0100
                       cart. coord. in units 2pi/alat
        k(    1) = (   0.0000000   0.0000000   0.0000000), wk =   0.1250000
        k(    2) = (   0.0000000   0.1949901   0.0000000), wk =   0.2500000
        k(    3) = (   0.0000000  -0.3899801   0.0000000), wk =   0.1250000
        k(    4) = (   0.2500000   0.0000000   0.0000000), wk =   0.2500000
        k(    5) = (   0.2500000   0.1949901   0.0000000), wk =   0.2500000
        k(    6) = (   0.2500000  -0.3899801   0.0000000), wk =   0.2500000
        k(    7) = (  -0.5000000   0.0000000   0.0000000), wk =   0.1250000
        k(    8) = (  -0.5000000   0.1949901   0.0000000), wk =   0.2500000
        k(    9) = (  -0.5000000  -0.3899801   0.0000000), wk =   0.1250000
        k(   10) = (  -0.2500000   0.1949901   0.0000000), wk =   0.2500000

     Dense  grid:  1314909 G-vectors     FFT dimensions: (  75,  96, 375)

     Smooth grid:   238057 G-vectors     FFT dimensions: (  45,  54, 216)

     Largest allocated arrays     est. size (Mb)     dimensions
        Kohn-Sham Wavefunctions        40.59 Mb     (   7494,  355)
        Atomic wavefunctions           21.61 Mb     (   7494,  189)
        NL pseudopotentials            47.34 Mb     (   7494,  414)
        Each V/rho on FFT grid         10.33 Mb     ( 676800)
        Each G-vector array             2.51 Mb     ( 328726)
        G-vector shells                 1.08 Mb     ( 142042)
     Largest temporary arrays     est. size (Mb)     dimensions
        Auxiliary wavefunctions       162.38 Mb     (   7494, 1420)
        Each subspace H/S matrix       30.77 Mb     (1420,1420)
        Each <psi_i|beta_j> matrix      2.24 Mb     (    414,  355)
        Arrays for rho mixing          82.62 Mb     ( 676800,   8)

     Check: negative/imaginary core charge=   -0.000003    0.000000

     Initial potential from superposition of free atoms
     Check: negative starting charge=   -0.002157

     starting charge  236.99142, renormalised to  237.00000

     negative rho (up, down):  0.216E-02 0.000E+00
     Number of +U iterations with fixed ns =  0
     Starting occupations:
 --- enter write_ns ---
 LDA+U parameters:
U( 2)     =  4.00000000
alpha( 2) =  0.00000000
atom    3   Tr[ns(na)] =   5.00000
    eigenvalues: 
  0.500  0.500  0.500  0.500  0.500
    eigenvectors:
  1.000  0.000  0.000  0.000  0.000
  0.000  1.000  0.000  0.000  0.000
  0.000  0.000  1.000  0.000  0.000
  0.000  0.000  0.000  1.000  0.000
  0.000  0.000  0.000  0.000  1.000
    occupations:
  0.500  0.000  0.000  0.000  0.000
  0.000  0.500  0.000  0.000  0.000
  0.000  0.000  0.500  0.000  0.000
  0.000  0.000  0.000  0.500  0.000
  0.000  0.000  0.000  0.000  0.500
atom    4   Tr[ns(na)] =   5.00000
    eigenvalues: 
  0.500  0.500  0.500  0.500  0.500
    eigenvectors:
  1.000  0.000  0.000  0.000  0.000
  0.000  1.000  0.000  0.000  0.000
  0.000  0.000  1.000  0.000  0.000
  0.000  0.000  0.000  1.000  0.000
  0.000  0.000  0.000  0.000  1.000
    occupations:
  0.500  0.000  0.000  0.000  0.000
  0.000  0.500  0.000  0.000  0.000
  0.000  0.000  0.500  0.000  0.000
  0.000  0.000  0.000  0.500  0.000
  0.000  0.000  0.000  0.000  0.500
atom    9   Tr[ns(na)] =   5.00000
    eigenvalues: 
  0.500  0.500  0.500  0.500  0.500
    eigenvectors:
  1.000  0.000  0.000  0.000  0.000
  0.000  1.000  0.000  0.000  0.000
  0.000  0.000  1.000  0.000  0.000
  0.000  0.000  0.000  1.000  0.000
  0.000  0.000  0.000  0.000  1.000
    occupations:
  0.500  0.000  0.000  0.000  0.000
  0.000  0.500  0.000  0.000  0.000
  0.000  0.000  0.500  0.000  0.000
  0.000  0.000  0.000  0.500  0.000
  0.000  0.000  0.000  0.000  0.500
atom   10   Tr[ns(na)] =   5.00000
    eigenvalues: 
  0.500  0.500  0.500  0.500  0.500
    eigenvectors:
  1.000  0.000  0.000  0.000  0.000
  0.000  1.000  0.000  0.000  0.000
  0.000  0.000  1.000  0.000  0.000
  0.000  0.000  0.000  1.000  0.000
  0.000  0.000  0.000  0.000  1.000
    occupations:
  0.500  0.000  0.000  0.000  0.000
  0.000  0.500  0.000  0.000  0.000
  0.000  0.000  0.500  0.000  0.000
  0.000  0.000  0.000  0.500  0.000
  0.000  0.000  0.000  0.000  0.500
atom   16   Tr[ns(na)] =   5.00000
    eigenvalues: 
  0.500  0.500  0.500  0.500  0.500
    eigenvectors:
  1.000  0.000  0.000  0.000  0.000
  0.000  1.000  0.000  0.000  0.000
  0.000  0.000  1.000  0.000  0.000
  0.000  0.000  0.000  1.000  0.000
  0.000  0.000  0.000  0.000  1.000
    occupations:
  0.500  0.000  0.000  0.000  0.000
  0.000  0.500  0.000  0.000  0.000
  0.000  0.000  0.500  0.000  0.000
  0.000  0.000  0.000  0.500  0.000
  0.000  0.000  0.000  0.000  0.500
atom   17   Tr[ns(na)] =   5.00000
    eigenvalues: 
  0.500  0.500  0.500  0.500  0.500
    eigenvectors:
  1.000  0.000  0.000  0.000  0.000
  0.000  1.000  0.000  0.000  0.000
  0.000  0.000  1.000  0.000  0.000
  0.000  0.000  0.000  1.000  0.000
  0.000  0.000  0.000  0.000  1.000
    occupations:
  0.500  0.000  0.000  0.000  0.000
  0.000  0.500  0.000  0.000  0.000
  0.000  0.000  0.500  0.000  0.000
  0.000  0.000  0.000  0.500  0.000
  0.000  0.000  0.000  0.000  0.500
atom   22   Tr[ns(na)] =   5.00000
    eigenvalues: 
  0.500  0.500  0.500  0.500  0.500
    eigenvectors:
  1.000  0.000  0.000  0.000  0.000
  0.000  1.000  0.000  0.000  0.000
  0.000  0.000  1.000  0.000  0.000
  0.000  0.000  0.000  1.000  0.000
  0.000  0.000  0.000  0.000  1.000
    occupations:
  0.500  0.000  0.000  0.000  0.000
  0.000  0.500  0.000  0.000  0.000
  0.000  0.000  0.500  0.000  0.000
  0.000  0.000  0.000  0.500  0.000
  0.000  0.000  0.000  0.000  0.500
atom   23   Tr[ns(na)] =   5.00000
    eigenvalues: 
  0.500  0.500  0.500  0.500  0.500
    eigenvectors:
  1.000  0.000  0.000  0.000  0.000
  0.000  1.000  0.000  0.000  0.000
  0.000  0.000  1.000  0.000  0.000
  0.000  0.000  0.000  1.000  0.000
  0.000  0.000  0.000  0.000  1.000
    occupations:
  0.500  0.000  0.000  0.000  0.000
  0.000  0.500  0.000  0.000  0.000
  0.000  0.000  0.500  0.000  0.000
  0.000  0.000  0.000  0.500  0.000
  0.000  0.000  0.000  0.000  0.500
N of occupied +U levels =  40.0000000
 --- exit write_ns ---
 Atomic wfc used for LDA+U Projector are NOT orthogonalized
     Starting wfc are  189 randomized atomic wfcs

     total cpu time spent up to now is      106.4 secs

     per-process dynamical memory:   404.6 Mb

     Self-consistent Calculation

     iteration #  1     ecut=    40.00 Ry     beta=0.70
     Davidson diagonalization with overlap
     ethr =  1.00E-02,  avg # of iterations =  6.0
 --- enter write_ns ---
 LDA+U parameters:
U( 2)     =  4.00000000
alpha( 2) =  0.00000000
atom    3   Tr[ns(na)] =   5.01155
    eigenvalues: 
  0.329  0.431  0.480  0.560  0.705
    eigenvectors:
  0.004  0.000  0.442  0.000  0.554
  0.000  1.000  0.000  0.000  0.000
  0.994  0.000  0.001  0.001  0.004
  0.000  0.000  0.557  0.000  0.442
  0.001  0.000  0.000  0.999  0.000
    occupations:
  0.604 -0.000  0.020 -0.111 -0.000
 -0.000  0.431 -0.000 -0.001 -0.002
  0.020 -0.000  0.331 -0.012  0.007
 -0.111 -0.001 -0.012  0.580  0.000
 -0.000 -0.002  0.007  0.000  0.560
atom    4   Tr[ns(na)] =   4.99162
    eigenvalues: 
  0.310  0.436  0.487  0.574  0.689
    eigenvectors:
  0.000  0.000  0.972  0.000  0.028
  0.000  0.000  0.000  0.999  0.000
  1.000  0.000  0.000  0.000  0.000
  0.000  0.000  0.028  0.000  0.972
  0.000  1.000  0.000  0.000  0.000
    occupations:
  0.493  0.002  0.001 -0.033  0.000
  0.002  0.574  0.004  0.000 -0.001
  0.001  0.004  0.310 -0.000  0.001
 -0.033  0.000 -0.000  0.683  0.000
  0.000 -0.001  0.001  0.000  0.436
atom    9   Tr[ns(na)] =   4.86369
    eigenvalues: 
  0.361  0.454  0.495  0.497  0.627
    eigenvectors:
  0.000  0.000  0.124  0.227  0.649
  0.000  0.000  0.647  0.353  0.000
  0.968  0.032  0.000  0.000  0.000
  0.000  0.000  0.228  0.421  0.351
  0.032  0.968  0.000  0.000  0.000
    occupations:
  0.581 -0.001 -0.001 -0.062 -0.002
 -0.001  0.495  0.000 -0.001 -0.000
 -0.001  0.000  0.364  0.001  0.016
 -0.062 -0.001  0.001  0.542  0.001
 -0.002 -0.000  0.016  0.001  0.451
atom   10   Tr[ns(na)] =   4.60016
    eigenvalues: 
  0.303  0.401  0.430  0.464  0.703
    eigenvectors:
  0.000  0.984  0.000  0.000  0.016
  0.000  0.000  0.000  1.000  0.000
  1.000  0.000  0.000  0.000  0.000
  0.000  0.016  0.000  0.000  0.984
  0.000  0.000  1.000  0.000  0.000
    occupations:
  0.405  0.000 -0.001 -0.038  0.000
  0.000  0.463 -0.000  0.000  0.001
 -0.001 -0.000  0.303 -0.003 -0.000
 -0.038  0.000 -0.003  0.698 -0.000
  0.000  0.001 -0.000 -0.000  0.430
atom   16   Tr[ns(na)] =   5.00979
    eigenvalues: 
  0.328  0.431  0.480  0.560  0.706
    eigenvectors:
  0.004  0.000  0.441  0.000  0.554
  0.000  1.000  0.000  0.000  0.000
  0.994  0.000  0.001  0.001  0.004
  0.000  0.000  0.557  0.000  0.442
  0.001  0.000  0.000  0.999  0.000
    occupations:
  0.604  0.000  0.020 -0.112  0.000
  0.000  0.431  0.000  0.001 -0.002
  0.020  0.000  0.330 -0.012 -0.007
 -0.112  0.001 -0.012  0.580 -0.000
  0.000 -0.002 -0.007 -0.000  0.559
atom   17   Tr[ns(na)] =   5.03660
    eigenvalues: 
  0.325  0.437  0.489  0.575  0.693
    eigenvectors:
  0.000  0.000  0.971  0.000  0.029
  0.000  0.000  0.000  1.000  0.000
  1.000  0.000  0.000  0.000  0.000
  0.000  0.000  0.029  0.000  0.971
  0.000  1.000  0.000  0.000  0.000
    occupations:
  0.495  0.001  0.001 -0.034  0.000
  0.001  0.574  0.004  0.001 -0.000
  0.001  0.004  0.325 -0.001  0.000
 -0.034  0.001 -0.001  0.687  0.000
  0.000 -0.000  0.000  0.000  0.437
atom   22   Tr[ns(na)] =   4.88176
    eigenvalues: 
  0.360  0.456  0.493  0.497  0.635
    eigenvectors:
  0.000  0.000  0.059  0.289  0.652
  0.000  0.000  0.829  0.171  0.000
  0.970  0.030  0.000  0.000  0.000
  0.000  0.000  0.112  0.541  0.348
  0.030  0.970  0.000  0.000  0.000
    occupations:
  0.587  0.001 -0.001 -0.066  0.000
  0.001  0.494 -0.000  0.001 -0.000
 -0.001 -0.000  0.363  0.002 -0.017
 -0.066  0.001  0.002  0.544  0.000
  0.000 -0.000 -0.017  0.000  0.453
atom   23   Tr[ns(na)] =   4.78520
    eigenvalues: 
  0.323  0.435  0.464  0.498  0.673
    eigenvectors:
  0.000  0.000  0.000  0.957  0.043
  0.000  0.014  0.986  0.000  0.000
  0.999  0.000  0.000  0.000  0.000
  0.000  0.000  0.000  0.042  0.957
  0.000  0.986  0.014  0.000  0.000
    occupations:
  0.506 -0.000  0.003 -0.035 -0.000
 -0.000  0.464  0.000  0.000 -0.003
  0.003  0.000  0.323  0.005  0.000
 -0.035  0.000  0.005  0.665  0.000
 -0.000 -0.003  0.000  0.000  0.435
N of occupied +U levels =  39.1803728
 --- exit write_ns ---

     negative rho (up, down):  0.310E-02 0.000E+00

     total cpu time spent up to now is      455.6 secs

     total energy              =   -1758.33888979 Ry
     Harris-Foulkes estimate   =   -1764.71541777 Ry
     estimated scf accuracy    <       8.52534692 Ry

     iteration #  2     ecut=    40.00 Ry     beta=0.70
     Davidson diagonalization with overlap
     ethr =  3.60E-03,  avg # of iterations =  2.4

     negative rho (up, down):  0.101E-01 0.000E+00

     total cpu time spent up to now is      636.4 secs

     total energy              =   -1747.04134396 Ry
     Harris-Foulkes estimate   =   -1772.53784924 Ry
     estimated scf accuracy    <     113.44443782 Ry

     iteration #  3     ecut=    40.00 Ry     beta=0.70
     Davidson diagonalization with overlap
     ethr =  3.60E-03,  avg # of iterations =  4.3

     negative rho (up, down):  0.374E-02 0.000E+00

     total cpu time spent up to now is      842.3 secs

     total energy              =   -1743.50019647 Ry
     Harris-Foulkes estimate   =   -1772.97219329 Ry
     estimated scf accuracy    <     451.78086589 Ry

     iteration #  4     ecut=    40.00 Ry     beta=0.70
     Davidson diagonalization with overlap
     ethr =  3.60E-03,  avg # of iterations =  4.2

     negative rho (up, down):  0.288E-02 0.000E+00

     total cpu time spent up to now is     1052.7 secs

     total energy              =   -1760.28262830 Ry
     Harris-Foulkes estimate   =   -1765.55145140 Ry
     estimated scf accuracy    <      54.20710242 Ry

     iteration #  5     ecut=    40.00 Ry     beta=0.70
     Davidson diagonalization with overlap
     ethr =  3.60E-03,  avg # of iterations =  3.0

     negative rho (up, down):  0.157E-02 0.000E+00

     total cpu time spent up to now is     1231.9 secs

     total energy              =   -1762.82175578 Ry
     Harris-Foulkes estimate   =   -1763.32780339 Ry
     estimated scf accuracy    <       2.23302587 Ry

     iteration #  6     ecut=    40.00 Ry     beta=0.70
     Davidson diagonalization with overlap
     ethr =  9.42E-04,  avg # of iterations =  3.8

     negative rho (up, down):  0.136E-02 0.000E+00

     total cpu time spent up to now is     1421.2 secs

     total energy              =   -1762.84868774 Ry
     Harris-Foulkes estimate   =   -1763.10983178 Ry
     estimated scf accuracy    <       1.25969933 Ry

     iteration #  7     ecut=    40.00 Ry     beta=0.70
     Davidson diagonalization with overlap
     ethr =  5.32E-04,  avg # of iterations =  3.5

     negative rho (up, down):  0.129E-02 0.000E+00

     total cpu time spent up to now is     1614.9 secs

     total energy              =   -1762.93066301 Ry
     Harris-Foulkes estimate   =   -1763.02007727 Ry
     estimated scf accuracy    <       0.65526829 Ry

     iteration #  8     ecut=    40.00 Ry     beta=0.70
     Davidson diagonalization with overlap
     ethr =  2.76E-04,  avg # of iterations =  1.4

     negative rho (up, down):  0.127E-02 0.000E+00

     total cpu time spent up to now is     1789.3 secs

     total energy              =   -1762.92540729 Ry
     Harris-Foulkes estimate   =   -1762.97481554 Ry
     estimated scf accuracy    <       0.23038311 Ry

     iteration #  9     ecut=    40.00 Ry     beta=0.70
     Davidson diagonalization with overlap
     ethr =  9.72E-05,  avg # of iterations =  5.9

     negative rho (up, down):  0.148E-02 0.000E+00

     total cpu time spent up to now is     1988.4 secs

     total energy              =   -1762.92155023 Ry
     Harris-Foulkes estimate   =   -1762.96537914 Ry
     estimated scf accuracy    <       0.24331528 Ry

     iteration # 10     ecut=    40.00 Ry     beta=0.70
     Davidson diagonalization with overlap
     ethr =  9.72E-05,  avg # of iterations =  4.7

     negative rho (up, down):  0.160E-02 0.000E+00

     total cpu time spent up to now is     2178.6 secs

     total energy              =   -1762.93397433 Ry
     Harris-Foulkes estimate   =   -1762.94684330 Ry
     estimated scf accuracy    <       0.09912730 Ry

     iteration # 11     ecut=    40.00 Ry     beta=0.70
     Davidson diagonalization with overlap
     ethr =  4.18E-05,  avg # of iterations =  1.3

     negative rho (up, down):  0.159E-02 0.000E+00

     total cpu time spent up to now is     2342.9 secs

     total energy              =   -1762.93850778 Ry
     Harris-Foulkes estimate   =   -1762.94285351 Ry
     estimated scf accuracy    <       0.04248173 Ry

     iteration # 12     ecut=    40.00 Ry     beta=0.70
     Davidson diagonalization with overlap
     ethr =  1.79E-05,  avg # of iterations =  1.5

     negative rho (up, down):  0.197E-02 0.000E+00

     total cpu time spent up to now is     2510.2 secs

     total energy              =   -1762.92905938 Ry
     Harris-Foulkes estimate   =   -1762.94276944 Ry
     estimated scf accuracy    <       0.03589548 Ry

     iteration # 13     ecut=    40.00 Ry     beta=0.70
     Davidson diagonalization with overlap
     ethr =  1.51E-05,  avg # of iterations =  6.3

     negative rho (up, down):  0.200E-02 0.000E+00

     total cpu time spent up to now is     2723.0 secs

     total energy              =   -1762.91703789 Ry
     Harris-Foulkes estimate   =   -1762.96415695 Ry
     estimated scf accuracy    <       0.37358527 Ry

     iteration # 14     ecut=    40.00 Ry     beta=0.70
     Davidson diagonalization with overlap
     ethr =  1.51E-05,  avg # of iterations =  6.1

     negative rho (up, down):  0.213E-02 0.000E+00

     total cpu time spent up to now is     2937.0 secs

     total energy              =   -1762.93832967 Ry
     Harris-Foulkes estimate   =   -1762.94061223 Ry
     estimated scf accuracy    <       0.00935391 Ry

     iteration # 15     ecut=    40.00 Ry     beta=0.70
     Davidson diagonalization with overlap
     ethr =  3.95E-06,  avg # of iterations =  3.9

     negative rho (up, down):  0.239E-02 0.000E+00

     total cpu time spent up to now is     3123.5 secs

     total energy              =   -1762.93905518 Ry
     Harris-Foulkes estimate   =   -1762.93993885 Ry
     estimated scf accuracy    <       0.00479789 Ry

     iteration # 16     ecut=    40.00 Ry     beta=0.70
     Davidson diagonalization with overlap
     ethr =  2.02E-06,  avg # of iterations =  3.2

     negative rho (up, down):  0.279E-02 0.000E+00

     total cpu time spent up to now is     3302.8 secs

     total energy              =   -1762.93914358 Ry
     Harris-Foulkes estimate   =   -1762.94008602 Ry
     estimated scf accuracy    <       0.00628722 Ry

     iteration # 17     ecut=    40.00 Ry     beta=0.70
     Davidson diagonalization with overlap
     ethr =  2.02E-06,  avg # of iterations =  1.8

     negative rho (up, down):  0.290E-02 0.000E+00

     total cpu time spent up to now is     3476.3 secs

     total energy              =   -1762.93920907 Ry
     Harris-Foulkes estimate   =   -1762.94010255 Ry
     estimated scf accuracy    <       0.00495054 Ry

     iteration # 18     ecut=    40.00 Ry     beta=0.70
     Davidson diagonalization with overlap
     ethr =  2.02E-06,  avg # of iterations =  1.0

     negative rho (up, down):  0.331E-02 0.000E+00

     total cpu time spent up to now is     3642.6 secs

     total energy              =   -1762.93960677 Ry
     Harris-Foulkes estimate   =   -1762.93977111 Ry
     estimated scf accuracy    <       0.00079552 Ry

     iteration # 19     ecut=    40.00 Ry     beta=0.70
     Davidson diagonalization with overlap
     ethr =  3.36E-07,  avg # of iterations =  1.1

     negative rho (up, down):  0.321E-02 0.000E+00

     total cpu time spent up to now is     3808.5 secs

     total energy              =   -1762.93960254 Ry
     Harris-Foulkes estimate   =   -1762.93982765 Ry
     estimated scf accuracy    <       0.00105016 Ry

     iteration # 20     ecut=    40.00 Ry     beta=0.70
     Davidson diagonalization with overlap
     ethr =  3.36E-07,  avg # of iterations =  1.1

     negative rho (up, down):  0.331E-02 0.000E+00

     total cpu time spent up to now is     3978.4 secs

     total energy              =   -1762.93971207 Ry
     Harris-Foulkes estimate   =   -1762.93973347 Ry
     estimated scf accuracy    <       0.00020776 Ry

     iteration # 21     ecut=    40.00 Ry     beta=0.70
     Davidson diagonalization with overlap
     ethr =  8.77E-08,  avg # of iterations =  1.0

     negative rho (up, down):  0.336E-02 0.000E+00

     total cpu time spent up to now is     4166.1 secs

     total energy              =   -1762.93971683 Ry
     Harris-Foulkes estimate   =   -1762.93973508 Ry
     estimated scf accuracy    <       0.00010402 Ry

     iteration # 22     ecut=    40.00 Ry     beta=0.70
     Davidson diagonalization with overlap
     ethr =  4.39E-08,  avg # of iterations =  1.0

     negative rho (up, down):  0.351E-02 0.000E+00

     total cpu time spent up to now is     4353.7 secs

     total energy              =   -1762.93971405 Ry
     Harris-Foulkes estimate   =   -1762.93974795 Ry
     estimated scf accuracy    <       0.00027706 Ry

     iteration # 23     ecut=    40.00 Ry     beta=0.70
     Davidson diagonalization with overlap
     ethr =  4.39E-08,  avg # of iterations =  1.0

     negative rho (up, down):  0.340E-02 0.000E+00

     total cpu time spent up to now is     4540.2 secs

     total energy              =   -1762.93972987 Ry
     Harris-Foulkes estimate   =   -1762.93973403 Ry
     estimated scf accuracy    <       0.00001010 Ry

     iteration # 24     ecut=    40.00 Ry     beta=0.70
     Davidson diagonalization with overlap
     ethr =  4.26E-09,  avg # of iterations =  2.0

     negative rho (up, down):  0.340E-02 0.000E+00

     total cpu time spent up to now is     4733.3 secs

     total energy              =   -1762.93972420 Ry
     Harris-Foulkes estimate   =   -1762.93974306 Ry
     estimated scf accuracy    <       0.00013651 Ry

     iteration # 25     ecut=    40.00 Ry     beta=0.70
     Davidson diagonalization with overlap
     ethr =  4.26E-09,  avg # of iterations =  2.0

     negative rho (up, down):  0.340E-02 0.000E+00

     total cpu time spent up to now is     4927.7 secs

     total energy              =   -1762.93973295 Ry
     Harris-Foulkes estimate   =   -1762.93973481 Ry
     estimated scf accuracy    <       0.00001128 Ry

     iteration # 26     ecut=    40.00 Ry     beta=0.70
     Davidson diagonalization with overlap
     ethr =  4.26E-09,  avg # of iterations =  1.0

     negative rho (up, down):  0.339E-02 0.000E+00

     total cpu time spent up to now is     5108.8 secs

     total energy              =   -1762.93973365 Ry
     Harris-Foulkes estimate   =   -1762.93973504 Ry
     estimated scf accuracy    <       0.00000907 Ry

     iteration # 27     ecut=    40.00 Ry     beta=0.70
     Davidson diagonalization with overlap
     ethr =  3.83E-09,  avg # of iterations =  1.0

     negative rho (up, down):  0.337E-02 0.000E+00

     total cpu time spent up to now is     5284.7 secs

     total energy              =   -1762.93973421 Ry
     Harris-Foulkes estimate   =   -1762.93973455 Ry
     estimated scf accuracy    <       0.00000229 Ry

     iteration # 28     ecut=    40.00 Ry     beta=0.70
     Davidson diagonalization with overlap
     ethr =  9.68E-10,  avg # of iterations =  1.0

     negative rho (up, down):  0.337E-02 0.000E+00

     total cpu time spent up to now is     5459.9 secs

     total energy              =   -1762.93973442 Ry
     Harris-Foulkes estimate   =   -1762.93973471 Ry
     estimated scf accuracy    <       0.00000122 Ry

     iteration # 29     ecut=    40.00 Ry     beta=0.70
     Davidson diagonalization with overlap
     ethr =  5.16E-10,  avg # of iterations =  1.0

     negative rho (up, down):  0.335E-02 0.000E+00

     total cpu time spent up to now is     5641.6 secs

     End of self-consistent calculation
 --- enter write_ns ---
 LDA+U parameters:
U( 2)     =  4.00000000
alpha( 2) =  0.00000000
atom    3   Tr[ns(na)] =   5.83800
    eigenvalues: 
  0.462  0.512  0.569  0.615  0.762
    eigenvectors:
  0.012  0.000  0.314  0.000  0.673
  0.000  0.997  0.001  0.002  0.000
  0.975  0.000  0.002  0.012  0.011
  0.000  0.000  0.683  0.001  0.315
  0.012  0.002  0.000  0.985  0.000
    occupations:
  0.697 -0.002  0.028 -0.089  0.000
 -0.002  0.512 -0.002 -0.001 -0.004
  0.028 -0.002  0.467 -0.013  0.017
 -0.089 -0.001 -0.013  0.630 -0.000
  0.000 -0.004  0.017 -0.000  0.613
atom    4   Tr[ns(na)] =   5.82071
    eigenvalues: 
  0.406  0.521  0.582  0.648  0.752
    eigenvectors:
  0.000  0.000  0.995  0.005  0.000
  0.000  0.000  0.005  0.995  0.000
  1.000  0.000  0.000  0.000  0.000
  0.000  0.000  0.000  0.000  1.000
  0.000  1.000  0.000  0.000  0.000
    occupations:
  0.583  0.004  0.001 -0.000  0.000
  0.004  0.648  0.004 -0.002  0.000
  0.001  0.004  0.406  0.000  0.001
 -0.000 -0.002  0.000  0.752  0.000
  0.000  0.000  0.001  0.000  0.521
atom    9   Tr[ns(na)] =   5.83862
    eigenvalues: 
  0.468  0.535  0.593  0.600  0.723
    eigenvectors:
  0.000  0.000  0.201  0.020  0.779
  0.000  0.000  0.091  0.909  0.000
  0.169  0.831  0.000  0.000  0.000
  0.000  0.000  0.708  0.072  0.221
  0.831  0.169  0.000  0.000  0.000
    occupations:
  0.695 -0.001  0.001 -0.054 -0.002
 -0.001  0.599 -0.001 -0.002 -0.000
  0.001 -0.001  0.524 -0.001  0.025
 -0.054 -0.002 -0.001  0.622 -0.000
 -0.002 -0.000  0.025 -0.000  0.480
atom   10   Tr[ns(na)] =   5.79457
    eigenvalues: 
  0.457  0.487  0.513  0.706  0.735
    eigenvectors:
  0.013  0.987  0.000  0.000  0.000
  0.000  0.000  0.000  1.000  0.000
  0.987  0.013  0.000  0.000  0.000
  0.000  0.000  0.000  0.000  1.000
  0.000  0.000  1.000  0.000  0.000
    occupations:
  0.486  0.000 -0.003  0.002 -0.000
  0.000  0.706 -0.002  0.000 -0.001
 -0.003 -0.002  0.457 -0.001 -0.000
  0.002  0.000 -0.001  0.735 -0.000
 -0.000 -0.001 -0.000 -0.000  0.513
atom   16   Tr[ns(na)] =   5.83762
    eigenvalues: 
  0.461  0.512  0.569  0.615  0.762
    eigenvectors:
  0.012  0.000  0.314  0.000  0.673
  0.000  0.997  0.001  0.002  0.000
  0.974  0.000  0.002  0.013  0.011
  0.000  0.000  0.683  0.001  0.315
  0.013  0.002  0.000  0.985  0.000
    occupations:
  0.698  0.002  0.028 -0.089 -0.000
  0.002  0.512  0.002  0.001 -0.005
  0.028  0.002  0.466 -0.013 -0.018
 -0.089  0.001 -0.013  0.630  0.000
 -0.000 -0.005 -0.018  0.000  0.613
atom   17   Tr[ns(na)] =   5.82980
    eigenvalues: 
  0.425  0.520  0.585  0.626  0.759
    eigenvectors:
  0.000  0.000  0.987  0.013  0.001
  0.000  0.000  0.013  0.987  0.000
  1.000  0.000  0.000  0.000  0.000
  0.000  0.000  0.000  0.000  0.999
  0.000  1.000  0.000  0.000  0.000
    occupations:
  0.585  0.005  0.001 -0.004  0.000
  0.005  0.626  0.003 -0.002 -0.001
  0.001  0.003  0.425 -0.002  0.000
 -0.004 -0.002 -0.002  0.759  0.000
  0.000 -0.001  0.000  0.000  0.521
atom   22   Tr[ns(na)] =   5.83801
    eigenvalues: 
  0.466  0.534  0.592  0.598  0.729
    eigenvectors:
  0.000  0.000  0.189  0.035  0.775
  0.000  0.000  0.160  0.840  0.000
  0.168  0.832  0.000  0.000  0.000
  0.000  0.000  0.651  0.124  0.224
  0.832  0.168  0.000  0.000  0.000
    occupations:
  0.698  0.001  0.000 -0.057 -0.002
  0.001  0.597  0.000  0.002 -0.000
  0.000  0.000  0.522 -0.000 -0.025
 -0.057  0.002 -0.000  0.623  0.002
 -0.002 -0.000 -0.025  0.002  0.478
atom   23   Tr[ns(na)] =   5.84603
    eigenvalues: 
  0.503  0.521  0.534  0.582  0.782
    eigenvectors:
  0.002  0.000  0.000  0.987  0.011
  0.000  0.120  0.880  0.000  0.000
  0.997  0.000  0.000  0.002  0.000
  0.001  0.000  0.000  0.010  0.989
  0.000  0.880  0.120  0.000  0.000
    occupations:
  0.584 -0.000  0.003 -0.020  0.000
 -0.000  0.533 -0.000 -0.000 -0.004
  0.003 -0.000  0.503  0.006  0.000
 -0.020 -0.000  0.006  0.780 -0.000
  0.000 -0.004  0.000 -0.000  0.523
N of occupied +U levels =  46.6433617
 --- exit write_ns ---

          k = 0.0000 0.0000 0.0000 ( 29769 PWs)   bands (ev):

   -62.0808 -61.9535 -61.9468 -61.7504 -61.7443 -61.6314 -61.6273 -61.6217
   -36.7845 -36.4894 -36.3690 -36.3455 -36.3001 -36.1886 -36.1344 -36.1186
   -36.0910 -36.0435 -35.9710 -35.9514 -35.9370 -35.9222 -35.9055 -35.8746
   -35.7387 -35.7242 -35.7206 -35.6894 -35.6500 -35.1821 -35.1360 -35.0929
   -22.8854 -20.3801 -20.0201 -19.6990 -19.5575 -19.3451 -19.2225 -18.8905
   -18.8198 -18.7873 -18.6907 -18.6487 -18.6196 -18.4674 -18.4226 -18.3759
   -18.2074 -17.7815 -17.5487 -16.6453  -8.6070  -8.2818  -8.2335  -8.1539
    -8.1105  -8.0673  -7.4859  -7.3161  -7.0649  -7.0330  -6.8286  -6.7676
    -6.7400  -6.6585  -6.4193  -6.3175  -6.2326  -6.0949  -5.9459  -5.9437
    -5.8861  -5.7702  -5.6844  -5.6176  -5.3233  -5.0707  -4.9389  -4.8416
    -4.8224  -4.7492  -4.7399  -4.5958  -4.4580  -4.2887  -4.1650  -4.1310
    -4.0246  -3.9138  -3.8548  -3.7478  -3.7144  -3.5709  -3.4899  -3.3834
    -3.2220  -3.0994  -3.0097  -2.9878  -2.8404  -2.8308  -2.7967  -2.7924
    -2.7620  -2.6752  -2.6483  -2.5565  -2.5036  -2.4041  -2.1772  -2.1586
    -1.9827  -1.2971  -0.5508  -0.1017   0.1372   0.5032   0.5929   0.6781
     0.9377   0.9911   1.0094   1.2444   1.2489   1.4690   1.6757   1.7960
     1.8655   2.4243   2.5885   2.9390   3.0356   3.1042   3.1103   3.1420
     3.3230   3.6609   3.9297   4.0762   4.3593   4.4319   4.4715   4.6021
     4.8732   4.8869   4.9262   5.0474   5.1327   5.2989   5.3424   5.4419
     5.4553   5.5110   5.5505   6.0774   6.2821   6.5429   6.6165   6.7000
     7.0425   7.2255   7.3287   7.5257   7.6353   7.6747   7.8698   7.9222
     8.1083   8.2364   8.2689   8.5771   8.8027   8.8578   9.0357   9.2024
     9.2260   9.2679   9.3087   9.3800   9.4874   9.4934   9.7345   9.8711
     9.9755  10.0100  10.0956  10.1019  10.2176  10.2565  10.3938  10.4476
    10.6517  10.7083  10.7642  10.8082  10.9909  11.1575  11.2503  11.2798
    11.3151  11.5478  11.6647  11.7368  11.8244  11.8675  11.9565  12.0542
    12.1075  12.1509  12.2042  12.3847  12.4670  12.4825  12.5065  12.6006
    12.6318  12.6682  12.6809  12.7319  12.7656  12.8458  12.9308  13.0090
    13.1622  13.1970  13.2781  13.3342  13.5127  13.5647  13.6261  13.6823
    13.7421  13.7469  13.8340  13.9000  13.9162  14.0337  14.0863  14.2155
    14.3069  14.3863  14.4413  14.5209  14.5639  14.5945  14.7915  14.9765
    15.0110  15.1643  15.1779  15.2087  15.3137  15.4793  15.4925  15.5453
    15.7086  15.8310  15.8450  16.0250  16.0657  16.1158  16.1566  16.1616
    16.2113  16.3275  16.3655  16.3785  16.4008  16.5405  16.5714  16.6658
    16.6953  16.7576  16.8035  16.8433  16.8647  16.9204  16.9367  16.9857
    17.1041  17.1486  17.3673  17.4604  17.6965  17.7927  17.8225  17.8587
    17.9734  18.0424  18.1297  18.1585  18.2854  18.3405  18.3548  18.4916
    18.6687  18.7178  18.8143  18.9327  18.9908  19.1132  19.2309  19.3173
    19.3223  19.4682  19.4910  19.5204  19.6245  19.6487  19.7952  19.8413
    19.8661  19.9033  19.9266  20.0409  20.0720  20.1131  20.3046  20.3596
    20.3903  20.4392  20.5483  20.5819  20.6396  20.7060  20.8381  20.9740
    21.1276  21.1931  21.2501  21.2958  21.3050  21.3681  21.4177  21.5210
    21.6122  21.6387  21.6680  21.6722  21.7047  21.7559  21.7991  21.8019
    21.8687  22.0029  22.0405  22.0571  22.1304  22.2102  22.2587  22.3084
    22.3320  22.4080  22.4238

          k = 0.0000 0.1950 0.0000 ( 29773 PWs)   bands (ev):

   -62.0800 -61.9535 -61.9464 -61.7491 -61.7442 -61.6315 -61.6275 -61.6215
   -36.7841 -36.4845 -36.3824 -36.3455 -36.2859 -36.1885 -36.1412 -36.1066
   -36.0877 -36.0434 -35.9633 -35.9590 -35.9364 -35.9222 -35.9168 -35.8810
   -35.7387 -35.7245 -35.7199 -35.6893 -35.6500 -35.1821 -35.1356 -35.0933
   -22.8853 -20.3734 -20.0196 -19.5687 -19.4502 -19.3053 -19.1834 -19.1136
   -18.9697 -18.8897 -18.8308 -18.6947 -18.5582 -18.4455 -18.4063 -18.2471
   -18.0822 -17.7816 -17.5481 -16.6443  -8.5985  -8.2791  -8.1606  -8.1390
    -7.8608  -7.6861  -7.4961  -7.4257  -7.3283  -7.2971  -7.2150  -6.9982
    -6.9782  -6.7004  -6.6464  -6.4141  -6.1956  -5.9615  -5.9046  -5.8209
    -5.6848  -5.4999  -5.3334  -5.2115  -5.1478  -5.0484  -4.9457  -4.8730
    -4.8072  -4.7851  -4.7328  -4.6451  -4.5693  -4.5547  -4.4730  -4.1600
    -3.9979  -3.9337  -3.8028  -3.6640  -3.6316  -3.5824  -3.4843  -3.3522
    -3.3031  -3.1548  -3.0725  -3.0368  -2.9855  -2.9571  -2.8711  -2.7775
    -2.7482  -2.6655  -2.4670  -2.3901  -2.2537  -2.2157  -2.1565  -2.0543
    -2.0200  -1.4301  -0.5482  -0.4186  -0.3170  -0.0394   0.5762   0.7750
     1.1324   1.2922   1.4018   1.4280   1.5594   1.6746   1.7002   1.8029
     1.8800   2.2128   2.5278   2.9231   2.9608   3.1041   3.1306   3.2557
     3.4812   3.7498   3.9749   4.1033   4.1087   4.2680   4.4740   4.5788
     4.6079   4.6565   4.6959   4.7606   4.8462   4.9987   5.3307   5.4462
     5.5722   5.7872   5.9207   6.1967   6.3339   6.5448   6.5577   6.7095
     6.7351   6.8370   6.9573   7.4093   7.7106   7.8010   7.9891   8.0952
     8.3771   8.4207   8.5333   8.7090   9.0589   9.1092   9.1756   9.2027
     9.2647   9.3971   9.5221   9.5592   9.6461   9.7783   9.8613   9.8892
    10.1206  10.1764  10.2276  10.2980  10.3400  10.4235  10.5157  10.5893
    10.6942  10.7175  10.8683  10.9404  10.9665  11.0109  11.0984  11.1491
    11.3133  11.3595  11.4941  11.5248  11.5298  11.6840  11.7918  11.8254
    11.8884  11.9651  12.0331  12.0646  12.1870  12.3183  12.4278  12.5575
    12.5716  12.7014  12.8173  12.8874  12.9879  13.0078  13.0743  13.2268
    13.2728  13.3112  13.3424  13.3825  13.5595  13.6365  13.7021  13.7117
    13.7694  13.9087  14.0051  14.0254  14.0926  14.1141  14.1854  14.1982
    14.2663  14.3020  14.3393  14.4124  14.4873  14.5898  14.6964  14.8339
    14.8620  15.0119  15.0274  15.1363  15.1710  15.2808  15.3223  15.3811
    15.4412  15.5120  15.6458  15.7015  15.8059  15.9179  15.9442  16.0292
    16.0672  16.0828  16.1456  16.1719  16.3116  16.3498  16.4674  16.5445
    16.6290  16.6985  16.8305  17.0551  17.1418  17.1606  17.1977  17.2687
    17.3643  17.3803  17.5451  17.6358  17.6956  17.8097  17.8589  17.9201
    18.1018  18.2077  18.2322  18.3358  18.4235  18.5153  18.5521  18.5745
    18.6497  18.7683  18.7942  18.8541  18.9342  18.9543  19.0139  19.0982
    19.1197  19.1770  19.2832  19.3407  19.5157  19.5540  19.6022  19.6287
    19.6413  19.7282  19.7433  19.8771  19.8973  19.9529  20.0280  20.1046
    20.1508  20.2189  20.2744  20.2873  20.3932  20.4741  20.5097  20.6339
    20.6906  20.7752  20.9559  20.9806  21.0166  21.2265  21.2396  21.2751
    21.3515  21.4262  21.5109  21.6229  21.7174  21.7360  21.7814  21.8661
    21.9386  21.9755  21.9996  22.1042  22.1304  22.1783  22.3031  22.3765
    22.4209  22.5406  22.6339

          k = 0.0000-0.3900 0.0000 ( 29782 PWs)   bands (ev):

   -62.0790 -61.9535 -61.9461 -61.7475 -61.7443 -61.6316 -61.6278 -61.6213
   -36.7838 -36.4794 -36.3927 -36.3454 -36.2748 -36.1883 -36.1475 -36.0990
   -36.0764 -36.0434 -35.9665 -35.9563 -35.9372 -35.9336 -35.9222 -35.8845
   -35.7386 -35.7248 -35.7194 -35.6892 -35.6499 -35.1821 -35.1351 -35.0938
   -22.8851 -20.3674 -20.0191 -19.4579 -19.3372 -19.2679 -19.1249 -19.0734
   -19.0418 -18.9496 -18.8876 -18.7926 -18.7536 -18.6701 -18.4456 -18.0482
   -17.8816 -17.7819 -17.5475 -16.6433  -8.5912  -8.3126  -8.1702  -8.1459
    -7.6477  -7.6452  -7.5332  -7.4835  -7.3802  -7.3691  -7.1774  -6.9922
    -6.8862  -6.7242  -6.6407  -6.2167  -6.2048  -6.1847  -6.0303  -5.9592
    -5.8408  -5.7355  -5.5654  -5.1275  -5.0513  -4.9645  -4.9299  -4.8691
    -4.7817  -4.7417  -4.7236  -4.6201  -4.5070  -4.2759  -4.1784  -4.1718
    -4.0691  -3.8451  -3.7907  -3.7356  -3.6649  -3.6250  -3.4771  -3.2346
    -3.2304  -3.2148  -3.1512  -3.0718  -3.0420  -3.0048  -2.9053  -2.8185
    -2.7773  -2.6236  -2.4258  -2.3501  -2.2916  -2.1496  -2.1276  -1.8661
    -1.7713  -1.6131  -0.7502  -0.6096  -0.5439  -0.3797   0.4911   0.8827
     1.3653   1.4139   1.6572   1.7161   1.7728   1.7895   1.7998   1.8746
     1.9644   2.0625   2.3876   2.7672   2.7937   3.0783   3.2321   3.3583
     3.4430   3.5945   3.6396   3.9030   4.2662   4.2921   4.3645   4.4031
     4.4809   4.7598   4.8201   4.9077   5.1223   5.1372   5.2491   5.4342
     5.4487   5.5470   5.5770   5.8016   6.0748   6.4215   6.6726   6.8091
     6.8960   7.1863   7.2053   7.2663   7.4809   7.6571   7.7906   8.0699
     8.3343   8.5558   8.6569   8.8131   8.8630   8.9484   9.3400   9.3445
     9.7739   9.8083   9.9226   9.9968  10.0673  10.0818  10.1044  10.1854
    10.2502  10.3193  10.3405  10.4315  10.4695  10.4764  10.6332  10.6744
    10.6858  10.7665  10.8222  10.8714  11.0514  11.0672  11.2619  11.3042
    11.3238  11.3583  11.4710  11.4885  11.5727  11.6300  11.6977  11.8187
    11.8944  11.9826  11.9910  12.0581  12.0613  12.1582  12.1649  12.2111
    12.2921  12.3224  12.3700  12.5668  12.6660  12.8124  12.8719  12.9055
    13.0092  13.0810  13.1858  13.2014  13.2866  13.3188  13.4731  13.5380
    13.6097  13.6904  13.7044  13.9314  14.1218  14.1269  14.1724  14.2444
    14.3054  14.3336  14.4142  14.6660  14.7786  14.8294  14.8684  15.0617
    15.0976  15.1867  15.2722  15.3491  15.4973  15.5242  15.6414  15.7533
    15.7749  15.8017  15.9139  15.9423  16.0392  16.0663  16.1129  16.2153
    16.2690  16.2865  16.3173  16.3738  16.3899  16.4263  16.4733  16.5402
    16.6224  16.7459  16.8036  16.8226  16.8676  16.9426  17.0056  17.0721
    17.1251  17.2225  17.2317  17.3160  17.3797  17.5266  17.5515  17.6654
    17.6964  17.7188  17.8366  17.8648  18.1024  18.1059  18.1148  18.1673
    18.1875  18.3715  18.4519  18.4562  18.5242  18.7360  18.9029  18.9713
    19.0484  19.0673  19.1201  19.2030  19.2456  19.2949  19.3008  19.3639
    19.5066  19.5165  19.6407  19.6877  19.8402  19.8769  19.9218  20.0176
    20.0835  20.3886  20.4330  20.5358  20.5609  20.6187  20.6603  20.7451
    20.9006  20.9869  20.9992  21.0585  21.0885  21.1558  21.2379  21.2687
    21.3047  21.3889  21.7361  21.7465  21.8178  21.8563  22.0001  22.0339
    22.0485  22.1597  22.1930  22.2610  22.3011  22.5247  22.5578  22.5853
    22.6487  22.8041  22.8811

          k = 0.2500 0.0000 0.0000 ( 29757 PWs)   bands (ev):

   -62.0546 -61.9645 -61.9346 -61.7232 -61.7192 -61.6413 -61.6345 -61.6171
   -36.6412 -36.4716 -36.3864 -36.3419 -36.1844 -36.1155 -36.0962 -36.0343
   -36.0260 -35.9986 -35.9925 -35.9412 -35.9296 -35.9208 -35.8808 -35.8584
   -35.8501 -35.7483 -35.7466 -35.7327 -35.7187 -35.3362 -35.3083 -35.2646
   -22.8857 -20.2850 -20.0273 -19.5666 -19.4191 -19.3031 -19.1714 -18.9082
   -18.7908 -18.7392 -18.7135 -18.6659 -18.6099 -18.5512 -18.4545 -18.4294
   -18.2665 -17.8785 -17.7165 -16.6461  -8.3928  -8.2404  -8.1277  -7.9084
    -7.7993  -7.7216  -7.1104  -7.0713  -7.0270  -6.9749  -6.7302  -6.6929
    -6.5822  -6.5017  -6.4416  -6.3987  -6.2101  -6.1541  -5.9428  -5.9064
    -5.8274  -5.6999  -5.5977  -5.4875  -5.4394  -5.3799  -5.3187  -5.2722
    -4.9468  -4.9195  -4.6758  -4.5628  -4.3909  -4.3441  -4.1612  -4.1201
    -3.9498  -3.8673  -3.8183  -3.7442  -3.6760  -3.6400  -3.5871  -3.5676
    -3.5094  -3.4291  -3.3817  -3.1122  -3.0323  -2.9890  -2.9622  -2.8589
    -2.7680  -2.7492  -2.5423  -2.4384  -2.3845  -2.0753  -1.8231  -1.7000
    -1.5612  -1.3146  -0.2474  -0.0912   0.1544   0.3441   0.4667   0.6499
     0.7596   0.8888   1.0517   1.1566   1.2127   1.4097   1.6122   1.7680
     1.8568   1.8715   1.9663   2.0350   2.0599   2.4953   2.6568   2.9857
     3.5402   3.6987   4.1366   4.3007   4.4898   4.6107   4.6546   4.7169
     4.7932   4.9236   4.9559   5.1221   5.1924   5.2326   5.2771   5.3412
     5.4820   5.6131   5.8779   6.2476   6.3916   6.4339   6.6906   6.8317
     6.9511   7.0859   7.2499   7.5108   7.5217   7.6243   7.7257   7.8461
     7.9611   8.1303   8.2133   8.3787   8.4021   8.5251   8.7934   8.9653
     9.1567   9.1932   9.2609   9.4302   9.5833   9.6117   9.7218   9.8440
     9.9005   9.9904  10.0692  10.1356  10.2319  10.2804  10.3839  10.4520
    10.5525  10.5855  10.6862  10.7424  10.7691  10.9067  10.9742  11.0617
    11.1514  11.2180  11.4664  11.5664  11.6403  11.7494  11.7952  11.8792
    11.9163  11.9341  12.1746  12.2270  12.3851  12.5429  12.5961  12.7047
    12.7643  12.8628  12.9920  13.0259  13.0388  13.1559  13.2736  13.3923
    13.4570  13.5137  13.7424  13.8712  13.9517  13.9914  14.0403  14.1036
    14.1824  14.2306  14.3461  14.3991  14.4620  14.4981  14.7069  14.7902
    14.8276  14.9378  15.0977  15.1615  15.2039  15.2205  15.2645  15.3461
    15.3963  15.4558  15.5214  15.7220  15.7570  15.8246  15.8613  15.9669
    16.0682  16.1177  16.1415  16.1607  16.2310  16.2632  16.2974  16.4570
    16.5203  16.5578  16.6267  16.6378  16.7051  16.7295  16.8145  16.9066
    16.9298  16.9610  17.0265  17.0676  17.1602  17.2787  17.3115  17.3762
    17.4878  17.5044  17.5779  17.6242  17.7070  17.7932  17.8659  17.9880
    18.0943  18.1376  18.2061  18.2602  18.3071  18.4152  18.4423  18.6171
    18.6688  18.7545  18.8799  18.9120  19.0087  19.0556  19.0886  19.1483
    19.1870  19.2385  19.3193  19.3307  19.4550  19.5000  19.5307  19.5426
    19.6483  19.6732  19.7293  19.8024  19.8500  19.9268  19.9804  20.0004
    20.0159  20.1174  20.1682  20.2278  20.2516  20.3651  20.4049  20.4163
    20.4785  20.5167  20.5807  20.6408  20.6668  20.7785  20.8240  20.9371
    20.9651  21.1619  21.2193  21.2821  21.4095  21.4550  21.5581  21.6016
    21.6407  21.7148  21.8313  21.8747  21.9389  21.9813  22.0092  22.1233
    22.1575  22.2123  22.2685

          k = 0.2500 0.1950 0.0000 ( 29746 PWs)   bands (ev):

   -62.0538 -61.9644 -61.9343 -61.7222 -61.7190 -61.6407 -61.6352 -61.6169
   -36.6409 -36.4676 -36.3900 -36.3418 -36.1797 -36.1150 -36.0840 -36.0345
   -36.0266 -36.0241 -35.9634 -35.9412 -35.9358 -35.9207 -35.8913 -35.8581
   -35.8543 -35.7496 -35.7477 -35.7326 -35.7190 -35.3360 -35.3076 -35.2649
   -22.8855 -20.2802 -20.0267 -19.4613 -19.3392 -19.2766 -19.1105 -19.0886
   -18.9522 -18.8717 -18.7446 -18.6830 -18.5708 -18.4611 -18.4324 -18.3738
   -18.2137 -17.8787 -17.7164 -16.6451  -8.3814  -8.2389  -8.1378  -7.7990
    -7.5826  -7.4017  -7.3463  -7.2269  -7.0758  -7.0516  -7.0041  -6.9258
    -6.8312  -6.6502  -6.4629  -6.3818  -6.1168  -6.0610  -5.9541  -5.8903
    -5.7287  -5.6799  -5.5924  -5.4171  -5.3889  -5.2595  -4.9947  -4.9504
    -4.8561  -4.7400  -4.6769  -4.5702  -4.4697  -4.3179  -4.1587  -4.1212
    -4.0841  -4.0482  -3.9979  -3.9408  -3.8588  -3.7716  -3.7398  -3.5683
    -3.4599  -3.4153  -3.2838  -3.1442  -3.0548  -3.0319  -2.9498  -2.8538
    -2.7761  -2.6961  -2.5189  -2.4319  -2.3319  -2.1148  -1.5685  -1.4642
    -1.3925  -1.3394  -0.3558  -0.2542  -0.1707  -0.0112   0.6181   0.6506
     0.9457   1.0503   1.1794   1.2376   1.4325   1.5219   1.7033   1.8253
     1.8999   1.9428   2.0725   2.1000   2.1778   2.2604   2.6756   2.8738
     3.6234   3.7883   4.0209   4.1179   4.2044   4.3211   4.3875   4.5329
     4.7204   4.7898   4.8493   4.9584   5.1407   5.1818   5.2982   5.5421
     5.8882   6.0607   6.1661   6.2350   6.3060   6.4628   6.5075   6.5856
     6.7205   6.9461   6.9835   7.2483   7.3275   7.4414   7.7347   7.7896
     8.0907   8.2437   8.4603   8.4866   8.6244   8.7207   8.8575   8.9853
     8.9973   9.1895   9.2299   9.3628   9.5132   9.6157   9.7021   9.7762
     9.8307   9.8992   9.9800  10.0917  10.2450  10.4042  10.5539  10.6389
    10.7121  10.7880  10.8945  10.9395  11.0136  11.1162  11.3132  11.3552
    11.4845  11.6616  11.7465  11.8319  11.9186  11.9347  12.0477  12.1833
    12.2139  12.2484  12.3376  12.3507  12.4599  12.5633  12.6394  12.7965
    12.9023  12.9839  13.0666  13.1439  13.1959  13.2501  13.3853  13.4326
    13.5245  13.5588  13.6223  13.7250  13.7516  13.8544  13.9047  13.9706
    14.0488  14.0924  14.1304  14.2030  14.2472  14.3040  14.3713  14.4032
    14.4574  14.5192  14.6435  14.7504  14.7690  14.8722  14.9139  15.0485
    15.1124  15.2571  15.3032  15.4249  15.4641  15.5196  15.6479  15.6745
    15.7915  15.8807  15.9151  16.0170  16.0960  16.1320  16.2527  16.3070
    16.3445  16.4167  16.5019  16.5686  16.6034  16.6271  16.7216  16.7493
    16.8506  16.9121  16.9715  17.0917  17.1249  17.1943  17.2760  17.3043
    17.3407  17.3876  17.4898  17.5891  17.6849  17.7661  17.8057  17.8830
    18.0638  18.0960  18.1439  18.1927  18.2190  18.3555  18.4024  18.4571
    18.5770  18.6391  18.6804  18.7743  18.9193  18.9569  19.0240  19.0717
    19.2188  19.2886  19.3700  19.4251  19.4400  19.5525  19.6222  19.6975
    19.8222  19.9072  19.9790  20.0357  20.1079  20.1571  20.2089  20.2515
    20.2735  20.3383  20.4211  20.4517  20.4877  20.5225  20.6136  20.7149
    20.7829  20.8230  20.9031  20.9414  21.0073  21.1080  21.1357  21.2128
    21.2973  21.3526  21.3823  21.4603  21.5067  21.5391  21.6086  21.6218
    21.6563  21.7490  21.8086  21.8724  21.9038  21.9499  21.9824  22.0801
    22.1432  22.2212  22.2781

          k = 0.2500-0.3900 0.0000 ( 29726 PWs)   bands (ev):

   -62.0531 -61.9642 -61.9340 -61.7213 -61.7189 -61.6399 -61.6361 -61.6166
   -36.6406 -36.4635 -36.3934 -36.3417 -36.1752 -36.1147 -36.0699 -36.0391
   -36.0318 -36.0258 -35.9478 -35.9422 -35.9409 -35.9208 -35.9063 -35.8576
   -35.8569 -35.7509 -35.7493 -35.7325 -35.7194 -35.3357 -35.3069 -35.2651
   -22.8853 -20.2759 -20.0262 -19.3488 -19.3399 -19.2205 -19.0742 -19.0386
   -18.9471 -18.8835 -18.8540 -18.7876 -18.7118 -18.6384 -18.4609 -18.2107
   -18.0508 -17.8789 -17.7164 -16.6441  -8.3720  -8.2393  -8.1413  -7.7987
    -7.5937  -7.4243  -7.2273  -7.1882  -7.1464  -7.0663  -6.9937  -6.7429
    -6.6934  -6.6613  -6.5292  -6.4904  -6.4777  -6.2156  -6.1386  -6.0172
    -5.7863  -5.7068  -5.4843  -5.3232  -5.1230  -4.9886  -4.9779  -4.8731
    -4.6928  -4.6799  -4.5697  -4.5101  -4.4231  -4.3258  -4.3068  -4.2150
    -4.1505  -4.1234  -4.0856  -3.9882  -3.9646  -3.9085  -3.8489  -3.6268
    -3.4229  -3.3301  -3.3149  -3.1436  -3.0288  -3.0146  -2.9055  -2.8059
    -2.7243  -2.6538  -2.5222  -2.4060  -2.3220  -2.1592  -1.5572  -1.4700
    -1.2619  -1.1763  -0.5519  -0.4242  -0.3212  -0.2645   0.5119   0.9107
     1.0201   1.1295   1.4421   1.5193   1.6507   1.7123   1.7989   1.8417
     1.8987   2.0398   2.0863   2.1581   2.3387   2.4012   2.4153   2.9083
     3.3018   3.3922   3.6707   3.8191   3.9330   4.0189   4.3973   4.5523
     4.7463   4.8962   4.9308   5.1927   5.2734   5.3817   5.4680   5.5608
     5.7590   5.7991   5.8739   6.1018   6.3433   6.4338   6.5017   6.7562
     6.8191   6.9260   6.9625   7.0686   7.4289   7.6527   7.6822   7.8504
     7.9565   8.0189   8.0879   8.2852   8.4409   8.6189   8.7488   8.8081
     9.0426   9.1112   9.2403   9.3221   9.4507   9.6936   9.7294   9.8676
    10.0715  10.2179  10.3492  10.4409  10.4970  10.7484  10.8035  10.8421
    10.9730  11.0209  11.0500  11.2138  11.4168  11.5440  11.5863  11.6541
    11.6908  11.9384  11.9606  12.0090  12.0423  12.1408  12.2470  12.2705
    12.3341  12.3648  12.4622  12.4970  12.5269  12.6253  12.7123  12.8557
    12.9221  12.9671  12.9945  13.0569  13.0738  13.1489  13.1776  13.2355
    13.3141  13.3591  13.6053  13.7093  13.7442  13.7968  13.8569  13.8935
    13.9481  14.0009  14.0596  14.0914  14.1294  14.1695  14.1848  14.2569
    14.3536  14.4310  14.5303  14.5994  14.6350  14.6454  14.7228  14.8148
    14.8894  14.9118  15.0464  15.1043  15.1678  15.2374  15.2604  15.3899
    15.4784  15.5188  15.6002  15.6789  15.7618  15.8731  15.9013  16.0295
    16.1014  16.2281  16.2793  16.3069  16.3409  16.4619  16.5314  16.6026
    16.7426  16.9550  17.0313  17.0517  17.1035  17.1266  17.1679  17.2971
    17.3556  17.5040  17.5278  17.5628  17.6542  17.7652  17.8485  18.0110
    18.0694  18.0888  18.2242  18.2493  18.4115  18.4341  18.4951  18.5931
    18.6595  18.7028  18.7933  18.8504  18.9704  19.0714  19.1214  19.1911
    19.2822  19.3387  19.3773  19.4430  19.4597  19.5308  19.6037  19.6758
    19.7073  19.7729  19.8186  19.9569  20.0400  20.1066  20.1406  20.3033
    20.3574  20.3999  20.4823  20.5329  20.5866  20.6128  20.6176  20.6986
    20.7196  20.7405  20.8854  20.9641  20.9970  21.0514  21.1007  21.1243
    21.2088  21.2725  21.3715  21.3869  21.5368  21.5735  21.6044  21.6588
    21.7338  21.8026  21.8678  21.9210  21.9755  22.0060  22.1045  22.1518
    22.1963  22.2764  22.3049

          k =-0.5000 0.0000 0.0000 ( 29752 PWs)   bands (ev):

   -62.0092 -61.9946 -61.9226 -61.6782 -61.6738 -61.6708 -61.6600 -61.6126
   -36.4313 -36.4265 -36.3374 -36.2878 -36.2606 -36.1238 -36.0473 -36.0422
   -35.9851 -35.9844 -35.9825 -35.8994 -35.8378 -35.8357 -35.8133 -35.8025
   -35.7885 -35.7815 -35.7803 -35.6928 -35.6912 -35.6505 -35.6462 -35.5596
   -22.8859 -20.1189 -20.0995 -19.3956 -19.2108 -19.1393 -19.0941 -19.0926
   -18.9368 -18.9018 -18.7572 -18.5804 -18.5566 -18.4157 -18.4144 -18.4084
   -18.3867 -18.0198 -17.9800 -16.6468  -8.2481  -8.1200  -8.0969  -7.3038
    -7.2932  -7.1884  -7.1354  -7.0209  -7.0068  -6.8431  -6.8220  -6.5969
    -6.5220  -6.4494  -6.4282  -6.3259  -6.2738  -6.2229  -5.9117  -5.8126
    -5.7556  -5.5977  -5.4488  -5.4302  -5.2360  -5.2190  -5.1460  -5.1269
    -5.0189  -4.9070  -4.8687  -4.8282  -4.7463  -4.6217  -4.5591  -4.3572
    -4.3544  -4.1386  -4.0459  -3.9748  -3.9276  -3.8921  -3.8060  -3.6816
    -3.6598  -3.4513  -3.3921  -3.0880  -3.0103  -2.9814  -2.9706  -2.6511
    -2.6476  -2.6020  -2.4917  -2.3882  -2.3748  -2.2336  -1.3648  -0.5012
    -0.3124  -0.2943  -0.2851  -0.2233  -0.1476  -0.0164   0.0818   0.1553
     0.1787   0.4887   0.6244   0.7016   1.0384   1.0412   1.1785   1.1943
     1.2468   1.4223   1.4733   2.1394   2.2314   2.5398   2.6344   2.7103
     3.5866   4.1031   4.1241   4.3827   4.5466   4.7862   4.8304   4.8630
     4.9789   4.9864   5.0800   5.1656   5.2242   5.2384   5.2761   5.3756
     5.5397   5.7004   5.8226   5.9641   6.0970   6.2304   6.4555   6.7363
     6.8030   6.8230   7.3742   7.4757   7.7203   7.8736   7.9889   8.0452
     8.2811   8.3608   8.3810   8.4389   8.5565   8.5954   8.7220   8.7599
     8.8438   8.8582   8.9442   9.0575   9.1688   9.2165   9.2968   9.4200
     9.4902   9.5158   9.7131  10.0221  10.0416  10.0850  10.2639  10.4036
    10.4193  10.5085  10.5325  10.7236  10.8157  10.8996  10.9673  11.0717
    11.1187  11.1829  11.5434  11.6418  11.7367  11.8381  11.8696  11.9499
    12.0141  12.1011  12.2664  12.3446  12.4118  12.6007  12.6931  12.7118
    12.9314  13.1276  13.1999  13.3085  13.3836  13.4414  13.5288  13.5793
    13.6931  13.7725  14.0794  14.1145  14.1392  14.4080  14.4361  14.7300
    14.8158  14.9135  14.9454  15.0095  15.0649  15.1236  15.1731  15.1956
    15.2558  15.2609  15.3831  15.4335  15.5370  15.5537  15.6342  15.6567
    15.8276  15.9128  15.9484  15.9520  16.0359  16.1249  16.2795  16.3543
    16.3779  16.4273  16.4893  16.5485  16.5983  16.6689  16.7239  16.8829
    16.9001  16.9816  17.0697  17.1431  17.1521  17.1911  17.2721  17.2874
    17.4054  17.4672  17.5186  17.5701  17.6584  17.7561  17.8073  17.8451
    17.8596  17.8908  17.9079  17.9407  18.0253  18.0769  18.0858  18.1573
    18.1856  18.2380  18.2495  18.3140  18.3523  18.4269  18.5075  18.5389
    18.5490  18.6506  18.6772  18.6933  18.7050  18.7436  18.7591  18.8108
    18.9087  18.9236  19.0171  19.0674  19.0850  19.1217  19.1384  19.2393
    19.2735  19.2801  19.3214  19.3529  19.3640  19.3928  19.5029  19.5508
    19.6039  19.6330  19.6534  19.7382  19.8142  20.0363  20.0710  20.1578
    20.2198  20.2713  20.2795  20.3481  20.4929  20.5090  20.5543  20.6273
    20.6737  20.7141  20.7497  20.7883  20.8436  20.8651  20.9239  20.9956
    21.0303  21.1324  21.2231  21.2405  21.2949  21.3861  21.4673  21.4867
    21.6577  21.8022  21.8399

          k =-0.5000 0.1950 0.0000 ( 29720 PWs)   bands (ev):

   -62.0087 -61.9942 -61.9224 -61.6779 -61.6734 -61.6705 -61.6601 -61.6123
   -36.4297 -36.4251 -36.3373 -36.2876 -36.2604 -36.1234 -36.0406 -36.0364
   -35.9850 -35.9834 -35.9822 -35.9033 -35.8462 -35.8363 -35.8132 -35.8039
   -35.7907 -35.7879 -35.7831 -35.6912 -35.6897 -35.6493 -35.6448 -35.5587
   -22.8857 -20.1173 -20.0979 -19.3800 -19.1751 -19.1426 -19.0834 -19.0698
   -18.9566 -18.9121 -18.7706 -18.5748 -18.5704 -18.4384 -18.4277 -18.3956
   -18.3813 -18.0201 -17.9798 -16.6459  -8.2396  -8.1130  -8.0896  -7.3034
    -7.2954  -7.2102  -7.2021  -7.0555  -7.0481  -6.9951  -6.9821  -6.5477
    -6.4175  -6.3503  -6.2627  -6.2313  -6.1860  -6.0709  -5.9866  -5.7063
    -5.6495  -5.5725  -5.4802  -5.4711  -5.3589  -5.3437  -5.1696  -5.1119
    -5.0656  -5.0125  -4.9255  -4.8431  -4.8158  -4.5640  -4.5348  -4.4117
    -4.3364  -4.1146  -4.0976  -4.0204  -3.9938  -3.9736  -3.8900  -3.6513
    -3.6209  -3.4418  -3.4075  -3.0327  -3.0147  -2.9595  -2.9135  -2.6937
    -2.6431  -2.6174  -2.5360  -2.3770  -2.2844  -2.2241  -1.3659  -0.5315
    -0.3435  -0.2820  -0.2461  -0.1794  -0.1195   0.0107   0.0355   0.3440
     0.4844   0.4991   0.6236   0.8505   0.9781   1.0157   1.1779   1.1897
     1.4041   1.6747   1.7581   2.0718   2.1073   2.4273   2.4897   2.7877
     3.6042   3.9913   4.0271   4.1189   4.1330   4.1976   4.2911   4.7027
     4.7376   4.9456   5.2656   5.3131   5.4831   5.5505   5.6881   5.7002
     5.8291   5.8510   5.9707   5.9793   6.1650   6.3563   6.5491   6.6580
     6.8325   6.8665   7.1278   7.1331   7.2731   7.2828   7.5199   7.5881
     7.6442   7.8508   7.9686   8.2082   8.2301   8.3546   8.5719   8.6624
     8.9411   9.1803   9.2017   9.3777   9.4348   9.5307   9.6022   9.7246
     9.8149   9.8738  10.1068  10.1762  10.3730  10.4758  10.4945  10.5948
    10.7358  10.7592  10.8476  10.8789  10.9285  11.0251  11.1967  11.3108
    11.4495  11.5865  11.8193  11.8571  11.9111  11.9604  12.0690  12.1078
    12.2439  12.3489  12.3972  12.4756  12.6207  12.7323  12.7631  12.8182
    13.0522  13.1040  13.2506  13.2947  13.4055  13.4378  13.5670  13.8037
    13.8173  14.0827  14.0971  14.1801  14.2410  14.3258  14.4461  14.5726
    14.6214  14.6955  14.7824  14.8293  14.8372  14.9295  14.9729  14.9888
    15.0303  15.0391  15.1087  15.1572  15.2188  15.2757  15.3923  15.4488
    15.5209  15.5720  15.6736  15.6894  15.7808  15.8203  15.8564  15.8977
    15.9518  16.0648  16.1027  16.1560  16.1780  16.2067  16.3528  16.3668
    16.4816  16.5531  16.6238  16.6387  16.7157  16.7447  16.9042  16.9982
    17.0432  17.0920  17.1820  17.2476  17.3071  17.3594  17.3899  17.4032
    17.4416  17.5152  17.5601  17.6376  17.6964  17.7902  17.8316  17.8711
    17.9201  17.9821  18.0082  18.0638  18.1293  18.1861  18.2039  18.2732
    18.3513  18.4233  18.6274  18.7342  18.7548  18.8371  18.8746  18.9121
    18.9987  19.1390  19.1857  19.2550  19.3429  19.3665  19.4236  19.4774
    19.5976  19.6291  19.7348  19.7871  19.8878  19.9163  19.9866  19.9952
    20.2450  20.2695  20.3719  20.4345  20.4459  20.4850  20.4960  20.5547
    20.5651  20.6635  20.6813  20.8010  20.8742  20.9031  20.9930  21.0353
    21.1276  21.1384  21.1655  21.2006  21.2355  21.3052  21.3715  21.4113
    21.4711  21.4842  21.5384  21.5580  21.6886  21.7222  21.8588  21.8676
    21.9736  22.0583  22.0764

          k =-0.5000-0.3900 0.0000 ( 29668 PWs)   bands (ev):

   -62.0083 -61.9938 -61.9221 -61.6775 -61.6731 -61.6700 -61.6603 -61.6120
   -36.4282 -36.4235 -36.3373 -36.2875 -36.2603 -36.1231 -36.0337 -36.0299
   -35.9849 -35.9828 -35.9815 -35.9072 -35.8558 -35.8364 -35.8132 -35.8073
   -35.7948 -35.7901 -35.7859 -35.6895 -35.6881 -35.6481 -35.6438 -35.5579
   -22.8855 -20.1157 -20.0963 -19.3632 -19.1507 -19.1289 -19.0676 -19.0391
   -18.9894 -18.9254 -18.7886 -18.5835 -18.5687 -18.4529 -18.4393 -18.3914
   -18.3782 -18.0205 -17.9797 -16.6449  -8.2309  -8.1043  -8.0804  -7.3351
    -7.2858  -7.1808  -7.1640  -7.1296  -7.1281  -7.0529  -7.0272  -6.5797
    -6.3906  -6.3461  -6.2118  -6.1407  -6.1312  -6.0969  -6.0121  -5.7142
    -5.5816  -5.5336  -5.5038  -5.4821  -5.2915  -5.2545  -5.1998  -5.1937
    -4.9961  -4.9853  -4.9444  -4.7879  -4.7145  -4.5735  -4.4835  -4.4577
    -4.3950  -4.2553  -4.1920  -4.1740  -4.0898  -4.0700  -4.0231  -3.5950
    -3.5422  -3.4385  -3.3381  -3.0777  -3.0337  -2.8879  -2.7861  -2.7166
    -2.6748  -2.6200  -2.5959  -2.4978  -2.1756  -2.1462  -1.3663  -0.5710
    -0.4448  -0.3810  -0.2770  -0.1797  -0.1251  -0.0828  -0.0558   0.3883
     0.6950   0.8013   0.8831   1.0287   1.0880   1.2593   1.3277   1.4114
     1.6311   1.9015   1.9337   2.0676   2.1541   2.1797   2.2097   2.8468
     3.3263   3.3772   3.4614   3.5205   3.6763   4.1907   4.3251   4.8073
     4.8149   5.0849   5.3114   5.4047   5.6230   5.6788   5.9366   6.0175
     6.1445   6.2063   6.2602   6.2973   6.3681   6.3781   6.4427   6.4534
     6.5337   6.5420   6.7782   6.7820   6.9497   6.9811   7.2481   7.3528
     7.3902   7.6050   7.7723   8.0627   8.0755   8.4007   8.4560   8.7876
     8.7941   8.9476   8.9918   9.0995   9.4997   9.5308   9.6629   9.8890
     9.9295  10.1062  10.1652  10.2527  10.5322  10.5906  10.8900  10.9560
    11.3135  11.4157  11.4372  11.4882  11.5574  11.6312  11.7298  11.7497
    11.8622  11.9646  12.2253  12.2408  12.4787  12.4986  12.5144  12.5276
    12.5557  12.6015  12.6774  12.7646  12.7927  12.8012  12.8621  12.9455
    12.9572  13.0004  13.0639  13.1458  13.2816  13.3151  13.4450  13.4941
    13.4984  13.6076  13.6301  13.6557  13.8846  13.9193  13.9359  13.9816
    14.0757  14.1460  14.3067  14.5309  14.5709  14.7223  14.7283  14.8144
    14.8552  14.8747  14.9107  14.9135  15.0237  15.1131  15.1726  15.2438
    15.3192  15.3490  15.3871  15.4250  15.5992  15.6817  15.7100  15.7603
    15.8590  15.9122  16.0039  16.1126  16.1700  16.2396  16.2831  16.3499
    16.3731  16.4458  16.4644  16.4862  16.5370  16.5670  16.6340  16.6517
    16.7004  16.7154  16.7774  16.7935  16.9816  16.9959  17.1426  17.2193
    17.2279  17.4209  17.5130  17.5417  17.6070  17.6231  17.7273  17.8355
    17.8786  17.9495  18.0909  18.1642  18.1830  18.1919  18.2552  18.2683
    18.3042  18.3263  18.4025  18.4266  18.5418  18.5472  18.7168  18.7517
    18.7864  18.8960  19.1490  19.1900  19.3287  19.4065  19.4859  19.5136
    19.5563  19.6097  19.6399  19.6919  19.8071  19.8836  19.9572  20.1594
    20.3296  20.3793  20.4190  20.4548  20.4755  20.5626  20.6925  20.7438
    20.7724  20.7977  20.9853  21.0987  21.3012  21.3317  21.3852  21.4325
    21.4444  21.6816  21.7114  21.7431  21.7603  21.8164  21.9104  21.9484
    21.9617  22.0436  22.1161  22.1621  22.2031  22.2594  22.3701  22.3988
    22.4194  22.5093  22.5251

          k =-0.2500 0.1950 0.0000 ( 29746 PWs)   bands (ev):

   -62.0538 -61.9644 -61.9343 -61.7222 -61.7190 -61.6407 -61.6352 -61.6169
   -36.6409 -36.4676 -36.3899 -36.3418 -36.1797 -36.1150 -36.0839 -36.0346
   -36.0271 -36.0248 -35.9615 -35.9411 -35.9359 -35.9208 -35.8916 -35.8580
   -35.8544 -35.7496 -35.7481 -35.7326 -35.7191 -35.3360 -35.3076 -35.2648
   -22.8855 -20.2802 -20.0267 -19.4615 -19.3391 -19.2769 -19.1098 -19.0885
   -18.9505 -18.8743 -18.7445 -18.6829 -18.5706 -18.4612 -18.4326 -18.3739
   -18.2131 -17.8787 -17.7164 -16.6451  -8.3817  -8.2391  -8.1372  -7.7997
    -7.5826  -7.3984  -7.3457  -7.2256  -7.0806  -7.0570  -6.9983  -6.9256
    -6.8347  -6.6486  -6.4672  -6.3823  -6.1213  -6.0484  -5.9560  -5.9004
    -5.7237  -5.6751  -5.5886  -5.4094  -5.3810  -5.2472  -4.9836  -4.9605
    -4.9023  -4.7383  -4.6852  -4.5906  -4.4346  -4.2972  -4.1898  -4.1276
    -4.0748  -4.0383  -3.9967  -3.9345  -3.8504  -3.7745  -3.7396  -3.5900
    -3.4612  -3.4064  -3.2818  -3.1386  -3.0569  -3.0373  -2.9618  -2.8407
    -2.7474  -2.7008  -2.5662  -2.3866  -2.3385  -2.1312  -1.5695  -1.4645
    -1.3931  -1.3383  -0.3574  -0.2556  -0.1615   0.0100   0.6124   0.6331
     0.9454   1.0499   1.1648   1.2355   1.4488   1.5078   1.7086   1.8314
     1.9076   1.9383   2.0731   2.1114   2.1770   2.2541   2.6733   2.8722
     3.6239   3.7876   4.0209   4.1169   4.2046   4.3208   4.3906   4.5308
     4.7175   4.7919   4.8509   4.9584   5.1390   5.1921   5.2915   5.5423
     5.8923   6.0579   6.1687   6.2347   6.3068   6.4679   6.5103   6.5766
     6.7187   6.9426   6.9814   7.2541   7.3168   7.4396   7.7370   7.7879
     8.0832   8.2377   8.4537   8.5023   8.6343   8.7371   8.8554   8.9741
     8.9948   9.1891   9.2420   9.3619   9.5073   9.6189   9.6923   9.7752
     9.8254   9.9261   9.9804  10.0926  10.2296  10.4168  10.5378  10.6164
    10.6983  10.8071  10.8944  10.9413  11.0200  11.1452  11.2974  11.3782
    11.4918  11.6572  11.7415  11.8355  11.9136  11.9331  12.0227  12.1756
    12.2009  12.2545  12.3464  12.3657  12.4638  12.5608  12.6272  12.8111
    12.8970  12.9812  13.0414  13.1535  13.2017  13.2507  13.3973  13.4388
    13.5337  13.5551  13.6322  13.7051  13.7516  13.8492  13.8987  13.9567
    14.0415  14.0886  14.1353  14.2043  14.2501  14.3050  14.3687  14.3901
    14.4602  14.5244  14.6255  14.7450  14.7811  14.8774  14.9215  15.0673
    15.1387  15.2444  15.3039  15.4348  15.4791  15.4984  15.6396  15.6801
    15.7963  15.8802  15.9196  16.0135  16.0777  16.1604  16.2655  16.2902
    16.3411  16.4281  16.5098  16.5639  16.5956  16.6126  16.7277  16.7578
    16.8514  16.9125  16.9663  17.0909  17.1042  17.1952  17.2760  17.3128
    17.3382  17.3919  17.5052  17.5840  17.6825  17.7549  17.7951  17.8979
    18.0534  18.0944  18.1302  18.1878  18.2282  18.3555  18.3964  18.4946
    18.5777  18.6173  18.6833  18.7833  18.9120  18.9497  19.0237  19.0691
    19.2006  19.2600  19.3840  19.4134  19.4266  19.5399  19.6066  19.6949
    19.8208  19.8898  19.9896  20.0463  20.1196  20.1550  20.2015  20.2511
    20.2718  20.3359  20.4405  20.4728  20.5004  20.5473  20.6042  20.6845
    20.7657  20.8316  20.8844  20.9520  21.0119  21.1051  21.1407  21.2262
    21.2842  21.3691  21.4153  21.4633  21.5278  21.5513  21.6135  21.6287
    21.6616  21.7391  21.8161  21.8722  21.9001  21.9453  21.9946  22.0810
    22.1386  22.2099  22.2922

     the Fermi energy is     0.4160 ev

!    total energy              =   -1762.93973421 Ry
     Harris-Foulkes estimate   =   -1762.93973462 Ry
     estimated scf accuracy    <       0.00000055 Ry

     The total energy is the sum of the following terms:

     one-electron contribution =  -22645.45607887 Ry
     hartree contribution      =   11352.61156236 Ry
     xc contribution           =    -301.56144707 Ry
     ewald contribution        =    9828.73344598 Ry
     Hubbard energy            =       2.73250437 Ry
     smearing contrib. (-TS)   =       0.00027902 Ry

     convergence has been achieved in  29 iterations

     Forces acting on atoms (Ry/au):


     negative rho (up, down):  0.335E-02 0.000E+00
     atom    1 type  1   force =    -0.00165321   -0.00531212    0.00842264
     atom    2 type  1   force =    -0.00011501    0.00986047    0.00096766
     atom    3 type  2   force =    -0.00118509   -0.00979526   -0.00087522
     atom    4 type  2   force =     0.00085701    0.00457529   -0.01191858
     atom    5 type  1   force =    -0.00065262   -0.01470879    0.00190715
     atom    6 type  1   force =    -0.00279486    0.01295773    0.00163035
     atom    7 type  1   force =     0.00020588   -0.00001387   -0.00543056
     atom    8 type  1   force =     0.00314311    0.00210211    0.00070579
     atom    9 type  2   force =    -0.00244764   -0.00352880    0.00126168
     atom   10 type  2   force =    -0.00005818    0.00334278    0.00621841
     atom   11 type  1   force =    -0.01395070   -0.01211979    0.00421632
     atom   12 type  1   force =    -0.01021082    0.01759218    0.00424547
     atom   13 type  1   force =     0.00018624   -0.00166218   -0.00579888
     atom   14 type  1   force =    -0.00341162   -0.00641252    0.00981656
     atom   15 type  1   force =    -0.00002685    0.01360320   -0.00503075
     atom   16 type  2   force =     0.00069752   -0.00976595   -0.00076097
     atom   17 type  2   force =    -0.00209298    0.00408132   -0.00660299
     atom   18 type  1   force =     0.00378500   -0.01488659    0.00203880
     atom   19 type  1   force =     0.00256294    0.01273374    0.00157011
     atom   20 type  1   force =     0.00009894    0.00062355    0.01618425
     atom   21 type  1   force =     0.00358992    0.00260196   -0.00888453
     atom   22 type  2   force =    -0.00151446   -0.00412647    0.00098682
     atom   23 type  2   force =     0.00024908    0.00264619   -0.01209464
     atom   24 type  1   force =     0.01384961   -0.01154703    0.00412582
     atom   25 type  1   force =     0.01020573    0.01777105    0.00419201
     atom   26 type  1   force =    -0.00073069   -0.00686409   -0.00344902
     atom   27 type  3   force =     0.00000451   -0.00106681   -0.00043433
     atom   28 type  3   force =    -0.00000002   -0.00169827   -0.00144322
     atom   29 type  3   force =     0.00051975   -0.00011222   -0.00047596
     atom   30 type  3   force =     0.00092741    0.00006306   -0.00057053
     atom   31 type  1   force =    -0.00002622   -0.00302191   -0.00373464
     atom   32 type  1   force =    -0.00002391    0.00196444   -0.00067054
     atom   33 type  3   force =     0.00001222    0.00012361   -0.00031450

     Total force =     0.033215     Total SCF correction =     0.002111


     entering subroutine stress ...


     negative rho (up, down):  0.335E-02 0.000E+00
          total   stress  (Ry/bohr**3)                   (kbar)     P=   -7.40
  -0.00003067  -0.00000106   0.00000100         -4.51     -0.16      0.15
  -0.00000106  -0.00007015  -0.00000239         -0.16    -10.32     -0.35
   0.00000100  -0.00000239  -0.00005002          0.15     -0.35     -7.36


     BFGS Geometry Optimization

     number of scf cycles    =   1
     number of bfgs steps    =   0

     energy   new            =   -1762.9397342132 Ry

     new trust radius        =       0.0161842493 bohr
     new conv_thr            =       0.0000010000 Ry


ATOMIC_POSITIONS (crystal)
O0       0.000000000   0.000000000   0.371145075    0   0   1
O0       0.000000000   0.500000000   0.382718965    0   0   1
Mo1      0.250000000   0.500000000   0.440452847    0   0   1
Mo1      0.000000000   0.000000000   0.443226409    0   0   1
O0       0.250000000   0.780000000   0.442857378    0   0   1
O0       0.250000000   0.220000000   0.442721953    0   0   1
O0       0.000000000   0.500000000   0.497503567    0   0   1
O0       0.000000000   0.000000000   0.516813833    0   0   1
Mo1      0.250000000   0.000000000   0.575414728    0   0   1
Mo1      0.000000000   0.500000000   0.565381874    0   0   1
O0       0.250000000   0.720000000   0.570272635    0   0   1
O0       0.250000000   0.280000000   0.571313207    0   0   1
O0       0.000000000   0.000000000   0.625796348    0   0   1
O0       0.500000000   0.000000000   0.371342394    0   0   1
O0       0.500000000   0.500000000   0.382831403    0   0   1
Mo1      0.750000000   0.500000000   0.440445086    0   0   1
Mo1      0.500000000   0.000000000   0.443840589    0   0   1
O0       0.750000000   0.780000000   0.442899958    0   0   1
O0       0.750000000   0.220000000   0.442700773    0   0   1
O0       0.500000000   0.500000000   0.498037193    0   0   1
O0       0.500000000   0.000000000   0.516275873    0   0   1
Mo1      0.750000000   0.000000000   0.575119341    0   0   1
Mo1      0.500000000   0.500000000   0.570222958    0   0   1
O0       0.750000000   0.720000000   0.570240862    0   0   1
O0       0.750000000   0.280000000   0.571272159    0   0   1
O0       0.500000000   0.000000000   0.625452403    0   0   1
H2      -0.000579563   0.611919357   0.360671488
H2       0.499509998   0.617271623   0.362761715
H2       0.167320374   0.018131517   0.356760672
H2       0.665989883   0.019374767   0.356568818
O0       0.500207459   0.519761565   0.642186805
O0       0.499937683   0.356608498   0.675266858
H2       0.500011184   0.424819344   0.707233836


     Check: negative starting charge=   -0.002157
     NEW-OLD atomic charge density approx. for the potential

     Check: negative/imaginary core charge=   -0.000003    0.000000
     Check: negative starting charge=   -0.002158

     negative rho (up, down):  0.335E-02 0.000E+00
 Atomic wfc used for LDA+U Projector are NOT orthogonalized

     total cpu time spent up to now is     6597.4 secs

     per-process dynamical memory:   426.9 Mb

     Self-consistent Calculation

     iteration #  1     ecut=    40.00 Ry     beta=0.70
     Davidson diagonalization with overlap
     ethr =  1.00E-06,  avg # of iterations =  4.0
 --- enter write_ns ---
 LDA+U parameters:
U( 2)     =  4.00000000
alpha( 2) =  0.00000000
atom    3   Tr[ns(na)] =   5.83890
    eigenvalues: 
  0.461  0.511  0.569  0.616  0.762
    eigenvectors:
  0.012  0.000  0.316  0.000  0.672
  0.000  0.998  0.000  0.002  0.000
  0.976  0.000  0.002  0.010  0.011
  0.000  0.000  0.682  0.001  0.317
  0.011  0.002  0.000  0.987  0.000
    occupations:
  0.697 -0.001  0.028 -0.089  0.001
 -0.001  0.511 -0.002 -0.000 -0.004
  0.028 -0.002  0.466 -0.013  0.016
 -0.089 -0.000 -0.013  0.630 -0.000
  0.001 -0.004  0.016 -0.000  0.614
atom    4   Tr[ns(na)] =   5.82711
    eigenvalues: 
  0.407  0.521  0.583  0.650  0.752
    eigenvectors:
  0.000  0.000  0.995  0.005  0.000
  0.000  0.000  0.005  0.995  0.000
  1.000  0.000  0.000  0.000  0.000
  0.000  0.000  0.000  0.000  1.000
  0.000  1.000  0.000  0.000  0.000
    occupations:
  0.583  0.004  0.001 -0.000  0.000
  0.004  0.649  0.004 -0.002  0.000
  0.001  0.004  0.408  0.000  0.001
 -0.000 -0.002  0.000  0.752  0.000
  0.000  0.000  0.001  0.000  0.521
atom    9   Tr[ns(na)] =   5.83355
    eigenvalues: 
  0.467  0.534  0.593  0.600  0.723
    eigenvectors:
  0.000  0.000  0.201  0.020  0.779
  0.000  0.000  0.094  0.906  0.000
  0.162  0.838  0.000  0.000  0.000
  0.000  0.000  0.706  0.074  0.220
  0.838  0.162  0.000  0.000  0.000
    occupations:
  0.694 -0.001  0.001 -0.054 -0.001
 -0.001  0.599 -0.001 -0.002 -0.000
  0.001 -0.001  0.523 -0.001  0.025
 -0.054 -0.002 -0.001  0.622 -0.000
 -0.001 -0.000  0.025 -0.000  0.478
atom   10   Tr[ns(na)] =   5.79204
    eigenvalues: 
  0.454  0.485  0.513  0.710  0.734
    eigenvectors:
  0.012  0.988  0.000  0.000  0.000
  0.000  0.000  0.000  1.000  0.000
  0.988  0.012  0.000  0.000  0.000
  0.000  0.000  0.000  0.000  1.000
  0.000  0.000  1.000  0.000  0.000
    occupations:
  0.485  0.000 -0.003  0.002 -0.000
  0.000  0.710 -0.002  0.000 -0.001
 -0.003 -0.002  0.454 -0.001 -0.000
  0.002  0.000 -0.001  0.734 -0.000
 -0.000 -0.001 -0.000 -0.000  0.513
atom   16   Tr[ns(na)] =   5.83744
    eigenvalues: 
  0.460  0.511  0.569  0.616  0.763
    eigenvectors:
  0.012  0.000  0.316  0.000  0.672
  0.000  0.997  0.000  0.002  0.000
  0.976  0.000  0.002  0.011  0.011
  0.000  0.000  0.682  0.001  0.317
  0.011  0.002  0.000  0.986  0.000
    occupations:
  0.698  0.001  0.028 -0.089 -0.000
  0.001  0.511  0.002  0.000 -0.005
  0.028  0.002  0.465 -0.013 -0.017
 -0.089  0.000 -0.013  0.630  0.000
 -0.000 -0.005 -0.017  0.000  0.614
atom   17   Tr[ns(na)] =   5.83938
    eigenvalues: 
  0.427  0.521  0.586  0.628  0.759
    eigenvectors:
  0.000  0.000  0.987  0.013  0.001
  0.000  0.000  0.013  0.986  0.000
  1.000  0.000  0.000  0.000  0.000
  0.000  0.000  0.000  0.000  0.999
  0.000  1.000  0.000  0.000  0.000
    occupations:
  0.587  0.005  0.001 -0.004  0.000
  0.005  0.627  0.003 -0.002 -0.001
  0.001  0.003  0.427 -0.003  0.000
 -0.004 -0.002 -0.003  0.758  0.000
  0.000 -0.001  0.000  0.000  0.521
atom   22   Tr[ns(na)] =   5.83343
    eigenvalues: 
  0.465  0.533  0.592  0.598  0.729
    eigenvectors:
  0.000  0.000  0.189  0.036  0.776
  0.000  0.000  0.162  0.838  0.000
  0.161  0.839  0.000  0.000  0.000
  0.000  0.000  0.649  0.127  0.224
  0.839  0.161  0.000  0.000  0.000
    occupations:
  0.698  0.001  0.000 -0.057 -0.002
  0.001  0.597  0.000  0.002 -0.000
  0.000  0.000  0.522 -0.000 -0.025
 -0.057  0.002 -0.000  0.623  0.002
 -0.002 -0.000 -0.025  0.002  0.476
atom   23   Tr[ns(na)] =   5.85361
    eigenvalues: 
  0.502  0.522  0.536  0.584  0.783
    eigenvectors:
  0.002  0.000  0.000  0.987  0.011
  0.000  0.098  0.902  0.000  0.000
  0.997  0.000  0.000  0.002  0.000
  0.001  0.000  0.000  0.011  0.989
  0.000  0.902  0.098  0.000  0.000
    occupations:
  0.586 -0.000  0.003 -0.021  0.000
 -0.000  0.534 -0.000 -0.000 -0.004
  0.003 -0.000  0.502  0.006  0.000
 -0.021 -0.000  0.006  0.781 -0.000
  0.000 -0.004  0.000 -0.000  0.523
N of occupied +U levels =  46.6554440
 --- exit write_ns ---

     negative rho (up, down):  0.335E-02 0.000E+00

     total cpu time spent up to now is     6881.8 secs

     total energy              =   -1762.94024370 Ry
     Harris-Foulkes estimate   =   -1762.94060044 Ry
     estimated scf accuracy    <       0.00051429 Ry

     iteration #  2     ecut=    40.00 Ry     beta=0.70
     Davidson diagonalization with overlap
     ethr =  2.17E-07,  avg # of iterations =  4.7

     negative rho (up, down):  0.336E-02 0.000E+00

     total cpu time spent up to now is     7084.2 secs

     total energy              =   -1762.93947965 Ry
     Harris-Foulkes estimate   =   -1762.94130510 Ry
     estimated scf accuracy    <       0.01019485 Ry

     iteration #  3     ecut=    40.00 Ry     beta=0.70
     Davidson diagonalization with overlap
     ethr =  2.17E-07,  avg # of iterations =  5.0

     negative rho (up, down):  0.337E-02 0.000E+00

     total cpu time spent up to now is     7278.4 secs

     total energy              =   -1762.93981968 Ry
     Harris-Foulkes estimate   =   -1762.94110393 Ry
[...]
    18.1847  18.2362  18.2490  18.3309  18.3621  18.4177  18.4907  18.5398
    18.5502  18.6396  18.6647  18.6875  18.7012  18.7275  18.7410  18.8037
    18.9012  18.9155  19.0237  19.0602  19.0782  19.1133  19.1353  19.2363
    19.2724  19.2842  19.3225  19.3439  19.3544  19.3929  19.5001  19.5508
    19.6030  19.6298  19.6409  19.7319  19.8202  20.0504  20.0777  20.1606
    20.2041  20.2589  20.2771  20.3364  20.4874  20.5044  20.5485  20.6269
    20.6900  20.7105  20.7500  20.7893  20.8460  20.8693  20.9233  20.9919
    21.0342  21.1378  21.2372  21.2490  21.3093  21.3766  21.4681  21.4824
    21.6470  21.8106  21.8348

          k =-0.5000 0.1950 0.0000 ( 29720 PWs)   bands (ev):

   -61.9938 -61.9645 -61.8929 -61.6369 -61.6363 -61.6284 -61.6237 -61.5451
   -36.4093 -36.4010 -36.3474 -36.2787 -36.2313 -36.0285 -35.9959 -35.9900
   -35.9747 -35.9460 -35.9335 -35.8770 -35.8227 -35.8117 -35.7829 -35.7748
   -35.7541 -35.7489 -35.7452 -35.6358 -35.6259 -35.6227 -35.5982 -35.4738
   -22.9115 -20.1060 -20.0344 -19.2792 -19.1644 -19.1418 -19.0696 -19.0578
   -18.9546 -18.8837 -18.7784 -18.5206 -18.5196 -18.4153 -18.4013 -18.3610
   -18.3494 -17.9905 -17.9739 -16.5706  -8.2431  -8.1325  -8.0282  -7.2953
    -7.2810  -7.2156  -7.1969  -7.0344  -7.0114  -6.9743  -6.8977  -6.4681
    -6.3657  -6.3257  -6.2195  -6.1927  -6.1643  -6.0487  -5.9873  -5.6899
    -5.6104  -5.5496  -5.4430  -5.4266  -5.3321  -5.3123  -5.1439  -5.0807
    -5.0372  -4.9721  -4.8794  -4.8026  -4.7810  -4.5467  -4.4853  -4.3506
    -4.3011  -4.1135  -4.0794  -3.9928  -3.9649  -3.9372  -3.8621  -3.6373
    -3.6023  -3.4165  -3.3753  -3.0001  -2.9770  -2.9314  -2.8977  -2.6618
    -2.6259  -2.5995  -2.5174  -2.3454  -2.2918  -2.2201  -1.2972  -0.4773
    -0.3062  -0.2663  -0.2062  -0.1779  -0.0532   0.0388   0.0856   0.3433
     0.5275   0.5365   0.6835   0.8932   1.0278   1.0533   1.2460   1.2532
     1.4626   1.7094   1.8030   2.1051   2.1435   2.4698   2.5282   2.8196
     3.6527   4.0204   4.0766   4.1502   4.1581   4.2392   4.2972   4.7461
     4.7822   4.9853   5.2889   5.3148   5.5190   5.5714   5.6972   5.7626
     5.8502   5.8640   5.9711   6.0053   6.1742   6.3564   6.5527   6.7140
     6.8186   6.8871   7.1130   7.1242   7.2792   7.2829   7.5296   7.5810
     7.6453   7.8458   7.9711   8.2066   8.2346   8.3848   8.5708   8.6527
     8.9509   9.1905   9.2068   9.3669   9.4297   9.5395   9.5972   9.7502
     9.8082   9.8611  10.1251  10.1940  10.3726  10.4634  10.4865  10.6089
    10.7286  10.7748  10.8637  10.8882  10.9196  11.0233  11.1937  11.2993
    11.4550  11.5889  11.8278  11.8732  11.9139  11.9674  12.0762  12.1159
    12.2550  12.3665  12.4079  12.4769  12.6610  12.7328  12.7746  12.8184
    13.0494  13.0932  13.2581  13.3076  13.4209  13.4490  13.5646  13.8286
    13.8393  14.0858  14.1031  14.2015  14.2503  14.3444  14.4601  14.5874
    14.6393  14.6843  14.7801  14.8538  14.8546  14.9637  14.9816  14.9971
    15.0403  15.0532  15.1067  15.1655  15.2269  15.2987  15.3950  15.4491
    15.5223  15.5658  15.6835  15.6992  15.7824  15.8243  15.8617  15.9039
    15.9493  16.0744  16.1189  16.1540  16.1787  16.2228  16.3560  16.3676
    16.4861  16.5439  16.6174  16.6409  16.7188  16.7570  16.9017  16.9930
    17.0452  17.0983  17.1814  17.2554  17.2967  17.3604  17.3984  17.4125
    17.4463  17.5094  17.5557  17.6480  17.7017  17.7892  17.8416  17.8747
    17.9297  17.9952  18.0180  18.0708  18.1395  18.2000  18.2219  18.2831
    18.3550  18.4285  18.6233  18.7282  18.7607  18.8312  18.8757  18.9278
    19.0021  19.1411  19.1876  19.2711  19.3331  19.3579  19.4304  19.4913
    19.6088  19.6227  19.7519  19.7995  19.8901  19.9167  19.9847  20.0028
    20.2398  20.2668  20.3619  20.4332  20.4379  20.4828  20.4942  20.5553
    20.5649  20.6589  20.6854  20.7966  20.8661  20.9000  21.0096  21.0323
    21.1137  21.1293  21.1595  21.1956  21.2308  21.3015  21.3689  21.4106
    21.4773  21.4850  21.5393  21.5676  21.6890  21.7091  21.8633  21.8698
    21.9890  22.0647  22.0725

          k =-0.5000-0.3900 0.0000 ( 29668 PWs)   bands (ev):

   -61.9933 -61.9640 -61.8926 -61.6367 -61.6361 -61.6282 -61.6233 -61.5448
   -36.4078 -36.3995 -36.3473 -36.2786 -36.2311 -36.0280 -35.9886 -35.9827
   -35.9744 -35.9459 -35.9323 -35.8808 -35.8232 -35.8216 -35.7834 -35.7813
   -35.7560 -35.7505 -35.7479 -35.6321 -35.6244 -35.6232 -35.5976 -35.4729
   -22.9113 -20.1044 -20.0328 -19.2528 -19.1483 -19.1326 -19.0639 -19.0393
   -18.9704 -18.8862 -18.7891 -18.5400 -18.5124 -18.4335 -18.4173 -18.3548
   -18.3444 -17.9908 -17.9737 -16.5697  -8.2348  -8.1247  -8.0197  -7.3028
    -7.2529  -7.2119  -7.2029  -7.0919  -7.0900  -7.0519  -6.9144  -6.4958
    -6.3461  -6.3311  -6.1700  -6.1306  -6.0943  -6.0715  -5.9901  -5.6973
    -5.5357  -5.5097  -5.4477  -5.4035  -5.2623  -5.2333  -5.1902  -5.1663
    -4.9955  -4.9512  -4.8889  -4.7333  -4.6696  -4.5210  -4.4793  -4.4443
    -4.3705  -4.2309  -4.1678  -4.1458  -4.0567  -4.0442  -4.0083  -3.5855
    -3.5402  -3.3919  -3.3004  -3.0371  -2.9961  -2.8594  -2.7645  -2.6889
    -2.6353  -2.6048  -2.5802  -2.4062  -2.2045  -2.1755  -1.2993  -0.5245
    -0.3985  -0.3545  -0.2412  -0.1788  -0.0719  -0.0662   0.0072   0.3507
     0.7464   0.8655   0.9560   1.0636   1.1160   1.3066   1.4108   1.4899
     1.6824   1.9357   1.9721   2.0928   2.1906   2.2202   2.2471   2.8815
     3.3561   3.4411   3.5052   3.5512   3.7249   4.2225   4.3144   4.8529
     4.8649   5.1173   5.3339   5.3998   5.6650   5.6988   5.9920   6.0280
     6.1462   6.2026   6.2510   6.3386   6.3775   6.3816   6.4634   6.4687
     6.5464   6.5567   6.7718   6.7792   6.9493   6.9694   7.2553   7.3474
     7.3981   7.5999   7.7814   8.0599   8.0716   8.4048   8.4614   8.7945
     8.8535   8.9454   9.0010   9.1293   9.5026   9.5431   9.6780   9.9125
     9.9509  10.1062  10.1723  10.2759  10.5024  10.5644  10.8744  10.9383
    11.3131  11.4056  11.4339  11.4865  11.5383  11.6665  11.7174  11.7350
    11.8563  11.9680  12.2522  12.2831  12.4687  12.4912  12.5079  12.5169
    12.5619  12.6097  12.7010  12.7669  12.8001  12.8166  12.8715  12.9451
    12.9648  12.9976  13.0827  13.1445  13.3065  13.3235  13.4600  13.5021
    13.5126  13.6014  13.6355  13.6788  13.8866  13.9272  13.9488  13.9913
    14.0819  14.1467  14.3150  14.5366  14.5602  14.7299  14.7651  14.8107
    14.8734  14.8792  14.9271  14.9280  15.0360  15.1133  15.1946  15.2676
    15.3293  15.3599  15.4254  15.4424  15.6170  15.6907  15.7311  15.7944
    15.8568  15.9196  16.0043  16.1053  16.1801  16.2351  16.2701  16.3441
    16.3575  16.4486  16.4620  16.4741  16.5275  16.5705  16.6302  16.6462
    16.6920  16.7154  16.7832  16.8016  16.9896  17.0098  17.1408  17.2073
    17.2229  17.4247  17.5208  17.5415  17.5885  17.6374  17.7174  17.8342
    17.8772  17.9528  18.1054  18.1681  18.1900  18.2086  18.2625  18.2899
    18.3131  18.3310  18.4042  18.4380  18.5576  18.5738  18.7080  18.7598
    18.7831  18.8966  19.1424  19.1900  19.3423  19.4031  19.4943  19.5134
    19.5617  19.6089  19.6421  19.7148  19.8025  19.8675  19.9673  20.1722
    20.3404  20.4007  20.4472  20.4648  20.4932  20.5630  20.7099  20.7520
    20.7967  20.8041  21.0084  21.1278  21.3026  21.3460  21.4038  21.4361
    21.4650  21.6764  21.7165  21.7356  21.7551  21.8190  21.9232  21.9411
    21.9580  22.0462  22.1241  22.1521  22.1944  22.2540  22.3749  22.3888
    22.4171  22.5004  22.5251

          k =-0.2500 0.1950 0.0000 ( 29746 PWs)   bands (ev):

   -62.0334 -61.9401 -61.9042 -61.6856 -61.6763 -61.6046 -61.5941 -61.5505
   -36.6234 -36.4456 -36.3670 -36.3497 -36.1220 -36.0399 -36.0263 -36.0050
   -35.9885 -35.9643 -35.9203 -35.9146 -35.9075 -35.9010 -35.8593 -35.8357
   -35.8157 -35.7202 -35.7138 -35.7100 -35.6823 -35.2588 -35.2466 -35.2285
   -22.9112 -20.2424 -19.9827 -19.4375 -19.3304 -19.2050 -19.0789 -19.0401
   -18.9338 -18.8875 -18.7573 -18.6571 -18.5254 -18.4668 -18.3986 -18.3214
   -18.1806 -17.8530 -17.6902 -16.5696  -8.3826  -8.2071  -8.1211  -7.8567
    -7.5404  -7.3699  -7.3063  -7.1838  -7.0547  -7.0326  -6.9687  -6.8971
    -6.7810  -6.6052  -6.4338  -6.3332  -6.0880  -6.0067  -5.9732  -5.8541
    -5.6971  -5.6398  -5.5480  -5.3862  -5.3605  -5.2122  -4.9538  -4.9265
    -4.8717  -4.6860  -4.6276  -4.5672  -4.4018  -4.2713  -4.1563  -4.1017
    -4.0412  -3.9986  -3.9652  -3.9008  -3.8200  -3.7457  -3.7220  -3.5477
    -3.4314  -3.3711  -3.2507  -3.1428  -3.0377  -3.0151  -2.9367  -2.8158
    -2.7146  -2.6682  -2.5255  -2.4179  -2.3364  -2.1158  -1.5725  -1.4182
    -1.3352  -1.2961  -0.3182  -0.2032  -0.1303   0.0441   0.6593   0.6883
     1.0127   1.0962   1.2074   1.3062   1.4857   1.5478   1.7448   1.8723
     1.9445   1.9835   2.1148   2.1519   2.2161   2.2892   2.7013   2.9101
     3.6759   3.7760   4.0642   4.1542   4.2483   4.3541   4.4270   4.5425
     4.7419   4.8181   4.8988   4.9617   5.1718   5.2255   5.3307   5.5590
     5.9081   6.0771   6.1782   6.2432   6.3649   6.4689   6.5101   6.6131
     6.7237   6.9561   7.0101   7.2725   7.3388   7.4238   7.7282   7.7766
     8.0812   8.2328   8.4529   8.4875   8.6463   8.7273   8.8606   8.9658
     9.0053   9.2003   9.2413   9.3907   9.4951   9.6192   9.6971   9.7762
     9.8312   9.9467   9.9760  10.0884  10.2401  10.4291  10.5350  10.6112
    10.6988  10.8042  10.9262  10.9523  11.0382  11.1435  11.2930  11.3883
    11.5023  11.6850  11.7577  11.8507  11.9173  11.9440  12.0150  12.1783
    12.1949  12.2557  12.3571  12.3663  12.4512  12.5588  12.6212  12.8204
    12.9100  12.9872  13.0427  13.1673  13.2024  13.2774  13.4103  13.4457
    13.5363  13.5662  13.6421  13.7097  13.7694  13.8521  13.8993  13.9491
    14.0521  14.0850  14.1348  14.2072  14.2594  14.2993  14.3660  14.3843
    14.4867  14.5215  14.6171  14.7593  14.7810  14.8836  14.9148  15.0701
    15.1385  15.2441  15.3096  15.4410  15.4789  15.5119  15.6390  15.6950
    15.8064  15.8859  15.9263  16.0193  16.0959  16.1718  16.2734  16.3015
    16.3456  16.4383  16.5156  16.5659  16.6024  16.6365  16.7396  16.7682
    16.8540  16.9167  16.9652  17.0881  17.1085  17.2134  17.2828  17.3106
    17.3421  17.4048  17.5142  17.5923  17.6881  17.7545  17.8022  17.9066
    18.0576  18.1098  18.1429  18.2016  18.2335  18.3698  18.4106  18.4978
    18.5825  18.6136  18.6952  18.7825  18.9237  18.9472  19.0316  19.0706
    19.2082  19.2581  19.3895  19.4147  19.4408  19.5438  19.6100  19.7015
    19.8153  19.9046  19.9851  20.0460  20.1177  20.1707  20.2111  20.2577
    20.2824  20.3388  20.4396  20.4774  20.4953  20.5528  20.6028  20.6784
    20.7647  20.8347  20.8887  20.9591  21.0080  21.1016  21.1426  21.2365
    21.2869  21.3682  21.4087  21.4697  21.5331  21.5614  21.6089  21.6248
    21.6563  21.7425  21.8094  21.8734  21.8961  21.9514  21.9930  22.0781
    22.1377  22.2028  22.2964

     the Fermi energy is     0.4423 ev

!    total energy              =   -1762.94139768 Ry
     Harris-Foulkes estimate   =   -1762.94139768 Ry
     estimated scf accuracy    <          5.7E-09 Ry

     The total energy is the sum of the following terms:

     one-electron contribution =  -22651.22450886 Ry
     hartree contribution      =   11355.79459463 Ry
     xc contribution           =    -301.59149634 Ry
     ewald contribution        =    9831.35249174 Ry
     Hubbard energy            =       2.72712826 Ry
     smearing contrib. (-TS)   =       0.00039290 Ry

     convergence has been achieved in  12 iterations

     Forces acting on atoms (Ry/au):


     negative rho (up, down):  0.333E-02 0.000E+00
     atom    1 type  1   force =    -0.00127398   -0.00498844    0.00052786
     atom    2 type  1   force =    -0.00015833    0.00747902    0.00020040
     atom    3 type  2   force =     0.00844714   -0.00832831   -0.00013640
     atom    4 type  2   force =     0.00235632    0.00416736    0.00050763
     atom    5 type  1   force =    -0.00054544   -0.01522303   -0.00010843
     atom    6 type  1   force =    -0.00248863    0.01363062   -0.00008677
     atom    7 type  1   force =     0.00020382    0.00026144   -0.00026626
     atom    8 type  1   force =     0.00326215    0.00184729   -0.00058981
     atom    9 type  2   force =    -0.00338204   -0.00298700   -0.00005819
     atom   10 type  2   force =    -0.00001156    0.00267423   -0.00056475
     atom   11 type  1   force =    -0.01458128   -0.01263147    0.00011407
     atom   12 type  1   force =    -0.01115105    0.01761866    0.00013505
     atom   13 type  1   force =     0.00039502   -0.00151028   -0.00009654
     atom   14 type  1   force =    -0.00197791   -0.00568375    0.00051736
     atom   15 type  1   force =     0.00004486    0.01045650   -0.00009431
     atom   16 type  2   force =    -0.00888585   -0.00817226   -0.00013443
     atom   17 type  2   force =    -0.00336192    0.00378889    0.00049720
     atom   18 type  1   force =     0.00341713   -0.01534436   -0.00011245
     atom   19 type  1   force =     0.00230072    0.01321419   -0.00008261
     atom   20 type  1   force =     0.00000715   -0.00020617   -0.00043892
     atom   21 type  1   force =     0.00378196    0.00268982   -0.00043341
     atom   22 type  2   force =    -0.00047975   -0.00370471   -0.00034356
     atom   23 type  2   force =     0.00030559    0.00230774    0.00053626
     atom   24 type  1   force =     0.01432433   -0.01163626    0.00007053
     atom   25 type  1   force =     0.01105419    0.01749111    0.00005609
     atom   26 type  1   force =    -0.00120887   -0.00677438   -0.00034763
     atom   27 type  3   force =    -0.00000548   -0.00004142    0.00002923
     atom   28 type  3   force =    -0.00000018   -0.00034158   -0.00052597
     atom   29 type  3   force =    -0.00018321   -0.00013160    0.00009759
     atom   30 type  3   force =    -0.00023268   -0.00014381    0.00006178
     atom   31 type  1   force =     0.00005070    0.00012045    0.00015680
     atom   32 type  1   force =    -0.00003558    0.00042390    0.00024125
     atom   33 type  3   force =     0.00001266   -0.00032237    0.00067133

     Total force =     0.002060     Total SCF correction =     0.000165


     entering subroutine stress ...


     negative rho (up, down):  0.333E-02 0.000E+00
          total   stress  (Ry/bohr**3)                   (kbar)     P=   -6.40
  -0.00003074  -0.00000100   0.00000095         -4.52     -0.15      0.14
  -0.00000100  -0.00006357  -0.00000158         -0.15     -9.35     -0.23
   0.00000095  -0.00000158  -0.00003611          0.14     -0.23     -5.31


     bfgs converged in  12 scf cycles and  11 bfgs steps
     (criteria: energy < 0.10E-03, force < 0.10E-02)

     End of BFGS Geometry Optimization

     Final energy   =   -1762.9413976801 Ry
Begin final coordinates

ATOMIC_POSITIONS (crystal)
O0       0.000000000   0.000000000   0.371020152    0   0   1
O0       0.000000000   0.500000000   0.382954045    0   0   1
Mo1      0.250000000   0.500000000   0.440549600    0   0   1
Mo1      0.000000000   0.000000000   0.443059841    0   0   1
O0       0.250000000   0.780000000   0.443137652    0   0   1
O0       0.250000000   0.220000000   0.442940414    0   0   1
O0       0.000000000   0.500000000   0.497590819    0   0   1
O0       0.000000000   0.000000000   0.516832160    0   0   1
Mo1      0.250000000   0.000000000   0.575313211    0   0   1
Mo1      0.000000000   0.500000000   0.565759197    0   0   1
O0       0.250000000   0.720000000   0.570921897    0   0   1
O0       0.250000000   0.280000000   0.571842591    0   0   1
O0       0.000000000   0.000000000   0.625437855    0   0   1
O0       0.500000000   0.000000000   0.371350437    0   0   1
O0       0.500000000   0.500000000   0.382578399    0   0   1
Mo1      0.750000000   0.500000000   0.440538227    0   0   1
Mo1      0.500000000   0.000000000   0.443665845    0   0   1
O0       0.750000000   0.780000000   0.443206508    0   0   1
O0       0.750000000   0.220000000   0.442929550    0   0   1
O0       0.500000000   0.500000000   0.498677039    0   0   1
O0       0.500000000   0.000000000   0.516006977    0   0   1
Mo1      0.750000000   0.000000000   0.574670526    0   0   1
Mo1      0.500000000   0.500000000   0.569945983    0   0   1
O0       0.750000000   0.720000000   0.570825620    0   0   1
O0       0.750000000   0.280000000   0.571746196    0   0   1
O0       0.500000000   0.000000000   0.625159518    0   0   1
H2      -0.000585190   0.610366958   0.360428192
H2       0.499493475   0.614933512   0.361596441
H2       0.167143822   0.017513220   0.356628115
H2       0.665418861   0.019071017   0.356453621
O0       0.500267387   0.516982900   0.641748513
O0       0.499825381   0.356203140   0.675295419
H2       0.500067782   0.426601335   0.706939439
End final coordinates



     init_run     :    103.28s CPU    106.02s WALL (       1 calls)
     electrons    :  34612.87s CPU  35590.97s WALL (      12 calls)
     update_pot   :    203.36s CPU    207.23s WALL (      11 calls)
     forces       :   1507.56s CPU   1532.29s WALL (      12 calls)
     stress       :   7655.59s CPU   7813.44s WALL (      12 calls)

     Called by init_run:
     wfcinit      :     35.62s CPU     37.59s WALL (       1 calls)
     potinit      :      6.86s CPU      6.95s WALL (       1 calls)

     Called by electrons:
     c_bands      :  18322.41s CPU  18856.78s WALL (     200 calls)
     sum_band     :   7092.37s CPU   7287.73s WALL (     200 calls)
     v_of_rho     :    216.82s CPU    247.21s WALL (     203 calls)
     newd         :   9419.17s CPU   9511.32s WALL (     203 calls)
     mix_rho      :     36.91s CPU     37.67s WALL (     200 calls)

     Called by c_bands:
     init_us_2    :     63.20s CPU     63.79s WALL (    1671 calls)
     cegterg      :  18072.56s CPU  18533.86s WALL (     600 calls)

     Called by *egterg:
     h_psi        :  10789.52s CPU  11070.47s WALL (    1588 calls)
     s_psi        :   1346.66s CPU   1361.36s WALL (    1984 calls)
     g_psi        :     22.29s CPU     22.32s WALL (     985 calls)
     cdiaghg      :   1452.92s CPU   1457.43s WALL (    1525 calls)

     Called by h_psi:
     add_vuspsi   :   1040.13s CPU   1054.42s WALL (    1588 calls)
     vhpsi        :   1140.53s CPU   1152.27s WALL (    1588 calls)

     General routines
     calbec       :   3232.38s CPU   3269.30s WALL (   16220 calls)
     fft          :    278.45s CPU    350.12s WALL (    3547 calls)
     ffts         :      3.61s CPU      3.74s WALL (     403 calls)
     fftw         :   6218.56s CPU   6519.73s WALL ( 1098424 calls)
     interpolate  :     30.62s CPU     31.04s WALL (     403 calls)
     davcio       :      0.15s CPU     31.50s WALL (    1995 calls)

     Parallel routines
     fft_scatter  :   2340.12s CPU   2698.91s WALL ( 1102374 calls)
     Hubbard U routines
     new_ns       :    254.34s CPU    268.76s WALL (     200 calls)
     vhpsi        :   1140.53s CPU   1152.27s WALL (    1588 calls)
     force_hub    :    446.77s CPU    455.64s WALL (      12 calls)
     stres_hub    :   4060.82s CPU   4136.23s WALL (      12 calls)

     PWSCF        :    12h24m CPU       12h44m WALL


   This run was terminated on:  15:38:46  28May2014            

=------------------------------------------------------------------------------=
   JOB DONE.
=------------------------------------------------------------------------------=
---------------------------------------
Running PBS batch system epilogue script
Job id: 373264.audhumbla.fysik.dtu.dk
Username: zhonxu
Groupname: campgst
Jobname: MoO2/Eads-2-layers/OOH-U-4.0
Sessionid: 7676
Resources limits: neednodes=2:ppn=8:xeon8,nodes=2:ppn=8:xeon8,walltime=48:00:00
Resources used: cput=203:34:56,mem=16937348kb,vmem=20508464kb,walltime=12:44:02
Queuename: verylong
Accounting:
This job has allocated the following 16 nodes:
b087 b087 b087 b087 b087 b087 b087 b087 b066 b066 b066 b066 b066 b066 b066 b066
Finished epilogue job 373264.audhumbla.fysik.dtu.dk for zhonxu
