
     Program PWSCF v.5.0.2 (svn rev. 9656) starts on 27Apr2014 at  8: 6:53 

     This program is part of the open-source Quantum ESPRESSO suite
     for quantum simulation of materials; please cite
         "P. Giannozzi et al., J. Phys.:Condens. Matter 21 395502 (2009);
          URL http://www.quantum-espresso.org", 
     in publications or presentations arising from this work. More details at
     http://www.quantum-espresso.org/quote.php

     Parallel version (MPI), running on    16 processors
     K-points division:     npool     =       4
     R & G space division:  proc/nbgrp/npool/nimage =       4

     Current dimensions of program PWSCF are:
     Max number of different atomic species (ntypx) = 10
     Max number of k-points (npk) =  40000
     Max angular momentum in pseudopotentials (lmaxx) =  3
     Reading input from pwscf.in
Warning: card &CELL ignored
Warning: card / ignored

     Subspace diagonalization in iterative solution of the eigenvalue problem:
     a serial algorithm will be used


     Parallelization info
     --------------------
     sticks:   dense  smooth     PW     G-vecs:    dense   smooth      PW
     Min        1419     456    126               336167    60843    9016
     Max        1420     457    127               336172    60875    9024
     Sum        5677    1827    505              1344679   243423   36075



     bravais-lattice index     =            0
     lattice parameter (alat)  =      11.7919  a.u.
     unit-cell volume          =    7123.6633 (a.u.)^3
     number of atoms/cell      =           32
     number of atomic types    =            3
     number of electrons       =       247.00
     number of Kohn-Sham states=          358
     kinetic-energy cutoff     =      40.0000  Ry
     charge density cutoff     =     500.0000  Ry
     convergence threshold     =      1.0E-06
     mixing beta               =       0.7000
     number of iterations used =            8  plain     mixing
     Exchange-correlation      = SLA  PW   PBE  PBE ( 1 4 3 4 0)
     EXX-fraction              =        0.00
     nstep                     =           50


     celldm(1)=  11.791891  celldm(2)=   0.000000  celldm(3)=   0.000000
     celldm(4)=   0.000000  celldm(5)=   0.000000  celldm(6)=   0.000000

     crystal axes: (cart. coord. in units of alat)
               a(1) = (   1.000000   0.000000   0.000000 )  
               a(2) = (   0.000000   1.026665   0.000000 )  
               a(3) = (   0.000000   0.000000   4.231793 )  

     reciprocal axes: (cart. coord. in units 2 pi/alat)
               b(1) = (  1.000000  0.000000  0.000000 )  
               b(2) = (  0.000000  0.974028  0.000000 )  
               b(3) = (  0.000000  0.000000  0.236306 )  


     PseudoPot. # 1 for O  read from file:
     /home/camp/zhonxu/pseudo/o_pbe_v1.01.uspp.F.UPF
     MD5 check sum: 2bcb18d16ea4b960afae9ec6d52f22d2
     Pseudo is Ultrasoft + core correction, Zval =  6.0
     Generated by new atomic code, or converted to UPF format
     Using radial grid of  737 points,  5 beta functions with: 
                l(1) =   0
                l(2) =   0
                l(3) =   1
                l(4) =   1
                l(5) =   2
     Q(r) pseudized with  8 coefficients,  rinner =    0.900   0.900   0.900
                                                       0.900   0.900

     PseudoPot. # 2 for Ru read from file:
     /home/camp/zhonxu/pseudo/ru_pbe_v1.uspp.F.UPF
     MD5 check sum: df00be1c11b23341d9806d8f1dfa10cf
     Pseudo is Ultrasoft + core correction, Zval = 16.0
     Generated by new atomic code, or converted to UPF format
     Using radial grid of  967 points,  6 beta functions with: 
                l(1) =   0
                l(2) =   0
                l(3) =   1
                l(4) =   1
                l(5) =   2
                l(6) =   2
     Q(r) pseudized with  8 coefficients,  rinner =    1.300   1.300   1.300
                                                       1.300   1.300

     PseudoPot. # 3 for H  read from file:
     /home/camp/zhonxu/pseudo/h_pbe_v1.uspp.F.UPF
     MD5 check sum: 3408e3ff4ec8b0a4e358431e7e038a48
     Pseudo is Ultrasoft, Zval =  1.0
     Generated by new atomic code, or converted to UPF format
     Using radial grid of  615 points,  2 beta functions with: 
                l(1) =   0
                l(2) =   0
     Q(r) pseudized with  8 coefficients,  rinner =    0.700

     atomic species   valence    mass     pseudopotential
        O0             6.00    15.99940     O ( 1.00)
        Ru1           16.00   101.07000     Ru( 1.00)
        H2             1.00     1.00794     H ( 1.00)


     Simplified LDA+U calculation (l_max = 2) with parameters (eV):
     atomic species    L          U    alpha       J0     beta
        Ru1            2     4.5000   0.0000   0.0000   0.0000



     No symmetry found



   Cartesian axes

     site n.     atom                  positions (alat units)
         1           O0  tau(   1) = (   0.0000000   0.0000000   1.6035109  )
         2           O0  tau(   2) = (   0.0000000   0.5133323   1.7058780  )
         3           Ru1 tau(   3) = (   0.2500000   0.5133323   1.9200491  )
         4           Ru1 tau(   4) = (   0.0000000   0.0000000   1.9171714  )
         5           O0  tau(   5) = (   0.2500000   0.8315984   1.9169175  )
         6           O0  tau(   6) = (   0.2500000   0.1950663   1.9164520  )
         7           O0  tau(   7) = (   0.0000000   0.5133323   2.1053593  )
         8           O0  tau(   8) = (   0.0000000   0.0000000   2.2310435  )
         9           Ru1 tau(   9) = (   0.2500000   0.0000000   2.4441566  )
        10           Ru1 tau(  10) = (   0.0000000   0.5133323   2.4052664  )
        11           O0  tau(  11) = (   0.2500000   0.7083986   2.4364547  )
        12           O0  tau(  12) = (   0.2500000   0.3182660   2.4361585  )
        13           O0  tau(  13) = (   0.0000000   0.0000000   2.6233307  )
        14           O0  tau(  14) = (   0.5000000   0.0000000   1.6045689  )
        15           O0  tau(  15) = (   0.5000000   0.5133323   1.7057934  )
        16           Ru1 tau(  16) = (   0.7500000   0.5133323   1.9200914  )
        17           Ru1 tau(  17) = (   0.5000000   0.0000000   1.9176369  )
        18           O0  tau(  18) = (   0.7500000   0.8315984   1.9167059  )
        19           O0  tau(  19) = (   0.7500000   0.1950663   1.9164520  )
        20           O0  tau(  20) = (   0.5000000   0.5133323   2.1229635  )
        21           O0  tau(  21) = (   0.5000000   0.0000000   2.2303664  )
        22           Ru1 tau(  22) = (   0.7500000   0.0000000   2.4441143  )
        23           Ru1 tau(  23) = (   0.5000000   0.5133323   2.4370472  )
        24           O0  tau(  24) = (   0.7500000   0.7083986   2.4343812  )
        25           O0  tau(  25) = (   0.7500000   0.3182660   2.4338310  )
        26           O0  tau(  26) = (   0.5000000   0.0000000   2.6134283  )
        27           H2  tau(  27) = (  -0.0002400   0.6455975   1.6183222  )
        28           H2  tau(  28) = (   0.4995500   0.6408954   1.6119322  )
        29           H2  tau(  29) = (   0.1457200   0.0328533   1.5514599  )
        30           H2  tau(  30) = (   0.6465200   0.0301223   1.5527294  )
        31           O0  tau(  31) = (   0.5138700   0.5107965   2.7447408  )
        32           H2  tau(  32) = (   0.3716000   0.5093694   2.8125765  )

     number of k points=    10  Methfessel-Paxton smearing, width (Ry)=  0.0100
                       cart. coord. in units 2pi/alat
        k(    1) = (   0.0000000   0.0000000   0.0000000), wk =   0.1250000
        k(    2) = (   0.0000000   0.2435070   0.0000000), wk =   0.2500000
        k(    3) = (   0.0000000  -0.4870139   0.0000000), wk =   0.1250000
        k(    4) = (   0.2500000   0.0000000   0.0000000), wk =   0.2500000
        k(    5) = (   0.2500000   0.2435070   0.0000000), wk =   0.2500000
        k(    6) = (   0.2500000  -0.4870139   0.0000000), wk =   0.2500000
        k(    7) = (  -0.5000000   0.0000000   0.0000000), wk =   0.1250000
        k(    8) = (  -0.5000000   0.2435070   0.0000000), wk =   0.2500000
        k(    9) = (  -0.5000000  -0.4870139   0.0000000), wk =   0.1250000
        k(   10) = (  -0.2500000   0.2435070   0.0000000), wk =   0.2500000

     Dense  grid:  1344679 G-vectors     FFT dimensions: (  90,  90, 360)

     Smooth grid:   243423 G-vectors     FFT dimensions: (  48,  50, 216)

     Largest allocated arrays     est. size (Mb)     dimensions
        Kohn-Sham Wavefunctions        41.69 Mb     (   7632,  358)
        Atomic wavefunctions           21.54 Mb     (   7632,  185)
        NL pseudopotentials            46.70 Mb     (   7632,  401)
        Each V/rho on FFT grid         11.12 Mb     ( 729000)
        Each G-vector array             2.56 Mb     ( 336169)
        G-vector shells                 1.12 Mb     ( 146910)
     Largest temporary arrays     est. size (Mb)     dimensions
        Auxiliary wavefunctions       166.76 Mb     (   7632, 1432)
        Each subspace H/S matrix       31.29 Mb     (1432,1432)
        Each <psi_i|beta_j> matrix      2.19 Mb     (    401,  358)
        Arrays for rho mixing          88.99 Mb     ( 729000,   8)

     Check: negative/imaginary core charge=   -0.000003    0.000000

     Initial potential from superposition of free atoms
     Check: negative starting charge=   -0.522051

     starting charge  238.99980, renormalised to  247.00000

     negative rho (up, down):  0.540E+00 0.000E+00
     Number of +U iterations with fixed ns =  0
     Starting occupations:
 --- enter write_ns ---
 LDA+U parameters:
U( 2)     =  4.50000000
alpha( 2) =  0.00000000
atom    3   Tr[ns(na)] =   6.00000
    eigenvalues: 
  0.600  0.600  0.600  0.600  0.600
    eigenvectors:
  1.000  0.000  0.000  0.000  0.000
  0.000  1.000  0.000  0.000  0.000
  0.000  0.000  1.000  0.000  0.000
  0.000  0.000  0.000  1.000  0.000
  0.000  0.000  0.000  0.000  1.000
    occupations:
  0.600  0.000  0.000  0.000  0.000
  0.000  0.600  0.000  0.000  0.000
  0.000  0.000  0.600  0.000  0.000
  0.000  0.000  0.000  0.600  0.000
  0.000  0.000  0.000  0.000  0.600
atom    4   Tr[ns(na)] =   6.00000
    eigenvalues: 
  0.600  0.600  0.600  0.600  0.600
    eigenvectors:
  1.000  0.000  0.000  0.000  0.000
  0.000  1.000  0.000  0.000  0.000
  0.000  0.000  1.000  0.000  0.000
  0.000  0.000  0.000  1.000  0.000
  0.000  0.000  0.000  0.000  1.000
    occupations:
  0.600  0.000  0.000  0.000  0.000
  0.000  0.600  0.000  0.000  0.000
  0.000  0.000  0.600  0.000  0.000
  0.000  0.000  0.000  0.600  0.000
  0.000  0.000  0.000  0.000  0.600
atom    9   Tr[ns(na)] =   6.00000
    eigenvalues: 
  0.600  0.600  0.600  0.600  0.600
    eigenvectors:
  1.000  0.000  0.000  0.000  0.000
  0.000  1.000  0.000  0.000  0.000
  0.000  0.000  1.000  0.000  0.000
  0.000  0.000  0.000  1.000  0.000
  0.000  0.000  0.000  0.000  1.000
    occupations:
  0.600  0.000  0.000  0.000  0.000
  0.000  0.600  0.000  0.000  0.000
  0.000  0.000  0.600  0.000  0.000
  0.000  0.000  0.000  0.600  0.000
  0.000  0.000  0.000  0.000  0.600
atom   10   Tr[ns(na)] =   6.00000
    eigenvalues: 
  0.600  0.600  0.600  0.600  0.600
    eigenvectors:
  1.000  0.000  0.000  0.000  0.000
  0.000  1.000  0.000  0.000  0.000
  0.000  0.000  1.000  0.000  0.000
  0.000  0.000  0.000  1.000  0.000
  0.000  0.000  0.000  0.000  1.000
    occupations:
  0.600  0.000  0.000  0.000  0.000
  0.000  0.600  0.000  0.000  0.000
  0.000  0.000  0.600  0.000  0.000
  0.000  0.000  0.000  0.600  0.000
  0.000  0.000  0.000  0.000  0.600
atom   16   Tr[ns(na)] =   6.00000
    eigenvalues: 
  0.600  0.600  0.600  0.600  0.600
    eigenvectors:
  1.000  0.000  0.000  0.000  0.000
  0.000  1.000  0.000  0.000  0.000
  0.000  0.000  1.000  0.000  0.000
  0.000  0.000  0.000  1.000  0.000
  0.000  0.000  0.000  0.000  1.000
    occupations:
  0.600  0.000  0.000  0.000  0.000
  0.000  0.600  0.000  0.000  0.000
  0.000  0.000  0.600  0.000  0.000
  0.000  0.000  0.000  0.600  0.000
  0.000  0.000  0.000  0.000  0.600
atom   17   Tr[ns(na)] =   6.00000
    eigenvalues: 
  0.600  0.600  0.600  0.600  0.600
    eigenvectors:
  1.000  0.000  0.000  0.000  0.000
  0.000  1.000  0.000  0.000  0.000
  0.000  0.000  1.000  0.000  0.000
  0.000  0.000  0.000  1.000  0.000
  0.000  0.000  0.000  0.000  1.000
    occupations:
  0.600  0.000  0.000  0.000  0.000
  0.000  0.600  0.000  0.000  0.000
  0.000  0.000  0.600  0.000  0.000
  0.000  0.000  0.000  0.600  0.000
  0.000  0.000  0.000  0.000  0.600
atom   22   Tr[ns(na)] =   6.00000
    eigenvalues: 
  0.600  0.600  0.600  0.600  0.600
    eigenvectors:
  1.000  0.000  0.000  0.000  0.000
  0.000  1.000  0.000  0.000  0.000
  0.000  0.000  1.000  0.000  0.000
  0.000  0.000  0.000  1.000  0.000
  0.000  0.000  0.000  0.000  1.000
    occupations:
  0.600  0.000  0.000  0.000  0.000
  0.000  0.600  0.000  0.000  0.000
  0.000  0.000  0.600  0.000  0.000
  0.000  0.000  0.000  0.600  0.000
  0.000  0.000  0.000  0.000  0.600
atom   23   Tr[ns(na)] =   6.00000
    eigenvalues: 
  0.600  0.600  0.600  0.600  0.600
    eigenvectors:
  1.000  0.000  0.000  0.000  0.000
  0.000  1.000  0.000  0.000  0.000
  0.000  0.000  1.000  0.000  0.000
  0.000  0.000  0.000  1.000  0.000
  0.000  0.000  0.000  0.000  1.000
    occupations:
  0.600  0.000  0.000  0.000  0.000
  0.000  0.600  0.000  0.000  0.000
  0.000  0.000  0.600  0.000  0.000
  0.000  0.000  0.000  0.600  0.000
  0.000  0.000  0.000  0.000  0.600
N of occupied +U levels =  48.0000000
 --- exit write_ns ---
 Atomic wfc used for LDA+U Projector are NOT orthogonalized
     Starting wfc are  185 randomized atomic wfcs

     total cpu time spent up to now is      106.3 secs

     per-process dynamical memory:   415.4 Mb

     Self-consistent Calculation

     iteration #  1     ecut=    40.00 Ry     beta=0.70
     Davidson diagonalization with overlap
     ethr =  1.00E-02,  avg # of iterations =  5.9
 --- enter write_ns ---
 LDA+U parameters:
U( 2)     =  4.50000000
alpha( 2) =  0.00000000
atom    3   Tr[ns(na)] =   4.82486
    eigenvalues: 
  0.403  0.427  0.464  0.518  0.601
    eigenvectors:
  0.001  0.133  0.079  0.261  0.527
  0.940  0.043  0.017  0.000  0.000
  0.001  0.000  0.025  0.609  0.365
  0.044  0.824  0.005  0.038  0.089
  0.015  0.000  0.872  0.093  0.020
    occupations:
  0.545 -0.003  0.038 -0.048  0.022
 -0.003  0.405  0.001  0.006  0.007
  0.038  0.001  0.547 -0.017 -0.002
 -0.048  0.006 -0.017  0.445 -0.011
  0.022  0.007 -0.002 -0.011  0.470
atom    4   Tr[ns(na)] =   3.89833
    eigenvalues: 
  0.321  0.331  0.415  0.415  0.468
    eigenvectors:
  0.003  0.008  0.074  0.081  0.834
  0.119  0.850  0.013  0.017  0.001
  0.876  0.123  0.000  0.000  0.001
  0.001  0.019  0.391  0.424  0.164
  0.000  0.000  0.522  0.478  0.000
    occupations:
  0.458  0.010  0.003  0.021  0.000
  0.010  0.332 -0.003 -0.011 -0.001
  0.003 -0.003  0.322  0.001  0.000
  0.021 -0.011  0.001  0.422  0.000
  0.000 -0.001  0.000  0.000  0.415
atom    9   Tr[ns(na)] =   7.47092
    eigenvalues: 
  0.434  0.456  0.933  0.954  0.958
    eigenvectors:
  0.006  0.127  0.000  0.000  0.867
  0.975  0.025  0.000  0.000  0.000
  0.000  0.000  0.049  0.951  0.000
  0.019  0.849  0.000  0.000  0.132
  0.000  0.000  0.951  0.049  0.000
    occupations:
  0.891 -0.012  0.000 -0.170  0.000
 -0.012  0.435 -0.000  0.001 -0.000
  0.000 -0.000  0.953  0.000  0.005
 -0.170  0.001  0.000  0.522 -0.000
  0.000 -0.000  0.005 -0.000  0.934
atom   10   Tr[ns(na)] =   7.70603
    eigenvalues: 
  0.432  0.562  0.934  0.962  0.963
    eigenvectors:
  0.000  0.988  0.000  0.011  0.001
  0.000  0.000  0.000  0.078  0.922
  0.000  0.000  1.000  0.000  0.000
  0.000  0.012  0.000  0.911  0.077
  1.000  0.000  0.000  0.000  0.000
    occupations:
  0.567  0.000 -0.001  0.044  0.000
  0.000  0.963  0.000  0.000  0.001
 -0.001  0.000  0.934  0.000  0.002
  0.044  0.000  0.000  0.957  0.000
  0.000  0.001  0.002  0.000  0.432
atom   16   Tr[ns(na)] =   4.80584
    eigenvalues: 
  0.403  0.427  0.461  0.514  0.599
    eigenvectors:
  0.000  0.134  0.065  0.293  0.508
  0.936  0.043  0.021  0.001  0.000
  0.001  0.000  0.005  0.616  0.378
  0.045  0.823  0.004  0.042  0.085
  0.018  0.000  0.905  0.049  0.028
    occupations:
  0.542  0.003  0.038 -0.046 -0.023
  0.003  0.405 -0.002 -0.006  0.007
  0.038 -0.002  0.545 -0.017 -0.005
 -0.046 -0.006 -0.017  0.444  0.011
 -0.023  0.007 -0.005  0.011  0.467
atom   17   Tr[ns(na)] =   3.85493
    eigenvalues: 
  0.316  0.331  0.403  0.412  0.465
    eigenvectors:
  0.002  0.009  0.071  0.000  0.919
  0.053  0.908  0.037  0.000  0.002
  0.945  0.054  0.000  0.000  0.000
  0.001  0.029  0.892  0.000  0.078
  0.000  0.000  0.000  1.000  0.000
    occupations:
  0.459  0.010  0.003  0.018  0.000
  0.010  0.333 -0.003 -0.011 -0.000
  0.003 -0.003  0.317  0.001  0.001
  0.018 -0.011  0.001  0.405 -0.000
  0.000 -0.000  0.001 -0.000  0.412
atom   22   Tr[ns(na)] =   7.47714
    eigenvalues: 
  0.434  0.456  0.933  0.957  0.958
    eigenvectors:
  0.006  0.127  0.000  0.000  0.868
  0.977  0.023  0.000  0.000  0.000
  0.000  0.000  0.036  0.964  0.000
  0.018  0.850  0.000  0.000  0.132
  0.000  0.000  0.964  0.036  0.000
    occupations:
  0.892  0.011  0.000 -0.170  0.000
  0.011  0.435 -0.000 -0.001 -0.000
  0.000 -0.000  0.956  0.000 -0.004
 -0.170 -0.001  0.000  0.522 -0.000
  0.000 -0.000 -0.004 -0.000  0.934
atom   23   Tr[ns(na)] =   7.40285
    eigenvalues: 
  0.422  0.469  0.898  0.954  0.958
    eigenvectors:
  0.000  0.990  0.000  0.008  0.002
  0.000  0.000  0.000  0.088  0.912
  0.000  0.000  0.999  0.001  0.000
  0.000  0.010  0.001  0.903  0.086
  1.000  0.000  0.000  0.000  0.000
    occupations:
  0.474  0.006 -0.004  0.047  0.000
  0.006  0.958  0.000  0.001 -0.000
 -0.004  0.000  0.898 -0.001 -0.001
  0.047  0.001 -0.001  0.950  0.000
  0.000 -0.000 -0.001  0.000  0.422
N of occupied +U levels =  47.4408979
 --- exit write_ns ---

     negative rho (up, down):  0.623E+00 0.000E+00

     total cpu time spent up to now is      480.9 secs

     total energy              =   -2125.83632084 Ry
     Harris-Foulkes estimate   =   -2165.46842040 Ry
     estimated scf accuracy    <      46.10591271 Ry

     iteration #  2     ecut=    40.00 Ry     beta=0.70
     Davidson diagonalization with overlap
     ethr =  1.00E-02,  avg # of iterations =  6.4

     negative rho (up, down):  0.622E+00 0.000E+00

     total cpu time spent up to now is      820.6 secs

     total energy              =   -2022.24048559 Ry
     Harris-Foulkes estimate   =   -2485.45782866 Ry
     estimated scf accuracy    <    4181.19285778 Ry

     iteration #  3     ecut=    40.00 Ry     beta=0.70
     Davidson diagonalization with overlap
     ethr =  1.00E-02,  avg # of iterations =  6.0

     negative rho (up, down):  0.588E+00 0.000E+00

     total cpu time spent up to now is     1214.0 secs

     total energy              =   -2146.58306225 Ry
     Harris-Foulkes estimate   =   -2190.45082447 Ry
     estimated scf accuracy    <     208.53436747 Ry

     iteration #  4     ecut=    40.00 Ry     beta=0.70
     Davidson diagonalization with overlap
     ethr =  1.00E-02,  avg # of iterations =  4.0

     negative rho (up, down):  0.573E+00 0.000E+00

     total cpu time spent up to now is     1420.9 secs

     total energy              =   -2158.54618830 Ry
     Harris-Foulkes estimate   =   -2166.78740659 Ry
     estimated scf accuracy    <      36.12305363 Ry

     iteration #  5     ecut=    40.00 Ry     beta=0.70
     Davidson diagonalization with overlap
     ethr =  1.00E-02,  avg # of iterations =  1.7

     negative rho (up, down):  0.574E+00 0.000E+00

     total cpu time spent up to now is     1591.4 secs

     total energy              =   -2163.07289809 Ry
     Harris-Foulkes estimate   =   -2163.71021580 Ry
     estimated scf accuracy    <      41.68837083 Ry

     iteration #  6     ecut=    40.00 Ry     beta=0.70
     Davidson diagonalization with overlap
     ethr =  1.00E-02,  avg # of iterations =  1.0

     negative rho (up, down):  0.575E+00 0.000E+00

     total cpu time spent up to now is     1758.4 secs

     total energy              =   -2162.85922018 Ry
     Harris-Foulkes estimate   =   -2163.15248706 Ry
     estimated scf accuracy    <      31.80722921 Ry

     iteration #  7     ecut=    40.00 Ry     beta=0.70
     Davidson diagonalization with overlap
     ethr =  1.00E-02,  avg # of iterations =  1.0

     negative rho (up, down):  0.577E+00 0.000E+00

     total cpu time spent up to now is     1927.3 secs

     total energy              =   -2162.17511592 Ry
     Harris-Foulkes estimate   =   -2162.94500627 Ry
     estimated scf accuracy    <      24.33126414 Ry

     iteration #  8     ecut=    40.00 Ry     beta=0.70
     Davidson diagonalization with overlap
     ethr =  9.85E-03,  avg # of iterations =  1.0

     negative rho (up, down):  0.578E+00 0.000E+00

     total cpu time spent up to now is     2099.9 secs

     total energy              =   -2161.96378945 Ry
     Harris-Foulkes estimate   =   -2162.65128102 Ry
     estimated scf accuracy    <       8.70250607 Ry

     iteration #  9     ecut=    40.00 Ry     beta=0.70
     Davidson diagonalization with overlap
     ethr =  3.52E-03,  avg # of iterations =  1.2

     negative rho (up, down):  0.580E+00 0.000E+00

     total cpu time spent up to now is     2278.5 secs

     total energy              =   -2162.17414210 Ry
     Harris-Foulkes estimate   =   -2162.40009012 Ry
     estimated scf accuracy    <       2.35086974 Ry

     iteration # 10     ecut=    40.00 Ry     beta=0.70
     Davidson diagonalization with overlap
     ethr =  9.52E-04,  avg # of iterations =  5.0

     negative rho (up, down):  0.579E+00 0.000E+00

     total cpu time spent up to now is     2485.2 secs

     total energy              =   -2162.22009301 Ry
     Harris-Foulkes estimate   =   -2162.42691178 Ry
     estimated scf accuracy    <       1.15519957 Ry

     iteration # 11     ecut=    40.00 Ry     beta=0.70
     Davidson diagonalization with overlap
     ethr =  4.68E-04,  avg # of iterations =  1.8

     negative rho (up, down):  0.577E+00 0.000E+00

     total cpu time spent up to now is     2666.5 secs

     total energy              =   -2162.24534620 Ry
     Harris-Foulkes estimate   =   -2162.40374947 Ry
     estimated scf accuracy    <       1.10775866 Ry

     iteration # 12     ecut=    40.00 Ry     beta=0.70
     Davidson diagonalization with overlap
     ethr =  4.48E-04,  avg # of iterations =  1.2

     negative rho (up, down):  0.575E+00 0.000E+00

     total cpu time spent up to now is     2844.2 secs

     total energy              =   -2162.27428919 Ry
     Harris-Foulkes estimate   =   -2162.36617444 Ry
     estimated scf accuracy    <       0.46081480 Ry

     iteration # 13     ecut=    40.00 Ry     beta=0.70
     Davidson diagonalization with overlap
     ethr =  1.87E-04,  avg # of iterations =  5.4

     negative rho (up, down):  0.573E+00 0.000E+00

     total cpu time spent up to now is     3054.5 secs

     total energy              =   -2162.27608046 Ry
     Harris-Foulkes estimate   =   -2162.40158421 Ry
     estimated scf accuracy    <       0.75323647 Ry

     iteration # 14     ecut=    40.00 Ry     beta=0.70
     Davidson diagonalization with overlap
     ethr =  1.87E-04,  avg # of iterations =  4.2

     negative rho (up, down):  0.574E+00 0.000E+00

     total cpu time spent up to now is     3254.6 secs

     total energy              =   -2162.28092180 Ry
     Harris-Foulkes estimate   =   -2162.39031385 Ry
     estimated scf accuracy    <       0.67570560 Ry

     iteration # 15     ecut=    40.00 Ry     beta=0.70
     Davidson diagonalization with overlap
     ethr =  1.87E-04,  avg # of iterations =  1.0

     negative rho (up, down):  0.575E+00 0.000E+00

     total cpu time spent up to now is     3432.4 secs

     total energy              =   -2162.32648215 Ry
     Harris-Foulkes estimate   =   -2162.34370735 Ry
     estimated scf accuracy    <       0.07519673 Ry

     iteration # 16     ecut=    40.00 Ry     beta=0.70
     Davidson diagonalization with overlap
     ethr =  3.04E-05,  avg # of iterations =  3.3

     negative rho (up, down):  0.575E+00 0.000E+00

     total cpu time spent up to now is     3622.9 secs

     total energy              =   -2162.31679006 Ry
     Harris-Foulkes estimate   =   -2162.35602101 Ry
     estimated scf accuracy    <       0.38665252 Ry

     iteration # 17     ecut=    40.00 Ry     beta=0.70
     Davidson diagonalization with overlap
     ethr =  3.04E-05,  avg # of iterations =  3.6

     negative rho (up, down):  0.575E+00 0.000E+00

     total cpu time spent up to now is     3810.5 secs

     total energy              =   -2162.33182314 Ry
     Harris-Foulkes estimate   =   -2162.34329600 Ry
     estimated scf accuracy    <       0.11051104 Ry

     iteration # 18     ecut=    40.00 Ry     beta=0.70
     Davidson diagonalization with overlap
     ethr =  3.04E-05,  avg # of iterations =  1.0

     negative rho (up, down):  0.575E+00 0.000E+00

     total cpu time spent up to now is     3979.4 secs

     total energy              =   -2162.33505271 Ry
     Harris-Foulkes estimate   =   -2162.34073406 Ry
     estimated scf accuracy    <       0.03626086 Ry

     iteration # 19     ecut=    40.00 Ry     beta=0.70
     Davidson diagonalization with overlap
     ethr =  1.47E-05,  avg # of iterations =  1.3

     negative rho (up, down):  0.575E+00 0.000E+00

     total cpu time spent up to now is     4147.9 secs

     total energy              =   -2162.33767723 Ry
     Harris-Foulkes estimate   =   -2162.33907665 Ry
     estimated scf accuracy    <       0.01042918 Ry

     iteration # 20     ecut=    40.00 Ry     beta=0.70
     Davidson diagonalization with overlap
     ethr =  4.22E-06,  avg # of iterations =  3.7

     negative rho (up, down):  0.575E+00 0.000E+00

     total cpu time spent up to now is     4335.9 secs

     total energy              =   -2162.33774500 Ry
     Harris-Foulkes estimate   =   -2162.33929374 Ry
     estimated scf accuracy    <       0.01392107 Ry

     iteration # 21     ecut=    40.00 Ry     beta=0.70
     Davidson diagonalization with overlap
     ethr =  4.22E-06,  avg # of iterations =  1.0

     negative rho (up, down):  0.575E+00 0.000E+00

     total cpu time spent up to now is     4505.6 secs

     total energy              =   -2162.33834993 Ry
     Harris-Foulkes estimate   =   -2162.33908958 Ry
     estimated scf accuracy    <       0.00744670 Ry

     iteration # 22     ecut=    40.00 Ry     beta=0.70
     Davidson diagonalization with overlap
     ethr =  3.01E-06,  avg # of iterations =  1.0

     negative rho (up, down):  0.575E+00 0.000E+00

     total cpu time spent up to now is     4677.4 secs

     total energy              =   -2162.33828877 Ry
     Harris-Foulkes estimate   =   -2162.33926734 Ry
     estimated scf accuracy    <       0.00604896 Ry

     iteration # 23     ecut=    40.00 Ry     beta=0.70
     Davidson diagonalization with overlap
     ethr =  2.45E-06,  avg # of iterations =  1.0

     negative rho (up, down):  0.575E+00 0.000E+00

     total cpu time spent up to now is     4848.5 secs

     total energy              =   -2162.33846825 Ry
     Harris-Foulkes estimate   =   -2162.33927977 Ry
     estimated scf accuracy    <       0.00637576 Ry

     iteration # 24     ecut=    40.00 Ry     beta=0.70
     Davidson diagonalization with overlap
     ethr =  2.45E-06,  avg # of iterations =  1.0

     negative rho (up, down):  0.575E+00 0.000E+00

     total cpu time spent up to now is     5025.5 secs

     total energy              =   -2162.33876856 Ry
     Harris-Foulkes estimate   =   -2162.33899849 Ry
     estimated scf accuracy    <       0.00117818 Ry

     iteration # 25     ecut=    40.00 Ry     beta=0.70
     Davidson diagonalization with overlap
     ethr =  4.77E-07,  avg # of iterations =  1.1

     negative rho (up, down):  0.575E+00 0.000E+00

     total cpu time spent up to now is     5201.1 secs

     total energy              =   -2162.33872849 Ry
     Harris-Foulkes estimate   =   -2162.33918246 Ry
     estimated scf accuracy    <       0.00367992 Ry

     iteration # 26     ecut=    40.00 Ry     beta=0.70
     Davidson diagonalization with overlap
     ethr =  4.77E-07,  avg # of iterations =  1.0

     negative rho (up, down):  0.575E+00 0.000E+00

     total cpu time spent up to now is     5369.5 secs

     total energy              =   -2162.33882006 Ry
     Harris-Foulkes estimate   =   -2162.33908137 Ry
     estimated scf accuracy    <       0.00169681 Ry

     iteration # 27     ecut=    40.00 Ry     beta=0.70
     Davidson diagonalization with overlap
     ethr =  4.77E-07,  avg # of iterations =  1.0

     negative rho (up, down):  0.575E+00 0.000E+00

     total cpu time spent up to now is     5540.3 secs

     total energy              =   -2162.33866136 Ry
     Harris-Foulkes estimate   =   -2162.33921892 Ry
     estimated scf accuracy    <       0.00597811 Ry

     iteration # 28     ecut=    40.00 Ry     beta=0.70
     Davidson diagonalization with overlap
     ethr =  4.77E-07,  avg # of iterations =  1.0

     negative rho (up, down):  0.575E+00 0.000E+00

     total cpu time spent up to now is     5719.4 secs

     total energy              =   -2162.33881520 Ry
     Harris-Foulkes estimate   =   -2162.33911660 Ry
     estimated scf accuracy    <       0.00343907 Ry

     iteration # 29     ecut=    40.00 Ry     beta=0.70
     Davidson diagonalization with overlap
     ethr =  4.77E-07,  avg # of iterations =  1.0

     negative rho (up, down):  0.575E+00 0.000E+00

     total cpu time spent up to now is     5898.6 secs

     total energy              =   -2162.33881095 Ry
     Harris-Foulkes estimate   =   -2162.33914348 Ry
     estimated scf accuracy    <       0.00332851 Ry

     iteration # 30     ecut=    40.00 Ry     beta=0.70
     Davidson diagonalization with overlap
     ethr =  4.77E-07,  avg # of iterations =  1.0

     negative rho (up, down):  0.575E+00 0.000E+00

     total cpu time spent up to now is     6078.1 secs

     total energy              =   -2162.33894391 Ry
     Harris-Foulkes estimate   =   -2162.33901226 Ry
     estimated scf accuracy    <       0.00036117 Ry

     iteration # 31     ecut=    40.00 Ry     beta=0.70
     Davidson diagonalization with overlap
     ethr =  1.46E-07,  avg # of iterations =  1.0

     negative rho (up, down):  0.575E+00 0.000E+00

     total cpu time spent up to now is     6254.5 secs

     total energy              =   -2162.33889498 Ry
     Harris-Foulkes estimate   =   -2162.33906013 Ry
     estimated scf accuracy    <       0.00178718 Ry

     iteration # 32     ecut=    40.00 Ry     beta=0.70
     Davidson diagonalization with overlap
     ethr =  1.46E-07,  avg # of iterations =  1.0

     negative rho (up, down):  0.575E+00 0.000E+00

     total cpu time spent up to now is     6430.1 secs

     total energy              =   -2162.33898081 Ry
     Harris-Foulkes estimate   =   -2162.33899675 Ry
     estimated scf accuracy    <       0.00022958 Ry

     iteration # 33     ecut=    40.00 Ry     beta=0.70
     Davidson diagonalization with overlap
     ethr =  9.29E-08,  avg # of iterations =  1.0

     negative rho (up, down):  0.575E+00 0.000E+00

     total cpu time spent up to now is     6618.1 secs

     total energy              =   -2162.33898132 Ry
     Harris-Foulkes estimate   =   -2162.33900330 Ry
     estimated scf accuracy    <       0.00017676 Ry

     iteration # 34     ecut=    40.00 Ry     beta=0.70
     Davidson diagonalization with overlap
     ethr =  7.16E-08,  avg # of iterations =  1.0

     negative rho (up, down):  0.575E+00 0.000E+00

     total cpu time spent up to now is     6807.7 secs

     total energy              =   -2162.33899045 Ry
     Harris-Foulkes estimate   =   -2162.33899643 Ry
     estimated scf accuracy    <       0.00005221 Ry

     iteration # 35     ecut=    40.00 Ry     beta=0.70
     Davidson diagonalization with overlap
     ethr =  2.11E-08,  avg # of iterations =  1.0

     negative rho (up, down):  0.575E+00 0.000E+00

     total cpu time spent up to now is     6978.2 secs

     total energy              =   -2162.33899116 Ry
     Harris-Foulkes estimate   =   -2162.33899863 Ry
     estimated scf accuracy    <       0.00008844 Ry

     iteration # 36     ecut=    40.00 Ry     beta=0.70
     Davidson diagonalization with overlap
     ethr =  2.11E-08,  avg # of iterations =  1.0

     negative rho (up, down):  0.575E+00 0.000E+00

     total cpu time spent up to now is     7144.8 secs

     total energy              =   -2162.33899545 Ry
     Harris-Foulkes estimate   =   -2162.33899797 Ry
     estimated scf accuracy    <       0.00003994 Ry

     iteration # 37     ecut=    40.00 Ry     beta=0.70
     Davidson diagonalization with overlap
     ethr =  1.62E-08,  avg # of iterations =  1.0

     negative rho (up, down):  0.575E+00 0.000E+00

     total cpu time spent up to now is     7314.9 secs

     total energy              =   -2162.33898791 Ry
     Harris-Foulkes estimate   =   -2162.33900009 Ry
     estimated scf accuracy    <       0.00006608 Ry

     iteration # 38     ecut=    40.00 Ry     beta=0.70
     Davidson diagonalization with overlap
     ethr =  1.62E-08,  avg # of iterations =  2.0

     negative rho (up, down):  0.575E+00 0.000E+00

     total cpu time spent up to now is     7488.3 secs

     total energy              =   -2162.33894381 Ry
     Harris-Foulkes estimate   =   -2162.33905429 Ry
     estimated scf accuracy    <       0.00157385 Ry

     iteration # 39     ecut=    40.00 Ry     beta=0.70
     Davidson diagonalization with overlap
     ethr =  1.62E-08,  avg # of iterations =  2.0

     negative rho (up, down):  0.575E+00 0.000E+00

     total cpu time spent up to now is     7661.5 secs

     total energy              =   -2162.33899294 Ry
     Harris-Foulkes estimate   =   -2162.33900230 Ry
     estimated scf accuracy    <       0.00006220 Ry

     iteration # 40     ecut=    40.00 Ry     beta=0.70
     Davidson diagonalization with overlap
     ethr =  1.62E-08,  avg # of iterations =  1.0

     negative rho (up, down):  0.575E+00 0.000E+00

     total cpu time spent up to now is     7834.6 secs

     total energy              =   -2162.33899564 Ry
     Harris-Foulkes estimate   =   -2162.33900060 Ry
     estimated scf accuracy    <       0.00004068 Ry

     iteration # 41     ecut=    40.00 Ry     beta=0.70
     Davidson diagonalization with overlap
     ethr =  1.62E-08,  avg # of iterations =  1.0

     negative rho (up, down):  0.575E+00 0.000E+00

     total cpu time spent up to now is     8014.4 secs

     total energy              =   -2162.33899617 Ry
     Harris-Foulkes estimate   =   -2162.33899934 Ry
     estimated scf accuracy    <       0.00001520 Ry

     iteration # 42     ecut=    40.00 Ry     beta=0.70
     Davidson diagonalization with overlap
     ethr =  6.15E-09,  avg # of iterations =  1.0

     negative rho (up, down):  0.575E+00 0.000E+00

     total cpu time spent up to now is     8185.4 secs

     total energy              =   -2162.33899072 Ry
     Harris-Foulkes estimate   =   -2162.33900570 Ry
     estimated scf accuracy    <       0.00016930 Ry

     iteration # 43     ecut=    40.00 Ry     beta=0.70
     Davidson diagonalization with overlap
     ethr =  6.15E-09,  avg # of iterations =  1.0

     negative rho (up, down):  0.575E+00 0.000E+00

     total cpu time spent up to now is     8363.1 secs

     total energy              =   -2162.33899697 Ry
     Harris-Foulkes estimate   =   -2162.33899953 Ry
     estimated scf accuracy    <       0.00001911 Ry

     iteration # 44     ecut=    40.00 Ry     beta=0.70
     Davidson diagonalization with overlap
     ethr =  6.15E-09,  avg # of iterations =  1.0

     negative rho (up, down):  0.575E+00 0.000E+00

     total cpu time spent up to now is     8540.6 secs

     total energy              =   -2162.33899796 Ry
     Harris-Foulkes estimate   =   -2162.33899892 Ry
     estimated scf accuracy    <       0.00000942 Ry

     iteration # 45     ecut=    40.00 Ry     beta=0.70
     Davidson diagonalization with overlap
     ethr =  3.81E-09,  avg # of iterations =  1.0

     negative rho (up, down):  0.575E+00 0.000E+00

     total cpu time spent up to now is     8707.6 secs

     total energy              =   -2162.33899831 Ry
     Harris-Foulkes estimate   =   -2162.33899875 Ry
     estimated scf accuracy    <       0.00000259 Ry

     iteration # 46     ecut=    40.00 Ry     beta=0.70
     Davidson diagonalization with overlap
     ethr =  1.05E-09,  avg # of iterations =  1.0

     negative rho (up, down):  0.575E+00 0.000E+00

     total cpu time spent up to now is     8875.4 secs

     total energy              =   -2162.33899848 Ry
     Harris-Foulkes estimate   =   -2162.33899868 Ry
     estimated scf accuracy    <       0.00000232 Ry

     iteration # 47     ecut=    40.00 Ry     beta=0.70
     Davidson diagonalization with overlap
     ethr =  9.39E-10,  avg # of iterations =  1.0

     negative rho (up, down):  0.575E+00 0.000E+00

     total cpu time spent up to now is     9049.1 secs

     End of self-consistent calculation
 --- enter write_ns ---
 LDA+U parameters:
U( 2)     =  4.50000000
alpha( 2) =  0.00000000
atom    3   Tr[ns(na)] =   7.23848
    eigenvalues: 
  0.514  0.556  0.689  0.886  0.974
    eigenvectors:
  0.000  0.177  0.007  0.002  0.814
  0.999  0.000  0.000  0.000  0.000
  0.000  0.003  0.965  0.017  0.014
  0.000  0.820  0.009  0.000  0.170
  0.000  0.000  0.018  0.981  0.001
    occupations:
  0.898  0.006  0.033 -0.157  0.001
  0.006  0.514  0.003 -0.003 -0.004
  0.033  0.003  0.696 -0.007 -0.027
 -0.157 -0.003 -0.007  0.628  0.001
  0.001 -0.004 -0.027  0.001  0.882
atom    4   Tr[ns(na)] =   7.23352
    eigenvalues: 
  0.549  0.597  0.671  0.817  0.983
    eigenvectors:
  0.002  0.985  0.000  0.000  0.013
  0.000  0.000  0.040  0.960  0.000
  0.000  0.000  0.960  0.040  0.000
  0.000  0.013  0.000  0.000  0.987
  0.998  0.002  0.000  0.000  0.000
    occupations:
  0.602 -0.001 -0.000  0.043  0.002
 -0.001  0.812  0.029 -0.001 -0.001
 -0.000  0.029  0.677  0.001  0.000
  0.043 -0.001  0.001  0.978  0.000
  0.002 -0.001  0.000  0.000  0.549
atom    9   Tr[ns(na)] =   7.24490
    eigenvalues: 
  0.571  0.592  0.767  0.841  0.852
    eigenvectors:
  0.000  0.149  0.003  0.171  0.676
  0.995  0.004  0.000  0.000  0.000
  0.000  0.000  0.996  0.002  0.002
  0.005  0.846  0.001  0.030  0.119
  0.000  0.000  0.000  0.797  0.203
    occupations:
  0.811 -0.004 -0.004 -0.092  0.004
 -0.004  0.571  0.002  0.003  0.001
 -0.004  0.002  0.767  0.001  0.001
 -0.092  0.003  0.001  0.630 -0.002
  0.004  0.001  0.001 -0.002  0.843
atom   10   Tr[ns(na)] =   7.25881
    eigenvalues: 
  0.522  0.528  0.766  0.834  0.980
    eigenvectors:
  0.987  0.000  0.000  0.000  0.013
  0.000  0.000  0.000  1.000  0.000
  0.000  0.000  1.000  0.000  0.000
  0.013  0.000  0.000  0.000  0.987
  0.000  1.000  0.000  0.000  0.000
    occupations:
  0.528 -0.003 -0.000  0.051  0.000
 -0.003  0.834  0.001  0.000  0.000
 -0.000  0.001  0.766 -0.001  0.001
  0.051  0.000 -0.001  0.974  0.000
  0.000  0.000  0.001  0.000  0.528
atom   16   Tr[ns(na)] =   7.23925
    eigenvalues: 
  0.514  0.556  0.690  0.886  0.974
    eigenvectors:
  0.000  0.177  0.007  0.002  0.815
  0.999  0.000  0.000  0.000  0.000
  0.000  0.003  0.963  0.020  0.014
  0.000  0.820  0.009  0.000  0.170
  0.000  0.000  0.021  0.978  0.001
    occupations:
  0.898 -0.006  0.032 -0.157 -0.002
 -0.006  0.514 -0.003  0.003 -0.004
  0.032 -0.003  0.697 -0.007  0.028
 -0.157  0.003 -0.007  0.628 -0.001
 -0.002 -0.004  0.028 -0.001  0.882
atom   17   Tr[ns(na)] =   7.22598
    eigenvalues: 
  0.550  0.602  0.657  0.821  0.983
    eigenvectors:
  0.001  0.985  0.000  0.000  0.013
  0.000  0.000  0.020  0.980  0.000
  0.000  0.000  0.980  0.020  0.000
  0.000  0.013  0.000  0.000  0.987
  0.999  0.001  0.000  0.000  0.000
    occupations:
  0.606 -0.001  0.000  0.044  0.002
 -0.001  0.818  0.023 -0.001 -0.002
  0.000  0.023  0.660  0.001  0.000
  0.044 -0.001  0.001  0.978  0.000
  0.002 -0.002  0.000  0.000  0.551
atom   22   Tr[ns(na)] =   7.24146
    eigenvalues: 
  0.571  0.593  0.762  0.842  0.854
    eigenvectors:
  0.000  0.148  0.000  0.163  0.689
  0.998  0.001  0.000  0.000  0.000
  0.000  0.000  1.000  0.000  0.000
  0.002  0.851  0.000  0.027  0.121
  0.000  0.000  0.000  0.810  0.189
    occupations:
  0.813  0.005 -0.001 -0.092  0.004
  0.005  0.571  0.001 -0.003  0.000
 -0.001  0.001  0.762  0.000 -0.002
 -0.092 -0.003  0.000  0.631 -0.003
  0.004  0.000 -0.002 -0.003  0.844
atom   23   Tr[ns(na)] =   7.22352
    eigenvalues: 
  0.549  0.605  0.635  0.850  0.972
    eigenvectors:
  0.000  0.983  0.002  0.000  0.015
  0.000  0.000  0.000  1.000  0.000
  0.000  0.002  0.998  0.000  0.000
  0.000  0.015  0.000  0.000  0.985
  1.000  0.000  0.000  0.000  0.000
    occupations:
  0.611  0.005 -0.001  0.045  0.000
  0.005  0.850  0.002  0.000  0.001
 -0.001  0.002  0.635  0.001 -0.001
  0.045  0.000  0.001  0.966 -0.000
  0.000  0.001 -0.001 -0.000  0.549
N of occupied +U levels =  57.9059224
 --- exit write_ns ---

          k = 0.0000 0.0000 0.0000 ( 30363 PWs)   bands (ev):

   -74.1063 -74.0945 -73.9974 -73.9433 -73.8764 -73.6633 -73.5244 -73.5121
   -44.2729 -44.2637 -44.2414 -44.1666 -44.1255 -44.1069 -44.0781 -44.0523
   -44.0294 -43.9969 -43.9371 -43.8837 -43.8288 -43.8226 -43.7455 -43.7403
   -43.7150 -43.6364 -43.6000 -43.5631 -43.4966 -43.4145 -43.3765 -43.2374
   -21.0204 -20.5886 -20.4679 -20.2675 -20.2154 -20.0875 -19.8886 -19.7848
   -19.7289 -19.6317 -19.5793 -19.5500 -19.5187 -19.4279 -19.3792 -19.1831
   -19.0305 -18.9498 -18.8330  -9.6732  -9.5945  -9.4245  -8.7390  -8.5751
    -8.5475  -8.5141  -8.0810  -8.0024  -7.9749  -7.8942  -7.7254  -7.7170
    -7.6596  -7.5800  -7.4753  -7.3795  -7.3107  -7.2162  -7.0720  -6.9896
    -6.9309  -6.6062  -6.4346  -6.1830  -6.0449  -5.7703  -5.6233  -5.5142
    -5.4503  -5.4184  -5.2335  -5.2157  -5.1180  -4.9225  -4.8958  -4.8648
    -4.7658  -4.6673  -4.5692  -4.5029  -4.4329  -4.3361  -4.2498  -4.0673
    -4.0004  -3.9328  -3.8369  -3.8029  -3.7656  -3.6774  -3.5854  -3.5160
    -3.4031  -3.3148  -3.1955  -3.1531  -3.1312  -2.9459  -2.8849  -2.8536
    -2.8160  -2.7855  -2.7001  -2.4586  -2.3928  -2.2050  -2.0356  -1.9048
    -1.7031  -1.5164  -1.3378  -1.3294  -1.2897  -0.9451  -0.6693  -0.5740
    -0.5067  -0.2219  -0.0950   0.3624   0.5806   1.4713   1.5865   2.1490
     2.4076   2.4484   2.5107   2.5289   2.7580   3.3378   3.3888   3.4066
     3.5961   3.6549   3.7503   3.8983   3.9874   4.2472   4.3969   4.7269
     5.1656   5.9680   6.2086   6.3610   6.6901   6.8312   7.0647   7.2943
     7.3672   7.4593   7.5271   7.8373   7.8954   7.9890   8.0092   8.1067
     8.1694   8.2946   8.4060   8.4310   8.4766   8.6010   8.6949   8.8278
     8.8762   8.9433   9.1560   9.2032   9.2308   9.3508   9.4224   9.4432
     9.6326   9.6990   9.8018   9.8217   9.9419   9.9866  10.1805  10.2497
    10.4643  10.7275  10.7486  10.8989  11.0028  11.0700  11.1198  11.1796
    11.2804  11.2974  11.3879  11.4721  11.6388  11.6538  11.7349  11.7575
    11.7803  11.7934  11.8630  11.9595  12.0156  12.1276  12.1757  12.2434
    12.3072  12.3988  12.4510  12.4797  12.4968  12.5914  12.6258  12.6905
    12.7474  12.8300  12.8875  12.9316  12.9749  13.0767  13.1538  13.2843
    13.3017  13.3695  13.4653  13.6101  13.6868  13.8406  13.8658  13.9414
    13.9854  14.1041  14.1792  14.2387  14.3134  14.3380  14.5549  14.5906
    14.7180  14.7530  14.8739  15.0229  15.0685  15.1220  15.2809  15.4237
    15.4994  15.5938  15.7711  15.8017  15.9044  15.9843  16.0515  16.1122
    16.2292  16.2693  16.3605  16.4839  16.6144  16.7861  16.8335  16.8909
    16.9295  17.1523  17.2308  17.2411  17.3421  17.4173  17.4475  17.5145
    17.7246  17.7848  17.8085  17.9163  18.0398  18.0816  18.2436  18.2655
    18.3791  18.4496  18.5330  18.6043  18.6772  18.7409  18.7460  18.7868
    18.8140  18.8697  18.9604  18.9918  19.0224  19.0980  19.2086  19.2223
    19.2546  19.3099  19.4001  19.4123  19.5593  19.6131  19.6438  19.6897
    19.7753  19.8155  19.9433  20.0022  20.0163  20.1059  20.1262  20.1996
    20.2247  20.2720  20.3246  20.3977  20.4338  20.5589  20.6475  20.7271
    20.7499  20.7737  20.8618  20.8641  20.9242  20.9588  21.1607  21.1838
    21.2390  21.3029  21.4150  21.4595  21.5172  21.6091  21.7198  21.7423
    21.8293  21.8558  21.9187  21.9733  22.0367  22.0678  22.1721  22.1998
    22.3031  22.3317  22.4455  22.4992  22.5155  22.5844

          k = 0.0000 0.2435 0.0000 ( 30432 PWs)   bands (ev):

   -74.1061 -74.0945 -73.9975 -73.9434 -73.8765 -73.6633 -73.5242 -73.5121
   -44.2728 -44.2637 -44.2414 -44.1666 -44.1236 -44.1081 -44.0780 -44.0522
   -44.0294 -43.9969 -43.9389 -43.8857 -43.8275 -43.8161 -43.7500 -43.7395
   -43.7147 -43.6376 -43.6000 -43.5630 -43.4966 -43.4148 -43.3762 -43.2374
   -20.9832 -20.5160 -20.3897 -20.2724 -20.2107 -20.0878 -19.8755 -19.8048
   -19.7871 -19.7676 -19.7252 -19.4348 -19.4034 -19.3694 -19.3073 -19.1940
   -19.1552 -19.1006 -18.8326  -9.5396  -9.2320  -9.1809  -8.8310  -8.7207
    -8.6123  -8.5465  -8.5366  -7.9198  -7.8161  -7.8024  -7.7054  -7.6064
    -7.5725  -7.5251  -7.3894  -7.3046  -7.2353  -7.1665  -6.9441  -6.8244
    -6.6245  -6.5280  -6.3102  -6.1809  -6.1216  -6.0225  -5.8553  -5.5660
    -5.4975  -5.4646  -5.2917  -5.2211  -5.1537  -5.0685  -5.0431  -5.0194
    -4.9077  -4.8373  -4.7715  -4.7191  -4.4935  -4.4066  -4.3527  -4.2384
    -4.2197  -4.1806  -4.0343  -3.9134  -3.8642  -3.7407  -3.6639  -3.5267
    -3.4880  -3.2728  -3.0177  -2.8872  -2.8522  -2.7823  -2.7202  -2.6662
    -2.6218  -2.4945  -2.4278  -2.3960  -2.2915  -2.2294  -2.1153  -2.0857
    -1.9653  -1.9039  -1.4731  -1.3447  -1.3246  -0.6749  -0.5760  -0.3860
    -0.3574  -0.2579  -0.1464   0.1448   0.7518   1.5023   1.5338   1.6282
     1.8646   2.3740   2.7592   3.2417   3.3722   3.5206   3.6259   3.6495
     3.6580   3.6868   3.7784   3.8147   3.8195   4.2410   4.4859   4.9202
     5.3673   5.5792   5.9150   6.2387   6.3588   6.4853   6.7739   6.8346
     7.2026   7.2402   7.4320   7.5276   7.7927   8.0342   8.1314   8.1534
     8.2140   8.3152   8.3624   8.5113   8.6459   8.7480   8.8943   8.9840
     9.0386   9.2453   9.3001   9.3440   9.4342   9.5816   9.6755   9.7146
     9.8068   9.8948   9.9154   9.9492  10.0091  10.0911  10.1332  10.1532
    10.3001  10.3725  10.4481  10.5471  10.6060  10.7075  10.7952  11.0161
    11.1056  11.1768  11.2041  11.2740  11.3628  11.4191  11.5312  11.5489
    11.6073  11.7431  11.9450  12.0094  12.0762  12.1684  12.3377  12.4708
    12.5583  12.6262  12.7047  12.7291  12.7469  12.8066  12.9055  13.0718
    13.1475  13.2329  13.2798  13.3307  13.4170  13.5177  13.5919  13.7339
    13.7765  13.7937  13.8408  13.9629  14.0014  14.0688  14.1307  14.2130
    14.3093  14.3768  14.4222  14.5021  14.5437  14.6182  14.6847  14.7075
    14.8137  14.9105  14.9995  15.0869  15.1366  15.1948  15.3616  15.4114
    15.4608  15.5371  15.6073  15.7251  15.7781  15.8863  15.9524  16.0287
    16.0755  16.1647  16.2791  16.2957  16.4089  16.4557  16.5311  16.6048
    16.6601  16.7540  16.8320  16.8959  17.0061  17.0619  17.2229  17.3363
    17.3920  17.4406  17.4600  17.5924  17.6472  17.6695  17.8660  18.0588
    18.1568  18.2052  18.2259  18.3318  18.4179  18.5600  18.5955  18.6426
    18.7726  18.8141  18.8818  18.9139  18.9445  19.0010  19.0276  19.0720
    19.1602  19.2092  19.2632  19.3379  19.3701  19.4087  19.5268  19.5649
    19.6228  19.6883  19.7117  19.7958  19.8384  19.8837  19.9414  20.0017
    20.0318  20.1464  20.1555  20.2281  20.2927  20.3563  20.4184  20.4316
    20.4986  20.5516  20.5961  20.6128  20.7407  20.7666  20.8992  20.9622
    20.9686  21.0888  21.1205  21.1403  21.1963  21.2464  21.2867  21.2982
    21.3450  21.4342  21.5075  21.5825  21.6187  21.6702  21.6923  21.7211
    21.7555  21.8405  21.9875  22.0167  22.0849  22.1796

          k = 0.0000-0.4870 0.0000 ( 30448 PWs)   bands (ev):

   -74.1058 -74.0945 -73.9975 -73.9434 -73.8766 -73.6634 -73.5239 -73.5121
   -44.2727 -44.2637 -44.2414 -44.1666 -44.1216 -44.1092 -44.0779 -44.0521
   -44.0295 -43.9969 -43.9407 -43.8877 -43.8261 -43.8079 -43.7563 -43.7392
   -43.7139 -43.6387 -43.5999 -43.5629 -43.4966 -43.4150 -43.3759 -43.2375
   -20.9482 -20.4346 -20.2919 -20.2622 -20.1909 -20.1124 -19.8893 -19.8597
   -19.8517 -19.7748 -19.7195 -19.4503 -19.4162 -19.3289 -19.2807 -19.2615
   -19.2178 -19.1753 -18.8336  -9.5083  -9.0197  -8.8394  -8.7462  -8.7200
    -8.7052  -8.6233  -8.5465  -7.8637  -7.8199  -7.6832  -7.5125  -7.5055
    -7.4736  -7.4363  -7.2898  -7.2719  -7.1634  -7.1421  -6.8894  -6.8604
    -6.7678  -6.5576  -6.3036  -6.1903  -6.1083  -6.0797  -5.9497  -5.6769
    -5.6316  -5.5251  -5.4535  -5.3690  -5.3590  -5.3038  -5.2086  -5.1542
    -5.0745  -4.9718  -4.7788  -4.7339  -4.5334  -4.4877  -4.3408  -4.2697
    -4.2328  -4.0411  -3.9756  -3.9340  -3.8626  -3.7419  -3.7285  -3.4376
    -3.3375  -3.2745  -3.2101  -3.0885  -2.8944  -2.8535  -2.8108  -2.7658
    -2.5819  -2.5115  -2.4133  -2.2920  -2.2036  -2.1748  -2.0996  -1.8911
    -1.8842  -1.7284  -1.3584  -1.3510  -1.0521  -1.0108  -0.7215  -0.3274
    -0.2714  -0.2355  -0.0866   0.0874   0.8927   1.1744   1.2512   1.5265
     2.1622   2.5378   2.9027   3.3727   3.4528   3.4881   3.5653   3.5793
     3.7141   3.7762   4.0416   4.0645   4.2827   4.3261   4.7073   5.0604
     5.1814   5.2840   5.5926   5.7614   6.1096   6.3077   6.7955   6.9855
     7.0176   7.1005   7.2782   7.5365   7.6403   7.6555   7.9018   8.2094
     8.3759   8.4881   8.6119   8.7361   8.8614   8.9250   8.9871   9.0066
     9.0278   9.1661   9.2348   9.2968   9.3309   9.4100   9.5468   9.5753
     9.6379   9.6827   9.7112   9.8429   9.9389  10.0236  10.1610  10.1806
    10.2088  10.2225  10.4574  10.7148  10.7920  10.9417  10.9934  11.1232
    11.2362  11.3313  11.3642  11.4329  11.5946  11.6770  11.7230  11.7901
    11.8720  11.9477  12.0324  12.1050  12.1840  12.3573  12.4479  12.4752
    12.6293  12.6621  12.7485  12.8475  12.8818  12.9068  13.0297  13.2024
    13.2139  13.2880  13.3090  13.4123  13.4703  13.5607  13.5938  13.6319
    13.7255  13.7880  13.8869  13.9023  14.0506  14.1679  14.2219  14.3436
    14.4448  14.5045  14.5461  14.5959  14.7136  14.8003  14.8704  15.1070
    15.1384  15.2252  15.3118  15.4181  15.4969  15.5243  15.6134  15.6576
    15.7367  15.8310  15.8725  15.9089  16.0153  16.0812  16.2028  16.2369
    16.2399  16.2954  16.3626  16.3816  16.4416  16.4984  16.5073  16.5348
    16.5615  16.5952  16.6829  16.7082  16.8125  16.8976  16.9506  16.9788
    16.9998  17.0314  17.2746  17.3510  17.3905  17.4294  17.5191  17.6616
    17.7827  17.8445  17.8739  17.9508  18.0736  18.1308  18.1501  18.2461
    18.2761  18.3463  18.4374  18.4629  18.5149  18.5253  18.5945  18.6310
    18.6681  18.7763  18.8140  18.9493  18.9672  19.0044  19.0147  19.0478
    19.1085  19.3190  19.4085  19.5970  19.6505  19.7314  19.8232  19.9465
    19.9877  20.0477  20.2263  20.2764  20.3392  20.4014  20.4437  20.4779
    20.5076  20.5445  20.5566  20.5848  20.6123  20.6162  20.6796  20.6880
    20.7273  20.7369  20.8170  20.8378  20.9375  20.9797  20.9867  21.0861
    21.0948  21.2248  21.2496  21.2899  21.3125  21.4627  21.5045  21.5573
    21.6267  21.6354  21.6788  21.7138  21.7398  21.7904

          k = 0.2500 0.0000 0.0000 ( 30394 PWs)   bands (ev):

   -74.1041 -74.0956 -73.9967 -73.9423 -73.8759 -73.6626 -73.5225 -73.5126
   -44.2637 -44.2494 -44.2383 -44.1671 -44.1253 -44.1095 -44.1049 -44.0525
   -44.0247 -44.0021 -43.9369 -43.8660 -43.8175 -43.8107 -43.7516 -43.7414
   -43.7199 -43.6512 -43.6215 -43.5516 -43.5044 -43.4147 -43.3600 -43.2612
   -20.9229 -20.4735 -20.3941 -20.2992 -20.2012 -19.9982 -19.9057 -19.8289
   -19.7354 -19.7051 -19.6165 -19.4991 -19.4499 -19.4442 -19.3641 -19.2811
   -19.1133 -19.0387 -18.9103  -9.4121  -9.3505  -9.2179  -8.6336  -8.5114
    -8.4820  -8.3591  -8.0822  -8.0334  -7.9670  -7.9244  -7.8762  -7.7837
    -7.7073  -7.6376  -7.5140  -7.4348  -7.3105  -7.0721  -7.0308  -6.9259
    -6.8286  -6.6125  -6.5020  -6.2241  -6.0400  -5.8815  -5.7592  -5.7166
    -5.5684  -5.4422  -5.4023  -5.2950  -5.2383  -5.2121  -5.1524  -4.9879
    -4.8572  -4.8095  -4.7164  -4.5970  -4.5078  -4.4280  -4.3635  -4.2814
    -4.2021  -4.0487  -3.9660  -3.9357  -3.8466  -3.7908  -3.6955  -3.5737
    -3.3573  -3.2908  -3.1267  -3.0550  -2.9082  -2.7961  -2.6812  -2.6428
    -2.6112  -2.3917  -2.2784  -2.1955  -2.0869  -2.0138  -1.9374  -1.8472
    -1.6354  -1.3999  -1.3250  -1.1309  -1.0856  -1.0673  -0.7966  -0.7571
    -0.4684  -0.3895  -0.2420   0.2266   0.7057   1.6587   1.7323   2.2303
     2.4340   2.5353   2.5769   2.5965   2.8027   2.9495   3.2427   3.4425
     3.5695   3.5761   3.6433   3.7157   3.8937   4.3799   4.5187   4.9599
     5.4244   5.6070   5.9924   6.2558   6.4407   6.5624   6.6401   6.8682
     7.2474   7.4148   7.5629   7.6286   7.7249   7.7817   8.0071   8.1243
     8.2043   8.3398   8.4961   8.5305   8.6395   8.7397   8.8698   8.9316
     9.0665   9.1911   9.2998   9.3992   9.4451   9.5562   9.5777   9.6617
     9.7111   9.8213   9.9224   9.9934  10.0843  10.1626  10.1875  10.2571
    10.3308  10.4100  10.5275  10.5684  10.6618  10.7540  10.9660  11.0255
    11.0876  11.2458  11.2704  11.3356  11.4277  11.4725  11.5925  11.6517
    11.7041  11.7587  11.9364  11.9839  12.0433  12.1555  12.2680  12.3466
    12.4620  12.5350  12.6094  12.6514  12.7425  12.8321  12.9272  12.9647
    13.1269  13.1712  13.1952  13.3137  13.3442  13.5017  13.7023  13.7563
    13.8394  13.8695  13.8972  13.9566  14.0545  14.1662  14.2155  14.2379
    14.3077  14.3539  14.4125  14.4342  14.5417  14.5629  14.6408  14.7258
    14.8271  14.9670  15.0967  15.1367  15.1790  15.2777  15.4493  15.5358
    15.6262  15.6860  15.7924  15.8236  15.8747  15.9797  16.0275  16.0495
    16.0921  16.1452  16.2307  16.2738  16.3662  16.4528  16.5137  16.6145
    16.7242  16.7543  16.8201  16.9204  16.9779  17.0252  17.2088  17.2896
    17.3490  17.3766  17.4545  17.5220  17.5888  17.6690  17.7766  17.8011
    17.8740  17.9986  18.1388  18.1834  18.3208  18.3480  18.4333  18.5612
    18.6343  18.7040  18.8605  18.9883  19.0609  19.0929  19.1269  19.2112
    19.2666  19.3276  19.3691  19.4057  19.4247  19.4869  19.5433  19.5810
    19.6087  19.6722  19.7310  19.7590  19.7955  19.8184  19.8940  19.9709
    20.0406  20.0981  20.1713  20.2139  20.2437  20.2884  20.3395  20.5348
    20.5484  20.6208  20.6656  20.6731  20.7454  20.7970  20.8544  20.8741
    20.9136  20.9565  20.9898  21.0557  21.1609  21.1813  21.2280  21.2945
    21.3451  21.3691  21.4044  21.4978  21.5816  21.6396  21.6482  21.6932
    21.7644  21.7911  21.8888  21.9066  22.0146  22.0775

          k = 0.2500 0.2435 0.0000 ( 30434 PWs)   bands (ev):

   -74.1039 -74.0956 -73.9968 -73.9424 -73.8760 -73.6627 -73.5223 -73.5126
   -44.2638 -44.2494 -44.2383 -44.1671 -44.1238 -44.1100 -44.1049 -44.0524
   -44.0248 -44.0021 -43.9387 -43.8663 -43.8143 -43.8097 -43.7542 -43.7418
   -43.7176 -43.6535 -43.6214 -43.5516 -43.5044 -43.4150 -43.3597 -43.2612
   -20.8944 -20.4046 -20.3415 -20.2797 -20.1898 -19.9975 -19.8851 -19.8328
   -19.7684 -19.7224 -19.6832 -19.4605 -19.4341 -19.4038 -19.3563 -19.2937
   -19.2302 -19.1802 -18.9099  -9.3171  -8.9978  -8.9395  -8.7173  -8.5215
    -8.4889  -8.4415  -8.3359  -8.0103  -7.8662  -7.8026  -7.7436  -7.6493
    -7.6047  -7.5748  -7.5139  -7.3880  -7.2758  -7.0933  -7.0155  -6.8013
    -6.6002  -6.5015  -6.3745  -6.2377  -6.0895  -6.0213  -5.9344  -5.8031
    -5.7299  -5.6018  -5.5244  -5.4521  -5.3697  -5.2807  -5.1954  -5.1448
    -5.0510  -5.0194  -4.8826  -4.8197  -4.7001  -4.6001  -4.4123  -4.3450
    -4.2497  -4.2054  -4.1095  -3.9681  -3.8111  -3.7762  -3.6606  -3.5362
    -3.2832  -3.2325  -3.1646  -2.9979  -2.6902  -2.4930  -2.4885  -2.4235
    -2.3910  -2.2847  -2.2332  -2.1871  -2.1405  -1.9926  -1.9289  -1.8638
    -1.7806  -1.7243  -1.4245  -1.2304  -1.0830  -0.7683  -0.6376  -0.5725
    -0.4630  -0.4065  -0.2862   0.0341   0.8520   1.6071   1.7898   1.8025
     1.9796   2.3998   2.6956   2.9323   3.1810   3.2119   3.3594   3.4186
     3.4545   3.5649   3.7565   3.9396   4.0661   4.3421   4.7352   5.1572
     5.5974   5.7702   5.8236   6.0686   6.3473   6.5275   6.6264   6.6729
     6.8102   7.0076   7.0743   7.3157   7.5196   7.7137   7.8114   7.9565
     8.0698   8.2769   8.3937   8.4436   8.5056   8.6010   8.7884   8.8077
     8.9236   9.0633   9.1827   9.3435   9.4563   9.5461   9.6300   9.7840
     9.9199  10.0511  10.1277  10.1529  10.2306  10.3778  10.4226  10.4465
    10.5108  10.6279  10.7376  10.9050  10.9246  10.9854  11.1183  11.2583
    11.3152  11.4196  11.5257  11.6023  11.6389  11.7799  11.8330  11.8806
    11.9597  12.0228  12.1146  12.1917  12.2135  12.3349  12.4083  12.5051
    12.5538  12.6405  12.6875  12.7335  12.7782  12.8390  12.9291  12.9544
    13.0603  13.1466  13.2014  13.3165  13.4593  13.5133  13.5607  13.6352
    13.7281  13.9092  13.9394  14.0338  14.1067  14.1727  14.2780  14.3645
    14.4050  14.5238  14.5563  14.5813  14.6105  14.7605  14.8320  14.9203
    14.9658  15.0911  15.1578  15.2435  15.3087  15.3536  15.4946  15.5696
    15.6357  15.6859  15.7507  15.8363  15.8625  15.9098  15.9480  16.0342
    16.1547  16.1850  16.1979  16.3088  16.3460  16.3630  16.4463  16.5849
    16.6066  16.7048  16.7560  16.8134  16.8954  16.9338  17.0011  17.0864
    17.1668  17.2272  17.2770  17.3501  17.4147  17.4856  17.5018  17.5480
    17.6080  17.6830  17.7387  17.8301  17.8795  17.9531  18.0232  18.0533
    18.0939  18.1908  18.2268  18.3080  18.3445  18.4616  18.5376  18.5634
    18.7044  18.7857  18.8466  18.8853  18.9587  19.0510  19.0942  19.1565
    19.2245  19.3137  19.3946  19.4559  19.4672  19.6263  19.6721  19.7479
    19.8273  19.8908  19.9587  20.0255  20.0431  20.1636  20.2101  20.3704
    20.4536  20.5552  20.6552  20.7022  20.7688  20.8107  20.8822  20.9526
    20.9801  21.0656  21.1288  21.2025  21.2691  21.2891  21.3430  21.4026
    21.4669  21.4885  21.5648  21.6468  21.6692  21.7289  21.7780  21.8819
    21.9461  21.9825  22.0082  22.0736  22.1384  22.1963

          k = 0.2500-0.4870 0.0000 ( 30468 PWs)   bands (ev):

   -74.1037 -74.0956 -73.9968 -73.9425 -73.8761 -73.6628 -73.5221 -73.5126
   -44.2638 -44.2493 -44.2383 -44.1671 -44.1226 -44.1106 -44.1043 -44.0523
   -44.0248 -44.0021 -43.9404 -43.8687 -43.8087 -43.8063 -43.7560 -43.7419
   -43.7208 -43.6540 -43.6212 -43.5515 -43.5044 -43.4153 -43.3595 -43.2612
   -20.8680 -20.3327 -20.2966 -20.2556 -20.1371 -19.9943 -19.8586 -19.8375
   -19.7786 -19.7681 -19.6889 -19.4842 -19.4204 -19.4037 -19.3870 -19.3311
   -19.3228 -19.2767 -18.9107  -9.2942  -8.8202  -8.5706  -8.5309  -8.5069
    -8.4915  -8.4856  -8.4128  -7.9941  -7.7623  -7.6938  -7.6220  -7.5289
    -7.5057  -7.4204  -7.3770  -7.2903  -7.2299  -7.1209  -6.8973  -6.8323
    -6.7327  -6.5739  -6.3725  -6.2929  -6.2751  -6.0249  -6.0132  -5.9857
    -5.8816  -5.7762  -5.7076  -5.6794  -5.5849  -5.3911  -5.3393  -5.2838
    -5.2015  -5.1530  -5.0922  -4.9254  -4.7302  -4.6809  -4.5923  -4.3211
    -4.2591  -4.0310  -3.9309  -3.8981  -3.7937  -3.7204  -3.5906  -3.4106
    -3.3669  -3.2212  -3.1683  -2.8563  -2.7671  -2.6686  -2.5865  -2.4281
    -2.3792  -2.3256  -2.2271  -2.1945  -2.0376  -2.0320  -1.8774  -1.8138
    -1.5034  -1.4803  -1.2671  -1.1698  -1.0455  -0.9555  -0.7486  -0.4997
    -0.3788  -0.3412  -0.2754  -0.0724   0.9771   1.3070   1.4118   1.7538
     2.1957   2.5408   2.7741   2.8824   3.0066   3.1747   3.3263   3.5242
     3.6587   3.7244   3.9499   3.9752   4.4875   4.5523   4.9625   5.3056
     5.4222   5.5364   5.8296   6.0190   6.0797   6.3399   6.5731   6.6907
     6.7052   7.0864   7.1443   7.3125   7.3609   7.4205   7.4691   7.6199
     7.7195   7.9052   8.1518   8.2364   8.4405   8.5187   8.5548   8.7305
     8.9477   8.9865   9.1219   9.2414   9.3050   9.4387   9.6958   9.8500
     9.9709  10.0800  10.2001  10.3208  10.3792  10.4612  10.5121  10.6863
    10.8330  11.0587  11.1272  11.2082  11.3651  11.4029  11.4740  11.5218
    11.5974  11.6583  11.6834  11.7684  11.8971  11.9329  11.9530  12.0422
    12.1796  12.2557  12.2871  12.3660  12.4664  12.5429  12.6056  12.6986
    12.7566  12.8042  12.8471  12.9658  13.0055  13.0456  13.1195  13.1868
    13.3331  13.3653  13.3850  13.4715  13.5638  13.6032  13.6611  13.7264
    13.7537  13.8359  13.9051  13.9567  14.0355  14.2106  14.2565  14.3293
    14.4007  14.4631  14.5655  14.6054  14.6198  14.6733  14.7696  14.8119
    14.8842  14.9258  14.9602  15.0533  15.1701  15.2085  15.2370  15.2977
    15.3645  15.4513  15.5161  15.5422  15.6743  15.7945  15.8907  15.9392
    16.0336  16.1662  16.2198  16.2740  16.3034  16.3398  16.4027  16.4443
    16.5041  16.5652  16.6443  16.6778  16.7234  16.7837  16.8501  16.9158
    16.9943  17.0438  17.0880  17.2082  17.2588  17.3210  17.3838  17.4389
    17.4987  17.5284  17.6067  17.6482  17.7054  17.7942  17.8964  18.0019
    18.1713  18.2288  18.3122  18.3587  18.3905  18.4152  18.4752  18.5099
    18.5449  18.5702  18.6581  18.7748  18.8178  18.8808  18.8937  18.9306
    18.9818  19.0454  19.1409  19.2262  19.2546  19.3401  19.3959  19.4648
    19.6340  19.6942  19.7493  19.7890  19.8103  19.9020  19.9321  19.9964
    20.0484  20.0579  20.1502  20.3048  20.3295  20.4342  20.5490  20.6484
    20.7302  20.8077  20.8424  20.9394  21.0030  21.0671  21.0887  21.1243
    21.1592  21.2669  21.3705  21.4572  21.6007  21.6712  21.7581  21.8902
    21.9841  22.0153  22.0923  22.1232  22.1607  22.2373

          k =-0.5000 0.0000 0.0000 ( 30480 PWs)   bands (ev):

   -74.1002 -74.0985 -73.9960 -73.9414 -73.8753 -73.6620 -73.5202 -73.5136
   -44.2638 -44.2426 -44.1843 -44.1785 -44.1621 -44.1169 -44.1134 -44.0527
   -44.0155 -44.0118 -43.9367 -43.8458 -43.8041 -43.7873 -43.7617 -43.7501
   -43.7260 -43.6641 -43.6484 -43.5312 -43.5211 -43.4149 -43.3195 -43.3093
   -20.7777 -20.4709 -20.2619 -20.2477 -20.1001 -20.0340 -19.9756 -19.8872
   -19.7680 -19.7160 -19.6344 -19.4810 -19.4642 -19.3303 -19.2938 -19.2798
   -19.2529 -19.2362 -19.0178  -8.8825  -8.7642  -8.7418  -8.6988  -8.6443
    -8.6283  -8.3418  -8.3149  -8.2232  -8.1668  -7.9683  -7.9287  -7.8654
    -7.6840  -7.6138  -7.5661  -7.5042  -7.2375  -6.9552  -6.8499  -6.6175
    -6.5623  -6.4997  -6.3773  -6.2374  -6.1607  -6.1155  -6.0594  -5.8905
    -5.8276  -5.8149  -5.6399  -5.5352  -5.4265  -5.1822  -5.1526  -5.0979
    -5.0771  -5.0590  -4.9807  -4.8237  -4.5461  -4.4758  -4.4162  -4.3659
    -4.2049  -4.1240  -4.0639  -3.9687  -3.7811  -3.7161  -3.4961  -3.4371
    -3.4240  -3.3100  -3.2467  -3.1101  -2.7126  -2.6328  -2.5251  -2.5153
    -2.4772  -2.2770  -2.2030  -2.0555  -1.7263  -1.6863  -1.5915  -1.5349
    -1.4717  -1.4166  -1.2850  -1.0950  -1.0708  -1.0255  -0.9942  -0.9625
    -0.5536  -0.5333  -0.1398  -0.1140   0.8305   1.9485   2.2087   2.2426
     2.3470   2.4439   2.5698   2.7195   2.8782   2.9242   2.9939   2.9956
     3.0328   3.5025   3.6956   3.8140   4.4758   4.5657   4.5999   5.1227
     5.2355   5.3383   5.6540   5.8016   6.1701   6.2914   6.8006   6.9285
     7.1674   7.2862   7.4188   7.4896   7.8072   7.9062   8.1171   8.2322
     8.2887   8.4210   8.4745   8.5909   8.7880   8.8184   8.8501   8.8644
     8.9318   8.9814   9.2276   9.2939   9.3778   9.4089   9.4957   9.5750
     9.6374   9.6994   9.9808  10.0654  10.1520  10.1821  10.2428  10.3412
    10.3892  10.4279  10.5383  10.5666  10.7305  10.7772  10.8598  10.9047
    11.1164  11.1804  11.2548  11.3459  11.7108  11.7143  11.8270  11.9748
    12.0723  12.1081  12.1576  12.2535  12.3464  12.4807  12.6157  12.6388
    12.6649  12.7108  12.7714  12.8038  12.8216  12.8430  13.0085  13.0943
    13.1691  13.2204  13.3478  13.3569  13.5657  13.5781  13.6780  13.7357
    13.7781  13.9607  14.0350  14.0428  14.0975  14.2176  14.4092  14.5464
    14.5908  14.6146  14.6923  14.7229  14.7665  14.8180  14.9108  14.9396
    15.0131  15.0608  15.1659  15.2825  15.3381  15.3771  15.4221  15.4531
    15.5500  15.6272  15.7688  15.9946  16.0216  16.0665  16.1204  16.3493
    16.3576  16.3669  16.4648  16.4984  16.5318  16.5468  16.5784  16.6479
    16.6645  16.7084  16.7897  16.7944  16.8200  16.8623  16.8904  16.9265
    16.9345  16.9676  17.0366  17.1715  17.2617  17.3222  17.4161  17.5915
    17.6372  17.6940  17.7513  17.8317  17.9356  18.0097  18.0782  18.1191
    18.1936  18.3134  18.4389  18.5432  18.5963  18.6359  18.6916  18.7053
    18.8047  18.8767  18.9851  19.0879  19.1480  19.2813  19.3506  19.4079
    19.4470  19.4621  19.5314  19.6115  19.6786  19.6961  19.7679  19.7904
    19.8304  19.8594  19.9113  19.9603  20.0067  20.0591  20.0953  20.2265
    20.2866  20.3231  20.3736  20.4073  20.4236  20.4506  20.5484  20.5589
    20.6000  20.6643  20.7510  20.8233  20.8293  20.8911  20.9848  21.1592
    21.1899  21.2383  21.3430  21.3698  21.4512  21.4819  21.5346  21.5514
    21.5710  21.6267  21.6537  21.6756  21.7142  21.8134

          k =-0.5000 0.2435 0.0000 ( 30444 PWs)   bands (ev):

   -74.1001 -74.0983 -73.9961 -73.9415 -73.8754 -73.6621 -73.5201 -73.5135
   -44.2638 -44.2426 -44.1843 -44.1784 -44.1621 -44.1156 -44.1134 -44.0525
   -44.0155 -44.0118 -43.9384 -43.8446 -43.8031 -43.7867 -43.7644 -43.7432
   -43.7305 -43.6661 -43.6480 -43.5312 -43.5211 -43.4153 -43.3193 -43.3091
   -20.7655 -20.4480 -20.2484 -20.1822 -20.0509 -20.0027 -19.9039 -19.8694
   -19.7407 -19.6958 -19.6367 -19.5058 -19.4743 -19.4120 -19.3828 -19.3576
   -19.3441 -19.2809 -19.0164  -8.8775  -8.7527  -8.4249  -8.3962  -8.3633
    -8.3557  -8.3243  -8.2756  -8.2018  -8.1094  -7.9798  -7.9153  -7.8430
    -7.7163  -7.6830  -7.5700  -7.3916  -7.1658  -6.8627  -6.7654  -6.6682
    -6.5577  -6.5178  -6.4977  -6.4446  -6.3779  -6.3197  -6.2148  -6.1404
    -5.8684  -5.7907  -5.5948  -5.5054  -5.4925  -5.4236  -5.2790  -5.2199
    -5.0203  -4.9752  -4.9482  -4.9168  -4.8842  -4.7825  -4.5351  -4.4674
    -4.4054  -4.3555  -4.0887  -4.0012  -3.8160  -3.7506  -3.5292  -3.4469
    -3.3431  -3.2346  -3.1846  -3.0586  -2.5794  -2.4270  -2.3035  -2.2574
    -2.1776  -2.0353  -2.0233  -2.0097  -1.9415  -1.8110  -1.7569  -1.6834
    -1.4066  -1.3179  -1.2914  -1.1188  -1.0936  -0.9083  -0.8297  -0.7438
    -0.6464  -0.5793  -0.2598  -0.1974   0.9475   2.0668   2.1219   2.1805
     2.2602   2.3178   2.3792   2.4947   2.5422   2.8891   3.0134   3.3070
     3.3906   3.4824   3.8288   3.9708   4.6051   4.7460   4.7809   5.3402
     5.4550   5.5493   5.8443   5.9940   6.2630   6.3423   6.5016   6.6190
     6.7470   7.0390   7.1972   7.2693   7.3351   7.3960   7.5163   7.6688
     7.7409   7.8201   8.1827   8.2689   8.4409   8.5416   8.6434   8.8065
     8.9913   9.0947   9.1773   9.2312   9.3495   9.4433   9.6337   9.8765
    10.1120  10.2320  10.2948  10.3185  10.4175  10.4745  10.5921  10.6622
    10.7880  10.8331  10.9741  11.0144  11.1155  11.2650  11.3187  11.3711
    11.4518  11.4915  11.6287  11.7303  11.9574  12.0293  12.1212  12.2021
    12.2756  12.3131  12.3583  12.4685  12.5082  12.5608  12.6263  12.6838
    12.7508  12.8514  12.9327  12.9941  13.0611  13.1081  13.1978  13.2624
    13.3239  13.3848  13.4308  13.4668  13.6085  13.6874  13.7845  13.8485
    13.9715  14.0152  14.0791  14.1279  14.2274  14.2610  14.3739  14.4137
    14.4915  14.6132  14.6488  14.6833  14.7480  14.7866  14.8372  14.9148
    14.9429  14.9881  15.0197  15.0493  15.1834  15.2127  15.2557  15.3076
    15.3604  15.4278  15.5333  15.5995  15.6339  15.7053  15.7512  15.7904
    15.8373  15.8847  15.9270  15.9873  16.0687  16.1626  16.2669  16.3754
    16.4349  16.4596  16.5340  16.6008  16.6527  16.6921  16.7519  16.7810
    16.7972  16.8682  17.0088  17.1223  17.1892  17.2767  17.2856  17.3454
    17.4336  17.4934  17.5408  17.6000  17.6953  17.8322  17.8828  17.9746
    18.0436  18.1241  18.2167  18.2312  18.3517  18.4033  18.4177  18.5304
    18.5782  18.6938  18.7987  18.8435  18.8668  18.9124  18.9562  18.9818
    19.0539  19.1102  19.1323  19.2497  19.3203  19.4427  19.5247  19.5637
    19.6028  19.6709  19.7090  19.7980  19.8875  19.9467  20.0207  20.0909
    20.1439  20.2000  20.2870  20.3568  20.4059  20.5174  20.6735  20.6972
    20.7569  20.8091  20.8568  20.9034  21.0151  21.0443  21.1758  21.2447
    21.3568  21.3862  21.5510  21.6065  21.6798  21.7586  21.8274  21.8898
    21.9455  22.0080  22.0729  22.1651  22.2343  22.2660

          k =-0.5000-0.4870 0.0000 ( 30440 PWs)   bands (ev):

   -74.1000 -74.0982 -73.9962 -73.9416 -73.8755 -73.6621 -73.5200 -73.5133
   -44.2638 -44.2427 -44.1843 -44.1783 -44.1621 -44.1148 -44.1130 -44.0525
   -44.0156 -44.0119 -43.9402 -43.8432 -43.8035 -43.7861 -43.7599 -43.7461
   -43.7309 -43.6682 -43.6476 -43.5312 -43.5211 -43.4156 -43.3191 -43.3089
   -20.7536 -20.4270 -20.2360 -20.0560 -20.0452 -19.9953 -19.7846 -19.7159
   -19.6967 -19.6737 -19.6214 -19.5851 -19.5801 -19.5506 -19.5173 -19.4417
   -19.4182 -19.2907 -19.0157  -8.8700  -8.7487  -8.3463  -8.3304  -8.2981
    -8.2230  -8.1059  -8.0252  -7.9437  -7.8192  -7.7365  -7.6741  -7.6153
    -7.4773  -7.4706  -7.4424  -7.3936  -7.2793  -7.1613  -7.1430  -7.0744
    -6.9496  -6.6913  -6.6076  -6.5247  -6.3900  -6.3012  -6.2506  -6.0670
    -5.9293  -5.8682  -5.7007  -5.6372  -5.5178  -5.4750  -5.4614  -5.4383
    -5.3853  -5.3525  -5.2444  -5.1962  -4.8464  -4.7689  -4.5313  -4.3157
    -4.2104  -4.1415  -4.0850  -3.9935  -3.9460  -3.8385  -3.5167  -3.4721
    -3.3388  -3.0029  -2.9485  -2.9095  -2.5547  -2.4880  -2.4539  -2.3536
    -2.2693  -2.1125  -2.0330  -1.9380  -1.8507  -1.6669  -1.6128  -1.5295
    -1.3370  -1.2572  -1.1743  -1.1596  -0.9422  -0.8093  -0.7376  -0.6892
    -0.6205  -0.5143  -0.4013  -0.3457   1.0500   1.8232   1.9004   1.9678
     1.9708   2.2932   2.4012   2.4231   2.5158   3.1370   3.1676   3.2106
     3.6520   3.8180   3.8325   3.8519   4.7645   5.1387   5.1915   5.6473
     5.6613   5.9192   5.9314   6.0597   6.1296   6.1836   6.2264   6.3066
     6.5225   6.6338   6.7139   6.8013   7.0259   7.1496   7.2937   7.4081
     7.6835   7.8593   8.0208   8.1398   8.1897   8.2817   8.3324   8.4381
     8.8615   8.9296   9.1365   9.2340   9.2915   9.4789   9.6812   9.7379
     9.9176   9.9957  10.3737  10.5951  10.6814  10.6905  10.9220  11.0044
    11.0436  11.1053  11.1547  11.5340  11.7347  11.8988  11.9804  12.0009
    12.0555  12.0990  12.1904  12.2460  12.4167  12.4763  12.4911  12.5779
    12.6524  12.7014  12.8258  12.9280  13.0246  13.0894  13.2255  13.2627
    13.2785  13.2821  13.3428  13.3710  13.4050  13.4786  13.4954  13.5139
    13.5639  13.5810  13.6226  13.6881  13.7132  13.7497  13.7535  13.7997
    13.8157  13.8535  13.8751  13.8924  13.9683  14.0466  14.1482  14.1604
    14.2089  14.2195  14.2528  14.2976  14.3835  14.4125  14.4453  14.4855
    14.5761  14.5802  14.6125  14.6680  14.7526  14.8837  14.9635  14.9955
    15.0263  15.1277  15.2023  15.2548  15.2649  15.3906  15.4261  15.4822
    15.5023  15.5353  15.5842  15.6144  15.7692  15.8564  15.9010  15.9693
    16.0362  16.0913  16.1969  16.3151  16.3879  16.4679  16.5254  16.5887
    16.7412  16.7976  16.8201  16.8655  16.8755  17.0557  17.1468  17.1598
    17.2061  17.2780  17.3488  17.3661  17.3991  17.4609  17.4958  17.6560
    17.6745  17.7800  17.8733  17.9538  18.0743  18.2397  18.3926  18.4725
    18.5267  18.5831  18.5907  18.7539  18.8138  18.8674  18.9070  18.9259
    19.0414  19.2572  19.3841  19.4279  19.4932  19.5299  19.5568  19.7105
    19.7649  19.8543  20.0518  20.2600  20.3384  20.4034  20.4829  20.5383
    20.6274  20.7253  20.7632  20.8065  20.9240  20.9502  20.9698  21.0481
    21.0619  21.0733  21.2015  21.2457  21.2704  21.2811  21.3235  21.3545
    21.4014  21.4825  21.5343  21.5739  21.5909  21.6131  21.6556  21.7282
    21.7412  21.7696  21.8450  21.9539  22.0083  22.1385

          k =-0.2500 0.2435 0.0000 ( 30434 PWs)   bands (ev):

   -74.1039 -74.0956 -73.9968 -73.9424 -73.8760 -73.6627 -73.5223 -73.5126
   -44.2638 -44.2494 -44.2383 -44.1671 -44.1241 -44.1101 -44.1045 -44.0524
   -44.0248 -44.0021 -43.9387 -43.8684 -43.8106 -43.8097 -43.7521 -43.7405
   -43.7244 -43.6517 -43.6214 -43.5516 -43.5044 -43.4150 -43.3598 -43.2612
   -20.8945 -20.4050 -20.3405 -20.2793 -20.1902 -19.9966 -19.8846 -19.8316
   -19.7683 -19.7226 -19.6900 -19.4603 -19.4334 -19.3993 -19.3562 -19.2942
   -19.2300 -19.1813 -18.9099  -9.3158  -8.9982  -8.9397  -8.7233  -8.5340
    -8.4888  -8.4245  -8.3156  -8.0194  -7.8831  -7.8088  -7.7644  -7.6633
    -7.6039  -7.5457  -7.4966  -7.4176  -7.3172  -7.0470  -6.9280  -6.8175
    -6.5804  -6.5590  -6.3862  -6.1927  -6.1244  -6.0572  -5.8975  -5.7631
    -5.6862  -5.6356  -5.5544  -5.5066  -5.3660  -5.2312  -5.2053  -5.1501
    -5.0808  -5.0114  -4.8831  -4.8685  -4.6883  -4.5431  -4.4433  -4.3220
    -4.2340  -4.1736  -4.1277  -3.9721  -3.8995  -3.7517  -3.6458  -3.5490
    -3.2770  -3.2378  -3.1399  -2.9250  -2.7098  -2.5361  -2.4855  -2.4418
    -2.4113  -2.2835  -2.2210  -2.1544  -2.1263  -2.0424  -1.9330  -1.8951
    -1.7469  -1.6893  -1.4014  -1.2579  -1.0819  -0.7635  -0.6541  -0.5861
    -0.4566  -0.4208  -0.2518   0.0264   0.8518   1.6114   1.7748   1.8134
     1.9789   2.4040   2.6978   2.9307   3.1731   3.2219   3.3589   3.4170
     3.4616   3.5665   3.7373   3.9406   4.0665   4.3445   4.7344   5.1594
     5.6090   5.7851   5.8317   6.0616   6.3587   6.5127   6.6279   6.6809
     6.8039   6.9974   7.0480   7.2815   7.5288   7.7071   7.8410   7.9414
     8.0725   8.2923   8.3746   8.4668   8.5334   8.5947   8.7347   8.7893
     8.9391   9.1108   9.2006   9.3295   9.4182   9.5228   9.6588   9.8510
     9.9232  10.0226  10.1250  10.1525  10.1982  10.3658  10.3847  10.4491
    10.5611  10.6489  10.7435  10.8717  10.8976  10.9729  11.1018  11.2881
    11.3557  11.4206  11.5480  11.5873  11.6437  11.7747  11.8357  11.8552
    11.9496  12.0355  12.1139  12.1686  12.2552  12.3742  12.4154  12.5149
    12.5198  12.6288  12.7199  12.7412  12.7822  12.8591  12.9277  13.0079
    13.0821  13.1563  13.2034  13.3285  13.3906  13.5160  13.5879  13.6437
    13.7286  13.8242  13.9352  14.0229  14.1068  14.1999  14.2329  14.3143
    14.3805  14.5242  14.5791  14.6109  14.6632  14.7468  14.8583  14.9086
    14.9417  15.0923  15.1233  15.2052  15.2950  15.3777  15.5394  15.5559
    15.6336  15.7092  15.7829  15.8334  15.8591  15.8872  15.9543  16.0385
    16.0726  16.1496  16.2081  16.2904  16.3112  16.3553  16.4635  16.5301
    16.6258  16.7157  16.7716  16.8164  16.8807  16.8984  16.9737  17.0566
    17.1681  17.2169  17.2977  17.3611  17.4675  17.4924  17.5152  17.5522
    17.6179  17.6739  17.7457  17.8052  17.8684  17.9285  17.9987  18.0637
    18.1275  18.1964  18.2203  18.3135  18.3483  18.4464  18.5700  18.6118
    18.6919  18.7965  18.8465  18.8953  18.9727  19.0442  19.1201  19.1951
    19.2150  19.3123  19.4167  19.4675  19.5044  19.6148  19.6986  19.7495
    19.7962  19.8637  19.9532  19.9929  20.1056  20.2422  20.2854  20.3741
    20.4148  20.5307  20.6463  20.7085  20.7531  20.8200  20.8785  20.9582
    20.9728  21.0552  21.1222  21.1906  21.2510  21.3322  21.3485  21.4120
    21.4628  21.4833  21.5500  21.5982  21.6442  21.7370  21.8240  21.8783
    21.9615  21.9763  22.0056  22.0531  22.1469  22.2460

     the Fermi energy is    -1.2210 ev

!    total energy              =   -2162.33899819 Ry
     Harris-Foulkes estimate   =   -2162.33899867 Ry
     estimated scf accuracy    <       0.00000072 Ry

     The total energy is the sum of the following terms:

     one-electron contribution =  -25193.12568081 Ry
     hartree contribution      =   12621.07908233 Ry
     xc contribution           =    -338.57954067 Ry
     ewald contribution        =   10745.97550717 Ry
     Hubbard energy            =       2.31071247 Ry
     smearing contrib. (-TS)   =       0.00092132 Ry

     convergence has been achieved in  47 iterations

     Forces acting on atoms (Ry/au):


     negative rho (up, down):  0.575E+00 0.000E+00
     atom    1 type  1   force =    -0.00652214   -0.00980356    0.01225779
     atom    2 type  1   force =     0.00047299    0.01095335   -0.00643210
     atom    3 type  2   force =     0.02554967    0.00057854   -0.01672852
     atom    4 type  2   force =     0.00285119    0.00592862    0.00397767
     atom    5 type  1   force =     0.00070853   -0.03795811    0.00145986
     atom    6 type  1   force =     0.00397389    0.03953033    0.00091763
     atom    7 type  1   force =     0.00205444   -0.00306398    0.03709821
     atom    8 type  1   force =     0.00053873   -0.00228846   -0.01580530
     atom    9 type  2   force =    -0.01827535    0.00186755    0.00297401
     atom   10 type  2   force =    -0.00740655   -0.00102754   -0.00924795
     atom   11 type  1   force =    -0.01007215    0.01492354   -0.00478803
     atom   12 type  1   force =    -0.01164337   -0.01555349   -0.00429266
     atom   13 type  1   force =    -0.00070893   -0.00011039   -0.00028432
     atom   14 type  1   force =    -0.00526791   -0.00837991    0.01142506
     atom   15 type  1   force =     0.00001916    0.00865921    0.00964475
     atom   16 type  2   force =    -0.02691970    0.00339053   -0.01739278
     atom   17 type  2   force =     0.00260858    0.00533776    0.00311569
     atom   18 type  1   force =    -0.00173622   -0.03935053    0.00190059
     atom   19 type  1   force =     0.00342684    0.03780855    0.00104159
     atom   20 type  1   force =    -0.00127516   -0.00236241    0.01814578
     atom   21 type  1   force =    -0.00043143   -0.00052410   -0.01332837
     atom   22 type  2   force =     0.01835330    0.00164218    0.00101473
     atom   23 type  2   force =     0.00351600    0.00027433    0.00527882
     atom   24 type  1   force =     0.01216594    0.01663973   -0.00494681
     atom   25 type  1   force =     0.01334886   -0.01685544   -0.00500529
     atom   26 type  1   force =    -0.00152944   -0.00106570   -0.00070822
     atom   27 type  3   force =    -0.00014423   -0.00531689    0.00108054
     atom   28 type  3   force =    -0.00004844   -0.00403289   -0.00016962
     atom   29 type  3   force =     0.00114991    0.00032388   -0.00056837
     atom   30 type  3   force =     0.00103088   -0.00021388   -0.00070864
     atom   31 type  1   force =     0.00006138    0.00036590   -0.01069793
     atom   32 type  3   force =     0.00015074   -0.00031671   -0.00022779

     Total force =     0.059517     Total SCF correction =     0.002055

     BFGS Geometry Optimization

     number of scf cycles    =   1
     number of bfgs steps    =   0

     energy   new            =   -2162.3389981918 Ry

     new trust radius        =       0.0370982101 bohr
     new conv_thr            =       0.0000010000 Ry


ATOMIC_POSITIONS (crystal)
O0       0.000000000   0.000000000   0.379165643    0   0   1
O0       0.000000000   0.500000000   0.402981102    0   0   1
Ru1      0.250000000   0.500000000   0.453384765    0   0   1
Ru1      0.000000000   0.000000000   0.453119711    0   0   1
O0       0.250000000   0.810000000   0.453009255    0   0   1
O0       0.250000000   0.190000000   0.452888389    0   0   1
O0       0.000000000   0.500000000   0.498253439    0   0   1
O0       0.000000000   0.000000000   0.526893266    0   0   1
Ru1      0.250000000   0.000000000   0.577629598    0   0   1
Ru1      0.000000000   0.500000000   0.568194673    0   0   1
O0       0.250000000   0.690000000   0.575654049    0   0   1
[...]
    13.1584  13.2230  13.3098  13.3721  13.5648  13.5653  13.6774  13.7599
    13.7796  13.9761  14.0406  14.0711  14.1580  14.2123  14.4257  14.5881
    14.6174  14.6583  14.7167  14.7367  14.8324  14.8560  14.9560  15.0185
    15.0255  15.1081  15.1630  15.3247  15.3854  15.4073  15.4596  15.5280
    15.5732  15.7329  15.8680  16.0053  16.0628  16.0809  16.1397  16.3267
    16.3608  16.3652  16.4392  16.4714  16.5188  16.5405  16.5509  16.6196
    16.6654  16.7171  16.7551  16.7995  16.8014  16.8592  16.8975  16.9154
    16.9567  16.9957  17.0592  17.1799  17.2598  17.3002  17.4083  17.5566
    17.6341  17.7059  17.7440  17.8040  17.9439  17.9962  18.0531  18.1148
    18.1791  18.2907  18.3914  18.5353  18.5812  18.6105  18.6786  18.6817
    18.8026  18.8742  18.9649  19.1008  19.1564  19.2782  19.3453  19.3963
    19.4276  19.4401  19.5231  19.6091  19.6608  19.6823  19.7344  19.7556
    19.7887  19.8369  19.9078  19.9519  19.9991  20.0517  20.0866  20.1992
    20.2471  20.3101  20.3672  20.4019  20.4165  20.4379  20.5267  20.5392
    20.6037  20.6707  20.7633  20.8211  20.8333  20.9001  20.9923  21.1475
    21.2068  21.2529  21.3178  21.3378  21.4198  21.4672  21.5379  21.5494
    21.5660  21.6410  21.6747  21.6994  21.7315  21.8137

          k =-0.5000 0.2435 0.0000 ( 30444 PWs)   bands (ev):

   -74.0928 -73.9553 -73.9110 -73.8821 -73.8560 -73.6277 -73.4315 -73.4116
   -44.2491 -44.2401 -44.2180 -44.1785 -44.0483 -44.0412 -44.0275 -43.9872
   -43.9057 -43.8957 -43.8022 -43.7783 -43.7677 -43.7278 -43.7120 -43.6665
   -43.6481 -43.6282 -43.5913 -43.4608 -43.4457 -43.3872 -43.2025 -43.1824
   -20.6265 -20.5734 -20.1785 -20.1487 -20.0217 -19.9849 -19.8323 -19.8079
   -19.6905 -19.6559 -19.5629 -19.4640 -19.3992 -19.3399 -19.3026 -19.2726
   -19.2629 -19.2272 -18.9598  -8.9018  -8.7431  -8.3996  -8.3598  -8.3232
    -8.3087  -8.2960  -8.2251  -8.1633  -8.0332  -7.9320  -7.8573  -7.7920
    -7.6908  -7.6584  -7.5406  -7.3757  -7.1552  -6.8207  -6.7225  -6.5959
    -6.4829  -6.4694  -6.4389  -6.3824  -6.3211  -6.2630  -6.1426  -6.0691
    -5.8103  -5.7687  -5.5776  -5.4747  -5.4389  -5.3717  -5.2276  -5.1583
    -4.9463  -4.8891  -4.8690  -4.8470  -4.8063  -4.6931  -4.4832  -4.3831
    -4.3272  -4.2694  -4.0693  -3.9663  -3.7574  -3.6936  -3.4787  -3.3883
    -3.2910  -3.1818  -3.1381  -3.0086  -2.5407  -2.3665  -2.2785  -2.2246
    -2.1016  -1.9751  -1.9554  -1.9537  -1.8898  -1.7692  -1.7107  -1.5896
    -1.3281  -1.2526  -1.1957  -1.0463  -0.9799  -0.7984  -0.7157  -0.6381
    -0.5304  -0.4647  -0.1684  -0.0939   1.0842   2.1471   2.1694   2.2626
     2.3440   2.3941   2.4869   2.5205   2.6162   2.9795   3.1280   3.4200
     3.4550   3.6067   3.9564   4.1013   4.6214   4.6757   4.7540   5.3420
     5.4237   5.5349   5.8226   5.9648   6.2382   6.3012   6.4809   6.6083
     6.7565   7.0504   7.1899   7.2467   7.3206   7.3956   7.5564   7.7036
     7.7502   7.8138   8.1961   8.2852   8.4801   8.5542   8.6749   8.8068
     9.0066   9.1362   9.1826   9.3070   9.3458   9.4210   9.6466   9.8870
    10.1188  10.2488  10.3316  10.3446  10.4235  10.4885  10.6040  10.6746
    10.7664  10.8146  10.9608  11.0045  11.1230  11.2786  11.3470  11.4196
    11.4680  11.5064  11.6392  11.7127  11.9646  12.0380  12.1297  12.2422
    12.3468  12.3686  12.4407  12.5039  12.5567  12.5951  12.6606  12.6999
    12.7905  12.8757  12.9329  12.9969  13.0441  13.0988  13.2036  13.2562
    13.3332  13.4086  13.4374  13.4650  13.6246  13.7121  13.7939  13.8467
    13.9927  14.0413  14.0918  14.1477  14.2399  14.2769  14.3921  14.4421
    14.5061  14.6258  14.6749  14.7023  14.7454  14.7975  14.8481  14.9458
    14.9883  15.0254  15.0507  15.1275  15.1925  15.2582  15.2764  15.3202
    15.3759  15.4362  15.5548  15.6106  15.6284  15.7414  15.7872  15.8202
    15.8747  15.9120  15.9569  16.0128  16.0754  16.1645  16.2547  16.3480
    16.4220  16.4605  16.5255  16.6079  16.6419  16.6845  16.7444  16.7729
    16.7927  16.8540  17.0094  17.1112  17.1780  17.2646  17.2846  17.3564
    17.4057  17.4832  17.5566  17.5988  17.6734  17.8159  17.8657  17.9566
    18.0264  18.1074  18.2057  18.2230  18.3459  18.3832  18.4141  18.5030
    18.5575  18.6744  18.7947  18.8456  18.8587  18.9106  18.9455  18.9805
    19.0364  19.1110  19.1469  19.2337  19.3250  19.4372  19.5071  19.5409
    19.5950  19.6511  19.6927  19.7891  19.8807  19.9576  20.0057  20.0821
    20.1334  20.1981  20.2805  20.3540  20.4014  20.5141  20.6734  20.7065
    20.7633  20.8251  20.8719  20.9176  21.0426  21.0810  21.1754  21.2494
    21.3602  21.3923  21.5277  21.5991  21.6560  21.7344  21.8513  21.8956
    21.9452  22.0505  22.1113  22.1743  22.2466  22.2952

          k =-0.5000-0.4870 0.0000 ( 30440 PWs)   bands (ev):

   -74.0927 -73.9554 -73.9111 -73.8820 -73.8561 -73.6278 -73.4314 -73.4115
   -44.2491 -44.2401 -44.2179 -44.1786 -44.0485 -44.0407 -44.0268 -43.9856
   -43.9090 -43.8955 -43.8009 -43.7782 -43.7672 -43.7272 -43.7115 -43.6653
   -43.6479 -43.6318 -43.5909 -43.4608 -43.4457 -43.3876 -43.2023 -43.1822
   -20.6119 -20.5629 -20.1662 -20.0362 -20.0284 -19.9923 -19.7060 -19.6453
   -19.6224 -19.6097 -19.5436 -19.5200 -19.5132 -19.4745 -19.4339 -19.3966
   -19.3332 -19.2430 -18.9588  -8.8954  -8.7322  -8.3850  -8.3242  -8.2908
    -8.1534  -8.0362  -7.9704  -7.8818  -7.8074  -7.7195  -7.6495  -7.5482
    -7.4218  -7.4023  -7.3841  -7.3432  -7.2558  -7.1003  -7.0683  -6.9997
    -6.9142  -6.6237  -6.5620  -6.4544  -6.2970  -6.2429  -6.1958  -6.0251
    -5.9228  -5.8502  -5.6342  -5.6145  -5.4402  -5.4321  -5.3981  -5.3659
    -5.3144  -5.2805  -5.1758  -5.1328  -4.8441  -4.6924  -4.4517  -4.2310
    -4.1510  -4.0576  -3.9910  -3.9366  -3.8877  -3.8033  -3.4636  -3.4126
    -3.2804  -2.9529  -2.8959  -2.8623  -2.5190  -2.4573  -2.3872  -2.2800
    -2.2332  -2.0895  -1.9752  -1.9027  -1.7670  -1.5948  -1.5404  -1.4489
    -1.2684  -1.2064  -1.0856  -1.0543  -0.8401  -0.7158  -0.6262  -0.5658
    -0.4981  -0.4054  -0.3214  -0.2486   1.1874   1.8817   1.9669   2.0298
     2.0404   2.3666   2.4268   2.5378   2.5899   3.2715   3.2898   3.3387
     3.7173   3.9313   3.9395   3.9756   4.8110   4.9996   5.1498   5.5815
     5.6206   5.9362   5.9505   6.0563   6.0973   6.1563   6.2049   6.2998
     6.5017   6.6093   6.6941   6.7880   7.0253   7.1456   7.2865   7.4020
     7.6833   7.8695   8.0382   8.1624   8.1973   8.3597   8.4105   8.5285
     8.9316   8.9997   9.1738   9.2456   9.3130   9.4952   9.6865   9.7397
     9.9022   9.9510  10.3903  10.6374  10.6662  10.7269  10.9379  11.0355
    11.0595  11.1316  11.2118  11.5524  11.6735  11.9384  12.0361  12.0566
    12.1047  12.1477  12.2010  12.2182  12.4328  12.4936  12.5211  12.5849
    12.7024  12.7478  12.8448  12.9677  13.0624  13.1322  13.2280  13.2817
    13.3052  13.3376  13.3479  13.3572  13.3913  13.4733  13.5061  13.5292
    13.5653  13.5819  13.6228  13.6782  13.7233  13.7320  13.7656  13.7870
    13.8048  13.8435  13.8647  13.8858  13.9799  14.0678  14.1515  14.1913
    14.2149  14.2409  14.2534  14.3244  14.4050  14.4459  14.4732  14.5096
    14.5781  14.5828  14.6333  14.6737  14.7430  14.8978  14.9773  14.9929
    15.0295  15.1190  15.2056  15.2625  15.2734  15.3608  15.4224  15.4921
    15.5095  15.5568  15.5720  15.6253  15.7668  15.8399  15.9028  15.9739
    16.0329  16.0947  16.1965  16.3121  16.3824  16.4855  16.5611  16.5869
    16.7779  16.7990  16.8431  16.8865  16.9434  17.0573  17.1542  17.1913
    17.2092  17.2734  17.3645  17.3895  17.4234  17.4637  17.5222  17.6185
    17.6704  17.7612  17.8300  17.9259  18.0682  18.2437  18.3978  18.4967
    18.5294  18.5999  18.6098  18.7434  18.8079  18.8619  18.9107  18.9299
    19.0312  19.2064  19.3464  19.3990  19.4754  19.5011  19.5579  19.6946
    19.7512  19.8496  20.0323  20.2682  20.3468  20.3908  20.4836  20.5342
    20.6454  20.7741  20.8151  20.8459  20.9393  20.9478  20.9580  21.0165
    21.0468  21.0710  21.1924  21.2370  21.2607  21.2647  21.3073  21.3326
    21.3931  21.4570  21.5255  21.5703  21.5818  21.5951  21.6558  21.7412
    21.7590  21.7750  21.8537  21.9776  22.0291  22.1478

          k =-0.2500 0.2435 0.0000 ( 30434 PWs)   bands (ev):

   -74.0935 -73.9560 -73.9119 -73.8825 -73.8565 -73.6284 -73.4328 -73.4117
   -44.2491 -44.2416 -44.2290 -44.1779 -44.0481 -44.0415 -44.0283 -43.9863
   -43.9018 -43.8850 -43.8230 -43.7787 -43.7757 -43.7511 -43.6980 -43.6657
   -43.6412 -43.6158 -43.5643 -43.4767 -43.4324 -43.3869 -43.2402 -43.1384
   -20.8278 -20.4056 -20.3332 -20.2180 -20.1390 -19.9490 -19.8441 -19.8268
   -19.7031 -19.6729 -19.6360 -19.3912 -19.3541 -19.3502 -19.2869 -19.2127
   -19.1525 -19.0923 -18.8675  -9.3223  -8.9298  -8.8734  -8.6691  -8.5590
    -8.4730  -8.4175  -8.2652  -7.9818  -7.8582  -7.7591  -7.7203  -7.6115
    -7.5477  -7.4961  -7.4690  -7.3626  -7.2909  -7.0232  -6.8851  -6.7666
    -6.5222  -6.4710  -6.3082  -6.1566  -6.0546  -6.0078  -5.8481  -5.7245
    -5.6511  -5.5818  -5.4982  -5.4745  -5.3332  -5.1674  -5.1101  -5.0816
    -5.0113  -4.9351  -4.8642  -4.8209  -4.6306  -4.5057  -4.3834  -4.2473
    -4.1623  -4.1388  -4.0659  -3.9147  -3.8551  -3.6800  -3.5929  -3.5022
    -3.2211  -3.1764  -3.0775  -2.8695  -2.6526  -2.4745  -2.4389  -2.3838
    -2.3559  -2.2135  -2.1603  -2.0843  -2.0615  -1.9499  -1.8708  -1.8371
    -1.6633  -1.5885  -1.3288  -1.1475  -0.9830  -0.6565  -0.5686  -0.4907
    -0.3480  -0.3186  -0.1664   0.1308   0.9804   1.6830   1.8434   1.8884
     2.0659   2.5019   2.7789   2.9667   3.2467   3.3357   3.4309   3.4988
     3.5770   3.6350   3.8887   3.9626   4.0788   4.4388   4.7034   5.1404
     5.5832   5.7021   5.7952   6.0918   6.3796   6.4977   6.6020   6.6608
     6.8504   6.9789   7.0231   7.2607   7.5275   7.7051   7.8793   7.9523
     8.0798   8.2880   8.3649   8.4967   8.5698   8.6094   8.7385   8.8240
     8.9403   9.1239   9.2091   9.3565   9.4403   9.5681   9.6640   9.8654
     9.9541  10.0409  10.1172  10.1492  10.2205  10.3351  10.3768  10.4614
    10.5432  10.6541  10.7491  10.9000  10.9155  10.9735  11.1181  11.3099
    11.3801  11.4254  11.5778  11.5880  11.6487  11.8059  11.8602  11.8838
    11.9794  12.0557  12.1113  12.1830  12.2712  12.3830  12.4148  12.5272
    12.5696  12.6300  12.7338  12.7736  12.7807  12.8914  12.9681  13.0118
    13.1013  13.1615  13.2126  13.3332  13.4021  13.4883  13.6298  13.6752
    13.7431  13.8415  13.9442  14.0516  14.1090  14.2136  14.2556  14.3429
    14.4096  14.5558  14.5902  14.6303  14.7041  14.7924  14.9147  14.9406
    15.0003  15.1454  15.1684  15.2438  15.3298  15.4080  15.5336  15.5673
    15.6282  15.7233  15.7783  15.8374  15.8670  15.8978  15.9463  16.0372
    16.0901  16.1494  16.2201  16.2791  16.3116  16.3656  16.4878  16.5371
    16.6287  16.7015  16.7491  16.8258  16.8870  16.9068  16.9593  17.0750
    17.1608  17.2119  17.3105  17.3730  17.4598  17.4774  17.5065  17.5498
    17.6321  17.6703  17.7504  17.8030  17.8624  17.9295  17.9938  18.0580
    18.1354  18.1809  18.2298  18.2987  18.3327  18.4438  18.5588  18.6135
    18.6854  18.7848  18.8338  18.8841  18.9515  19.0234  19.1039  19.1856
    19.2142  19.3006  19.4179  19.4525  19.5047  19.6634  19.7196  19.7559
    19.7836  19.8632  19.9705  20.0043  20.1226  20.2391  20.2957  20.3886
    20.4327  20.5532  20.6446  20.7230  20.7639  20.8337  20.8873  20.9557
    20.9854  21.0429  21.1208  21.2231  21.2616  21.3154  21.3269  21.3963
    21.4492  21.4944  21.5551  21.6047  21.6726  21.7503  21.8458  21.9130
    21.9501  21.9835  22.0016  22.0676  22.1404  22.2433

     the Fermi energy is    -1.1310 ev

!    total energy              =   -2162.34320143 Ry
     Harris-Foulkes estimate   =   -2162.34320144 Ry
     estimated scf accuracy    <          8.9E-09 Ry

     The total energy is the sum of the following terms:

     one-electron contribution =  -25274.23368912 Ry
     hartree contribution      =   12662.21923333 Ry
     xc contribution           =    -338.66338901 Ry
     ewald contribution        =   10786.03241087 Ry
     Hubbard energy            =       2.30142461 Ry
     smearing contrib. (-TS)   =       0.00080789 Ry

     convergence has been achieved in  21 iterations

     Forces acting on atoms (Ry/au):


     negative rho (up, down):  0.574E+00 0.000E+00
     atom    1 type  1   force =    -0.00555861   -0.00920279   -0.00036522
     atom    2 type  1   force =     0.00070306    0.00387728   -0.00036146
     atom    3 type  2   force =     0.01721132    0.00240710   -0.00009362
     atom    4 type  2   force =     0.00198614    0.00535222   -0.00000694
     atom    5 type  1   force =     0.00093330   -0.03951923    0.00055236
     atom    6 type  1   force =     0.00286923    0.04049869    0.00049455
     atom    7 type  1   force =     0.00216011   -0.00251562   -0.00073099
     atom    8 type  1   force =     0.00873792   -0.00243845   -0.00025709
     atom    9 type  2   force =    -0.01671010    0.00240768   -0.00018115
     atom   10 type  2   force =    -0.00665614   -0.00091119   -0.00062466
     atom   11 type  1   force =    -0.01103896    0.01451765    0.00001543
     atom   12 type  1   force =    -0.01228812   -0.01534896   -0.00003616
     atom   13 type  1   force =     0.00893826   -0.00029362    0.00023826
     atom   14 type  1   force =    -0.00382034   -0.00716610   -0.00015607
     atom   15 type  1   force =     0.00001999    0.00286267    0.00009879
     atom   16 type  2   force =    -0.01796120    0.00514558   -0.00016326
     atom   17 type  2   force =     0.00274300    0.00448232    0.00005351
     atom   18 type  1   force =    -0.00065460   -0.03912610    0.00059765
     atom   19 type  1   force =     0.00372579    0.03745742    0.00051106
     atom   20 type  1   force =    -0.00307154   -0.00329059    0.00069154
     atom   21 type  1   force =    -0.00910301   -0.00016792   -0.00052655
     atom   22 type  2   force =     0.01219573    0.00200148    0.00015276
     atom   23 type  2   force =     0.00366228    0.00102940    0.00019770
     atom   24 type  1   force =     0.01352982    0.02068102    0.00015376
     atom   25 type  1   force =     0.01438752   -0.02118873    0.00010495
     atom   26 type  1   force =    -0.00743629   -0.00138946    0.00019749
     atom   27 type  3   force =     0.00003484    0.00038413    0.00003076
     atom   28 type  3   force =     0.00001820   -0.00011202   -0.00023458
     atom   29 type  3   force =     0.00009031   -0.00002256   -0.00030593
     atom   30 type  3   force =    -0.00002122   -0.00005462   -0.00030947
     atom   31 type  1   force =     0.00001441   -0.00019424    0.00003110
     atom   32 type  3   force =     0.00035889   -0.00016246    0.00023150

     Total force =     0.002036     Total SCF correction =     0.000185

     bfgs converged in  18 scf cycles and  17 bfgs steps
     (criteria: energy < 0.10E-03, force < 0.10E-02)

     End of BFGS Geometry Optimization

     Final energy   =   -2162.3432014286 Ry
Begin final coordinates

ATOMIC_POSITIONS (crystal)
O0       0.000000000   0.000000000   0.380424752    0   0   1
O0       0.000000000   0.500000000   0.402245388    0   0   1
Ru1      0.250000000   0.500000000   0.453254996    0   0   1
Ru1      0.000000000   0.000000000   0.454003537    0   0   1
O0       0.250000000   0.810000000   0.453564135    0   0   1
O0       0.250000000   0.190000000   0.453325610    0   0   1
O0       0.000000000   0.500000000   0.498475426    0   0   1
O0       0.000000000   0.000000000   0.526765740    0   0   1
Ru1      0.250000000   0.000000000   0.578576325    0   0   1
Ru1      0.000000000   0.500000000   0.568326127    0   0   1
O0       0.250000000   0.690000000   0.575524021    0   0   1
O0       0.250000000   0.310000000   0.575626163    0   0   1
O0       0.000000000   0.000000000   0.619771452    0   0   1
O0       0.500000000   0.000000000   0.380562605    0   0   1
O0       0.500000000   0.500000000   0.404021127    0   0   1
Ru1      0.750000000   0.500000000   0.453257166    0   0   1
Ru1      0.500000000   0.000000000   0.454048307    0   0   1
O0       0.750000000   0.810000000   0.453556572    0   0   1
O0       0.750000000   0.190000000   0.453402062    0   0   1
O0       0.500000000   0.500000000   0.502013084    0   0   1
O0       0.500000000   0.000000000   0.526722669    0   0   1
Ru1      0.750000000   0.000000000   0.576465012    0   0   1
Ru1      0.500000000   0.500000000   0.575162638    0   0   1
O0       0.750000000   0.690000000   0.574031841    0   0   1
O0       0.750000000   0.310000000   0.573880218    0   0   1
O0       0.500000000   0.000000000   0.617750176    0   0   1
H2      -0.000457799   0.627858930   0.381447396
H2       0.499266293   0.611724402   0.378420704
H2       0.145684213   0.031124195   0.367907810
H2       0.646996825   0.025924016   0.368116902
O0       0.516225498   0.498068968   0.647314325
H2       0.375056753   0.494113203   0.663855714
End final coordinates



     init_run     :    102.89s CPU    105.52s WALL (       1 calls)
     electrons    :  84464.04s CPU  86782.38s WALL (      18 calls)
     update_pot   :    340.17s CPU    346.82s WALL (      17 calls)
     forces       :   2233.40s CPU   2257.13s WALL (      18 calls)

     Called by init_run:
     wfcinit      :     38.12s CPU     39.59s WALL (       1 calls)
     potinit      :      7.40s CPU      7.57s WALL (       1 calls)

     Called by electrons:
     c_bands      :  45180.29s CPU  46441.18s WALL (     486 calls)
     sum_band     :  16896.61s CPU  17333.54s WALL (     486 calls)
     v_of_rho     :    526.08s CPU    552.43s WALL (     498 calls)
     newd         :  22206.05s CPU  22319.17s WALL (     498 calls)
     mix_rho      :    105.30s CPU    107.69s WALL (     486 calls)

     Called by c_bands:
     init_us_2    :    113.78s CPU    114.72s WALL (    3081 calls)
     cegterg      :  44567.61s CPU  45648.89s WALL (    1458 calls)

     Called by *egterg:
     h_psi        :  26352.19s CPU  26978.66s WALL (    3725 calls)
     s_psi        :   2585.36s CPU   2617.03s WALL (    3833 calls)
     g_psi        :     55.66s CPU     55.73s WALL (    2264 calls)
     cdiaghg      :   3600.85s CPU   3612.02s WALL (    3653 calls)

     Called by h_psi:
     add_vuspsi   :   2533.95s CPU   2568.40s WALL (    3725 calls)
     vhpsi        :   2759.81s CPU   2783.48s WALL (    3725 calls)

     General routines
     calbec       :   6111.06s CPU   6164.13s WALL (   26134 calls)
     fft          :    646.04s CPU    753.87s WALL (    8135 calls)
     ffts         :      8.40s CPU      8.58s WALL (     984 calls)
     fftw         :  14695.05s CPU  15386.78s WALL ( 2687496 calls)
     interpolate  :     81.65s CPU     82.66s WALL (     984 calls)
     davcio       :      0.22s CPU     49.74s WALL (    3135 calls)

     Parallel routines
     fft_scatter  :   5651.69s CPU   6415.02s WALL ( 2696615 calls)
     Hubbard U routines
     new_ns       :    618.79s CPU    652.25s WALL (     486 calls)
     vhpsi        :   2759.81s CPU   2783.48s WALL (    3725 calls)
     force_hub    :    657.62s CPU    668.16s WALL (      18 calls)

     PWSCF        :     1d    0h27m CPU        1d    1h 6m WALL


   This run was terminated on:   9:13:21  28Apr2014            

=------------------------------------------------------------------------------=
   JOB DONE.
=------------------------------------------------------------------------------=
---------------------------------------
Running PBS batch system epilogue script
Job id: 340459.audhumbla.fysik.dtu.dk
Username: zhonxu
Groupname: campgst
Jobname: RuO2/Eads-2-layers/OH-U-4.5
Sessionid: 12038
Resources limits: neednodes=2:ppn=8:xeon8,nodes=2:ppn=8:xeon8,walltime=48:00:00
Resources used: cput=401:23:54,mem=17605800kb,vmem=21332092kb,walltime=25:06:31
Queuename: verylong
Accounting:
This job has allocated the following 16 nodes:
a011 a011 a011 a011 a011 a011 a011 a011 a003 a003 a003 a003 a003 a003 a003 a003
Finished epilogue job 340459.audhumbla.fysik.dtu.dk for zhonxu
