ScientificPython/2.8-dl160g6-numpy-1.7.1-1(15):ERROR:151: Module 'ScientificPython/2.8-dl160g6-numpy-1.7.1-1' depends on one of the module(s) 'numpy/1.7.1-dl160g6-gfortran-internal-1'
ScientificPython/2.8-dl160g6-numpy-1.7.1-1(15):ERROR:102: Tcl command execution failed: prereq numpy/1.7.1-dl160g6-gfortran-internal-1


     Program PWSCF v.5.0.2 (svn rev. 9656) starts on 25May2014 at 21:32: 0 

     This program is part of the open-source Quantum ESPRESSO suite
     for quantum simulation of materials; please cite
         "P. Giannozzi et al., J. Phys.:Condens. Matter 21 395502 (2009);
          URL http://www.quantum-espresso.org", 
     in publications or presentations arising from this work. More details at
     http://www.quantum-espresso.org/quote.php

     Parallel version (MPI), running on    16 processors
     K-points division:     npool     =       4
     R & G space division:  proc/nbgrp/npool/nimage =       4

     Current dimensions of program PWSCF are:
     Max number of different atomic species (ntypx) = 10
     Max number of k-points (npk) =  40000
     Max angular momentum in pseudopotentials (lmaxx) =  3
     Reading input from pwscf.in
Warning: card &CELL ignored
Warning: card / ignored

     Subspace diagonalization in iterative solution of the eigenvalue problem:
     a serial algorithm will be used


     Parallelization info
     --------------------
     sticks:   dense  smooth     PW     G-vecs:    dense   smooth      PW
     Min        1357     434    120               328723    59498    8862
     Max        1358     435    121               328730    59528    8871
     Sum        5431    1737    483              1314909   238057   35467



     bravais-lattice index     =            0
     lattice parameter (alat)  =      10.3179  a.u.
     unit-cell volume          =    6964.3238 (a.u.)^3
     number of atoms/cell      =           31
     number of atomic types    =            3
     number of electrons       =       230.00
     number of Kohn-Sham states=          345
     kinetic-energy cutoff     =      40.0000  Ry
     charge density cutoff     =     500.0000  Ry
     convergence threshold     =      1.0E-06
     mixing beta               =       0.2000
     number of iterations used =            8  plain     mixing
     Exchange-correlation      = SLA  PW   PBE  PBE ( 1 4 3 4 0)
     EXX-fraction              =        0.00
     nstep                     =           50


     celldm(1)=  10.317905  celldm(2)=   0.000000  celldm(3)=   0.000000
     celldm(4)=   0.000000  celldm(5)=   0.000000  celldm(6)=   0.000000

     crystal axes: (cart. coord. in units of alat)
               a(1) = (   1.000000   0.000000   0.000000 )  
               a(2) = (   0.000000   1.282117   0.000000 )  
               a(3) = (   0.000000   0.000000   4.945120 )  

     reciprocal axes: (cart. coord. in units 2 pi/alat)
               b(1) = (  1.000000  0.000000  0.000000 )  
               b(2) = (  0.000000  0.779960  0.000000 )  
               b(3) = (  0.000000  0.000000  0.202220 )  


     PseudoPot. # 1 for O  read from file:
     /home/camp/zhonxu/pseudo/o_pbe_v1.01.uspp.F.UPF
     MD5 check sum: 2bcb18d16ea4b960afae9ec6d52f22d2
     Pseudo is Ultrasoft + core correction, Zval =  6.0
     Generated by new atomic code, or converted to UPF format
     Using radial grid of  737 points,  5 beta functions with: 
                l(1) =   0
                l(2) =   0
                l(3) =   1
                l(4) =   1
                l(5) =   2
     Q(r) pseudized with  8 coefficients,  rinner =    0.900   0.900   0.900
                                                       0.900   0.900

     PseudoPot. # 2 for Mo read from file:
     /home/camp/zhonxu/pseudo/mo_pbe_v1.uspp.F.UPF
     MD5 check sum: 30c4dcd161f5d35cd49bb5239c51a633
     Pseudo is Ultrasoft + core correction, Zval = 14.0
     Generated by new atomic code, or converted to UPF format
     Using radial grid of  889 points,  6 beta functions with: 
                l(1) =   0
                l(2) =   0
                l(3) =   1
                l(4) =   1
                l(5) =   2
                l(6) =   2
     Q(r) pseudized with  6 coefficients,  rinner =    1.000   1.000   1.000
                                                       1.000   1.000

     PseudoPot. # 3 for H  read from file:
     /home/camp/zhonxu/pseudo/h_pbe_v1.uspp.F.UPF
     MD5 check sum: 3408e3ff4ec8b0a4e358431e7e038a48
     Pseudo is Ultrasoft, Zval =  1.0
     Generated by new atomic code, or converted to UPF format
     Using radial grid of  615 points,  2 beta functions with: 
                l(1) =   0
                l(2) =   0
     Q(r) pseudized with  8 coefficients,  rinner =    0.700

     atomic species   valence    mass     pseudopotential
        O0             6.00    15.99940     O ( 1.00)
        Mo1           14.00    95.94000     Mo( 1.00)
        H2             1.00     1.00794     H ( 1.00)


     Simplified LDA+U calculation (l_max = 2) with parameters (eV):
     atomic species    L          U    alpha       J0     beta
        Mo1            2     6.5000   0.0000   0.0000   0.0000



     No symmetry found



   Cartesian axes

     site n.     atom                  positions (alat units)
         1           O0  tau(   1) = (   0.0000000   0.0000000   1.8234637  )
         2           O0  tau(   2) = (   0.0000000   0.6410583   1.9023383  )
         3           Mo1 tau(   3) = (   0.2500000   0.6410583   2.1905894  )
         4           Mo1 tau(   4) = (   0.0000000   0.0000000   2.1768914  )
         5           O0  tau(   5) = (   0.2500000   1.0000510   2.1871773  )
         6           O0  tau(   6) = (   0.2500000   0.2820657   2.1863366  )
         7           O0  tau(   7) = (   0.0000000   0.6410583   2.4701371  )
         8           O0  tau(   8) = (   0.0000000   0.0000000   2.5461930  )
         9           Mo1 tau(   9) = (   0.2500000   0.0000000   2.8614939  )
        10           Mo1 tau(  10) = (   0.0000000   0.6410583   2.8143174  )
        11           O0  tau(  11) = (   0.2500000   0.9231240   2.8297957  )
        12           O0  tau(  12) = (   0.2500000   0.3589927   2.8299440  )
        13           O0  tau(  13) = (   0.0000000   0.0000000   3.0849639  )
        14           O0  tau(  14) = (   0.5000000   0.0000000   1.8295956  )
        15           O0  tau(  15) = (   0.5000000   0.6410583   1.9027340  )
        16           Mo1 tau(  16) = (   0.7500000   0.6410583   2.1912817  )
        17           Mo1 tau(  17) = (   0.5000000   0.0000000   2.1846058  )
        18           O0  tau(  18) = (   0.7500000   1.0000510   2.1861883  )
        19           O0  tau(  19) = (   0.7500000   0.2820657   2.1867322  )
        20           O0  tau(  20) = (   0.5000000   0.6410583   2.4595545  )
        21           O0  tau(  21) = (   0.5000000   0.0000000   2.5435227  )
        22           Mo1 tau(  22) = (   0.7500000   0.0000000   2.8092734  )
        23           Mo1 tau(  23) = (   0.5000000   0.6410583   2.8740545  )
        24           O0  tau(  24) = (   0.7500000   0.9231240   2.8243560  )
        25           O0  tau(  25) = (   0.7500000   0.3589927   2.8244055  )
        26           O0  tau(  26) = (   0.5000000   0.0000000   3.0840243  )
        27           H2  tau(  27) = (   0.0015700   0.7761165   1.7839522  )
        28           H2  tau(  28) = (   0.4983700   0.7937969   1.8071448  )
        29           H2  tau(  29) = (   0.1651000   0.0264244   1.7496825  )
        30           H2  tau(  30) = (   0.6618400   0.0263603   1.7494352  )
        31           O0  tau(  31) = (   0.5021200   0.6408276   3.1816410  )

     number of k points=    10  Methfessel-Paxton smearing, width (Ry)=  0.0100
                       cart. coord. in units 2pi/alat
        k(    1) = (   0.0000000   0.0000000   0.0000000), wk =   0.1250000
        k(    2) = (   0.0000000   0.1949901   0.0000000), wk =   0.2500000
        k(    3) = (   0.0000000  -0.3899801   0.0000000), wk =   0.1250000
        k(    4) = (   0.2500000   0.0000000   0.0000000), wk =   0.2500000
        k(    5) = (   0.2500000   0.1949901   0.0000000), wk =   0.2500000
        k(    6) = (   0.2500000  -0.3899801   0.0000000), wk =   0.2500000
        k(    7) = (  -0.5000000   0.0000000   0.0000000), wk =   0.1250000
        k(    8) = (  -0.5000000   0.1949901   0.0000000), wk =   0.2500000
        k(    9) = (  -0.5000000  -0.3899801   0.0000000), wk =   0.1250000
        k(   10) = (  -0.2500000   0.1949901   0.0000000), wk =   0.2500000

     Dense  grid:  1314909 G-vectors     FFT dimensions: (  75,  96, 375)

     Smooth grid:   238057 G-vectors     FFT dimensions: (  45,  54, 216)

     Largest allocated arrays     est. size (Mb)     dimensions
        Kohn-Sham Wavefunctions        39.45 Mb     (   7494,  345)
        Atomic wavefunctions           21.04 Mb     (   7494,  184)
        NL pseudopotentials            45.63 Mb     (   7494,  399)
        Each V/rho on FFT grid         10.33 Mb     ( 676800)
        Each G-vector array             2.51 Mb     ( 328726)
        G-vector shells                 1.08 Mb     ( 142042)
     Largest temporary arrays     est. size (Mb)     dimensions
        Auxiliary wavefunctions       157.80 Mb     (   7494, 1380)
        Each subspace H/S matrix       29.06 Mb     (1380,1380)
        Each <psi_i|beta_j> matrix      2.10 Mb     (    399,  345)
        Arrays for rho mixing          82.62 Mb     ( 676800,   8)

     Check: negative/imaginary core charge=   -0.000003    0.000000

     Initial potential from superposition of free atoms
     Check: negative starting charge=   -0.002501

     starting charge  229.99143, renormalised to  230.00000

     negative rho (up, down):  0.250E-02 0.000E+00
     Number of +U iterations with fixed ns =  0
     Starting occupations:
 --- enter write_ns ---
 LDA+U parameters:
U( 2)     =  6.50000000
alpha( 2) =  0.00000000
atom    3   Tr[ns(na)] =   5.00000
    eigenvalues: 
  0.500  0.500  0.500  0.500  0.500
    eigenvectors:
  1.000  0.000  0.000  0.000  0.000
  0.000  1.000  0.000  0.000  0.000
  0.000  0.000  1.000  0.000  0.000
  0.000  0.000  0.000  1.000  0.000
  0.000  0.000  0.000  0.000  1.000
    occupations:
  0.500  0.000  0.000  0.000  0.000
  0.000  0.500  0.000  0.000  0.000
  0.000  0.000  0.500  0.000  0.000
  0.000  0.000  0.000  0.500  0.000
  0.000  0.000  0.000  0.000  0.500
atom    4   Tr[ns(na)] =   5.00000
    eigenvalues: 
  0.500  0.500  0.500  0.500  0.500
    eigenvectors:
  1.000  0.000  0.000  0.000  0.000
  0.000  1.000  0.000  0.000  0.000
  0.000  0.000  1.000  0.000  0.000
  0.000  0.000  0.000  1.000  0.000
  0.000  0.000  0.000  0.000  1.000
    occupations:
  0.500  0.000  0.000  0.000  0.000
  0.000  0.500  0.000  0.000  0.000
  0.000  0.000  0.500  0.000  0.000
  0.000  0.000  0.000  0.500  0.000
  0.000  0.000  0.000  0.000  0.500
atom    9   Tr[ns(na)] =   5.00000
    eigenvalues: 
  0.500  0.500  0.500  0.500  0.500
    eigenvectors:
  1.000  0.000  0.000  0.000  0.000
  0.000  1.000  0.000  0.000  0.000
  0.000  0.000  1.000  0.000  0.000
  0.000  0.000  0.000  1.000  0.000
  0.000  0.000  0.000  0.000  1.000
    occupations:
  0.500  0.000  0.000  0.000  0.000
  0.000  0.500  0.000  0.000  0.000
  0.000  0.000  0.500  0.000  0.000
  0.000  0.000  0.000  0.500  0.000
  0.000  0.000  0.000  0.000  0.500
atom   10   Tr[ns(na)] =   5.00000
    eigenvalues: 
  0.500  0.500  0.500  0.500  0.500
    eigenvectors:
  1.000  0.000  0.000  0.000  0.000
  0.000  1.000  0.000  0.000  0.000
  0.000  0.000  1.000  0.000  0.000
  0.000  0.000  0.000  1.000  0.000
  0.000  0.000  0.000  0.000  1.000
    occupations:
  0.500  0.000  0.000  0.000  0.000
  0.000  0.500  0.000  0.000  0.000
  0.000  0.000  0.500  0.000  0.000
  0.000  0.000  0.000  0.500  0.000
  0.000  0.000  0.000  0.000  0.500
atom   16   Tr[ns(na)] =   5.00000
    eigenvalues: 
  0.500  0.500  0.500  0.500  0.500
    eigenvectors:
  1.000  0.000  0.000  0.000  0.000
  0.000  1.000  0.000  0.000  0.000
  0.000  0.000  1.000  0.000  0.000
  0.000  0.000  0.000  1.000  0.000
  0.000  0.000  0.000  0.000  1.000
    occupations:
  0.500  0.000  0.000  0.000  0.000
  0.000  0.500  0.000  0.000  0.000
  0.000  0.000  0.500  0.000  0.000
  0.000  0.000  0.000  0.500  0.000
  0.000  0.000  0.000  0.000  0.500
atom   17   Tr[ns(na)] =   5.00000
    eigenvalues: 
  0.500  0.500  0.500  0.500  0.500
    eigenvectors:
  1.000  0.000  0.000  0.000  0.000
  0.000  1.000  0.000  0.000  0.000
  0.000  0.000  1.000  0.000  0.000
  0.000  0.000  0.000  1.000  0.000
  0.000  0.000  0.000  0.000  1.000
    occupations:
  0.500  0.000  0.000  0.000  0.000
  0.000  0.500  0.000  0.000  0.000
  0.000  0.000  0.500  0.000  0.000
  0.000  0.000  0.000  0.500  0.000
  0.000  0.000  0.000  0.000  0.500
atom   22   Tr[ns(na)] =   5.00000
    eigenvalues: 
  0.500  0.500  0.500  0.500  0.500
    eigenvectors:
  1.000  0.000  0.000  0.000  0.000
  0.000  1.000  0.000  0.000  0.000
  0.000  0.000  1.000  0.000  0.000
  0.000  0.000  0.000  1.000  0.000
  0.000  0.000  0.000  0.000  1.000
    occupations:
  0.500  0.000  0.000  0.000  0.000
  0.000  0.500  0.000  0.000  0.000
  0.000  0.000  0.500  0.000  0.000
  0.000  0.000  0.000  0.500  0.000
  0.000  0.000  0.000  0.000  0.500
atom   23   Tr[ns(na)] =   5.00000
    eigenvalues: 
  0.500  0.500  0.500  0.500  0.500
    eigenvectors:
  1.000  0.000  0.000  0.000  0.000
  0.000  1.000  0.000  0.000  0.000
  0.000  0.000  1.000  0.000  0.000
  0.000  0.000  0.000  1.000  0.000
  0.000  0.000  0.000  0.000  1.000
    occupations:
  0.500  0.000  0.000  0.000  0.000
  0.000  0.500  0.000  0.000  0.000
  0.000  0.000  0.500  0.000  0.000
  0.000  0.000  0.000  0.500  0.000
  0.000  0.000  0.000  0.000  0.500
N of occupied +U levels =  40.0000000
 --- exit write_ns ---
 Atomic wfc used for LDA+U Projector are NOT orthogonalized
     Starting wfc are  184 randomized atomic wfcs

     total cpu time spent up to now is      102.0 secs

     per-process dynamical memory:   383.4 Mb

     Self-consistent Calculation

     iteration #  1     ecut=    40.00 Ry     beta=0.20
     Davidson diagonalization with overlap
     ethr =  1.00E-02,  avg # of iterations =  6.0
 --- enter write_ns ---
 LDA+U parameters:
U( 2)     =  6.50000000
alpha( 2) =  0.00000000
atom    3   Tr[ns(na)] =   4.94753
    eigenvalues: 
  0.333  0.444  0.484  0.558  0.656
    eigenvectors:
  0.007  0.015  0.455  0.001  0.522
  0.000  0.974  0.025  0.001  0.000
  0.971  0.000  0.001  0.022  0.006
  0.001  0.010  0.518  0.001  0.470
  0.021  0.001  0.000  0.976  0.002
    occupations:
  0.572 -0.007  0.022 -0.085 -0.006
 -0.007  0.445 -0.002 -0.002 -0.003
  0.022 -0.002  0.340 -0.014  0.032
 -0.085 -0.002 -0.014  0.564  0.004
 -0.006 -0.003  0.032  0.004  0.553
atom    4   Tr[ns(na)] =   4.93105
    eigenvalues: 
  0.310  0.434  0.485  0.547  0.689
    eigenvectors:
  0.000  0.000  0.947  0.024  0.030
  0.000  0.000  0.023  0.976  0.001
  1.000  0.000  0.000  0.000  0.000
  0.000  0.000  0.030  0.000  0.970
  0.000  1.000  0.000  0.000  0.000
    occupations:
  0.492  0.009  0.001 -0.035 -0.000
  0.009  0.546  0.004  0.006 -0.001
  0.001  0.004  0.310 -0.000  0.001
 -0.035  0.006 -0.000  0.683  0.000
 -0.000 -0.001  0.001  0.000  0.434
atom    9   Tr[ns(na)] =   4.69251
    eigenvalues: 
  0.374  0.410  0.495  0.517  0.550
    eigenvectors:
  0.000  0.000  0.511  0.000  0.489
  0.000  0.000  0.001  0.999  0.000
  0.927  0.073  0.000  0.000  0.000
  0.000  0.000  0.488  0.001  0.511
  0.073  0.927  0.000  0.000  0.000
    occupations:
  0.522 -0.001  0.000 -0.027 -0.000
 -0.001  0.517  0.000 -0.000 -0.000
  0.000  0.000  0.376  0.000  0.009
 -0.027 -0.000  0.000  0.524  0.000
 -0.000 -0.000  0.009  0.000  0.407
atom   10   Tr[ns(na)] =   4.52778
    eigenvalues: 
  0.289  0.386  0.434  0.469  0.685
    eigenvectors:
  0.000  0.991  0.000  0.001  0.008
  0.000  0.001  0.000  0.996  0.004
  0.999  0.000  0.001  0.000  0.000
  0.000  0.008  0.000  0.003  0.989
  0.001  0.000  0.999  0.000  0.000
    occupations:
  0.388  0.001 -0.000 -0.026  0.000
  0.001  0.470 -0.000  0.013 -0.000
 -0.000 -0.000  0.289  0.001 -0.005
 -0.026  0.013  0.001  0.682  0.000
  0.000 -0.000 -0.005  0.000  0.434
atom   16   Tr[ns(na)] =   4.91601
    eigenvalues: 
  0.321  0.444  0.483  0.559  0.651
    eigenvectors:
  0.003  0.015  0.462  0.001  0.519
  0.000  0.974  0.025  0.001  0.000
  0.980  0.000  0.001  0.016  0.003
  0.000  0.010  0.512  0.001  0.476
  0.016  0.001  0.000  0.981  0.002
    occupations:
  0.569  0.007  0.016 -0.084  0.005
  0.007  0.445  0.002  0.002 -0.003
  0.016  0.002  0.326 -0.010 -0.029
 -0.084  0.002 -0.010  0.563 -0.003
  0.005 -0.003 -0.029 -0.003  0.555
atom   17   Tr[ns(na)] =   5.03695
    eigenvalues: 
  0.324  0.438  0.494  0.558  0.705
    eigenvectors:
  0.000  0.000  0.959  0.008  0.034
  0.000  0.000  0.009  0.990  0.001
  1.000  0.000  0.000  0.000  0.000
  0.000  0.000  0.033  0.002  0.966
  0.000  1.000  0.000  0.000  0.000
    occupations:
  0.501 -0.007  0.001 -0.038  0.000
 -0.007  0.558  0.005  0.003  0.000
  0.001  0.005  0.324  0.000  0.000
 -0.038  0.003  0.000  0.697  0.000
  0.000  0.000  0.000  0.000  0.438
atom   22   Tr[ns(na)] =   5.03365
    eigenvalues: 
  0.346  0.471  0.481  0.496  0.723
    eigenvectors:
  0.000  0.000  0.004  0.323  0.673
  0.000  0.000  0.987  0.013  0.000
  0.974  0.026  0.000  0.000  0.000
  0.000  0.000  0.009  0.663  0.327
  0.026  0.974  0.000  0.000  0.000
    occupations:
  0.649  0.001  0.000 -0.107  0.000
  0.001  0.482 -0.000  0.001  0.000
  0.000 -0.000  0.349 -0.000 -0.020
 -0.107  0.001 -0.000  0.570 -0.000
  0.000  0.000 -0.020 -0.000  0.467
atom   23   Tr[ns(na)] =   4.81959
    eigenvalues: 
  0.374  0.422  0.429  0.524  0.661
    eigenvectors:
  0.000  0.000  0.001  0.915  0.084
  0.000  0.001  0.998  0.001  0.000
  0.995  0.005  0.000  0.000  0.000
  0.000  0.000  0.000  0.084  0.916
  0.005  0.994  0.001  0.000  0.000
    occupations:
  0.535 -0.002  0.000 -0.038 -0.000
 -0.002  0.429  0.000 -0.002  0.000
  0.000  0.000  0.375 -0.000  0.003
 -0.038 -0.002 -0.000  0.649 -0.000
 -0.000  0.000  0.003 -0.000  0.422
N of occupied +U levels =  38.9050721
 --- exit write_ns ---

     negative rho (up, down):  0.250E-02 0.000E+00

     total cpu time spent up to now is      433.1 secs

     total energy              =   -1727.25649337 Ry
     Harris-Foulkes estimate   =   -1729.70105718 Ry
     estimated scf accuracy    <       8.79680322 Ry

     iteration #  2     ecut=    40.00 Ry     beta=0.20
     Davidson diagonalization with overlap
     ethr =  3.82E-03,  avg # of iterations =  1.0

     negative rho (up, down):  0.268E-02 0.000E+00

     total cpu time spent up to now is      596.8 secs

     total energy              =   -1727.77159333 Ry
     Harris-Foulkes estimate   =   -1728.12755623 Ry
     estimated scf accuracy    <       1.55713135 Ry

     iteration #  3     ecut=    40.00 Ry     beta=0.20
     Davidson diagonalization with overlap
     ethr =  6.77E-04,  avg # of iterations =  3.2

     negative rho (up, down):  0.278E-02 0.000E+00

     total cpu time spent up to now is      769.7 secs

     total energy              =   -1727.89626823 Ry
     Harris-Foulkes estimate   =   -1728.00379827 Ry
     estimated scf accuracy    <       0.94523355 Ry

     iteration #  4     ecut=    40.00 Ry     beta=0.20
     Davidson diagonalization with overlap
     ethr =  4.11E-04,  avg # of iterations =  3.1

     negative rho (up, down):  0.290E-02 0.000E+00

     total cpu time spent up to now is      952.0 secs

     total energy              =   -1727.97645088 Ry
     Harris-Foulkes estimate   =   -1727.98675700 Ry
     estimated scf accuracy    <       0.41453577 Ry

     iteration #  5     ecut=    40.00 Ry     beta=0.20
     Davidson diagonalization with overlap
     ethr =  1.80E-04,  avg # of iterations =  5.3

     negative rho (up, down):  0.309E-02 0.000E+00

     total cpu time spent up to now is     1132.8 secs

     total energy              =   -1727.99136303 Ry
     Harris-Foulkes estimate   =   -1728.00748475 Ry
     estimated scf accuracy    <       0.43529770 Ry

     iteration #  6     ecut=    40.00 Ry     beta=0.20
     Davidson diagonalization with overlap
     ethr =  1.80E-04,  avg # of iterations =  5.1

     negative rho (up, down):  0.480E-02 0.000E+00

     total cpu time spent up to now is     1323.6 secs

     total energy              =   -1728.03455491 Ry
     Harris-Foulkes estimate   =   -1728.02568515 Ry
     estimated scf accuracy    <       0.19875687 Ry

     iteration #  7     ecut=    40.00 Ry     beta=0.20
     Davidson diagonalization with overlap
     ethr =  8.64E-05,  avg # of iterations =  7.3

     negative rho (up, down):  0.492E-02 0.000E+00

     total cpu time spent up to now is     1518.4 secs

     total energy              =   -1728.05183791 Ry
     Harris-Foulkes estimate   =   -1728.04789461 Ry
     estimated scf accuracy    <       0.03311022 Ry

     iteration #  8     ecut=    40.00 Ry     beta=0.20
     Davidson diagonalization with overlap
     ethr =  1.44E-05,  avg # of iterations =  3.3

     negative rho (up, down):  0.516E-02 0.000E+00

     total cpu time spent up to now is     1704.5 secs

     total energy              =   -1728.05784854 Ry
     Harris-Foulkes estimate   =   -1728.05398086 Ry
     estimated scf accuracy    <       0.01901097 Ry

     iteration #  9     ecut=    40.00 Ry     beta=0.20
     Davidson diagonalization with overlap
     ethr =  8.27E-06,  avg # of iterations =  1.0

     negative rho (up, down):  0.497E-02 0.000E+00

     total cpu time spent up to now is     1868.1 secs

     total energy              =   -1728.06040062 Ry
     Harris-Foulkes estimate   =   -1728.05871791 Ry
     estimated scf accuracy    <       0.00814194 Ry

     iteration # 10     ecut=    40.00 Ry     beta=0.20
     Davidson diagonalization with overlap
     ethr =  3.54E-06,  avg # of iterations =  2.1

     negative rho (up, down):  0.462E-02 0.000E+00

     total cpu time spent up to now is     2034.8 secs

     total energy              =   -1728.06202346 Ry
     Harris-Foulkes estimate   =   -1728.06094212 Ry
     estimated scf accuracy    <       0.00351705 Ry

     iteration # 11     ecut=    40.00 Ry     beta=0.20
     Davidson diagonalization with overlap
     ethr =  1.53E-06,  avg # of iterations =  6.7

     negative rho (up, down):  0.432E-02 0.000E+00

     total cpu time spent up to now is     2230.5 secs

     total energy              =   -1728.06308523 Ry
     Harris-Foulkes estimate   =   -1728.06230634 Ry
     estimated scf accuracy    <       0.00206166 Ry

     iteration # 12     ecut=    40.00 Ry     beta=0.20
     Davidson diagonalization with overlap
     ethr =  8.96E-07,  avg # of iterations =  1.2

     negative rho (up, down):  0.408E-02 0.000E+00

     total cpu time spent up to now is     2394.6 secs

     total energy              =   -1728.06374141 Ry
     Harris-Foulkes estimate   =   -1728.06334713 Ry
     estimated scf accuracy    <       0.00112893 Ry

     iteration # 13     ecut=    40.00 Ry     beta=0.20
     Davidson diagonalization with overlap
     ethr =  4.91E-07,  avg # of iterations =  1.0

     negative rho (up, down):  0.390E-02 0.000E+00

     total cpu time spent up to now is     2556.6 secs

     total energy              =   -1728.06412758 Ry
     Harris-Foulkes estimate   =   -1728.06388716 Ry
     estimated scf accuracy    <       0.00054950 Ry

     iteration # 14     ecut=    40.00 Ry     beta=0.20
     Davidson diagonalization with overlap
     ethr =  2.39E-07,  avg # of iterations =  1.0

     negative rho (up, down):  0.380E-02 0.000E+00

     total cpu time spent up to now is     2722.9 secs

     total energy              =   -1728.06433952 Ry
     Harris-Foulkes estimate   =   -1728.06421520 Ry
     estimated scf accuracy    <       0.00027625 Ry

     iteration # 15     ecut=    40.00 Ry     beta=0.20
     Davidson diagonalization with overlap
     ethr =  1.20E-07,  avg # of iterations =  1.0

     negative rho (up, down):  0.373E-02 0.000E+00

     total cpu time spent up to now is     2885.1 secs

     total energy              =   -1728.06446194 Ry
     Harris-Foulkes estimate   =   -1728.06440801 Ry
     estimated scf accuracy    <       0.00013610 Ry

     iteration # 16     ecut=    40.00 Ry     beta=0.20
     Davidson diagonalization with overlap
     ethr =  5.92E-08,  avg # of iterations =  2.0

     negative rho (up, down):  0.369E-02 0.000E+00

     total cpu time spent up to now is     3051.9 secs

     total energy              =   -1728.06454513 Ry
     Harris-Foulkes estimate   =   -1728.06452101 Ry
     estimated scf accuracy    <       0.00006993 Ry

     iteration # 17     ecut=    40.00 Ry     beta=0.20
     Davidson diagonalization with overlap
     ethr =  3.04E-08,  avg # of iterations =  1.0

     negative rho (up, down):  0.365E-02 0.000E+00

     total cpu time spent up to now is     3214.2 secs

     total energy              =   -1728.06457111 Ry
     Harris-Foulkes estimate   =   -1728.06455576 Ry
     estimated scf accuracy    <       0.00003173 Ry

     iteration # 18     ecut=    40.00 Ry     beta=0.20
     Davidson diagonalization with overlap
     ethr =  1.38E-08,  avg # of iterations =  1.0

     negative rho (up, down):  0.364E-02 0.000E+00

     total cpu time spent up to now is     3376.8 secs

     total energy              =   -1728.06458560 Ry
     Harris-Foulkes estimate   =   -1728.06458056 Ry
     estimated scf accuracy    <       0.00002125 Ry

     iteration # 19     ecut=    40.00 Ry     beta=0.20
     Davidson diagonalization with overlap
     ethr =  9.24E-09,  avg # of iterations =  1.0

     negative rho (up, down):  0.363E-02 0.000E+00

     total cpu time spent up to now is     3538.4 secs

     total energy              =   -1728.06459426 Ry
     Harris-Foulkes estimate   =   -1728.06458777 Ry
     estimated scf accuracy    <       0.00001716 Ry

     iteration # 20     ecut=    40.00 Ry     beta=0.20
     Davidson diagonalization with overlap
     ethr =  7.46E-09,  avg # of iterations =  1.0

     negative rho (up, down):  0.363E-02 0.000E+00

     total cpu time spent up to now is     3707.1 secs

     total energy              =   -1728.06460302 Ry
     Harris-Foulkes estimate   =   -1728.06459610 Ry
     estimated scf accuracy    <       0.00001297 Ry

     iteration # 21     ecut=    40.00 Ry     beta=0.20
     Davidson diagonalization with overlap
     ethr =  5.64E-09,  avg # of iterations =  1.0

     negative rho (up, down):  0.363E-02 0.000E+00

     total cpu time spent up to now is     3884.1 secs

     total energy              =   -1728.06461217 Ry
     Harris-Foulkes estimate   =   -1728.06460743 Ry
     estimated scf accuracy    <       0.00001080 Ry

     iteration # 22     ecut=    40.00 Ry     beta=0.20
     Davidson diagonalization with overlap
     ethr =  4.69E-09,  avg # of iterations =  1.0

     negative rho (up, down):  0.363E-02 0.000E+00

     total cpu time spent up to now is     4059.2 secs

     total energy              =   -1728.06461873 Ry
     Harris-Foulkes estimate   =   -1728.06461395 Ry
     estimated scf accuracy    <       0.00000827 Ry

     iteration # 23     ecut=    40.00 Ry     beta=0.20
     Davidson diagonalization with overlap
     ethr =  3.60E-09,  avg # of iterations =  1.0

     negative rho (up, down):  0.363E-02 0.000E+00

     total cpu time spent up to now is     4230.4 secs

     total energy              =   -1728.06462543 Ry
     Harris-Foulkes estimate   =   -1728.06462126 Ry
     estimated scf accuracy    <       0.00000931 Ry

     iteration # 24     ecut=    40.00 Ry     beta=0.20
     Davidson diagonalization with overlap
     ethr =  3.60E-09,  avg # of iterations =  1.0

     negative rho (up, down):  0.363E-02 0.000E+00

     total cpu time spent up to now is     4395.7 secs

     total energy              =   -1728.06463171 Ry
     Harris-Foulkes estimate   =   -1728.06462876 Ry
     estimated scf accuracy    <       0.00000766 Ry

     iteration # 25     ecut=    40.00 Ry     beta=0.20
     Davidson diagonalization with overlap
     ethr =  3.33E-09,  avg # of iterations =  1.0

     negative rho (up, down):  0.363E-02 0.000E+00

     total cpu time spent up to now is     4558.7 secs

     total energy              =   -1728.06463544 Ry
     Harris-Foulkes estimate   =   -1728.06463260 Ry
     estimated scf accuracy    <       0.00000816 Ry

     iteration # 26     ecut=    40.00 Ry     beta=0.20
     Davidson diagonalization with overlap
     ethr =  3.33E-09,  avg # of iterations =  1.0

     negative rho (up, down):  0.363E-02 0.000E+00

     total cpu time spent up to now is     4721.6 secs

     total energy              =   -1728.06463736 Ry
     Harris-Foulkes estimate   =   -1728.06463623 Ry
     estimated scf accuracy    <       0.00000786 Ry

     iteration # 27     ecut=    40.00 Ry     beta=0.20
     Davidson diagonalization with overlap
     ethr =  3.33E-09,  avg # of iterations =  1.0

     negative rho (up, down):  0.363E-02 0.000E+00

     total cpu time spent up to now is     4888.4 secs

     total energy              =   -1728.06463437 Ry
     Harris-Foulkes estimate   =   -1728.06463746 Ry
     estimated scf accuracy    <       0.00000787 Ry

     iteration # 28     ecut=    40.00 Ry     beta=0.20
     Davidson diagonalization with overlap
     ethr =  3.33E-09,  avg # of iterations =  1.0

     negative rho (up, down):  0.363E-02 0.000E+00

     total cpu time spent up to now is     5053.6 secs

     total energy              =   -1728.06463045 Ry
     Harris-Foulkes estimate   =   -1728.06463480 Ry
     estimated scf accuracy    <       0.00000786 Ry

     iteration # 29     ecut=    40.00 Ry     beta=0.20
     Davidson diagonalization with overlap
     ethr =  3.33E-09,  avg # of iterations =  1.0

     negative rho (up, down):  0.363E-02 0.000E+00

     total cpu time spent up to now is     5217.7 secs

     total energy              =   -1728.06463375 Ry
     Harris-Foulkes estimate   =   -1728.06463122 Ry
     estimated scf accuracy    <       0.00000787 Ry

     iteration # 30     ecut=    40.00 Ry     beta=0.20
     Davidson diagonalization with overlap
     ethr =  3.33E-09,  avg # of iterations =  1.0

     negative rho (up, down):  0.363E-02 0.000E+00

     total cpu time spent up to now is     5379.9 secs

     total energy              =   -1728.06462981 Ry
     Harris-Foulkes estimate   =   -1728.06463430 Ry
     estimated scf accuracy    <       0.00000783 Ry

     iteration # 31     ecut=    40.00 Ry     beta=0.20
     Davidson diagonalization with overlap
     ethr =  3.33E-09,  avg # of iterations =  2.0

     negative rho (up, down):  0.363E-02 0.000E+00

     total cpu time spent up to now is     5548.8 secs

     total energy              =   -1728.06465570 Ry
     Harris-Foulkes estimate   =   -1728.06465477 Ry
     estimated scf accuracy    <       0.00000788 Ry

     iteration # 32     ecut=    40.00 Ry     beta=0.20
     Davidson diagonalization with overlap
     ethr =  3.33E-09,  avg # of iterations =  2.0

     negative rho (up, down):  0.363E-02 0.000E+00

     total cpu time spent up to now is     5718.5 secs

     total energy              =   -1728.06467360 Ry
     Harris-Foulkes estimate   =   -1728.06466960 Ry
     estimated scf accuracy    <       0.00000667 Ry

     iteration # 33     ecut=    40.00 Ry     beta=0.20
     Davidson diagonalization with overlap
     ethr =  2.90E-09,  avg # of iterations =  2.0

     negative rho (up, down):  0.363E-02 0.000E+00

     total cpu time spent up to now is     5884.4 secs

     total energy              =   -1728.06466654 Ry
     Harris-Foulkes estimate   =   -1728.06467781 Ry
     estimated scf accuracy    <       0.00000763 Ry

     iteration # 34     ecut=    40.00 Ry     beta=0.20
     Davidson diagonalization with overlap
     ethr =  2.90E-09,  avg # of iterations =  1.2

     negative rho (up, down):  0.363E-02 0.000E+00

     total cpu time spent up to now is     6046.1 secs

     total energy              =   -1728.06466388 Ry
     Harris-Foulkes estimate   =   -1728.06467020 Ry
     estimated scf accuracy    <       0.00000703 Ry

     iteration # 35     ecut=    40.00 Ry     beta=0.20
     Davidson diagonalization with overlap
     ethr =  2.90E-09,  avg # of iterations =  1.0

     negative rho (up, down):  0.363E-02 0.000E+00

     total cpu time spent up to now is     6205.9 secs

     total energy              =   -1728.06466789 Ry
     Harris-Foulkes estimate   =   -1728.06466535 Ry
     estimated scf accuracy    <       0.00000738 Ry

     iteration # 36     ecut=    40.00 Ry     beta=0.20
     Davidson diagonalization with overlap
     ethr =  2.90E-09,  avg # of iterations =  2.0

     negative rho (up, down):  0.363E-02 0.000E+00

     total cpu time spent up to now is     6373.7 secs

     total energy              =   -1728.06467363 Ry
     Harris-Foulkes estimate   =   -1728.06467835 Ry
     estimated scf accuracy    <       0.00000760 Ry

     iteration # 37     ecut=    40.00 Ry     beta=0.20
     Davidson diagonalization with overlap
     ethr =  2.90E-09,  avg # of iterations =  1.0

     negative rho (up, down):  0.363E-02 0.000E+00

     total cpu time spent up to now is     6533.8 secs

     total energy              =   -1728.06467169 Ry
     Harris-Foulkes estimate   =   -1728.06467456 Ry
     estimated scf accuracy    <       0.00000753 Ry

     iteration # 38     ecut=    40.00 Ry     beta=0.20
     Davidson diagonalization with overlap
     ethr =  2.90E-09,  avg # of iterations =  1.0

     negative rho (up, down):  0.363E-02 0.000E+00

     total cpu time spent up to now is     6694.9 secs

     total energy              =   -1728.06467601 Ry
     Harris-Foulkes estimate   =   -1728.06467210 Ry
     estimated scf accuracy    <       0.00000757 Ry

     iteration # 39     ecut=    40.00 Ry     beta=0.20
     Davidson diagonalization with overlap
     ethr =  2.90E-09,  avg # of iterations =  1.0

     negative rho (up, down):  0.363E-02 0.000E+00

     total cpu time spent up to now is     6855.7 secs

     total energy              =   -1728.06467455 Ry
     Harris-Foulkes estimate   =   -1728.06467951 Ry
     estimated scf accuracy    <       0.00000768 Ry

     iteration # 40     ecut=    40.00 Ry     beta=0.20
     Davidson diagonalization with overlap
     ethr =  2.90E-09,  avg # of iterations =  1.0

     negative rho (up, down):  0.364E-02 0.000E+00

     total cpu time spent up to now is     7016.6 secs

     total energy              =   -1728.06441647 Ry
     Harris-Foulkes estimate   =   -1728.06467555 Ry
     estimated scf accuracy    <       0.00000763 Ry

     iteration # 41     ecut=    40.00 Ry     beta=0.20
     Davidson diagonalization with overlap
     ethr =  2.90E-09,  avg # of iterations =  3.0

     negative rho (up, down):  0.364E-02 0.000E+00

     total cpu time spent up to now is     7201.2 secs

     total energy              =   -1728.06460132 Ry
     Harris-Foulkes estimate   =   -1728.06461913 Ry
     estimated scf accuracy    <       0.00000793 Ry

     iteration # 42     ecut=    40.00 Ry     beta=0.20
     Davidson diagonalization with overlap
     ethr =  2.90E-09,  avg # of iterations =  2.0

     negative rho (up, down):  0.363E-02 0.000E+00

     total cpu time spent up to now is     7368.5 secs

     total energy              =   -1728.06452899 Ry
     Harris-Foulkes estimate   =   -1728.06460852 Ry
     estimated scf accuracy    <       0.00000704 Ry

     iteration # 43     ecut=    40.00 Ry     beta=0.20
     Davidson diagonalization with overlap
     ethr =  2.90E-09,  avg # of iterations =  3.0

     negative rho (up, down):  0.364E-02 0.000E+00

     total cpu time spent up to now is     7548.7 secs

     total energy              =   -1728.06452588 Ry
     Harris-Foulkes estimate   =   -1728.06465250 Ry
     estimated scf accuracy    <       0.00000768 Ry

     iteration # 44     ecut=    40.00 Ry     beta=0.20
     Davidson diagonalization with overlap
     ethr =  2.90E-09,  avg # of iterations =  3.0

     negative rho (up, down):  0.364E-02 0.000E+00

     total cpu time spent up to now is     7729.4 secs

     total energy              =   -1728.06460241 Ry
     Harris-Foulkes estimate   =   -1728.06461527 Ry
     estimated scf accuracy    <       0.00000740 Ry

     iteration # 45     ecut=    40.00 Ry     beta=0.20
     Davidson diagonalization with overlap
     ethr =  2.90E-09,  avg # of iterations =  2.0

     negative rho (up, down):  0.364E-02 0.000E+00

     total cpu time spent up to now is     7899.6 secs

     total energy              =   -1728.06460444 Ry
     Harris-Foulkes estimate   =   -1728.06460698 Ry
     estimated scf accuracy    <       0.00000772 Ry

     iteration # 46     ecut=    40.00 Ry     beta=0.20
     Davidson diagonalization with overlap
     ethr =  2.90E-09,  avg # of iterations =  1.0

     negative rho (up, down):  0.364E-02 0.000E+00

     total cpu time spent up to now is     8064.2 secs

     total energy              =   -1728.06460767 Ry
     Harris-Foulkes estimate   =   -1728.06460477 Ry
     estimated scf accuracy    <       0.00000808 Ry

     iteration # 47     ecut=    40.00 Ry     beta=0.20
     Davidson diagonalization with overlap
     ethr =  2.90E-09,  avg # of iterations =  1.0

     negative rho (up, down):  0.364E-02 0.000E+00

     total cpu time spent up to now is     8231.1 secs

     total energy              =   -1728.06461078 Ry
     Harris-Foulkes estimate   =   -1728.06460906 Ry
     estimated scf accuracy    <       0.00000808 Ry

     iteration # 48     ecut=    40.00 Ry     beta=0.20
     Davidson diagonalization with overlap
     ethr =  2.90E-09,  avg # of iterations =  2.0

     negative rho (up, down):  0.364E-02 0.000E+00

     total cpu time spent up to now is     8402.5 secs

     total energy              =   -1728.06461617 Ry
     Harris-Foulkes estimate   =   -1728.06462252 Ry
     estimated scf accuracy    <       0.00000775 Ry

     iteration # 49     ecut=    40.00 Ry     beta=0.20
     Davidson diagonalization with overlap
     ethr =  2.90E-09,  avg # of iterations =  1.0

     negative rho (up, down):  0.364E-02 0.000E+00

     total cpu time spent up to now is     8561.3 secs

     total energy              =   -1728.06455667 Ry
     Harris-Foulkes estimate   =   -1728.06461780 Ry
     estimated scf accuracy    <       0.00000735 Ry

     iteration # 50     ecut=    40.00 Ry     beta=0.20
     Davidson diagonalization with overlap
     ethr =  2.90E-09,  avg # of iterations =  2.1

     negative rho (up, down):  0.364E-02 0.000E+00

     total cpu time spent up to now is     8733.8 secs

     total energy              =   -1728.06459228 Ry
     Harris-Foulkes estimate   =   -1728.06459420 Ry
     estimated scf accuracy    <       0.00000735 Ry

     iteration # 51     ecut=    40.00 Ry     beta=0.20
     Davidson diagonalization with overlap
     ethr =  2.90E-09,  avg # of iterations =  1.0

     negative rho (up, down):  0.364E-02 0.000E+00

     total cpu time spent up to now is     8896.0 secs

     total energy              =   -1728.06446710 Ry
     Harris-Foulkes estimate   =   -1728.06459289 Ry
     estimated scf accuracy    <       0.00000698 Ry

     iteration # 52     ecut=    40.00 Ry     beta=0.20
     Davidson diagonalization with overlap
     ethr =  2.90E-09,  avg # of iterations =  2.9

     negative rho (up, down):  0.364E-02 0.000E+00

     total cpu time spent up to now is     9075.8 secs

     total energy              =   -1728.06455775 Ry
     Harris-Foulkes estimate   =   -1728.06455765 Ry
     estimated scf accuracy    <       0.00000596 Ry

     iteration # 53     ecut=    40.00 Ry     beta=0.20
     Davidson diagonalization with overlap
     ethr =  2.59E-09,  avg # of iterations =  1.0

     negative rho (up, down):  0.364E-02 0.000E+00

     total cpu time spent up to now is     9242.5 secs

     total energy              =   -1728.06436636 Ry
     Harris-Foulkes estimate   =   -1728.06455798 Ry
     estimated scf accuracy    <       0.00000680 Ry

     iteration # 54     ecut=    40.00 Ry     beta=0.20
     Davidson diagonalization with overlap
     ethr =  2.59E-09,  avg # of iterations =  3.0

     negative rho (up, down):  0.364E-02 0.000E+00

     total cpu time spent up to now is     9441.5 secs

     total energy              =   -1728.06450491 Ry
     Harris-Foulkes estimate   =   -1728.06451551 Ry
     estimated scf accuracy    <       0.00000607 Ry

     iteration # 55     ecut=    40.00 Ry     beta=0.20
     Davidson diagonalization with overlap
     ethr =  2.59E-09,  avg # of iterations =  2.0

     negative rho (up, down):  0.364E-02 0.000E+00

     total cpu time spent up to now is     9618.1 secs

     total energy              =   -1728.06407251 Ry
     Harris-Foulkes estimate   =   -1728.06453422 Ry
     estimated scf accuracy    <       0.00000811 Ry

     iteration # 56     ecut=    40.00 Ry     beta=0.20
     Davidson diagonalization with overlap
     ethr =  2.59E-09,  avg # of iterations =  3.0

     negative rho (up, down):  0.364E-02 0.000E+00

     total cpu time spent up to now is     9809.0 secs

     total energy              =   -1728.06446723 Ry
     Harris-Foulkes estimate   =   -1728.06446936 Ry
     estimated scf accuracy    <       0.00001161 Ry

     iteration # 57     ecut=    40.00 Ry     beta=0.20
     Davidson diagonalization with overlap
     ethr =  2.59E-09,  avg # of iterations =  1.0

     negative rho (up, down):  0.364E-02 0.000E+00

     total cpu time spent up to now is     9973.3 secs

     total energy              =   -1728.06444845 Ry
     Harris-Foulkes estimate   =   -1728.06446772 Ry
     estimated scf accuracy    <       0.00001046 Ry

     iteration # 58     ecut=    40.00 Ry     beta=0.20
     Davidson diagonalization with overlap
     ethr =  2.59E-09,  avg # of iterations =  2.0

     negative rho (up, down):  0.365E-02 0.000E+00

     total cpu time spent up to now is    10144.7 secs

     total energy              =   -1728.06407093 Ry
     Harris-Foulkes estimate   =   -1728.06446062 Ry
     estimated scf accuracy    <       0.00000544 Ry

     iteration # 59     ecut=    40.00 Ry     beta=0.20
     Davidson diagonalization with overlap
     ethr =  2.37E-09,  avg # of iterations =  3.0

     negative rho (up, down):  0.364E-02 0.000E+00

     total cpu time spent up to now is    10332.6 secs

     total energy              =   -1728.06440172 Ry
     Harris-Foulkes estimate   =   -1728.06441029 Ry
     estimated scf accuracy    <       0.00002743 Ry

     iteration # 60     ecut=    40.00 Ry     beta=0.20
     Davidson diagonalization with overlap
     ethr =  2.37E-09,  avg # of iterations =  2.0

     negative rho (up, down):  0.364E-02 0.000E+00

     total cpu time spent up to now is    10501.2 secs

     total energy              =   -1728.06433307 Ry
     Harris-Foulkes estimate   =   -1728.06442142 Ry
     estimated scf accuracy    <       0.00002091 Ry

     iteration # 61     ecut=    40.00 Ry     beta=0.20
     Davidson diagonalization with overlap
     ethr =  2.37E-09,  avg # of iterations =  3.0

     negative rho (up, down):  0.364E-02 0.000E+00

     total cpu time spent up to now is    10684.0 secs

     total energy              =   -1728.06371262 Ry
     Harris-Foulkes estimate   =   -1728.06445211 Ry
     estimated scf accuracy    <       0.00000574 Ry

     iteration # 62     ecut=    40.00 Ry     beta=0.20
     Davidson diagonalization with overlap
     ethr =  2.37E-09,  avg # of iterations =  3.0

     negative rho (up, down):  0.364E-02 0.000E+00

     total cpu time spent up to now is    10873.0 secs

     total energy              =   -1728.06423791 Ry
     Harris-Foulkes estimate   =   -1728.06438386 Ry
     estimated scf accuracy    <       0.00006494 Ry

     iteration # 63     ecut=    40.00 Ry     beta=0.20
     Davidson diagonalization with overlap
     ethr =  2.37E-09,  avg # of iterations =  3.0

     negative rho (up, down):  0.364E-02 0.000E+00

     total cpu time spent up to now is    11057.4 secs

     total energy              =   -1728.06433039 Ry
     Harris-Foulkes estimate   =   -1728.06441882 Ry
     estimated scf accuracy    <       0.00001988 Ry

     iteration # 64     ecut=    40.00 Ry     beta=0.20
     Davidson diagonalization with overlap
     ethr =  2.37E-09,  avg # of iterations =  3.0

     negative rho (up, down):  0.364E-02 0.000E+00

     total cpu time spent up to now is    11241.9 secs

     total energy              =   -1728.06435273 Ry
     Harris-Foulkes estimate   =   -1728.06444771 Ry
     estimated scf accuracy    <       0.00000881 Ry

     iteration # 65     ecut=    40.00 Ry     beta=0.20
     Davidson diagonalization with overlap
     ethr =  2.37E-09,  avg # of iterations =  3.0

     negative rho (up, down):  0.364E-02 0.000E+00

     total cpu time spent up to now is    11428.1 secs

     total energy              =   -1728.06437611 Ry
     Harris-Foulkes estimate   =   -1728.06442612 Ry
     estimated scf accuracy    <       0.00000758 Ry

     iteration # 66     ecut=    40.00 Ry     beta=0.20
     Davidson diagonalization with overlap
     ethr =  2.37E-09,  avg # of iterations =  2.7

     negative rho (up, down):  0.364E-02 0.000E+00

     total cpu time spent up to now is    11606.9 secs

     total energy              =   -1728.06435843 Ry
     Harris-Foulkes estimate   =   -1728.06441216 Ry
     estimated scf accuracy    <       0.00000749 Ry

     iteration # 67     ecut=    40.00 Ry     beta=0.20
     Davidson diagonalization with overlap
     ethr =  2.37E-09,  avg # of iterations =  2.7

     negative rho (up, down):  0.364E-02 0.000E+00

     total cpu time spent up to now is    11786.5 secs

     total energy              =   -1728.06439732 Ry
     Harris-Foulkes estimate   =   -1728.06439792 Ry
     estimated scf accuracy    <       0.00000801 Ry

     iteration # 68     ecut=    40.00 Ry     beta=0.20
     Davidson diagonalization with overlap
     ethr =  2.37E-09,  avg # of iterations =  1.0

     negative rho (up, down):  0.364E-02 0.000E+00

     total cpu time spent up to now is    11951.3 secs

     total energy              =   -1728.06439876 Ry
     Harris-Foulkes estimate   =   -1728.06439738 Ry
     estimated scf accuracy    <       0.00000858 Ry

     iteration # 69     ecut=    40.00 Ry     beta=0.20
     Davidson diagonalization with overlap
     ethr =  2.37E-09,  avg # of iterations =  1.0

     negative rho (up, down):  0.364E-02 0.000E+00

     total cpu time spent up to now is    12115.9 secs

     total energy              =   -1728.06440060 Ry
     Harris-Foulkes estimate   =   -1728.06439987 Ry
     estimated scf accuracy    <       0.00000798 Ry

     iteration # 70     ecut=    40.00 Ry     beta=0.20
     Davidson diagonalization with overlap
     ethr =  2.37E-09,  avg # of iterations =  1.6

     negative rho (up, down):  0.364E-02 0.000E+00

     total cpu time spent up to now is    12286.1 secs

     total energy              =   -1728.06439428 Ry
     Harris-Foulkes estimate   =   -1728.06440348 Ry
     estimated scf accuracy    <       0.00000576 Ry

     iteration # 71     ecut=    40.00 Ry     beta=0.20
     Davidson diagonalization with overlap
     ethr =  2.37E-09,  avg # of iterations =  2.0

     negative rho (up, down):  0.364E-02 0.000E+00

     total cpu time spent up to now is    12461.9 secs

     total energy              =   -1728.06435292 Ry
     Harris-Foulkes estimate   =   -1728.06441416 Ry
     estimated scf accuracy    <       0.00000281 Ry

     iteration # 72     ecut=    40.00 Ry     beta=0.20
     Davidson diagonalization with overlap
     ethr =  1.22E-09,  avg # of iterations =  3.0

     negative rho (up, down):  0.364E-02 0.000E+00

     total cpu time spent up to now is    12651.8 secs

     total energy              =   -1728.06436997 Ry
     Harris-Foulkes estimate   =   -1728.06439925 Ry
     estimated scf accuracy    <       0.00000313 Ry

     iteration # 73     ecut=    40.00 Ry     beta=0.20
     Davidson diagonalization with overlap
     ethr =  1.22E-09,  avg # of iterations =  2.7

     negative rho (up, down):  0.364E-02 0.000E+00

     total cpu time spent up to now is    12832.4 secs

     total energy              =   -1728.06427369 Ry
     Harris-Foulkes estimate   =   -1728.06439095 Ry
     estimated scf accuracy    <       0.00000220 Ry

     iteration # 74     ecut=    40.00 Ry     beta=0.20
     Davidson diagonalization with overlap
     ethr =  9.57E-10,  avg # of iterations =  3.0

     negative rho (up, down):  0.364E-02 0.000E+00

     total cpu time spent up to now is    13025.1 secs

     total energy              =   -1728.06436948 Ry
     Harris-Foulkes estimate   =   -1728.06437233 Ry
     estimated scf accuracy    <       0.00000223 Ry

     iteration # 75     ecut=    40.00 Ry     beta=0.20
     Davidson diagonalization with overlap
     ethr =  9.57E-10,  avg # of iterations =  1.0

     negative rho (up, down):  0.364E-02 0.000E+00

     total cpu time spent up to now is    13193.4 secs

     total energy              =   -1728.06437051 Ry
     Harris-Foulkes estimate   =   -1728.06437043 Ry
     estimated scf accuracy    <       0.00000236 Ry

     iteration # 76     ecut=    40.00 Ry     beta=0.20
     Davidson diagonalization with overlap
     ethr =  9.57E-10,  avg # of iterations =  1.0

     negative rho (up, down):  0.364E-02 0.000E+00

     total cpu time spent up to now is    13361.6 secs

     total energy              =   -1728.06435545 Ry
     Harris-Foulkes estimate   =   -1728.06437073 Ry
     estimated scf accuracy    <       0.00000345 Ry

     iteration # 77     ecut=    40.00 Ry     beta=0.20
     Davidson diagonalization with overlap
     ethr =  9.57E-10,  avg # of iterations =  2.0

     negative rho (up, down):  0.364E-02 0.000E+00

     total cpu time spent up to now is    13538.3 secs

     total energy              =   -1728.06434860 Ry
     Harris-Foulkes estimate   =   -1728.06436510 Ry
     estimated scf accuracy    <       0.00000318 Ry

     iteration # 78     ecut=    40.00 Ry     beta=0.20
     Davidson diagonalization with overlap
     ethr =  9.57E-10,  avg # of iterations =  2.1

     negative rho (up, down):  0.364E-02 0.000E+00

     total cpu time spent up to now is    13716.3 secs

     total energy              =   -1728.06435039 Ry
     Harris-Foulkes estimate   =   -1728.06435919 Ry
     estimated scf accuracy    <       0.00000340 Ry

     iteration # 79     ecut=    40.00 Ry     beta=0.20
     Davidson diagonalization with overlap
     ethr =  9.57E-10,  avg # of iterations =  2.6

     negative rho (up, down):  0.364E-02 0.000E+00

     total cpu time spent up to now is    13897.5 secs

     total energy              =   -1728.06435558 Ry
     Harris-Foulkes estimate   =   -1728.06436673 Ry
     estimated scf accuracy    <       0.00000357 Ry

     iteration # 80     ecut=    40.00 Ry     beta=0.20
     Davidson diagonalization with overlap
     ethr =  9.57E-10,  avg # of iterations =  2.8

     negative rho (up, down):  0.364E-02 0.000E+00

     total cpu time spent up to now is    14082.0 secs

     total energy              =   -1728.06437615 Ry
     Harris-Foulkes estimate   =   -1728.06437524 Ry
     estimated scf accuracy    <       0.00000209 Ry

     iteration # 81     ecut=    40.00 Ry     beta=0.20
     Davidson diagonalization with overlap
     ethr =  9.09E-10,  avg # of iterations =  1.0

     negative rho (up, down):  0.364E-02 0.000E+00

     total cpu time spent up to now is    14259.0 secs

     total energy              =   -1728.06437107 Ry
     Harris-Foulkes estimate   =   -1728.06437699 Ry
     estimated scf accuracy    <       0.00000219 Ry

     iteration # 82     ecut=    40.00 Ry     beta=0.20
     Davidson diagonalization with overlap
     ethr =  9.09E-10,  avg # of iterations =  2.0

     negative rho (up, down):  0.364E-02 0.000E+00

     total cpu time spent up to now is    14438.2 secs

     total energy              =   -1728.06437289 Ry
     Harris-Foulkes estimate   =   -1728.06437411 Ry
     estimated scf accuracy    <       0.00000217 Ry

     iteration # 83     ecut=    40.00 Ry     beta=0.20
     Davidson diagonalization with overlap
     ethr =  9.09E-10,  avg # of iterations =  2.0

     negative rho (up, down):  0.364E-02 0.000E+00

     total cpu time spent up to now is    14616.5 secs

     total energy              =   -1728.06437961 Ry
     Harris-Foulkes estimate   =   -1728.06437872 Ry
     estimated scf accuracy    <       0.00000216 Ry

     iteration # 84     ecut=    40.00 Ry     beta=0.20
     Davidson diagonalization with overlap
     ethr =  9.09E-10,  avg # of iterations =  1.0

     negative rho (up, down):  0.364E-02 0.000E+00

     total cpu time spent up to now is    14785.4 secs

     total energy              =   -1728.06437675 Ry
     Harris-Foulkes estimate   =   -1728.06438027 Ry
     estimated scf accuracy    <       0.00000209 Ry

     iteration # 85     ecut=    40.00 Ry     beta=0.20
     Davidson diagonalization with overlap
     ethr =  9.09E-10,  avg # of iterations =  2.0

     negative rho (up, down):  0.364E-02 0.000E+00

     total cpu time spent up to now is    14958.7 secs

     total energy              =   -1728.06434838 Ry
     Harris-Foulkes estimate   =   -1728.06437821 Ry
     estimated scf accuracy    <       0.00000201 Ry

     iteration # 86     ecut=    40.00 Ry     beta=0.20
     Davidson diagonalization with overlap
     ethr =  8.75E-10,  avg # of iterations =  3.0

     negative rho (up, down):  0.364E-02 0.000E+00

     total cpu time spent up to now is    15145.9 secs

     total energy              =   -1728.06414176 Ry
     Harris-Foulkes estimate   =   -1728.06437012 Ry
     estimated scf accuracy    <       0.00000173 Ry

     iteration # 87     ecut=    40.00 Ry     beta=0.20
     Davidson diagonalization with overlap
     ethr =  7.50E-10,  avg # of iterations =  3.0

     negative rho (up, down):  0.364E-02 0.000E+00

     total cpu time spent up to now is    15344.8 secs

     total energy              =   -1728.06434482 Ry
     Harris-Foulkes estimate   =   -1728.06434451 Ry
     estimated scf accuracy    <       0.00000193 Ry

     iteration # 88     ecut=    40.00 Ry     beta=0.20
     Davidson diagonalization with overlap
     ethr =  7.50E-10,  avg # of iterations =  2.0

     negative rho (up, down):  0.364E-02 0.000E+00

     total cpu time spent up to now is    15518.4 secs

     total energy              =   -1728.06434693 Ry
     Harris-Foulkes estimate   =   -1728.06434683 Ry
     estimated scf accuracy    <       0.00000254 Ry

     iteration # 89     ecut=    40.00 Ry     beta=0.20
     Davidson diagonalization with overlap
     ethr =  7.50E-10,  avg # of iterations =  1.0

     negative rho (up, down):  0.364E-02 0.000E+00

     total cpu time spent up to now is    15685.7 secs

     total energy              =   -1728.06434756 Ry
     Harris-Foulkes estimate   =   -1728.06434701 Ry
     estimated scf accuracy    <       0.00000296 Ry

     iteration # 90     ecut=    40.00 Ry     beta=0.20
     Davidson diagonalization with overlap
     ethr =  7.50E-10,  avg # of iterations =  1.0

     negative rho (up, down):  0.364E-02 0.000E+00

     total cpu time spent up to now is    15856.3 secs

     total energy              =   -1728.06434614 Ry
     Harris-Foulkes estimate   =   -1728.06434795 Ry
     estimated scf accuracy    <       0.00000258 Ry

     iteration # 91     ecut=    40.00 Ry     beta=0.20
     Davidson diagonalization with overlap
     ethr =  7.50E-10,  avg # of iterations =  1.0

     negative rho (up, down):  0.364E-02 0.000E+00

     total cpu time spent up to now is    16029.7 secs

     total energy              =   -1728.06434695 Ry
     Harris-Foulkes estimate   =   -1728.06434670 Ry
     estimated scf accuracy    <       0.00000242 Ry

     iteration # 92     ecut=    40.00 Ry     beta=0.20
     Davidson diagonalization with overlap
     ethr =  7.50E-10,  avg # of iterations =  1.0

     negative rho (up, down):  0.364E-02 0.000E+00

     total cpu time spent up to now is    16196.5 secs

     total energy              =   -1728.06429108 Ry
     Harris-Foulkes estimate   =   -1728.06434700 Ry
     estimated scf accuracy    <       0.00000238 Ry

     iteration # 93     ecut=    40.00 Ry     beta=0.20
     Davidson diagonalization with overlap
     ethr =  7.50E-10,  avg # of iterations =  3.0

     negative rho (up, down):  0.364E-02 0.000E+00

     total cpu time spent up to now is    16384.5 secs

     total energy              =   -1728.06436287 Ry
     Harris-Foulkes estimate   =   -1728.06436206 Ry
     estimated scf accuracy    <       0.00000147 Ry

     iteration # 94     ecut=    40.00 Ry     beta=0.20
     Davidson diagonalization with overlap
     ethr =  6.38E-10,  avg # of iterations =  1.0

     negative rho (up, down):  0.364E-02 0.000E+00

     total cpu time spent up to now is    16547.2 secs

     total energy              =   -1728.06436264 Ry
     Harris-Foulkes estimate   =   -1728.06436341 Ry
     estimated scf accuracy    <       0.00000151 Ry

     iteration # 95     ecut=    40.00 Ry     beta=0.20
     Davidson diagonalization with overlap
     ethr =  6.38E-10,  avg # of iterations =  1.0

     negative rho (up, down):  0.364E-02 0.000E+00

     total cpu time spent up to now is    16710.6 secs

     total energy              =   -1728.06436292 Ry
     Harris-Foulkes estimate   =   -1728.06436294 Ry
     estimated scf accuracy    <       0.00000152 Ry

     iteration # 96     ecut=    40.00 Ry     beta=0.20
     Davidson diagonalization with overlap
     ethr =  6.38E-10,  avg # of iterations =  1.0

     negative rho (up, down):  0.364E-02 0.000E+00

     total cpu time spent up to now is    16875.2 secs

     total energy              =   -1728.06435553 Ry
     Harris-Foulkes estimate   =   -1728.06436298 Ry
     estimated scf accuracy    <       0.00000151 Ry

     iteration # 97     ecut=    40.00 Ry     beta=0.20
     Davidson diagonalization with overlap
     ethr =  6.38E-10,  avg # of iterations =  2.0

     negative rho (up, down):  0.364E-02 0.000E+00

     total cpu time spent up to now is    17044.7 secs

     total energy              =   -1728.06434907 Ry
     Harris-Foulkes estimate   =   -1728.06435982 Ry
     estimated scf accuracy    <       0.00000142 Ry

     iteration # 98     ecut=    40.00 Ry     beta=0.20
     Davidson diagonalization with overlap
     ethr =  6.17E-10,  avg # of iterations =  2.0

     negative rho (up, down):  0.364E-02 0.000E+00

     total cpu time spent up to now is    17219.1 secs

     total energy              =   -1728.06435603 Ry
     Harris-Foulkes estimate   =   -1728.06435535 Ry
     estimated scf accuracy    <       0.00000155 Ry

     iteration # 99     ecut=    40.00 Ry     beta=0.20
     Davidson diagonalization with overlap
     ethr =  6.17E-10,  avg # of iterations =  2.0

     negative rho (up, down):  0.364E-02 0.000E+00

     total cpu time spent up to now is    17390.9 secs

     total energy              =   -1728.06435344 Ry
     Harris-Foulkes estimate   =   -1728.06435712 Ry
     estimated scf accuracy    <       0.00000165 Ry

     iteration #100     ecut=    40.00 Ry     beta=0.20
     Davidson diagonalization with overlap
     ethr =  6.17E-10,  avg # of iterations =  2.0

     negative rho (up, down):  0.364E-02 0.000E+00

     total cpu time spent up to now is    17572.2 secs

     total energy              =   -1728.06434133 Ry
     Harris-Foulkes estimate   =   -1728.06435497 Ry
     estimated scf accuracy    <       0.00000165 Ry

     End of self-consistent calculation

     convergence NOT achieved after 100 iterations: stopping

     init_run     :     97.65s CPU    101.07s WALL (       1 calls)
     electrons    :  16776.49s CPU  17470.25s WALL (       1 calls)

     Called by init_run:
     wfcinit      :     33.07s CPU     35.03s WALL (       1 calls)
     potinit      :      6.92s CPU      7.09s WALL (       1 calls)

     Called by electrons:
     c_bands      :   8945.32s CPU   9374.63s WALL (     100 calls)
     sum_band     :   3267.02s CPU   3402.47s WALL (     100 calls)
     v_of_rho     :     98.13s CPU    104.69s WALL (     101 calls)
     newd         :   4399.80s CPU   4417.09s WALL (     101 calls)
     mix_rho      :     20.16s CPU     21.05s WALL (     100 calls)

     Called by c_bands:
     init_us_2    :     21.83s CPU     22.00s WALL (     606 calls)
     cegterg      :   8825.61s CPU   9220.00s WALL (     300 calls)

     Called by *egterg:
     h_psi        :   5193.39s CPU   5480.92s WALL (     915 calls)
     s_psi        :    501.41s CPU    509.24s WALL (     918 calls)
     g_psi        :     11.04s CPU     11.04s WALL (     612 calls)
     cdiaghg      :    820.54s CPU    822.64s WALL (     912 calls)

     Called by h_psi:
     add_vuspsi   :    504.52s CPU    513.07s WALL (     915 calls)
     vhpsi        :    536.20s CPU    545.84s WALL (     915 calls)

     General routines
     calbec       :   1087.61s CPU   1105.39s WALL (    2433 calls)
     fft          :    111.28s CPU    132.61s WALL (    1614 calls)
     ffts         :      1.80s CPU      1.85s WALL (     201 calls)
     fftw         :   3143.72s CPU   3488.63s WALL (  537490 calls)
     interpolate  :     14.79s CPU     14.97s WALL (     201 calls)
     davcio       :      0.06s CPU      9.40s WALL (     612 calls)

     Parallel routines
     fft_scatter  :   1259.44s CPU   1621.10s WALL (  539305 calls)
     Hubbard U routines
     new_ns       :    120.23s CPU    128.26s WALL (     100 calls)
     vhpsi        :    536.20s CPU    545.84s WALL (     915 calls)

     PWSCF        :     4h41m CPU        4h53m WALL


   This run was terminated on:   2:25: 9  26May2014            

=------------------------------------------------------------------------------=
   JOB DONE.
=------------------------------------------------------------------------------=
STOP 1
STOP 1
STOP 1
STOP 1
STOP 1
STOP 1
STOP 1
STOP 1
STOP 1
STOP 1
STOP 1
STOP 1
STOP 1
STOP 1
STOP 1
STOP 1
--------------------------------------------------------------------------
mpirun noticed that the job aborted, but has no info as to the process
that caused that situation.
--------------------------------------------------------------------------
---------------------------------------
Running PBS batch system epilogue script
Job id: 369794.audhumbla.fysik.dtu.dk
Username: zhonxu
Groupname: campgst
Jobname: MoO2/Eads-2-layers/O-U-6.5
Sessionid: 17887
Resources limits: neednodes=2:ppn=8:xeon8,nodes=2:ppn=8:xeon8,walltime=48:00:00
Resources used: cput=78:02:46,mem=16495488kb,vmem=20138124kb,walltime=04:53:12
Queuename: verylong
Accounting:
This job has allocated the following 16 nodes:
b020 b020 b020 b020 b020 b020 b020 b020 b014 b014 b014 b014 b014 b014 b014 b014
Finished epilogue job 369794.audhumbla.fysik.dtu.dk for zhonxu
