ScientificPython/2.8-dl160g6-numpy-1.7.1-1(15):ERROR:151: Module 'ScientificPython/2.8-dl160g6-numpy-1.7.1-1' depends on one of the module(s) 'numpy/1.7.1-dl160g6-gfortran-internal-1'
ScientificPython/2.8-dl160g6-numpy-1.7.1-1(15):ERROR:102: Tcl command execution failed: prereq numpy/1.7.1-dl160g6-gfortran-internal-1


     Program PWSCF v.5.0.2 (svn rev. 9656) starts on 27May2014 at 21:56:46 

     This program is part of the open-source Quantum ESPRESSO suite
     for quantum simulation of materials; please cite
         "P. Giannozzi et al., J. Phys.:Condens. Matter 21 395502 (2009);
          URL http://www.quantum-espresso.org", 
     in publications or presentations arising from this work. More details at
     http://www.quantum-espresso.org/quote.php

     Parallel version (MPI), running on    16 processors
     K-points division:     npool     =       4
     R & G space division:  proc/nbgrp/npool/nimage =       4

     Current dimensions of program PWSCF are:
     Max number of different atomic species (ntypx) = 10
     Max number of k-points (npk) =  40000
     Max angular momentum in pseudopotentials (lmaxx) =  3
     Reading input from pwscf.in
Warning: card &CELL ignored
Warning: card / ignored

     Subspace diagonalization in iterative solution of the eigenvalue problem:
     a serial algorithm will be used


     Parallelization info
     --------------------
     sticks:   dense  smooth     PW     G-vecs:    dense   smooth      PW
     Min        1357     434    120               328723    59498    8862
     Max        1358     435    121               328730    59528    8871
     Sum        5431    1737    483              1314909   238057   35467



     bravais-lattice index     =            0
     lattice parameter (alat)  =      10.3179  a.u.
     unit-cell volume          =    6964.3238 (a.u.)^3
     number of atoms/cell      =           31
     number of atomic types    =            3
     number of electrons       =       230.00
     number of Kohn-Sham states=          345
     kinetic-energy cutoff     =      40.0000  Ry
     charge density cutoff     =     500.0000  Ry
     convergence threshold     =      1.0E-06
     mixing beta               =       0.0500
     number of iterations used =            8  plain     mixing
     Exchange-correlation      = SLA  PW   PBE  PBE ( 1 4 3 4 0)
     EXX-fraction              =        0.00
     nstep                     =           50


     celldm(1)=  10.317905  celldm(2)=   0.000000  celldm(3)=   0.000000
     celldm(4)=   0.000000  celldm(5)=   0.000000  celldm(6)=   0.000000

     crystal axes: (cart. coord. in units of alat)
               a(1) = (   1.000000   0.000000   0.000000 )  
               a(2) = (   0.000000   1.282117   0.000000 )  
               a(3) = (   0.000000   0.000000   4.945120 )  

     reciprocal axes: (cart. coord. in units 2 pi/alat)
               b(1) = (  1.000000  0.000000  0.000000 )  
               b(2) = (  0.000000  0.779960  0.000000 )  
               b(3) = (  0.000000  0.000000  0.202220 )  


     PseudoPot. # 1 for O  read from file:
     /home/camp/zhonxu/pseudo/o_pbe_v1.01.uspp.F.UPF
     MD5 check sum: 2bcb18d16ea4b960afae9ec6d52f22d2
     Pseudo is Ultrasoft + core correction, Zval =  6.0
     Generated by new atomic code, or converted to UPF format
     Using radial grid of  737 points,  5 beta functions with: 
                l(1) =   0
                l(2) =   0
                l(3) =   1
                l(4) =   1
                l(5) =   2
     Q(r) pseudized with  8 coefficients,  rinner =    0.900   0.900   0.900
                                                       0.900   0.900

     PseudoPot. # 2 for Mo read from file:
     /home/camp/zhonxu/pseudo/mo_pbe_v1.uspp.F.UPF
     MD5 check sum: 30c4dcd161f5d35cd49bb5239c51a633
     Pseudo is Ultrasoft + core correction, Zval = 14.0
     Generated by new atomic code, or converted to UPF format
     Using radial grid of  889 points,  6 beta functions with: 
                l(1) =   0
                l(2) =   0
                l(3) =   1
                l(4) =   1
                l(5) =   2
                l(6) =   2
     Q(r) pseudized with  6 coefficients,  rinner =    1.000   1.000   1.000
                                                       1.000   1.000

     PseudoPot. # 3 for H  read from file:
     /home/camp/zhonxu/pseudo/h_pbe_v1.uspp.F.UPF
     MD5 check sum: 3408e3ff4ec8b0a4e358431e7e038a48
     Pseudo is Ultrasoft, Zval =  1.0
     Generated by new atomic code, or converted to UPF format
     Using radial grid of  615 points,  2 beta functions with: 
                l(1) =   0
                l(2) =   0
     Q(r) pseudized with  8 coefficients,  rinner =    0.700

     atomic species   valence    mass     pseudopotential
        O0             6.00    15.99940     O ( 1.00)
        Mo1           14.00    95.94000     Mo( 1.00)
        H2             1.00     1.00794     H ( 1.00)


     Simplified LDA+U calculation (l_max = 2) with parameters (eV):
     atomic species    L          U    alpha       J0     beta
        Mo1            2     6.5000   0.0000   0.0000   0.0000



     No symmetry found



   Cartesian axes

     site n.     atom                  positions (alat units)
         1           O0  tau(   1) = (   0.0000000   0.0000000   1.8234637  )
         2           O0  tau(   2) = (   0.0000000   0.6410583   1.9023383  )
         3           Mo1 tau(   3) = (   0.2500000   0.6410583   2.1905894  )
         4           Mo1 tau(   4) = (   0.0000000   0.0000000   2.1768914  )
         5           O0  tau(   5) = (   0.2500000   1.0000510   2.1871773  )
         6           O0  tau(   6) = (   0.2500000   0.2820657   2.1863366  )
         7           O0  tau(   7) = (   0.0000000   0.6410583   2.4701371  )
         8           O0  tau(   8) = (   0.0000000   0.0000000   2.5461930  )
         9           Mo1 tau(   9) = (   0.2500000   0.0000000   2.8614939  )
        10           Mo1 tau(  10) = (   0.0000000   0.6410583   2.8143174  )
        11           O0  tau(  11) = (   0.2500000   0.9231240   2.8297957  )
        12           O0  tau(  12) = (   0.2500000   0.3589927   2.8299440  )
        13           O0  tau(  13) = (   0.0000000   0.0000000   3.0849639  )
        14           O0  tau(  14) = (   0.5000000   0.0000000   1.8295956  )
        15           O0  tau(  15) = (   0.5000000   0.6410583   1.9027340  )
        16           Mo1 tau(  16) = (   0.7500000   0.6410583   2.1912817  )
        17           Mo1 tau(  17) = (   0.5000000   0.0000000   2.1846058  )
        18           O0  tau(  18) = (   0.7500000   1.0000510   2.1861883  )
        19           O0  tau(  19) = (   0.7500000   0.2820657   2.1867322  )
        20           O0  tau(  20) = (   0.5000000   0.6410583   2.4595545  )
        21           O0  tau(  21) = (   0.5000000   0.0000000   2.5435227  )
        22           Mo1 tau(  22) = (   0.7500000   0.0000000   2.8092734  )
        23           Mo1 tau(  23) = (   0.5000000   0.6410583   2.8740545  )
        24           O0  tau(  24) = (   0.7500000   0.9231240   2.8243560  )
        25           O0  tau(  25) = (   0.7500000   0.3589927   2.8244055  )
        26           O0  tau(  26) = (   0.5000000   0.0000000   3.0840243  )
        27           H2  tau(  27) = (   0.0015700   0.7761165   1.7839522  )
        28           H2  tau(  28) = (   0.4983700   0.7937969   1.8071448  )
        29           H2  tau(  29) = (   0.1651000   0.0264244   1.7496825  )
        30           H2  tau(  30) = (   0.6618400   0.0263603   1.7494352  )
        31           O0  tau(  31) = (   0.5021200   0.6408276   3.1816410  )

     number of k points=    10  Methfessel-Paxton smearing, width (Ry)=  0.0100
                       cart. coord. in units 2pi/alat
        k(    1) = (   0.0000000   0.0000000   0.0000000), wk =   0.1250000
        k(    2) = (   0.0000000   0.1949901   0.0000000), wk =   0.2500000
        k(    3) = (   0.0000000  -0.3899801   0.0000000), wk =   0.1250000
        k(    4) = (   0.2500000   0.0000000   0.0000000), wk =   0.2500000
        k(    5) = (   0.2500000   0.1949901   0.0000000), wk =   0.2500000
        k(    6) = (   0.2500000  -0.3899801   0.0000000), wk =   0.2500000
        k(    7) = (  -0.5000000   0.0000000   0.0000000), wk =   0.1250000
        k(    8) = (  -0.5000000   0.1949901   0.0000000), wk =   0.2500000
        k(    9) = (  -0.5000000  -0.3899801   0.0000000), wk =   0.1250000
        k(   10) = (  -0.2500000   0.1949901   0.0000000), wk =   0.2500000

     Dense  grid:  1314909 G-vectors     FFT dimensions: (  75,  96, 375)

     Smooth grid:   238057 G-vectors     FFT dimensions: (  45,  54, 216)

     Largest allocated arrays     est. size (Mb)     dimensions
        Kohn-Sham Wavefunctions        39.45 Mb     (   7494,  345)
        Atomic wavefunctions           21.04 Mb     (   7494,  184)
        NL pseudopotentials            45.63 Mb     (   7494,  399)
        Each V/rho on FFT grid         10.33 Mb     ( 676800)
        Each G-vector array             2.51 Mb     ( 328726)
        G-vector shells                 1.08 Mb     ( 142042)
     Largest temporary arrays     est. size (Mb)     dimensions
        Auxiliary wavefunctions       157.80 Mb     (   7494, 1380)
        Each subspace H/S matrix       29.06 Mb     (1380,1380)
        Each <psi_i|beta_j> matrix      2.10 Mb     (    399,  345)
        Arrays for rho mixing          82.62 Mb     ( 676800,   8)

     Check: negative/imaginary core charge=   -0.000003    0.000000

     Initial potential from superposition of free atoms
     Check: negative starting charge=   -0.002501

     starting charge  229.99143, renormalised to  230.00000

     negative rho (up, down):  0.250E-02 0.000E+00
     Number of +U iterations with fixed ns =  0
     Starting occupations:
 --- enter write_ns ---
 LDA+U parameters:
U( 2)     =  6.50000000
alpha( 2) =  0.00000000
atom    3   Tr[ns(na)] =   5.00000
    eigenvalues: 
  0.500  0.500  0.500  0.500  0.500
    eigenvectors:
  1.000  0.000  0.000  0.000  0.000
  0.000  1.000  0.000  0.000  0.000
  0.000  0.000  1.000  0.000  0.000
  0.000  0.000  0.000  1.000  0.000
  0.000  0.000  0.000  0.000  1.000
    occupations:
  0.500  0.000  0.000  0.000  0.000
  0.000  0.500  0.000  0.000  0.000
  0.000  0.000  0.500  0.000  0.000
  0.000  0.000  0.000  0.500  0.000
  0.000  0.000  0.000  0.000  0.500
atom    4   Tr[ns(na)] =   5.00000
    eigenvalues: 
  0.500  0.500  0.500  0.500  0.500
    eigenvectors:
  1.000  0.000  0.000  0.000  0.000
  0.000  1.000  0.000  0.000  0.000
  0.000  0.000  1.000  0.000  0.000
  0.000  0.000  0.000  1.000  0.000
  0.000  0.000  0.000  0.000  1.000
    occupations:
  0.500  0.000  0.000  0.000  0.000
  0.000  0.500  0.000  0.000  0.000
  0.000  0.000  0.500  0.000  0.000
  0.000  0.000  0.000  0.500  0.000
  0.000  0.000  0.000  0.000  0.500
atom    9   Tr[ns(na)] =   5.00000
    eigenvalues: 
  0.500  0.500  0.500  0.500  0.500
    eigenvectors:
  1.000  0.000  0.000  0.000  0.000
  0.000  1.000  0.000  0.000  0.000
  0.000  0.000  1.000  0.000  0.000
  0.000  0.000  0.000  1.000  0.000
  0.000  0.000  0.000  0.000  1.000
    occupations:
  0.500  0.000  0.000  0.000  0.000
  0.000  0.500  0.000  0.000  0.000
  0.000  0.000  0.500  0.000  0.000
  0.000  0.000  0.000  0.500  0.000
  0.000  0.000  0.000  0.000  0.500
atom   10   Tr[ns(na)] =   5.00000
    eigenvalues: 
  0.500  0.500  0.500  0.500  0.500
    eigenvectors:
  1.000  0.000  0.000  0.000  0.000
  0.000  1.000  0.000  0.000  0.000
  0.000  0.000  1.000  0.000  0.000
  0.000  0.000  0.000  1.000  0.000
  0.000  0.000  0.000  0.000  1.000
    occupations:
  0.500  0.000  0.000  0.000  0.000
  0.000  0.500  0.000  0.000  0.000
  0.000  0.000  0.500  0.000  0.000
  0.000  0.000  0.000  0.500  0.000
  0.000  0.000  0.000  0.000  0.500
atom   16   Tr[ns(na)] =   5.00000
    eigenvalues: 
  0.500  0.500  0.500  0.500  0.500
    eigenvectors:
  1.000  0.000  0.000  0.000  0.000
  0.000  1.000  0.000  0.000  0.000
  0.000  0.000  1.000  0.000  0.000
  0.000  0.000  0.000  1.000  0.000
  0.000  0.000  0.000  0.000  1.000
    occupations:
  0.500  0.000  0.000  0.000  0.000
  0.000  0.500  0.000  0.000  0.000
  0.000  0.000  0.500  0.000  0.000
  0.000  0.000  0.000  0.500  0.000
  0.000  0.000  0.000  0.000  0.500
atom   17   Tr[ns(na)] =   5.00000
    eigenvalues: 
  0.500  0.500  0.500  0.500  0.500
    eigenvectors:
  1.000  0.000  0.000  0.000  0.000
  0.000  1.000  0.000  0.000  0.000
  0.000  0.000  1.000  0.000  0.000
  0.000  0.000  0.000  1.000  0.000
  0.000  0.000  0.000  0.000  1.000
    occupations:
  0.500  0.000  0.000  0.000  0.000
  0.000  0.500  0.000  0.000  0.000
  0.000  0.000  0.500  0.000  0.000
  0.000  0.000  0.000  0.500  0.000
  0.000  0.000  0.000  0.000  0.500
atom   22   Tr[ns(na)] =   5.00000
    eigenvalues: 
  0.500  0.500  0.500  0.500  0.500
    eigenvectors:
  1.000  0.000  0.000  0.000  0.000
  0.000  1.000  0.000  0.000  0.000
  0.000  0.000  1.000  0.000  0.000
  0.000  0.000  0.000  1.000  0.000
  0.000  0.000  0.000  0.000  1.000
    occupations:
  0.500  0.000  0.000  0.000  0.000
  0.000  0.500  0.000  0.000  0.000
  0.000  0.000  0.500  0.000  0.000
  0.000  0.000  0.000  0.500  0.000
  0.000  0.000  0.000  0.000  0.500
atom   23   Tr[ns(na)] =   5.00000
    eigenvalues: 
  0.500  0.500  0.500  0.500  0.500
    eigenvectors:
  1.000  0.000  0.000  0.000  0.000
  0.000  1.000  0.000  0.000  0.000
  0.000  0.000  1.000  0.000  0.000
  0.000  0.000  0.000  1.000  0.000
  0.000  0.000  0.000  0.000  1.000
    occupations:
  0.500  0.000  0.000  0.000  0.000
  0.000  0.500  0.000  0.000  0.000
  0.000  0.000  0.500  0.000  0.000
  0.000  0.000  0.000  0.500  0.000
  0.000  0.000  0.000  0.000  0.500
N of occupied +U levels =  40.0000000
 --- exit write_ns ---
 Atomic wfc used for LDA+U Projector are NOT orthogonalized
     Starting wfc are  184 randomized atomic wfcs

     total cpu time spent up to now is      155.4 secs

     per-process dynamical memory:   396.4 Mb

     Self-consistent Calculation

     iteration #  1     ecut=    40.00 Ry     beta=0.05
     Davidson diagonalization with overlap
     ethr =  1.00E-02,  avg # of iterations =  6.0
 --- enter write_ns ---
 LDA+U parameters:
U( 2)     =  6.50000000
alpha( 2) =  0.00000000
atom    3   Tr[ns(na)] =   4.94753
    eigenvalues: 
  0.333  0.444  0.484  0.558  0.656
    eigenvectors:
  0.007  0.015  0.455  0.001  0.522
  0.000  0.974  0.025  0.001  0.000
  0.971  0.000  0.001  0.022  0.006
  0.001  0.010  0.518  0.001  0.470
  0.021  0.001  0.000  0.976  0.002
    occupations:
  0.572 -0.007  0.022 -0.085 -0.006
 -0.007  0.445 -0.002 -0.002 -0.003
  0.022 -0.002  0.340 -0.014  0.032
 -0.085 -0.002 -0.014  0.564  0.004
 -0.006 -0.003  0.032  0.004  0.553
atom    4   Tr[ns(na)] =   4.93105
    eigenvalues: 
  0.310  0.434  0.485  0.547  0.689
    eigenvectors:
  0.000  0.000  0.947  0.024  0.030
  0.000  0.000  0.023  0.976  0.001
  1.000  0.000  0.000  0.000  0.000
  0.000  0.000  0.030  0.000  0.970
  0.000  1.000  0.000  0.000  0.000
    occupations:
  0.492  0.009  0.001 -0.035 -0.000
  0.009  0.546  0.004  0.006 -0.001
  0.001  0.004  0.310 -0.000  0.001
 -0.035  0.006 -0.000  0.683  0.000
 -0.000 -0.001  0.001  0.000  0.434
atom    9   Tr[ns(na)] =   4.69251
    eigenvalues: 
  0.374  0.410  0.495  0.517  0.550
    eigenvectors:
  0.000  0.000  0.511  0.000  0.489
  0.000  0.000  0.001  0.999  0.000
  0.927  0.073  0.000  0.000  0.000
  0.000  0.000  0.488  0.001  0.511
  0.073  0.927  0.000  0.000  0.000
    occupations:
  0.522 -0.001  0.000 -0.027 -0.000
 -0.001  0.517  0.000 -0.000 -0.000
  0.000  0.000  0.376  0.000  0.009
 -0.027 -0.000  0.000  0.524  0.000
 -0.000 -0.000  0.009  0.000  0.407
atom   10   Tr[ns(na)] =   4.52778
    eigenvalues: 
  0.289  0.386  0.434  0.469  0.685
    eigenvectors:
  0.000  0.991  0.000  0.001  0.008
  0.000  0.001  0.000  0.996  0.004
  0.999  0.000  0.001  0.000  0.000
  0.000  0.008  0.000  0.003  0.989
  0.001  0.000  0.999  0.000  0.000
    occupations:
  0.388  0.001 -0.000 -0.026  0.000
  0.001  0.470 -0.000  0.013 -0.000
 -0.000 -0.000  0.289  0.001 -0.005
 -0.026  0.013  0.001  0.682  0.000
  0.000 -0.000 -0.005  0.000  0.434
atom   16   Tr[ns(na)] =   4.91601
    eigenvalues: 
  0.321  0.444  0.483  0.559  0.651
    eigenvectors:
  0.003  0.015  0.462  0.001  0.519
  0.000  0.974  0.025  0.001  0.000
  0.980  0.000  0.001  0.016  0.003
  0.000  0.010  0.512  0.001  0.476
  0.016  0.001  0.000  0.981  0.002
    occupations:
  0.569  0.007  0.016 -0.084  0.005
  0.007  0.445  0.002  0.002 -0.003
  0.016  0.002  0.326 -0.010 -0.029
 -0.084  0.002 -0.010  0.563 -0.003
  0.005 -0.003 -0.029 -0.003  0.555
atom   17   Tr[ns(na)] =   5.03695
    eigenvalues: 
  0.324  0.438  0.494  0.558  0.705
    eigenvectors:
  0.000  0.000  0.959  0.008  0.034
  0.000  0.000  0.009  0.990  0.001
  1.000  0.000  0.000  0.000  0.000
  0.000  0.000  0.033  0.002  0.966
  0.000  1.000  0.000  0.000  0.000
    occupations:
  0.501 -0.007  0.001 -0.038  0.000
 -0.007  0.558  0.005  0.003  0.000
  0.001  0.005  0.324  0.000  0.000
 -0.038  0.003  0.000  0.697  0.000
  0.000  0.000  0.000  0.000  0.438
atom   22   Tr[ns(na)] =   5.03365
    eigenvalues: 
  0.346  0.471  0.481  0.496  0.723
    eigenvectors:
  0.000  0.000  0.004  0.323  0.673
  0.000  0.000  0.987  0.013  0.000
  0.974  0.026  0.000  0.000  0.000
  0.000  0.000  0.009  0.663  0.327
  0.026  0.974  0.000  0.000  0.000
    occupations:
  0.649  0.001  0.000 -0.107  0.000
  0.001  0.482 -0.000  0.001  0.000
  0.000 -0.000  0.349 -0.000 -0.020
 -0.107  0.001 -0.000  0.570 -0.000
  0.000  0.000 -0.020 -0.000  0.467
atom   23   Tr[ns(na)] =   4.81959
    eigenvalues: 
  0.374  0.422  0.429  0.524  0.661
    eigenvectors:
  0.000  0.000  0.001  0.915  0.084
  0.000  0.001  0.998  0.001  0.000
  0.995  0.005  0.000  0.000  0.000
  0.000  0.000  0.000  0.084  0.916
  0.005  0.994  0.001  0.000  0.000
    occupations:
  0.535 -0.002  0.000 -0.038 -0.000
 -0.002  0.429  0.000 -0.002  0.000
  0.000  0.000  0.375 -0.000  0.003
 -0.038 -0.002 -0.000  0.649 -0.000
 -0.000  0.000  0.003 -0.000  0.422
N of occupied +U levels =  38.9050721
 --- exit write_ns ---

     negative rho (up, down):  0.249E-02 0.000E+00

     total cpu time spent up to now is      557.3 secs

     total energy              =   -1729.22357954 Ry
     Harris-Foulkes estimate   =   -1729.70105718 Ry
     estimated scf accuracy    <       8.79680322 Ry

     iteration #  2     ecut=    40.00 Ry     beta=0.05
     Davidson diagonalization with overlap
     ethr =  3.82E-03,  avg # of iterations =  1.0

     negative rho (up, down):  0.305E-02 0.000E+00

     total cpu time spent up to now is      760.9 secs

     total energy              =   -1728.10581826 Ry
     Harris-Foulkes estimate   =   -1729.39580040 Ry
     estimated scf accuracy    <       7.04922969 Ry

     iteration #  3     ecut=    40.00 Ry     beta=0.05
     Davidson diagonalization with overlap
     ethr =  3.06E-03,  avg # of iterations =  1.0

     negative rho (up, down):  0.500E-02 0.000E+00

     total cpu time spent up to now is      958.3 secs

     total energy              =   -1727.73294424 Ry
     Harris-Foulkes estimate   =   -1728.39473392 Ry
     estimated scf accuracy    <       3.15562305 Ry

     iteration #  4     ecut=    40.00 Ry     beta=0.05
     Davidson diagonalization with overlap
     ethr =  1.37E-03,  avg # of iterations =  1.0

     negative rho (up, down):  0.444E-02 0.000E+00

     total cpu time spent up to now is     1161.5 secs

     total energy              =   -1727.92857846 Ry
     Harris-Foulkes estimate   =   -1728.01399929 Ry
     estimated scf accuracy    <       1.59681752 Ry

     iteration #  5     ecut=    40.00 Ry     beta=0.05
     Davidson diagonalization with overlap
     ethr =  6.94E-04,  avg # of iterations =  1.0

     negative rho (up, down):  0.647E-02 0.000E+00

     total cpu time spent up to now is     1361.9 secs

     total energy              =   -1727.94396096 Ry
     Harris-Foulkes estimate   =   -1727.98557348 Ry
     estimated scf accuracy    <       0.55858100 Ry

     iteration #  6     ecut=    40.00 Ry     beta=0.05
     Davidson diagonalization with overlap
     ethr =  2.43E-04,  avg # of iterations =  5.1

     negative rho (up, down):  0.751E-02 0.000E+00

     total cpu time spent up to now is     1589.6 secs

     total energy              =   -1727.97543018 Ry
     Harris-Foulkes estimate   =   -1727.97218399 Ry
     estimated scf accuracy    <       0.37390956 Ry

     iteration #  7     ecut=    40.00 Ry     beta=0.05
     Davidson diagonalization with overlap
     ethr =  1.63E-04,  avg # of iterations =  1.8

     negative rho (up, down):  0.121E-01 0.000E+00

     total cpu time spent up to now is     1794.2 secs

     total energy              =   -1728.01249003 Ry
     Harris-Foulkes estimate   =   -1727.98217366 Ry
     estimated scf accuracy    <       0.23355346 Ry

     iteration #  8     ecut=    40.00 Ry     beta=0.05
     Davidson diagonalization with overlap
     ethr =  1.02E-04,  avg # of iterations =  7.0

     negative rho (up, down):  0.153E-01 0.000E+00

     total cpu time spent up to now is     2036.3 secs

     total energy              =   -1728.03658700 Ry
     Harris-Foulkes estimate   =   -1728.03327124 Ry
     estimated scf accuracy    <       0.13797184 Ry

     iteration #  9     ecut=    40.00 Ry     beta=0.05
     Davidson diagonalization with overlap
     ethr =  6.00E-05,  avg # of iterations =  3.6

     negative rho (up, down):  0.168E-01 0.000E+00

     total cpu time spent up to now is     2247.4 secs

     total energy              =   -1728.05208497 Ry
     Harris-Foulkes estimate   =   -1728.04481040 Ry
     estimated scf accuracy    <       0.04201544 Ry

     iteration # 10     ecut=    40.00 Ry     beta=0.05
     Davidson diagonalization with overlap
     ethr =  1.83E-05,  avg # of iterations =  3.9

     negative rho (up, down):  0.167E-01 0.000E+00

     total cpu time spent up to now is     2458.0 secs

     total energy              =   -1728.05327400 Ry
     Harris-Foulkes estimate   =   -1728.05567987 Ry
     estimated scf accuracy    <       0.03024205 Ry

     iteration # 11     ecut=    40.00 Ry     beta=0.05
     Davidson diagonalization with overlap
     ethr =  1.31E-05,  avg # of iterations =  1.0

     negative rho (up, down):  0.170E-01 0.000E+00

     total cpu time spent up to now is     2655.5 secs

     total energy              =   -1728.05744041 Ry
     Harris-Foulkes estimate   =   -1728.05535416 Ry
     estimated scf accuracy    <       0.01079269 Ry

     iteration # 12     ecut=    40.00 Ry     beta=0.05
     Davidson diagonalization with overlap
     ethr =  4.69E-06,  avg # of iterations =  4.0

     negative rho (up, down):  0.162E-01 0.000E+00

     total cpu time spent up to now is     2868.2 secs

     total energy              =   -1728.05903499 Ry
     Harris-Foulkes estimate   =   -1728.05871430 Ry
     estimated scf accuracy    <       0.00628513 Ry

     iteration # 13     ecut=    40.00 Ry     beta=0.05
     Davidson diagonalization with overlap
     ethr =  2.73E-06,  avg # of iterations =  3.2

     negative rho (up, down):  0.157E-01 0.000E+00

     total cpu time spent up to now is     3072.1 secs

     total energy              =   -1728.06041934 Ry
     Harris-Foulkes estimate   =   -1728.05923943 Ry
     estimated scf accuracy    <       0.00388574 Ry

     iteration # 14     ecut=    40.00 Ry     beta=0.05
     Davidson diagonalization with overlap
     ethr =  1.69E-06,  avg # of iterations =  3.9

     negative rho (up, down):  0.149E-01 0.000E+00

     total cpu time spent up to now is     3283.6 secs

     total energy              =   -1728.06131187 Ry
     Harris-Foulkes estimate   =   -1728.06068270 Ry
     estimated scf accuracy    <       0.00259614 Ry

     iteration # 15     ecut=    40.00 Ry     beta=0.05
     Davidson diagonalization with overlap
     ethr =  1.13E-06,  avg # of iterations =  1.3

     negative rho (up, down):  0.143E-01 0.000E+00

     total cpu time spent up to now is     3477.8 secs

     total energy              =   -1728.06220434 Ry
     Harris-Foulkes estimate   =   -1728.06139443 Ry
     estimated scf accuracy    <       0.00167956 Ry

     iteration # 16     ecut=    40.00 Ry     beta=0.05
     Davidson diagonalization with overlap
     ethr =  7.30E-07,  avg # of iterations =  3.3

     negative rho (up, down):  0.134E-01 0.000E+00

     total cpu time spent up to now is     3681.8 secs

     total energy              =   -1728.06282996 Ry
     Harris-Foulkes estimate   =   -1728.06247242 Ry
     estimated scf accuracy    <       0.00083613 Ry

     iteration # 17     ecut=    40.00 Ry     beta=0.05
     Davidson diagonalization with overlap
     ethr =  3.64E-07,  avg # of iterations =  1.3

     negative rho (up, down):  0.127E-01 0.000E+00

     total cpu time spent up to now is     3877.6 secs

     total energy              =   -1728.06318199 Ry
     Harris-Foulkes estimate   =   -1728.06287074 Ry
     estimated scf accuracy    <       0.00060661 Ry

     iteration # 18     ecut=    40.00 Ry     beta=0.05
     Davidson diagonalization with overlap
     ethr =  2.64E-07,  avg # of iterations =  1.0

     negative rho (up, down):  0.121E-01 0.000E+00

     total cpu time spent up to now is     4079.8 secs

     total energy              =   -1728.06339643 Ry
     Harris-Foulkes estimate   =   -1728.06321629 Ry
     estimated scf accuracy    <       0.00046617 Ry

     iteration # 19     ecut=    40.00 Ry     beta=0.05
     Davidson diagonalization with overlap
     ethr =  2.03E-07,  avg # of iterations =  1.0

     negative rho (up, down):  0.115E-01 0.000E+00

     total cpu time spent up to now is     4274.5 secs

     total energy              =   -1728.06361896 Ry
     Harris-Foulkes estimate   =   -1728.06342013 Ry
     estimated scf accuracy    <       0.00034306 Ry

     iteration # 20     ecut=    40.00 Ry     beta=0.05
     Davidson diagonalization with overlap
     ethr =  1.49E-07,  avg # of iterations =  1.0

     negative rho (up, down):  0.110E-01 0.000E+00

     total cpu time spent up to now is     4468.9 secs

     total energy              =   -1728.06380220 Ry
     Harris-Foulkes estimate   =   -1728.06367037 Ry
     estimated scf accuracy    <       0.00019801 Ry

     iteration # 21     ecut=    40.00 Ry     beta=0.05
     Davidson diagonalization with overlap
     ethr =  8.61E-08,  avg # of iterations =  1.0

     negative rho (up, down):  0.105E-01 0.000E+00

     total cpu time spent up to now is     4666.4 secs

     total energy              =   -1728.06392688 Ry
     Harris-Foulkes estimate   =   -1728.06384435 Ry
     estimated scf accuracy    <       0.00010465 Ry

     iteration # 22     ecut=    40.00 Ry     beta=0.05
     Davidson diagonalization with overlap
     ethr =  4.55E-08,  avg # of iterations =  1.0

     negative rho (up, down):  0.100E-01 0.000E+00

     total cpu time spent up to now is     4864.6 secs

     total energy              =   -1728.06399880 Ry
     Harris-Foulkes estimate   =   -1728.06393365 Ry
     estimated scf accuracy    <       0.00008256 Ry

     iteration # 23     ecut=    40.00 Ry     beta=0.05
     Davidson diagonalization with overlap
     ethr =  3.59E-08,  avg # of iterations =  1.0

     negative rho (up, down):  0.952E-02 0.000E+00

     total cpu time spent up to now is     5061.1 secs

     total energy              =   -1728.06408670 Ry
     Harris-Foulkes estimate   =   -1728.06400765 Ry
     estimated scf accuracy    <       0.00006135 Ry

     iteration # 24     ecut=    40.00 Ry     beta=0.05
     Davidson diagonalization with overlap
     ethr =  2.67E-08,  avg # of iterations =  1.0

     negative rho (up, down):  0.908E-02 0.000E+00

     total cpu time spent up to now is     5262.8 secs

     total energy              =   -1728.06415208 Ry
     Harris-Foulkes estimate   =   -1728.06409650 Ry
     estimated scf accuracy    <       0.00003255 Ry

     iteration # 25     ecut=    40.00 Ry     beta=0.05
     Davidson diagonalization with overlap
     ethr =  1.42E-08,  avg # of iterations =  1.0

     negative rho (up, down):  0.863E-02 0.000E+00

     total cpu time spent up to now is     5452.8 secs

     total energy              =   -1728.06420623 Ry
     Harris-Foulkes estimate   =   -1728.06415379 Ry
     estimated scf accuracy    <       0.00002521 Ry

     iteration # 26     ecut=    40.00 Ry     beta=0.05
     Davidson diagonalization with overlap
     ethr =  1.10E-08,  avg # of iterations =  1.0

     negative rho (up, down):  0.825E-02 0.000E+00

     total cpu time spent up to now is     5646.7 secs

     total energy              =   -1728.06424902 Ry
     Harris-Foulkes estimate   =   -1728.06421079 Ry
     estimated scf accuracy    <       0.00001658 Ry

     iteration # 27     ecut=    40.00 Ry     beta=0.05
     Davidson diagonalization with overlap
     ethr =  7.21E-09,  avg # of iterations =  2.0

     negative rho (up, down):  0.791E-02 0.000E+00

     total cpu time spent up to now is     5857.1 secs

     total energy              =   -1728.06428778 Ry
     Harris-Foulkes estimate   =   -1728.06424928 Ry
     estimated scf accuracy    <       0.00001524 Ry

     iteration # 28     ecut=    40.00 Ry     beta=0.05
     Davidson diagonalization with overlap
     ethr =  6.62E-09,  avg # of iterations =  1.0

     negative rho (up, down):  0.759E-02 0.000E+00

     total cpu time spent up to now is     6057.2 secs

     total energy              =   -1728.06432532 Ry
     Harris-Foulkes estimate   =   -1728.06429276 Ry
     estimated scf accuracy    <       0.00001099 Ry

     iteration # 29     ecut=    40.00 Ry     beta=0.05
     Davidson diagonalization with overlap
     ethr =  4.78E-09,  avg # of iterations =  1.0

     negative rho (up, down):  0.729E-02 0.000E+00

     total cpu time spent up to now is     6256.6 secs

     total energy              =   -1728.06435660 Ry
     Harris-Foulkes estimate   =   -1728.06432594 Ry
     estimated scf accuracy    <       0.00000999 Ry

     iteration # 30     ecut=    40.00 Ry     beta=0.05
     Davidson diagonalization with overlap
     ethr =  4.34E-09,  avg # of iterations =  2.6

     negative rho (up, down):  0.699E-02 0.000E+00

     total cpu time spent up to now is     6474.5 secs

     total energy              =   -1728.06438652 Ry
     Harris-Foulkes estimate   =   -1728.06435815 Ry
     estimated scf accuracy    <       0.00000893 Ry

     iteration # 31     ecut=    40.00 Ry     beta=0.05
     Davidson diagonalization with overlap
     ethr =  3.88E-09,  avg # of iterations =  1.0

     negative rho (up, down):  0.672E-02 0.000E+00

     total cpu time spent up to now is     6671.5 secs

     total energy              =   -1728.06441329 Ry
     Harris-Foulkes estimate   =   -1728.06438808 Ry
     estimated scf accuracy    <       0.00000780 Ry

     iteration # 32     ecut=    40.00 Ry     beta=0.05
     Davidson diagonalization with overlap
     ethr =  3.39E-09,  avg # of iterations =  1.0

     negative rho (up, down):  0.646E-02 0.000E+00

     total cpu time spent up to now is     6870.0 secs

     total energy              =   -1728.06443710 Ry
     Harris-Foulkes estimate   =   -1728.06441424 Ry
     estimated scf accuracy    <       0.00000742 Ry

     iteration # 33     ecut=    40.00 Ry     beta=0.05
     Davidson diagonalization with overlap
     ethr =  3.23E-09,  avg # of iterations =  1.0

     negative rho (up, down):  0.623E-02 0.000E+00

     total cpu time spent up to now is     7068.0 secs

     total energy              =   -1728.06445898 Ry
     Harris-Foulkes estimate   =   -1728.06443791 Ry
     estimated scf accuracy    <       0.00000718 Ry

     iteration # 34     ecut=    40.00 Ry     beta=0.05
     Davidson diagonalization with overlap
     ethr =  3.12E-09,  avg # of iterations =  1.0

     negative rho (up, down):  0.601E-02 0.000E+00

     total cpu time spent up to now is     7268.1 secs

     total energy              =   -1728.06447959 Ry
     Harris-Foulkes estimate   =   -1728.06446021 Ry
     estimated scf accuracy    <       0.00000689 Ry

     iteration # 35     ecut=    40.00 Ry     beta=0.05
     Davidson diagonalization with overlap
     ethr =  3.00E-09,  avg # of iterations =  1.0

     negative rho (up, down):  0.580E-02 0.000E+00

     total cpu time spent up to now is     7464.9 secs

     total energy              =   -1728.06449735 Ry
     Harris-Foulkes estimate   =   -1728.06448066 Ry
     estimated scf accuracy    <       0.00000674 Ry

     iteration # 36     ecut=    40.00 Ry     beta=0.05
     Davidson diagonalization with overlap
     ethr =  2.93E-09,  avg # of iterations =  1.0

     negative rho (up, down):  0.562E-02 0.000E+00

     total cpu time spent up to now is     7663.1 secs

     total energy              =   -1728.06451431 Ry
     Harris-Foulkes estimate   =   -1728.06449768 Ry
     estimated scf accuracy    <       0.00000668 Ry

     iteration # 37     ecut=    40.00 Ry     beta=0.05
     Davidson diagonalization with overlap
     ethr =  2.91E-09,  avg # of iterations =  1.0

     negative rho (up, down):  0.544E-02 0.000E+00

     total cpu time spent up to now is     7863.7 secs

     total energy              =   -1728.06453003 Ry
     Harris-Foulkes estimate   =   -1728.06451580 Ry
     estimated scf accuracy    <       0.00000657 Ry

     iteration # 38     ecut=    40.00 Ry     beta=0.05
     Davidson diagonalization with overlap
     ethr =  2.86E-09,  avg # of iterations =  1.0

     negative rho (up, down):  0.528E-02 0.000E+00

     total cpu time spent up to now is     8063.4 secs

     total energy              =   -1728.06454240 Ry
     Harris-Foulkes estimate   =   -1728.06453049 Ry
     estimated scf accuracy    <       0.00000652 Ry

     iteration # 39     ecut=    40.00 Ry     beta=0.05
     Davidson diagonalization with overlap
     ethr =  2.84E-09,  avg # of iterations =  1.0

     negative rho (up, down):  0.513E-02 0.000E+00

     total cpu time spent up to now is     8266.1 secs

     total energy              =   -1728.06455417 Ry
     Harris-Foulkes estimate   =   -1728.06454248 Ry
     estimated scf accuracy    <       0.00000651 Ry

     iteration # 40     ecut=    40.00 Ry     beta=0.05
     Davidson diagonalization with overlap
     ethr =  2.83E-09,  avg # of iterations =  1.0

     negative rho (up, down):  0.499E-02 0.000E+00

     total cpu time spent up to now is     8464.8 secs

     total energy              =   -1728.06456152 Ry
     Harris-Foulkes estimate   =   -1728.06455444 Ry
     estimated scf accuracy    <       0.00000651 Ry

     iteration # 41     ecut=    40.00 Ry     beta=0.05
     Davidson diagonalization with overlap
     ethr =  2.83E-09,  avg # of iterations =  1.0

     negative rho (up, down):  0.487E-02 0.000E+00

     total cpu time spent up to now is     8664.6 secs

     total energy              =   -1728.06456962 Ry
     Harris-Foulkes estimate   =   -1728.06456169 Ry
     estimated scf accuracy    <       0.00000651 Ry

     iteration # 42     ecut=    40.00 Ry     beta=0.05
     Davidson diagonalization with overlap
     ethr =  2.83E-09,  avg # of iterations =  1.0

     negative rho (up, down):  0.475E-02 0.000E+00

     total cpu time spent up to now is     8863.8 secs

     total energy              =   -1728.06457823 Ry
     Harris-Foulkes estimate   =   -1728.06456962 Ry
     estimated scf accuracy    <       0.00000651 Ry

     iteration # 43     ecut=    40.00 Ry     beta=0.05
     Davidson diagonalization with overlap
     ethr =  2.83E-09,  avg # of iterations =  1.0

     negative rho (up, down):  0.464E-02 0.000E+00

     total cpu time spent up to now is     9063.6 secs

     total energy              =   -1728.06458436 Ry
     Harris-Foulkes estimate   =   -1728.06457837 Ry
     estimated scf accuracy    <       0.00000653 Ry

     iteration # 44     ecut=    40.00 Ry     beta=0.05
     Davidson diagonalization with overlap
     ethr =  2.83E-09,  avg # of iterations =  1.0

     negative rho (up, down):  0.454E-02 0.000E+00

     total cpu time spent up to now is     9263.2 secs

     total energy              =   -1728.06459170 Ry
     Harris-Foulkes estimate   =   -1728.06458439 Ry
     estimated scf accuracy    <       0.00000652 Ry

     iteration # 45     ecut=    40.00 Ry     beta=0.05
     Davidson diagonalization with overlap
     ethr =  2.83E-09,  avg # of iterations =  1.0

     negative rho (up, down):  0.446E-02 0.000E+00

     total cpu time spent up to now is     9462.4 secs

     total energy              =   -1728.06459906 Ry
     Harris-Foulkes estimate   =   -1728.06459184 Ry
     estimated scf accuracy    <       0.00000647 Ry

     iteration # 46     ecut=    40.00 Ry     beta=0.05
     Davidson diagonalization with overlap
     ethr =  2.81E-09,  avg # of iterations =  1.0

     negative rho (up, down):  0.437E-02 0.000E+00

     total cpu time spent up to now is     9659.4 secs

     total energy              =   -1728.06460434 Ry
     Harris-Foulkes estimate   =   -1728.06459932 Ry
     estimated scf accuracy    <       0.00000646 Ry

     iteration # 47     ecut=    40.00 Ry     beta=0.05
     Davidson diagonalization with overlap
     ethr =  2.81E-09,  avg # of iterations =  1.0

     negative rho (up, down):  0.430E-02 0.000E+00

     total cpu time spent up to now is     9859.9 secs

     total energy              =   -1728.06460707 Ry
     Harris-Foulkes estimate   =   -1728.06460434 Ry
     estimated scf accuracy    <       0.00000646 Ry

     iteration # 48     ecut=    40.00 Ry     beta=0.05
     Davidson diagonalization with overlap
     ethr =  2.81E-09,  avg # of iterations =  1.0

     negative rho (up, down):  0.423E-02 0.000E+00

     total cpu time spent up to now is    10057.2 secs

     total energy              =   -1728.06460867 Ry
     Harris-Foulkes estimate   =   -1728.06460725 Ry
     estimated scf accuracy    <       0.00000645 Ry

     iteration # 49     ecut=    40.00 Ry     beta=0.05
     Davidson diagonalization with overlap
     ethr =  2.80E-09,  avg # of iterations =  1.0

     negative rho (up, down):  0.417E-02 0.000E+00

     total cpu time spent up to now is    10256.5 secs

     total energy              =   -1728.06461188 Ry
     Harris-Foulkes estimate   =   -1728.06460898 Ry
     estimated scf accuracy    <       0.00000642 Ry

     iteration # 50     ecut=    40.00 Ry     beta=0.05
     Davidson diagonalization with overlap
     ethr =  2.79E-09,  avg # of iterations =  1.0

     negative rho (up, down):  0.412E-02 0.000E+00

     total cpu time spent up to now is    10458.3 secs

     total energy              =   -1728.06461556 Ry
     Harris-Foulkes estimate   =   -1728.06461191 Ry
     estimated scf accuracy    <       0.00000643 Ry

     iteration # 51     ecut=    40.00 Ry     beta=0.05
     Davidson diagonalization with overlap
     ethr =  2.79E-09,  avg # of iterations =  1.0

     negative rho (up, down):  0.407E-02 0.000E+00

     total cpu time spent up to now is    10658.4 secs

     total energy              =   -1728.06461661 Ry
     Harris-Foulkes estimate   =   -1728.06461558 Ry
     estimated scf accuracy    <       0.00000644 Ry

     iteration # 52     ecut=    40.00 Ry     beta=0.05
     Davidson diagonalization with overlap
     ethr =  2.79E-09,  avg # of iterations =  1.0

     negative rho (up, down):  0.402E-02 0.000E+00

     total cpu time spent up to now is    10855.0 secs

     total energy              =   -1728.06462062 Ry
     Harris-Foulkes estimate   =   -1728.06461685 Ry
     estimated scf accuracy    <       0.00000641 Ry

     iteration # 53     ecut=    40.00 Ry     beta=0.05
     Davidson diagonalization with overlap
     ethr =  2.79E-09,  avg # of iterations =  1.0

     negative rho (up, down):  0.398E-02 0.000E+00

     total cpu time spent up to now is    11059.7 secs

     total energy              =   -1728.06462420 Ry
     Harris-Foulkes estimate   =   -1728.06462073 Ry
     estimated scf accuracy    <       0.00000641 Ry

     iteration # 54     ecut=    40.00 Ry     beta=0.05
     Davidson diagonalization with overlap
     ethr =  2.79E-09,  avg # of iterations =  1.0

     negative rho (up, down):  0.394E-02 0.000E+00

     total cpu time spent up to now is    11263.2 secs

     total energy              =   -1728.06462425 Ry
     Harris-Foulkes estimate   =   -1728.06462428 Ry
     estimated scf accuracy    <       0.00000640 Ry

     iteration # 55     ecut=    40.00 Ry     beta=0.05
     Davidson diagonalization with overlap
     ethr =  2.78E-09,  avg # of iterations =  1.0

     negative rho (up, down):  0.391E-02 0.000E+00

     total cpu time spent up to now is    11461.8 secs

     total energy              =   -1728.06463007 Ry
     Harris-Foulkes estimate   =   -1728.06462448 Ry
     estimated scf accuracy    <       0.00000643 Ry

     iteration # 56     ecut=    40.00 Ry     beta=0.05
     Davidson diagonalization with overlap
     ethr =  2.78E-09,  avg # of iterations =  1.0

     negative rho (up, down):  0.388E-02 0.000E+00

     total cpu time spent up to now is    11662.9 secs

     total energy              =   -1728.06463516 Ry
     Harris-Foulkes estimate   =   -1728.06463187 Ry
     estimated scf accuracy    <       0.00000633 Ry

     iteration # 57     ecut=    40.00 Ry     beta=0.05
     Davidson diagonalization with overlap
     ethr =  2.75E-09,  avg # of iterations =  1.0

     negative rho (up, down):  0.385E-02 0.000E+00

     total cpu time spent up to now is    11869.1 secs

     total energy              =   -1728.06463718 Ry
     Harris-Foulkes estimate   =   -1728.06463536 Ry
     estimated scf accuracy    <       0.00000633 Ry

     iteration # 58     ecut=    40.00 Ry     beta=0.05
     Davidson diagonalization with overlap
     ethr =  2.75E-09,  avg # of iterations =  1.0

     negative rho (up, down):  0.382E-02 0.000E+00

     total cpu time spent up to now is    12072.8 secs

     total energy              =   -1728.06464009 Ry
     Harris-Foulkes estimate   =   -1728.06463718 Ry
     estimated scf accuracy    <       0.00000633 Ry

     iteration # 59     ecut=    40.00 Ry     beta=0.05
     Davidson diagonalization with overlap
     ethr =  2.75E-09,  avg # of iterations =  1.0

     negative rho (up, down):  0.380E-02 0.000E+00

     total cpu time spent up to now is    12271.0 secs

     total energy              =   -1728.06463110 Ry
     Harris-Foulkes estimate   =   -1728.06464026 Ry
     estimated scf accuracy    <       0.00000633 Ry

     iteration # 60     ecut=    40.00 Ry     beta=0.05
     Davidson diagonalization with overlap
     ethr =  2.75E-09,  avg # of iterations =  1.1

     negative rho (up, down):  0.378E-02 0.000E+00

     total cpu time spent up to now is    12469.2 secs

     total energy              =   -1728.06463876 Ry
     Harris-Foulkes estimate   =   -1728.06463436 Ry
     estimated scf accuracy    <       0.00000640 Ry

     iteration # 61     ecut=    40.00 Ry     beta=0.05
     Davidson diagonalization with overlap
     ethr =  2.75E-09,  avg # of iterations =  1.0

     negative rho (up, down):  0.376E-02 0.000E+00

     total cpu time spent up to now is    12667.1 secs

     total energy              =   -1728.06464021 Ry
     Harris-Foulkes estimate   =   -1728.06464025 Ry
     estimated scf accuracy    <       0.00000636 Ry

     iteration # 62     ecut=    40.00 Ry     beta=0.05
     Davidson diagonalization with overlap
     ethr =  2.75E-09,  avg # of iterations =  1.0

     negative rho (up, down):  0.375E-02 0.000E+00

     total cpu time spent up to now is    12859.8 secs

     total energy              =   -1728.06464226 Ry
     Harris-Foulkes estimate   =   -1728.06464041 Ry
     estimated scf accuracy    <       0.00000638 Ry

     iteration # 63     ecut=    40.00 Ry     beta=0.05
     Davidson diagonalization with overlap
     ethr =  2.75E-09,  avg # of iterations =  1.0

     negative rho (up, down):  0.374E-02 0.000E+00

     total cpu time spent up to now is    13052.3 secs

     total energy              =   -1728.06464618 Ry
     Harris-Foulkes estimate   =   -1728.06464263 Ry
     estimated scf accuracy    <       0.00000636 Ry

     iteration # 64     ecut=    40.00 Ry     beta=0.05
     Davidson diagonalization with overlap
     ethr =  2.75E-09,  avg # of iterations =  1.0

     negative rho (up, down):  0.372E-02 0.000E+00

     total cpu time spent up to now is    13245.0 secs

     total energy              =   -1728.06464887 Ry
     Harris-Foulkes estimate   =   -1728.06464694 Ry
     estimated scf accuracy    <       0.00000630 Ry

     iteration # 65     ecut=    40.00 Ry     beta=0.05
     Davidson diagonalization with overlap
     ethr =  2.74E-09,  avg # of iterations =  1.0

     negative rho (up, down):  0.371E-02 0.000E+00

     total cpu time spent up to now is    13443.6 secs

     total energy              =   -1728.06464977 Ry
     Harris-Foulkes estimate   =   -1728.06464898 Ry
     estimated scf accuracy    <       0.00000630 Ry

     iteration # 66     ecut=    40.00 Ry     beta=0.05
     Davidson diagonalization with overlap
     ethr =  2.74E-09,  avg # of iterations =  1.0

     negative rho (up, down):  0.370E-02 0.000E+00

     total cpu time spent up to now is    13643.3 secs

     total energy              =   -1728.06465037 Ry
     Harris-Foulkes estimate   =   -1728.06464977 Ry
     estimated scf accuracy    <       0.00000630 Ry

     iteration # 67     ecut=    40.00 Ry     beta=0.05
     Davidson diagonalization with overlap
     ethr =  2.74E-09,  avg # of iterations =  1.0

     negative rho (up, down):  0.369E-02 0.000E+00

     total cpu time spent up to now is    13836.6 secs

     total energy              =   -1728.06465069 Ry
     Harris-Foulkes estimate   =   -1728.06465037 Ry
     estimated scf accuracy    <       0.00000630 Ry

     iteration # 68     ecut=    40.00 Ry     beta=0.05
     Davidson diagonalization with overlap
     ethr =  2.74E-09,  avg # of iterations =  1.0

     negative rho (up, down):  0.368E-02 0.000E+00

     total cpu time spent up to now is    14029.5 secs

     total energy              =   -1728.06464804 Ry
     Harris-Foulkes estimate   =   -1728.06465069 Ry
     estimated scf accuracy    <       0.00000630 Ry

     iteration # 69     ecut=    40.00 Ry     beta=0.05
     Davidson diagonalization with overlap
     ethr =  2.74E-09,  avg # of iterations =  1.0

     negative rho (up, down):  0.368E-02 0.000E+00

     total cpu time spent up to now is    14228.3 secs

     total energy              =   -1728.06465004 Ry
     Harris-Foulkes estimate   =   -1728.06464850 Ry
     estimated scf accuracy    <       0.00000631 Ry

     iteration # 70     ecut=    40.00 Ry     beta=0.05
     Davidson diagonalization with overlap
     ethr =  2.74E-09,  avg # of iterations =  1.0

     negative rho (up, down):  0.367E-02 0.000E+00

     total cpu time spent up to now is    14421.7 secs

     total energy              =   -1728.06464991 Ry
     Harris-Foulkes estimate   =   -1728.06465027 Ry
     estimated scf accuracy    <       0.00000624 Ry

     iteration # 71     ecut=    40.00 Ry     beta=0.05
     Davidson diagonalization with overlap
     ethr =  2.71E-09,  avg # of iterations =  1.0

     negative rho (up, down):  0.366E-02 0.000E+00

     total cpu time spent up to now is    14616.3 secs

     total energy              =   -1728.06465331 Ry
     Harris-Foulkes estimate   =   -1728.06465003 Ry
     estimated scf accuracy    <       0.00000626 Ry

     iteration # 72     ecut=    40.00 Ry     beta=0.05
     Davidson diagonalization with overlap
     ethr =  2.71E-09,  avg # of iterations =  1.0

     negative rho (up, down):  0.366E-02 0.000E+00

     total cpu time spent up to now is    14811.0 secs

     total energy              =   -1728.06464641 Ry
     Harris-Foulkes estimate   =   -1728.06465496 Ry
     estimated scf accuracy    <       0.00000627 Ry

     iteration # 73     ecut=    40.00 Ry     beta=0.05
     Davidson diagonalization with overlap
     ethr =  2.71E-09,  avg # of iterations =  1.0

     negative rho (up, down):  0.365E-02 0.000E+00

     total cpu time spent up to now is    15006.5 secs

     total energy              =   -1728.06465271 Ry
     Harris-Foulkes estimate   =   -1728.06464907 Ry
     estimated scf accuracy    <       0.00000621 Ry

     iteration # 74     ecut=    40.00 Ry     beta=0.05
     Davidson diagonalization with overlap
     ethr =  2.70E-09,  avg # of iterations =  1.0

     negative rho (up, down):  0.365E-02 0.000E+00

     total cpu time spent up to now is    15204.4 secs

     total energy              =   -1728.06465674 Ry
     Harris-Foulkes estimate   =   -1728.06465405 Ry
     estimated scf accuracy    <       0.00000634 Ry

     iteration # 75     ecut=    40.00 Ry     beta=0.05
     Davidson diagonalization with overlap
     ethr =  2.70E-09,  avg # of iterations =  1.0

     negative rho (up, down):  0.365E-02 0.000E+00

     total cpu time spent up to now is    15402.1 secs

     total energy              =   -1728.06464351 Ry
     Harris-Foulkes estimate   =   -1728.06465774 Ry
     estimated scf accuracy    <       0.00000620 Ry

     iteration # 76     ecut=    40.00 Ry     beta=0.05
     Davidson diagonalization with overlap
     ethr =  2.70E-09,  avg # of iterations =  2.0

     negative rho (up, down):  0.364E-02 0.000E+00

     total cpu time spent up to now is    15601.5 secs

     total energy              =   -1728.06465005 Ry
     Harris-Foulkes estimate   =   -1728.06464878 Ry
     estimated scf accuracy    <       0.00000627 Ry

     iteration # 77     ecut=    40.00 Ry     beta=0.05
     Davidson diagonalization with overlap
     ethr =  2.70E-09,  avg # of iterations =  1.0

     negative rho (up, down):  0.364E-02 0.000E+00

     total cpu time spent up to now is    15799.1 secs

     total energy              =   -1728.06465203 Ry
     Harris-Foulkes estimate   =   -1728.06465024 Ry
     estimated scf accuracy    <       0.00000615 Ry

     iteration # 78     ecut=    40.00 Ry     beta=0.05
     Davidson diagonalization with overlap
     ethr =  2.67E-09,  avg # of iterations =  1.0

     negative rho (up, down):  0.364E-02 0.000E+00

     total cpu time spent up to now is    15996.2 secs

     total energy              =   -1728.06465226 Ry
     Harris-Foulkes estimate   =   -1728.06465228 Ry
     estimated scf accuracy    <       0.00000623 Ry

     iteration # 79     ecut=    40.00 Ry     beta=0.05
     Davidson diagonalization with overlap
     ethr =  2.67E-09,  avg # of iterations =  1.0

     negative rho (up, down):  0.364E-02 0.000E+00

     total cpu time spent up to now is    16194.1 secs

     total energy              =   -1728.06465285 Ry
     Harris-Foulkes estimate   =   -1728.06465236 Ry
     estimated scf accuracy    <       0.00000618 Ry

     iteration # 80     ecut=    40.00 Ry     beta=0.05
     Davidson diagonalization with overlap
     ethr =  2.67E-09,  avg # of iterations =  1.0

     negative rho (up, down):  0.364E-02 0.000E+00

     total cpu time spent up to now is    16388.2 secs

     total energy              =   -1728.06465269 Ry
     Harris-Foulkes estimate   =   -1728.06465289 Ry
     estimated scf accuracy    <       0.00000616 Ry

     iteration # 81     ecut=    40.00 Ry     beta=0.05
     Davidson diagonalization with overlap
     ethr =  2.67E-09,  avg # of iterations =  1.0

     negative rho (up, down):  0.363E-02 0.000E+00

     total cpu time spent up to now is    16585.5 secs

     total energy              =   -1728.06465229 Ry
     Harris-Foulkes estimate   =   -1728.06465271 Ry
     estimated scf accuracy    <       0.00000615 Ry

     iteration # 82     ecut=    40.00 Ry     beta=0.05
     Davidson diagonalization with overlap
     ethr =  2.67E-09,  avg # of iterations =  1.0

     negative rho (up, down):  0.363E-02 0.000E+00

     total cpu time spent up to now is    16781.2 secs

     total energy              =   -1728.06465260 Ry
     Harris-Foulkes estimate   =   -1728.06465231 Ry
     estimated scf accuracy    <       0.00000614 Ry

     iteration # 83     ecut=    40.00 Ry     beta=0.05
     Davidson diagonalization with overlap
     ethr =  2.67E-09,  avg # of iterations =  1.0

     negative rho (up, down):  0.363E-02 0.000E+00

     total cpu time spent up to now is    16980.2 secs

     total energy              =   -1728.06465443 Ry
     Harris-Foulkes estimate   =   -1728.06465260 Ry
     estimated scf accuracy    <       0.00000614 Ry

     iteration # 84     ecut=    40.00 Ry     beta=0.05
     Davidson diagonalization with overlap
     ethr =  2.67E-09,  avg # of iterations =  1.0

     negative rho (up, down):  0.363E-02 0.000E+00

     total cpu time spent up to now is    17179.2 secs

     total energy              =   -1728.06465482 Ry
     Harris-Foulkes estimate   =   -1728.06465467 Ry
     estimated scf accuracy    <       0.00000613 Ry

     iteration # 85     ecut=    40.00 Ry     beta=0.05
     Davidson diagonalization with overlap
     ethr =  2.66E-09,  avg # of iterations =  1.0

     negative rho (up, down):  0.363E-02 0.000E+00

     total cpu time spent up to now is    17380.2 secs

     total energy              =   -1728.06465336 Ry
     Harris-Foulkes estimate   =   -1728.06465483 Ry
     estimated scf accuracy    <       0.00000613 Ry

     iteration # 86     ecut=    40.00 Ry     beta=0.05
     Davidson diagonalization with overlap
     ethr =  2.66E-09,  avg # of iterations =  1.0

     negative rho (up, down):  0.363E-02 0.000E+00

     total cpu time spent up to now is    17579.4 secs

     total energy              =   -1728.06465283 Ry
     Harris-Foulkes estimate   =   -1728.06465351 Ry
     estimated scf accuracy    <       0.00000609 Ry

     iteration # 87     ecut=    40.00 Ry     beta=0.05
     Davidson diagonalization with overlap
     ethr =  2.65E-09,  avg # of iterations =  1.0

     negative rho (up, down):  0.363E-02 0.000E+00

     total cpu time spent up to now is    17770.6 secs

     total energy              =   -1728.06465473 Ry
     Harris-Foulkes estimate   =   -1728.06465288 Ry
     estimated scf accuracy    <       0.00000610 Ry

     iteration # 88     ecut=    40.00 Ry     beta=0.05
     Davidson diagonalization with overlap
     ethr =  2.65E-09,  avg # of iterations =  1.0

     negative rho (up, down):  0.363E-02 0.000E+00

     total cpu time spent up to now is    17963.6 secs

     total energy              =   -1728.06465382 Ry
     Harris-Foulkes estimate   =   -1728.06465504 Ry
     estimated scf accuracy    <       0.00000610 Ry

     iteration # 89     ecut=    40.00 Ry     beta=0.05
     Davidson diagonalization with overlap
     ethr =  2.65E-09,  avg # of iterations =  1.0

     negative rho (up, down):  0.363E-02 0.000E+00

     total cpu time spent up to now is    18158.4 secs

     total energy              =   -1728.06465290 Ry
     Harris-Foulkes estimate   =   -1728.06465398 Ry
     estimated scf accuracy    <       0.00000606 Ry

     iteration # 90     ecut=    40.00 Ry     beta=0.05
     Davidson diagonalization with overlap
     ethr =  2.64E-09,  avg # of iterations =  1.0

     negative rho (up, down):  0.363E-02 0.000E+00

     total cpu time spent up to now is    18354.2 secs

     total energy              =   -1728.06465339 Ry
     Harris-Foulkes estimate   =   -1728.06465300 Ry
     estimated scf accuracy    <       0.00000611 Ry

     iteration # 91     ecut=    40.00 Ry     beta=0.05
     Davidson diagonalization with overlap
     ethr =  2.64E-09,  avg # of iterations =  1.0

     negative rho (up, down):  0.363E-02 0.000E+00

     total cpu time spent up to now is    18547.7 secs

     total energy              =   -1728.06465490 Ry
     Harris-Foulkes estimate   =   -1728.06465351 Ry
     estimated scf accuracy    <       0.00000610 Ry

     iteration # 92     ecut=    40.00 Ry     beta=0.05
     Davidson diagonalization with overlap
     ethr =  2.64E-09,  avg # of iterations =  1.0

     negative rho (up, down):  0.363E-02 0.000E+00

     total cpu time spent up to now is    18749.3 secs

     total energy              =   -1728.06465193 Ry
     Harris-Foulkes estimate   =   -1728.06465514 Ry
     estimated scf accuracy    <       0.00000610 Ry

     iteration # 93     ecut=    40.00 Ry     beta=0.05
     Davidson diagonalization with overlap
     ethr =  2.64E-09,  avg # of iterations =  1.0

     negative rho (up, down):  0.363E-02 0.000E+00

     total cpu time spent up to now is    18946.4 secs

     total energy              =   -1728.06465308 Ry
     Harris-Foulkes estimate   =   -1728.06465243 Ry
     estimated scf accuracy    <       0.00000608 Ry

     iteration # 94     ecut=    40.00 Ry     beta=0.05
     Davidson diagonalization with overlap
     ethr =  2.64E-09,  avg # of iterations =  1.0

     negative rho (up, down):  0.363E-02 0.000E+00

     total cpu time spent up to now is    19143.8 secs

     total energy              =   -1728.06465629 Ry
     Harris-Foulkes estimate   =   -1728.06465316 Ry
     estimated scf accuracy    <       0.00000605 Ry

     iteration # 95     ecut=    40.00 Ry     beta=0.05
     Davidson diagonalization with overlap
     ethr =  2.63E-09,  avg # of iterations =  1.0

     negative rho (up, down):  0.363E-02 0.000E+00

     total cpu time spent up to now is    19340.2 secs

     total energy              =   -1728.06465419 Ry
     Harris-Foulkes estimate   =   -1728.06465747 Ry
     estimated scf accuracy    <       0.00000606 Ry

     iteration # 96     ecut=    40.00 Ry     beta=0.05
     Davidson diagonalization with overlap
     ethr =  2.63E-09,  avg # of iterations =  1.0

     negative rho (up, down):  0.363E-02 0.000E+00

     total cpu time spent up to now is    19535.1 secs

     total energy              =   -1728.06465472 Ry
     Harris-Foulkes estimate   =   -1728.06465469 Ry
     estimated scf accuracy    <       0.00000604 Ry

     iteration # 97     ecut=    40.00 Ry     beta=0.05
     Davidson diagonalization with overlap
     ethr =  2.63E-09,  avg # of iterations =  1.0

     negative rho (up, down):  0.363E-02 0.000E+00

     total cpu time spent up to now is    19731.1 secs

     total energy              =   -1728.06465626 Ry
     Harris-Foulkes estimate   =   -1728.06465472 Ry
     estimated scf accuracy    <       0.00000605 Ry

     iteration # 98     ecut=    40.00 Ry     beta=0.05
     Davidson diagonalization with overlap
     ethr =  2.63E-09,  avg # of iterations =  1.0

     negative rho (up, down):  0.363E-02 0.000E+00

     total cpu time spent up to now is    19924.7 secs

     total energy              =   -1728.06465634 Ry
     Harris-Foulkes estimate   =   -1728.06465657 Ry
     estimated scf accuracy    <       0.00000610 Ry

     iteration # 99     ecut=    40.00 Ry     beta=0.05
     Davidson diagonalization with overlap
     ethr =  2.63E-09,  avg # of iterations =  1.0

     negative rho (up, down):  0.363E-02 0.000E+00

     total cpu time spent up to now is    20121.9 secs

     total energy              =   -1728.06465385 Ry
     Harris-Foulkes estimate   =   -1728.06465646 Ry
     estimated scf accuracy    <       0.00000602 Ry

     iteration #100     ecut=    40.00 Ry     beta=0.05
     Davidson diagonalization with overlap
     ethr =  2.62E-09,  avg # of iterations =  1.0

     negative rho (up, down):  0.363E-02 0.000E+00

     total cpu time spent up to now is    20321.9 secs

     total energy              =   -1728.06465563 Ry
     Harris-Foulkes estimate   =   -1728.06465424 Ry
     estimated scf accuracy    <       0.00000599 Ry

     End of self-consistent calculation

     convergence NOT achieved after 100 iterations: stopping

     init_run     :    151.19s CPU    155.03s WALL (       1 calls)
     electrons    :  19342.23s CPU  20166.53s WALL (       1 calls)

     Called by init_run:
     wfcinit      :     43.67s CPU     46.96s WALL (       1 calls)
     potinit      :      7.36s CPU      7.60s WALL (       1 calls)

     Called by electrons:
     c_bands      :   9099.74s CPU   9438.84s WALL (     100 calls)
     sum_band     :   4056.59s CPU   4243.29s WALL (     100 calls)
     v_of_rho     :    114.32s CPU    121.43s WALL (     101 calls)
     newd         :   6067.98s CPU   6289.71s WALL (     101 calls)
     mix_rho      :     25.21s CPU     26.16s WALL (     100 calls)

     Called by c_bands:
     init_us_2    :     25.33s CPU     25.53s WALL (     606 calls)
     cegterg      :   8976.40s CPU   9279.67s WALL (     300 calls)

     Called by *egterg:
     h_psi        :   5713.21s CPU   5911.90s WALL (     738 calls)
     s_psi        :    481.49s CPU    487.53s WALL (     741 calls)
     g_psi        :     10.48s CPU     10.49s WALL (     435 calls)
     cdiaghg      :    591.17s CPU    593.26s WALL (     735 calls)

     Called by h_psi:
     add_vuspsi   :    484.13s CPU    490.83s WALL (     738 calls)
     vhpsi        :    511.46s CPU    520.87s WALL (     738 calls)

     General routines
     calbec       :   1062.17s CPU   1076.15s WALL (    2079 calls)
     fft          :    207.90s CPU    296.77s WALL (    1614 calls)
     ffts         :      2.08s CPU      2.22s WALL (     201 calls)
     fftw         :   3417.90s CPU   3664.56s WALL (  524686 calls)
     interpolate  :     18.53s CPU     19.01s WALL (     201 calls)
     davcio       :      0.05s CPU     12.27s WALL (     612 calls)

     Parallel routines
     fft_scatter  :   1578.00s CPU   1907.26s WALL (  526501 calls)
     Hubbard U routines
     new_ns       :    122.38s CPU    130.13s WALL (     100 calls)
     vhpsi        :    511.46s CPU    520.87s WALL (     738 calls)

     PWSCF        :     5h24m CPU        5h38m WALL


   This run was terminated on:   3:35:37  28May2014            

=------------------------------------------------------------------------------=
   JOB DONE.
=------------------------------------------------------------------------------=
STOP 1
STOP 1
STOP 1
STOP 1
STOP 1
STOP 1
STOP 1
STOP 1
STOP 1
STOP 1
STOP 1
STOP 1
STOP 1
STOP 1
STOP 1
STOP 1
--------------------------------------------------------------------------
mpirun noticed that the job aborted, but has no info as to the process
that caused that situation.
--------------------------------------------------------------------------
---------------------------------------
Running PBS batch system epilogue script
Job id: 373252.audhumbla.fysik.dtu.dk
Username: zhonxu
Groupname: campgst
Jobname: MoO2/Eads-2-layers/O-U-6.5
Sessionid: 3219
Resources limits: neednodes=2:ppn=8:xeon8,nodes=2:ppn=8:xeon8,walltime=48:00:00
Resources used: cput=90:16:03,mem=16424016kb,vmem=20077108kb,walltime=05:38:53
Queuename: verylong
Accounting:
This job has allocated the following 16 nodes:
a028 a028 a028 a028 a028 a028 a028 a028 a001 a001 a001 a001 a001 a001 a001 a001
Finished epilogue job 373252.audhumbla.fysik.dtu.dk for zhonxu
