
     Program PWSCF v.5.0.2 (svn rev. 9656) starts on  5Jun2014 at 18:26:24 

     This program is part of the open-source Quantum ESPRESSO suite
     for quantum simulation of materials; please cite
         "P. Giannozzi et al., J. Phys.:Condens. Matter 21 395502 (2009);
          URL http://www.quantum-espresso.org", 
     in publications or presentations arising from this work. More details at
     http://www.quantum-espresso.org/quote.php

     Parallel version (MPI), running on    16 processors
     K-points division:     npool     =       4
     R & G space division:  proc/nbgrp/npool/nimage =       4

     Current dimensions of program PWSCF are:
     Max number of different atomic species (ntypx) = 10
     Max number of k-points (npk) =  40000
     Max angular momentum in pseudopotentials (lmaxx) =  3
     Reading input from pwscf.in
Warning: card &CELL ignored
Warning: card / ignored

     Subspace diagonalization in iterative solution of the eigenvalue problem:
     a serial algorithm will be used


     Parallelization info
     --------------------
     sticks:   dense  smooth     PW     G-vecs:    dense   smooth      PW
     Min        1357     434    120               328723    59498    8862
     Max        1358     435    121               328730    59528    8871
     Sum        5431    1737    483              1314909   238057   35467



     bravais-lattice index     =            0
     lattice parameter (alat)  =      10.3179  a.u.
     unit-cell volume          =    6964.3238 (a.u.)^3
     number of atoms/cell      =           31
     number of atomic types    =            3
     number of electrons       =       230.00
     number of Kohn-Sham states=          345
     kinetic-energy cutoff     =      40.0000  Ry
     charge density cutoff     =     500.0000  Ry
     convergence threshold     =      1.0E-06
     mixing beta               =       0.3000
     number of iterations used =            8  plain     mixing
     Exchange-correlation      = SLA  PW   PBE  PBE ( 1 4 3 4 0)
     EXX-fraction              =        0.00
     nstep                     =           50


     celldm(1)=  10.317905  celldm(2)=   0.000000  celldm(3)=   0.000000
     celldm(4)=   0.000000  celldm(5)=   0.000000  celldm(6)=   0.000000

     crystal axes: (cart. coord. in units of alat)
               a(1) = (   1.000000   0.000000   0.000000 )  
               a(2) = (   0.000000   1.282117   0.000000 )  
               a(3) = (   0.000000   0.000000   4.945120 )  

     reciprocal axes: (cart. coord. in units 2 pi/alat)
               b(1) = (  1.000000  0.000000  0.000000 )  
               b(2) = (  0.000000  0.779960  0.000000 )  
               b(3) = (  0.000000  0.000000  0.202220 )  


     PseudoPot. # 1 for O  read from file:
     /home/camp/zhonxu/pseudo/o_pbe_v1.01.uspp.F.UPF
     MD5 check sum: 2bcb18d16ea4b960afae9ec6d52f22d2
     Pseudo is Ultrasoft + core correction, Zval =  6.0
     Generated by new atomic code, or converted to UPF format
     Using radial grid of  737 points,  5 beta functions with: 
                l(1) =   0
                l(2) =   0
                l(3) =   1
                l(4) =   1
                l(5) =   2
     Q(r) pseudized with  8 coefficients,  rinner =    0.900   0.900   0.900
                                                       0.900   0.900

     PseudoPot. # 2 for Mo read from file:
     /home/camp/zhonxu/pseudo/mo_pbe_v1.uspp.F.UPF
     MD5 check sum: 30c4dcd161f5d35cd49bb5239c51a633
     Pseudo is Ultrasoft + core correction, Zval = 14.0
     Generated by new atomic code, or converted to UPF format
     Using radial grid of  889 points,  6 beta functions with: 
                l(1) =   0
                l(2) =   0
                l(3) =   1
                l(4) =   1
                l(5) =   2
                l(6) =   2
     Q(r) pseudized with  6 coefficients,  rinner =    1.000   1.000   1.000
                                                       1.000   1.000

     PseudoPot. # 3 for H  read from file:
     /home/camp/zhonxu/pseudo/h_pbe_v1.uspp.F.UPF
     MD5 check sum: 3408e3ff4ec8b0a4e358431e7e038a48
     Pseudo is Ultrasoft, Zval =  1.0
     Generated by new atomic code, or converted to UPF format
     Using radial grid of  615 points,  2 beta functions with: 
                l(1) =   0
                l(2) =   0
     Q(r) pseudized with  8 coefficients,  rinner =    0.700

     atomic species   valence    mass     pseudopotential
        O0             6.00    15.99940     O ( 1.00)
        Mo1           14.00    95.94000     Mo( 1.00)
        H2             1.00     1.00794     H ( 1.00)


     Simplified LDA+U calculation (l_max = 2) with parameters (eV):
     atomic species    L          U    alpha       J0     beta
        Mo1            2     6.5000   0.0000   0.0000   0.0000



     No symmetry found



   Cartesian axes

     site n.     atom                  positions (alat units)
         1           O0  tau(   1) = (   0.0000000   0.0000000   1.8231670  )
         2           O0  tau(   2) = (   0.0000000   0.6410583   1.9021900  )
         3           Mo1 tau(   3) = (   0.2500000   0.6410583   2.1911334  )
         4           Mo1 tau(   4) = (   0.0000000   0.0000000   2.1773365  )
         5           O0  tau(   5) = (   0.2500000   1.0000510   2.1869795  )
         6           O0  tau(   6) = (   0.2500000   0.2820657   2.1860399  )
         7           O0  tau(   7) = (   0.0000000   0.6410583   2.4689997  )
         8           O0  tau(   8) = (   0.0000000   0.0000000   2.5461436  )
         9           Mo1 tau(   9) = (   0.2500000   0.0000000   2.8618895  )
        10           Mo1 tau(  10) = (   0.0000000   0.6410583   2.8146142  )
        11           O0  tau(  11) = (   0.2500000   0.9231240   2.8298946  )
        12           O0  tau(  12) = (   0.2500000   0.3589927   2.8300924  )
        13           O0  tau(  13) = (   0.0000000   0.0000000   3.0854584  )
        14           O0  tau(  14) = (   0.5000000   0.0000000   1.8293484  )
        15           O0  tau(  15) = (   0.5000000   0.6410583   1.9024867  )
        16           Mo1 tau(  16) = (   0.7500000   0.6410583   2.1915784  )
        17           Mo1 tau(  17) = (   0.5000000   0.0000000   2.1843586  )
        18           O0  tau(  18) = (   0.7500000   1.0000510   2.1859905  )
        19           O0  tau(  19) = (   0.7500000   0.2820657   2.1868806  )
        20           O0  tau(  20) = (   0.5000000   0.6410583   2.4600985  )
        21           O0  tau(  21) = (   0.5000000   0.0000000   2.5435227  )
        22           Mo1 tau(  22) = (   0.7500000   0.0000000   2.8094218  )
        23           Mo1 tau(  23) = (   0.5000000   0.6410583   2.8738072  )
        24           O0  tau(  24) = (   0.7500000   0.9231240   2.8241088  )
        25           O0  tau(  25) = (   0.7500000   0.3589927   2.8241582  )
        26           O0  tau(  26) = (   0.5000000   0.0000000   3.0842221  )
        27           H2  tau(  27) = (   0.0020900   0.7764755   1.7839027  )
        28           H2  tau(  28) = (   0.4979600   0.7941815   1.8072437  )
        29           H2  tau(  29) = (   0.1655000   0.0263475   1.7499792  )
        30           H2  tau(  30) = (   0.6619000   0.0263988   1.7495836  )
        31           O0  tau(  31) = (   0.5024700   0.6408147   3.1812454  )

     number of k points=    10  Methfessel-Paxton smearing, width (Ry)=  0.0100
                       cart. coord. in units 2pi/alat
        k(    1) = (   0.0000000   0.0000000   0.0000000), wk =   0.1250000
        k(    2) = (   0.0000000   0.1949901   0.0000000), wk =   0.2500000
        k(    3) = (   0.0000000  -0.3899801   0.0000000), wk =   0.1250000
        k(    4) = (   0.2500000   0.0000000   0.0000000), wk =   0.2500000
        k(    5) = (   0.2500000   0.1949901   0.0000000), wk =   0.2500000
        k(    6) = (   0.2500000  -0.3899801   0.0000000), wk =   0.2500000
        k(    7) = (  -0.5000000   0.0000000   0.0000000), wk =   0.1250000
        k(    8) = (  -0.5000000   0.1949901   0.0000000), wk =   0.2500000
        k(    9) = (  -0.5000000  -0.3899801   0.0000000), wk =   0.1250000
        k(   10) = (  -0.2500000   0.1949901   0.0000000), wk =   0.2500000

     Dense  grid:  1314909 G-vectors     FFT dimensions: (  75,  96, 375)

     Smooth grid:   238057 G-vectors     FFT dimensions: (  45,  54, 216)

     Largest allocated arrays     est. size (Mb)     dimensions
        Kohn-Sham Wavefunctions        39.45 Mb     (   7494,  345)
        Atomic wavefunctions           21.04 Mb     (   7494,  184)
        NL pseudopotentials            45.63 Mb     (   7494,  399)
        Each V/rho on FFT grid         10.33 Mb     ( 676800)
        Each G-vector array             2.51 Mb     ( 328726)
        G-vector shells                 1.08 Mb     ( 142042)
     Largest temporary arrays     est. size (Mb)     dimensions
        Auxiliary wavefunctions       157.80 Mb     (   7494, 1380)
        Each subspace H/S matrix       29.06 Mb     (1380,1380)
        Each <psi_i|beta_j> matrix      2.10 Mb     (    399,  345)
        Arrays for rho mixing          82.62 Mb     ( 676800,   8)

     Check: negative/imaginary core charge=   -0.000003    0.000000

     Initial potential from superposition of free atoms
     Check: negative starting charge=   -0.002500

     starting charge  229.99143, renormalised to  230.00000

     negative rho (up, down):  0.250E-02 0.000E+00
     Number of +U iterations with fixed ns =  0
     Starting occupations:
 --- enter write_ns ---
 LDA+U parameters:
U( 2)     =  6.50000000
alpha( 2) =  0.00000000
atom    3   Tr[ns(na)] =   5.00000
    eigenvalues: 
  0.500  0.500  0.500  0.500  0.500
    eigenvectors:
  1.000  0.000  0.000  0.000  0.000
  0.000  1.000  0.000  0.000  0.000
  0.000  0.000  1.000  0.000  0.000
  0.000  0.000  0.000  1.000  0.000
  0.000  0.000  0.000  0.000  1.000
    occupations:
  0.500  0.000  0.000  0.000  0.000
  0.000  0.500  0.000  0.000  0.000
  0.000  0.000  0.500  0.000  0.000
  0.000  0.000  0.000  0.500  0.000
  0.000  0.000  0.000  0.000  0.500
atom    4   Tr[ns(na)] =   5.00000
    eigenvalues: 
  0.500  0.500  0.500  0.500  0.500
    eigenvectors:
  1.000  0.000  0.000  0.000  0.000
  0.000  1.000  0.000  0.000  0.000
  0.000  0.000  1.000  0.000  0.000
  0.000  0.000  0.000  1.000  0.000
  0.000  0.000  0.000  0.000  1.000
    occupations:
  0.500  0.000  0.000  0.000  0.000
  0.000  0.500  0.000  0.000  0.000
  0.000  0.000  0.500  0.000  0.000
  0.000  0.000  0.000  0.500  0.000
  0.000  0.000  0.000  0.000  0.500
atom    9   Tr[ns(na)] =   5.00000
    eigenvalues: 
  0.500  0.500  0.500  0.500  0.500
    eigenvectors:
  1.000  0.000  0.000  0.000  0.000
  0.000  1.000  0.000  0.000  0.000
  0.000  0.000  1.000  0.000  0.000
  0.000  0.000  0.000  1.000  0.000
  0.000  0.000  0.000  0.000  1.000
    occupations:
  0.500  0.000  0.000  0.000  0.000
  0.000  0.500  0.000  0.000  0.000
  0.000  0.000  0.500  0.000  0.000
  0.000  0.000  0.000  0.500  0.000
  0.000  0.000  0.000  0.000  0.500
atom   10   Tr[ns(na)] =   5.00000
    eigenvalues: 
  0.500  0.500  0.500  0.500  0.500
    eigenvectors:
  1.000  0.000  0.000  0.000  0.000
  0.000  1.000  0.000  0.000  0.000
  0.000  0.000  1.000  0.000  0.000
  0.000  0.000  0.000  1.000  0.000
  0.000  0.000  0.000  0.000  1.000
    occupations:
  0.500  0.000  0.000  0.000  0.000
  0.000  0.500  0.000  0.000  0.000
  0.000  0.000  0.500  0.000  0.000
  0.000  0.000  0.000  0.500  0.000
  0.000  0.000  0.000  0.000  0.500
atom   16   Tr[ns(na)] =   5.00000
    eigenvalues: 
  0.500  0.500  0.500  0.500  0.500
    eigenvectors:
  1.000  0.000  0.000  0.000  0.000
  0.000  1.000  0.000  0.000  0.000
  0.000  0.000  1.000  0.000  0.000
  0.000  0.000  0.000  1.000  0.000
  0.000  0.000  0.000  0.000  1.000
    occupations:
  0.500  0.000  0.000  0.000  0.000
  0.000  0.500  0.000  0.000  0.000
  0.000  0.000  0.500  0.000  0.000
  0.000  0.000  0.000  0.500  0.000
  0.000  0.000  0.000  0.000  0.500
atom   17   Tr[ns(na)] =   5.00000
    eigenvalues: 
  0.500  0.500  0.500  0.500  0.500
    eigenvectors:
  1.000  0.000  0.000  0.000  0.000
  0.000  1.000  0.000  0.000  0.000
  0.000  0.000  1.000  0.000  0.000
  0.000  0.000  0.000  1.000  0.000
  0.000  0.000  0.000  0.000  1.000
    occupations:
  0.500  0.000  0.000  0.000  0.000
  0.000  0.500  0.000  0.000  0.000
  0.000  0.000  0.500  0.000  0.000
  0.000  0.000  0.000  0.500  0.000
  0.000  0.000  0.000  0.000  0.500
atom   22   Tr[ns(na)] =   5.00000
    eigenvalues: 
  0.500  0.500  0.500  0.500  0.500
    eigenvectors:
  1.000  0.000  0.000  0.000  0.000
  0.000  1.000  0.000  0.000  0.000
  0.000  0.000  1.000  0.000  0.000
  0.000  0.000  0.000  1.000  0.000
  0.000  0.000  0.000  0.000  1.000
    occupations:
  0.500  0.000  0.000  0.000  0.000
  0.000  0.500  0.000  0.000  0.000
  0.000  0.000  0.500  0.000  0.000
  0.000  0.000  0.000  0.500  0.000
  0.000  0.000  0.000  0.000  0.500
atom   23   Tr[ns(na)] =   5.00000
    eigenvalues: 
  0.500  0.500  0.500  0.500  0.500
    eigenvectors:
  1.000  0.000  0.000  0.000  0.000
  0.000  1.000  0.000  0.000  0.000
  0.000  0.000  1.000  0.000  0.000
  0.000  0.000  0.000  1.000  0.000
  0.000  0.000  0.000  0.000  1.000
    occupations:
  0.500  0.000  0.000  0.000  0.000
  0.000  0.500  0.000  0.000  0.000
  0.000  0.000  0.500  0.000  0.000
  0.000  0.000  0.000  0.500  0.000
  0.000  0.000  0.000  0.000  0.500
N of occupied +U levels =  40.0000000
 --- exit write_ns ---
 Atomic wfc used for LDA+U Projector are NOT orthogonalized
     Starting wfc are  184 randomized atomic wfcs

     total cpu time spent up to now is      102.1 secs

     per-process dynamical memory:   383.4 Mb

     Self-consistent Calculation

     iteration #  1     ecut=    40.00 Ry     beta=0.30
     Davidson diagonalization with overlap
     ethr =  1.00E-02,  avg # of iterations =  6.0
 --- enter write_ns ---
 LDA+U parameters:
U( 2)     =  6.50000000
alpha( 2) =  0.00000000
atom    3   Tr[ns(na)] =   4.94795
    eigenvalues: 
  0.333  0.444  0.484  0.557  0.656
    eigenvectors:
  0.007  0.012  0.457  0.001  0.523
  0.000  0.978  0.021  0.001  0.000
  0.972  0.000  0.001  0.021  0.006
  0.001  0.009  0.521  0.001  0.469
  0.020  0.001  0.000  0.977  0.002
    occupations:
  0.572 -0.006  0.022 -0.085 -0.006
 -0.006  0.445 -0.002 -0.002 -0.003
  0.022 -0.002  0.340 -0.014  0.031
 -0.085 -0.002 -0.014  0.564  0.004
 -0.006 -0.003  0.031  0.004  0.552
atom    4   Tr[ns(na)] =   4.93240
    eigenvalues: 
  0.310  0.434  0.484  0.548  0.690
    eigenvectors:
  0.000  0.000  0.947  0.023  0.029
  0.000  0.000  0.023  0.976  0.001
  1.000  0.000  0.000  0.000  0.000
  0.000  0.000  0.030  0.000  0.970
  0.000  1.000  0.000  0.000  0.000
    occupations:
  0.492  0.009  0.001 -0.035 -0.000
  0.009  0.546  0.004  0.005 -0.001
  0.001  0.004  0.310 -0.000  0.001
 -0.035  0.005 -0.000  0.684  0.000
 -0.000 -0.001  0.001  0.000  0.434
atom    9   Tr[ns(na)] =   4.69057
    eigenvalues: 
  0.374  0.409  0.495  0.517  0.550
    eigenvectors:
  0.000  0.000  0.513  0.000  0.487
  0.000  0.000  0.001  0.998  0.000
  0.928  0.072  0.000  0.000  0.000
  0.000  0.000  0.486  0.001  0.513
  0.072  0.928  0.000  0.000  0.000
    occupations:
  0.522 -0.001  0.000 -0.027 -0.000
 -0.001  0.517  0.000 -0.000 -0.000
  0.000  0.000  0.376  0.000  0.009
 -0.027 -0.000  0.000  0.523  0.000
 -0.000 -0.000  0.009  0.000  0.407
atom   10   Tr[ns(na)] =   4.51924
    eigenvalues: 
  0.287  0.384  0.434  0.470  0.685
    eigenvectors:
  0.000  0.991  0.000  0.001  0.008
  0.000  0.001  0.000  0.995  0.004
  0.999  0.000  0.001  0.000  0.000
  0.000  0.008  0.000  0.004  0.988
  0.001  0.000  0.999  0.000  0.000
    occupations:
  0.386  0.001 -0.000 -0.026  0.000
  0.001  0.471 -0.000  0.014 -0.000
 -0.000 -0.000  0.287  0.001 -0.005
 -0.026  0.014  0.001  0.681  0.000
  0.000 -0.000 -0.005  0.000  0.434
atom   16   Tr[ns(na)] =   4.91472
    eigenvalues: 
  0.321  0.444  0.483  0.558  0.651
    eigenvectors:
  0.003  0.012  0.465  0.001  0.520
  0.000  0.978  0.020  0.001  0.000
  0.981  0.000  0.001  0.015  0.003
  0.000  0.009  0.514  0.001  0.476
  0.015  0.001  0.000  0.983  0.002
    occupations:
  0.570  0.006  0.016 -0.084  0.005
  0.006  0.445  0.002  0.002 -0.003
  0.016  0.002  0.326 -0.010 -0.028
 -0.084  0.002 -0.010  0.563 -0.003
  0.005 -0.003 -0.028 -0.003  0.554
atom   17   Tr[ns(na)] =   5.03311
    eigenvalues: 
  0.324  0.437  0.493  0.558  0.704
    eigenvectors:
  0.000  0.000  0.958  0.008  0.034
  0.000  0.000  0.009  0.990  0.001
  1.000  0.000  0.000  0.000  0.000
  0.000  0.000  0.033  0.002  0.966
  0.000  1.000  0.000  0.000  0.000
    occupations:
  0.501 -0.007  0.001 -0.038 -0.000
 -0.007  0.557  0.005  0.002  0.000
  0.001  0.005  0.324  0.000 -0.000
 -0.038  0.002  0.000  0.697  0.000
 -0.000  0.000 -0.000  0.000  0.437
atom   22   Tr[ns(na)] =   5.03218
    eigenvalues: 
  0.346  0.470  0.481  0.496  0.724
    eigenvectors:
  0.000  0.000  0.004  0.324  0.672
  0.000  0.000  0.987  0.013  0.000
  0.976  0.024  0.000  0.000  0.000
  0.000  0.000  0.009  0.663  0.328
  0.024  0.976  0.000  0.000  0.000
    occupations:
  0.649  0.001  0.000 -0.107  0.000
  0.001  0.481 -0.000  0.001  0.000
  0.000 -0.000  0.349 -0.000 -0.019
 -0.107  0.001 -0.000  0.570 -0.000
  0.000  0.000 -0.019 -0.000  0.467
atom   23   Tr[ns(na)] =   4.82380
    eigenvalues: 
  0.375  0.422  0.429  0.525  0.661
    eigenvectors:
  0.000  0.000  0.001  0.915  0.085
  0.000  0.001  0.998  0.001  0.000
  0.995  0.005  0.000  0.000  0.000
  0.000  0.000  0.000  0.084  0.915
  0.005  0.994  0.001  0.000  0.000
    occupations:
  0.536 -0.002  0.000 -0.038 -0.000
 -0.002  0.429  0.000 -0.003  0.000
  0.000  0.000  0.375 -0.000  0.003
 -0.038 -0.003 -0.000  0.650 -0.000
 -0.000  0.000  0.003 -0.000  0.422
N of occupied +U levels =  38.8939654
 --- exit write_ns ---

     negative rho (up, down):  0.255E-02 0.000E+00

     total cpu time spent up to now is      442.0 secs

     total energy              =   -1726.13209122 Ry
     Harris-Foulkes estimate   =   -1729.70002712 Ry
     estimated scf accuracy    <       8.80020004 Ry

     iteration #  2     ecut=    40.00 Ry     beta=0.30
     Davidson diagonalization with overlap
     ethr =  3.83E-03,  avg # of iterations =  1.0

     negative rho (up, down):  0.319E-02 0.000E+00

     total cpu time spent up to now is      603.0 secs

     total energy              =   -1727.38695354 Ry
     Harris-Foulkes estimate   =   -1728.13928232 Ry
     estimated scf accuracy    <       3.10521565 Ry

     iteration #  3     ecut=    40.00 Ry     beta=0.30
     Davidson diagonalization with overlap
     ethr =  1.35E-03,  avg # of iterations =  3.6

     negative rho (up, down):  0.423E-02 0.000E+00

     total cpu time spent up to now is      781.8 secs

     total energy              =   -1727.77126335 Ry
     Harris-Foulkes estimate   =   -1728.16972377 Ry
     estimated scf accuracy    <       2.31899556 Ry

     iteration #  4     ecut=    40.00 Ry     beta=0.30
     Davidson diagonalization with overlap
     ethr =  1.01E-03,  avg # of iterations =  1.0

     negative rho (up, down):  0.430E-02 0.000E+00

     total cpu time spent up to now is      947.6 secs

     total energy              =   -1727.97188989 Ry
     Harris-Foulkes estimate   =   -1728.00499724 Ry
     estimated scf accuracy    <       0.41459275 Ry

     iteration #  5     ecut=    40.00 Ry     beta=0.30
     Davidson diagonalization with overlap
     ethr =  1.80E-04,  avg # of iterations =  6.5

     negative rho (up, down):  0.328E-02 0.000E+00

     total cpu time spent up to now is     1132.4 secs

     total energy              =   -1728.02523711 Ry
     Harris-Foulkes estimate   =   -1728.01392295 Ry
     estimated scf accuracy    <       0.21172167 Ry

     iteration #  6     ecut=    40.00 Ry     beta=0.30
     Davidson diagonalization with overlap
     ethr =  9.21E-05,  avg # of iterations =  7.6

     negative rho (up, down):  0.338E-02 0.000E+00

     total cpu time spent up to now is     1343.3 secs

     total energy              =   -1728.02817828 Ry
     Harris-Foulkes estimate   =   -1728.05419054 Ry
     estimated scf accuracy    <       0.27477354 Ry

     iteration #  7     ecut=    40.00 Ry     beta=0.30
     Davidson diagonalization with overlap
     ethr =  9.21E-05,  avg # of iterations =  4.0

     negative rho (up, down):  0.353E-02 0.000E+00

     total cpu time spent up to now is     1530.8 secs

     total energy              =   -1728.04383445 Ry
     Harris-Foulkes estimate   =   -1728.05493769 Ry
     estimated scf accuracy    <       0.13397079 Ry

     iteration #  8     ecut=    40.00 Ry     beta=0.30
     Davidson diagonalization with overlap
     ethr =  5.82E-05,  avg # of iterations =  3.3

     negative rho (up, down):  0.366E-02 0.000E+00

     total cpu time spent up to now is     1710.7 secs

     total energy              =   -1728.05544722 Ry
     Harris-Foulkes estimate   =   -1728.05685675 Ry
     estimated scf accuracy    <       0.05306275 Ry

     iteration #  9     ecut=    40.00 Ry     beta=0.30
     Davidson diagonalization with overlap
     ethr =  2.31E-05,  avg # of iterations =  1.0

     negative rho (up, down):  0.370E-02 0.000E+00

     total cpu time spent up to now is     1881.1 secs

     total energy              =   -1728.05979726 Ry
     Harris-Foulkes estimate   =   -1728.05868813 Ry
     estimated scf accuracy    <       0.00978403 Ry

     iteration # 10     ecut=    40.00 Ry     beta=0.30
     Davidson diagonalization with overlap
     ethr =  4.25E-06,  avg # of iterations =  8.3

     negative rho (up, down):  0.370E-02 0.000E+00

     total cpu time spent up to now is     2088.2 secs

     total energy              =   -1728.06186667 Ry
     Harris-Foulkes estimate   =   -1728.06057771 Ry
     estimated scf accuracy    <       0.00408213 Ry

     iteration # 11     ecut=    40.00 Ry     beta=0.30
     Davidson diagonalization with overlap
     ethr =  1.77E-06,  avg # of iterations =  1.8

     negative rho (up, down):  0.367E-02 0.000E+00

     total cpu time spent up to now is     2262.3 secs

     total energy              =   -1728.06293757 Ry
     Harris-Foulkes estimate   =   -1728.06230551 Ry
     estimated scf accuracy    <       0.00237431 Ry

     iteration # 12     ecut=    40.00 Ry     beta=0.30
     Davidson diagonalization with overlap
     ethr =  1.03E-06,  avg # of iterations =  1.0

     negative rho (up, down):  0.365E-02 0.000E+00

     total cpu time spent up to now is     2428.8 secs

     total energy              =   -1728.06361832 Ry
     Harris-Foulkes estimate   =   -1728.06324703 Ry
     estimated scf accuracy    <       0.00185524 Ry

     iteration # 13     ecut=    40.00 Ry     beta=0.30
     Davidson diagonalization with overlap
     ethr =  8.07E-07,  avg # of iterations =  1.0

     negative rho (up, down):  0.364E-02 0.000E+00

     total cpu time spent up to now is     2592.0 secs

     total energy              =   -1728.06412880 Ry
     Harris-Foulkes estimate   =   -1728.06390441 Ry
     estimated scf accuracy    <       0.00063790 Ry

     iteration # 14     ecut=    40.00 Ry     beta=0.30
     Davidson diagonalization with overlap
     ethr =  2.77E-07,  avg # of iterations =  1.0

     negative rho (up, down):  0.362E-02 0.000E+00

     total cpu time spent up to now is     2756.4 secs

     total energy              =   -1728.06437242 Ry
     Harris-Foulkes estimate   =   -1728.06427604 Ry
     estimated scf accuracy    <       0.00031441 Ry

     iteration # 15     ecut=    40.00 Ry     beta=0.30
     Davidson diagonalization with overlap
     ethr =  1.37E-07,  avg # of iterations =  1.0

     negative rho (up, down):  0.363E-02 0.000E+00

     total cpu time spent up to now is     2921.5 secs

     total energy              =   -1728.06446527 Ry
     Harris-Foulkes estimate   =   -1728.06443319 Ry
     estimated scf accuracy    <       0.00015038 Ry

     iteration # 16     ecut=    40.00 Ry     beta=0.30
     Davidson diagonalization with overlap
     ethr =  6.54E-08,  avg # of iterations =  1.0

     negative rho (up, down):  0.363E-02 0.000E+00

     total cpu time spent up to now is     3085.9 secs

     total energy              =   -1728.06451977 Ry
     Harris-Foulkes estimate   =   -1728.06452076 Ry
     estimated scf accuracy    <       0.00008292 Ry

     iteration # 17     ecut=    40.00 Ry     beta=0.30
     Davidson diagonalization with overlap
     ethr =  3.61E-08,  avg # of iterations =  1.0

     negative rho (up, down):  0.363E-02 0.000E+00

     total cpu time spent up to now is     3249.9 secs

     total energy              =   -1728.06453159 Ry
     Harris-Foulkes estimate   =   -1728.06453240 Ry
     estimated scf accuracy    <       0.00010991 Ry

     iteration # 18     ecut=    40.00 Ry     beta=0.30
     Davidson diagonalization with overlap
     ethr =  3.61E-08,  avg # of iterations =  1.0

     negative rho (up, down):  0.363E-02 0.000E+00

     total cpu time spent up to now is     3417.0 secs

     total energy              =   -1728.06455958 Ry
     Harris-Foulkes estimate   =   -1728.06455302 Ry
     estimated scf accuracy    <       0.00006573 Ry

     iteration # 19     ecut=    40.00 Ry     beta=0.30
     Davidson diagonalization with overlap
     ethr =  2.86E-08,  avg # of iterations =  1.0

     negative rho (up, down):  0.364E-02 0.000E+00

     total cpu time spent up to now is     3582.6 secs

     total energy              =   -1728.06457034 Ry
     Harris-Foulkes estimate   =   -1728.06456719 Ry
     estimated scf accuracy    <       0.00003110 Ry

     iteration # 20     ecut=    40.00 Ry     beta=0.30
     Davidson diagonalization with overlap
     ethr =  1.35E-08,  avg # of iterations =  1.0

     negative rho (up, down):  0.364E-02 0.000E+00

     total cpu time spent up to now is     3747.7 secs

     total energy              =   -1728.06457901 Ry
     Harris-Foulkes estimate   =   -1728.06457475 Ry
     estimated scf accuracy    <       0.00002571 Ry

     iteration # 21     ecut=    40.00 Ry     beta=0.30
     Davidson diagonalization with overlap
     ethr =  1.12E-08,  avg # of iterations =  1.0

     negative rho (up, down):  0.364E-02 0.000E+00

     total cpu time spent up to now is     3918.3 secs

     total energy              =   -1728.06458748 Ry
     Harris-Foulkes estimate   =   -1728.06458095 Ry
     estimated scf accuracy    <       0.00001279 Ry

     iteration # 22     ecut=    40.00 Ry     beta=0.30
     Davidson diagonalization with overlap
     ethr =  5.56E-09,  avg # of iterations =  1.0

     negative rho (up, down):  0.364E-02 0.000E+00

     total cpu time spent up to now is     4085.7 secs

     total energy              =   -1728.06459532 Ry
     Harris-Foulkes estimate   =   -1728.06459184 Ry
     estimated scf accuracy    <       0.00001470 Ry

     iteration # 23     ecut=    40.00 Ry     beta=0.30
     Davidson diagonalization with overlap
     ethr =  5.56E-09,  avg # of iterations =  1.0

     negative rho (up, down):  0.364E-02 0.000E+00

     total cpu time spent up to now is     4249.2 secs

     total energy              =   -1728.06460104 Ry
     Harris-Foulkes estimate   =   -1728.06459705 Ry
     estimated scf accuracy    <       0.00001035 Ry

     iteration # 24     ecut=    40.00 Ry     beta=0.30
     Davidson diagonalization with overlap
     ethr =  4.50E-09,  avg # of iterations =  1.0

     negative rho (up, down):  0.364E-02 0.000E+00

     total cpu time spent up to now is     4412.1 secs

     total energy              =   -1728.06460670 Ry
     Harris-Foulkes estimate   =   -1728.06460340 Ry
     estimated scf accuracy    <       0.00001276 Ry

     iteration # 25     ecut=    40.00 Ry     beta=0.30
     Davidson diagonalization with overlap
     ethr =  4.50E-09,  avg # of iterations =  1.0

     negative rho (up, down):  0.364E-02 0.000E+00

     total cpu time spent up to now is     4573.9 secs

     total energy              =   -1728.06461173 Ry
     Harris-Foulkes estimate   =   -1728.06460788 Ry
     estimated scf accuracy    <       0.00001089 Ry

     iteration # 26     ecut=    40.00 Ry     beta=0.30
     Davidson diagonalization with overlap
     ethr =  4.50E-09,  avg # of iterations =  1.0

     negative rho (up, down):  0.364E-02 0.000E+00

     total cpu time spent up to now is     4735.2 secs

     total energy              =   -1728.06461362 Ry
     Harris-Foulkes estimate   =   -1728.06461330 Ry
     estimated scf accuracy    <       0.00001125 Ry

     iteration # 27     ecut=    40.00 Ry     beta=0.30
     Davidson diagonalization with overlap
     ethr =  4.50E-09,  avg # of iterations =  1.0

     negative rho (up, down):  0.364E-02 0.000E+00

     total cpu time spent up to now is     4895.2 secs

     total energy              =   -1728.06461662 Ry
     Harris-Foulkes estimate   =   -1728.06461374 Ry
     estimated scf accuracy    <       0.00001081 Ry

     iteration # 28     ecut=    40.00 Ry     beta=0.30
     Davidson diagonalization with overlap
     ethr =  4.50E-09,  avg # of iterations =  1.0

     negative rho (up, down):  0.364E-02 0.000E+00

     total cpu time spent up to now is     5056.3 secs

     total energy              =   -1728.06461846 Ry
     Harris-Foulkes estimate   =   -1728.06461735 Ry
     estimated scf accuracy    <       0.00001073 Ry

     iteration # 29     ecut=    40.00 Ry     beta=0.30
     Davidson diagonalization with overlap
     ethr =  4.50E-09,  avg # of iterations =  1.0

     negative rho (up, down):  0.364E-02 0.000E+00

     total cpu time spent up to now is     5216.8 secs

     total energy              =   -1728.06461896 Ry
     Harris-Foulkes estimate   =   -1728.06461861 Ry
     estimated scf accuracy    <       0.00001083 Ry

     iteration # 30     ecut=    40.00 Ry     beta=0.30
     Davidson diagonalization with overlap
     ethr =  4.50E-09,  avg # of iterations =  1.0

     negative rho (up, down):  0.364E-02 0.000E+00

     total cpu time spent up to now is     5378.0 secs

     total energy              =   -1728.06461491 Ry
     Harris-Foulkes estimate   =   -1728.06461897 Ry
     estimated scf accuracy    <       0.00001071 Ry

     iteration # 31     ecut=    40.00 Ry     beta=0.30
     Davidson diagonalization with overlap
     ethr =  4.50E-09,  avg # of iterations =  1.0

     negative rho (up, down):  0.364E-02 0.000E+00

     total cpu time spent up to now is     5540.0 secs

     total energy              =   -1728.06461132 Ry
     Harris-Foulkes estimate   =   -1728.06461566 Ry
     estimated scf accuracy    <       0.00001130 Ry

     iteration # 32     ecut=    40.00 Ry     beta=0.30
     Davidson diagonalization with overlap
     ethr =  4.50E-09,  avg # of iterations =  1.0

     negative rho (up, down):  0.364E-02 0.000E+00

     total cpu time spent up to now is     5705.2 secs

     total energy              =   -1728.06461610 Ry
     Harris-Foulkes estimate   =   -1728.06461214 Ry
     estimated scf accuracy    <       0.00000978 Ry

     iteration # 33     ecut=    40.00 Ry     beta=0.30
     Davidson diagonalization with overlap
     ethr =  4.25E-09,  avg # of iterations =  2.0

     negative rho (up, down):  0.364E-02 0.000E+00

     total cpu time spent up to now is     5876.8 secs

     total energy              =   -1728.06461422 Ry
     Harris-Foulkes estimate   =   -1728.06462337 Ry
     estimated scf accuracy    <       0.00000944 Ry

     iteration # 34     ecut=    40.00 Ry     beta=0.30
     Davidson diagonalization with overlap
     ethr =  4.11E-09,  avg # of iterations =  1.0

     negative rho (up, down):  0.364E-02 0.000E+00

     total cpu time spent up to now is     6046.5 secs

     total energy              =   -1728.06462051 Ry
     Harris-Foulkes estimate   =   -1728.06461700 Ry
     estimated scf accuracy    <       0.00001081 Ry

     iteration # 35     ecut=    40.00 Ry     beta=0.30
     Davidson diagonalization with overlap
     ethr =  4.11E-09,  avg # of iterations =  2.0

     negative rho (up, down):  0.364E-02 0.000E+00

     total cpu time spent up to now is     6219.5 secs

     total energy              =   -1728.06463299 Ry
     Harris-Foulkes estimate   =   -1728.06462948 Ry
     estimated scf accuracy    <       0.00000931 Ry

     iteration # 36     ecut=    40.00 Ry     beta=0.30
     Davidson diagonalization with overlap
     ethr =  4.05E-09,  avg # of iterations =  1.0

     negative rho (up, down):  0.364E-02 0.000E+00

     total cpu time spent up to now is     6384.9 secs

     total energy              =   -1728.06461720 Ry
     Harris-Foulkes estimate   =   -1728.06463454 Ry
     estimated scf accuracy    <       0.00001025 Ry

     iteration # 37     ecut=    40.00 Ry     beta=0.30
     Davidson diagonalization with overlap
     ethr =  4.05E-09,  avg # of iterations =  2.0

     negative rho (up, down):  0.364E-02 0.000E+00

     total cpu time spent up to now is     6551.9 secs

     total energy              =   -1728.06462194 Ry
     Harris-Foulkes estimate   =   -1728.06462376 Ry
     estimated scf accuracy    <       0.00001035 Ry

     iteration # 38     ecut=    40.00 Ry     beta=0.30
     Davidson diagonalization with overlap
     ethr =  4.05E-09,  avg # of iterations =  1.0

     negative rho (up, down):  0.364E-02 0.000E+00

     total cpu time spent up to now is     6713.8 secs

     total energy              =   -1728.06462485 Ry
     Harris-Foulkes estimate   =   -1728.06462211 Ry
     estimated scf accuracy    <       0.00001019 Ry

     iteration # 39     ecut=    40.00 Ry     beta=0.30
     Davidson diagonalization with overlap
     ethr =  4.05E-09,  avg # of iterations =  1.0

     negative rho (up, down):  0.364E-02 0.000E+00

     total cpu time spent up to now is     6878.9 secs

     total energy              =   -1728.06461927 Ry
     Harris-Foulkes estimate   =   -1728.06462551 Ry
     estimated scf accuracy    <       0.00000988 Ry

     iteration # 40     ecut=    40.00 Ry     beta=0.30
     Davidson diagonalization with overlap
     ethr =  4.05E-09,  avg # of iterations =  1.0

     negative rho (up, down):  0.364E-02 0.000E+00

     total cpu time spent up to now is     7040.4 secs

     total energy              =   -1728.06462441 Ry
     Harris-Foulkes estimate   =   -1728.06462061 Ry
     estimated scf accuracy    <       0.00000982 Ry

     iteration # 41     ecut=    40.00 Ry     beta=0.30
     Davidson diagonalization with overlap
     ethr =  4.05E-09,  avg # of iterations =  1.0

     negative rho (up, down):  0.364E-02 0.000E+00

     total cpu time spent up to now is     7202.3 secs

     total energy              =   -1728.06461648 Ry
     Harris-Foulkes estimate   =   -1728.06462653 Ry
     estimated scf accuracy    <       0.00001011 Ry

     iteration # 42     ecut=    40.00 Ry     beta=0.30
     Davidson diagonalization with overlap
     ethr =  4.05E-09,  avg # of iterations =  1.0

     negative rho (up, down):  0.364E-02 0.000E+00

     total cpu time spent up to now is     7367.5 secs

     total energy              =   -1728.06461942 Ry
     Harris-Foulkes estimate   =   -1728.06461981 Ry
     estimated scf accuracy    <       0.00000967 Ry

     iteration # 43     ecut=    40.00 Ry     beta=0.30
     Davidson diagonalization with overlap
     ethr =  4.05E-09,  avg # of iterations =  1.0

     negative rho (up, down):  0.364E-02 0.000E+00

     total cpu time spent up to now is     7533.6 secs

     total energy              =   -1728.06459333 Ry
     Harris-Foulkes estimate   =   -1728.06461974 Ry
     estimated scf accuracy    <       0.00000976 Ry

     iteration # 44     ecut=    40.00 Ry     beta=0.30
     Davidson diagonalization with overlap
     ethr =  4.05E-09,  avg # of iterations =  2.0

     negative rho (up, down):  0.364E-02 0.000E+00

     total cpu time spent up to now is     7705.4 secs

     total energy              =   -1728.06460808 Ry
     Harris-Foulkes estimate   =   -1728.06460548 Ry
     estimated scf accuracy    <       0.00000903 Ry

     iteration # 45     ecut=    40.00 Ry     beta=0.30
     Davidson diagonalization with overlap
     ethr =  3.92E-09,  avg # of iterations =  1.0

     negative rho (up, down):  0.364E-02 0.000E+00

     total cpu time spent up to now is     7878.3 secs

     total energy              =   -1728.06460974 Ry
     Harris-Foulkes estimate   =   -1728.06460903 Ry
     estimated scf accuracy    <       0.00000796 Ry

     iteration # 46     ecut=    40.00 Ry     beta=0.30
     Davidson diagonalization with overlap
     ethr =  3.46E-09,  avg # of iterations =  2.0

     negative rho (up, down):  0.364E-02 0.000E+00

     total cpu time spent up to now is     8051.9 secs

     total energy              =   -1728.06450662 Ry
     Harris-Foulkes estimate   =   -1728.06462577 Ry
     estimated scf accuracy    <       0.00001011 Ry

     iteration # 47     ecut=    40.00 Ry     beta=0.30
     Davidson diagonalization with overlap
     ethr =  3.46E-09,  avg # of iterations =  2.8

     negative rho (up, down):  0.364E-02 0.000E+00

     total cpu time spent up to now is     8232.9 secs

     total energy              =   -1728.06458752 Ry
     Harris-Foulkes estimate   =   -1728.06458813 Ry
     estimated scf accuracy    <       0.00001041 Ry

     iteration # 48     ecut=    40.00 Ry     beta=0.30
     Davidson diagonalization with overlap
     ethr =  3.46E-09,  avg # of iterations =  1.0

     negative rho (up, down):  0.364E-02 0.000E+00

     total cpu time spent up to now is     8396.1 secs

     total energy              =   -1728.06458832 Ry
     Harris-Foulkes estimate   =   -1728.06458755 Ry
     estimated scf accuracy    <       0.00001038 Ry

     iteration # 49     ecut=    40.00 Ry     beta=0.30
     Davidson diagonalization with overlap
     ethr =  3.46E-09,  avg # of iterations =  1.0

     negative rho (up, down):  0.364E-02 0.000E+00

     total cpu time spent up to now is     8558.8 secs

     total energy              =   -1728.06459257 Ry
     Harris-Foulkes estimate   =   -1728.06458842 Ry
     estimated scf accuracy    <       0.00000994 Ry

     iteration # 50     ecut=    40.00 Ry     beta=0.30
     Davidson diagonalization with overlap
     ethr =  3.46E-09,  avg # of iterations =  1.0

     negative rho (up, down):  0.364E-02 0.000E+00

     total cpu time spent up to now is     8726.4 secs

     total energy              =   -1728.06457485 Ry
     Harris-Foulkes estimate   =   -1728.06459538 Ry
     estimated scf accuracy    <       0.00001031 Ry

     iteration # 51     ecut=    40.00 Ry     beta=0.30
     Davidson diagonalization with overlap
     ethr =  3.46E-09,  avg # of iterations =  2.0

     negative rho (up, down):  0.364E-02 0.000E+00

     total cpu time spent up to now is     8898.5 secs

     total energy              =   -1728.06458742 Ry
     Harris-Foulkes estimate   =   -1728.06458342 Ry
     estimated scf accuracy    <       0.00000978 Ry

     iteration # 52     ecut=    40.00 Ry     beta=0.30
     Davidson diagonalization with overlap
     ethr =  3.46E-09,  avg # of iterations =  1.0

     negative rho (up, down):  0.364E-02 0.000E+00

     total cpu time spent up to now is     9066.4 secs

     total energy              =   -1728.06459319 Ry
     Harris-Foulkes estimate   =   -1728.06459000 Ry
     estimated scf accuracy    <       0.00000993 Ry

     iteration # 53     ecut=    40.00 Ry     beta=0.30
     Davidson diagonalization with overlap
     ethr =  3.46E-09,  avg # of iterations =  1.0

     negative rho (up, down):  0.364E-02 0.000E+00

     total cpu time spent up to now is     9228.7 secs

     total energy              =   -1728.06450523 Ry
     Harris-Foulkes estimate   =   -1728.06459442 Ry
     estimated scf accuracy    <       0.00001031 Ry

     iteration # 54     ecut=    40.00 Ry     beta=0.30
     Davidson diagonalization with overlap
     ethr =  3.46E-09,  avg # of iterations =  2.7

     negative rho (up, down):  0.364E-02 0.000E+00

     total cpu time spent up to now is     9402.1 secs

     total energy              =   -1728.06434722 Ry
     Harris-Foulkes estimate   =   -1728.06456366 Ry
     estimated scf accuracy    <       0.00000919 Ry

     iteration # 55     ecut=    40.00 Ry     beta=0.30
     Davidson diagonalization with overlap
     ethr =  3.46E-09,  avg # of iterations =  3.0

     negative rho (up, down):  0.364E-02 0.000E+00

     total cpu time spent up to now is     9594.2 secs

     total energy              =   -1728.06450554 Ry
     Harris-Foulkes estimate   =   -1728.06451393 Ry
     estimated scf accuracy    <       0.00000869 Ry

     iteration # 56     ecut=    40.00 Ry     beta=0.30
     Davidson diagonalization with overlap
     ethr =  3.46E-09,  avg # of iterations =  1.0

     negative rho (up, down):  0.364E-02 0.000E+00

     total cpu time spent up to now is     9756.3 secs

     total energy              =   -1728.06450315 Ry
     Harris-Foulkes estimate   =   -1728.06450816 Ry
     estimated scf accuracy    <       0.00000843 Ry

     iteration # 57     ecut=    40.00 Ry     beta=0.30
     Davidson diagonalization with overlap
     ethr =  3.46E-09,  avg # of iterations =  2.0

     negative rho (up, down):  0.364E-02 0.000E+00

     total cpu time spent up to now is     9926.4 secs

     total energy              =   -1728.06452889 Ry
     Harris-Foulkes estimate   =   -1728.06452545 Ry
     estimated scf accuracy    <       0.00000996 Ry

     iteration # 58     ecut=    40.00 Ry     beta=0.30
     Davidson diagonalization with overlap
     ethr =  3.46E-09,  avg # of iterations =  1.2

     negative rho (up, down):  0.364E-02 0.000E+00

     total cpu time spent up to now is    10086.3 secs

     total energy              =   -1728.06429303 Ry
     Harris-Foulkes estimate   =   -1728.06453178 Ry
     estimated scf accuracy    <       0.00000942 Ry

     iteration # 59     ecut=    40.00 Ry     beta=0.30
     Davidson diagonalization with overlap
     ethr =  3.46E-09,  avg # of iterations =  3.0

     negative rho (up, down):  0.364E-02 0.000E+00

     total cpu time spent up to now is    10270.6 secs

     total energy              =   -1728.06444830 Ry
     Harris-Foulkes estimate   =   -1728.06448262 Ry
     estimated scf accuracy    <       0.00000934 Ry

     iteration # 60     ecut=    40.00 Ry     beta=0.30
     Davidson diagonalization with overlap
     ethr =  3.46E-09,  avg # of iterations =  2.0

     negative rho (up, down):  0.364E-02 0.000E+00

     total cpu time spent up to now is    10444.9 secs

     total energy              =   -1728.06446976 Ry
     Harris-Foulkes estimate   =   -1728.06446765 Ry
     estimated scf accuracy    <       0.00000838 Ry

     iteration # 61     ecut=    40.00 Ry     beta=0.30
     Davidson diagonalization with overlap
     ethr =  3.46E-09,  avg # of iterations =  1.0

     negative rho (up, down):  0.364E-02 0.000E+00

     total cpu time spent up to now is    10619.2 secs

     total energy              =   -1728.06446878 Ry
     Harris-Foulkes estimate   =   -1728.06447186 Ry
     estimated scf accuracy    <       0.00000806 Ry

     iteration # 62     ecut=    40.00 Ry     beta=0.30
     Davidson diagonalization with overlap
     ethr =  3.46E-09,  avg # of iterations =  2.0

     negative rho (up, down):  0.364E-02 0.000E+00

     total cpu time spent up to now is    10789.8 secs

     total energy              =   -1728.06429714 Ry
     Harris-Foulkes estimate   =   -1728.06448619 Ry
     estimated scf accuracy    <       0.00001124 Ry

     iteration # 63     ecut=    40.00 Ry     beta=0.30
     Davidson diagonalization with overlap
     ethr =  3.46E-09,  avg # of iterations =  3.0

     negative rho (up, down):  0.364E-02 0.000E+00

     total cpu time spent up to now is    10975.3 secs

     total energy              =   -1728.06425144 Ry
     Harris-Foulkes estimate   =   -1728.06444828 Ry
     estimated scf accuracy    <       0.00000710 Ry

     iteration # 64     ecut=    40.00 Ry     beta=0.30
     Davidson diagonalization with overlap
     ethr =  3.09E-09,  avg # of iterations =  3.0

     negative rho (up, down):  0.364E-02 0.000E+00

     total cpu time spent up to now is    11162.3 secs

     total energy              =   -1728.06435778 Ry
     Harris-Foulkes estimate   =   -1728.06441542 Ry
     estimated scf accuracy    <       0.00000737 Ry

     iteration # 65     ecut=    40.00 Ry     beta=0.30
     Davidson diagonalization with overlap
     ethr =  3.09E-09,  avg # of iterations =  2.1

     negative rho (up, down):  0.364E-02 0.000E+00

     total cpu time spent up to now is    11337.0 secs

     total energy              =   -1728.06440016 Ry
     Harris-Foulkes estimate   =   -1728.06440064 Ry
     estimated scf accuracy    <       0.00000925 Ry

     iteration # 66     ecut=    40.00 Ry     beta=0.30
     Davidson diagonalization with overlap
     ethr =  3.09E-09,  avg # of iterations =  2.0

     negative rho (up, down):  0.364E-02 0.000E+00

     total cpu time spent up to now is    11507.2 secs

     total energy              =   -1728.06438675 Ry
     Harris-Foulkes estimate   =   -1728.06440721 Ry
     estimated scf accuracy    <       0.00000461 Ry

     iteration # 67     ecut=    40.00 Ry     beta=0.30
     Davidson diagonalization with overlap
     ethr =  2.00E-09,  avg # of iterations =  2.0

     negative rho (up, down):  0.364E-02 0.000E+00

     total cpu time spent up to now is    11678.2 secs

     total energy              =   -1728.06427344 Ry
     Harris-Foulkes estimate   =   -1728.06440108 Ry
     estimated scf accuracy    <       0.00000419 Ry

     iteration # 68     ecut=    40.00 Ry     beta=0.30
     Davidson diagonalization with overlap
     ethr =  1.82E-09,  avg # of iterations =  3.0

     negative rho (up, down):  0.364E-02 0.000E+00

     total cpu time spent up to now is    11871.0 secs

     total energy              =   -1728.06437942 Ry
     Harris-Foulkes estimate   =   -1728.06438176 Ry
     estimated scf accuracy    <       0.00000321 Ry

     iteration # 69     ecut=    40.00 Ry     beta=0.30
     Davidson diagonalization with overlap
     ethr =  1.39E-09,  avg # of iterations =  1.0

     negative rho (up, down):  0.364E-02 0.000E+00

     total cpu time spent up to now is    12036.2 secs

     total energy              =   -1728.06429160 Ry
     Harris-Foulkes estimate   =   -1728.06438048 Ry
     estimated scf accuracy    <       0.00000265 Ry

     iteration # 70     ecut=    40.00 Ry     beta=0.30
     Davidson diagonalization with overlap
     ethr =  1.15E-09,  avg # of iterations =  3.0

     negative rho (up, down):  0.364E-02 0.000E+00

     total cpu time spent up to now is    12227.1 secs

     total energy              =   -1728.06436741 Ry
     Harris-Foulkes estimate   =   -1728.06436662 Ry
     estimated scf accuracy    <       0.00000413 Ry

     iteration # 71     ecut=    40.00 Ry     beta=0.30
     Davidson diagonalization with overlap
     ethr =  1.15E-09,  avg # of iterations =  2.0

     negative rho (up, down):  0.364E-02 0.000E+00

     total cpu time spent up to now is    12405.7 secs

     total energy              =   -1728.06431297 Ry
     Harris-Foulkes estimate   =   -1728.06436854 Ry
     estimated scf accuracy    <       0.00000249 Ry

     iteration # 72     ecut=    40.00 Ry     beta=0.30
     Davidson diagonalization with overlap
     ethr =  1.08E-09,  avg # of iterations =  3.0

     negative rho (up, down):  0.364E-02 0.000E+00

     total cpu time spent up to now is    12604.0 secs

     total energy              =   -1728.06432574 Ry
     Harris-Foulkes estimate   =   -1728.06435963 Ry
     estimated scf accuracy    <       0.00000245 Ry

     iteration # 73     ecut=    40.00 Ry     beta=0.30
     Davidson diagonalization with overlap
     ethr =  1.07E-09,  avg # of iterations =  3.0

     negative rho (up, down):  0.364E-02 0.000E+00

     total cpu time spent up to now is    12798.3 secs

     total energy              =   -1728.06434761 Ry
     Harris-Foulkes estimate   =   -1728.06435305 Ry
     estimated scf accuracy    <       0.00000176 Ry

     iteration # 74     ecut=    40.00 Ry     beta=0.30
     Davidson diagonalization with overlap
     ethr =  7.64E-10,  avg # of iterations =  2.0

     negative rho (up, down):  0.364E-02 0.000E+00

     total cpu time spent up to now is    12978.5 secs

     total energy              =   -1728.06435030 Ry
     Harris-Foulkes estimate   =   -1728.06435083 Ry
     estimated scf accuracy    <       0.00000195 Ry

     iteration # 75     ecut=    40.00 Ry     beta=0.30
     Davidson diagonalization with overlap
     ethr =  7.64E-10,  avg # of iterations =  1.0

     negative rho (up, down):  0.364E-02 0.000E+00

     total cpu time spent up to now is    13151.7 secs

     total energy              =   -1728.06434702 Ry
     Harris-Foulkes estimate   =   -1728.06435041 Ry
     estimated scf accuracy    <       0.00000198 Ry

     iteration # 76     ecut=    40.00 Ry     beta=0.30
     Davidson diagonalization with overlap
     ethr =  7.64E-10,  avg # of iterations =  2.0

     negative rho (up, down):  0.364E-02 0.000E+00

     total cpu time spent up to now is    13332.5 secs

     total energy              =   -1728.06434874 Ry
     Harris-Foulkes estimate   =   -1728.06434888 Ry
     estimated scf accuracy    <       0.00000181 Ry

     iteration # 77     ecut=    40.00 Ry     beta=0.30
     Davidson diagonalization with overlap
     ethr =  7.64E-10,  avg # of iterations =  2.0

     negative rho (up, down):  0.364E-02 0.000E+00

     total cpu time spent up to now is    13515.5 secs

     total energy              =   -1728.06435158 Ry
     Harris-Foulkes estimate   =   -1728.06435143 Ry
     estimated scf accuracy    <       0.00000151 Ry

     iteration # 78     ecut=    40.00 Ry     beta=0.30
     Davidson diagonalization with overlap
     ethr =  6.55E-10,  avg # of iterations =  2.0

     negative rho (up, down):  0.364E-02 0.000E+00

     total cpu time spent up to now is    13689.5 secs

     total energy              =   -1728.06435485 Ry
     Harris-Foulkes estimate   =   -1728.06435430 Ry
     estimated scf accuracy    <       0.00000145 Ry

     iteration # 79     ecut=    40.00 Ry     beta=0.30
     Davidson diagonalization with overlap
     ethr =  6.32E-10,  avg # of iterations =  1.0

     negative rho (up, down):  0.364E-02 0.000E+00

     total cpu time spent up to now is    13859.4 secs

     total energy              =   -1728.06435496 Ry
     Harris-Foulkes estimate   =   -1728.06435539 Ry
     estimated scf accuracy    <       0.00000112 Ry

     iteration # 80     ecut=    40.00 Ry     beta=0.30
     Davidson diagonalization with overlap
     ethr =  4.85E-10,  avg # of iterations =  1.0

     negative rho (up, down):  0.364E-02 0.000E+00

     total cpu time spent up to now is    14028.6 secs

     total energy              =   -1728.06435536 Ry
     Harris-Foulkes estimate   =   -1728.06435521 Ry
     estimated scf accuracy    <       0.00000104 Ry

     iteration # 81     ecut=    40.00 Ry     beta=0.30
     Davidson diagonalization with overlap
     ethr =  4.52E-10,  avg # of iterations =  2.0

     negative rho (up, down):  0.364E-02 0.000E+00

     total cpu time spent up to now is    14200.8 secs

     total energy              =   -1728.06435721 Ry
     Harris-Foulkes estimate   =   -1728.06435735 Ry
     estimated scf accuracy    <       0.00000102 Ry

     iteration # 82     ecut=    40.00 Ry     beta=0.30
     Davidson diagonalization with overlap
     ethr =  4.44E-10,  avg # of iterations =  1.0

     negative rho (up, down):  0.364E-02 0.000E+00

     total cpu time spent up to now is    14367.0 secs

     total energy              =   -1728.06435744 Ry
     Harris-Foulkes estimate   =   -1728.06435765 Ry
     estimated scf accuracy    <       0.00000100 Ry

     iteration # 83     ecut=    40.00 Ry     beta=0.30
     Davidson diagonalization with overlap
     ethr =  4.36E-10,  avg # of iterations =  1.0

     negative rho (up, down):  0.364E-02 0.000E+00

     total cpu time spent up to now is    14530.4 secs

     End of self-consistent calculation
 --- enter write_ns ---
 LDA+U parameters:
U( 2)     =  6.50000000
alpha( 2) =  0.00000000
atom    3   Tr[ns(na)] =   5.84154
    eigenvalues: 
  0.400  0.536  0.580  0.667  0.737
    eigenvectors:
  0.013  0.011  0.229  0.108  0.639
  0.000  0.924  0.068  0.008  0.000
  0.900  0.000  0.000  0.052  0.047
  0.002  0.057  0.703  0.024  0.214
  0.084  0.008  0.000  0.808  0.100
    occupations:
  0.687 -0.002  0.041 -0.063  0.008
 -0.002  0.540 -0.005 -0.011 -0.010
  0.041 -0.005  0.430 -0.021  0.078
 -0.063 -0.011 -0.021  0.613 -0.009
  0.008 -0.010  0.078 -0.009  0.650
atom    4   Tr[ns(na)] =   5.80410
    eigenvalues: 
  0.364  0.521  0.580  0.647  0.790
    eigenvectors:
  0.000  0.000  0.877  0.123  0.000
  0.000  0.000  0.119  0.852  0.029
  1.000  0.000  0.000  0.000  0.000
  0.000  0.000  0.004  0.025  0.971
  0.000  1.000  0.000  0.000  0.000
    occupations:
  0.588  0.022  0.003  0.005  0.000
  0.022  0.643  0.000 -0.026 -0.001
  0.003  0.000  0.364 -0.000 -0.001
  0.005 -0.026 -0.000  0.786  0.000
  0.000 -0.001 -0.001  0.000  0.521
atom    9   Tr[ns(na)] =   5.86773
    eigenvalues: 
  0.507  0.519  0.617  0.636  0.654
    eigenvectors:
  0.000  0.000  0.092  0.000  0.908
  0.000  0.000  0.003  0.996  0.000
  0.689  0.310  0.000  0.000  0.001
  0.000  0.000  0.905  0.004  0.091
  0.311  0.689  0.000  0.000  0.000
    occupations:
  0.651 -0.001 -0.004 -0.011 -0.000
 -0.001  0.636 -0.000 -0.001  0.000
 -0.004 -0.000  0.511  0.001  0.006
 -0.011 -0.001  0.001  0.621  0.000
 -0.000  0.000  0.006  0.000  0.515
atom   10   Tr[ns(na)] =   5.71893
    eigenvalues: 
  0.305  0.448  0.509  0.730  0.867
    eigenvectors:
  0.000  0.979  0.000  0.019  0.001
  0.001  0.000  0.000  0.002  0.996
  0.997  0.000  0.001  0.000  0.001
  0.000  0.019  0.000  0.979  0.002
  0.001  0.000  0.998  0.000  0.000
    occupations:
  0.454  0.010 -0.002  0.039  0.001
  0.010  0.866  0.021  0.005 -0.000
 -0.002  0.021  0.306 -0.001 -0.007
  0.039  0.005 -0.001  0.725 -0.000
  0.001 -0.000 -0.007 -0.000  0.508
atom   16   Tr[ns(na)] =   5.80280
    eigenvalues: 
  0.408  0.542  0.563  0.590  0.799
    eigenvectors:
  0.012  0.008  0.006  0.287  0.687
  0.001  0.948  0.018  0.034  0.000
  0.920  0.001  0.064  0.006  0.009
  0.001  0.015  0.041  0.644  0.298
  0.066  0.028  0.871  0.029  0.006
    occupations:
  0.731  0.004  0.035 -0.095  0.017
  0.004  0.544  0.004  0.007 -0.003
  0.035  0.004  0.423 -0.016 -0.037
 -0.095  0.007 -0.016  0.650 -0.015
  0.017 -0.003 -0.037 -0.015  0.554
atom   17   Tr[ns(na)] =   5.81569
    eigenvalues: 
  0.373  0.522  0.599  0.609  0.805
    eigenvectors:
  0.000  0.000  0.966  0.034  0.000
  0.000  0.000  0.034  0.950  0.016
  1.000  0.000  0.000  0.000  0.000
  0.000  0.000  0.000  0.016  0.984
  0.000  1.000  0.000  0.000  0.000
    occupations:
  0.599  0.002  0.002 -0.003  0.000
  0.002  0.612  0.001 -0.024 -0.002
  0.002  0.001  0.373 -0.001  0.001
 -0.003 -0.024 -0.001  0.802  0.000
  0.000 -0.002  0.001  0.000  0.522
atom   22   Tr[ns(na)] =   5.79300
    eigenvalues: 
  0.413  0.448  0.582  0.605  0.850
    eigenvectors:
  0.000  0.000  0.003  0.264  0.734
  0.000  0.000  0.989  0.011  0.000
  0.027  0.973  0.000  0.000  0.000
  0.000  0.000  0.008  0.725  0.266
  0.973  0.027  0.000  0.000  0.000
    occupations:
  0.784  0.001 -0.000 -0.108 -0.003
  0.001  0.582 -0.002  0.003 -0.000
 -0.000 -0.002  0.447  0.000 -0.006
 -0.108  0.003  0.000  0.670  0.002
 -0.003 -0.000 -0.006  0.002  0.413
atom   23   Tr[ns(na)] =   5.92424
    eigenvalues: 
  0.501  0.505  0.511  0.636  0.809
    eigenvectors:
  0.000  0.000  0.000  0.992  0.008
  0.000  0.001  0.999  0.000  0.000
  0.651  0.349  0.000  0.000  0.000
  0.000  0.000  0.000  0.008  0.992
  0.349  0.650  0.001  0.000  0.000
    occupations:
  0.637 -0.001 -0.000 -0.015 -0.000
 -0.001  0.511 -0.000 -0.000  0.000
 -0.000 -0.000  0.503  0.000  0.002
 -0.015 -0.000  0.000  0.807  0.000
 -0.000  0.000  0.002  0.000  0.504
N of occupied +U levels =  46.5680375
 --- exit write_ns ---

          k = 0.0000 0.0000 0.0000 ( 29769 PWs)   bands (ev):

   -63.0196 -62.5721 -62.4097 -62.3982 -62.3903 -62.2687 -62.1426 -61.8444
   -37.6007 -37.2642 -37.1585 -37.1458 -36.9478 -36.8511 -36.7882 -36.7602
   -36.7210 -36.6028 -36.5999 -36.5527 -36.4468 -36.4133 -36.3600 -36.3399
   -36.3353 -36.3229 -36.2090 -36.1674 -36.1466 -35.6793 -35.6571 -35.3460
   -20.7676 -20.4310 -20.2740 -20.1561 -20.1081 -19.7196 -19.5816 -19.3586
   -19.2851 -19.2705 -19.1668 -19.1327 -19.0794 -18.8438 -18.8282 -18.7867
   -18.5887 -18.3212 -18.1844  -9.1328  -9.0265  -8.9658  -8.8652  -8.6057
    -8.4521  -8.0394  -7.7576  -7.6222  -7.5518  -7.3847  -7.1561  -6.9646
    -6.9266  -6.8716  -6.7992  -6.7790  -6.5124  -6.3889  -6.3191  -6.3061
    -6.1649  -5.9734  -5.8857  -5.5404  -5.3876  -5.2913  -5.2169  -5.1563
    -5.1132  -5.0258  -4.8198  -4.6704  -4.5820  -4.5149  -4.5046  -4.4426
    -4.3719  -4.2302  -4.1489  -4.0341  -3.9895  -3.9472  -3.8734  -3.7675
    -3.6790  -3.6218  -3.5661  -3.4702  -3.4411  -3.3552  -3.3246  -3.2656
    -3.2106  -3.1533  -2.9781  -2.9524  -2.8051  -2.6951  -2.4511  -1.5644
    -0.7572  -0.4469  -0.3745   0.2507   0.2966   0.3677   0.6126   0.7896
     0.8554   0.9779   1.4286   1.5042   1.5490   1.7420   1.8417   2.0080
     2.0566   2.1775   2.3339   2.3708   2.7788   2.9056   3.3237   3.6781
     3.8503   4.0756   4.2408   4.3189   4.3562   4.4231   4.4489   4.4959
     4.6149   4.7947   4.8280   4.8760   4.9497   5.2180   5.2406   5.7272
     5.9264   5.9412   6.3658   6.6210   6.8816   7.2135   7.4101   7.5770
     7.6505   7.6909   7.7285   7.8438   7.9685   8.1655   8.3274   8.5797
     8.6023   8.7804   8.8472   9.1074   9.1667   9.1882   9.4049   9.4228
     9.4644   9.5857   9.7103   9.7802   9.8159   9.8689   9.9197   9.9779
    10.0853  10.1166  10.2630  10.3375  10.3916  10.5200  10.5916  10.6791
    10.8157  10.8949  10.9434  11.2725  11.3434  11.4527  11.6126  11.6556
    11.6970  11.7383  11.7734  11.8055  11.8766  12.0513  12.3121  12.3509
    12.3640  12.4864  12.5317  12.5507  12.5906  12.6357  12.7222  12.7345
    12.7608  12.8750  12.9214  13.0410  13.1241  13.1670  13.1845  13.2889
    13.3092  13.4495  13.4512  13.5299  13.6176  13.7189  13.8061  13.8161
    13.8326  13.9319  13.9943  14.0893  14.1204  14.3455  14.3883  14.4843
    14.5357  14.6298  14.7579  14.8483  14.8780  14.9388  14.9935  15.1031
    15.1960  15.2299  15.2826  15.4022  15.5270  15.6299  15.7002  15.7124
    15.8240  15.8850  15.9414  15.9963  16.0695  16.1058  16.2348  16.2870
    16.3240  16.4599  16.5529  16.6787  16.7397  16.7516  16.7699  16.7886
    16.8340  16.8535  17.0473  17.0693  17.1991  17.2202  17.2425  17.3636
    17.4673  17.5868  17.6252  17.8015  17.8872  18.0352  18.0672  18.1313
    18.2645  18.3064  18.3767  18.4026  18.4474  18.4638  18.5620  18.6807
    18.7491  18.9406  19.0633  19.1217  19.2302  19.3182  19.3199  19.3620
    19.4902  19.5302  19.6103  19.6371  19.7006  19.7454  19.8287  19.9096
    20.0040  20.0757  20.1411  20.2569  20.3167  20.3476  20.4131  20.4926
    20.5775  20.6305  20.7841  20.9112  20.9904  21.1005  21.1736  21.2129
    21.2488  21.4071  21.4346  21.4811  21.5719  21.5942  21.6006  21.7013
    21.7284  21.8008  21.8341  21.9691  21.9906  22.0162  22.0454  22.0764
    22.1077

          k = 0.0000 0.1950 0.0000 ( 29773 PWs)   bands (ev):

   -63.0185 -62.5715 -62.4077 -62.3980 -62.3898 -62.2690 -62.1422 -61.8439
   -37.6000 -37.2632 -37.1586 -37.1470 -36.9477 -36.8491 -36.7877 -36.7594
   -36.7203 -36.6031 -36.5973 -36.5492 -36.4503 -36.4189 -36.3600 -36.3456
   -36.3344 -36.3225 -36.2089 -36.1674 -36.1467 -35.6784 -35.6581 -35.3458
   -20.7577 -20.4294 -20.2399 -19.9833 -19.9730 -19.7193 -19.6167 -19.5803
   -19.5602 -19.3607 -19.2842 -19.0335 -19.0074 -18.8420 -18.6922 -18.6855
   -18.5855 -18.3200 -18.1832  -9.1179  -8.9774  -8.7652  -8.6456  -8.5450
    -8.3870  -8.0692  -8.0574  -8.0093  -7.7916  -7.6571  -7.4410  -7.1836
    -6.9459  -6.8665  -6.7106  -6.4901  -6.4009  -6.3353  -6.0638  -5.9686
    -5.8621  -5.7970  -5.7012  -5.6526  -5.3658  -5.3265  -5.2758  -5.2245
    -5.1887  -5.1381  -5.0711  -4.8920  -4.8234  -4.7073  -4.5072  -4.3136
    -4.2251  -4.1697  -4.1026  -3.9611  -3.8869  -3.8363  -3.7769  -3.7620
    -3.6190  -3.5829  -3.5553  -3.5095  -3.4052  -3.3427  -3.2813  -3.2191
    -3.1382  -3.0380  -2.9967  -2.9842  -2.8894  -2.6979  -2.5485  -1.5677
    -1.1367  -0.8126  -0.7358   0.1268   0.6751   0.7183   0.8206   0.8468
     0.8837   1.2888   1.4212   1.5221   1.6330   1.6757   1.9223   2.0301
     2.1361   2.2388   2.3299   2.4024   2.5944   3.0494   3.3634   3.4746
     3.5895   3.8917   4.0183   4.0847   4.1491   4.1790   4.2210   4.4600
     4.5131   4.6292   4.8864   5.1351   5.3558   5.4576   5.8722   5.9409
     6.0089   6.1234   6.1700   6.4721   6.5932   6.8084   6.9213   7.2325
     7.3399   7.7490   7.7973   7.8563   8.1065   8.2701   8.3635   8.4928
     8.9305   9.0955   9.1657   9.2833   9.3117   9.3326   9.5506   9.5675
     9.7110   9.7381   9.8448   9.9343   9.9949  10.0294  10.0999  10.1385
    10.2381  10.3083  10.3801  10.4731  10.5701  10.6438  10.7425  10.8226
    10.8864  11.0348  11.0861  11.1557  11.2637  11.3325  11.3927  11.4824
    11.5162  11.5424  11.6785  11.7329  11.7894  11.8716  11.8833  11.9517
    12.0808  12.2313  12.3403  12.3988  12.5051  12.5763  12.5870  12.7440
    12.8275  12.8385  12.9320  12.9574  13.0509  13.1340  13.2032  13.3334
    13.4377  13.4724  13.5863  13.6073  13.7676  13.8234  13.8961  13.9683
    14.0062  14.1006  14.1445  14.1915  14.2732  14.3103  14.3927  14.4554
    14.5794  14.6018  14.6262  14.7844  14.8478  14.8852  15.0039  15.0306
    15.1317  15.1921  15.2293  15.2602  15.3010  15.3508  15.4094  15.5289
    15.5610  15.5815  15.7021  15.8629  15.9721  16.0432  16.0713  16.1734
    16.1998  16.2596  16.2925  16.5387  16.6159  16.6677  16.7330  16.8463
    16.9137  16.9985  17.0628  17.1475  17.2988  17.3258  17.3862  17.4928
    17.5264  17.6296  17.7624  17.8240  17.9734  18.0079  18.1246  18.2711
    18.3784  18.4036  18.4767  18.5321  18.5743  18.6187  18.6905  18.7914
    18.8306  18.9789  18.9996  19.0274  19.1059  19.1387  19.2004  19.2737
    19.3393  19.3857  19.4484  19.5310  19.6939  19.7113  19.7379  19.7752
    19.8757  19.8982  19.9716  20.0172  20.0786  20.1613  20.2422  20.2854
    20.4585  20.5066  20.5628  20.6574  20.6893  20.7405  20.8133  20.8720
    21.0548  21.0814  21.1146  21.1640  21.2920  21.3208  21.3856  21.4308
    21.5531  21.6984  21.7470  21.7857  21.8390  21.8814  21.9226  21.9569
    22.0066

          k = 0.0000-0.3900 0.0000 ( 29782 PWs)   bands (ev):

   -63.0174 -62.5708 -62.4054 -62.3980 -62.3892 -62.2693 -62.1417 -61.8434
   -37.5992 -37.2621 -37.1587 -37.1481 -36.9476 -36.8474 -36.7872 -36.7586
   -36.7185 -36.6032 -36.5948 -36.5470 -36.4549 -36.4231 -36.3600 -36.3512
   -36.3336 -36.3222 -36.2089 -36.1674 -36.1469 -35.6774 -35.6590 -35.3456
   -20.7496 -20.4280 -20.2264 -19.7872 -19.7227 -19.7198 -19.6448 -19.5985
   -19.5916 -19.4456 -19.4298 -19.3070 -19.2842 -18.8406 -18.5889 -18.4793
   -18.4745 -18.3187 -18.1823  -9.1127  -8.9834  -8.9123  -8.4750  -8.2789
    -8.1898  -8.1832  -8.1013  -8.0478  -7.9307  -7.7705  -7.5541  -7.1133
    -6.9659  -6.8777  -6.7987  -6.6708  -6.5274  -6.4093  -6.1605  -6.0832
    -6.0085  -5.7457  -5.6120  -5.4763  -5.3701  -5.2486  -5.2296  -5.1331
    -5.0501  -4.9643  -4.9460  -4.8311  -4.7108  -4.6447  -4.5099  -4.4386
    -4.2965  -4.2094  -4.1105  -4.0178  -3.9821  -3.7873  -3.7616  -3.6582
    -3.6311  -3.5951  -3.5559  -3.5271  -3.4960  -3.4195  -3.1275  -3.1062
    -3.0776  -3.0266  -2.9461  -2.8741  -2.8431  -2.7359  -2.6247  -1.5867
    -1.3636  -1.2169  -0.9954  -0.0493   0.8385   0.9131   1.1282   1.1329
     1.1899   1.3683   1.4684   1.4970   1.5899   1.8490   1.8778   1.9417
     2.1808   2.2690   2.2925   2.3575   2.5782   2.8140   2.8525   3.3245
     3.6569   3.7835   3.7953   4.0234   4.0989   4.2275   4.3909   4.5230
     4.6338   4.7523   5.0065   5.1711   5.3071   5.5429   5.6605   5.8479
     6.0253   6.0840   6.3380   6.4726   6.5353   6.6329   6.9820   7.2142
     7.2983   7.4124   7.4368   7.9781   8.0971   8.2954   8.3822   8.4446
     8.6945   9.0258   9.1888   9.3981   9.5573   9.6713   9.8526   9.9265
    10.0218  10.1147  10.1457  10.1722  10.1872  10.2287  10.2636  10.3364
    10.3952  10.4846  10.5695  10.5780  10.7648  10.7942  10.8259  11.0077
    11.1016  11.1420  11.2662  11.3173  11.3390  11.3439  11.3729  11.4148
    11.4445  11.5103  11.6228  11.7219  11.7851  11.8161  11.8506  11.8775
    12.0060  12.0551  12.0647  12.1655  12.1806  12.2397  12.3612  12.4421
    12.5364  12.5839  12.6531  12.7469  12.7971  12.8242  13.0032  13.2196
    13.2249  13.2992  13.4132  13.4483  13.4822  13.5579  13.5602  13.7456
    13.8062  14.0013  14.0517  14.0712  14.1028  14.2306  14.3769  14.4947
    14.7174  14.7261  14.7832  14.8859  14.9134  15.0284  15.0616  15.2184
    15.2741  15.3287  15.3784  15.5219  15.5848  15.6080  15.7729  15.8777
    15.9388  15.9452  16.0847  16.1052  16.1659  16.2311  16.2617  16.3438
    16.4175  16.4555  16.6204  16.6535  16.6923  16.6981  16.8531  16.9272
    16.9396  17.0094  17.0353  17.0886  17.1521  17.1602  17.1888  17.2298
    17.2659  17.4652  17.4952  17.5234  17.6510  17.7054  17.7202  17.8867
    17.9627  17.9931  18.0664  18.1843  18.1946  18.2806  18.3363  18.3636
    18.3926  18.5780  18.6170  18.6945  18.7744  18.8291  18.8738  18.9906
    19.0477  19.3463  19.3657  19.4029  19.4333  19.5129  19.5645  19.5667
    19.7597  19.8392  19.9023  19.9359  20.1151  20.1820  20.3016  20.4532
    20.5140  20.5361  20.5814  20.6374  20.6671  20.6996  20.8321  20.9441
    20.9722  21.0214  21.0940  21.2487  21.3067  21.4184  21.4551  21.6509
    21.7517  21.7645  21.8984  21.9785  22.0179  22.0628  22.1270  22.2619
    22.2683

          k = 0.2500 0.0000 0.0000 ( 29757 PWs)   bands (ev):

   -62.9973 -62.5682 -62.3826 -62.3810 -62.3756 -62.2660 -62.1331 -61.8301
   -37.5085 -37.2493 -37.1638 -37.1599 -36.9395 -36.8470 -36.7791 -36.6455
   -36.6367 -36.5736 -36.5345 -36.5149 -36.5042 -36.4384 -36.3974 -36.3578
   -36.3252 -36.3142 -36.2412 -36.1746 -36.1634 -35.8601 -35.8284 -35.4735
   -20.6768 -20.4363 -20.1534 -20.0118 -19.9785 -19.7022 -19.4036 -19.3994
   -19.2958 -19.2793 -19.2564 -19.1813 -19.1090 -18.8806 -18.8773 -18.8425
   -18.7281 -18.4999 -18.2025  -8.8623  -8.6719  -8.6246  -8.5737  -8.5324
    -8.1288  -7.7150  -7.4972  -7.3919  -7.3351  -7.1982  -7.1693  -7.0726
    -6.9883  -6.9547  -6.8474  -6.7168  -6.5852  -6.4188  -6.3674  -6.2142
    -6.1752  -5.9815  -5.9140  -5.8361  -5.7278  -5.4758  -5.3020  -5.2176
    -5.0326  -4.9328  -4.8914  -4.7317  -4.6110  -4.5776  -4.5302  -4.4466
    -4.3881  -4.3184  -4.2915  -4.2371  -4.1094  -4.0163  -3.9526  -3.8800
    -3.7790  -3.7267  -3.6795  -3.5936  -3.5293  -3.3772  -3.3512  -3.3026
    -3.1677  -3.1284  -3.0093  -2.6740  -2.5497  -2.4902  -1.9943  -1.2518
    -0.8108  -0.4666  -0.3823   0.0362   0.1302   0.2840   0.5588   0.7093
     0.7501   0.7896   0.8486   1.0685   1.2076   1.2611   1.5128   1.6128
     1.7000   1.9438   2.1680   2.2656   2.7164   3.0739   3.5549   3.8379
     3.9669   4.0594   4.2107   4.2239   4.3262   4.3378   4.6216   4.6519
     4.6942   4.7918   4.8320   4.8785   5.1121   5.4696   5.5901   5.7253
     5.8925   6.1977   6.2702   6.7015   6.9407   7.1214   7.1312   7.5100
     7.6214   7.7398   7.8793   7.9132   7.9707   8.0915   8.1685   8.2880
     8.4536   8.5657   8.6740   8.8203   8.9217   9.0272   9.1528   9.2866
     9.3580   9.4203   9.5393   9.6699   9.8119   9.8714   9.9024  10.0738
    10.1271  10.2070  10.2794  10.3248  10.3876  10.4446  10.5532  10.7114
    10.7710  10.8166  10.8942  10.9742  11.1906  11.2299  11.4145  11.4709
    11.5725  11.5749  11.6903  11.8175  11.9289  12.0090  12.1231  12.1574
    12.2524  12.2988  12.3520  12.4741  12.6482  12.7928  12.8168  12.8799
    12.9570  13.1067  13.2168  13.2677  13.3014  13.4549  13.5135  13.5387
    13.5819  13.6857  13.7599  13.8289  13.9502  14.1420  14.1593  14.2730
    14.3046  14.5038  14.5646  14.6576  14.7754  14.8604  14.9037  14.9990
    15.0370  15.0911  15.1145  15.2440  15.3292  15.4489  15.5267  15.6048
    15.6165  15.6838  15.7459  15.7769  15.8716  15.9145  15.9696  16.0547
    16.0697  16.1498  16.1839  16.2220  16.3720  16.4100  16.5472  16.6117
    16.6614  16.7089  16.7882  16.8480  16.9130  16.9476  17.0147  17.0695
    17.1544  17.1760  17.2770  17.2980  17.4050  17.4678  17.5655  17.5979
    17.6916  17.7186  17.8349  17.8419  17.9409  18.0658  18.1125  18.1652
    18.2525  18.3029  18.4465  18.4932  18.6457  18.6920  18.7195  18.8000
    18.8603  18.9810  19.0079  19.0274  19.0682  19.0968  19.1575  19.3088
    19.3352  19.4017  19.4385  19.5872  19.6214  19.6957  19.7146  19.7668
    19.8605  19.9244  19.9606  20.0422  20.0672  20.0861  20.1019  20.1689
    20.2331  20.2827  20.3633  20.3962  20.4106  20.5116  20.5518  20.5815
    20.7093  20.7894  20.8338  20.8741  20.9594  21.0032  21.2330  21.2682
    21.3513  21.3923  21.4633  21.5384  21.5888  21.6664  21.7582  21.8003
    21.8790

          k = 0.2500 0.1950 0.0000 ( 29746 PWs)   bands (ev):

   -62.9963 -62.5674 -62.3811 -62.3802 -62.3757 -62.2662 -62.1325 -61.8296
   -37.5079 -37.2486 -37.1660 -37.1581 -36.9394 -36.8440 -36.7790 -36.6456
   -36.6362 -36.5762 -36.5249 -36.5127 -36.5047 -36.4450 -36.3990 -36.3614
   -36.3254 -36.3182 -36.2413 -36.1754 -36.1634 -35.8590 -35.8289 -35.4731
   -20.6695 -20.4349 -20.1309 -19.8702 -19.8453 -19.7032 -19.5814 -19.5503
   -19.4046 -19.3752 -19.2918 -19.0568 -19.0251 -18.8935 -18.8266 -18.8028
   -18.7252 -18.4980 -18.2011  -8.8512  -8.6936  -8.6182  -8.2997  -8.2335
    -8.0812  -7.9016  -7.8447  -7.7097  -7.5315  -7.5075  -7.3126  -7.1107
    -7.0061  -6.8009  -6.7348  -6.5677  -6.4755  -6.4341  -6.3698  -6.2291
    -6.0814  -5.8975  -5.7891  -5.5795  -5.4525  -5.3258  -5.2276  -5.1505
    -5.0954  -5.0171  -4.9390  -4.7640  -4.7555  -4.7036  -4.5959  -4.5419
    -4.4798  -4.4471  -4.3180  -4.2362  -4.1471  -4.0044  -3.9659  -3.8983
    -3.8134  -3.7506  -3.6434  -3.6127  -3.5353  -3.4919  -3.3448  -3.2292
    -3.1544  -3.0728  -3.0152  -2.6541  -2.3082  -2.2029  -1.9900  -1.2784
    -1.0762  -0.7663  -0.6604   0.1047   0.3577   0.4814   0.5626   0.6366
     0.9277   1.0486   1.0785   1.1661   1.2757   1.3962   1.5556   1.6086
     1.7512   1.9081   2.0641   2.2712   2.5329   3.2323   3.4248   3.4734
     3.6519   3.7802   3.9800   4.0861   4.1443   4.2350   4.3575   4.5078
     4.6726   4.9501   5.2334   5.3175   5.4942   5.6317   5.7619   5.8255
     5.9683   6.0550   6.3163   6.4895   6.7723   6.9150   7.1417   7.2210
     7.2316   7.5641   7.5893   7.7935   8.0323   8.0863   8.2621   8.3689
     8.5113   8.6135   8.6895   8.8489   8.9959   9.1330   9.1955   9.3810
     9.4475   9.5253   9.6105   9.6591   9.6680   9.8004   9.9135  10.1039
    10.1340  10.2459  10.3156  10.4401  10.5545  10.5922  10.7425  10.7724
    10.8732  10.9795  11.1371  11.2624  11.3940  11.5394  11.6541  11.6820
    11.7691  11.8649  11.9208  11.9967  12.0645  12.2701  12.3305  12.3968
    12.4502  12.4943  12.5715  12.6725  12.7588  12.8363  12.8934  12.9467
    13.0585  13.1979  13.2422  13.2883  13.3751  13.4222  13.4938  13.5581
    13.6061  13.7145  13.7512  13.7930  13.8698  13.9519  14.0524  14.1281
    14.1886  14.2320  14.2996  14.4002  14.4721  14.5453  14.6011  14.6676
    14.6879  14.7875  14.8533  14.8777  14.9658  15.0381  15.2089  15.2616
    15.3107  15.4115  15.4930  15.5812  15.6394  15.7432  15.8113  15.8864
    15.9469  16.0372  16.0689  16.1705  16.1924  16.2469  16.3533  16.3900
    16.4366  16.5013  16.5655  16.6585  16.7837  16.8654  16.9064  16.9768
    17.0720  17.1636  17.1919  17.2640  17.3068  17.4204  17.4535  17.5524
    17.6062  17.6851  17.7371  17.8141  17.9093  17.9791  18.0822  18.1402
    18.1481  18.2023  18.3014  18.3735  18.4707  18.5274  18.6105  18.6897
    18.8115  18.9126  18.9663  19.0086  19.0826  19.1306  19.1605  19.2612
    19.4459  19.4889  19.6061  19.7105  19.7368  19.8213  19.8614  19.8928
    19.9949  20.0589  20.1458  20.1994  20.2814  20.3418  20.3585  20.4176
    20.4576  20.5153  20.5848  20.6273  20.6477  20.7089  20.7761  20.8910
    20.9423  21.0265  21.0708  21.1269  21.2343  21.3042  21.3578  21.4048
    21.5090  21.5208  21.5790  21.6727  21.7271  21.7607  21.8104  21.8341
    21.8708

          k = 0.2500-0.3900 0.0000 ( 29726 PWs)   bands (ev):

   -62.9953 -62.5666 -62.3799 -62.3786 -62.3761 -62.2663 -62.1318 -61.8290
   -37.5072 -37.2479 -37.1676 -37.1569 -36.9393 -36.8409 -36.7788 -36.6421
   -36.6380 -36.5783 -36.5183 -36.5100 -36.5056 -36.4514 -36.4000 -36.3640
   -36.3263 -36.3217 -36.2416 -36.1763 -36.1634 -35.8575 -35.8300 -35.4727
   -20.6631 -20.4335 -20.1210 -19.7330 -19.7059 -19.6740 -19.5450 -19.5236
   -19.4741 -19.4235 -19.3678 -19.2917 -19.2888 -18.8845 -18.7286 -18.6584
   -18.6432 -18.4954 -18.1997  -8.8439  -8.7230  -8.6348  -8.1671  -8.1175
    -8.1059  -7.9356  -7.8275  -7.6869  -7.5768  -7.3328  -7.2896  -7.2306
    -7.1677  -7.0638  -6.9966  -6.7767  -6.6705  -6.4854  -6.2306  -6.0181
    -5.9525  -5.7441  -5.6158  -5.4844  -5.3367  -5.2288  -5.1671  -5.0912
    -5.0238  -4.9553  -4.9039  -4.8167  -4.7768  -4.7393  -4.7158  -4.6069
    -4.5648  -4.4805  -4.4200  -4.2967  -4.1908  -4.0175  -3.9941  -3.8750
    -3.8133  -3.7953  -3.7174  -3.6519  -3.5417  -3.3921  -3.2978  -3.2052
    -3.0608  -3.0116  -2.9262  -2.8325  -2.2136  -2.0702  -1.9664  -1.3417
    -1.2237  -1.0238  -0.8843  -0.0545   0.4705   0.7632   0.8125   0.9226
     1.1086   1.1870   1.2564   1.2861   1.4777   1.5099   1.6049   1.6751
     1.7735   1.8854   1.9882   2.1592   2.4353   2.7304   2.7560   3.3201
     3.3412   3.5216   3.9160   4.0717   4.1564   4.3266   4.3649   4.6763
     4.9238   5.0994   5.2423   5.4906   5.6269   5.6707   5.7407   5.9662
     6.0872   6.2107   6.2792   6.3166   6.4006   6.6704   6.8766   7.1283
     7.2646   7.6079   7.7280   7.8032   7.8860   8.0560   8.0793   8.3673
     8.4313   8.5712   8.6791   8.7561   8.8405   8.9529   9.0874   9.1447
     9.3332   9.3872   9.5185   9.7483   9.9252  10.0168  10.1306  10.2935
    10.4359  10.4893  10.5019  10.5835  10.7686  10.9209  10.9961  11.2077
    11.3778  11.4599  11.4991  11.6273  11.6442  11.7405  11.7906  11.9084
    11.9524  11.9966  12.0661  12.0974  12.2080  12.2434  12.3012  12.4408
    12.5148  12.5811  12.6392  12.6790  12.7808  12.8394  12.8787  12.9105
    13.0018  13.0516  13.1153  13.1904  13.2966  13.4273  13.5442  13.6041
    13.6472  13.7284  13.7685  13.7970  13.8642  13.9475  13.9826  14.0551
    14.0717  14.0949  14.1335  14.2182  14.3354  14.3689  14.3836  14.4385
    14.5081  14.5636  14.6692  14.7488  14.8744  14.9069  14.9334  15.0765
    15.1050  15.1300  15.1814  15.2492  15.2765  15.4662  15.5247  15.5422
    15.6035  15.6975  15.8025  15.9254  15.9804  16.0312  16.1243  16.2055
    16.2948  16.3653  16.4328  16.5278  16.6142  16.6624  16.7254  16.8449
    16.9136  16.9700  17.1215  17.1920  17.2594  17.3614  17.4392  17.5092
    17.5484  17.6241  17.6489  17.7493  17.8641  17.9059  17.9628  18.1031
    18.2284  18.2939  18.4021  18.4314  18.5266  18.5993  18.7543  18.8812
    18.9508  19.0585  19.1371  19.1905  19.2667  19.3238  19.3758  19.4248
    19.5049  19.5247  19.5945  19.6463  19.7092  19.7263  19.7753  19.8212
    19.8935  20.0600  20.1323  20.2055  20.3242  20.3470  20.3839  20.4922
    20.5193  20.6197  20.6754  20.7147  20.7575  20.8155  20.8579  20.9264
    20.9566  21.0018  21.0599  21.0994  21.1128  21.1596  21.2482  21.3245
    21.3839  21.4364  21.5011  21.5604  21.6160  21.7089  21.7671  21.8408
    21.8512

          k =-0.5000 0.0000 0.0000 ( 29752 PWs)   bands (ev):

   -62.9749 -62.5643 -62.3719 -62.3616 -62.3436 -62.2667 -62.1236 -61.8157
   -37.3841 -37.2265 -37.1819 -37.1690 -36.9323 -36.8430 -36.7732 -36.6790
   -36.6317 -36.5234 -36.4401 -36.4121 -36.4064 -36.3987 -36.3390 -36.3247
   -36.3082 -36.2802 -36.2667 -36.2244 -36.2163 -36.1667 -36.0861 -35.6288
   -20.5199 -20.5056 -19.9301 -19.8508 -19.7027 -19.6630 -19.6551 -19.5887
   -19.3699 -19.1396 -19.0676 -19.0636 -19.0062 -18.9814 -18.9520 -18.9512
   -18.9174 -18.8615 -18.2193  -8.6408  -8.5263  -8.2473  -8.0046  -7.8617
    -7.7524  -7.7270  -7.5772  -7.4607  -7.2759  -7.1556  -7.1068  -6.9827
    -6.9596  -6.9398  -6.7968  -6.5211  -6.3813  -6.2658  -6.1115  -6.0441
    -6.0140  -5.9862  -5.9222  -5.8763  -5.7628  -5.6461  -5.5169  -5.4527
    -5.4173  -5.3382  -5.1582  -5.0208  -5.0057  -4.8003  -4.7719  -4.6714
    -4.6114  -4.4648  -4.4324  -4.3112  -4.2493  -4.1595  -3.9441  -3.8912
    -3.7494  -3.7072  -3.5792  -3.4940  -3.4379  -3.4156  -3.3876  -3.2152
    -3.1491  -3.0423  -2.8725  -2.6938  -1.6014  -1.3340  -1.2972  -1.0705
    -1.0048  -0.8530  -0.7198  -0.4416  -0.3597  -0.2664  -0.1211   0.0643
     0.2368   0.2820   0.6684   0.7182   1.1010   1.1726   1.3360   1.4663
     1.9209   2.0022   2.2222   2.3589   2.4460   3.5289   3.5835   3.7060
     3.9461   4.1286   4.2930   4.3504   4.3720   4.4315   4.5155   4.5793
     4.6135   4.7513   4.8121   5.2598   5.4446   5.6610   5.6780   6.0165
     6.0700   6.0913   6.3567   6.4483   6.6704   6.7458   7.1166   7.1968
     7.5376   7.7621   7.7795   7.8817   7.9071   7.9830   8.3273   8.4981
     8.6453   8.6805   8.8272   8.8394   8.9183   8.9500   9.0156   9.1843
     9.2076   9.2384   9.3034   9.4065   9.5618   9.6431   9.6719   9.7484
     9.8802  10.0414  10.1680  10.2943  10.3246  10.4164  10.4910  10.5805
    10.6295  10.6871  10.7533  10.8962  10.9690  11.0391  11.4045  11.4958
    11.5370  11.6808  11.6922  11.8031  11.8962  11.9947  12.1119  12.1394
    12.1952  12.2676  12.4356  12.5374  12.6908  12.9940  13.0829  13.1253
    13.2121  13.2526  13.3552  13.3780  13.4579  13.5745  13.7358  13.9503
    14.0494  14.1127  14.1875  14.2665  14.5039  14.6202  14.7069  14.7504
    14.8244  14.8941  14.9724  15.0740  15.1165  15.1264  15.2319  15.2645
    15.3133  15.4073  15.5129  15.5234  15.5576  15.7243  15.8802  15.9211
    16.0132  16.0460  16.1523  16.2072  16.2425  16.2958  16.3532  16.4111
    16.4451  16.5346  16.5994  16.6438  16.7631  16.8909  16.9300  17.0241
    17.1526  17.1888  17.2223  17.2235  17.3111  17.3522  17.4386  17.5439
    17.5753  17.6344  17.6908  17.7055  17.7606  17.7947  17.8043  17.8865
    17.9701  18.0515  18.1491  18.2342  18.2571  18.2914  18.2957  18.3163
    18.4006  18.4242  18.4652  18.5497  18.6152  18.6464  18.6973  18.7564
    18.8172  18.8436  18.8599  18.8849  18.9184  18.9411  18.9662  19.0719
    19.1248  19.2454  19.2599  19.2864  19.3397  19.3884  19.4300  19.4386
    19.5078  19.5197  19.5431  19.5795  19.6208  19.6262  19.7193  19.7511
    19.8016  19.8818  20.0395  20.1817  20.2729  20.3286  20.3630  20.4140
    20.4176  20.4509  20.4818  20.5595  20.5736  20.6400  20.7196  20.8030
    20.8460  20.8751  20.9513  20.9633  21.0033  21.0486  21.1222  21.1880
    21.2211

          k =-0.5000 0.1950 0.0000 ( 29720 PWs)   bands (ev):

   -62.9741 -62.5634 -62.3713 -62.3606 -62.3436 -62.2666 -62.1227 -61.8151
   -37.3836 -37.2265 -37.1833 -37.1669 -36.9322 -36.8402 -36.7731 -36.6786
   -36.6316 -36.5099 -36.4475 -36.4160 -36.4067 -36.4053 -36.3389 -36.3257
[...]
     Harris-Foulkes estimate   =   -1728.06447743 Ry
     estimated scf accuracy    <       0.00000123 Ry

     iteration # 60     ecut=    40.00 Ry     beta=0.30
     Davidson diagonalization with overlap
     ethr =  4.97E-10,  avg # of iterations =  2.7

     negative rho (up, down):  0.364E-02 0.000E+00

     total cpu time spent up to now is    38968.2 secs

     total energy              =   -1728.06445545 Ry
     Harris-Foulkes estimate   =   -1728.06448210 Ry
     estimated scf accuracy    <       0.00000131 Ry

     iteration # 61     ecut=    40.00 Ry     beta=0.30
     Davidson diagonalization with overlap
     ethr =  4.97E-10,  avg # of iterations =  3.0

     negative rho (up, down):  0.364E-02 0.000E+00

     total cpu time spent up to now is    39156.9 secs

     total energy              =   -1728.06440246 Ry
     Harris-Foulkes estimate   =   -1728.06447535 Ry
     estimated scf accuracy    <       0.00000130 Ry

     iteration # 62     ecut=    40.00 Ry     beta=0.30
     Davidson diagonalization with overlap
     ethr =  4.97E-10,  avg # of iterations =  3.0

     negative rho (up, down):  0.364E-02 0.000E+00

     total cpu time spent up to now is    39350.1 secs

     total energy              =   -1728.06446365 Ry
     Harris-Foulkes estimate   =   -1728.06446348 Ry
     estimated scf accuracy    <       0.00000116 Ry

     iteration # 63     ecut=    40.00 Ry     beta=0.30
     Davidson diagonalization with overlap
     ethr =  4.97E-10,  avg # of iterations =  2.0

     negative rho (up, down):  0.364E-02 0.000E+00

     total cpu time spent up to now is    39524.1 secs

     total energy              =   -1728.06446371 Ry
     Harris-Foulkes estimate   =   -1728.06446556 Ry
     estimated scf accuracy    <       0.00000114 Ry

     iteration # 64     ecut=    40.00 Ry     beta=0.30
     Davidson diagonalization with overlap
     ethr =  4.97E-10,  avg # of iterations =  2.0

     negative rho (up, down):  0.364E-02 0.000E+00

     total cpu time spent up to now is    39700.3 secs

     total energy              =   -1728.06446434 Ry
     Harris-Foulkes estimate   =   -1728.06446435 Ry
     estimated scf accuracy    <       0.00000117 Ry

     iteration # 65     ecut=    40.00 Ry     beta=0.30
     Davidson diagonalization with overlap
     ethr =  4.97E-10,  avg # of iterations =  1.0

     negative rho (up, down):  0.364E-02 0.000E+00

     total cpu time spent up to now is    39871.7 secs

     total energy              =   -1728.06445701 Ry
     Harris-Foulkes estimate   =   -1728.06446434 Ry
     estimated scf accuracy    <       0.00000117 Ry

     iteration # 66     ecut=    40.00 Ry     beta=0.30
     Davidson diagonalization with overlap
     ethr =  4.97E-10,  avg # of iterations =  3.0

     negative rho (up, down):  0.364E-02 0.000E+00

     total cpu time spent up to now is    40061.3 secs

     total energy              =   -1728.06446916 Ry
     Harris-Foulkes estimate   =   -1728.06446977 Ry
     estimated scf accuracy    <       0.00000131 Ry

     iteration # 67     ecut=    40.00 Ry     beta=0.30
     Davidson diagonalization with overlap
     ethr =  4.97E-10,  avg # of iterations =  1.0

     negative rho (up, down):  0.364E-02 0.000E+00

     total cpu time spent up to now is    40233.1 secs

     total energy              =   -1728.06446471 Ry
     Harris-Foulkes estimate   =   -1728.06446961 Ry
     estimated scf accuracy    <       0.00000139 Ry

     iteration # 68     ecut=    40.00 Ry     beta=0.30
     Davidson diagonalization with overlap
     ethr =  4.97E-10,  avg # of iterations =  2.7

     negative rho (up, down):  0.364E-02 0.000E+00

     total cpu time spent up to now is    40419.9 secs

     total energy              =   -1728.06444517 Ry
     Harris-Foulkes estimate   =   -1728.06447424 Ry
     estimated scf accuracy    <       0.00000131 Ry

     iteration # 69     ecut=    40.00 Ry     beta=0.30
     Davidson diagonalization with overlap
     ethr =  4.97E-10,  avg # of iterations =  3.0

     negative rho (up, down):  0.364E-02 0.000E+00

     total cpu time spent up to now is    40617.7 secs

     total energy              =   -1728.06448418 Ry
     Harris-Foulkes estimate   =   -1728.06448361 Ry
     estimated scf accuracy    <       0.00000111 Ry

     iteration # 70     ecut=    40.00 Ry     beta=0.30
     Davidson diagonalization with overlap
     ethr =  4.83E-10,  avg # of iterations =  1.7

     negative rho (up, down):  0.364E-02 0.000E+00

     total cpu time spent up to now is    40790.3 secs

     total energy              =   -1728.06445210 Ry
     Harris-Foulkes estimate   =   -1728.06448483 Ry
     estimated scf accuracy    <       0.00000143 Ry

     iteration # 71     ecut=    40.00 Ry     beta=0.30
     Davidson diagonalization with overlap
     ethr =  4.83E-10,  avg # of iterations =  3.0

     negative rho (up, down):  0.364E-02 0.000E+00

     total cpu time spent up to now is    40986.0 secs

     total energy              =   -1728.06439687 Ry
     Harris-Foulkes estimate   =   -1728.06447723 Ry
     estimated scf accuracy    <       0.00000144 Ry

     iteration # 72     ecut=    40.00 Ry     beta=0.30
     Davidson diagonalization with overlap
     ethr =  4.83E-10,  avg # of iterations =  3.0

     negative rho (up, down):  0.364E-02 0.000E+00

     total cpu time spent up to now is    41186.7 secs

     total energy              =   -1728.06446512 Ry
     Harris-Foulkes estimate   =   -1728.06446477 Ry
     estimated scf accuracy    <       0.00000134 Ry

     iteration # 73     ecut=    40.00 Ry     beta=0.30
     Davidson diagonalization with overlap
     ethr =  4.83E-10,  avg # of iterations =  1.0

     negative rho (up, down):  0.364E-02 0.000E+00

     total cpu time spent up to now is    41358.3 secs

     total energy              =   -1728.06446157 Ry
     Harris-Foulkes estimate   =   -1728.06446522 Ry
     estimated scf accuracy    <       0.00000139 Ry

     iteration # 74     ecut=    40.00 Ry     beta=0.30
     Davidson diagonalization with overlap
     ethr =  4.83E-10,  avg # of iterations =  2.0

     negative rho (up, down):  0.364E-02 0.000E+00

     total cpu time spent up to now is    41535.7 secs

     total energy              =   -1728.06446162 Ry
     Harris-Foulkes estimate   =   -1728.06446341 Ry
     estimated scf accuracy    <       0.00000184 Ry

     iteration # 75     ecut=    40.00 Ry     beta=0.30
     Davidson diagonalization with overlap
     ethr =  4.83E-10,  avg # of iterations =  2.0

     negative rho (up, down):  0.364E-02 0.000E+00

     total cpu time spent up to now is    41717.0 secs

     total energy              =   -1728.06440837 Ry
     Harris-Foulkes estimate   =   -1728.06446690 Ry
     estimated scf accuracy    <       0.00000172 Ry

     iteration # 76     ecut=    40.00 Ry     beta=0.30
     Davidson diagonalization with overlap
     ethr =  4.83E-10,  avg # of iterations =  3.0

     negative rho (up, down):  0.364E-02 0.000E+00

     total cpu time spent up to now is    41913.5 secs

     total energy              =   -1728.06447969 Ry
     Harris-Foulkes estimate   =   -1728.06447958 Ry
     estimated scf accuracy    <       0.00000180 Ry

     iteration # 77     ecut=    40.00 Ry     beta=0.30
     Davidson diagonalization with overlap
     ethr =  4.83E-10,  avg # of iterations =  1.3

     negative rho (up, down):  0.364E-02 0.000E+00

     total cpu time spent up to now is    42082.1 secs

     total energy              =   -1728.06447694 Ry
     Harris-Foulkes estimate   =   -1728.06448013 Ry
     estimated scf accuracy    <       0.00000170 Ry

     iteration # 78     ecut=    40.00 Ry     beta=0.30
     Davidson diagonalization with overlap
     ethr =  4.83E-10,  avg # of iterations =  2.0

     negative rho (up, down):  0.364E-02 0.000E+00

     total cpu time spent up to now is    42255.3 secs

     total energy              =   -1728.06445718 Ry
     Harris-Foulkes estimate   =   -1728.06447840 Ry
     estimated scf accuracy    <       0.00000156 Ry

     iteration # 79     ecut=    40.00 Ry     beta=0.30
     Davidson diagonalization with overlap
     ethr =  4.83E-10,  avg # of iterations =  3.0

     negative rho (up, down):  0.364E-02 0.000E+00

     total cpu time spent up to now is    42444.2 secs

     total energy              =   -1728.06448717 Ry
     Harris-Foulkes estimate   =   -1728.06448672 Ry
     estimated scf accuracy    <       0.00000139 Ry

     iteration # 80     ecut=    40.00 Ry     beta=0.30
     Davidson diagonalization with overlap
     ethr =  4.83E-10,  avg # of iterations =  1.0

     negative rho (up, down):  0.364E-02 0.000E+00

     total cpu time spent up to now is    42617.0 secs

     total energy              =   -1728.06441140 Ry
     Harris-Foulkes estimate   =   -1728.06448769 Ry
     estimated scf accuracy    <       0.00000156 Ry

     iteration # 81     ecut=    40.00 Ry     beta=0.30
     Davidson diagonalization with overlap
     ethr =  4.83E-10,  avg # of iterations =  3.0

     negative rho (up, down):  0.364E-02 0.000E+00

     total cpu time spent up to now is    42815.6 secs

     total energy              =   -1728.06442410 Ry
     Harris-Foulkes estimate   =   -1728.06447550 Ry
     estimated scf accuracy    <       0.00000162 Ry

     iteration # 82     ecut=    40.00 Ry     beta=0.30
     Davidson diagonalization with overlap
     ethr =  4.83E-10,  avg # of iterations =  3.0

     negative rho (up, down):  0.364E-02 0.000E+00

     total cpu time spent up to now is    43012.3 secs

     total energy              =   -1728.06445193 Ry
     Harris-Foulkes estimate   =   -1728.06446573 Ry
     estimated scf accuracy    <       0.00000156 Ry

     iteration # 83     ecut=    40.00 Ry     beta=0.30
     Davidson diagonalization with overlap
     ethr =  4.83E-10,  avg # of iterations =  2.7

     negative rho (up, down):  0.364E-02 0.000E+00

     total cpu time spent up to now is    43197.9 secs

     total energy              =   -1728.06445177 Ry
     Harris-Foulkes estimate   =   -1728.06446118 Ry
     estimated scf accuracy    <       0.00000178 Ry

     iteration # 84     ecut=    40.00 Ry     beta=0.30
     Davidson diagonalization with overlap
     ethr =  4.83E-10,  avg # of iterations =  2.0

     negative rho (up, down):  0.364E-02 0.000E+00

     total cpu time spent up to now is    43371.5 secs

     total energy              =   -1728.06445235 Ry
     Harris-Foulkes estimate   =   -1728.06445761 Ry
     estimated scf accuracy    <       0.00000187 Ry

     iteration # 85     ecut=    40.00 Ry     beta=0.30
     Davidson diagonalization with overlap
     ethr =  4.83E-10,  avg # of iterations =  2.7

     negative rho (up, down):  0.364E-02 0.000E+00

     total cpu time spent up to now is    43549.0 secs

     total energy              =   -1728.06446022 Ry
     Harris-Foulkes estimate   =   -1728.06446239 Ry
     estimated scf accuracy    <       0.00000169 Ry

     iteration # 86     ecut=    40.00 Ry     beta=0.30
     Davidson diagonalization with overlap
     ethr =  4.83E-10,  avg # of iterations =  2.0

     negative rho (up, down):  0.364E-02 0.000E+00

     total cpu time spent up to now is    43721.6 secs

     total energy              =   -1728.06445874 Ry
     Harris-Foulkes estimate   =   -1728.06446105 Ry
     estimated scf accuracy    <       0.00000173 Ry

     iteration # 87     ecut=    40.00 Ry     beta=0.30
     Davidson diagonalization with overlap
     ethr =  4.83E-10,  avg # of iterations =  2.3

     negative rho (up, down):  0.364E-02 0.000E+00

     total cpu time spent up to now is    43903.5 secs

     total energy              =   -1728.06437734 Ry
     Harris-Foulkes estimate   =   -1728.06446470 Ry
     estimated scf accuracy    <       0.00000147 Ry

     iteration # 88     ecut=    40.00 Ry     beta=0.30
     Davidson diagonalization with overlap
     ethr =  4.83E-10,  avg # of iterations =  3.0

     negative rho (up, down):  0.364E-02 0.000E+00

     total cpu time spent up to now is    44106.0 secs

     total energy              =   -1728.06445735 Ry
     Harris-Foulkes estimate   =   -1728.06447998 Ry
     estimated scf accuracy    <       0.00000169 Ry

     iteration # 89     ecut=    40.00 Ry     beta=0.30
     Davidson diagonalization with overlap
     ethr =  4.83E-10,  avg # of iterations =  3.0

     negative rho (up, down):  0.364E-02 0.000E+00

     total cpu time spent up to now is    44302.4 secs

     total energy              =   -1728.06448249 Ry
     Harris-Foulkes estimate   =   -1728.06448848 Ry
     estimated scf accuracy    <       0.00000161 Ry

     iteration # 90     ecut=    40.00 Ry     beta=0.30
     Davidson diagonalization with overlap
     ethr =  4.83E-10,  avg # of iterations =  2.0

     negative rho (up, down):  0.364E-02 0.000E+00

     total cpu time spent up to now is    44474.5 secs

     total energy              =   -1728.06445406 Ry
     Harris-Foulkes estimate   =   -1728.06448578 Ry
     estimated scf accuracy    <       0.00000161 Ry

     iteration # 91     ecut=    40.00 Ry     beta=0.30
     Davidson diagonalization with overlap
     ethr =  4.83E-10,  avg # of iterations =  3.0

     negative rho (up, down):  0.364E-02 0.000E+00

     total cpu time spent up to now is    44665.9 secs

     total energy              =   -1728.06446006 Ry
     Harris-Foulkes estimate   =   -1728.06449569 Ry
     estimated scf accuracy    <       0.00000181 Ry

     iteration # 92     ecut=    40.00 Ry     beta=0.30
     Davidson diagonalization with overlap
     ethr =  4.83E-10,  avg # of iterations =  3.0

     negative rho (up, down):  0.364E-02 0.000E+00

     total cpu time spent up to now is    44855.6 secs

     total energy              =   -1728.06425277 Ry
     Harris-Foulkes estimate   =   -1728.06450628 Ry
     estimated scf accuracy    <       0.00000224 Ry

     iteration # 93     ecut=    40.00 Ry     beta=0.30
     Davidson diagonalization with overlap
     ethr =  4.83E-10,  avg # of iterations =  3.2

     negative rho (up, down):  0.364E-02 0.000E+00

     total cpu time spent up to now is    45055.6 secs

     total energy              =   -1728.06447996 Ry
     Harris-Foulkes estimate   =   -1728.06448287 Ry
     estimated scf accuracy    <       0.00000161 Ry

     iteration # 94     ecut=    40.00 Ry     beta=0.30
     Davidson diagonalization with overlap
     ethr =  4.83E-10,  avg # of iterations =  2.4

     negative rho (up, down):  0.364E-02 0.000E+00

     total cpu time spent up to now is    45229.9 secs

     total energy              =   -1728.06447764 Ry
     Harris-Foulkes estimate   =   -1728.06448686 Ry
     estimated scf accuracy    <       0.00000165 Ry

     iteration # 95     ecut=    40.00 Ry     beta=0.30
     Davidson diagonalization with overlap
     ethr =  4.83E-10,  avg # of iterations =  3.0

     negative rho (up, down):  0.364E-02 0.000E+00

     total cpu time spent up to now is    45417.3 secs

     total energy              =   -1728.06389597 Ry
     Harris-Foulkes estimate   =   -1728.06449281 Ry
     estimated scf accuracy    <       0.00000191 Ry

     iteration # 96     ecut=    40.00 Ry     beta=0.30
     Davidson diagonalization with overlap
     ethr =  4.83E-10,  avg # of iterations =  4.0

     negative rho (up, down):  0.364E-02 0.000E+00

     total cpu time spent up to now is    45634.3 secs

     total energy              =   -1728.06445312 Ry
     Harris-Foulkes estimate   =   -1728.06445685 Ry
     estimated scf accuracy    <       0.00000205 Ry

     iteration # 97     ecut=    40.00 Ry     beta=0.30
     Davidson diagonalization with overlap
     ethr =  4.83E-10,  avg # of iterations =  2.5

     negative rho (up, down):  0.364E-02 0.000E+00

     total cpu time spent up to now is    45812.9 secs

     total energy              =   -1728.06444517 Ry
     Harris-Foulkes estimate   =   -1728.06446096 Ry
     estimated scf accuracy    <       0.00000257 Ry

     iteration # 98     ecut=    40.00 Ry     beta=0.30
     Davidson diagonalization with overlap
     ethr =  4.83E-10,  avg # of iterations =  3.0

     negative rho (up, down):  0.364E-02 0.000E+00

     total cpu time spent up to now is    46001.6 secs

     total energy              =   -1728.06446836 Ry
     Harris-Foulkes estimate   =   -1728.06446788 Ry
     estimated scf accuracy    <       0.00000259 Ry

     iteration # 99     ecut=    40.00 Ry     beta=0.30
     Davidson diagonalization with overlap
     ethr =  4.83E-10,  avg # of iterations =  2.0

     negative rho (up, down):  0.364E-02 0.000E+00

     total cpu time spent up to now is    46170.8 secs

     total energy              =   -1728.06437935 Ry
     Harris-Foulkes estimate   =   -1728.06446909 Ry
     estimated scf accuracy    <       0.00000197 Ry

     iteration #100     ecut=    40.00 Ry     beta=0.30
     Davidson diagonalization with overlap
     ethr =  4.83E-10,  avg # of iterations =  3.0

     negative rho (up, down):  0.364E-02 0.000E+00

     total cpu time spent up to now is    46364.7 secs

     total energy              =   -1728.06448490 Ry
     Harris-Foulkes estimate   =   -1728.06448448 Ry
     estimated scf accuracy    <       0.00000173 Ry

     End of self-consistent calculation

     convergence NOT achieved after 100 iterations: stopping

     init_run     :    100.24s CPU    101.54s WALL (       1 calls)
     electrons    :  43482.99s CPU  44551.83s WALL (       3 calls)
     update_pot   :     40.47s CPU     41.40s WALL (       2 calls)
     forces       :    242.73s CPU    245.84s WALL (       2 calls)
     stress       :   1255.69s CPU   1324.58s WALL (       2 calls)

     Called by init_run:
     wfcinit      :     35.14s CPU     35.94s WALL (       1 calls)
     potinit      :      7.39s CPU      7.54s WALL (       1 calls)

     Called by electrons:
     c_bands      :  23448.51s CPU  24006.98s WALL (     252 calls)
     sum_band     :   8530.32s CPU   8725.46s WALL (     252 calls)
     v_of_rho     :    261.38s CPU    283.79s WALL (     253 calls)
     newd         :  11126.81s CPU  11203.50s WALL (     253 calls)
     mix_rho      :     52.23s CPU     53.21s WALL (     252 calls)

     Called by c_bands:
     init_us_2    :     58.88s CPU     59.49s WALL (    1596 calls)
     cegterg      :  23150.26s CPU  23631.81s WALL (     756 calls)

     Called by *egterg:
     h_psi        :  13389.86s CPU  13617.11s WALL (    2243 calls)
     s_psi        :   1414.06s CPU   1434.42s WALL (    2312 calls)
     g_psi        :     30.30s CPU     30.42s WALL (    1484 calls)
     cdiaghg      :   2120.13s CPU   2130.58s WALL (    2228 calls)

     Called by h_psi:
     add_vuspsi   :   1362.79s CPU   1384.66s WALL (    2243 calls)
     vhpsi        :   1411.66s CPU   1428.88s WALL (    2243 calls)

     General routines
     calbec       :   3105.82s CPU   3137.48s WALL (    7867 calls)
     fft          :    290.15s CPU    340.13s WALL (    4098 calls)
     ffts         :      4.56s CPU      4.68s WALL (     505 calls)
     fftw         :   7711.15s CPU   7926.33s WALL ( 1352090 calls)
     interpolate  :     38.43s CPU     39.10s WALL (     505 calls)
     davcio       :      0.17s CPU     25.08s WALL (    1656 calls)

     Parallel routines
     fft_scatter  :   2475.05s CPU   2712.13s WALL ( 1356693 calls)
     Hubbard U routines
     new_ns       :    325.04s CPU    341.10s WALL (     252 calls)
     vhpsi        :   1411.66s CPU   1428.88s WALL (    2243 calls)
     force_hub    :     71.58s CPU     72.89s WALL (       2 calls)
     stres_hub    :    665.54s CPU    672.70s WALL (       2 calls)

     PWSCF        :    12h33m CPU       12h53m WALL


   This run was terminated on:   7:19:25   6Jun2014            

=------------------------------------------------------------------------------=
   JOB DONE.
=------------------------------------------------------------------------------=
