ScientificPython/2.8-dl160g6-numpy-1.7.1-1(15):ERROR:151: Module 'ScientificPython/2.8-dl160g6-numpy-1.7.1-1' depends on one of the module(s) 'numpy/1.7.1-dl160g6-gfortran-internal-1'
ScientificPython/2.8-dl160g6-numpy-1.7.1-1(15):ERROR:102: Tcl command execution failed: prereq numpy/1.7.1-dl160g6-gfortran-internal-1


     Program PWSCF v.5.0.2 (svn rev. 9656) starts on  1Jun2014 at 22:35:52 

     This program is part of the open-source Quantum ESPRESSO suite
     for quantum simulation of materials; please cite
         "P. Giannozzi et al., J. Phys.:Condens. Matter 21 395502 (2009);
          URL http://www.quantum-espresso.org", 
     in publications or presentations arising from this work. More details at
     http://www.quantum-espresso.org/quote.php

     Parallel version (MPI), running on    16 processors
     K-points division:     npool     =       4
     R & G space division:  proc/nbgrp/npool/nimage =       4

     Current dimensions of program PWSCF are:
     Max number of different atomic species (ntypx) = 10
     Max number of k-points (npk) =  40000
     Max angular momentum in pseudopotentials (lmaxx) =  3
     Reading input from pwscf.in
Warning: card &CELL ignored
Warning: card / ignored

     Subspace diagonalization in iterative solution of the eigenvalue problem:
     a serial algorithm will be used


     Parallelization info
     --------------------
     sticks:   dense  smooth     PW     G-vecs:    dense   smooth      PW
     Min        1274     408    116               299662    54238    8133
     Max        1275     409    117               299663    54251    8135
     Sum        5097    1635    467              1198649   216969   32535



     bravais-lattice index     =            0
     lattice parameter (alat)  =      10.9604  a.u.
     unit-cell volume          =    6350.6732 (a.u.)^3
     number of atoms/cell      =           33
     number of atomic types    =            3
     number of electrons       =       237.00 (up: 126.00, down: 111.00)
     number of Kohn-Sham states=          343
     kinetic-energy cutoff     =      40.0000  Ry
     charge density cutoff     =     500.0000  Ry
     convergence threshold     =      1.0E-06
     mixing beta               =       0.7000
     number of iterations used =            8  plain     mixing
     Exchange-correlation      = SLA  PW   PBE  PBE ( 1 4 3 4 0)
     EXX-fraction              =        0.00
     nstep                     =           50


     celldm(1)=  10.960412  celldm(2)=   0.000000  celldm(3)=   0.000000
     celldm(4)=   0.000000  celldm(5)=   0.000000  celldm(6)=   0.000000

     crystal axes: (cart. coord. in units of alat)
               a(1) = (   1.000000   0.000000   0.000000 )  
               a(2) = (   0.000000   1.067975   0.000000 )  
               a(3) = (   0.000000   0.000000   4.516251 )  

     reciprocal axes: (cart. coord. in units 2 pi/alat)
               b(1) = (  1.000000  0.000000  0.000000 )  
               b(2) = (  0.000000  0.936351  0.000000 )  
               b(3) = (  0.000000  0.000000  0.221423 )  


     PseudoPot. # 1 for O  read from file:
     /home/camp/zhonxu/pseudo/o_pbe_v1.01.uspp.F.UPF
     MD5 check sum: 2bcb18d16ea4b960afae9ec6d52f22d2
     Pseudo is Ultrasoft + core correction, Zval =  6.0
     Generated by new atomic code, or converted to UPF format
     Using radial grid of  737 points,  5 beta functions with: 
                l(1) =   0
                l(2) =   0
                l(3) =   1
                l(4) =   1
                l(5) =   2
     Q(r) pseudized with  8 coefficients,  rinner =    0.900   0.900   0.900
                                                       0.900   0.900

     PseudoPot. # 2 for Cr read from file:
     /home/camp/zhonxu/pseudo/cr_pbe_v1.uspp.F.UPF
     MD5 check sum: 68b6f918d1762dccfb11451fe85b0e0e
     Pseudo is Ultrasoft + core correction, Zval = 14.0
     Generated by new atomic code, or converted to UPF format
     Using radial grid of  857 points,  6 beta functions with: 
                l(1) =   0
                l(2) =   0
                l(3) =   1
                l(4) =   1
                l(5) =   2
                l(6) =   2
     Q(r) pseudized with  6 coefficients,  rinner =    1.000   1.000   1.000
                                                       1.000   1.000

     PseudoPot. # 3 for H  read from file:
     /home/camp/zhonxu/pseudo/h_pbe_v1.uspp.F.UPF
     MD5 check sum: 3408e3ff4ec8b0a4e358431e7e038a48
     Pseudo is Ultrasoft, Zval =  1.0
     Generated by new atomic code, or converted to UPF format
     Using radial grid of  615 points,  2 beta functions with: 
                l(1) =   0
                l(2) =   0
     Q(r) pseudized with  8 coefficients,  rinner =    0.700

     atomic species   valence    mass     pseudopotential
        O0             6.00    15.99940     O ( 1.00)
        Cr1           14.00    51.99600     Cr( 1.00)
        H2             1.00     1.00794     H ( 1.00)

     Starting magnetic structure 
     atomic species   magnetization
        O0           0.000
        Cr1          0.600
        H2           0.000


     Simplified LDA+U calculation (l_max = 2) with parameters (eV):
     atomic species    L          U    alpha       J0     beta
        Cr1            2     0.0000   0.0000   0.0000   0.0000



     No symmetry found



   Cartesian axes

     site n.     atom                  positions (alat units)
         1           O0  tau(   1) = (   0.0000000   0.0000000   1.7057880  )
         2           O0  tau(   2) = (   0.0000000   0.5339875   1.8101134  )
         3           Cr1 tau(   3) = (   0.2500000   0.5339875   2.0412099  )
         4           Cr1 tau(   4) = (   0.0000000   0.0000000   2.0263515  )
         5           O0  tau(   5) = (   0.2500000   0.8543801   2.0311839  )
         6           O0  tau(   6) = (   0.2500000   0.2135950   2.0319065  )
         7           O0  tau(   7) = (   0.0000000   0.5339875   2.2504478  )
         8           O0  tau(   8) = (   0.0000000   0.0000000   2.3617283  )
         9           Cr1 tau(   9) = (   0.2500000   0.0000000   2.5571464  )
        10           Cr1 tau(  10) = (   0.0000000   0.5339875   2.5545270  )
        11           O0  tau(  11) = (   0.2500000   0.7475825   2.5883086  )
        12           O0  tau(  12) = (   0.2500000   0.3203925   2.5986508  )
        13           O0  tau(  13) = (   0.0000000   0.0000000   2.7891463  )
        14           O0  tau(  14) = (   0.5000000   0.0000000   1.7052460  )
        15           O0  tau(  15) = (   0.5000000   0.5339875   1.8091650  )
        16           Cr1 tau(  16) = (   0.7500000   0.5339875   2.0419325  )
        17           Cr1 tau(  17) = (   0.5000000   0.0000000   2.0263063  )
        18           O0  tau(  18) = (   0.7500000   0.8543801   2.0310484  )
        19           O0  tau(  19) = (   0.7500000   0.2135950   2.0321774  )
        20           O0  tau(  20) = (   0.5000000   0.5339875   2.2541963  )
        21           O0  tau(  21) = (   0.5000000   0.0000000   2.3617283  )
        22           Cr1 tau(  22) = (   0.7500000   0.0000000   2.6331549  )
        23           Cr1 tau(  23) = (   0.5000000   0.5339875   2.6097156  )
        24           O0  tau(  24) = (   0.7500000   0.7475825   2.5944507  )
        25           O0  tau(  25) = (   0.7500000   0.3203925   2.6044767  )
        26           O0  tau(  26) = (   0.5000000   0.0000000   2.7840880  )
        27           H2  tau(  27) = (  -0.0006600   0.6808768   1.7228142  )
        28           H2  tau(  28) = (   0.4998000   0.6828846   1.7250724  )
        29           H2  tau(  29) = (   0.1568300   0.0328936   1.6463090  )
        30           H2  tau(  30) = (   0.6565800   0.0331499   1.6456315  )
        31           O0  tau(  31) = (   0.4998600   0.5715162   2.9254467  )
        32           O0  tau(  32) = (   0.5002200   0.3713883   3.0709603  )
        33           H2  tau(  33) = (   0.4998900   0.4494573   3.2222096  )

     number of k points=    20  Methfessel-Paxton smearing, width (Ry)=  0.0100
                       cart. coord. in units 2pi/alat
        k(    1) = (   0.0000000   0.0000000   0.0000000), wk =   0.0625000
        k(    2) = (   0.0000000   0.2340879   0.0000000), wk =   0.1250000
        k(    3) = (   0.0000000  -0.4681757   0.0000000), wk =   0.0625000
        k(    4) = (   0.2500000   0.0000000   0.0000000), wk =   0.1250000
        k(    5) = (   0.2500000   0.2340879   0.0000000), wk =   0.1250000
        k(    6) = (   0.2500000  -0.4681757   0.0000000), wk =   0.1250000
        k(    7) = (  -0.5000000   0.0000000   0.0000000), wk =   0.0625000
        k(    8) = (  -0.5000000   0.2340879   0.0000000), wk =   0.1250000
        k(    9) = (  -0.5000000  -0.4681757   0.0000000), wk =   0.0625000
        k(   10) = (  -0.2500000   0.2340879   0.0000000), wk =   0.1250000
        k(   11) = (   0.0000000   0.0000000   0.0000000), wk =   0.0625000
        k(   12) = (   0.0000000   0.2340879   0.0000000), wk =   0.1250000
        k(   13) = (   0.0000000  -0.4681757   0.0000000), wk =   0.0625000
        k(   14) = (   0.2500000   0.0000000   0.0000000), wk =   0.1250000
        k(   15) = (   0.2500000   0.2340879   0.0000000), wk =   0.1250000
        k(   16) = (   0.2500000  -0.4681757   0.0000000), wk =   0.1250000
        k(   17) = (  -0.5000000   0.0000000   0.0000000), wk =   0.0625000
        k(   18) = (  -0.5000000   0.2340879   0.0000000), wk =   0.1250000
        k(   19) = (  -0.5000000  -0.4681757   0.0000000), wk =   0.0625000
        k(   20) = (  -0.2500000   0.2340879   0.0000000), wk =   0.1250000

     Dense  grid:  1198649 G-vectors     FFT dimensions: (  80,  90, 360)

     Smooth grid:   216969 G-vectors     FFT dimensions: (  45,  48, 200)

     Largest allocated arrays     est. size (Mb)     dimensions
        Kohn-Sham Wavefunctions        36.03 Mb     (   6884,  343)
        Atomic wavefunctions           17.33 Mb     (   6884,  165)
        NL pseudopotentials            43.49 Mb     (   6884,  414)
        Each V/rho on FFT grid         19.78 Mb     ( 648000,   2)
        Each G-vector array             2.29 Mb     ( 299662)
        G-vector shells                 0.99 Mb     ( 129803)
     Largest temporary arrays     est. size (Mb)     dimensions
        Auxiliary wavefunctions       144.12 Mb     (   6884, 1372)
        Each subspace H/S matrix       28.72 Mb     (1372,1372)
        Each <psi_i|beta_j> matrix      2.17 Mb     (    414,  343)
        Arrays for rho mixing          79.10 Mb     ( 648000,   8)

     Check: negative/imaginary core charge=   -0.000012    0.000000

     Initial potential from superposition of free atoms
     Check: negative starting charge=(component1):   -0.001299
     Check: negative starting charge=(component2):   -0.000449

     starting charge  228.99983, renormalised to  237.00000

     negative rho (up, down):  0.134E-02 0.465E-03
     Number of +U iterations with fixed ns =  0
     Starting occupations:
 --- enter write_ns ---
 LDA+U parameters:
U( 2)     =  0.00000000
alpha( 2) =  0.00000000
atom    3   Tr[ns(na)] (up, down, total) =   5.00000  0.00000  5.00000
   spin  1
    eigenvalues: 
  1.000  1.000  1.000  1.000  1.000
    eigenvectors:
  1.000  0.000  0.000  0.000  0.000
  0.000  1.000  0.000  0.000  0.000
  0.000  0.000  1.000  0.000  0.000
  0.000  0.000  0.000  1.000  0.000
  0.000  0.000  0.000  0.000  1.000
    occupations:
  1.000  0.000  0.000  0.000  0.000
  0.000  1.000  0.000  0.000  0.000
  0.000  0.000  1.000  0.000  0.000
  0.000  0.000  0.000  1.000  0.000
  0.000  0.000  0.000  0.000  1.000
   spin  2
    eigenvalues: 
  0.000  0.000  0.000  0.000  0.000
    eigenvectors:
  1.000  0.000  0.000  0.000  0.000
  0.000  1.000  0.000  0.000  0.000
  0.000  0.000  1.000  0.000  0.000
  0.000  0.000  0.000  1.000  0.000
  0.000  0.000  0.000  0.000  1.000
    occupations:
  0.000  0.000  0.000  0.000  0.000
  0.000  0.000  0.000  0.000  0.000
  0.000  0.000  0.000  0.000  0.000
  0.000  0.000  0.000  0.000  0.000
  0.000  0.000  0.000  0.000  0.000
atomic mag. moment =     5.000000
atom    4   Tr[ns(na)] (up, down, total) =   5.00000  0.00000  5.00000
   spin  1
    eigenvalues: 
  1.000  1.000  1.000  1.000  1.000
    eigenvectors:
  1.000  0.000  0.000  0.000  0.000
  0.000  1.000  0.000  0.000  0.000
  0.000  0.000  1.000  0.000  0.000
  0.000  0.000  0.000  1.000  0.000
  0.000  0.000  0.000  0.000  1.000
    occupations:
  1.000  0.000  0.000  0.000  0.000
  0.000  1.000  0.000  0.000  0.000
  0.000  0.000  1.000  0.000  0.000
  0.000  0.000  0.000  1.000  0.000
  0.000  0.000  0.000  0.000  1.000
   spin  2
    eigenvalues: 
  0.000  0.000  0.000  0.000  0.000
    eigenvectors:
  1.000  0.000  0.000  0.000  0.000
  0.000  1.000  0.000  0.000  0.000
  0.000  0.000  1.000  0.000  0.000
  0.000  0.000  0.000  1.000  0.000
  0.000  0.000  0.000  0.000  1.000
    occupations:
  0.000  0.000  0.000  0.000  0.000
  0.000  0.000  0.000  0.000  0.000
  0.000  0.000  0.000  0.000  0.000
  0.000  0.000  0.000  0.000  0.000
  0.000  0.000  0.000  0.000  0.000
atomic mag. moment =     5.000000
atom    9   Tr[ns(na)] (up, down, total) =   5.00000  0.00000  5.00000
   spin  1
    eigenvalues: 
  1.000  1.000  1.000  1.000  1.000
    eigenvectors:
  1.000  0.000  0.000  0.000  0.000
  0.000  1.000  0.000  0.000  0.000
  0.000  0.000  1.000  0.000  0.000
  0.000  0.000  0.000  1.000  0.000
  0.000  0.000  0.000  0.000  1.000
    occupations:
  1.000  0.000  0.000  0.000  0.000
  0.000  1.000  0.000  0.000  0.000
  0.000  0.000  1.000  0.000  0.000
  0.000  0.000  0.000  1.000  0.000
  0.000  0.000  0.000  0.000  1.000
   spin  2
    eigenvalues: 
  0.000  0.000  0.000  0.000  0.000
    eigenvectors:
  1.000  0.000  0.000  0.000  0.000
  0.000  1.000  0.000  0.000  0.000
  0.000  0.000  1.000  0.000  0.000
  0.000  0.000  0.000  1.000  0.000
  0.000  0.000  0.000  0.000  1.000
    occupations:
  0.000  0.000  0.000  0.000  0.000
  0.000  0.000  0.000  0.000  0.000
  0.000  0.000  0.000  0.000  0.000
  0.000  0.000  0.000  0.000  0.000
  0.000  0.000  0.000  0.000  0.000
atomic mag. moment =     5.000000
atom   10   Tr[ns(na)] (up, down, total) =   5.00000  0.00000  5.00000
   spin  1
    eigenvalues: 
  1.000  1.000  1.000  1.000  1.000
    eigenvectors:
  1.000  0.000  0.000  0.000  0.000
  0.000  1.000  0.000  0.000  0.000
  0.000  0.000  1.000  0.000  0.000
  0.000  0.000  0.000  1.000  0.000
  0.000  0.000  0.000  0.000  1.000
    occupations:
  1.000  0.000  0.000  0.000  0.000
  0.000  1.000  0.000  0.000  0.000
  0.000  0.000  1.000  0.000  0.000
  0.000  0.000  0.000  1.000  0.000
  0.000  0.000  0.000  0.000  1.000
   spin  2
    eigenvalues: 
  0.000  0.000  0.000  0.000  0.000
    eigenvectors:
  1.000  0.000  0.000  0.000  0.000
  0.000  1.000  0.000  0.000  0.000
  0.000  0.000  1.000  0.000  0.000
  0.000  0.000  0.000  1.000  0.000
  0.000  0.000  0.000  0.000  1.000
    occupations:
  0.000  0.000  0.000  0.000  0.000
  0.000  0.000  0.000  0.000  0.000
  0.000  0.000  0.000  0.000  0.000
  0.000  0.000  0.000  0.000  0.000
  0.000  0.000  0.000  0.000  0.000
atomic mag. moment =     5.000000
atom   16   Tr[ns(na)] (up, down, total) =   5.00000  0.00000  5.00000
   spin  1
    eigenvalues: 
  1.000  1.000  1.000  1.000  1.000
    eigenvectors:
  1.000  0.000  0.000  0.000  0.000
  0.000  1.000  0.000  0.000  0.000
  0.000  0.000  1.000  0.000  0.000
  0.000  0.000  0.000  1.000  0.000
  0.000  0.000  0.000  0.000  1.000
    occupations:
  1.000  0.000  0.000  0.000  0.000
  0.000  1.000  0.000  0.000  0.000
  0.000  0.000  1.000  0.000  0.000
  0.000  0.000  0.000  1.000  0.000
  0.000  0.000  0.000  0.000  1.000
   spin  2
    eigenvalues: 
  0.000  0.000  0.000  0.000  0.000
    eigenvectors:
  1.000  0.000  0.000  0.000  0.000
  0.000  1.000  0.000  0.000  0.000
  0.000  0.000  1.000  0.000  0.000
  0.000  0.000  0.000  1.000  0.000
  0.000  0.000  0.000  0.000  1.000
    occupations:
  0.000  0.000  0.000  0.000  0.000
  0.000  0.000  0.000  0.000  0.000
  0.000  0.000  0.000  0.000  0.000
  0.000  0.000  0.000  0.000  0.000
  0.000  0.000  0.000  0.000  0.000
atomic mag. moment =     5.000000
atom   17   Tr[ns(na)] (up, down, total) =   5.00000  0.00000  5.00000
   spin  1
    eigenvalues: 
  1.000  1.000  1.000  1.000  1.000
    eigenvectors:
  1.000  0.000  0.000  0.000  0.000
  0.000  1.000  0.000  0.000  0.000
  0.000  0.000  1.000  0.000  0.000
  0.000  0.000  0.000  1.000  0.000
  0.000  0.000  0.000  0.000  1.000
    occupations:
  1.000  0.000  0.000  0.000  0.000
  0.000  1.000  0.000  0.000  0.000
  0.000  0.000  1.000  0.000  0.000
  0.000  0.000  0.000  1.000  0.000
  0.000  0.000  0.000  0.000  1.000
   spin  2
    eigenvalues: 
  0.000  0.000  0.000  0.000  0.000
    eigenvectors:
  1.000  0.000  0.000  0.000  0.000
  0.000  1.000  0.000  0.000  0.000
  0.000  0.000  1.000  0.000  0.000
  0.000  0.000  0.000  1.000  0.000
  0.000  0.000  0.000  0.000  1.000
    occupations:
  0.000  0.000  0.000  0.000  0.000
  0.000  0.000  0.000  0.000  0.000
  0.000  0.000  0.000  0.000  0.000
  0.000  0.000  0.000  0.000  0.000
  0.000  0.000  0.000  0.000  0.000
atomic mag. moment =     5.000000
atom   22   Tr[ns(na)] (up, down, total) =   5.00000  0.00000  5.00000
   spin  1
    eigenvalues: 
  1.000  1.000  1.000  1.000  1.000
    eigenvectors:
  1.000  0.000  0.000  0.000  0.000
  0.000  1.000  0.000  0.000  0.000
  0.000  0.000  1.000  0.000  0.000
  0.000  0.000  0.000  1.000  0.000
  0.000  0.000  0.000  0.000  1.000
    occupations:
  1.000  0.000  0.000  0.000  0.000
  0.000  1.000  0.000  0.000  0.000
  0.000  0.000  1.000  0.000  0.000
  0.000  0.000  0.000  1.000  0.000
  0.000  0.000  0.000  0.000  1.000
   spin  2
    eigenvalues: 
  0.000  0.000  0.000  0.000  0.000
    eigenvectors:
  1.000  0.000  0.000  0.000  0.000
  0.000  1.000  0.000  0.000  0.000
  0.000  0.000  1.000  0.000  0.000
  0.000  0.000  0.000  1.000  0.000
  0.000  0.000  0.000  0.000  1.000
    occupations:
  0.000  0.000  0.000  0.000  0.000
  0.000  0.000  0.000  0.000  0.000
  0.000  0.000  0.000  0.000  0.000
  0.000  0.000  0.000  0.000  0.000
  0.000  0.000  0.000  0.000  0.000
atomic mag. moment =     5.000000
atom   23   Tr[ns(na)] (up, down, total) =   5.00000  0.00000  5.00000
   spin  1
    eigenvalues: 
  1.000  1.000  1.000  1.000  1.000
    eigenvectors:
  1.000  0.000  0.000  0.000  0.000
  0.000  1.000  0.000  0.000  0.000
  0.000  0.000  1.000  0.000  0.000
  0.000  0.000  0.000  1.000  0.000
  0.000  0.000  0.000  0.000  1.000
    occupations:
  1.000  0.000  0.000  0.000  0.000
  0.000  1.000  0.000  0.000  0.000
  0.000  0.000  1.000  0.000  0.000
  0.000  0.000  0.000  1.000  0.000
  0.000  0.000  0.000  0.000  1.000
   spin  2
    eigenvalues: 
  0.000  0.000  0.000  0.000  0.000
    eigenvectors:
  1.000  0.000  0.000  0.000  0.000
  0.000  1.000  0.000  0.000  0.000
  0.000  0.000  1.000  0.000  0.000
  0.000  0.000  0.000  1.000  0.000
  0.000  0.000  0.000  0.000  1.000
    occupations:
  0.000  0.000  0.000  0.000  0.000
  0.000  0.000  0.000  0.000  0.000
  0.000  0.000  0.000  0.000  0.000
  0.000  0.000  0.000  0.000  0.000
  0.000  0.000  0.000  0.000  0.000
atomic mag. moment =     5.000000
N of occupied +U levels =  40.0000000
 --- exit write_ns ---
 Atomic wfc used for LDA+U Projector are NOT orthogonalized
     Starting wfc are  165 randomized atomic wfcs

     total cpu time spent up to now is      129.8 secs

     per-process dynamical memory:   428.0 Mb

     Self-consistent Calculation

     iteration #  1     ecut=    40.00 Ry     beta=0.70
     Davidson diagonalization with overlap
     ethr =  1.00E-02,  avg # of iterations =  5.3
 --- enter write_ns ---
 LDA+U parameters:
U( 2)     =  0.00000000
alpha( 2) =  0.00000000
atom    3   Tr[ns(na)] (up, down, total) =   3.70920  0.73497  4.44417
   spin  1
    eigenvalues: 
  0.518  0.526  0.771  0.930  0.964
    eigenvectors:
  0.247  0.002  0.007  0.739  0.005
  0.005  0.993  0.000  0.000  0.002
  0.000  0.000  0.986  0.012  0.002
  0.748  0.004  0.004  0.244  0.001
  0.000  0.002  0.003  0.005  0.990
    occupations:
  0.827 -0.002  0.015 -0.177 -0.004
 -0.002  0.527 -0.000  0.002 -0.019
  0.015 -0.000  0.773 -0.006  0.010
 -0.177  0.002 -0.006  0.620  0.001
 -0.004 -0.019  0.010  0.001  0.962
   spin  2
    eigenvalues: 
  0.079  0.089  0.092  0.230  0.246
    eigenvectors:
  0.601  0.047  0.168  0.001  0.183
  0.000  0.001  0.000  0.992  0.007
  0.255  0.112  0.633  0.000  0.000
  0.142  0.010  0.033  0.006  0.810
  0.002  0.830  0.167  0.001  0.000
    occupations:
  0.112 -0.001 -0.004  0.063  0.000
 -0.001  0.230  0.000 -0.001  0.005
 -0.004  0.000  0.088  0.004 -0.001
  0.063 -0.001  0.004  0.216 -0.000
  0.000  0.005 -0.001 -0.000  0.089
atomic mag. moment =     2.974235
atom    4   Tr[ns(na)] (up, down, total) =   3.43897  0.77228  4.21125
   spin  1
    eigenvalues: 
  0.455  0.565  0.697  0.757  0.964
    eigenvectors:
  0.000  0.863  0.136  0.000  0.001
  0.000  0.126  0.811  0.062  0.000
  0.000  0.009  0.053  0.937  0.001
  0.000  0.002  0.000  0.000  0.998
  1.000  0.000  0.000  0.000  0.000
    occupations:
  0.584  0.043  0.012  0.015 -0.000
  0.043  0.685 -0.019 -0.006  0.000
  0.012 -0.019  0.753 -0.006 -0.000
  0.015 -0.006 -0.006  0.963 -0.000
 -0.000  0.000 -0.000 -0.000  0.455
   spin  2
    eigenvalues: 
  0.076  0.095  0.115  0.226  0.260
    eigenvectors:
  0.008  0.003  0.000  0.000  0.989
  0.004  0.913  0.080  0.000  0.004
  0.000  0.079  0.920  0.000  0.000
  0.987  0.005  0.000  0.000  0.007
  0.000  0.000  0.000  1.000  0.000
    occupations:
  0.258  0.010  0.002 -0.016  0.000
  0.010  0.097 -0.005  0.000 -0.000
  0.002 -0.005  0.114  0.000  0.000
 -0.016  0.000  0.000  0.078  0.000
  0.000 -0.000  0.000  0.000  0.226
atomic mag. moment =     2.666690
atom    9   Tr[ns(na)] (up, down, total) =   3.91151  0.80491  4.71641
   spin  1
    eigenvalues: 
  0.535  0.542  0.913  0.948  0.974
    eigenvectors:
  0.179  0.010  0.000  0.001  0.810
  0.052  0.948  0.000  0.000  0.000
  0.000  0.000  0.187  0.811  0.001
  0.769  0.042  0.000  0.001  0.188
  0.000  0.000  0.813  0.187  0.000
    occupations:
  0.891  0.001 -0.005 -0.171 -0.000
  0.001  0.542 -0.001  0.001 -0.000
 -0.005 -0.001  0.941 -0.008  0.014
 -0.171  0.001 -0.008  0.618  0.001
 -0.000 -0.000  0.014  0.001  0.920
   spin  2
    eigenvalues: 
  0.097  0.103  0.105  0.248  0.252
    eigenvectors:
  0.853  0.003  0.001  0.125  0.018
  0.000  0.000  0.000  0.137  0.863
  0.003  0.938  0.059  0.000  0.000
  0.144  0.000  0.000  0.738  0.119
  0.000  0.059  0.940  0.000  0.000
    occupations:
  0.119  0.000  0.001  0.053  0.000
  0.000  0.251 -0.000 -0.002  0.000
  0.001 -0.000  0.103  0.003 -0.001
  0.053 -0.002  0.003  0.227 -0.000
  0.000  0.000 -0.001 -0.000  0.105
atomic mag. moment =     3.106599
atom   10   Tr[ns(na)] (up, down, total) =   4.03562  0.67545  4.71107
   spin  1
    eigenvalues: 
  0.502  0.598  0.977  0.978  0.981
    eigenvectors:
  0.001  0.997  0.000  0.000  0.002
  0.000  0.000  0.830  0.045  0.124
  0.001  0.000  0.055  0.944  0.000
  0.000  0.003  0.114  0.010  0.873
  0.998  0.001  0.000  0.001  0.000
    occupations:
  0.599  0.001  0.006  0.019  0.002
  0.001  0.977 -0.000  0.001 -0.006
  0.006 -0.000  0.977 -0.000 -0.014
  0.019  0.001 -0.000  0.979  0.002
  0.002 -0.006 -0.014  0.002  0.503
   spin  2
    eigenvalues: 
  0.078  0.087  0.096  0.187  0.227
    eigenvectors:
  0.017  0.000  0.000  0.983  0.000
  0.003  0.001  0.996  0.000  0.000
  0.012  0.988  0.000  0.000  0.000
  0.969  0.011  0.003  0.017  0.000
  0.000  0.000  0.000  0.000  0.999
    occupations:
  0.185 -0.001 -0.001 -0.014  0.000
 -0.001  0.096 -0.000  0.001  0.003
 -0.001 -0.000  0.087 -0.001  0.002
 -0.014  0.001 -0.001  0.080 -0.000
  0.000  0.003  0.002 -0.000  0.227
atomic mag. moment =     3.360166
atom   16   Tr[ns(na)] (up, down, total) =   3.69675  0.73491  4.43166
   spin  1
    eigenvalues: 
  0.519  0.524  0.764  0.927  0.963
    eigenvectors:
  0.242  0.004  0.009  0.738  0.007
  0.013  0.985  0.000  0.000  0.002
  0.000  0.000  0.986  0.013  0.001
  0.745  0.009  0.004  0.240  0.002
  0.000  0.002  0.000  0.010  0.988
    occupations:
  0.826  0.002  0.018 -0.175  0.003
  0.002  0.525 -0.000 -0.002 -0.019
  0.018 -0.000  0.766 -0.007  0.003
 -0.175 -0.002 -0.007  0.619 -0.001
  0.003 -0.019  0.003 -0.001  0.962
   spin  2
    eigenvalues: 
  0.079  0.089  0.092  0.229  0.246
    eigenvectors:
  0.627  0.043  0.146  0.001  0.183
  0.000  0.001  0.000  0.992  0.007
  0.225  0.127  0.648  0.000  0.000
  0.147  0.009  0.029  0.005  0.810
  0.001  0.820  0.178  0.001  0.000
    occupations:
  0.112  0.001 -0.004  0.064 -0.000
  0.001  0.229 -0.000  0.001  0.005
 -0.004 -0.000  0.089  0.004  0.001
  0.064  0.001  0.004  0.216  0.000
 -0.000  0.005  0.001  0.000  0.089
atomic mag. moment =     2.961846
atom   17   Tr[ns(na)] (up, down, total) =   3.41926  0.76864  4.18790
   spin  1
    eigenvalues: 
  0.452  0.560  0.691  0.753  0.963
    eigenvectors:
  0.000  0.843  0.156  0.000  0.001
  0.000  0.145  0.793  0.061  0.000
  0.000  0.010  0.051  0.938  0.001
  0.000  0.002  0.000  0.000  0.998
  1.000  0.000  0.000  0.000  0.000
    occupations:
  0.581  0.046  0.012  0.015  0.000
  0.046  0.676 -0.020 -0.007 -0.000
  0.012 -0.020  0.748 -0.006  0.001
  0.015 -0.007 -0.006  0.962 -0.000
  0.000 -0.000  0.001 -0.000  0.452
   spin  2
    eigenvalues: 
  0.076  0.095  0.114  0.225  0.259
    eigenvectors:
  0.008  0.003  0.000  0.000  0.989
  0.007  0.908  0.082  0.000  0.004
  0.001  0.081  0.918  0.000  0.000
  0.984  0.008  0.000  0.000  0.007
  0.000  0.000  0.000  1.000  0.000
    occupations:
  0.257  0.010  0.002 -0.016  0.000
  0.010  0.097 -0.005  0.001 -0.000
  0.002 -0.005  0.113  0.000  0.000
 -0.016  0.001  0.000  0.077  0.000
  0.000 -0.000  0.000  0.000  0.225
atomic mag. moment =     2.650613
atom   22   Tr[ns(na)] (up, down, total) =   3.21643  0.93695  4.15338
   spin  1
    eigenvalues: 
  0.534  0.544  0.612  0.699  0.827
    eigenvectors:
  0.037  0.039  0.000  0.915  0.009
  0.614  0.385  0.000  0.001  0.000
  0.000  0.000  0.012  0.010  0.978
  0.350  0.575  0.000  0.074  0.001
  0.000  0.000  0.988  0.000  0.012
    occupations:
  0.688  0.006 -0.012 -0.042 -0.002
  0.006  0.538  0.001  0.003  0.001
 -0.012  0.001  0.823  0.003  0.023
 -0.042  0.003  0.003  0.552  0.001
 -0.002  0.001  0.023  0.001  0.615
   spin  2
    eigenvalues: 
  0.105  0.143  0.150  0.264  0.275
    eigenvectors:
  0.000  0.990  0.004  0.001  0.005
  0.000  0.000  0.000  0.948  0.052
  0.998  0.000  0.002  0.000  0.000
  0.000  0.006  0.000  0.052  0.942
  0.002  0.004  0.994  0.000  0.000
    occupations:
  0.144 -0.001  0.000  0.010 -0.000
 -0.001  0.264  0.000  0.003  0.000
  0.000  0.000  0.105  0.002  0.002
  0.010  0.003  0.002  0.274  0.000
 -0.000  0.000  0.002  0.000  0.149
atomic mag. moment =     2.279476
atom   23   Tr[ns(na)] (up, down, total) =   3.72017  0.85899  4.57916
   spin  1
    eigenvalues: 
  0.454  0.579  0.786  0.946  0.955
    eigenvectors:
  0.000  0.940  0.000  0.060  0.000
  0.001  0.000  0.999  0.000  0.001
  0.001  0.054  0.000  0.866  0.079
  0.000  0.006  0.001  0.073  0.921
  0.998  0.000  0.001  0.001  0.000
    occupations:
  0.601 -0.003  0.083  0.028  0.003
 -0.003  0.785  0.001  0.004 -0.008
  0.083  0.001  0.927 -0.009  0.017
  0.028  0.004 -0.009  0.952 -0.001
  0.003 -0.008  0.017 -0.001  0.455
   spin  2
    eigenvalues: 
  0.074  0.087  0.202  0.226  0.270
    eigenvectors:
  0.003  0.000  0.000  0.000  0.997
  0.000  0.000  0.935  0.065  0.000
  0.172  0.827  0.000  0.000  0.000
  0.825  0.172  0.000  0.000  0.003
  0.000  0.000  0.064  0.935  0.000
    occupations:
  0.269  0.000  0.002 -0.011 -0.000
  0.000  0.204 -0.001 -0.000 -0.006
  0.002 -0.001  0.085  0.005 -0.002
 -0.011 -0.000  0.005  0.077  0.000
 -0.000 -0.006 -0.002  0.000  0.224
atomic mag. moment =     2.861184
N of occupied +U levels =  35.4350003
 --- exit write_ns ---

     negative rho (up, down):  0.301E-02 0.107E-02

     total cpu time spent up to now is      659.5 secs

     total energy              =   -2049.37302831 Ry
     Harris-Foulkes estimate   =   -2055.99069445 Ry
     estimated scf accuracy    <      18.18505471 Ry

     total magnetization       =    15.00 Bohr mag/cell
     absolute magnetization    =    31.23 Bohr mag/cell

     iteration #  2     ecut=    40.00 Ry     beta=0.70
     Davidson diagonalization with overlap
     ethr =  7.67E-03,  avg # of iterations =  5.5

     total cpu time spent up to now is     1016.3 secs

     total energy              =   -1963.13680762 Ry
     Harris-Foulkes estimate   =   -2113.36549976 Ry
     estimated scf accuracy    <    2042.05028044 Ry

     total magnetization       =    15.00 Bohr mag/cell
     absolute magnetization    =    17.62 Bohr mag/cell

     iteration #  3     ecut=    40.00 Ry     beta=0.70
     Davidson diagonalization with overlap
     ethr =  7.67E-03,  avg # of iterations =  4.0

     total cpu time spent up to now is     1404.5 secs

     total energy              =   -2048.56923423 Ry
     Harris-Foulkes estimate   =   -2066.23804838 Ry
     estimated scf accuracy    <      66.17848880 Ry

     total magnetization       =    15.00 Bohr mag/cell
     absolute magnetization    =    22.44 Bohr mag/cell

     iteration #  4     ecut=    40.00 Ry     beta=0.70
     Davidson diagonalization with overlap
     ethr =  7.67E-03,  avg # of iterations =  3.0

     total cpu time spent up to now is     1674.3 secs

     total energy              =   -2055.81898587 Ry
     Harris-Foulkes estimate   =   -2062.43686435 Ry
     estimated scf accuracy    <      30.88020271 Ry

     total magnetization       =    15.00 Bohr mag/cell
     absolute magnetization    =    21.55 Bohr mag/cell

     iteration #  5     ecut=    40.00 Ry     beta=0.70
     Davidson diagonalization with overlap
     ethr =  7.67E-03,  avg # of iterations =  3.3

     negative rho (up, down):  0.000E+00 0.607E-07

     total cpu time spent up to now is     1942.6 secs

     total energy              =   -2053.39650804 Ry
     Harris-Foulkes estimate   =   -2062.65163347 Ry
     estimated scf accuracy    <     123.06177116 Ry

     total magnetization       =    15.00 Bohr mag/cell
     absolute magnetization    =    16.59 Bohr mag/cell

     iteration #  6     ecut=    40.00 Ry     beta=0.70
     Davidson diagonalization with overlap
     ethr =  7.67E-03,  avg # of iterations =  3.0

     total cpu time spent up to now is     2216.8 secs

     total energy              =   -2057.00468830 Ry
     Harris-Foulkes estimate   =   -2061.42684656 Ry
     estimated scf accuracy    <      51.82071699 Ry

     total magnetization       =    15.00 Bohr mag/cell
     absolute magnetization    =    19.33 Bohr mag/cell

     iteration #  7     ecut=    40.00 Ry     beta=0.70
     Davidson diagonalization with overlap
     ethr =  7.67E-03,  avg # of iterations =  1.0

     total cpu time spent up to now is     2469.0 secs

     total energy              =   -2058.42254576 Ry
     Harris-Foulkes estimate   =   -2060.49930302 Ry
     estimated scf accuracy    <      16.09714789 Ry

     total magnetization       =    15.00 Bohr mag/cell
     absolute magnetization    =    18.37 Bohr mag/cell

     iteration #  8     ecut=    40.00 Ry     beta=0.70
     Davidson diagonalization with overlap
     ethr =  6.79E-03,  avg # of iterations =  1.0

     total cpu time spent up to now is     2705.9 secs

     total energy              =   -2058.81842473 Ry
     Harris-Foulkes estimate   =   -2059.84174418 Ry
     estimated scf accuracy    <       7.24532383 Ry

     total magnetization       =    15.00 Bohr mag/cell
     absolute magnetization    =    17.46 Bohr mag/cell

     iteration #  9     ecut=    40.00 Ry     beta=0.70
     Davidson diagonalization with overlap
     ethr =  3.06E-03,  avg # of iterations =  1.0

     total cpu time spent up to now is     2943.4 secs

     total energy              =   -2059.01263498 Ry
     Harris-Foulkes estimate   =   -2059.64931291 Ry
     estimated scf accuracy    <       4.68266146 Ry

     total magnetization       =    15.00 Bohr mag/cell
     absolute magnetization    =    17.76 Bohr mag/cell

     iteration # 10     ecut=    40.00 Ry     beta=0.70
     Davidson diagonalization with overlap
     ethr =  1.98E-03,  avg # of iterations =  1.0

     total cpu time spent up to now is     3185.7 secs

     total energy              =   -2059.13645651 Ry
     Harris-Foulkes estimate   =   -2059.41126836 Ry
     estimated scf accuracy    <       1.76903451 Ry

     total magnetization       =    15.00 Bohr mag/cell
     absolute magnetization    =    17.40 Bohr mag/cell

     iteration # 11     ecut=    40.00 Ry     beta=0.70
     Davidson diagonalization with overlap
     ethr =  7.46E-04,  avg # of iterations =  3.4

     negative rho (up, down):  0.572E-06 0.000E+00

     total cpu time spent up to now is     3442.3 secs

     total energy              =   -2058.91719511 Ry
     Harris-Foulkes estimate   =   -2059.38719251 Ry
     estimated scf accuracy    <       1.58157393 Ry

     total magnetization       =    15.00 Bohr mag/cell
     absolute magnetization    =    17.71 Bohr mag/cell

     iteration # 12     ecut=    40.00 Ry     beta=0.70
     Davidson diagonalization with overlap
     ethr =  6.67E-04,  avg # of iterations =  6.8

     negative rho (up, down):  0.215E-03 0.000E+00

     total cpu time spent up to now is     3795.8 secs

     total energy              =   -2058.58304565 Ry
     Harris-Foulkes estimate   =   -2059.47233884 Ry
     estimated scf accuracy    <       5.87446825 Ry

     total magnetization       =    15.00 Bohr mag/cell
     absolute magnetization    =    16.75 Bohr mag/cell

     iteration # 13     ecut=    40.00 Ry     beta=0.70
     Davidson diagonalization with overlap
     ethr =  6.67E-04,  avg # of iterations =  2.8

     negative rho (up, down):  0.195E-04 0.000E+00

     total cpu time spent up to now is     4050.2 secs

     total energy              =   -2058.89438337 Ry
     Harris-Foulkes estimate   =   -2059.27981449 Ry
     estimated scf accuracy    <       2.25257132 Ry

     total magnetization       =    15.00 Bohr mag/cell
     absolute magnetization    =    17.03 Bohr mag/cell

     iteration # 14     ecut=    40.00 Ry     beta=0.70
     Davidson diagonalization with overlap
     ethr =  6.67E-04,  avg # of iterations =  1.8

     negative rho (up, down):  0.640E-04 0.119E-07

     total cpu time spent up to now is     4296.6 secs

     total energy              =   -2058.93351217 Ry
     Harris-Foulkes estimate   =   -2059.22862976 Ry
     estimated scf accuracy    <       1.70776033 Ry

     total magnetization       =    15.00 Bohr mag/cell
     absolute magnetization    =    17.83 Bohr mag/cell

     iteration # 15     ecut=    40.00 Ry     beta=0.70
     Davidson diagonalization with overlap
     ethr =  6.67E-04,  avg # of iterations =  1.1

     negative rho (up, down):  0.574E-03 0.200E-06

     total cpu time spent up to now is     4530.4 secs

     total energy              =   -2059.04804201 Ry
     Harris-Foulkes estimate   =   -2059.16881076 Ry
     estimated scf accuracy    <       0.87475813 Ry

     total magnetization       =    15.00 Bohr mag/cell
     absolute magnetization    =    17.19 Bohr mag/cell

     iteration # 16     ecut=    40.00 Ry     beta=0.70
     Davidson diagonalization with overlap
     ethr =  3.69E-04,  avg # of iterations =  1.0

     negative rho (up, down):  0.294E-02 0.518E-04

     total cpu time spent up to now is     4775.7 secs

     total energy              =   -2059.05290205 Ry
     Harris-Foulkes estimate   =   -2059.15714348 Ry
     estimated scf accuracy    <       0.76183879 Ry

     total magnetization       =    15.00 Bohr mag/cell
     absolute magnetization    =    17.36 Bohr mag/cell

     iteration # 17     ecut=    40.00 Ry     beta=0.70
     Davidson diagonalization with overlap
     ethr =  3.21E-04,  avg # of iterations =  1.7

     negative rho (up, down):  0.284E-02 0.249E-04

     total cpu time spent up to now is     5032.6 secs

     total energy              =   -2059.02172287 Ry
     Harris-Foulkes estimate   =   -2059.18417903 Ry
     estimated scf accuracy    <       1.89642831 Ry

     total magnetization       =    15.00 Bohr mag/cell
     absolute magnetization    =    17.09 Bohr mag/cell

     iteration # 18     ecut=    40.00 Ry     beta=0.70
     Davidson diagonalization with overlap
     ethr =  3.21E-04,  avg # of iterations =  1.1

     negative rho (up, down):  0.245E-02 0.485E-04

     total cpu time spent up to now is     5293.0 secs

     total energy              =   -2059.06127767 Ry
     Harris-Foulkes estimate   =   -2059.15413038 Ry
     estimated scf accuracy    <       1.05427904 Ry

     total magnetization       =    15.00 Bohr mag/cell
     absolute magnetization    =    17.91 Bohr mag/cell

     iteration # 19     ecut=    40.00 Ry     beta=0.70
     Davidson diagonalization with overlap
     ethr =  3.21E-04,  avg # of iterations =  1.0

     negative rho (up, down):  0.225E-02 0.908E-04

     total cpu time spent up to now is     5542.4 secs

     total energy              =   -2059.09860593 Ry
     Harris-Foulkes estimate   =   -2059.12943414 Ry
     estimated scf accuracy    <       0.30351209 Ry

     total magnetization       =    15.00 Bohr mag/cell
     absolute magnetization    =    17.32 Bohr mag/cell

     iteration # 20     ecut=    40.00 Ry     beta=0.70
     Davidson diagonalization with overlap
     ethr =  1.28E-04,  avg # of iterations =  1.0

     negative rho (up, down):  0.231E-02 0.111E-03

     total cpu time spent up to now is     5791.3 secs

     total energy              =   -2059.10899864 Ry
     Harris-Foulkes estimate   =   -2059.11803662 Ry
     estimated scf accuracy    <       0.07929339 Ry

     total magnetization       =    15.00 Bohr mag/cell
     absolute magnetization    =    17.37 Bohr mag/cell

     iteration # 21     ecut=    40.00 Ry     beta=0.70
     Davidson diagonalization with overlap
     ethr =  3.35E-05,  avg # of iterations =  4.0

     negative rho (up, down):  0.367E-02 0.893E-03

     total cpu time spent up to now is     6071.7 secs

     total energy              =   -2059.10768084 Ry
     Harris-Foulkes estimate   =   -2059.11816166 Ry
     estimated scf accuracy    <       0.06257759 Ry

     total magnetization       =    15.00 Bohr mag/cell
     absolute magnetization    =    17.38 Bohr mag/cell

     iteration # 22     ecut=    40.00 Ry     beta=0.70
     Davidson diagonalization with overlap
     ethr =  2.64E-05,  avg # of iterations =  3.4

     negative rho (up, down):  0.319E-02 0.533E-03

     total cpu time spent up to now is     6351.6 secs

     total energy              =   -2059.10604798 Ry
     Harris-Foulkes estimate   =   -2059.11983880 Ry
     estimated scf accuracy    <       0.08908916 Ry

     total magnetization       =    15.00 Bohr mag/cell
     absolute magnetization    =    17.47 Bohr mag/cell

     iteration # 23     ecut=    40.00 Ry     beta=0.70
     Davidson diagonalization with overlap
     ethr =  2.64E-05,  avg # of iterations =  2.5

     negative rho (up, down):  0.412E-02 0.928E-03

     total cpu time spent up to now is     6607.4 secs

     total energy              =   -2059.09969368 Ry
     Harris-Foulkes estimate   =   -2059.12712884 Ry
     estimated scf accuracy    <       0.21343260 Ry

     total magnetization       =    15.00 Bohr mag/cell
     absolute magnetization    =    17.44 Bohr mag/cell

     iteration # 24     ecut=    40.00 Ry     beta=0.70
     Davidson diagonalization with overlap
     ethr =  2.64E-05,  avg # of iterations =  4.2

     negative rho (up, down):  0.399E-02 0.945E-03

     total cpu time spent up to now is     6876.9 secs

     total energy              =   -2059.10113292 Ry
     Harris-Foulkes estimate   =   -2059.12916714 Ry
     estimated scf accuracy    <       0.24320910 Ry

     total magnetization       =    15.00 Bohr mag/cell
     absolute magnetization    =    17.74 Bohr mag/cell

     iteration # 25     ecut=    40.00 Ry     beta=0.70
     Davidson diagonalization with overlap
     ethr =  2.64E-05,  avg # of iterations =  3.0

     negative rho (up, down):  0.381E-02 0.108E-02

     total cpu time spent up to now is     7134.9 secs

     total energy              =   -2059.11254081 Ry
     Harris-Foulkes estimate   =   -2059.11621165 Ry
     estimated scf accuracy    <       0.03185356 Ry

     total magnetization       =    15.00 Bohr mag/cell
     absolute magnetization    =    17.45 Bohr mag/cell

     iteration # 26     ecut=    40.00 Ry     beta=0.70
     Davidson diagonalization with overlap
     ethr =  1.34E-05,  avg # of iterations =  2.6

     negative rho (up, down):  0.396E-02 0.120E-02

     total cpu time spent up to now is     7390.2 secs

     total energy              =   -2059.11277698 Ry
     Harris-Foulkes estimate   =   -2059.11598722 Ry
     estimated scf accuracy    <       0.02201495 Ry

     total magnetization       =    15.00 Bohr mag/cell
     absolute magnetization    =    17.53 Bohr mag/cell

     iteration # 27     ecut=    40.00 Ry     beta=0.70
     Davidson diagonalization with overlap
     ethr =  9.29E-06,  avg # of iterations =  3.0

     negative rho (up, down):  0.428E-02 0.127E-02

     total cpu time spent up to now is     7637.3 secs

     total energy              =   -2059.10764273 Ry
     Harris-Foulkes estimate   =   -2059.12034088 Ry
     estimated scf accuracy    <       0.13733099 Ry

     total magnetization       =    15.00 Bohr mag/cell
     absolute magnetization    =    17.40 Bohr mag/cell

     iteration # 28     ecut=    40.00 Ry     beta=0.70
     Davidson diagonalization with overlap
     ethr =  9.29E-06,  avg # of iterations =  4.0

     negative rho (up, down):  0.456E-02 0.135E-02

     total cpu time spent up to now is     7899.8 secs

     total energy              =   -2059.10687690 Ry
     Harris-Foulkes estimate   =   -2059.12254048 Ry
     estimated scf accuracy    <       0.22549925 Ry

     total magnetization       =    15.00 Bohr mag/cell
     absolute magnetization    =    17.69 Bohr mag/cell

     iteration # 29     ecut=    40.00 Ry     beta=0.70
     Davidson diagonalization with overlap
     ethr =  9.29E-06,  avg # of iterations =  2.5

     negative rho (up, down):  0.412E-02 0.135E-02

     total cpu time spent up to now is     8147.5 secs

     total energy              =   -2059.11423177 Ry
     Harris-Foulkes estimate   =   -2059.11510003 Ry
     estimated scf accuracy    <       0.00611032 Ry

     total magnetization       =    15.00 Bohr mag/cell
     absolute magnetization    =    17.54 Bohr mag/cell

     iteration # 30     ecut=    40.00 Ry     beta=0.70
     Davidson diagonalization with overlap
     ethr =  2.58E-06,  avg # of iterations =  3.5

     negative rho (up, down):  0.423E-02 0.150E-02

     total cpu time spent up to now is     8420.9 secs

     total energy              =   -2059.11472542 Ry
     Harris-Foulkes estimate   =   -2059.11485575 Ry
     estimated scf accuracy    <       0.00171299 Ry

     total magnetization       =    15.00 Bohr mag/cell
     absolute magnetization    =    17.53 Bohr mag/cell

     iteration # 31     ecut=    40.00 Ry     beta=0.70
     Davidson diagonalization with overlap
     ethr =  7.23E-07,  avg # of iterations =  2.5

     negative rho (up, down):  0.428E-02 0.154E-02

     total cpu time spent up to now is     8687.7 secs

     total energy              =   -2059.11463322 Ry
     Harris-Foulkes estimate   =   -2059.11500571 Ry
     estimated scf accuracy    <       0.00212791 Ry

     total magnetization       =    15.00 Bohr mag/cell
     absolute magnetization    =    17.52 Bohr mag/cell

     iteration # 32     ecut=    40.00 Ry     beta=0.70
     Davidson diagonalization with overlap
     ethr =  7.23E-07,  avg # of iterations =  1.0

     negative rho (up, down):  0.432E-02 0.156E-02

     total cpu time spent up to now is     8925.8 secs

     total energy              =   -2059.11459660 Ry
     Harris-Foulkes estimate   =   -2059.11511045 Ry
     estimated scf accuracy    <       0.00396701 Ry

     total magnetization       =    15.00 Bohr mag/cell
     absolute magnetization    =    17.54 Bohr mag/cell

     iteration # 33     ecut=    40.00 Ry     beta=0.70
     Davidson diagonalization with overlap
     ethr =  7.23E-07,  avg # of iterations =  1.1

     negative rho (up, down):  0.433E-02 0.157E-02

     total cpu time spent up to now is     9174.7 secs

     total energy              =   -2059.11458242 Ry
     Harris-Foulkes estimate   =   -2059.11512197 Ry
     estimated scf accuracy    <       0.00440175 Ry

     total magnetization       =    15.00 Bohr mag/cell
     absolute magnetization    =    17.55 Bohr mag/cell

     iteration # 34     ecut=    40.00 Ry     beta=0.70
     Davidson diagonalization with overlap
     ethr =  7.23E-07,  avg # of iterations =  1.3

     negative rho (up, down):  0.433E-02 0.158E-02

     total cpu time spent up to now is     9419.5 secs

     total energy              =   -2059.11472219 Ry
     Harris-Foulkes estimate   =   -2059.11500597 Ry
     estimated scf accuracy    <       0.00243862 Ry

     total magnetization       =    15.00 Bohr mag/cell
     absolute magnetization    =    17.52 Bohr mag/cell

     iteration # 35     ecut=    40.00 Ry     beta=0.70
     Davidson diagonalization with overlap
     ethr =  7.23E-07,  avg # of iterations =  1.0

     negative rho (up, down):  0.434E-02 0.159E-02

     total cpu time spent up to now is     9667.2 secs

     total energy              =   -2059.11484047 Ry
     Harris-Foulkes estimate   =   -2059.11491180 Ry
     estimated scf accuracy    <       0.00048023 Ry

     total magnetization       =    15.00 Bohr mag/cell
     absolute magnetization    =    17.55 Bohr mag/cell

     iteration # 36     ecut=    40.00 Ry     beta=0.70
     Davidson diagonalization with overlap
     ethr =  2.03E-07,  avg # of iterations =  1.1

     negative rho (up, down):  0.438E-02 0.161E-02

     total cpu time spent up to now is     9930.8 secs

     total energy              =   -2059.11469322 Ry
     Harris-Foulkes estimate   =   -2059.11509095 Ry
     estimated scf accuracy    <       0.00341718 Ry

     total magnetization       =    15.00 Bohr mag/cell
     absolute magnetization    =    17.54 Bohr mag/cell

     iteration # 37     ecut=    40.00 Ry     beta=0.70
     Davidson diagonalization with overlap
     ethr =  2.03E-07,  avg # of iterations =  1.1

     negative rho (up, down):  0.440E-02 0.163E-02

     total cpu time spent up to now is    10200.6 secs

     total energy              =   -2059.11488306 Ry
     Harris-Foulkes estimate   =   -2059.11492675 Ry
     estimated scf accuracy    <       0.00048486 Ry

     total magnetization       =    15.00 Bohr mag/cell
     absolute magnetization    =    17.55 Bohr mag/cell

     iteration # 38     ecut=    40.00 Ry     beta=0.70
     Davidson diagonalization with overlap
     ethr =  2.03E-07,  avg # of iterations =  1.0

     negative rho (up, down):  0.439E-02 0.162E-02

     total cpu time spent up to now is    10475.4 secs

     total energy              =   -2059.11489565 Ry
     Harris-Foulkes estimate   =   -2059.11491701 Ry
     estimated scf accuracy    <       0.00013249 Ry

     total magnetization       =    15.00 Bohr mag/cell
     absolute magnetization    =    17.55 Bohr mag/cell

     iteration # 39     ecut=    40.00 Ry     beta=0.70
     Davidson diagonalization with overlap
     ethr =  5.59E-08,  avg # of iterations =  1.0

     negative rho (up, down):  0.438E-02 0.162E-02

     total cpu time spent up to now is    10732.2 secs

     total energy              =   -2059.11486833 Ry
     Harris-Foulkes estimate   =   -2059.11494357 Ry
     estimated scf accuracy    <       0.00063612 Ry

     total magnetization       =    15.00 Bohr mag/cell
     absolute magnetization    =    17.55 Bohr mag/cell

     iteration # 40     ecut=    40.00 Ry     beta=0.70
     Davidson diagonalization with overlap
     ethr =  5.59E-08,  avg # of iterations =  1.5

     negative rho (up, down):  0.439E-02 0.162E-02

     total cpu time spent up to now is    10975.4 secs

     total energy              =   -2059.11484588 Ry
     Harris-Foulkes estimate   =   -2059.11496768 Ry
     estimated scf accuracy    <       0.00128119 Ry

     total magnetization       =    15.00 Bohr mag/cell
     absolute magnetization    =    17.56 Bohr mag/cell

     iteration # 41     ecut=    40.00 Ry     beta=0.70
     Davidson diagonalization with overlap
     ethr =  5.59E-08,  avg # of iterations =  1.4

     negative rho (up, down):  0.438E-02 0.162E-02

     total cpu time spent up to now is    11212.5 secs

     total energy              =   -2059.11489577 Ry
     Harris-Foulkes estimate   =   -2059.11492600 Ry
     estimated scf accuracy    <       0.00028594 Ry

     total magnetization       =    15.00 Bohr mag/cell
     absolute magnetization    =    17.54 Bohr mag/cell

     iteration # 42     ecut=    40.00 Ry     beta=0.70
     Davidson diagonalization with overlap
     ethr =  5.59E-08,  avg # of iterations =  1.0

     negative rho (up, down):  0.439E-02 0.163E-02

     total cpu time spent up to now is    11449.4 secs

     total energy              =   -2059.11490927 Ry
     Harris-Foulkes estimate   =   -2059.11491394 Ry
     estimated scf accuracy    <       0.00004508 Ry

     total magnetization       =    15.00 Bohr mag/cell
     absolute magnetization    =    17.55 Bohr mag/cell

     iteration # 43     ecut=    40.00 Ry     beta=0.70
     Davidson diagonalization with overlap
     ethr =  1.90E-08,  avg # of iterations =  1.0

     negative rho (up, down):  0.439E-02 0.163E-02

     total cpu time spent up to now is    11686.2 secs

     total energy              =   -2059.11490997 Ry
     Harris-Foulkes estimate   =   -2059.11491785 Ry
     estimated scf accuracy    <       0.00008076 Ry

     total magnetization       =    15.00 Bohr mag/cell
     absolute magnetization    =    17.55 Bohr mag/cell

     iteration # 44     ecut=    40.00 Ry     beta=0.70
     Davidson diagonalization with overlap
     ethr =  1.90E-08,  avg # of iterations =  1.0

     negative rho (up, down):  0.439E-02 0.162E-02

     total cpu time spent up to now is    11923.5 secs

     total energy              =   -2059.11490731 Ry
     Harris-Foulkes estimate   =   -2059.11491498 Ry
     estimated scf accuracy    <       0.00002448 Ry

     total magnetization       =    15.00 Bohr mag/cell
     absolute magnetization    =    17.55 Bohr mag/cell

     iteration # 45     ecut=    40.00 Ry     beta=0.70
     Davidson diagonalization with overlap
     ethr =  1.03E-08,  avg # of iterations =  1.9

     negative rho (up, down):  0.439E-02 0.162E-02

     total cpu time spent up to now is    12163.8 secs

     total energy              =   -2059.11487899 Ry
     Harris-Foulkes estimate   =   -2059.11494468 Ry
     estimated scf accuracy    <       0.00060651 Ry

     total magnetization       =    15.00 Bohr mag/cell
     absolute magnetization    =    17.54 Bohr mag/cell

     iteration # 46     ecut=    40.00 Ry     beta=0.70
     Davidson diagonalization with overlap
     ethr =  1.03E-08,  avg # of iterations =  1.5

     negative rho (up, down):  0.439E-02 0.162E-02

     total cpu time spent up to now is    12410.4 secs

     total energy              =   -2059.11490612 Ry
     Harris-Foulkes estimate   =   -2059.11492119 Ry
     estimated scf accuracy    <       0.00013010 Ry

     total magnetization       =    15.00 Bohr mag/cell
     absolute magnetization    =    17.55 Bohr mag/cell

     iteration # 47     ecut=    40.00 Ry     beta=0.70
     Davidson diagonalization with overlap
     ethr =  1.03E-08,  avg # of iterations =  1.0

     negative rho (up, down):  0.439E-02 0.163E-02

     total cpu time spent up to now is    12646.9 secs

     total energy              =   -2059.11491336 Ry
     Harris-Foulkes estimate   =   -2059.11491458 Ry
     estimated scf accuracy    <       0.00001877 Ry

     total magnetization       =    15.00 Bohr mag/cell
     absolute magnetization    =    17.55 Bohr mag/cell

     iteration # 48     ecut=    40.00 Ry     beta=0.70
     Davidson diagonalization with overlap
     ethr =  7.92E-09,  avg # of iterations =  1.0

     negative rho (up, down):  0.439E-02 0.162E-02

     total cpu time spent up to now is    12885.4 secs

     total energy              =   -2059.11491211 Ry
     Harris-Foulkes estimate   =   -2059.11491636 Ry
     estimated scf accuracy    <       0.00004712 Ry

     total magnetization       =    15.00 Bohr mag/cell
     absolute magnetization    =    17.55 Bohr mag/cell

     iteration # 49     ecut=    40.00 Ry     beta=0.70
     Davidson diagonalization with overlap
     ethr =  7.92E-09,  avg # of iterations =  1.0

     negative rho (up, down):  0.439E-02 0.162E-02

     total cpu time spent up to now is    13125.8 secs

     total energy              =   -2059.11491377 Ry
     Harris-Foulkes estimate   =   -2059.11491469 Ry
     estimated scf accuracy    <       0.00000734 Ry

     total magnetization       =    15.00 Bohr mag/cell
     absolute magnetization    =    17.55 Bohr mag/cell

     iteration # 50     ecut=    40.00 Ry     beta=0.70
     Davidson diagonalization with overlap
     ethr =  3.10E-09,  avg # of iterations =  1.0

     negative rho (up, down):  0.439E-02 0.162E-02

     total cpu time spent up to now is    13379.6 secs

     total energy              =   -2059.11491411 Ry
     Harris-Foulkes estimate   =   -2059.11491467 Ry
     estimated scf accuracy    <       0.00000736 Ry

     total magnetization       =    15.00 Bohr mag/cell
     absolute magnetization    =    17.55 Bohr mag/cell

     iteration # 51     ecut=    40.00 Ry     beta=0.70
     Davidson diagonalization with overlap
     ethr =  3.10E-09,  avg # of iterations =  1.0

     negative rho (up, down):  0.439E-02 0.162E-02

     total cpu time spent up to now is    13641.2 secs

     total energy              =   -2059.11491441 Ry
     Harris-Foulkes estimate   =   -2059.11491466 Ry
     estimated scf accuracy    <       0.00000466 Ry

     total magnetization       =    15.00 Bohr mag/cell
     absolute magnetization    =    17.55 Bohr mag/cell

     iteration # 52     ecut=    40.00 Ry     beta=0.70
     Davidson diagonalization with overlap
     ethr =  1.97E-09,  avg # of iterations =  1.0

     negative rho (up, down):  0.439E-02 0.162E-02

     total cpu time spent up to now is    13895.3 secs

     total energy              =   -2059.11491424 Ry
     Harris-Foulkes estimate   =   -2059.11491475 Ry
     estimated scf accuracy    <       0.00000299 Ry

     total magnetization       =    15.00 Bohr mag/cell
     absolute magnetization    =    17.54 Bohr mag/cell

     iteration # 53     ecut=    40.00 Ry     beta=0.70
     Davidson diagonalization with overlap
     ethr =  1.26E-09,  avg # of iterations =  1.1

     negative rho (up, down):  0.439E-02 0.162E-02

     total cpu time spent up to now is    14137.5 secs

     total energy              =   -2059.11491305 Ry
     Harris-Foulkes estimate   =   -2059.11491601 Ry
     estimated scf accuracy    <       0.00002657 Ry

     total magnetization       =    15.00 Bohr mag/cell
     absolute magnetization    =    17.55 Bohr mag/cell

     iteration # 54     ecut=    40.00 Ry     beta=0.70
     Davidson diagonalization with overlap
     ethr =  1.26E-09,  avg # of iterations =  1.3

     negative rho (up, down):  0.439E-02 0.162E-02

     total cpu time spent up to now is    14392.5 secs

     total energy              =   -2059.11491421 Ry
     Harris-Foulkes estimate   =   -2059.11491499 Ry
     estimated scf accuracy    <       0.00000518 Ry

     total magnetization       =    15.00 Bohr mag/cell
     absolute magnetization    =    17.55 Bohr mag/cell

     iteration # 55     ecut=    40.00 Ry     beta=0.70
     Davidson diagonalization with overlap
     ethr =  1.26E-09,  avg # of iterations =  1.4

     negative rho (up, down):  0.439E-02 0.162E-02

     total cpu time spent up to now is    14663.4 secs

     total energy              =   -2059.11491264 Ry
     Harris-Foulkes estimate   =   -2059.11491679 Ry
     estimated scf accuracy    <       0.00003797 Ry

     total magnetization       =    15.00 Bohr mag/cell
     absolute magnetization    =    17.54 Bohr mag/cell

     iteration # 56     ecut=    40.00 Ry     beta=0.70
     Davidson diagonalization with overlap
     ethr =  1.26E-09,  avg # of iterations =  1.4

     negative rho (up, down):  0.439E-02 0.162E-02

     total cpu time spent up to now is    14918.3 secs

     total energy              =   -2059.11491449 Ry
     Harris-Foulkes estimate   =   -2059.11491483 Ry
     estimated scf accuracy    <       0.00000131 Ry

     total magnetization       =    15.00 Bohr mag/cell
     absolute magnetization    =    17.55 Bohr mag/cell

     iteration # 57     ecut=    40.00 Ry     beta=0.70
     Davidson diagonalization with overlap
     ethr =  5.54E-10,  avg # of iterations =  1.9

     negative rho (up, down):  0.439E-02 0.162E-02

     total cpu time spent up to now is    15189.0 secs

     total energy              =   -2059.11491259 Ry
     Harris-Foulkes estimate   =   -2059.11491684 Ry
     estimated scf accuracy    <       0.00004625 Ry

     total magnetization       =    15.00 Bohr mag/cell
     absolute magnetization    =    17.54 Bohr mag/cell

     iteration # 58     ecut=    40.00 Ry     beta=0.70
     Davidson diagonalization with overlap
     ethr =  5.54E-10,  avg # of iterations =  1.5

     negative rho (up, down):  0.439E-02 0.162E-02

     total cpu time spent up to now is    15458.8 secs

     total energy              =   -2059.11491473 Ry
     Harris-Foulkes estimate   =   -2059.11491488 Ry
     estimated scf accuracy    <       0.00000237 Ry

     total magnetization       =    15.00 Bohr mag/cell
     absolute magnetization    =    17.55 Bohr mag/cell

     iteration # 59     ecut=    40.00 Ry     beta=0.70
     Davidson diagonalization with overlap
     ethr =  5.54E-10,  avg # of iterations =  1.0

     negative rho (up, down):  0.439E-02 0.162E-02

     total cpu time spent up to now is    15732.1 secs

     total energy              =   -2059.11491476 Ry
     Harris-Foulkes estimate   =   -2059.11491488 Ry
     estimated scf accuracy    <       0.00000111 Ry

     total magnetization       =    15.00 Bohr mag/cell
     absolute magnetization    =    17.54 Bohr mag/cell

     iteration # 60     ecut=    40.00 Ry     beta=0.70
     Davidson diagonalization with overlap
     ethr =  4.66E-10,  avg # of iterations =  1.0

     negative rho (up, down):  0.439E-02 0.162E-02

     total cpu time spent up to now is    15993.3 secs

     total energy              =   -2059.11491474 Ry
     Harris-Foulkes estimate   =   -2059.11491490 Ry
     estimated scf accuracy    <       0.00000187 Ry

     total magnetization       =    15.00 Bohr mag/cell
     absolute magnetization    =    17.54 Bohr mag/cell

     iteration # 61     ecut=    40.00 Ry     beta=0.70
     Davidson diagonalization with overlap
     ethr =  4.66E-10,  avg # of iterations =  1.0

     negative rho (up, down):  0.439E-02 0.162E-02

     total cpu time spent up to now is    16257.8 secs

     End of self-consistent calculation
 --- enter write_ns ---
 LDA+U parameters:
U( 2)     =  0.00000000
alpha( 2) =  0.00000000
atom    3   Tr[ns(na)] (up, down, total) =   3.44207  1.26688  4.70896
   spin  1
    eigenvalues: 
  0.461  0.506  0.672  0.840  0.964
    eigenvectors:
  0.006  0.223  0.001  0.000  0.770
  0.985  0.014  0.000  0.000  0.000
  0.000  0.000  0.966  0.032  0.002
  0.009  0.763  0.001  0.000  0.227
  0.000  0.000  0.032  0.968  0.000
    occupations:
  0.858 -0.012  0.012 -0.192 -0.003
 -0.012  0.462 -0.002  0.000 -0.005
  0.012 -0.002  0.678 -0.005  0.029
 -0.192  0.000 -0.005  0.609 -0.001
 -0.003 -0.005  0.029 -0.001  0.835
   spin  2
    eigenvalues: 
  0.133  0.164  0.203  0.373  0.393
    eigenvectors:
  0.767  0.000  0.011  0.028  0.193
  0.000  0.003  0.000  0.884  0.113
  0.012  0.036  0.951  0.000  0.001
  0.221  0.000  0.001  0.085  0.693
  0.000  0.960  0.036  0.003  0.000
    occupations:
  0.191 -0.001 -0.004  0.107  0.001
 -0.001  0.374  0.001 -0.007  0.011
 -0.004  0.001  0.201  0.008 -0.007
  0.107 -0.007  0.008  0.334 -0.001
  0.001  0.011 -0.007 -0.001  0.166
atomic mag. moment =     2.175191
atom    4   Tr[ns(na)] (up, down, total) =   3.36294  1.34997  4.71290
   spin  1
    eigenvalues: 
  0.478  0.518  0.595  0.804  0.968
    eigenvectors:
  0.001  0.994  0.000  0.001  0.003
  0.000  0.001  0.017  0.981  0.000
  0.000  0.000  0.983  0.017  0.000
  0.000  0.003  0.000  0.000  0.997
  0.999  0.001  0.000  0.000  0.000
    occupations:
  0.520 -0.011 -0.001  0.026  0.001
 -0.011  0.800  0.027  0.002  0.000
 -0.001  0.027  0.598  0.001 -0.001
  0.026  0.002  0.001  0.966 -0.000
  0.001  0.000 -0.001 -0.000  0.478
   spin  2
    eigenvalues: 
  0.134  0.180  0.235  0.389  0.412
    eigenvectors:
  0.002  0.005  0.000  0.001  0.992
  0.001  0.956  0.038  0.000  0.005
  0.000  0.037  0.962  0.000  0.000
  0.996  0.002  0.000  0.000  0.002
  0.000  0.000  0.000  0.999  0.001
    occupations:
  0.410  0.016  0.004 -0.013  0.001
  0.016  0.183 -0.010  0.001 -0.000
  0.004 -0.010  0.233  0.001 -0.000
 -0.013  0.001  0.001  0.135  0.000
  0.001 -0.000 -0.000  0.000  0.389
atomic mag. moment =     2.012970
atom    9   Tr[ns(na)] (up, down, total) =   3.35929  1.39436  4.75365
   spin  1
    eigenvalues: 
  0.494  0.506  0.622  0.774  0.964
    eigenvectors:
  0.004  0.162  0.000  0.000  0.834
  0.979  0.021  0.000  0.000  0.000
  0.000  0.001  0.987  0.012  0.000
  0.017  0.816  0.001  0.000  0.166
  0.000  0.000  0.012  0.988  0.000
    occupations:
  0.888  0.002 -0.001 -0.171 -0.001
  0.002  0.494  0.002  0.001  0.000
 -0.001  0.002  0.624 -0.005 -0.016
 -0.171  0.001 -0.005  0.582  0.003
 -0.001  0.000 -0.016  0.003  0.772
   spin  2
    eigenvalues: 
  0.161  0.204  0.223  0.400  0.406
    eigenvectors:
  0.824  0.000  0.000  0.175  0.000
  0.000  0.000  0.000  0.002  0.998
  0.000  0.022  0.978  0.000  0.000
  0.176  0.000  0.000  0.822  0.002
  0.000  0.978  0.022  0.000  0.000
    occupations:
  0.203  0.001  0.002  0.091 -0.000
  0.001  0.406 -0.000 -0.001  0.000
  0.002 -0.000  0.223  0.003  0.003
  0.091 -0.001  0.003  0.358 -0.000
 -0.000  0.000  0.003 -0.000  0.205
atomic mag. moment =     1.964922
atom   10   Tr[ns(na)] (up, down, total) =   3.49223  1.20515  4.69738
   spin  1
    eigenvalues: 
  0.469  0.502  0.696  0.857  0.969
    eigenvectors:
  0.000  0.996  0.000  0.000  0.003
  0.001  0.000  0.000  0.966  0.033
  0.000  0.000  1.000  0.000  0.000
  0.000  0.003  0.000  0.033  0.963
  0.999  0.000  0.000  0.001  0.000
    occupations:
  0.503 -0.002  0.002  0.027  0.000
 -0.002  0.861 -0.001 -0.020 -0.009
  0.002 -0.001  0.696  0.001  0.003
  0.027 -0.020  0.001  0.963  0.000
  0.000 -0.009  0.003  0.000  0.469
   spin  2
    eigenvalues: 
  0.125  0.186  0.200  0.320  0.374
    eigenvectors:
  0.004  0.000  0.000  0.996  0.000
  0.001  0.997  0.001  0.000  0.000
  0.000  0.001  0.998  0.000  0.000
  0.994  0.001  0.000  0.004  0.000
  0.000  0.000  0.000  0.000  0.999
    occupations:
  0.319  0.000 -0.002 -0.013  0.000
  0.000  0.186 -0.000  0.002  0.004
 -0.002 -0.000  0.201 -0.001  0.003
 -0.013  0.002 -0.001  0.126 -0.000
  0.000  0.004  0.003 -0.000  0.374
atomic mag. moment =     2.287087
atom   16   Tr[ns(na)] (up, down, total) =   3.43511  1.27385  4.70896
   spin  1
    eigenvalues: 
  0.461  0.507  0.669  0.835  0.963
    eigenvectors:
  0.006  0.224  0.001  0.000  0.769
  0.986  0.014  0.000  0.000  0.000
  0.000  0.000  0.956  0.042  0.002
  0.009  0.762  0.001  0.000  0.228
  0.000  0.000  0.042  0.958  0.000
    occupations:
  0.858  0.012  0.012 -0.192  0.002
  0.012  0.462  0.002 -0.000 -0.005
  0.012  0.002  0.677 -0.006 -0.033
 -0.192 -0.000 -0.006  0.611 -0.000
  0.002 -0.005 -0.033 -0.000  0.828
   spin  2
    eigenvalues: 
  0.134  0.166  0.205  0.374  0.395
    eigenvectors:
  0.768  0.000  0.011  0.029  0.192
  0.000  0.003  0.000  0.880  0.117
  0.011  0.045  0.943  0.000  0.000
  0.221  0.000  0.001  0.089  0.690
  0.000  0.952  0.045  0.003  0.000
    occupations:
  0.192  0.001 -0.004  0.107 -0.001
  0.001  0.376 -0.001  0.007  0.011
 -0.004 -0.001  0.202  0.007  0.008
  0.107  0.007  0.007  0.336  0.000
 -0.001  0.011  0.008  0.000  0.168
atomic mag. moment =     2.161260
atom   17   Tr[ns(na)] (up, down, total) =   3.36744  1.34228  4.70972
   spin  1
    eigenvalues: 
  0.478  0.519  0.611  0.793  0.966
    eigenvectors:
  0.001  0.995  0.001  0.001  0.003
  0.000  0.001  0.015  0.984  0.000
  0.001  0.001  0.984  0.014  0.000
  0.000  0.003  0.000  0.000  0.997
  0.999  0.001  0.001  0.000  0.000
    occupations:
  0.521 -0.010 -0.003  0.023  0.001
 -0.010  0.790  0.022  0.001 -0.000
 -0.003  0.022  0.614  0.001  0.003
  0.023  0.001  0.001  0.965 -0.000
  0.001 -0.000  0.003 -0.000  0.478
   spin  2
    eigenvalues: 
  0.134  0.179  0.233  0.386  0.411
    eigenvectors:
  0.002  0.006  0.000  0.000  0.991
  0.001  0.954  0.039  0.000  0.006
  0.000  0.039  0.961  0.000  0.000
  0.996  0.002  0.000  0.000  0.002
  0.000  0.000  0.000  1.000  0.000
    occupations:
  0.409  0.018  0.004 -0.013  0.001
  0.018  0.182 -0.010  0.001 -0.000
  0.004 -0.010  0.231  0.001 -0.000
 -0.013  0.001  0.001  0.134  0.000
  0.001 -0.000 -0.000  0.000  0.386
atomic mag. moment =     2.025154
atom   22   Tr[ns(na)] (up, down, total) =   2.88521  1.98406  4.86928
   spin  1
    eigenvalues: 
  0.505  0.527  0.543  0.612  0.698
    eigenvectors:
  0.952  0.001  0.047  0.000  0.000
  0.001  0.999  0.000  0.000  0.000
  0.000  0.000  0.000  0.020  0.980
  0.047  0.000  0.953  0.000  0.000
  0.000  0.000  0.000  0.980  0.020
    occupations:
  0.506 -0.001  0.001  0.008  0.000
 -0.001  0.527  0.001  0.000 -0.000
  0.001  0.001  0.696 -0.002  0.012
  0.008  0.000 -0.002  0.541 -0.000
  0.000 -0.000  0.012 -0.000  0.614
   spin  2
    eigenvalues: 
  0.301  0.359  0.369  0.475  0.480
    eigenvectors:
  0.000  0.004  0.995  0.000  0.000
  0.000  0.000  0.000  0.001  0.999
  0.997  0.003  0.000  0.000  0.000
  0.000  0.000  0.000  0.999  0.001
  0.003  0.992  0.004  0.000  0.000
    occupations:
  0.369 -0.002 -0.000  0.001 -0.001
 -0.002  0.480  0.000 -0.000  0.001
 -0.000  0.000  0.301  0.002 -0.003
  0.001 -0.000  0.002  0.475  0.001
 -0.001  0.001 -0.003  0.001  0.359
atomic mag. moment =     0.901150
atom   23   Tr[ns(na)] (up, down, total) =   3.41255  1.29277  4.70532
   spin  1
    eigenvalues: 
  0.470  0.496  0.643  0.858  0.946
    eigenvectors:
  0.000  0.995  0.005  0.000  0.000
  0.001  0.005  0.991  0.000  0.003
  0.000  0.000  0.000  0.999  0.000
  0.000  0.000  0.003  0.000  0.996
  0.999  0.000  0.001  0.000  0.000
    occupations:
  0.496  0.010  0.006 -0.004 -0.001
  0.010  0.643  0.001  0.018 -0.005
  0.006  0.001  0.858 -0.001 -0.006
 -0.004  0.018 -0.001  0.944 -0.001
 -0.001 -0.005 -0.006 -0.001  0.470
   spin  2
    eigenvalues: 
  0.130  0.152  0.246  0.379  0.386
    eigenvectors:
  0.002  0.000  0.000  0.994  0.004
  0.001  0.000  0.999  0.000  0.000
  0.007  0.993  0.000  0.000  0.000
  0.990  0.007  0.001  0.002  0.000
  0.000  0.000  0.000  0.004  0.996
    occupations:
  0.378  0.000  0.001 -0.011 -0.000
  0.000  0.246 -0.001 -0.004  0.001
  0.001 -0.001  0.152  0.002 -0.003
 -0.011 -0.004  0.002  0.131  0.000
 -0.000  0.001 -0.003  0.000  0.385
atomic mag. moment =     2.119778
N of occupied +U levels =  37.8661610
 --- exit write_ns ---

 ------ SPIN UP ------------


          k = 0.0000 0.0000 0.0000 ( 27003 PWs)   bands (ev):

   -74.8791 -74.6041 -74.4913 -74.4634 -74.4377 -74.4327 -74.4282 -74.4160
   -46.2808 -46.1614 -46.1548 -46.0945 -45.9251 -45.8694 -45.8476 -45.8353
   -45.8256 -45.8194 -45.8187 -45.8179 -45.7642 -45.7452 -45.7374 -45.7347
   -45.7258 -45.7253 -45.7109 -45.7018 -45.6980 -45.6675 -45.6507 -45.6407
   -23.8955 -20.8942 -20.4087 -20.1372 -20.0014 -19.9164 -19.4358 -19.3885
   -19.3054 -19.2696 -19.1383 -19.1218 -19.0075 -18.9601 -18.8294 -18.8114
   -18.7562 -18.6133 -18.5261 -17.3047  -9.0377  -8.7257  -8.4834  -8.3692
    -8.2152  -8.0935  -7.6165  -7.5063  -7.3914  -7.3367  -7.2769  -7.2149
    -7.1865  -7.1545  -7.0927  -6.6652  -6.5506  -6.5231  -6.4608  -6.4412
    -6.4030  -6.3506  -6.2497  -6.0736  -5.9890  -5.8233  -5.6478  -5.5879
    -5.3888  -5.2878  -5.1725  -4.9549  -4.8697  -4.8004  -4.6843  -4.5907
    -4.4544  -4.4050  -4.3407  -4.2780  -4.2427  -4.1469  -3.9556  -3.8499
    -3.8008  -3.6817  -3.5949  -3.5194  -3.4731  -3.4085  -3.3566  -3.2399
    -3.1364  -3.1129  -3.0120  -2.8463  -2.7365  -2.4934  -2.4126  -2.1340
    -2.1099  -2.0671  -2.0048  -1.9223  -1.7145  -1.6810  -1.5671  -1.5484
    -1.5071  -1.4401  -1.2746  -1.2005  -1.0301  -1.0024  -0.9057  -0.7256
    -0.6109  -0.5481  -0.4645  -0.4079  -0.1725  -0.0513   0.1114   0.2227
     0.9166   1.1315   1.3963   1.7810   1.8077   1.9702   2.0019   2.1161
     2.2386   2.2888   2.5615   2.6053   2.7698   2.7946   2.8739   3.1714
     3.5493   3.7071   3.8680   4.3522   4.9446   5.5665   6.0238   6.5027
     6.7842   7.0517   7.2340   7.3058   7.4596   7.4851   7.5027   7.6171
     7.6428   7.7589   7.8743   8.0785   8.1609   8.2121   8.2923   8.5311
     8.6796   8.7487   8.8878   8.9755   9.0430   9.2610   9.3891   9.4752
     9.6272   9.7819   9.8914   9.9271  10.0449  10.1155  10.1920  10.4544
    10.5078  10.6080  10.6362  10.8356  10.8477  10.9553  11.0076  11.0821
    11.1694  11.4265  11.4428  11.5284  11.6306  11.6911  11.7668  11.7895
    11.8559  11.9457  11.9862  12.0703  12.1247  12.1925  12.2158  12.2959
    12.3280  12.4308  12.4769  12.6375  12.6995  12.7925  12.8213  12.9231
    12.9810  13.0134  13.1469  13.2292  13.2728  13.3485  13.4696  13.5334
    13.5601  13.5695  13.6459  13.6881  13.7083  13.8736  13.9026  14.0737
    14.1871  14.3191  14.3319  14.4318  14.4522  14.4799  14.7814  14.8157
    14.9332  14.9920  15.0773  15.1219  15.1487  15.2355  15.2715  15.3344
    15.3695  15.5046  15.5866  15.7295  15.7530  15.8456  15.9500  16.1286
    16.2059  16.4810  16.5370  16.6715  16.6946  16.7593  16.8384  16.9220
    16.9938  17.0935  17.2642  17.3642  17.3912  17.4990  17.5973  17.6506
    17.6989  17.7500  17.8845  18.0227  18.1794  18.2695  18.3185  18.4265
    18.4516  18.5714  18.6201  18.7037  18.7869  18.9553  19.0370  19.0619
    19.1577  19.1868  19.2543  19.2814  19.4597  19.4652  19.5545  19.6349
    19.6777  19.7167  19.7461  19.7603  19.9505  19.9904  20.0555  20.1101
    20.1476  20.3511  20.3916  20.4961  20.5386  20.5805  20.6701  20.8053
    20.8495  20.9167  20.9522  21.0456  21.1466  21.2093  21.2271  21.3510
    21.3632  21.3804  21.4695  21.5545  21.5834  21.6295  21.6930  21.7400
    21.8322  21.9106  21.9208  22.0216  22.1523  22.1791  22.2411

          k = 0.0000 0.2341 0.0000 ( 27088 PWs)   bands (ev):

   -74.8791 -74.6041 -74.4913 -74.4633 -74.4377 -74.4328 -74.4282 -74.4160
   -46.2809 -46.1614 -46.1546 -46.0945 -45.9261 -45.8648 -45.8459 -45.8383
   -45.8302 -45.8260 -45.8188 -45.8049 -45.7641 -45.7452 -45.7384 -45.7352
   -45.7287 -45.7257 -45.7109 -45.7016 -45.6978 -45.6675 -45.6496 -45.6418
   -23.8951 -20.8185 -20.3080 -20.1338 -20.0515 -19.9003 -19.5210 -19.3990
   -19.3973 -19.3000 -19.1548 -19.1102 -18.9639 -18.9477 -18.9079 -18.8217
   -18.7145 -18.6223 -18.5222 -17.3025  -9.0183  -8.6837  -8.3071  -8.1717
    -8.0827  -8.0520  -7.8116  -7.5129  -7.4910  -7.3248  -7.2492  -7.1444
    -7.1248  -7.0450  -6.8305  -6.6860  -6.5904  -6.4614  -6.3908  -6.3828
    -6.2582  -6.2029  -6.1530  -6.0769  -5.9082  -5.8334  -5.6524  -5.5815
    -5.5026  -5.4476  -5.3115  -5.2264  -5.1412  -4.9836  -4.7835  -4.6051
    -4.5039  -4.4153  -4.3688  -4.3037  -4.1848  -4.1719  -4.0676  -3.9721
    -3.8875  -3.8219  -3.6671  -3.6037  -3.5459  -3.5156  -3.4297  -3.2493
    -3.1864  -3.1197  -3.0092  -2.9198  -2.7302  -2.2912  -2.2297  -2.1607
    -2.0469  -2.0011  -1.9124  -1.7551  -1.6859  -1.6018  -1.5600  -1.5451
    -1.5083  -1.4822  -1.4020  -1.3657  -1.2432  -0.9696  -0.9271  -0.6949
    -0.6257  -0.5305  -0.3465  -0.2376  -0.1346  -0.1073  -0.0713   0.3987
     0.9497   1.0890   1.0963   1.1521   1.6845   2.0441   2.2328   2.2752
     2.4112   2.6272   2.6496   2.7570   2.8170   2.9672   2.9759   3.1029
     3.7418   3.8482   4.0266   4.5698   5.1716   5.3329   5.6868   5.8310
     5.9994   6.3845   6.5992   7.1423   7.2685   7.4860   7.6602   7.6855
     7.8045   7.9540   8.1422   8.2730   8.3991   8.4612   8.7348   8.7890
     8.8994   8.9651   9.0486   9.2185   9.3868   9.4349   9.5081   9.5800
     9.6897   9.7307   9.8624  10.0228  10.1821  10.2073  10.2476  10.2882
    10.3000  10.4310  10.4682  10.6004  10.6305  10.7172  10.7901  10.9030
    10.9498  11.0320  11.1968  11.3846  11.4270  11.5207  11.6298  11.7268
    11.7819  11.8484  11.9186  11.9676  12.1291  12.1632  12.2692  12.5195
    12.5434  12.6634  12.7017  12.7265  12.8384  13.0538  13.1391  13.1630
    13.3112  13.3373  13.4062  13.5687  13.6484  13.7128  13.7441  13.8717
    13.9476  14.0523  14.1213  14.1717  14.2056  14.2234  14.3057  14.3778
    14.4728  14.5277  14.6025  14.6093  14.7111  14.8481  14.8818  14.9642
    15.0026  15.0586  15.1661  15.2049  15.2362  15.3279  15.3750  15.4580
    15.5037  15.5598  15.6441  15.7539  15.8195  15.8654  15.8975  15.9633
    16.0768  16.0966  16.1864  16.2576  16.4034  16.4754  16.5521  16.6895
    16.7846  16.8213  16.9223  17.0049  17.1330  17.1726  17.2436  17.2823
    17.4329  17.4993  17.5361  17.6879  17.7998  17.8836  18.0613  18.1179
    18.2429  18.3143  18.4059  18.4568  18.5802  18.7133  18.7461  18.7944
    18.8403  18.9779  19.0995  19.1768  19.2263  19.2569  19.3692  19.4198
    19.5675  19.6697  19.7416  19.7879  19.9375  19.9552  20.0470  20.1368
    20.1694  20.2535  20.2950  20.3887  20.4676  20.5215  20.5480  20.6294
    20.6442  20.7169  20.7626  20.8387  20.8886  20.9559  21.0268  21.0864
    21.1492  21.2344  21.3176  21.3680  21.4185  21.4470  21.4873  21.5346
    21.6069  21.6641  21.7239  21.7542  21.8518  21.8821  21.9617

          k = 0.0000-0.4682 0.0000 ( 27136 PWs)   bands (ev):

   -74.8791 -74.6041 -74.4913 -74.4633 -74.4376 -74.4329 -74.4282 -74.4160
   -46.2809 -46.1614 -46.1545 -46.0944 -45.9268 -45.8589 -45.8462 -45.8427
   -45.8314 -45.8264 -45.8189 -45.7990 -45.7640 -45.7455 -45.7395 -45.7358
   -45.7320 -45.7256 -45.7109 -45.7014 -45.6975 -45.6675 -45.6481 -45.6434
   -23.8947 -20.7244 -20.1898 -20.1323 -20.0728 -19.8606 -19.7726 -19.4137
   -19.3552 -19.3277 -19.1690 -19.0967 -19.0763 -18.9284 -18.8897 -18.8125
   -18.6846 -18.6375 -18.5230 -17.3002  -8.9959  -8.6551  -8.3865  -8.0676
    -8.0079  -7.7319  -7.6553  -7.5237  -7.4850  -7.2978  -7.1364  -7.0873
    -6.8865  -6.8277  -6.8084  -6.7620  -6.6297  -6.3632  -6.3440  -6.3033
    -6.2476  -6.1632  -6.0916  -6.0622  -5.9944  -5.8422  -5.8191  -5.7477
    -5.6708  -5.4868  -5.3811  -5.3459  -5.2061  -5.1027  -4.9856  -4.7237
    -4.5815  -4.5677  -4.4677  -4.4133  -4.3377  -4.2813  -4.0942  -3.9559
    -3.8702  -3.7827  -3.7492  -3.6481  -3.5902  -3.5301  -3.3902  -3.2201
    -3.1224  -3.0632  -2.8435  -2.8139  -2.6532  -2.5193  -2.3074  -2.2063
    -2.1655  -2.1028  -2.0159  -1.8046  -1.7380  -1.6344  -1.5562  -1.5110
    -1.5069  -1.3615  -1.2360  -1.1282  -1.0809  -0.9524  -0.8041  -0.7541
    -0.7126  -0.5588  -0.5088  -0.3257  -0.1726  -0.0569   0.0868   0.5217
     0.5988   0.6987   1.1093   1.3010   1.9301   2.0772   2.2243   2.2643
     2.4514   2.5000   2.6878   2.7264   2.7955   3.2148   3.2803   3.3587
     3.7824   4.3962   4.4537   4.6098   4.7660   4.9787   5.2669   5.5259
     5.7671   6.1170   6.3312   6.9058   7.1424   7.6657   7.6990   7.7115
     8.1459   8.1844   8.1952   8.2918   8.5469   8.5733   8.6029   8.7339
     8.9158   9.0267   9.0801   9.1506   9.1909   9.2784   9.4050   9.5948
     9.6042   9.6843   9.8712   9.9068   9.9924  10.0158  10.1706  10.2425
    10.2719  10.4875  10.5382  10.6731  10.7195  10.9686  11.1601  11.2083
    11.2612  11.3173  11.3433  11.3603  11.6012  11.6174  11.6985  11.9304
    12.0145  12.1103  12.1440  12.1558  12.2738  12.2986  12.4158  12.4821
    12.5562  12.6582  12.7742  12.8207  12.9762  13.0368  13.1608  13.2269
    13.2697  13.3989  13.4271  13.5898  13.6056  13.7400  13.8055  13.8178
    13.8705  13.9233  14.0428  14.1220  14.2823  14.3352  14.4231  14.4649
    14.5105  14.5874  14.6352  14.7753  14.8241  14.8775  15.0083  15.0897
    15.1605  15.2226  15.2558  15.4529  15.5189  15.5581  15.6005  15.6480
    15.6574  15.7050  15.8866  15.9143  15.9856  16.0649  16.1042  16.2361
    16.2787  16.2987  16.4085  16.4756  16.4875  16.6213  16.7194  16.7462
    16.8341  16.8476  16.8537  16.9206  16.9728  17.0986  17.1638  17.2313
    17.3230  17.3591  17.4392  17.4964  17.6182  17.7147  17.7790  17.8027
    18.0022  18.0540  18.0820  18.1252  18.2186  18.3037  18.3868  18.4500
    18.5671  18.6425  18.7261  18.7866  18.8916  18.8972  18.9576  19.0259
    19.0404  19.0732  19.1937  19.2624  19.3785  19.5373  19.5860  19.7531
    19.7931  19.8769  19.9577  20.0557  20.2070  20.2332  20.2624  20.2918
    20.3966  20.5301  20.6273  20.6455  20.7118  20.7688  20.8538  20.8668
    21.0057  21.0394  21.0987  21.1420  21.1588  21.2366  21.2952  21.3685
    21.4199  21.5010  21.5769  21.7187  21.8078  21.8512  21.9458

          k = 0.2500 0.0000 0.0000 ( 27178 PWs)   bands (ev):

   -74.8791 -74.6039 -74.4915 -74.4623 -74.4387 -74.4310 -74.4282 -74.4177
   -46.2760 -46.1613 -46.1547 -46.0946 -45.9020 -45.8683 -45.8455 -45.8359
   -45.8213 -45.8203 -45.8026 -45.7933 -45.7865 -45.7438 -45.7375 -45.7319
   -45.7274 -45.7231 -45.7160 -45.7069 -45.7007 -45.6729 -45.6676 -45.6644
   -23.8953 -20.7782 -20.3009 -20.2084 -19.9755 -19.8948 -19.5645 -19.4301
   -19.3685 -19.2371 -19.1304 -19.1127 -18.9897 -18.9707 -18.8571 -18.8341
   -18.7410 -18.6355 -18.5457 -17.3039  -9.0354  -8.5909  -8.3385  -8.2348
    -8.1942  -7.9300  -7.5975  -7.5057  -7.4011  -7.3686  -7.2961  -7.2875
    -7.2414  -7.0915  -6.9493  -6.8242  -6.7423  -6.6169  -6.5264  -6.4416
    -6.3487  -6.2492  -6.2181  -6.0272  -5.9118  -5.7992  -5.4857  -5.4103
    -5.3242  -5.2019  -5.0857  -5.0079  -4.8948  -4.8312  -4.7351  -4.6744
    -4.5864  -4.5621  -4.5369  -4.4469  -4.3369  -4.1470  -4.0597  -3.9233
    -3.8661  -3.7709  -3.7139  -3.6477  -3.5839  -3.4918  -3.4683  -3.4254
    -3.2729  -3.2031  -2.9508  -2.8014  -2.7650  -2.4308  -2.2861  -2.1232
    -2.0145  -1.9711  -1.7781  -1.7528  -1.7219  -1.6136  -1.5357  -1.4543
    -1.4076  -1.3588  -1.2248  -1.1893  -1.0117  -0.8997  -0.8425  -0.7705
    -0.5786  -0.5556  -0.4558  -0.4251  -0.2931  -0.1201   0.0219   0.3210
     0.9885   1.1656   1.4825   1.7430   1.7956   1.9393   1.9818   2.0060
     2.1713   2.3414   2.3733   2.4056   2.5487   2.6707   3.0694   3.1404
     3.7884   3.8957   4.0852   4.6399   5.1841   5.3491   5.9477   6.0314
     6.2098   6.5153   6.7881   7.0100   7.0917   7.3336   7.4787   7.6674
     7.7632   7.8877   7.9710   8.0406   8.1480   8.4039   8.4905   8.6362
     8.7980   8.9355   9.1345   9.1894   9.3943   9.4226   9.5668   9.6624
     9.7515   9.8523   9.9540  10.0097  10.0546  10.1723  10.1898  10.3048
    10.3707  10.4525  10.4781  10.5875  10.6103  10.7070  10.8089  10.8717
[...]
    16.1500  16.1995  16.3844  16.4648  16.5696  16.6130  16.6798  16.7650
    16.8162  16.8300  16.8649  17.0053  17.0413  17.0811  17.1128  17.2768
    17.3053  17.3319  17.4358  17.4749  17.5748  17.5988  17.6158  17.6508
    17.6649  17.7265  17.8150  17.8933  17.9395  17.9787  18.0827  18.0958
    18.1341  18.1494  18.2327  18.3399  18.3875  18.4117  18.5442  18.5975
    18.6248  18.6939  18.7314  18.7785  18.8223  19.1446  19.1958  19.2356
    19.2575  19.3302  19.4053  19.4732  19.5418  19.5719  19.6408  19.7391
    19.9172  19.9421  20.0470  20.0654  20.0994  20.1536  20.2350  20.2581
    20.2887  20.3438  20.4075  20.4515  20.5190  20.5608  20.6119  20.6508
    20.6801  20.6839  20.7992  20.8849  20.9597  21.0818  21.1200  21.1811
    21.2619  21.3269  21.3387  21.3865  21.4646  21.5147  21.5320

          k =-0.5000 0.2341 0.0000 ( 27132 PWs)   bands (ev):

   -73.8340 -72.2266 -72.1830 -72.1611 -72.1513 -72.0733 -72.0614 -72.0248
   -45.4853 -45.1271 -44.9203 -43.9276 -43.7910 -43.7606 -43.7531 -43.7239
   -43.6776 -43.6405 -43.6119 -43.5254 -43.4836 -43.4506 -43.4047 -43.3968
   -43.3870 -43.3647 -43.2985 -43.2924 -43.2422 -43.2128 -43.2021 -43.1778
   -23.9637 -20.5115 -20.3560 -20.1121 -19.9349 -19.7955 -19.6717 -19.6645
   -19.3707 -19.2688 -19.2516 -19.2179 -19.0560 -19.0333 -19.0211 -18.9193
   -18.8285 -18.7421 -18.6671 -17.4184  -9.0036  -8.1865  -8.0507  -7.5499
    -7.3909  -7.3635  -7.3049  -7.2273  -7.1617  -7.0770  -6.9857  -6.8896
    -6.8557  -6.8081  -6.6823  -6.5707  -6.4323  -6.3950  -6.3605  -6.0328
    -5.9554  -5.8437  -5.7941  -5.6907  -5.5872  -5.5091  -5.4644  -5.4133
    -5.2645  -5.1631  -5.0926  -4.9966  -4.9075  -4.7266  -4.6285  -4.5975
    -4.5570  -4.5196  -4.4472  -4.3879  -4.3017  -4.2345  -4.1280  -4.0172
    -3.8126  -3.7036  -3.6320  -3.4796  -3.3911  -3.2924  -3.1981  -3.1724
    -2.9954  -2.9052  -2.8220  -2.7529  -2.5378  -2.4623  -1.9208  -0.3297
    -0.0334   0.0403   0.2099   0.3567   0.3891   0.5019   0.5763   0.6117
     0.6823   0.7750   0.8276   0.8725   0.9305   0.9830   1.0079   1.0553
     1.0895   1.1287   1.1461   1.2096   1.2382   1.4537   1.5248   1.9058
     1.9610   2.3817   2.4658   2.6949   2.8159   2.8446   2.8669   2.9388
     2.9913   3.2316   3.3126   3.4945   3.6541   3.7925   4.0069   4.0655
     4.2888   4.5993   4.9442   4.9669   5.1377   5.1947   5.6828   5.7028
     6.2576   6.2797   6.5444   6.5702   6.7407   6.8280   7.0315   7.0956
     7.1583   7.4044   7.5887   7.7322   7.8094   8.1302   8.2913   8.4234
     8.6730   8.9536   9.0752   9.1896   9.2307   9.3542   9.5668   9.7380
     9.9343  10.0092  10.1932  10.2630  10.3926  10.5353  10.6960  10.7560
    10.7850  10.8225  10.8675  11.0416  11.1831  11.2610  11.4147  11.4453
    11.6231  11.6721  11.8628  11.9692  12.0496  12.0956  12.2315  12.2968
    12.4244  12.5418  12.6594  12.7650  12.9477  13.0048  13.0918  13.1348
    13.2222  13.2691  13.3737  13.4537  13.5289  13.5803  13.6405  13.7081
    13.7559  13.8310  13.9418  13.9614  14.1024  14.1389  14.2361  14.3170
    14.4031  14.4350  14.5276  14.5461  14.6549  14.7032  14.7606  14.8026
    14.9315  14.9950  15.0541  15.1010  15.1390  15.2369  15.3048  15.3741
    15.4245  15.5544  15.6560  15.6728  15.7574  15.7971  15.8414  15.9111
    15.9218  15.9512  16.0444  16.0954  16.1751  16.2192  16.2539  16.3304
    16.3712  16.3838  16.4678  16.5337  16.5943  16.6160  16.6683  16.7185
    16.7966  16.8436  16.8958  16.9565  17.0389  17.0980  17.1422  17.2313
    17.2648  17.3618  17.4066  17.4351  17.5006  17.6023  17.6667  17.7147
    17.8636  17.9307  17.9628  18.0162  18.0439  18.1105  18.1805  18.2762
    18.3859  18.4286  18.5203  18.5621  18.6851  18.7551  18.8049  18.8596
    18.9340  19.0844  19.1037  19.2696  19.3465  19.4385  19.5132  19.6337
    19.6838  19.7249  19.7706  19.7932  19.8597  19.8944  19.9473  20.0388
    20.0800  20.1387  20.1856  20.2350  20.3296  20.3546  20.4145  20.5612
    20.5991  20.6723  20.7087  20.8768  20.9367  21.0416  21.1189  21.2379
    21.3188  21.3498  21.4600  21.5783  21.6503  21.7193  21.7839

          k =-0.5000-0.4682 0.0000 ( 27168 PWs)   bands (ev):

   -73.8340 -72.2266 -72.1830 -72.1611 -72.1513 -72.0733 -72.0614 -72.0248
   -45.4853 -45.1271 -44.9202 -43.9275 -43.7910 -43.7606 -43.7531 -43.7238
   -43.6761 -43.6385 -43.6117 -43.5280 -43.4856 -43.4508 -43.4052 -43.3968
   -43.3868 -43.3647 -43.2980 -43.2919 -43.2421 -43.2128 -43.2024 -43.1778
   -23.9634 -20.4695 -20.3158 -20.0924 -19.7858 -19.7746 -19.6208 -19.5840
   -19.5481 -19.4559 -19.2728 -19.1885 -19.1536 -19.1310 -19.0064 -18.8880
   -18.8120 -18.7363 -18.6650 -17.4158  -8.9848  -8.1686  -8.0297  -7.5708
    -7.3088  -7.1969  -7.1537  -6.9476  -6.9105  -6.7888  -6.7745  -6.7509
    -6.6089  -6.5908  -6.4862  -6.4453  -6.4026  -6.3347  -6.2635  -6.1914
    -6.1098  -6.0810  -5.9643  -5.9545  -5.8265  -5.6903  -5.5766  -5.4864
    -5.3438  -5.2616  -5.1806  -5.0815  -5.0409  -4.9117  -4.8950  -4.8480
    -4.7983  -4.6110  -4.5844  -4.5232  -4.3526  -4.3063  -4.1554  -4.0934
    -3.8569  -3.5846  -3.4958  -3.3992  -3.3100  -3.2547  -3.1560  -3.0971
    -3.0036  -2.9810  -2.9385  -2.7383  -2.4014  -2.3862  -1.9084  -0.3171
    -0.0904  -0.0131   0.2174   0.3358   0.3663   0.4642   0.5502   0.5623
     0.6779   0.8338   0.8983   0.9452   1.0192   1.0537   1.1094   1.1397
     1.1694   1.3162   1.3191   1.3482   1.4171   1.4852   1.5194   1.8675
     2.0052   2.0708   2.3246   2.4273   2.5013   2.5338   2.9207   2.9320
     3.0441   3.3445   3.3852   3.7086   3.7401   3.9929   4.0297   4.0482
     4.3250   5.1350   5.4534   5.4693   5.5126   5.5326   5.7275   5.7403
     5.8498   5.8604   6.0456   6.0969   6.3191   6.3907   6.5829   6.6987
     6.8972   7.1217   7.2550   7.4745   7.6166   7.9720   8.0444   8.3583
     8.4291   8.7113   8.8575   9.0462   9.3166   9.3307   9.6803   9.8301
     9.9607   9.9877  10.0123  10.1196  10.2901  10.3764  11.0383  11.1472
    11.2014  11.3610  11.4698  11.5989  11.6482  11.7437  11.9876  12.0903
    12.3866  12.3943  12.5693  12.7047  12.7622  12.8796  12.9518  13.0400
    13.1242  13.1806  13.2265  13.2865  13.3800  13.3983  13.5064  13.5286
    13.5514  13.5736  13.5796  13.7063  13.8040  13.8396  13.8880  13.9450
    13.9651  14.0106  14.0230  14.0931  14.1416  14.1942  14.2550  14.3121
    14.3240  14.4120  14.4700  14.4814  14.5077  14.6004  14.6151  14.6630
    14.6910  14.7120  14.7804  14.8247  14.9037  14.9224  14.9968  15.0099
    15.0960  15.1388  15.2464  15.2714  15.3193  15.3694  15.3796  15.4242
    15.4581  15.4884  15.5211  15.5760  15.5996  15.7425  15.7882  15.8109
    15.8759  15.8880  15.9324  16.0791  16.1303  16.1911  16.2423  16.2899
    16.3747  16.4661  16.5382  16.6431  16.7171  16.8023  16.8659  16.9338
    16.9794  17.0497  17.1498  17.1988  17.2750  17.4093  17.4790  17.5180
    17.6132  17.6954  17.7195  17.7691  17.7886  17.9129  18.0441  18.0858
    18.1319  18.1889  18.2021  18.2591  18.3115  18.3877  18.3929  18.6529
    18.8585  18.9067  18.9583  19.0662  19.1478  19.1694  19.2394  19.2762
    19.4218  19.4532  19.5722  19.6357  19.7939  19.8426  19.9755  20.0355
    20.1650  20.2660  20.3090  20.4516  20.5568  20.6597  20.8472  20.9524
    21.0090  21.1254  21.1854  21.2743  21.4615  21.5352  21.6207  21.6652
    21.6970  21.7885  21.8216  21.9863  22.0083  22.0203  22.0622

          k =-0.2500 0.2341 0.0000 ( 27132 PWs)   bands (ev):

   -73.8340 -72.2266 -72.1843 -72.1598 -72.1516 -72.0730 -72.0622 -72.0240
   -45.4868 -45.1272 -44.9203 -43.9276 -43.7918 -43.7597 -43.7538 -43.7242
   -43.6787 -43.6399 -43.6212 -43.5279 -43.4836 -43.4497 -43.4037 -43.4021
   -43.3879 -43.3603 -43.3590 -43.2636 -43.2306 -43.2279 -43.2012 -43.1264
   -23.9638 -20.7113 -20.2223 -20.1682 -20.0469 -19.8947 -19.5582 -19.4756
   -19.4174 -19.3502 -19.2303 -19.1695 -19.0241 -19.0094 -18.9791 -18.8864
   -18.8249 -18.7588 -18.6416 -17.4195  -9.0049  -8.3271  -8.0460  -7.6889
    -7.6504  -7.5688  -7.4989  -7.1667  -7.1042  -7.0770  -6.9833  -6.9054
    -6.8693  -6.7151  -6.6140  -6.5137  -6.3845  -6.3551  -6.2484  -6.2043
    -6.0297  -5.9377  -5.8584  -5.8096  -5.7424  -5.5010  -5.3484  -5.2788
    -5.1950  -5.0702  -4.9149  -4.8517  -4.8083  -4.7507  -4.7248  -4.6494
    -4.5258  -4.4950  -4.3487  -4.3212  -4.1672  -4.0393  -3.9060  -3.8323
    -3.7241  -3.6021  -3.5784  -3.4875  -3.4273  -3.3732  -3.3111  -3.1710
    -3.0447  -2.9921  -2.8624  -2.7088  -2.5836  -2.3305  -1.9398  -0.3394
    -0.0582  -0.0400   0.2028   0.2309   0.3262   0.4085   0.4861   0.5224
     0.6117   0.6969   0.7020   0.8138   0.8975   0.9855   1.0349   1.0735
     1.1194   1.1615   1.2516   1.2905   1.3436   1.5234   1.5787   1.8489
     1.9166   2.2648   2.3449   2.5180   2.8341   3.0003   3.0492   3.1236
     3.2310   3.3177   3.4143   3.5005   3.5519   3.7753   3.9400   4.0013
     4.1456   4.2129   4.3747   4.8873   5.3893   5.5275   5.8405   6.0420
     6.2150   6.2848   6.3597   6.5413   6.8146   6.9362   7.1484   7.4965
     7.5701   7.7040   7.9271   8.0747   8.3320   8.3805   8.4863   8.6209
     8.7833   8.9231   9.1652   9.2440   9.4349   9.5152   9.5951   9.7700
     9.9175   9.9628  10.0526  10.1177  10.1760  10.3846  10.4744  10.4991
    10.6258  10.6937  10.8307  10.9343  11.0531  11.1641  11.2747  11.3269
    11.3906  11.5349  11.6582  11.7560  11.8351  11.9129  12.0530  12.0974
    12.1864  12.3322  12.3562  12.4064  12.4809  12.5598  12.7011  12.7332
    12.8621  12.8694  13.0143  13.0740  13.1893  13.2785  13.3494  13.4183
    13.4914  13.5388  13.6003  13.6894  13.7798  13.8443  13.9411  14.0084
    14.1202  14.1599  14.2466  14.2990  14.3413  14.4564  14.4776  14.5733
    14.7510  14.8196  14.8820  14.9753  15.0842  15.1364  15.2234  15.2743
    15.3853  15.4632  15.5707  15.6530  15.6946  15.7678  15.8572  15.9246
    15.9579  15.9914  16.0555  16.1389  16.2072  16.2368  16.3331  16.3855
    16.4574  16.5101  16.6037  16.7129  16.7867  16.8304  16.9067  16.9928
    17.0477  17.1174  17.1905  17.2430  17.3283  17.3661  17.4592  17.4754
    17.5448  17.5954  17.7286  17.7696  17.8059  17.8890  17.9448  18.0099
    18.0694  18.1698  18.2274  18.2929  18.3936  18.4677  18.5157  18.5753
    18.5966  18.6916  18.7701  18.8548  18.9149  18.9950  19.0155  19.0757
    19.1585  19.2909  19.3817  19.4235  19.4468  19.5178  19.5697  19.6643
    19.7056  19.7983  19.8501  19.9377  19.9924  20.1506  20.2067  20.2937
    20.3206  20.4028  20.5172  20.5776  20.6906  20.8208  20.8702  20.9456
    21.0290  21.1097  21.1609  21.2321  21.2838  21.3530  21.4103  21.5015
    21.5954  21.6826  21.8109  21.8508  21.9329  21.9725  22.0327

     the spin up/dw Fermi energies are    -0.8922   -1.8189 ev

!    total energy              =   -2059.11491421 Ry
     Harris-Foulkes estimate   =   -2059.11491486 Ry
     estimated scf accuracy    <       0.00000076 Ry

     The total energy is the sum of the following terms:

     one-electron contribution =  -24604.70483792 Ry
     hartree contribution      =   12327.91896416 Ry
     xc contribution           =    -329.61507333 Ry
     ewald contribution        =   10547.28542805 Ry
     Hubbard energy            =       0.00000000 Ry
     smearing contrib. (-TS)   =       0.00060483 Ry

     total magnetization       =    15.00 Bohr mag/cell
     absolute magnetization    =    17.54 Bohr mag/cell

     convergence has been achieved in  61 iterations

     Forces acting on atoms (Ry/au):


     negative rho (up, down):  0.439E-02 0.162E-02
     atom    1 type  1   force =    -0.00292853   -0.01259986   -0.00014814
     atom    2 type  1   force =    -0.00059352    0.00824132   -0.00038603
     atom    3 type  2   force =     0.04847188   -0.00453744   -0.00006868
     atom    4 type  2   force =    -0.00391273    0.00835435    0.00003502
     atom    5 type  1   force =     0.00015359    0.01075377    0.00011740
     atom    6 type  1   force =    -0.00273738   -0.00786347    0.00017928
     atom    7 type  1   force =    -0.00013645   -0.00460780   -0.00039975
     atom    8 type  1   force =    -0.00674816    0.00278097    0.00063489
     atom    9 type  2   force =     0.00534822   -0.00235446   -0.00021566
     atom   10 type  2   force =     0.00605269    0.00294550   -0.00062686
     atom   11 type  1   force =    -0.02642160   -0.02798157   -0.00001771
     atom   12 type  1   force =    -0.01840991    0.03462089   -0.00045014
     atom   13 type  1   force =    -0.04820221   -0.00333470   -0.00037990
     atom   14 type  1   force =    -0.00475901   -0.01284995   -0.00006775
     atom   15 type  1   force =     0.00039581    0.00781657    0.00066330
     atom   16 type  2   force =    -0.05070633   -0.00394502   -0.00012130
     atom   17 type  2   force =     0.00476847    0.00791093    0.00023941
     atom   18 type  1   force =     0.00566672    0.00960005    0.00001265
     atom   19 type  1   force =     0.00275935   -0.00767882    0.00021765
     atom   20 type  1   force =     0.00181905   -0.00352629    0.00095579
     atom   21 type  1   force =     0.00322423    0.00398154   -0.00082674
     atom   22 type  2   force =     0.01769202   -0.00560599   -0.00024217
     atom   23 type  2   force =    -0.00440351   -0.00412182    0.00023607
     atom   24 type  1   force =     0.02132522   -0.02113273    0.00050842
     atom   25 type  1   force =     0.01371897    0.03380105   -0.00005194
     atom   26 type  1   force =     0.03878701   -0.00858447    0.00056143
     atom   27 type  3   force =    -0.00000344   -0.00004685    0.00008420
     atom   28 type  3   force =     0.00001852   -0.00007516    0.00007266
     atom   29 type  3   force =     0.00021750    0.00002355    0.00023593
     atom   30 type  3   force =     0.00019418    0.00009925    0.00031037
     atom   31 type  1   force =    -0.00070429   -0.00016824   -0.00094393
     atom   32 type  1   force =    -0.00019411    0.00067487   -0.00042015
     atom   33 type  3   force =     0.00024773   -0.00058995    0.00030234

     Total force =     0.002698     Total SCF correction =     0.002073
     SCF correction compared to forces is large: reduce conv_thr to get better values


     entering subroutine stress ...


     negative rho (up, down):  0.439E-02 0.162E-02
          total   stress  (Ry/bohr**3)                   (kbar)     P=    1.92
  -0.00001359  -0.00000100   0.00000400         -2.00     -0.15      0.59
  -0.00000100   0.00008977   0.00000304         -0.15     13.21      0.45
   0.00000400   0.00000304  -0.00003695          0.59      0.45     -5.44


     BFGS Geometry Optimization

     bfgs converged in   1 scf cycles and   0 bfgs steps
     (criteria: energy < 0.10E-03, force < 0.10E-02)

     End of BFGS Geometry Optimization

     Final energy   =   -2059.1149142081 Ry
Begin final coordinates

ATOMIC_POSITIONS (crystal)
O0       0.000000000   0.000000000   0.377700000    0   0   1
O0       0.000000000   0.500000000   0.400800000    0   0   1
Cr1      0.250000000   0.500000000   0.451970000    0   0   1
Cr1      0.000000000   0.000000000   0.448680000    0   0   1
O0       0.250000000   0.800000000   0.449750000    0   0   1
O0       0.250000000   0.200000000   0.449910000    0   0   1
O0       0.000000000   0.500000000   0.498300000    0   0   1
O0       0.000000000   0.000000000   0.522940000    0   0   1
Cr1      0.250000000   0.000000000   0.566210000    0   0   1
Cr1      0.000000000   0.500000000   0.565630000    0   0   1
O0       0.250000000   0.700000000   0.573110000    0   0   1
O0       0.250000000   0.300000000   0.575400000    0   0   1
O0       0.000000000   0.000000000   0.617580000    0   0   1
O0       0.500000000   0.000000000   0.377580000    0   0   1
O0       0.500000000   0.500000000   0.400590000    0   0   1
Cr1      0.750000000   0.500000000   0.452130000    0   0   1
Cr1      0.500000000   0.000000000   0.448670000    0   0   1
O0       0.750000000   0.800000000   0.449720000    0   0   1
O0       0.750000000   0.200000000   0.449970000    0   0   1
O0       0.500000000   0.500000000   0.499130000    0   0   1
O0       0.500000000   0.000000000   0.522940000    0   0   1
Cr1      0.750000000   0.000000000   0.583040000    0   0   1
Cr1      0.500000000   0.500000000   0.577850000    0   0   1
O0       0.750000000   0.700000000   0.574470000    0   0   1
O0       0.750000000   0.300000000   0.576690000    0   0   1
O0       0.500000000   0.000000000   0.616460000    0   0   1
H2      -0.000660000   0.637540000   0.381470000
H2       0.499800000   0.639420000   0.381970000
H2       0.156830000   0.030800000   0.364530000
H2       0.656580000   0.031040000   0.364380000
O0       0.499860000   0.535140000   0.647760000
O0       0.500220000   0.347750000   0.679980000
H2       0.499890000   0.420850000   0.713470000
End final coordinates



     init_run     :    122.12s CPU    127.18s WALL (       1 calls)
     electrons    :  15526.23s CPU  16128.94s WALL (       1 calls)
     forces       :    235.76s CPU    245.94s WALL (       1 calls)
     stress       :   1070.25s CPU   1112.12s WALL (       1 calls)

     Called by init_run:
     wfcinit      :     53.55s CPU     56.60s WALL (       1 calls)
     potinit      :      8.72s CPU      9.32s WALL (       1 calls)

     Called by electrons:
     c_bands      :   8649.78s CPU   8941.19s WALL (      61 calls)
     sum_band     :   3504.24s CPU   3650.04s WALL (      61 calls)
     v_of_rho     :    149.12s CPU    173.36s WALL (      62 calls)
     newd         :   3169.08s CPU   3215.93s WALL (      62 calls)
     mix_rho      :     26.27s CPU     26.86s WALL (      61 calls)

     Called by c_bands:
     init_us_2    :     20.95s CPU     21.13s WALL (     680 calls)
     cegterg      :   8485.52s CPU   8683.98s WALL (     305 calls)

     Called by *egterg:
     h_psi        :   4682.96s CPU   4804.57s WALL (     924 calls)
     s_psi        :    561.01s CPU    567.52s WALL (     979 calls)
     g_psi        :     11.22s CPU     11.21s WALL (     614 calls)
     cdiaghg      :    972.82s CPU    974.81s WALL (     919 calls)

     Called by h_psi:
     add_vuspsi   :    521.83s CPU    528.82s WALL (     924 calls)
     vhpsi        :    474.24s CPU    479.57s WALL (     924 calls)

     General routines
     calbec       :   1209.39s CPU   1221.96s WALL (    4103 calls)
     fft          :    175.39s CPU    234.38s WALL (    1956 calls)
     ffts         :      1.88s CPU      2.01s WALL (     246 calls)
     fftw         :   2609.56s CPU   2743.48s WALL (  546323 calls)
     interpolate  :     18.76s CPU     19.09s WALL (     246 calls)
     davcio       :      0.04s CPU      8.62s WALL (     725 calls)

     Parallel routines
     fft_scatter  :    972.07s CPU   1157.38s WALL (  548525 calls)
     Hubbard U routines
     new_ns       :    108.90s CPU    114.88s WALL (      61 calls)
     vhpsi        :    474.24s CPU    479.57s WALL (     924 calls)
     force_hub    :     58.54s CPU     60.42s WALL (       1 calls)
     stres_hub    :    533.27s CPU    547.65s WALL (       1 calls)

     PWSCF        :     4h42m CPU        4h53m WALL


   This run was terminated on:   3:29:29   2Jun2014            

=------------------------------------------------------------------------------=
   JOB DONE.
=------------------------------------------------------------------------------=
---------------------------------------
Running PBS batch system epilogue script
Job id: 373409.audhumbla.fysik.dtu.dk
Username: zhonxu
Groupname: campgst
Jobname: CrO2/Eads-2-layers/OOH-U-0.0
Sessionid: 31636
Resources limits: neednodes=2:ppn=8:xeon8,nodes=2:ppn=8:xeon8,walltime=48:00:00
Resources used: cput=78:08:47,mem=17546952kb,vmem=21653720kb,walltime=04:53:41
Queuename: verylong
Accounting:
This job has allocated the following 16 nodes:
d059 d059 d059 d059 d059 d059 d059 d059 d005 d005 d005 d005 d005 d005 d005 d005
Finished epilogue job 373409.audhumbla.fysik.dtu.dk for zhonxu
