
     Program PWSCF v.5.0.2 (svn rev. 9656) starts on 23Jan2014 at 18:14: 3 

     This program is part of the open-source Quantum ESPRESSO suite
     for quantum simulation of materials; please cite
         "P. Giannozzi et al., J. Phys.:Condens. Matter 21 395502 (2009);
          URL http://www.quantum-espresso.org", 
     in publications or presentations arising from this work. More details at
     http://www.quantum-espresso.org/quote.php

     Parallel version (MPI), running on     4 processors
     R & G space division:  proc/nbgrp/npool/nimage =       4

     Current dimensions of program PWSCF are:
     Max number of different atomic species (ntypx) = 10
     Max number of k-points (npk) =  40000
     Max angular momentum in pseudopotentials (lmaxx) =  3
     Reading input from TiO2-v-1.0.in

     Subspace diagonalization in iterative solution of the eigenvalue problem:
     a serial algorithm will be used


     Parallelization info
     --------------------
     sticks:   dense  smooth     PW     G-vecs:    dense   smooth      PW
     Min         745     237     72                19728     3577     588
     Max         746     238     74                19729     3588     589
     Sum        2981     949    293                78915    14331    2353



     bravais-lattice index     =            0
     lattice parameter (alat)  =       8.6590  a.u.
     unit-cell volume          =     418.3967 (a.u.)^3
     number of atoms/cell      =            6
     number of atomic types    =            2
     number of electrons       =        48.00
     number of Kohn-Sham states=           69
     kinetic-energy cutoff     =      40.0000  Ry
     charge density cutoff     =     500.0000  Ry
     convergence threshold     =      1.0E-06
     mixing beta               =       0.7000
     number of iterations used =            8  plain     mixing
     Exchange-correlation      = SLA  PW   PBE  PBE ( 1 4 3 4 0)
     EXX-fraction              =        0.00
     nstep                     =           50


     celldm(1)=   8.658997  celldm(2)=   0.000000  celldm(3)=   0.000000
     celldm(4)=   0.000000  celldm(5)=   0.000000  celldm(6)=   0.000000

     crystal axes: (cart. coord. in units of alat)
               a(1) = (   1.000000   0.000000   0.000000 )  
               a(2) = (   0.000000   1.000000   0.000000 )  
               a(3) = (   0.000000   0.000000   0.644444 )  

     reciprocal axes: (cart. coord. in units 2 pi/alat)
               b(1) = (  1.000000  0.000000  0.000000 )  
               b(2) = (  0.000000  1.000000  0.000000 )  
               b(3) = (  0.000000  0.000000  1.551724 )  


     PseudoPot. # 1 for Ti read from file:
     /home/camp/zhonxu/pseudo/ti_pbe_v1.uspp.F.UPF
     MD5 check sum: bcc8f6961b3b91f0cac3ca967d22d0fb
     Pseudo is Ultrasoft + core correction, Zval = 12.0
     Generated by new atomic code, or converted to UPF format
     Using radial grid of  851 points,  6 beta functions with: 
                l(1) =   0
                l(2) =   0
                l(3) =   1
                l(4) =   1
                l(5) =   2
                l(6) =   2
     Q(r) pseudized with  6 coefficients,  rinner =    1.000   1.000   1.000
                                                       1.000   1.000

     PseudoPot. # 2 for O  read from file:
     /home/camp/zhonxu/pseudo/o_pbe_v1.01.uspp.F.UPF
     MD5 check sum: 2bcb18d16ea4b960afae9ec6d52f22d2
     Pseudo is Ultrasoft + core correction, Zval =  6.0
     Generated by new atomic code, or converted to UPF format
     Using radial grid of  737 points,  5 beta functions with: 
                l(1) =   0
                l(2) =   0
                l(3) =   1
                l(4) =   1
                l(5) =   2
     Q(r) pseudized with  8 coefficients,  rinner =    0.900   0.900   0.900
                                                       0.900   0.900

     atomic species   valence    mass     pseudopotential
        Ti0           12.00    47.88000     Ti( 1.00)
        O1             6.00    15.99940     O ( 1.00)

     Starting magnetic structure 
     atomic species   magnetization
        Ti0          0.600
        O1           0.000

     16 Sym. Ops., with inversion, found ( 8 have fractional translation)



   Cartesian axes

     site n.     atom                  positions (alat units)
         1           Ti0 tau(   1) = (   0.0000000   0.0000000   0.0000000  )
         2           Ti0 tau(   2) = (   0.5000000   0.5000000   0.3222222  )
         3           O1  tau(   3) = (   0.3050000   0.3050000   0.0000000  )
         4           O1  tau(   4) = (  -0.3050000  -0.3050000   0.0000000  )
         5           O1  tau(   5) = (   0.8050000   0.1950000   0.3222222  )
         6           O1  tau(   6) = (   0.1950000   0.8050000   0.3222222  )

     number of k points=    36  Methfessel-Paxton smearing, width (Ry)=  0.0100
                       cart. coord. in units 2pi/alat
        k(    1) = (   0.0000000   0.0000000   0.0000000), wk =   0.0080000
        k(    2) = (   0.0000000   0.0000000   0.3103448), wk =   0.0160000
        k(    3) = (   0.0000000   0.0000000   0.6206897), wk =   0.0160000
        k(    4) = (   0.0000000   0.2000000   0.0000000), wk =   0.0320000
        k(    5) = (   0.0000000   0.2000000   0.3103448), wk =   0.0640000
        k(    6) = (   0.0000000   0.2000000   0.6206897), wk =   0.0640000
        k(    7) = (   0.0000000   0.4000000   0.0000000), wk =   0.0320000
        k(    8) = (   0.0000000   0.4000000   0.3103448), wk =   0.0640000
        k(    9) = (   0.0000000   0.4000000   0.6206897), wk =   0.0640000
        k(   10) = (   0.2000000   0.2000000   0.0000000), wk =   0.0320000
        k(   11) = (   0.2000000   0.2000000   0.3103448), wk =   0.0640000
        k(   12) = (   0.2000000   0.2000000   0.6206897), wk =   0.0640000
        k(   13) = (   0.2000000   0.4000000   0.0000000), wk =   0.0640000
        k(   14) = (   0.2000000   0.4000000   0.3103448), wk =   0.1280000
        k(   15) = (   0.2000000   0.4000000   0.6206897), wk =   0.1280000
        k(   16) = (   0.4000000   0.4000000   0.0000000), wk =   0.0320000
        k(   17) = (   0.4000000   0.4000000   0.3103448), wk =   0.0640000
        k(   18) = (   0.4000000   0.4000000   0.6206897), wk =   0.0640000
        k(   19) = (   0.0000000   0.0000000   0.0000000), wk =   0.0080000
        k(   20) = (   0.0000000   0.0000000   0.3103448), wk =   0.0160000
        k(   21) = (   0.0000000   0.0000000   0.6206897), wk =   0.0160000
        k(   22) = (   0.0000000   0.2000000   0.0000000), wk =   0.0320000
        k(   23) = (   0.0000000   0.2000000   0.3103448), wk =   0.0640000
        k(   24) = (   0.0000000   0.2000000   0.6206897), wk =   0.0640000
        k(   25) = (   0.0000000   0.4000000   0.0000000), wk =   0.0320000
        k(   26) = (   0.0000000   0.4000000   0.3103448), wk =   0.0640000
        k(   27) = (   0.0000000   0.4000000   0.6206897), wk =   0.0640000
        k(   28) = (   0.2000000   0.2000000   0.0000000), wk =   0.0320000
        k(   29) = (   0.2000000   0.2000000   0.3103448), wk =   0.0640000
        k(   30) = (   0.2000000   0.2000000   0.6206897), wk =   0.0640000
        k(   31) = (   0.2000000   0.4000000   0.0000000), wk =   0.0640000
        k(   32) = (   0.2000000   0.4000000   0.3103448), wk =   0.1280000
        k(   33) = (   0.2000000   0.4000000   0.6206897), wk =   0.1280000
        k(   34) = (   0.4000000   0.4000000   0.0000000), wk =   0.0320000
        k(   35) = (   0.4000000   0.4000000   0.3103448), wk =   0.0640000
        k(   36) = (   0.4000000   0.4000000   0.6206897), wk =   0.0640000

     Dense  grid:    78915 G-vectors     FFT dimensions: (  64,  64,  40)

     Smooth grid:    14331 G-vectors     FFT dimensions: (  36,  36,  24)

     Largest allocated arrays     est. size (Mb)     dimensions
        Kohn-Sham Wavefunctions         0.48 Mb     (    452,   69)
        NL pseudopotentials             0.61 Mb     (    452,   88)
        Each V/rho on FFT grid          1.25 Mb     (  40960,   2)
        Each G-vector array             0.15 Mb     (  19729)
        G-vector shells                 0.15 Mb     (  19729)
     Largest temporary arrays     est. size (Mb)     dimensions
        Auxiliary wavefunctions         1.90 Mb     (    452,  276)
        Each subspace H/S matrix        1.16 Mb     ( 276, 276)
        Each <psi_i|beta_j> matrix      0.09 Mb     (     88,   69)
        Arrays for rho mixing           5.00 Mb     (  40960,   8)

     Check: negative/imaginary core charge=   -0.000014    0.000000

     Initial potential from superposition of free atoms
     Check: negative starting charge=(component1):   -0.020433
     Check: negative starting charge=(component2):   -0.005017

     starting charge   45.99991, renormalised to   48.00000

     negative rho (up, down):  0.213E-01 0.524E-02
     Starting wfc are   36 randomized atomic wfcs

     total cpu time spent up to now is        9.6 secs

     per-process dynamical memory:    44.2 Mb

     Self-consistent Calculation

     iteration #  1     ecut=    40.00 Ry     beta=0.70
     Davidson diagonalization with overlap
     ethr =  1.00E-02,  avg # of iterations =  5.1

     negative rho (up, down):  0.162E-01 0.126E-01

     total cpu time spent up to now is       44.8 secs

     total energy              =    -365.64242119 Ry
     Harris-Foulkes estimate   =    -365.21428477 Ry
     estimated scf accuracy    <       2.58402082 Ry

     total magnetization       =     0.00 Bohr mag/cell
     absolute magnetization    =     1.77 Bohr mag/cell

     iteration #  2     ecut=    40.00 Ry     beta=0.70
     Davidson diagonalization with overlap
     ethr =  5.38E-03,  avg # of iterations =  1.6

     negative rho (up, down):  0.113E-01 0.103E-01

     total cpu time spent up to now is       60.2 secs

     total energy              =    -362.53946702 Ry
     Harris-Foulkes estimate   =    -368.11348430 Ry
     estimated scf accuracy    <      21.81441773 Ry

     total magnetization       =     2.15 Bohr mag/cell
     absolute magnetization    =     4.06 Bohr mag/cell

     iteration #  3     ecut=    40.00 Ry     beta=0.70
     Davidson diagonalization with overlap
     ethr =  5.38E-03,  avg # of iterations =  1.1

     negative rho (up, down):  0.915E-02 0.127E-01

     total cpu time spent up to now is       74.8 secs

     total energy              =    -366.51786441 Ry
     Harris-Foulkes estimate   =    -366.57726441 Ry
     estimated scf accuracy    <       1.05671608 Ry

     total magnetization       =     0.00 Bohr mag/cell
     absolute magnetization    =     0.81 Bohr mag/cell

     iteration #  4     ecut=    40.00 Ry     beta=0.70
     Davidson diagonalization with overlap
     ethr =  2.20E-03,  avg # of iterations =  1.0

     negative rho (up, down):  0.112E-01 0.129E-01

     total cpu time spent up to now is       89.2 secs

     total energy              =    -366.47077630 Ry
     Harris-Foulkes estimate   =    -366.55841087 Ry
     estimated scf accuracy    <       0.29333685 Ry

     total magnetization       =     0.00 Bohr mag/cell
     absolute magnetization    =     0.31 Bohr mag/cell

     iteration #  5     ecut=    40.00 Ry     beta=0.70
     Davidson diagonalization with overlap
     ethr =  6.11E-04,  avg # of iterations =  1.1

     negative rho (up, down):  0.126E-01 0.129E-01

     total cpu time spent up to now is      103.4 secs

     total energy              =    -366.49168236 Ry
     Harris-Foulkes estimate   =    -366.49833367 Ry
     estimated scf accuracy    <       0.01637818 Ry

     total magnetization       =    -0.00 Bohr mag/cell
     absolute magnetization    =     0.15 Bohr mag/cell

     iteration #  6     ecut=    40.00 Ry     beta=0.70
     Davidson diagonalization with overlap
     ethr =  3.41E-05,  avg # of iterations =  2.3

     negative rho (up, down):  0.127E-01 0.127E-01

     total cpu time spent up to now is      119.3 secs

     total energy              =    -366.49563098 Ry
     Harris-Foulkes estimate   =    -366.49671649 Ry
     estimated scf accuracy    <       0.00307766 Ry

     total magnetization       =    -0.00 Bohr mag/cell
     absolute magnetization    =     0.03 Bohr mag/cell

     iteration #  7     ecut=    40.00 Ry     beta=0.70
     Davidson diagonalization with overlap
     ethr =  6.41E-06,  avg # of iterations =  1.8

     negative rho (up, down):  0.127E-01 0.127E-01

     total cpu time spent up to now is      134.2 secs

     total energy              =    -366.49615820 Ry
     Harris-Foulkes estimate   =    -366.49616511 Ry
     estimated scf accuracy    <       0.00002254 Ry

     total magnetization       =    -0.00 Bohr mag/cell
     absolute magnetization    =     0.01 Bohr mag/cell

     iteration #  8     ecut=    40.00 Ry     beta=0.70
     Davidson diagonalization with overlap
     ethr =  4.70E-08,  avg # of iterations =  2.9

     negative rho (up, down):  0.127E-01 0.127E-01

     total cpu time spent up to now is      150.5 secs

     total energy              =    -366.49617047 Ry
     Harris-Foulkes estimate   =    -366.49617604 Ry
     estimated scf accuracy    <       0.00003958 Ry

     total magnetization       =    -0.00 Bohr mag/cell
     absolute magnetization    =     0.01 Bohr mag/cell

     iteration #  9     ecut=    40.00 Ry     beta=0.70
     Davidson diagonalization with overlap
     ethr =  4.70E-08,  avg # of iterations =  1.0

     negative rho (up, down):  0.127E-01 0.127E-01

     total cpu time spent up to now is      164.2 secs

     total energy              =    -366.49616817 Ry
     Harris-Foulkes estimate   =    -366.49617203 Ry
     estimated scf accuracy    <       0.00001296 Ry

     total magnetization       =    -0.00 Bohr mag/cell
     absolute magnetization    =     0.00 Bohr mag/cell

     iteration # 10     ecut=    40.00 Ry     beta=0.70
     Davidson diagonalization with overlap
     ethr =  2.70E-08,  avg # of iterations =  1.0

     negative rho (up, down):  0.127E-01 0.127E-01

     total cpu time spent up to now is      177.8 secs

     End of self-consistent calculation

 ------ SPIN UP ------------


          k = 0.0000 0.0000 0.0000 (  1819 PWs)   bands (ev):

   -47.5986 -47.5810 -23.9298 -23.9298 -23.7578 -23.7578 -23.7136 -23.6762
    -8.9799  -7.7955  -7.0301  -7.0301   3.4483   3.8604   4.2909   5.3921
     5.3921   6.6947   6.6947   7.2633   8.5482   8.8081   8.8081   9.2545
    11.1657  11.4818  11.6979  11.7920  11.7920  13.7198  13.8872  15.9767
    15.9767  16.9641  17.2279  20.9819  20.9819  23.8465  24.9528  25.9298
    27.6820  28.6894  28.7794  28.7794  30.6731  32.3097  33.3991  33.3991
    34.4022  34.9917  34.9917  35.3336  35.5349  35.5349  36.2080  38.1114
    40.8096  41.2236  41.4502  41.7333  41.7333  42.8763  43.2833  43.2833
    45.4560  45.9106  45.9106  46.3581  48.9604

          k = 0.0000 0.0000 0.3103 (  1807 PWs)   bands (ev):

   -47.5824 -47.5681 -23.8868 -23.8868 -23.8743 -23.8459 -23.7513 -23.7513
    -8.5794  -7.5805  -7.2163  -7.2163   3.9985   4.2691   4.7485   5.1351
     5.1351   6.2665   7.2456   7.2968   7.2968   8.0919   8.0919   8.9927
    11.5207  11.7615  11.8984  12.2492  12.2492  13.5658  14.2276  15.5286
    15.5286  16.3593  18.3704  22.3808  22.3808  23.9513  24.4332  26.4392
    27.0531  27.5657  28.2461  28.2461  29.1871  32.5462  32.7147  32.7147
    34.1885  34.1885  34.5942  35.3552  36.1550  38.2856  38.3413  38.3413
    39.4803  39.4803  40.4068  41.0621  43.8139  44.8069  44.8069  44.8740
    45.1337  47.1696  47.1696  47.4384  48.3482

          k = 0.0000 0.0000 0.6207 (  1784 PWs)   bands (ev):

   -47.5542 -47.5488 -24.1225 -24.1127 -23.8043 -23.8043 -23.7528 -23.7528
    -7.7778  -7.5145  -7.5145  -7.3661   4.7632   4.7926   5.3499   5.3499
     5.4097   5.8395   6.0228   6.8202   6.8202   7.7323   7.7785   7.7785
    11.8423  12.1857  12.5651  12.7399  12.8862  12.8862  14.7469  15.1313
    15.3504  15.3504  20.6529  22.8101  24.3933  24.4450  24.4450  25.3590
    27.0294  27.0294  27.2515  27.3123  28.0372  29.9528  32.0160  32.0160
    34.3631  34.3631  35.6850  36.3232  36.5939  38.2803  38.7802  38.7802
    39.3414  41.5167  41.5167  41.8470  44.6542  44.6542  44.6907  44.7263
    46.8735  47.3907  47.6080  47.6080  47.6486

          k = 0.0000 0.2000 0.0000 (  1791 PWs)   bands (ev):

   -47.5969 -47.5827 -23.9168 -23.9156 -23.7736 -23.7723 -23.7100 -23.6797
    -8.8380  -7.8068  -7.1643  -7.0851   3.7006   4.0199   4.5565   5.4080
     5.4181   6.4585   6.6265   7.2863   8.1299   8.3022   8.5164   9.1067
    11.3759  11.7299  11.9459  11.9757  12.0018  13.6811  14.0349  15.8471
    15.8725  16.7137  17.7084  20.8421  21.2919  23.8898  24.7007  25.7263
    27.5004  28.6886  29.0615  29.2549  31.0411  31.7859  32.1066  32.1601
    33.5087  34.6995  35.2186  35.4071  35.7578  36.2406  38.3505  38.8226
    39.6271  40.9874  41.7832  41.9607  42.0095  42.9797  43.6537  44.4164
    45.4048  46.1314  46.5348  47.1456  48.2907

          k = 0.0000 0.2000 0.3103 (  1793 PWs)   bands (ev):

   -47.5810 -47.5695 -23.8950 -23.8767 -23.8539 -23.8530 -23.7616 -23.7580
    -8.4627  -7.5673  -7.3426  -7.2532   4.1849   4.4452   4.7602   5.0987
     5.4697   6.1538   6.6563   7.2220   7.2417   8.0456   8.0595   8.8832
    11.5450  12.0237  12.0484  12.2025  12.4398  13.4133  14.4303  15.1792
    15.4520  16.4377  18.7651  21.9595  22.6058  24.2302  24.5101  26.0483
    26.8341  27.4145  27.6375  28.9853  29.5918  31.3672  31.8086  33.0003
    34.0622  34.0793  35.5341  35.8691  36.2766  37.7252  38.1468  38.4865
    39.3128  40.0666  40.8104  42.1309  43.7853  44.3559  45.3123  45.4264
    45.5221  46.5071  46.8008  47.6526  47.8287

          k = 0.0000 0.2000 0.6207 (  1777 PWs)   bands (ev):

   -47.5537 -47.5493 -24.1259 -24.1178 -23.7981 -23.7961 -23.7569 -23.7550
    -7.8354  -7.6562  -7.4126  -7.2575   4.6449   4.7577   4.9066   5.2253
     5.6954   5.8736   6.4629   6.8366   6.9989   7.6026   7.7014   8.0096
    11.5761  12.2378  12.3010  12.5675  13.0077  13.0905  14.5683  14.6126
    15.6532  15.9919  20.7198  22.5643  23.7482  24.6351  24.9467  25.2123
    26.4784  26.6388  27.3446  27.5482  28.5035  29.5217  31.7250  32.2421
    34.5467  34.7511  35.8668  36.3172  36.9648  38.1834  38.4002  39.0259
    39.9264  41.0311  41.3247  42.0503  43.3260  44.7177  45.1502  45.3428
    46.2226  46.9849  47.1641  48.0280  48.5358

          k = 0.0000 0.4000 0.0000 (  1784 PWs)   bands (ev):

   -47.5925 -47.5871 -23.8853 -23.8830 -23.8086 -23.8063 -23.7007 -23.6891
    -8.4598  -8.0115  -7.3017  -7.2133   4.1642   4.2995   5.4163   5.4409
     5.4522   6.1050   6.3056   6.7792   7.4417   7.8206   8.3741   8.7037
    11.7269  11.8985  12.2387  12.2935  12.5519  13.1755  14.9126  15.6410
    15.6702  15.9492  18.8713  20.1033  22.2014  23.3916  24.8313  25.4025
    27.4542  28.3702  28.8708  29.9457  30.0722  31.3181  31.9969  32.4837
    33.2578  33.5455  35.2446  35.2968  36.4198  36.8879  37.6368  37.7638
    41.3707  41.6803  42.0325  42.4356  42.7474  43.4863  44.9067  45.6737
    46.1211  46.4767  47.0647  47.1375  47.3312

          k = 0.0000 0.4000 0.3103 (  1788 PWs)   bands (ev):

   -47.5774 -47.5730 -23.8916 -23.8761 -23.8452 -23.8314 -23.7821 -23.7751
    -8.1495  -7.7516  -7.4346  -7.3433   4.5895   4.7726   4.9579   5.0527
     5.8238   5.9642   6.3081   6.7334   6.9417   7.5341   8.3358   8.6362
    11.8212  12.0714  12.3311  12.4037  12.7628  13.0543  14.6704  14.7626
    15.5866  16.1412  19.7728  20.9552  23.3313  24.2583  24.8729  25.5397
    26.4928  26.7341  27.5884  28.8277  29.9176  30.6847  31.6194  33.2265
    34.0446  34.2239  35.5919  36.1538  36.2445  36.8994  38.5148  38.7807
    39.0444  40.5150  41.6253  42.4676  43.8922  44.3414  45.3531  46.5164
    46.5304  46.7973  47.4792  47.7209  48.0746

          k = 0.0000 0.4000 0.6207 (  1786 PWs)   bands (ev):

   -47.5523 -47.5506 -24.1300 -24.1268 -23.7837 -23.7785 -23.7682 -23.7631
    -7.8709  -7.8082  -7.2653  -7.1994   4.3602   4.4585   5.0325   5.2195
     5.7351   6.1993   6.3598   6.8979   7.3594   7.3920   7.8943   8.3137
    11.2703  11.5938  12.4612  12.5579  13.1444  13.1653  14.2639  14.3611
    16.1876  16.3895  21.0886  21.8356  23.6441  24.1350  25.2530  25.5978
    25.9377  26.1600  27.4889  27.9874  28.3199  28.6059  32.1473  32.7984
    35.1238  35.2920  36.2228  36.2981  37.3700  37.4575  38.1240  38.3849
    39.3242  40.2995  42.3832  42.6956  44.1045  44.4223  45.4720  45.6816
    45.9771  46.4507  48.2498  48.2657  48.6634

          k = 0.2000 0.2000 0.0000 (  1800 PWs)   bands (ev):

   -47.5955 -47.5841 -23.9344 -23.8814 -23.8097 -23.7550 -23.7071 -23.6826
    -8.7283  -7.8480  -7.2698  -7.0775   3.6427   4.3079   4.7764   5.3673
     5.4559   6.2174   6.7709   7.3375   7.7506   8.2029   8.3417   8.9983
    11.2491  11.7992  11.8816  12.2267  12.2693  13.5639  14.2358  15.6548
    15.9730  16.4492  18.1949  21.0375  21.2674  23.9310  24.3866  25.3685
    27.4413  28.5539  29.4182  29.9101  31.3176  31.5229  31.9494  32.0070
    32.0480  34.1261  34.3046  35.6005  36.8959  37.1044  38.8375  39.2752
    39.4134  40.7498  41.1397  42.0081  42.9584  43.1850  44.2860  44.2976
    45.2928  46.5009  46.7738  47.2035  47.8749

          k = 0.2000 0.2000 0.3103 (  1793 PWs)   bands (ev):

   -47.5798 -47.5705 -23.8907 -23.8852 -23.8606 -23.8348 -23.7796 -23.7491
    -8.3688  -7.5842  -7.4306  -7.2582   4.1005   4.7018   4.7385   5.1791
     5.6290   5.9659   6.7644   6.8868   7.2976   7.9717   8.1213   8.7406
    11.5871  11.7898  12.1717  12.4849  12.4970  13.2938  14.4999  15.0322
    15.5298  16.3394  19.1337  21.9360  22.4479  24.4072  24.5463  25.3617
    26.7835  27.2763  28.5047  28.6174  29.6245  30.8602  31.3735  33.1522
    34.1013  34.1088  35.3657  35.5428  37.0004  38.0394  38.0435  38.6766
    39.4902  40.2829  41.2861  41.9628  43.9448  44.4834  44.9382  45.5534
    45.9548  46.7853  47.4277  47.5914  47.8995

          k = 0.2000 0.2000 0.6207 (  1790 PWs)   bands (ev):

   -47.5532 -47.5497 -24.1283 -24.1176 -23.8062 -23.7797 -23.7666 -23.7523
    -7.8709  -7.5487  -7.5310  -7.2037   4.4645   4.8732   4.8942   5.0573
     5.3535   6.3250   6.6087   6.8767   6.8882   7.6354   7.7877   8.2029
    11.4325  12.3182  12.3316  12.5017  12.6856  13.2687  14.2255  15.1416
    15.3441  16.2477  20.7542  22.5933  22.9730  24.5085  24.9985  25.5893
    25.9267  26.9165  27.3694  27.7705  28.1397  30.1446  30.9473  32.6376
    34.4808  34.6925  35.4010  37.0765  37.4654  38.1731  38.2943  39.1993
    40.8279  40.9324  41.5584  42.4272  42.8848  44.0775  44.3379  45.5451
    46.4204  46.5774  47.5697  48.1611  48.3581

          k = 0.2000 0.4000 0.0000 (  1786 PWs)   bands (ev):

   -47.5920 -47.5876 -23.9232 -23.8891 -23.8035 -23.7682 -23.6995 -23.6901
    -8.4366  -8.0778  -7.2863  -7.1699   3.8537   4.2556   5.3786   5.4325
     5.4674   6.2349   6.5979   7.2106   7.5516   7.9040   8.0733   8.5362
    11.4837  11.8153  11.9795  12.2709  12.7179  13.2089  14.9005  15.6530
    15.7559  15.8559  19.2688  20.3940  22.1496  23.3626  24.4016  24.8793
    27.4874  28.1084  29.8110  30.3710  30.3913  31.4579  31.9298  32.0600
    32.1969  33.1146  34.5739  36.0809  36.1195  37.2365  38.2172  38.9433
    41.2285  41.3023  41.3729  42.0532  42.4607  43.5205  45.0609  45.7348
    46.1388  46.4563  46.6554  47.2276  47.5630

          k = 0.2000 0.4000 0.3103 (  1789 PWs)   bands (ev):

   -47.5769 -47.5734 -23.8925 -23.8819 -23.8599 -23.8357 -23.7764 -23.7563
    -8.1197  -7.8060  -7.4159  -7.3261   4.2907   4.7083   4.7696   4.9587
     5.9957   6.2451   6.5602   6.9747   7.1411   7.6349   8.1059   8.4145
    11.8399  11.9682  12.1415  12.4309  12.7079  12.9942  14.7199  15.0417
    15.5667  15.9985  20.0242  21.0874  23.0930  24.1687  24.6843  24.8214
    26.7792  27.0944  27.9674  28.7279  29.6262  30.2806  31.7813  33.3874
    33.8258  34.1145  35.6251  35.8652  36.8019  37.1233  38.2488  38.9667
    40.0482  40.7688  41.7482  42.4363  43.4289  44.6803  44.8811  45.7572
    46.7107  47.2150  47.5247  47.8711  48.1554

          k = 0.2000 0.4000 0.6207 (  1788 PWs)   bands (ev):

   -47.5521 -47.5507 -24.1277 -24.1221 -23.8001 -23.7834 -23.7640 -23.7549
    -7.8464  -7.7233  -7.3517  -7.2210   4.3278   4.4831   4.9698   5.1265
     5.5013   6.1035   6.6388   6.7862   7.3510   7.6454   8.0740   8.4145
    11.3573  11.7714  12.4261  12.5203  12.8468  13.1415  14.2996  14.7168
    15.9001  16.2993  21.0309  21.7710  23.0514  23.8723  25.0443  25.3760
    26.5272  26.7651  26.9547  27.5950  28.5330  29.4843  31.8065  33.1227
    34.5555  34.9641  35.2237  36.4151  37.6084  37.8663  38.8385  39.9522
    40.1455  41.2880  42.4901  42.5801  43.5331  44.0531  44.3726  45.4648
    46.1146  46.5722  47.1372  48.1640  48.5700

          k = 0.4000 0.4000 0.0000 (  1798 PWs)   bands (ev):

   -47.5906 -47.5889 -23.9419 -23.9276 -23.7653 -23.7503 -23.6965 -23.6929
    -8.3582  -8.2237  -7.2116  -7.1515   3.6718   3.8655   5.3276   5.3578
     5.9465   6.4226   6.9888   7.4232   7.7944   7.8018   7.9637   8.3547
    11.2198  11.4725  11.8118  11.9866  13.0057  13.1854  15.0360  15.3633
    15.8523  15.9667  20.0997  20.7093  22.2068  22.9429  24.0426  24.2716
    27.5844  27.8846  30.4142  30.7457  31.0255  31.0954  31.1743  31.5859
    32.2621  32.6807  35.5264  35.7675  36.3102  36.8844  38.7497  39.3356
    40.8686  40.9808  41.5246  41.9002  42.1876  42.2275  45.6077  46.3952
    46.7455  46.7939  46.8140  47.1412  48.9256

          k = 0.4000 0.4000 0.3103 (  1785 PWs)   bands (ev):

   -47.5758 -47.5744 -23.8971 -23.8928 -23.8627 -23.8522 -23.7542 -23.7454
    -8.0379  -7.9223  -7.3652  -7.3240   4.1108   4.3025   4.6819   4.7574
     6.5547   6.7382   6.8276   7.3140   7.4802   7.6011   7.7894   7.9169
    11.7703  11.9860  11.9892  12.1681  12.7186  12.8384  15.0712  15.3017
    15.5247  15.6975  20.6081  21.1341  22.8908  23.4760  24.6552  24.6707
    26.8680  26.8918  28.1635  28.3744  29.6361  30.2009  32.1858  33.1948
    33.6474  33.7407  36.1413  36.6838  37.0897  37.5773  37.9889  38.2197
    40.7648  41.1940  42.0086  42.1205  43.6953  43.9161  45.0209  45.1901
    47.3711  47.4760  47.8540  48.0975  48.5047

          k = 0.4000 0.4000 0.6207 (  1776 PWs)   bands (ev):

   -47.5516 -47.5511 -24.1208 -24.1173 -23.8094 -23.8018 -23.7543 -23.7515
    -7.7350  -7.6029  -7.4694  -7.3328   4.3559   4.5207   4.7284   4.8590
     5.6228   5.8758   6.6988   6.7253   7.6789   7.8366   8.3393   8.5054
    11.6680  12.0658  12.3801  12.4325  12.4915  12.8166  14.7036  15.2991
    15.3314  15.9078  20.9835  21.3024  23.0882  23.8372  24.2067  24.8349
    26.5448  26.6888  27.5822  27.9676  28.8372  29.3770  32.4671  33.4216
    34.4053  34.4358  34.8914  35.6764  38.0611  38.1483  39.7803  40.5626
    41.8431  42.2531  42.7165  43.1981  43.3294  43.9675  44.1272  44.7609
    45.5879  46.3166  47.0280  47.8014  48.0897

 ------ SPIN DOWN ----------


          k = 0.0000 0.0000 0.0000 (  1819 PWs)   bands (ev):

   -47.5985 -47.5810 -23.9297 -23.9297 -23.7577 -23.7577 -23.7136 -23.6762
    -8.9800  -7.7956  -7.0302  -7.0302   3.4484   3.8604   4.2909   5.3922
     5.3922   6.6946   6.6946   7.2633   8.5481   8.8079   8.8079   9.2542
    11.1657  11.4818  11.6981  11.7921  11.7921  13.7198  13.8872  15.9767
    15.9767  16.9640  17.2281  20.9822  20.9822  23.8466  24.9530  25.9300
    27.6821  28.6897  28.7795  28.7795  30.6733  32.3099  33.3994  33.3994
    34.4025  34.9920  34.9920  35.3339  35.5352  35.5352  36.2082  38.1116
    40.8100  41.2237  41.4504  41.7336  41.7336  42.8767  43.2835  43.2835
    45.4563  45.9108  45.9108  46.3583  48.9604

          k = 0.0000 0.0000 0.3103 (  1807 PWs)   bands (ev):

   -47.5823 -47.5681 -23.8867 -23.8867 -23.8743 -23.8459 -23.7512 -23.7512
    -8.5795  -7.5806  -7.2165  -7.2165   3.9986   4.2691   4.7485   5.1351
     5.1351   6.2665   7.2456   7.2967   7.2967   8.0918   8.0918   8.9925
    11.5209  11.7614  11.8984  12.2492  12.2492  13.5659  14.2276  15.5286
    15.5286  16.3593  18.3705  22.3810  22.3810  23.9514  24.4334  26.4394
    27.0534  27.5657  28.2463  28.2463  29.1874  32.5465  32.7150  32.7150
    34.1887  34.1887  34.5944  35.3555  36.1552  38.2859  38.3416  38.3416
    39.4805  39.4805  40.4070  41.0624  43.8142  44.8071  44.8071  44.8743
    45.1338  47.1698  47.1698  47.4385  48.3485

          k = 0.0000 0.0000 0.6207 (  1784 PWs)   bands (ev):

   -47.5541 -47.5487 -24.1225 -24.1127 -23.8042 -23.8042 -23.7527 -23.7527
    -7.7779  -7.5146  -7.5146  -7.3662   4.7632   4.7927   5.3500   5.3500
     5.4097   5.8395   6.0228   6.8202   6.8202   7.7322   7.7784   7.7784
    11.8424  12.1857  12.5650  12.7399  12.8862  12.8862  14.7469  15.1313
    15.3504  15.3504  20.6530  22.8103  24.3934  24.4452  24.4452  25.3592
    27.0297  27.0297  27.2517  27.3124  28.0374  29.9530  32.0162  32.0162
    34.3634  34.3634  35.6852  36.3235  36.5941  38.2806  38.7805  38.7805
    39.3416  41.5169  41.5169  41.8472  44.6544  44.6544  44.6909  44.7265
    46.8738  47.6082  47.6082  47.6488  47.6488

          k = 0.0000 0.2000 0.0000 (  1791 PWs)   bands (ev):

   -47.5969 -47.5827 -23.9167 -23.9155 -23.7735 -23.7722 -23.7100 -23.6797
    -8.8380  -7.8070  -7.1644  -7.0852   3.7007   4.0199   4.5565   5.4080
     5.4181   6.4585   6.6264   7.2862   8.1298   8.3021   8.5162   9.1065
    11.3759  11.7299  11.9459  11.9758  12.0019  13.6812  14.0349  15.8471
    15.8725  16.7136  17.7085  20.8423  21.2921  23.8899  24.7010  25.7265
    27.5005  28.6888  29.0618  29.2551  31.0414  31.7862  32.1068  32.1605
    33.5090  34.6998  35.2189  35.4074  35.7580  36.2408  38.3507  38.8229
    39.6274  40.9876  41.7834  41.9609  42.0098  42.9799  43.6539  44.4166
    45.4050  46.1315  46.5350  47.1458  48.2914

          k = 0.0000 0.2000 0.3103 (  1793 PWs)   bands (ev):

   -47.5809 -47.5694 -23.8950 -23.8767 -23.8539 -23.8530 -23.7615 -23.7579
    -8.4628  -7.5674  -7.3427  -7.2533   4.1850   4.4452   4.7602   5.0988
     5.4697   6.1538   6.6563   7.2219   7.2417   8.0455   8.0594   8.8829
    11.5452  12.0237  12.0484  12.2025  12.4399  13.4134  14.4303  15.1792
    15.4521  16.4377  18.7652  21.9597  22.6060  24.2303  24.5104  26.0485
    26.8344  27.4146  27.6377  28.9855  29.5920  31.3674  31.8089  33.0006
    34.0624  34.0796  35.5344  35.8693  36.2769  37.7254  38.1471  38.4868
    39.3131  40.0669  40.8107  42.1312  43.7856  44.3562  45.3124  45.4266
    45.5224  46.5073  46.8010  47.6527  47.8289

          k = 0.0000 0.2000 0.6207 (  1777 PWs)   bands (ev):

   -47.5536 -47.5492 -24.1259 -24.1178 -23.7980 -23.7960 -23.7568 -23.7549
    -7.8355  -7.6563  -7.4127  -7.2576   4.6450   4.7578   4.9066   5.2254
     5.6954   5.8736   6.4629   6.8366   6.9989   7.6025   7.7012   8.0095
    11.5762  12.2378  12.3009  12.5675  13.0077  13.0905  14.5683  14.6126
    15.6532  15.9919  20.7200  22.5645  23.7483  24.6353  24.9469  25.2125
    26.4786  26.6390  27.3447  27.5484  28.5037  29.5219  31.7253  32.2423
    34.5469  34.7513  35.8670  36.3174  36.9651  38.1837  38.4005  39.0261
    39.9266  41.0313  41.3249  42.0505  43.3263  44.7180  45.1505  45.3430
    46.2227  46.9851  47.1644  48.0282  48.5359

          k = 0.0000 0.4000 0.0000 (  1784 PWs)   bands (ev):

   -47.5924 -47.5870 -23.8852 -23.8829 -23.8085 -23.8062 -23.7007 -23.6891
    -8.4599  -8.0116  -7.3018  -7.2134   4.1642   4.2995   5.4163   5.4409
     5.4523   6.1050   6.3056   6.7792   7.4417   7.8205   8.3740   8.7035
    11.7269  11.8985  12.2388  12.2936  12.5520  13.1756  14.9126  15.6410
    15.6702  15.9491  18.8715  20.1035  22.2016  23.3918  24.8315  25.4027
    27.4543  28.3704  28.8710  29.9460  30.0724  31.3184  31.9971  32.4840
    33.2580  33.5458  35.2449  35.2970  36.4201  36.8881  37.6370  37.7640
    41.3709  41.6806  42.0328  42.4358  42.7476  43.4866  44.9070  45.6739
    46.1213  46.4769  47.0649  47.1377  47.3314

          k = 0.0000 0.4000 0.3103 (  1788 PWs)   bands (ev):

   -47.5773 -47.5729 -23.8916 -23.8760 -23.8451 -23.8314 -23.7820 -23.7750
    -8.1496  -7.7517  -7.4347  -7.3434   4.5895   4.7726   4.9579   5.0527
     5.8238   5.9642   6.3081   6.7334   6.9417   7.5340   8.3356   8.6360
    11.8213  12.0714  12.3310  12.4037  12.7628  13.0543  14.6704  14.7626
    15.5866  16.1412  19.7730  20.9553  23.3315  24.2585  24.8731  25.5399
    26.4930  26.7343  27.5886  28.8279  29.9179  30.6849  31.6197  33.2268
    34.0449  34.2241  35.5921  36.1540  36.2447  36.8996  38.5150  38.7809
    39.0446  40.5152  41.6256  42.4678  43.8924  44.3417  45.3533  46.5166
    46.5306  46.7974  47.4794  47.7210  48.0748

          k = 0.0000 0.4000 0.6207 (  1786 PWs)   bands (ev):

   -47.5522 -47.5505 -24.1300 -24.1268 -23.7836 -23.7784 -23.7681 -23.7631
    -7.8710  -7.8083  -7.2654  -7.1995   4.3602   4.4585   5.0325   5.2195
     5.7351   6.1993   6.3598   6.8979   7.3594   7.3919   7.8941   8.3135
    11.2704  11.5940  12.4612  12.5578  13.1444  13.1653  14.2639  14.3611
    16.1876  16.3895  21.0887  21.8358  23.6443  24.1352  25.2533  25.5980
    25.9380  26.1602  27.4891  27.9876  28.3201  28.6061  32.1475  32.7987
    35.1239  35.2922  36.2230  36.2983  37.3703  37.4578  38.1242  38.3851
    39.3244  40.2998  42.3834  42.6958  44.1047  44.4225  45.4722  45.6818
    45.9773  46.4509  48.2499  48.2659  48.6636

          k = 0.2000 0.2000 0.0000 (  1800 PWs)   bands (ev):

   -47.5955 -47.5840 -23.9343 -23.8813 -23.8096 -23.7549 -23.7071 -23.6826
    -8.7283  -7.8481  -7.2699  -7.0776   3.6428   4.3079   4.7764   5.3673
     5.4559   6.2174   6.7709   7.3374   7.7504   8.2029   8.3416   8.9981
    11.2491  11.7993  11.8816  12.2268  12.2694  13.5639  14.2358  15.6548
    15.9730  16.4491  18.1951  21.0376  21.2677  23.9312  24.3868  25.3687
    27.4414  28.5541  29.4185  29.9104  31.3178  31.5232  31.9497  32.0072
    32.0483  34.1264  34.3048  35.6007  36.8961  37.1046  38.8378  39.2755
    39.4137  40.7500  41.1399  42.0083  42.9586  43.1853  44.2863  44.2978
    45.2931  46.5011  46.7740  47.2037  48.0663

          k = 0.2000 0.2000 0.3103 (  1793 PWs)   bands (ev):

   -47.5798 -47.5705 -23.8906 -23.8852 -23.8606 -23.8347 -23.7795 -23.7490
    -8.3688  -7.5843  -7.4307  -7.2583   4.1005   4.7018   4.7386   5.1791
     5.6290   5.9659   6.7643   6.8867   7.2975   7.9717   8.1211   8.7403
    11.5872  11.7898  12.1717  12.4849  12.4970  13.2939  14.4999  15.0323
    15.5298  16.3394  19.1338  21.9361  22.4481  24.4074  24.5465  25.3618
    26.7837  27.2765  28.5049  28.6176  29.6247  30.8604  31.3738  33.1524
    34.1016  34.1090  35.3659  35.5431  37.0006  38.0396  38.0438  38.6768
    39.4904  40.2832  41.2864  41.9630  43.9451  44.4837  44.9384  45.5536
    45.9550  46.7854  47.4280  47.5916  47.8998

          k = 0.2000 0.2000 0.6207 (  1790 PWs)   bands (ev):

   -47.5532 -47.5496 -24.1283 -24.1176 -23.8061 -23.7796 -23.7665 -23.7522
    -7.8710  -7.5488  -7.5311  -7.2038   4.4646   4.8732   4.8942   5.0573
     5.3535   6.3250   6.6087   6.8767   6.8882   7.6353   7.7876   8.2028
    11.4326  12.3181  12.3317  12.5016  12.6855  13.2687  14.2256  15.1416
    15.3441  16.2477  20.7544  22.5935  22.9732  24.5086  24.9987  25.5896
    25.9270  26.9167  27.3696  27.7708  28.1399  30.1448  30.9475  32.6378
    34.4810  34.6927  35.4012  37.0767  37.4656  38.1734  38.2945  39.1995
    40.8281  40.9327  41.5586  42.4274  42.8851  44.0778  44.3381  45.5452
    46.4206  46.5776  47.5699  48.1613  48.3583

          k = 0.2000 0.4000 0.0000 (  1786 PWs)   bands (ev):

   -47.5919 -47.5875 -23.9232 -23.8890 -23.8034 -23.7681 -23.6995 -23.6901
    -8.4367  -8.0779  -7.2864  -7.1700   3.8537   4.2556   5.3786   5.4325
     5.4674   6.2349   6.5979   7.2105   7.5515   7.9040   8.0731   8.5360
    11.4837  11.8153  11.9796  12.2709  12.7180  13.2089  14.9005  15.6530
    15.7559  15.8559  19.2689  20.3941  22.1498  23.3628  24.4019  24.8796
    27.4875  28.1086  29.8112  30.3713  30.3916  31.4582  31.9301  32.0602
    32.1971  33.1148  34.5741  36.0812  36.1197  37.2368  38.2174  38.9435
    41.2288  41.3025  41.3732  42.0534  42.4610  43.5208  45.0611  45.7350
    46.1390  46.4565  46.6556  47.2278  47.5631

          k = 0.2000 0.4000 0.3103 (  1789 PWs)   bands (ev):

   -47.5769 -47.5733 -23.8924 -23.8818 -23.8598 -23.8356 -23.7763 -23.7562
    -8.1198  -7.8061  -7.4160  -7.3263   4.2908   4.7083   4.7697   4.9587
     5.9957   6.2450   6.5602   6.9747   7.1410   7.6349   8.1058   8.4143
    11.8400  11.9682  12.1415  12.4309  12.7079  12.9943  14.7199  15.0418
    15.5667  15.9984  20.0243  21.0875  23.0932  24.1689  24.6845  24.8216
    26.7795  27.0946  27.9676  28.7281  29.6264  30.2808  31.7815  33.3876
    33.8260  34.1148  35.6254  35.8654  36.8021  37.1235  38.2490  38.9670
    40.0484  40.7690  41.7485  42.4366  43.4291  44.6805  44.8813  45.7574
    46.7109  47.2152  47.5249  47.8713  48.1552

          k = 0.2000 0.4000 0.6207 (  1788 PWs)   bands (ev):

   -47.5520 -47.5507 -24.1277 -24.1221 -23.8000 -23.7833 -23.7639 -23.7548
    -7.8465  -7.7234  -7.3519  -7.2211   4.3278   4.4831   4.9698   5.1265
     5.5013   6.1034   6.6387   6.7862   7.3509   7.6453   8.0739   8.4144
    11.3575  11.7715  12.4260  12.5202  12.8468  13.1415  14.2996  14.7168
    15.9001  16.2993  21.0311  21.7711  23.0516  23.8725  25.0445  25.3762
    26.5274  26.7653  26.9550  27.5952  28.5332  29.4846  31.8067  33.1229
    34.5557  34.9643  35.2239  36.4153  37.6086  37.8665  38.8387  39.9524
    40.1458  41.2882  42.4903  42.5803  43.5333  44.0533  44.3729  45.4650
    46.1148  46.5724  47.1374  48.1641  48.5702

          k = 0.4000 0.4000 0.0000 (  1798 PWs)   bands (ev):

   -47.5905 -47.5888 -23.9418 -23.9276 -23.7652 -23.7502 -23.6965 -23.6930
    -8.3583  -8.2238  -7.2117  -7.1516   3.6718   3.8655   5.3277   5.3578
     5.9464   6.4225   6.9887   7.4231   7.7943   7.8018   7.9636   8.3546
    11.2198  11.4724  11.8119  11.9867  13.0058  13.1854  15.0360  15.3633
    15.8523  15.9667  20.0998  20.7093  22.2070  22.9430  24.0429  24.2719
    27.5846  27.8848  30.4144  30.7459  31.0257  31.0957  31.1746  31.5861
    32.2623  32.6809  35.5266  35.7678  36.3105  36.8846  38.7499  39.3358
    40.8689  40.9811  41.5248  41.9004  42.1879  42.2278  45.6079  46.3954
    46.7457  46.7941  46.8142  47.1414  48.9258

          k = 0.4000 0.4000 0.3103 (  1785 PWs)   bands (ev):

   -47.5757 -47.5744 -23.8970 -23.8927 -23.8627 -23.8522 -23.7541 -23.7453
    -8.0380  -7.9224  -7.3653  -7.3241   4.1109   4.3025   4.6819   4.7574
     6.5546   6.7381   6.8276   7.3139   7.4801   7.6010   7.7893   7.9168
    11.7703  11.9861  11.9892  12.1682  12.7187  12.8384  15.0712  15.3017
    15.5248  15.6974  20.6082  21.1342  22.8910  23.4762  24.6555  24.6710
    26.8683  26.8920  28.1637  28.3747  29.6364  30.2012  32.1860  33.1950
    33.6476  33.7409  36.1415  36.6840  37.0900  37.5775  37.9891  38.2199
    40.7650  41.1942  42.0089  42.1207  43.6955  43.9163  45.0212  45.1903
    47.3713  47.4762  47.8541  48.0977  48.5999

          k = 0.4000 0.4000 0.6207 (  1776 PWs)   bands (ev):

   -47.5516 -47.5511 -24.1208 -24.1173 -23.8093 -23.8017 -23.7542 -23.7514
    -7.7351  -7.6030  -7.4695  -7.3330   4.3559   4.5208   4.7284   4.8591
     5.6228   5.8757   6.6988   6.7253   7.6788   7.8365   8.3391   8.5053
    11.6681  12.0659  12.3800  12.4325  12.4915  12.8166  14.7037  15.2991
    15.3315  15.9078  20.9838  21.3026  23.0884  23.8375  24.2069  24.8351
    26.5449  26.6890  27.5825  27.9679  28.8375  29.3773  32.4673  33.4218
    34.4056  34.4360  34.8915  35.6766  38.0612  38.1485  39.7805  40.5628
    41.8433  42.2533  42.7167  43.1984  43.3296  43.9677  44.1275  44.7611
    45.5881  46.3168  47.0282  47.8015  48.0899

     the Fermi energy is     9.3339 ev

!    total energy              =    -366.49616935 Ry
     Harris-Foulkes estimate   =    -366.49616960 Ry
     estimated scf accuracy    <       0.00000028 Ry

     The total energy is the sum of the following terms:

     one-electron contribution =    -123.98680831 Ry
     hartree contribution      =      85.76167817 Ry
     xc contribution           =     -63.35548815 Ry
     ewald contribution        =    -264.91557469 Ry
     smearing contrib. (-TS)   =       0.00002362 Ry

     total magnetization       =    -0.00 Bohr mag/cell
     absolute magnetization    =     0.00 Bohr mag/cell

     convergence has been achieved in  10 iterations

     Forces acting on atoms (Ry/au):


     negative rho (up, down):  0.127E-01 0.127E-01
     atom    1 type  1   force =     0.00000000    0.00000000    0.00000000
     atom    2 type  1   force =     0.00000000    0.00000000    0.00000000
     atom    3 type  2   force =    -0.00408621   -0.00408621    0.00000000
     atom    4 type  2   force =     0.00408621    0.00408621    0.00000000
     atom    5 type  2   force =    -0.00408621    0.00408621    0.00000000
     atom    6 type  2   force =     0.00408621   -0.00408621    0.00000000

     Total force =     0.011558     Total SCF correction =     0.000170


     entering subroutine stress ...


     negative rho (up, down):  0.127E-01 0.127E-01
          total   stress  (Ry/bohr**3)                   (kbar)     P=   62.89
   0.00043511   0.00000000   0.00000000         64.01      0.00      0.00
   0.00000000   0.00043511   0.00000000          0.00     64.01      0.00
   0.00000000   0.00000000   0.00041239          0.00      0.00     60.66

     Volume is kept fixed: isostatic pressure set to zero

     BFGS Geometry Optimization

     number of scf cycles    =   1
     number of bfgs steps    =   0

     enthalpy new            =    -366.4961693525 Ry

     new trust radius        =       0.0057787676 bohr
     new conv_thr            =       0.0000010000 Ry

     new unit-cell volume =    418.39674 a.u.^3 (    62.00000 Ang^3 )

CELL_PARAMETERS (alat=  8.65899730)
   1.000189404   0.000000000   0.000000000
   0.000000000   1.000189404   0.000000000
   0.000000000   0.000000000   0.644200393

ATOMIC_POSITIONS (crystal)
Ti0      0.000000000   0.000000000   0.000000000    0   0   0
Ti0      0.500000000   0.500000000   0.500000000    0   0   0
O1       0.304528097   0.304528097   0.000000000    1   1   0
O1      -0.304528097  -0.304528097   0.000000000    1   1   0
O1       0.804528097   0.195471903   0.500000000    1   1   0
O1       0.195471903   0.804528097   0.500000000    1   1   0


     Check: negative starting charge=(component1):   -0.025450
     NEW-OLD atomic charge density approx. for the potential
     NEW k-points:
        k(    1) = (   0.0000000   0.0000000   0.0000000), wk =   0.0080000
        k(    2) = (   0.0000000   0.0000000   0.3104624), wk =   0.0160000
        k(    3) = (   0.0000000   0.0000000   0.6209248), wk =   0.0160000
        k(    4) = (   0.0000000   0.1999621   0.0000000), wk =   0.0320000
        k(    5) = (   0.0000000   0.1999621   0.3104624), wk =   0.0640000
        k(    6) = (   0.0000000   0.1999621   0.6209248), wk =   0.0640000
        k(    7) = (   0.0000000   0.3999243   0.0000000), wk =   0.0320000
        k(    8) = (   0.0000000   0.3999243   0.3104624), wk =   0.0640000
        k(    9) = (   0.0000000   0.3999243   0.6209248), wk =   0.0640000
        k(   10) = (   0.1999621   0.1999621   0.0000000), wk =   0.0320000
        k(   11) = (   0.1999621   0.1999621   0.3104624), wk =   0.0640000
        k(   12) = (   0.1999621   0.1999621   0.6209248), wk =   0.0640000
        k(   13) = (   0.1999621   0.3999243   0.0000000), wk =   0.0640000
        k(   14) = (   0.1999621   0.3999243   0.3104624), wk =   0.1280000
        k(   15) = (   0.1999621   0.3999243   0.6209248), wk =   0.1280000
        k(   16) = (   0.3999243   0.3999243   0.0000000), wk =   0.0320000
        k(   17) = (   0.3999243   0.3999243   0.3104624), wk =   0.0640000
        k(   18) = (   0.3999243   0.3999243   0.6209248), wk =   0.0640000
        k(   19) = (   0.0000000   0.0000000   0.0000000), wk =   0.0080000
        k(   20) = (   0.0000000   0.0000000   0.3104624), wk =   0.0160000
        k(   21) = (   0.0000000   0.0000000   0.6209248), wk =   0.0160000
        k(   22) = (   0.0000000   0.1999621   0.0000000), wk =   0.0320000
        k(   23) = (   0.0000000   0.1999621   0.3104624), wk =   0.0640000
        k(   24) = (   0.0000000   0.1999621   0.6209248), wk =   0.0640000
        k(   25) = (   0.0000000   0.3999243   0.0000000), wk =   0.0320000
        k(   26) = (   0.0000000   0.3999243   0.3104624), wk =   0.0640000
        k(   27) = (   0.0000000   0.3999243   0.6209248), wk =   0.0640000
        k(   28) = (   0.1999621   0.1999621   0.0000000), wk =   0.0320000
        k(   29) = (   0.1999621   0.1999621   0.3104624), wk =   0.0640000
        k(   30) = (   0.1999621   0.1999621   0.6209248), wk =   0.0640000
        k(   31) = (   0.1999621   0.3999243   0.0000000), wk =   0.0640000
        k(   32) = (   0.1999621   0.3999243   0.3104624), wk =   0.1280000
        k(   33) = (   0.1999621   0.3999243   0.6209248), wk =   0.1280000
        k(   34) = (   0.3999243   0.3999243   0.0000000), wk =   0.0320000
        k(   35) = (   0.3999243   0.3999243   0.3104624), wk =   0.0640000
        k(   36) = (   0.3999243   0.3999243   0.6209248), wk =   0.0640000

     Check: negative/imaginary core charge=   -0.000014    0.000000
     Check: negative starting charge=(component1):   -0.025451

     negative rho (up, down):  0.127E-01 0.127E-01

     total cpu time spent up to now is      208.8 secs

     per-process dynamical memory:    46.6 Mb

     Self-consistent Calculation

     iteration #  1     ecut=    40.00 Ry     beta=0.70
     Davidson diagonalization with overlap
     ethr =  1.00E-06,  avg # of iterations =  3.3

     Threshold (ethr) on eigenvalues was too large:
     Diagonalizing with lowered threshold

     Davidson diagonalization with overlap
     ethr =  5.89E-08,  avg # of iterations =  1.0

     negative rho (up, down):  0.127E-01 0.127E-01

     total cpu time spent up to now is      244.8 secs

     total energy              =    -366.49626722 Ry
     Harris-Foulkes estimate   =    -366.49628514 Ry
     estimated scf accuracy    <       0.00002840 Ry

     total magnetization       =    -0.00 Bohr mag/cell
     absolute magnetization    =     0.00 Bohr mag/cell

     iteration #  2     ecut=    40.00 Ry     beta=0.70
     Davidson diagonalization with overlap
     ethr =  5.92E-08,  avg # of iterations =  2.0

     negative rho (up, down):  0.127E-01 0.127E-01

     total cpu time spent up to now is      259.9 secs

     total energy              =    -366.49626263 Ry
     Harris-Foulkes estimate   =    -366.49628616 Ry
     estimated scf accuracy    <       0.00005417 Ry

     total magnetization       =    -0.00 Bohr mag/cell
     absolute magnetization    =     0.00 Bohr mag/cell

     iteration #  3     ecut=    40.00 Ry     beta=0.70
     Davidson diagonalization with overlap
     ethr =  5.92E-08,  avg # of iterations =  1.1

     negative rho (up, down):  0.127E-01 0.127E-01

     total cpu time spent up to now is      273.4 secs

     total energy              =    -366.49627530 Ry
     Harris-Foulkes estimate   =    -366.49627857 Ry
     estimated scf accuracy    <       0.00001052 Ry

     total magnetization       =    -0.00 Bohr mag/cell
     absolute magnetization    =     0.00 Bohr mag/cell

     iteration #  4     ecut=    40.00 Ry     beta=0.70
     Davidson diagonalization with overlap
     ethr =  2.19E-08,  avg # of iterations =  1.0

     negative rho (up, down):  0.127E-01 0.127E-01

     total cpu time spent up to now is      286.9 secs

     End of self-consistent calculation

 ------ SPIN UP ------------


          k = 0.0000 0.0000 0.0000 (  1819 PWs)   bands (ev):

   -47.6003 -47.5828 -23.9310 -23.9310 -23.7597 -23.7597 -23.7152 -23.6778
    -8.9779  -7.7913  -7.0336  -7.0336   3.4505   3.8638   4.2856   5.4067
     5.4067   6.6931   6.6931   7.2645   8.5504   8.8052   8.8052   9.2616
    11.1569  11.4597  11.6901  11.7913  11.7913  13.7269  13.8885  15.9543
    15.9543  16.9789  17.2206  20.9758  20.9758  23.8601  24.9551  25.8963
    27.6602  28.6987  28.7905  28.7905  30.6726  32.3365  33.4023  33.4023
    34.4115  34.9842  34.9842  35.3027  35.5533  35.5533  36.1822  38.1130
    40.8187  41.2287  41.4597  41.7470  41.7470  42.8938  43.2835  43.2835
    45.4220  45.9153  45.9153  46.3296  48.9461

          k = 0.0000 0.0000 0.3105 (  1807 PWs)   bands (ev):

   -47.5841 -47.5699 -23.8881 -23.8881 -23.8754 -23.8471 -23.7531 -23.7531
    -8.5790  -7.5787  -7.2177  -7.2177   3.9997   4.2703   4.7434   5.1399
     5.1399   6.2678   7.2476   7.2998   7.2998   8.0878   8.0878   8.9947
    11.5197  11.7473  11.8922  12.2446  12.2446  13.5687  14.2332  15.5125
    15.5125  16.3757  18.3671  22.3783  22.3783  23.9632  24.4393  26.4008
    27.0562  27.5475  28.2606  28.2606  29.1860  32.5604  32.7091  32.7091
    34.1935  34.1935  34.5826  35.3325  36.1349  38.2937  38.3494  38.3494
    39.4947  39.4947  40.4113  41.0422  43.8214  44.7987  44.7987  44.8657
    45.1535  47.1931  47.1931  47.4595  48.3597

          k = 0.0000 0.0000 0.6209 (  1784 PWs)   bands (ev):

   -47.5559 -47.5505 -24.1232 -24.1134 -23.8062 -23.8062 -23.7540 -23.7540
    -7.7802  -7.5126  -7.5126  -7.3682   4.7587   4.7884   5.3482   5.3482
     5.4136   5.8426   6.0178   6.8115   6.8115   7.7282   7.7816   7.7816
    11.8487  12.1894  12.5698  12.7456  12.8776  12.8776  14.7519  15.1442
    15.3407  15.3407  20.6555  22.8172  24.4006  24.4543  24.4543  25.3614
    27.0459  27.0459  27.2123  27.2932  28.0270  29.9314  32.0038  32.0038
    34.3690  34.3690  35.6812  36.2928  36.5838  38.2468  38.7964  38.7964
    39.3517  41.5172  41.5172  41.8656  44.6744  44.6744  44.7040  44.7264
    46.8846  47.3904  47.6027  47.6039  47.6242

          k = 0.0000 0.2000 0.0000 (  1791 PWs)   bands (ev):

   -47.5987 -47.5845 -23.9179 -23.9166 -23.7756 -23.7743 -23.7116 -23.6813
    -8.8356  -7.8013  -7.1694  -7.0888   3.7042   4.0248   4.5518   5.4229
     5.4333   6.4536   6.6208   7.2862   8.1273   8.3029   8.5159   9.1128
    11.3662  11.7096  11.9467  11.9697  12.0035  13.6817  14.0409  15.8232
    15.8490  16.7190  17.7102  20.8397  21.2874  23.9000  24.7031  25.7018
    27.4789  28.6988  29.0713  29.2601  31.0418  31.7802  32.1311  32.1522
    33.5071  34.7126  35.2079  35.3921  35.7773  36.2384  38.3516  38.8051
    39.6463  40.9968  41.7937  41.9703  42.0159  42.9729  43.6605  44.4143
    45.4095  46.1265  46.5295  47.1229  48.2980

          k = 0.0000 0.2000 0.3105 (  1793 PWs)   bands (ev):

   -47.5827 -47.5712 -23.8964 -23.8781 -23.8550 -23.8540 -23.7636 -23.7598
    -8.4622  -7.5644  -7.3452  -7.2545   4.1861   4.4476   4.7592   5.1025
     5.4714   6.1558   6.6599   7.2164   7.2372   8.0479   8.0600   8.8869
    11.5422  12.0104  12.0414  12.1976  12.4381  13.4157  14.4359  15.1670
    15.4361  16.4461  18.7648  21.9615  22.6044  24.2384  24.5153  26.0222
    26.8386  27.3980  27.6458  28.9860  29.5956  31.3536  31.8000  33.0168
    34.0643  34.0855  35.5156  35.8584  36.2748  37.7230  38.1562  38.5010
    39.3243  40.0623  40.8077  42.1287  43.7711  44.3642  45.3039  45.4530
    45.5361  46.5195  46.8076  47.6698  47.8360

          k = 0.0000 0.2000 0.6209 (  1777 PWs)   bands (ev):

   -47.5554 -47.5510 -24.1265 -24.1185 -23.8000 -23.7979 -23.7581 -23.7563
    -7.8375  -7.6566  -7.4110  -7.2572   4.6446   4.7547   4.8997   5.2239
     5.6905   5.8753   6.4586   6.8294   6.9957   7.6067   7.7069   8.0066
    11.5797  12.2385  12.3026  12.5714  13.0022  13.0874  14.5672  14.6123
    15.6499  15.9949  20.7240  22.5735  23.7552  24.6450  24.9502  25.2183
    26.4541  26.6407  27.3349  27.5474  28.4975  29.5053  31.7097  32.2338
    34.5458  34.7535  35.8625  36.3000  36.9638  38.1778  38.4005  39.0306
    39.9158  41.0434  41.3309  42.0634  43.3371  44.7189  45.1699  45.3468
    46.2122  46.9674  47.1751  48.0370  48.5306

          k = 0.0000 0.3999 0.0000 (  1784 PWs)   bands (ev):

   -47.5942 -47.5888 -23.8858 -23.8834 -23.8113 -23.8089 -23.7022 -23.6907
    -8.4562  -8.0055  -7.3079  -7.2178   4.1721   4.3089   5.4132   5.4567
     5.4684   6.0929   6.2914   6.7750   7.4401   7.8193   8.3788   8.7096
    11.7148  11.8827  12.2431  12.2987  12.5484  13.1742  14.9160  15.6145
    15.6442  15.9519  18.8758  20.1068  22.1999  23.3929  24.8339  25.3916
    27.4358  28.3657  28.8768  29.9426  30.0841  31.3359  32.0007  32.4694
    33.2654  33.5328  35.2301  35.2850  36.4419  36.8904  37.6590  37.7604
    41.3905  41.6828  42.0361  42.4393  42.7468  43.4973  44.9012  45.6634
    46.1267  46.4765  47.0713  47.1261  47.3299

          k = 0.0000 0.3999 0.3105 (  1788 PWs)   bands (ev):

   -47.5791 -47.5747 -23.8930 -23.8776 -23.8457 -23.8318 -23.7847 -23.7773
    -8.1485  -7.7492  -7.4370  -7.3447   4.5928   4.7806   4.9595   5.0517
     5.8263   5.9646   6.3031   6.7261   6.9371   7.5345   8.3413   8.6416
    11.8165  12.0643  12.3247  12.3965  12.7635  13.0558  14.6653  14.7502
    15.5803  16.1433  19.7764  20.9601  23.3327  24.2622  24.8752  25.5278
    26.4973  26.7391  27.5701  28.8197  29.9071  30.6769  31.6221  33.2399
    34.0469  34.2209  35.5834  36.1392  36.2518  36.9078  38.5213  38.7830
    39.0477  40.5171  41.6386  42.4640  43.9014  44.3376  45.3551  46.5028
    46.5140  46.8272  47.4903  47.7365  48.0826

          k = 0.0000 0.3999 0.6209 (  1786 PWs)   bands (ev):

   -47.5540 -47.5523 -24.1307 -24.1275 -23.7854 -23.7803 -23.7694 -23.7645
    -7.8728  -7.8097  -7.2636  -7.1980   4.3603   4.4587   5.0210   5.2059
     5.7352   6.1992   6.3570   6.8961   7.3595   7.3973   7.8993   8.3142
    11.2700  11.5920  12.4643  12.5615  13.1407  13.1619  14.2590  14.3568
    16.1898  16.3938  21.0960  21.8457  23.6491  24.1404  25.2586  25.5932
    25.9214  26.1679  27.4719  27.9824  28.3103  28.5960  32.1398  32.7958
    35.1204  35.2895  36.2198  36.2832  37.3811  37.4563  38.1231  38.3868
    39.3243  40.3039  42.3869  42.7018  44.1148  44.4267  45.4680  45.6953
    45.9660  46.4287  48.2552  48.2718  48.6724

          k = 0.2000 0.2000 0.0000 (  1800 PWs)   bands (ev):

   -47.5973 -47.5858 -23.9356 -23.8818 -23.8124 -23.7568 -23.7087 -23.6842
    -8.7256  -7.8417  -7.2760  -7.0811   3.6452   4.3173   4.7725   5.3818
     5.4719   6.2031   6.7689   7.3367   7.7530   8.2038   8.3398   9.0002
    11.2369  11.7986  11.8647  12.2224  12.2741  13.5641  14.2408  15.6285
    15.9505  16.4533  18.1980  21.0366  21.2655  23.9394  24.3862  25.3544
    27.4212  28.5606  29.4285  29.9106  31.3193  31.5233  31.9290  32.0301
    32.0412  34.1195  34.3171  35.6164  36.8807  37.1070  38.8555  39.2780
    39.3939  40.7657  41.1505  41.9890  42.9720  43.1899  44.2699  44.3108
    45.3061  46.5044  46.7582  47.1903  47.8770

          k = 0.2000 0.2000 0.3105 (  1793 PWs)   bands (ev):

   -47.5816 -47.5723 -23.8921 -23.8866 -23.8617 -23.8353 -23.7820 -23.7508
    -8.3681  -7.5800  -7.4345  -7.2596   4.1012   4.7035   4.7439   5.1809
     5.6281   5.9674   6.7635   6.8825   7.2992   7.9651   8.1256   8.7453
    11.5831  11.7809  12.1610  12.4822  12.4956  13.2960  14.5004  15.0243
    15.5136  16.3456  19.1351  21.9396  22.4485  24.4122  24.5508  25.3472
    26.7911  27.2577  28.5037  28.6228  29.6230  30.8450  31.3635  33.1679
    34.0984  34.1129  35.3535  35.5434  36.9914  38.0501  38.0503  38.6846
    39.4958  40.2781  41.2745  41.9702  43.9322  44.4906  44.9545  45.5577
    45.9763  46.7905  47.4147  47.5955  47.9078

          k = 0.2000 0.2000 0.6209 (  1790 PWs)   bands (ev):

   -47.5549 -47.5514 -24.1290 -24.1183 -23.8081 -23.7814 -23.7679 -23.7535
    -7.8730  -7.5470  -7.5326  -7.2024   4.4648   4.8717   4.8888   5.0524
     5.3462   6.3326   6.6005   6.8712   6.8825   7.6449   7.7894   8.2003
    11.4351  12.3215  12.3361  12.4961  12.6847  13.2652  14.2208  15.1514
    15.3344  16.2506  20.7589  22.6019  22.9799  24.5189  25.0013  25.5731
    25.9311  26.9143  27.3426  27.7787  28.1398  30.1337  30.9315  32.6268
    34.4776  34.6942  35.3954  37.0675  37.4677  38.1652  38.2988  39.2019
    40.8187  40.9336  41.5703  42.4411  42.8862  44.0807  44.3450  45.5387
    46.4212  46.5886  47.5737  48.1546  48.3566

          k = 0.2000 0.3999 0.0000 (  1786 PWs)   bands (ev):

   -47.5937 -47.5893 -23.9243 -23.8896 -23.8060 -23.7702 -23.7011 -23.6917
    -8.4332  -8.0727  -7.2917  -7.1739   3.8574   4.2640   5.3936   5.4484
     5.4649   6.2265   6.5898   7.2062   7.5505   7.9041   8.0749   8.5373
    11.4708  11.8008  11.9809  12.2757  12.7157  13.2081  14.9036  15.6267
    15.7587  15.8322  19.2738  20.3981  22.1489  23.3622  24.4032  24.8750
    27.4737  28.1073  29.8094  30.3837  30.3840  31.4762  31.9175  32.0645
    32.1818  33.1226  34.5636  36.0975  36.1032  37.2546  38.2197  38.9428
    41.2173  41.3178  41.3771  42.0566  42.4566  43.5174  45.0710  45.7330
    46.1539  46.4507  46.6616  47.2270  47.5783

          k = 0.2000 0.3999 0.3105 (  1789 PWs)   bands (ev):

   -47.5787 -47.5751 -23.8939 -23.8834 -23.8608 -23.8363 -23.7787 -23.7581
    -8.1187  -7.8041  -7.4178  -7.3276   4.2919   4.7137   4.7737   4.9601
     5.9960   6.2444   6.5594   6.9694   7.1373   7.6310   8.1108   8.4200
    11.8339  11.9617  12.1320  12.4271  12.7086  12.9957  14.7117  15.0375
    15.5573  15.9994  20.0284  21.0928  23.0939  24.1684  24.6859  24.8185
    26.7874  27.0883  27.9605  28.7199  29.6201  30.2747  31.7729  33.3904
    33.8225  34.1160  35.6263  35.8556  36.7988  37.1286  38.2632  38.9760
    40.0488  40.7758  41.7458  42.4395  43.4218  44.6779  44.8829  45.7483
    46.7322  47.2276  47.5263  47.8671  48.1589

          k = 0.2000 0.3999 0.6209 (  1788 PWs)   bands (ev):

   -47.5538 -47.5524 -24.1285 -24.1227 -23.8019 -23.7851 -23.7654 -23.7561
    -7.8481  -7.7241  -7.3511  -7.2197   4.3280   4.4822   4.9626   5.1172
     5.4979   6.1036   6.6368   6.7833   7.3490   7.6456   8.0798   8.4157
    11.3576  11.7704  12.4295  12.5230  12.8430  13.1376  14.2948  14.7151
    15.9023  16.3028  21.0370  21.7782  23.0563  23.8758  25.0373  25.3751
    26.5237  26.7657  26.9467  27.5973  28.5265  29.4714  31.7974  33.1137
    34.5474  34.9646  35.2259  36.4067  37.6163  37.8691  38.8404  39.9507
    40.1446  41.2855  42.4934  42.5847  43.5414  44.0558  44.3727  45.4587
    46.1003  46.5799  47.1380  48.1756  48.5674

          k = 0.3999 0.3999 0.0000 (  1798 PWs)   bands (ev):

   -47.5923 -47.5906 -23.9431 -23.9288 -23.7672 -23.7522 -23.6981 -23.6945
    -8.3550  -8.2199  -7.2158  -7.1551   3.6737   3.8688   5.3420   5.3726
     5.9475   6.4249   6.9864   7.4233   7.7845   7.8024   7.9651   8.3459
    11.2068  11.4590  11.8115  11.9881  13.0051  13.1852  15.0386  15.3660
    15.8286  15.9443  20.1062  20.7158  22.2061  22.9409  24.0427  24.2702
    27.5807  27.8877  30.3931  30.7235  31.0219  31.1108  31.1711  31.6043
    32.2682  32.6885  35.5108  35.7768  36.3213  36.8688  38.7431  39.3361
    40.8486  40.9837  41.5212  41.9217  42.1695  42.2475  45.6305  46.4134
    46.7458  46.7890  46.8258  47.1502  48.9491

          k = 0.3999 0.3999 0.3105 (  1785 PWs)   bands (ev):

   -47.5775 -47.5762 -23.8984 -23.8942 -23.8639 -23.8533 -23.7560 -23.7471
    -8.0368  -7.9209  -7.3668  -7.3255   4.1112   4.3035   4.6868   4.7624
     6.5563   6.7382   6.8290   7.3121   7.4722   7.6068   7.7807   7.9211
    11.7618  11.9794  11.9812  12.1646  12.7202  12.8401  15.0677  15.3060
    15.5084  15.6934  20.6139  21.1409  22.8886  23.4718  24.6562  24.6713
    26.8803  26.8942  28.1609  28.3660  29.6292  30.1930  32.1791  33.1958
    33.6360  33.7196  36.1498  36.6809  37.0949  37.5758  38.0042  38.2347
    40.7613  41.1992  41.9935  42.1233  43.6802  43.9252  45.0229  45.1964
    47.3799  47.4999  47.8551  48.1039  48.5220

          k = 0.3999 0.3999 0.6209 (  1776 PWs)   bands (ev):

   -47.5534 -47.5528 -24.1214 -24.1180 -23.8112 -23.8036 -23.7556 -23.7527
    -7.7355  -7.6012  -7.4715  -7.3326   4.3554   4.5198   4.7239   4.8554
     5.6201   5.8778   6.6894   6.7206   7.6744   7.8334   8.3454   8.5089
    11.6690  12.0715  12.3778  12.4321  12.4907  12.8113  14.7018  15.3106
    15.3217  15.9102  20.9886  21.3074  23.0869  23.8172  24.2218  24.8340
    26.5467  26.6921  27.5875  27.9709  28.8281  29.3636  32.4518  33.3943
    34.4237  34.4265  34.9016  35.6695  38.0655  38.1494  39.7824  40.5638
    41.8506  42.2597  42.7154  43.1927  43.3435  43.9568  44.1127  44.7484
    45.5955  46.3261  47.0361  47.8030  48.0880

 ------ SPIN DOWN ----------


          k = 0.0000 0.0000 0.0000 (  1819 PWs)   bands (ev):

   -47.6003 -47.5828 -23.9310 -23.9310 -23.7597 -23.7597 -23.7152 -23.6778
    -8.9779  -7.7913  -7.0336  -7.0336   3.4505   3.8638   4.2856   5.4067
     5.4067   6.6931   6.6931   7.2644   8.5504   8.8052   8.8052   9.2616
    11.1569  11.4597  11.6902  11.7913  11.7913  13.7269  13.8885  15.9543
    15.9543  16.9789  17.2206  20.9759  20.9759  23.8601  24.9551  25.8963
    27.6602  28.6987  28.7905  28.7905  30.6727  32.3365  33.4023  33.4023
    34.4115  34.9842  34.9842  35.3027  35.5533  35.5533  36.1822  38.1130
    40.8187  41.2287  41.4597  41.7470  41.7470  42.8938  43.2836  43.2836
    45.4221  45.9153  45.9153  46.3296  48.9461

          k = 0.0000 0.0000 0.3105 (  1807 PWs)   bands (ev):

   -47.5841 -47.5699 -23.8881 -23.8881 -23.8754 -23.8471 -23.7531 -23.7531
    -8.5790  -7.5787  -7.2177  -7.2177   3.9997   4.2703   4.7433   5.1399
     5.1399   6.2678   7.2476   7.2998   7.2998   8.0878   8.0878   8.9946
    11.5197  11.7473  11.8922  12.2446  12.2446  13.5687  14.2332  15.5125
    15.5125  16.3757  18.3671  22.3783  22.3783  23.9632  24.4393  26.4008
    27.0562  27.5475  28.2607  28.2607  29.1860  32.5604  32.7091  32.7091
    34.1935  34.1935  34.5826  35.3325  36.1349  38.2937  38.3494  38.3494
    39.4947  39.4947  40.4113  41.0422  43.8214  44.7987  44.7987  44.8657
    45.1535  47.1931  47.1931  47.4595  48.3598

          k = 0.0000 0.0000 0.6209 (  1784 PWs)   bands (ev):

   -47.5559 -47.5504 -24.1231 -24.1134 -23.8062 -23.8062 -23.7540 -23.7540
    -7.7802  -7.5127  -7.5127  -7.3682   4.7587   4.7884   5.3482   5.3482
     5.4136   5.8426   6.0178   6.8114   6.8114   7.7282   7.7816   7.7816
    11.8487  12.1894  12.5698  12.7457  12.8776  12.8776  14.7519  15.1442
    15.3407  15.3407  20.6555  22.8172  24.4006  24.4543  24.4543  25.3614
    27.0460  27.0460  27.2123  27.2932  28.0270  29.9314  32.0038  32.0038
    34.3690  34.3690  35.6812  36.2928  36.5838  38.2468  38.7964  38.7964
    39.3517  41.5172  41.5172  41.8656  44.6744  44.6744  44.7040  44.7264
    46.8846  47.6027  47.6027  47.6242  47.6242

          k = 0.0000 0.2000 0.0000 (  1791 PWs)   bands (ev):

   -47.5986 -47.5844 -23.9178 -23.9166 -23.7756 -23.7743 -23.7116 -23.6813
    -8.8356  -7.8013  -7.1694  -7.0888   3.7042   4.0248   4.5518   5.4229
     5.4333   6.4536   6.6208   7.2862   8.1272   8.3029   8.5159   9.1127
    11.3662  11.7096  11.9468  11.9698  12.0035  13.6817  14.0409  15.8232
    15.8490  16.7190  17.7102  20.8397  21.2874  23.9000  24.7031  25.7019
    27.4789  28.6988  29.0713  29.2601  31.0419  31.7803  32.1311  32.1522
    33.5071  34.7126  35.2079  35.3921  35.7773  36.2384  38.3516  38.8051
    39.6463  40.9968  41.7937  41.9703  42.0160  42.9729  43.6605  44.4143
    45.4095  46.1265  46.5295  47.1229  48.2983

          k = 0.0000 0.2000 0.3105 (  1793 PWs)   bands (ev):

   -47.5827 -47.5712 -23.8964 -23.8781 -23.8549 -23.8540 -23.7635 -23.7598
    -8.4622  -7.5644  -7.3452  -7.2545   4.1861   4.4476   4.7592   5.1025
     5.4714   6.1558   6.6599   7.2163   7.2372   8.0479   8.0600   8.8868
    11.5422  12.0104  12.0414  12.1977  12.4381  13.4157  14.4359  15.1670
    15.4361  16.4461  18.7648  21.9615  22.6044  24.2384  24.5153  26.0222
    26.8386  27.3980  27.6458  28.9860  29.5957  31.3536  31.8000  33.0168
    34.0643  34.0855  35.5156  35.8584  36.2748  37.7230  38.1562  38.5010
    39.3243  40.0624  40.8078  42.1287  43.7711  44.3643  45.3039  45.4530
    45.5361  46.5195  46.8076  47.6698  47.8360

          k = 0.0000 0.2000 0.6209 (  1777 PWs)   bands (ev):

   -47.5554 -47.5509 -24.1265 -24.1184 -23.7999 -23.7979 -23.7581 -23.7563
    -7.8376  -7.6566  -7.4110  -7.2572   4.6446   4.7547   4.8997   5.2238
     5.6905   5.8753   6.4586   6.8294   6.9957   7.6067   7.7069   8.0066
    11.5797  12.2385  12.3026  12.5715  13.0022  13.0874  14.5672  14.6123
    15.6499  15.9949  20.7240  22.5735  23.7552  24.6450  24.9502  25.2184
    26.4541  26.6407  27.3349  27.5474  28.4975  29.5053  31.7097  32.2338
    34.5458  34.7535  35.8625  36.3000  36.9638  38.1778  38.4005  39.0306
    39.9158  41.0434  41.3309  42.0634  43.3371  44.7189  45.1700  45.3468
    46.2122  46.9674  47.1751  48.0370  48.5306

          k = 0.0000 0.3999 0.0000 (  1784 PWs)   bands (ev):

   -47.5942 -47.5888 -23.8858 -23.8834 -23.8113 -23.8089 -23.7022 -23.6907
    -8.4562  -8.0055  -7.3079  -7.2178   4.1721   4.3089   5.4132   5.4567
     5.4684   6.0929   6.2914   6.7750   7.4401   7.8192   8.3788   8.7095
    11.7148  11.8827  12.2431  12.2987  12.5484  13.1742  14.9160  15.6145
    15.6442  15.9519  18.8758  20.1068  22.1999  23.3929  24.8339  25.3916
    27.4358  28.3657  28.8768  29.9426  30.0841  31.3359  32.0007  32.4694
    33.2655  33.5328  35.2301  35.2850  36.4419  36.8904  37.6590  37.7605
    41.3905  41.6828  42.0361  42.4393  42.7468  43.4973  44.9012  45.6634
    46.1267  46.4765  47.0713  47.1261  47.3300

          k = 0.0000 0.3999 0.3105 (  1788 PWs)   bands (ev):

   -47.5791 -47.5747 -23.8930 -23.8776 -23.8457 -23.8317 -23.7846 -23.7773
    -8.1485  -7.7492  -7.4370  -7.3447   4.5928   4.7806   4.9595   5.0516
     5.8263   5.9646   6.3031   6.7261   6.9371   7.5344   8.3413   8.6416
    11.8165  12.0643  12.3247  12.3965  12.7635  13.0558  14.6653  14.7502
    15.5803  16.1433  19.7764  20.9601  23.3328  24.2622  24.8752  25.5278
    26.4973  26.7391  27.5701  28.8197  29.9071  30.6769  31.6221  33.2399
    34.0469  34.2209  35.5834  36.1392  36.2518  36.9078  38.5213  38.7830
    39.0477  40.5171  41.6386  42.4641  43.9014  44.3376  45.3552  46.5028
    46.5140  46.8272  47.4903  47.7365  48.0826

          k = 0.0000 0.3999 0.6209 (  1786 PWs)   bands (ev):

   -47.5540 -47.5523 -24.1307 -24.1275 -23.7854 -23.7803 -23.7694 -23.7645
    -7.8728  -7.8097  -7.2636  -7.1980   4.3602   4.4587   5.0210   5.2059
     5.7352   6.1992   6.3570   6.8961   7.3595   7.3973   7.8993   8.3141
    11.2700  11.5920  12.4643  12.5615  13.1407  13.1619  14.2590  14.3568
    16.1898  16.3938  21.0960  21.8457  23.6491  24.1404  25.2586  25.5932
    25.9214  26.1680  27.4719  27.9824  28.3104  28.5960  32.1399  32.7958
    35.1204  35.2895  36.2199  36.2832  37.3811  37.4563  38.1231  38.3868
    39.3243  40.3039  42.3870  42.7018  44.1148  44.4267  45.4680  45.6953
    45.9660  46.4287  48.2552  48.2718  48.6724

          k = 0.2000 0.2000 0.0000 (  1800 PWs)   bands (ev):

   -47.5973 -47.5858 -23.9356 -23.8818 -23.8124 -23.7568 -23.7087 -23.6842
    -8.7256  -7.8417  -7.2760  -7.0811   3.6452   4.3173   4.7725   5.3818
     5.4719   6.2031   6.7689   7.3367   7.7529   8.2037   8.3397   9.0002
    11.2369  11.7986  11.8647  12.2225  12.2741  13.5641  14.2408  15.6285
    15.9505  16.4533  18.1980  21.0366  21.2655  23.9394  24.3862  25.3544
    27.4212  28.5606  29.4285  29.9106  31.3194  31.5233  31.9290  32.0302
    32.0412  34.1195  34.3171  35.6164  36.8807  37.1070  38.8555  39.2780
    39.3939  40.7657  41.1505  41.9891  42.9720  43.1900  44.2700  44.3108
    45.3061  46.5044  46.7582  47.1903  48.0892

          k = 0.2000 0.2000 0.3105 (  1793 PWs)   bands (ev):

   -47.5816 -47.5723 -23.8920 -23.8866 -23.8617 -23.8353 -23.7820 -23.7508
    -8.3682  -7.5800  -7.4345  -7.2596   4.1012   4.7034   4.7439   5.1809
     5.6281   5.9674   6.7635   6.8825   7.2992   7.9651   8.1256   8.7453
    11.5831  11.7809  12.1610  12.4822  12.4957  13.2960  14.5004  15.0243
    15.5136  16.3456  19.1351  21.9396  22.4485  24.4122  24.5509  25.3472
    26.7911  27.2577  28.5037  28.6228  29.6230  30.8450  31.3635  33.1679
    34.0984  34.1130  35.3535  35.5434  36.9914  38.0501  38.0503  38.6846
    39.4958  40.2781  41.2745  41.9702  43.9322  44.4906  44.9545  45.5577
    45.9763  46.7905  47.4147  47.5955  47.9078

          k = 0.2000 0.2000 0.6209 (  1790 PWs)   bands (ev):

   -47.5549 -47.5514 -24.1290 -24.1183 -23.8081 -23.7814 -23.7679 -23.7535
    -7.8730  -7.5470  -7.5326  -7.2024   4.4648   4.8717   4.8888   5.0523
     5.3462   6.3326   6.6005   6.8711   6.8825   7.6448   7.7894   8.2003
    11.4351  12.3215  12.3362  12.4961  12.6847  13.2652  14.2208  15.1514
    15.3344  16.2506  20.7589  22.6019  22.9799  24.5189  25.0013  25.5731
    25.9311  26.9143  27.3426  27.7787  28.1398  30.1337  30.9315  32.6268
    34.4776  34.6942  35.3954  37.0675  37.4677  38.1652  38.2988  39.2019
    40.8188  40.9336  41.5703  42.4411  42.8863  44.0807  44.3450  45.5387
    46.4212  46.5886  47.5737  48.1547  48.3566

          k = 0.2000 0.3999 0.0000 (  1786 PWs)   bands (ev):

   -47.5937 -47.5893 -23.9243 -23.8896 -23.8060 -23.7702 -23.7011 -23.6917
    -8.4332  -8.0727  -7.2918  -7.1739   3.8574   4.2640   5.3936   5.4484
     5.4649   6.2265   6.5898   7.2062   7.5505   7.9041   8.0748   8.5373
    11.4708  11.8009  11.9809  12.2757  12.7157  13.2081  14.9036  15.6267
    15.7587  15.8322  19.2738  20.3981  22.1489  23.3622  24.4032  24.8750
    27.4737  28.1073  29.8094  30.3837  30.3840  31.4762  31.9175  32.0645
    32.1819  33.1226  34.5636  36.0976  36.1032  37.2546  38.2198  38.9428
    41.2173  41.3178  41.3771  42.0566  42.4566  43.5174  45.0711  45.7330
    46.1539  46.4508  46.6616  47.2270  47.5783

          k = 0.2000 0.3999 0.3105 (  1789 PWs)   bands (ev):

   -47.5787 -47.5751 -23.8939 -23.8834 -23.8608 -23.8363 -23.7787 -23.7581
    -8.1187  -7.8041  -7.4178  -7.3276   4.2919   4.7137   4.7737   4.9600
     5.9960   6.2443   6.5594   6.9693   7.1372   7.6310   8.1107   8.4200
    11.8339  11.9617  12.1320  12.4271  12.7086  12.9957  14.7117  15.0375
    15.5573  15.9994  20.0284  21.0928  23.0939  24.1684  24.6859  24.8185
    26.7874  27.0883  27.9605  28.7199  29.6201  30.2747  31.7729  33.3904
    33.8225  34.1160  35.6263  35.8557  36.7988  37.1286  38.2632  38.9761
    40.0488  40.7759  41.7458  42.4395  43.4218  44.6779  44.8829  45.7483
    46.7322  47.2276  47.5263  47.8671  48.1589

          k = 0.2000 0.3999 0.6209 (  1788 PWs)   bands (ev):

   -47.5538 -47.5524 -24.1284 -24.1227 -23.8019 -23.7851 -23.7654 -23.7561
    -7.8481  -7.7241  -7.3511  -7.2197   4.3280   4.4822   4.9626   5.1172
     5.4979   6.1036   6.6368   6.7833   7.3490   7.6456   8.0798   8.4157
    11.3576  11.7704  12.4295  12.5230  12.8430  13.1376  14.2948  14.7151
    15.9023  16.3028  21.0370  21.7782  23.0563  23.8758  25.0373  25.3751
    26.5237  26.7657  26.9467  27.5973  28.5265  29.4714  31.7974  33.1137
    34.5475  34.9646  35.2259  36.4067  37.6163  37.8691  38.8404  39.9507
    40.1446  41.2855  42.4934  42.5847  43.5414  44.0558  44.3727  45.4587
    46.1003  46.5800  47.1380  48.1756  48.5674

          k = 0.3999 0.3999 0.0000 (  1798 PWs)   bands (ev):

   -47.5923 -47.5906 -23.9431 -23.9287 -23.7672 -23.7522 -23.6981 -23.6945
    -8.3550  -8.2199  -7.2158  -7.1551   3.6737   3.8688   5.3420   5.3726
     5.9475   6.4249   6.9864   7.4233   7.7845   7.8024   7.9651   8.3458
    11.2068  11.4590  11.8115  11.9881  13.0051  13.1852  15.0386  15.3660
    15.8286  15.9443  20.1062  20.7158  22.2061  22.9409  24.0427  24.2702
    27.5807  27.8877  30.3931  30.7236  31.0219  31.1108  31.1711  31.6043
    32.2682  32.6885  35.5108  35.7768  36.3213  36.8688  38.7432  39.3361
    40.8486  40.9837  41.5212  41.9218  42.1695  42.2475  45.6305  46.4134
    46.7458  46.7890  46.8259  47.1502  48.9491

          k = 0.3999 0.3999 0.3105 (  1785 PWs)   bands (ev):

   -47.5775 -47.5762 -23.8984 -23.8942 -23.8639 -23.8533 -23.7560 -23.7471
    -8.0368  -7.9209  -7.3668  -7.3255   4.1112   4.3035   4.6868   4.7624
     6.5562   6.7382   6.8289   7.3120   7.4722   7.6067   7.7806   7.9211
    11.7618  11.9794  11.9813  12.1646  12.7202  12.8401  15.0677  15.3060
    15.5084  15.6934  20.6139  21.1409  22.8886  23.4718  24.6562  24.6713
    26.8803  26.8942  28.1609  28.3660  29.6292  30.1930  32.1791  33.1958
    33.6360  33.7196  36.1498  36.6810  37.0949  37.5758  38.0042  38.2347
    40.7613  41.1992  41.9935  42.1233  43.6802  43.9252  45.0230  45.1964
    47.3799  47.4999  47.8551  48.1039  48.6007

          k = 0.3999 0.3999 0.6209 (  1776 PWs)   bands (ev):

   -47.5533 -47.5528 -24.1214 -24.1180 -23.8112 -23.8036 -23.7556 -23.7527
    -7.7356  -7.6012  -7.4715  -7.3327   4.3554   4.5198   4.7239   4.8554
     5.6201   5.8778   6.6894   6.7206   7.6744   7.8334   8.3453   8.5089
    11.6690  12.0715  12.3778  12.4321  12.4907  12.8113  14.7018  15.3106
    15.3218  15.9102  20.9886  21.3074  23.0869  23.8172  24.2218  24.8340
    26.5467  26.6921  27.5875  27.9710  28.8282  29.3636  32.4518  33.3943
    34.4237  34.4265  34.9016  35.6696  38.0655  38.1494  39.7824  40.5638
    41.8506  42.2597  42.7154  43.1927  43.3435  43.9568  44.1127  44.7484
    45.5955  46.3261  47.0361  47.8030  48.0880

     the Fermi energy is     9.3426 ev

!    total energy              =    -366.49627680 Ry
     Harris-Foulkes estimate   =    -366.49627679 Ry
     estimated scf accuracy    <       0.00000001 Ry

     The total energy is the sum of the following terms:

     one-electron contribution =    -123.89295790 Ry
     hartree contribution      =      85.71020384 Ry
     xc contribution           =     -63.35314703 Ry
     ewald contribution        =    -264.96039829 Ry
     smearing contrib. (-TS)   =       0.00002258 Ry

     total magnetization       =    -0.00 Bohr mag/cell
     absolute magnetization    =     0.00 Bohr mag/cell

     convergence has been achieved in   4 iterations

     Forces acting on atoms (Ry/au):


     negative rho (up, down):  0.127E-01 0.127E-01
     atom    1 type  1   force =     0.00000000    0.00000000    0.00000000
     atom    2 type  1   force =     0.00000000    0.00000000   -0.00000000
     atom    3 type  2   force =    -0.00229512   -0.00229512   -0.00000000
     atom    4 type  2   force =     0.00229512    0.00229512   -0.00000000
     atom    5 type  2   force =    -0.00229512    0.00229512   -0.00000000
     atom    6 type  2   force =     0.00229512   -0.00229512    0.00000000

     Total force =     0.006492     Total SCF correction =     0.000015


     entering subroutine stress ...


     negative rho (up, down):  0.127E-01 0.127E-01
          total   stress  (Ry/bohr**3)                   (kbar)     P=   60.02
   0.00041300   0.00000000   0.00000000         60.75      0.00      0.00
   0.00000000   0.00041300   0.00000000          0.00     60.75      0.00
   0.00000000   0.00000000   0.00039803          0.00      0.00     58.55

     Volume is kept fixed: isostatic pressure set to zero

     number of scf cycles    =   2
     number of bfgs steps    =   1

     enthalpy old            =    -366.4961693525 Ry
     enthalpy new            =    -366.4962768039 Ry

     CASE: enthalpy_new < enthalpy_old

     new trust radius        =       0.0063578483 bohr
     new conv_thr            =       0.0000000107 Ry

     new unit-cell volume =    418.39674 a.u.^3 (    62.00000 Ang^3 )

CELL_PARAMETERS (alat=  8.65899730)
   1.000433882   0.000000000   0.000000000
   0.000000000   1.000433882   0.000000000
   0.000000000   0.000000000   0.643885583

ATOMIC_POSITIONS (crystal)
Ti0      0.000000000   0.000000000   0.000000000    0   0   0
Ti0      0.500000000   0.500000000   0.500000000    0   0   0
O1       0.304009004   0.304009004   0.000000000    1   1   0
O1      -0.304009004  -0.304009004   0.000000000    1   1   0
O1       0.804009004   0.195990996   0.500000000    1   1   0
O1       0.195990996   0.804009004   0.500000000    1   1   0


     Check: negative starting charge=(component1):   -0.025451
     NEW-OLD atomic charge density approx. for the potential
     NEW k-points:
        k(    1) = (   0.0000000   0.0000000   0.0000000), wk =   0.0080000
        k(    2) = (   0.0000000   0.0000000   0.3106142), wk =   0.0160000
        k(    3) = (   0.0000000   0.0000000   0.6212284), wk =   0.0160000
        k(    4) = (   0.0000000   0.1999133   0.0000000), wk =   0.0320000
        k(    5) = (   0.0000000   0.1999133   0.3106142), wk =   0.0640000
        k(    6) = (   0.0000000   0.1999133   0.6212284), wk =   0.0640000
        k(    7) = (   0.0000000   0.3998265   0.0000000), wk =   0.0320000
        k(    8) = (   0.0000000   0.3998265   0.3106142), wk =   0.0640000
        k(    9) = (   0.0000000   0.3998265   0.6212284), wk =   0.0640000
        k(   10) = (   0.1999133   0.1999133   0.0000000), wk =   0.0320000
        k(   11) = (   0.1999133   0.1999133   0.3106142), wk =   0.0640000
        k(   12) = (   0.1999133   0.1999133   0.6212284), wk =   0.0640000
        k(   13) = (   0.1999133   0.3998265   0.0000000), wk =   0.0640000
        k(   14) = (   0.1999133   0.3998265   0.3106142), wk =   0.1280000
        k(   15) = (   0.1999133   0.3998265   0.6212284), wk =   0.1280000
        k(   16) = (   0.3998265   0.3998265   0.0000000), wk =   0.0320000
        k(   17) = (   0.3998265   0.3998265   0.3106142), wk =   0.0640000
        k(   18) = (   0.3998265   0.3998265   0.6212284), wk =   0.0640000
        k(   19) = (   0.0000000   0.0000000   0.0000000), wk =   0.0080000
        k(   20) = (   0.0000000   0.0000000   0.3106142), wk =   0.0160000
        k(   21) = (   0.0000000   0.0000000   0.6212284), wk =   0.0160000
        k(   22) = (   0.0000000   0.1999133   0.0000000), wk =   0.0320000
        k(   23) = (   0.0000000   0.1999133   0.3106142), wk =   0.0640000
        k(   24) = (   0.0000000   0.1999133   0.6212284), wk =   0.0640000
        k(   25) = (   0.0000000   0.3998265   0.0000000), wk =   0.0320000
        k(   26) = (   0.0000000   0.3998265   0.3106142), wk =   0.0640000
        k(   27) = (   0.0000000   0.3998265   0.6212284), wk =   0.0640000
        k(   28) = (   0.1999133   0.1999133   0.0000000), wk =   0.0320000
        k(   29) = (   0.1999133   0.1999133   0.3106142), wk =   0.0640000
        k(   30) = (   0.1999133   0.1999133   0.6212284), wk =   0.0640000
        k(   31) = (   0.1999133   0.3998265   0.0000000), wk =   0.0640000
        k(   32) = (   0.1999133   0.3998265   0.3106142), wk =   0.1280000
        k(   33) = (   0.1999133   0.3998265   0.6212284), wk =   0.1280000
        k(   34) = (   0.3998265   0.3998265   0.0000000), wk =   0.0320000
        k(   35) = (   0.3998265   0.3998265   0.3106142), wk =   0.0640000
        k(   36) = (   0.3998265   0.3998265   0.6212284), wk =   0.0640000

     Check: negative/imaginary core charge=   -0.000014    0.000000
     Check: negative starting charge=(component1):   -0.025452

     negative rho (up, down):  0.127E-01 0.127E-01

     total cpu time spent up to now is      317.8 secs

     per-process dynamical memory:    46.6 Mb

     Self-consistent Calculation

     iteration #  1     ecut=    40.00 Ry     beta=0.70
     Davidson diagonalization with overlap
     ethr =  1.00E-06,  avg # of iterations =  3.4

     Threshold (ethr) on eigenvalues was too large:
     Diagonalizing with lowered threshold

     Davidson diagonalization with overlap
     ethr =  5.08E-08,  avg # of iterations =  1.1

     negative rho (up, down):  0.127E-01 0.127E-01

     total cpu time spent up to now is      354.5 secs

     total energy              =    -366.49632115 Ry
[...]
    26.7980  27.0785  27.9514  28.7088  29.6119  30.2662  31.7620  33.3948
    33.8191  34.1179  35.6271  35.8435  36.7938  37.1358  38.2832  38.9888
    40.0477  40.7851  41.7421  42.4435  43.4105  44.6723  44.8860  45.7370
    46.7581  47.2445  47.5283  47.8611  48.1642

          k = 0.1999 0.3998 0.6213 (  1786 PWs)   bands (ev):

   -47.5581 -47.5567 -24.1316 -24.1258 -23.8063 -23.7895 -23.7689 -23.7596
    -7.8505  -7.7254  -7.3502  -7.2178   4.3278   4.4805   4.9528   5.1042
     5.4928   6.1028   6.6339   6.7789   7.3461   7.6455   8.0868   8.4172
    11.3562  11.7673  12.4336  12.5261  12.8369  13.1311  14.2871  14.7115
    15.9046  16.3066  21.0448  21.7876  23.0624  23.8800  25.0275  25.3736
    26.5179  26.7668  26.9365  27.5998  28.5168  29.4529  31.7838  33.1003
    34.5373  34.9645  35.2285  36.3954  37.6246  37.8712  38.8451  39.9494
    40.1424  41.2812  42.4986  42.5918  43.5578  44.0622  44.3712  45.4530
    46.0803  46.5862  47.1388  48.1906  48.5643

          k = 0.3998 0.3998 0.0000 (  1798 PWs)   bands (ev):

   -47.5967 -47.5950 -23.9467 -23.9322 -23.7718 -23.7566 -23.7019 -23.6984
    -8.3512  -8.2155  -7.2214  -7.1601   3.6755   3.8723   5.3608   5.3920
     5.9485   6.4275   6.9822   7.4224   7.7712   7.8040   7.9677   8.3340
    11.1876  11.4393  11.8098  11.9888  13.0034  13.1840  15.0400  15.3673
    15.7970  15.9142  20.1144  20.7240  22.2047  22.9379  24.0427  24.2684
    27.5744  27.8905  30.3649  30.6942  31.0154  31.1351  31.1648  31.6325
    32.2793  32.7018  35.4880  35.7913  36.3383  36.8463  38.7336  39.3368
    40.8176  40.9892  41.5183  41.9423  42.1465  42.2715  45.6651  46.4420
    46.7447  46.7794  46.8393  47.1583  48.9762

          k = 0.3998 0.3998 0.3107 (  1791 PWs)   bands (ev):

   -47.5819 -47.5805 -23.9022 -23.8980 -23.8673 -23.8567 -23.7604 -23.7513
    -8.0355  -7.9193  -7.3691  -7.3277   4.1113   4.3043   4.6927   4.7685
     6.5580   6.7374   6.8304   7.3086   7.4610   7.6141   7.7681   7.9266
    11.7491  11.9650  11.9737  12.1586  12.7210  12.8411  15.0607  15.3098
    15.4864  15.6875  20.6214  21.1495  22.8851  23.4655  24.6586  24.6731
    26.8955  26.8959  28.1582  28.3552  29.6186  30.1810  32.1714  33.1982
    33.6219  33.6930  36.1607  36.6764  37.1020  37.5725  38.0253  38.2538
    40.7572  41.2076  41.9702  42.1243  43.6581  43.9376  45.0261  45.2057
    47.3910  47.5286  47.8578  48.1099  48.5464

          k = 0.3998 0.3998 0.6213 (  1775 PWs)   bands (ev):

   -47.5576 -47.5571 -24.1245 -24.1211 -23.8157 -23.8080 -23.7591 -23.7562
    -7.7366  -7.5994  -7.4741  -7.3323   4.3546   4.5183   4.7179   4.8506
     5.6156   5.8797   6.6755   6.7135   7.6684   7.8288   8.3529   8.5130
    11.6686  12.0773  12.3715  12.4316  12.4908  12.8030  14.6980  15.3093
    15.3235  15.9129  20.9952  21.3140  23.0839  23.7889  24.2424  24.8328
    26.5506  26.6977  27.5934  27.9742  28.8145  29.3443  32.4298  33.3580
    34.4144  34.4459  34.9157  35.6611  38.0697  38.1493  39.7870  40.5665
    41.8620  42.2696  42.7168  43.1846  43.3669  43.9423  44.0904  44.7294
    45.6076  46.3390  47.0418  47.8035  48.0821

 ------ SPIN DOWN ----------


          k = 0.0000 0.0000 0.0000 (  1819 PWs)   bands (ev):

   -47.6047 -47.5872 -23.9346 -23.9346 -23.7642 -23.7642 -23.7191 -23.6818
    -8.9754  -7.7862  -7.0385  -7.0385   3.4527   3.8673   4.2784   5.4257
     5.4257   6.6901   6.6901   7.2671   8.5535   8.8011   8.8011   9.2705
    11.1433  11.4287  11.6789  11.7890  11.7890  13.7338  13.8889  15.9241
    15.9241  16.9931  17.2139  20.9687  20.9687  23.8764  24.9599  25.8509
    27.6290  28.7157  28.8028  28.8028  30.6757  32.3750  33.4031  33.4031
    34.4250  34.9715  34.9715  35.2588  35.5796  35.5796  36.1468  38.1156
    40.8302  41.2407  41.4738  41.7678  41.7678  42.9168  43.2806  43.2806
    45.3747  45.9173  45.9173  46.2928  48.9264

          k = 0.0000 0.0000 0.3107 (  1807 PWs)   bands (ev):

   -47.5884 -47.5743 -23.8919 -23.8919 -23.8790 -23.8507 -23.7574 -23.7574
    -8.5786  -7.5765  -7.2198  -7.2198   4.0009   4.2713   4.7365   5.1453
     5.1453   6.2698   7.2497   7.3030   7.3030   8.0821   8.0821   8.9974
    11.5167  11.7271  11.8826  12.2374  12.2374  13.5709  14.2386  15.4908
    15.4908  16.3951  18.3633  22.3763  22.3763  23.9775  24.4483  26.3490
    27.0622  27.5216  28.2780  28.2780  29.1861  32.5826  32.7001  32.7001
    34.1968  34.1968  34.5689  35.2991  36.1071  38.3092  38.3595  38.3595
    39.5147  39.5147  40.4176  41.0147  43.8333  44.7848  44.7848  44.8520
    45.1828  47.2239  47.2239  47.4939  48.3717

          k = 0.0000 0.0000 0.6213 (  1772 PWs)   bands (ev):

   -47.5602 -47.5548 -24.1263 -24.1165 -23.8107 -23.8107 -23.7575 -23.7575
    -7.7830  -7.5108  -7.5108  -7.3706   4.7525   4.7829   5.3454   5.3454
     5.4187   5.8462   6.0118   6.7986   6.7986   7.7237   7.7854   7.7854
    11.8551  12.1938  12.5758  12.7514  12.8651  12.8651  14.7562  15.1590
    15.3284  15.3284  20.6596  22.8269  24.4092  24.4682  24.4682  25.3648
    27.0661  27.0661  27.1582  27.2660  28.0148  29.9045  31.9857  31.9857
    34.3749  34.3749  35.6786  36.2499  36.5695  38.2006  38.8164  38.8164
    39.3678  41.5177  41.5177  41.8980  44.7002  44.7002  44.7230  44.7253
    46.8991  47.5801  47.5801  47.6089  47.6089

          k = 0.0000 0.1999 0.0000 (  1789 PWs)   bands (ev):

   -47.6031 -47.5889 -23.9213 -23.9201 -23.7803 -23.7790 -23.7155 -23.6852
    -8.8327  -7.7946  -7.1763  -7.0939   3.7081   4.0303   4.5454   5.4424
     5.4532   6.4464   6.6126   7.2874   8.1232   8.3047   8.5153   9.1203
    11.3514  11.6812  11.9467  11.9610  12.0043  13.6811  14.0464  15.7913
    15.8178  16.7231  17.7133  20.8369  21.2822  23.9123  24.7074  25.6682
    27.4484  28.7106  29.0889  29.2645  31.0463  31.7710  32.1408  32.1668
    33.5021  34.7324  35.1912  35.3692  35.8053  36.2353  38.3521  38.7794
    39.6736  41.0102  41.8102  41.9876  42.0228  42.9606  43.6668  44.4124
    45.4133  46.1144  46.5207  47.0943  48.4922

          k = 0.0000 0.1999 0.3107 (  1795 PWs)   bands (ev):

   -47.5871 -47.5756 -23.9002 -23.8820 -23.8583 -23.8574 -23.7681 -23.7643
    -8.4617  -7.5608  -7.3488  -7.2566   4.1870   4.4498   4.7575   5.1066
     5.4730   6.1586   6.6643   7.2088   7.2308   8.0505   8.0599   8.8917
    11.5371  11.9915  12.0309  12.1901  12.4344  13.4175  14.4410  15.1499
    15.4148  16.4553  18.7647  21.9646  22.6037  24.2483  24.5232  25.9864
    26.8460  27.3734  27.6564  28.9869  29.6004  31.3342  31.7888  33.0415
    34.0658  34.0908  35.4884  35.8440  36.2729  37.7190  38.1696  38.5214
    39.3400  40.0566  40.8046  42.1253  43.7507  44.3754  45.2906  45.4890
    45.5535  46.5336  46.8165  47.6972  47.8448

          k = 0.0000 0.1999 0.6213 (  1779 PWs)   bands (ev):

   -47.5597 -47.5553 -24.1297 -24.1216 -23.8045 -23.8025 -23.7616 -23.7598
    -7.8403  -7.6576  -7.4090  -7.2567   4.6434   4.7501   4.8901   5.2216
     5.6829   5.8771   6.4525   6.8195   6.9907   7.6114   7.7134   8.0031
    11.5824  12.2377  12.3040  12.5761  12.9937  13.0820  14.5643  14.6101
    15.6453  15.9982  20.7298  22.5856  23.7643  24.6594  24.9547  25.2268
    26.4194  26.6401  27.3221  27.5463  28.4891  29.4838  31.6877  32.2217
    34.5434  34.7552  35.8579  36.2753  36.9602  38.1661  38.4048  39.0366
    39.9012  41.0593  41.3420  42.0825  43.3531  44.7217  45.1937  45.3535
    46.1986  46.9446  47.1940  48.0492  48.5223

          k = 0.0000 0.3998 0.0000 (  1780 PWs)   bands (ev):

   -47.5987 -47.5933 -23.8885 -23.8860 -23.8168 -23.8143 -23.7061 -23.6946
    -8.4519  -7.9982  -7.3161  -7.2237   4.1815   4.3202   5.4086   5.4774
     5.4894   6.0764   6.2721   6.7690   7.4394   7.8182   8.3846   8.7170
    11.6971  11.8601  12.2474  12.3040  12.5429  13.1713  14.9181  15.5792
    15.6096  15.9531  18.8816  20.1112  22.1981  23.3943  24.8370  25.3761
    27.4094  28.3577  28.8842  29.9380  30.1042  31.3632  32.0090  32.4491
    33.2786  33.5145  35.2080  35.2665  36.4731  36.8930  37.6904  37.7543
    41.4162  41.6839  42.0435  42.4470  42.7439  43.5093  44.8914  45.6524
    46.1313  46.4725  47.0790  47.1129  47.3240

          k = 0.0000 0.3998 0.3107 (  1786 PWs)   bands (ev):

   -47.5835 -47.5791 -23.8968 -23.8816 -23.8484 -23.8342 -23.7900 -23.7823
    -8.1475  -7.7466  -7.4401  -7.3467   4.5964   4.7904   4.9610   5.0492
     5.8293   5.9651   6.2964   6.7168   6.9312   7.5345   8.3482   8.6485
    11.8088  12.0533  12.3154  12.3861  12.7630  13.0565  14.6562  14.7325
    15.5716  16.1447  19.7812  20.9666  23.3351  24.2678  24.8777  25.5109
    26.5040  26.7457  27.5442  28.8076  29.8943  30.6675  31.6244  33.2582
    34.0489  34.2174  35.5696  36.1181  36.2635  36.9198  38.5307  38.7855
    39.0528  40.5197  41.6550  42.4593  43.9131  44.3318  45.3574  46.4836
    46.4926  46.8667  47.5052  47.7544  48.0945

          k = 0.0000 0.3998 0.6213 (  1785 PWs)   bands (ev):

   -47.5583 -47.5566 -24.1339 -24.1307 -23.7898 -23.7851 -23.7726 -23.7681
    -7.8756  -7.8120  -7.2613  -7.1960   4.3599   4.4583   5.0050   5.1869
     5.7349   6.1975   6.3542   6.8938   7.3592   7.4034   7.9055   8.3148
    11.2678  11.5878  12.4679  12.5658  13.1345  13.1560  14.2510  14.3497
    16.1920  16.3987  21.1057  21.8587  23.6558  24.1476  25.2654  25.5858
    25.8989  26.1782  27.4485  27.9755  28.2970  28.5831  32.1281  32.7905
    35.1159  35.2856  36.2165  36.2622  37.3940  37.4523  38.1205  38.3890
    39.3276  40.3108  42.3939  42.7096  44.1331  44.4367  45.4602  45.7118
    45.9532  46.4010  48.2642  48.2799  48.6832

          k = 0.1999 0.1999 0.0000 (  1798 PWs)   bands (ev):

   -47.6017 -47.5902 -23.9392 -23.8843 -23.8180 -23.7613 -23.7126 -23.6881
    -8.7225  -7.8340  -7.2843  -7.0860   3.6477   4.3284   4.7671   5.4007
     5.4929   6.1838   6.7653   7.3370   7.7560   8.2054   8.3362   9.0028
    11.2188  11.7966  11.8408  12.2159  12.2789  13.5632  14.2449  15.5935
    15.9204  16.4561  18.2021  21.0358  21.2633  23.9495  24.3862  25.3348
    27.3927  28.5673  29.4466  29.9100  31.3251  31.5226  31.9012  32.0301
    32.0642  34.1080  34.3363  35.6395  36.8592  37.1085  38.8815  39.2800
    39.3655  40.7878  41.1672  41.9601  42.9944  43.1940  44.2502  44.3262
    45.3218  46.5070  46.7291  47.1752  48.1202

          k = 0.1999 0.1999 0.3107 (  1792 PWs)   bands (ev):

   -47.5860 -47.5767 -23.8958 -23.8905 -23.8653 -23.8380 -23.7872 -23.7551
    -8.3674  -7.5748  -7.4398  -7.2618   4.1018   4.7052   4.7500   5.1821
     5.6264   5.9697   6.7620   6.8776   7.3006   7.9561   8.1308   8.7513
    11.5766  11.7677  12.1455  12.4776  12.4926  13.2974  14.4984  15.0133
    15.4917  16.3521  19.1372  21.9445  22.4498  24.4187  24.5580  25.3268
    26.8020  27.2314  28.5023  28.6285  29.6213  30.8253  31.3484  33.1910
    34.0938  34.1173  35.3376  35.5438  36.9786  38.0587  38.0652  38.6955
    39.5028  40.2710  41.2585  41.9811  43.9144  44.4990  44.9754  45.5635
    46.0019  46.7972  47.3981  47.5978  47.9196

          k = 0.1999 0.1999 0.6213 (  1790 PWs)   bands (ev):

   -47.5593 -47.5557 -24.1321 -24.1214 -23.8127 -23.7861 -23.7712 -23.7570
    -7.8757  -7.5451  -7.5346  -7.2007   4.4645   4.8694   4.8814   5.0449
     5.3361   6.3420   6.5887   6.8636   6.8746   7.6563   7.7912   8.1971
    11.4366  12.3252  12.3404  12.4868  12.6840  13.2592  14.2130  15.1622
    15.3220  16.2536  20.7651  22.6134  22.9885  24.5333  25.0053  25.5499
    25.9366  26.9107  27.3066  27.7879  28.1393  30.1186  30.9089  32.6123
    34.4731  34.6946  35.3875  37.0527  37.4728  38.1527  38.3047  39.2052
    40.8052  40.9363  41.5865  42.4620  42.8878  44.0863  44.3561  45.5324
    46.4229  46.6001  47.5792  48.1512  48.3550

          k = 0.1999 0.3998 0.0000 (  1786 PWs)   bands (ev):

   -47.5981 -47.5937 -23.9278 -23.8925 -23.8113 -23.7748 -23.7050 -23.6956
    -8.4291  -8.0665  -7.2989  -7.1793   3.8615   4.2739   5.4130   5.4612
     5.4691   6.2147   6.5787   7.1997   7.5500   7.9048   8.0764   8.5387
    11.4518  11.7800  11.9814  12.2806  12.7119  13.2061  14.9053  15.5918
    15.7599  15.8006  19.2800  20.4035  22.1478  23.3612  24.4050  24.8688
    27.4539  28.1040  29.8064  30.3735  30.4046  31.5041  31.8998  32.0737
    32.1611  33.1361  34.5473  36.0794  36.1217  37.2807  38.2220  38.9411
    41.1939  41.3419  41.3846  42.0592  42.4531  43.5096  45.0883  45.7288
    46.1709  46.4399  46.6730  47.2234  47.5954

          k = 0.1999 0.3998 0.3107 (  1789 PWs)   bands (ev):

   -47.5831 -47.5795 -23.8977 -23.8874 -23.8640 -23.8391 -23.7837 -23.7626
    -8.1176  -7.8020  -7.4204  -7.3297   4.2929   4.7199   4.7786   4.9611
     5.9962   6.2428   6.5584   6.9624   7.1318   7.6254   8.1167   8.4269
    11.8245  11.9520  12.1179  12.4212  12.7082  12.9964  14.6988  15.0301
    15.5446  15.9994  20.0339  21.0998  23.0950  24.1675  24.6887  24.8151
    26.7980  27.0785  27.9514  28.7088  29.6119  30.2662  31.7620  33.3948
    33.8191  34.1180  35.6271  35.8435  36.7938  37.1359  38.2832  38.9888
    40.0477  40.7851  41.7421  42.4435  43.4105  44.6723  44.8860  45.7370
    46.7581  47.2445  47.5284  47.8611  48.1641

          k = 0.1999 0.3998 0.6213 (  1786 PWs)   bands (ev):

   -47.5581 -47.5568 -24.1316 -24.1259 -23.8064 -23.7896 -23.7689 -23.7597
    -7.8505  -7.7254  -7.3502  -7.2178   4.3278   4.4805   4.9528   5.1042
     5.4928   6.1028   6.6339   6.7789   7.3461   7.6456   8.0868   8.4172
    11.3561  11.7673  12.4336  12.5261  12.8369  13.1310  14.2871  14.7114
    15.9045  16.3066  21.0448  21.7876  23.0624  23.8800  25.0275  25.3736
    26.5179  26.7668  26.9365  27.5998  28.5168  29.4529  31.7838  33.1003
    34.5373  34.9645  35.2285  36.3954  37.6246  37.8712  38.8451  39.9494
    40.1424  41.2812  42.4986  42.5918  43.5578  44.0622  44.3712  45.4530
    46.0803  46.5862  47.1388  48.1906  48.5643

          k = 0.3998 0.3998 0.0000 (  1798 PWs)   bands (ev):

   -47.5967 -47.5951 -23.9468 -23.9323 -23.7718 -23.7566 -23.7020 -23.6984
    -8.3511  -8.2155  -7.2214  -7.1601   3.6755   3.8723   5.3608   5.3920
     5.9485   6.4275   6.9822   7.4224   7.7712   7.8040   7.9677   8.3340
    11.1875  11.4393  11.8097  11.9888  13.0033  13.1840  15.0399  15.3672
    15.7970  15.9142  20.1144  20.7240  22.2047  22.9379  24.0427  24.2684
    27.5744  27.8905  30.3649  30.6942  31.0154  31.1352  31.1648  31.6325
    32.2793  32.7018  35.4880  35.7913  36.3383  36.8463  38.7336  39.3368
    40.8176  40.9892  41.5183  41.9423  42.1465  42.2715  45.6651  46.4420
    46.7447  46.7794  46.8393  47.1583  48.9760

          k = 0.3998 0.3998 0.3107 (  1791 PWs)   bands (ev):

   -47.5819 -47.5806 -23.9022 -23.8981 -23.8674 -23.8568 -23.7604 -23.7514
    -8.0355  -7.9193  -7.3690  -7.3277   4.1113   4.3043   4.6927   4.7685
     6.5580   6.7374   6.8305   7.3086   7.4610   7.6141   7.7681   7.9266
    11.7490  11.9649  11.9737  12.1586  12.7210  12.8411  15.0606  15.3097
    15.4863  15.6875  20.6214  21.1495  22.8851  23.4655  24.6586  24.6731
    26.8955  26.8959  28.1582  28.3552  29.6186  30.1810  32.1714  33.1982
    33.6219  33.6930  36.1607  36.6764  37.1020  37.5725  38.0253  38.2538
    40.7572  41.2076  41.9702  42.1243  43.6581  43.9376  45.0261  45.2057
    47.3910  47.5286  47.8578  48.1098  48.6002

          k = 0.3998 0.3998 0.6213 (  1775 PWs)   bands (ev):

   -47.5577 -47.5571 -24.1246 -24.1211 -23.8158 -23.8080 -23.7591 -23.7562
    -7.7366  -7.5994  -7.4741  -7.3323   4.3546   4.5183   4.7179   4.8506
     5.6156   5.8797   6.6755   6.7135   7.6684   7.8289   8.3529   8.5130
    11.6686  12.0773  12.3715  12.4315  12.4907  12.8030  14.6980  15.3093
    15.3235  15.9129  20.9952  21.3140  23.0839  23.7889  24.2425  24.8329
    26.5506  26.6977  27.5935  27.9742  28.8145  29.3443  32.4298  33.3580
    34.4144  34.4459  34.9157  35.6611  38.0697  38.1493  39.7870  40.5665
    41.8620  42.2696  42.7168  43.1846  43.3669  43.9423  44.0904  44.7294
    45.6076  46.3389  47.0418  47.8035  48.0821

     the Fermi energy is     9.3529 ev

!    total energy              =    -366.49631621 Ry
     Harris-Foulkes estimate   =    -366.49631621 Ry
     estimated scf accuracy    <          5.1E-10 Ry

     The total energy is the sum of the following terms:

     one-electron contribution =    -123.78945067 Ry
     hartree contribution      =      85.65439109 Ry
     xc contribution           =     -63.35056076 Ry
     ewald contribution        =    -265.01071737 Ry
     smearing contrib. (-TS)   =       0.00002150 Ry

     total magnetization       =     0.00 Bohr mag/cell
     absolute magnetization    =     0.00 Bohr mag/cell

     convergence has been achieved in  11 iterations

     Forces acting on atoms (Ry/au):


     negative rho (up, down):  0.127E-01 0.127E-01
     atom    1 type  1   force =     0.00000000    0.00000000    0.00000000
     atom    2 type  1   force =     0.00000000    0.00000000    0.00000000
     atom    3 type  2   force =     0.00000989    0.00000989    0.00000000
     atom    4 type  2   force =    -0.00000989   -0.00000989   -0.00000000
     atom    5 type  2   force =     0.00000989   -0.00000989    0.00000000
     atom    6 type  2   force =    -0.00000989    0.00000989    0.00000000

     Total force =     0.000028     Total SCF correction =     0.000005
     SCF correction compared to forces is large: reduce conv_thr to get better values


     entering subroutine stress ...


     negative rho (up, down):  0.127E-01 0.127E-01
          total   stress  (Ry/bohr**3)                   (kbar)     P=   58.85
   0.00040085   0.00000000   0.00000000         58.97      0.00      0.00
   0.00000000   0.00040085   0.00000000          0.00     58.97      0.00
   0.00000000   0.00000000   0.00039846          0.00      0.00     58.62


     init_run     :     15.90s CPU     16.19s WALL (       2 calls)
     electrons    :    611.48s CPU    629.44s WALL (       5 calls)
     update_pot   :     11.71s CPU     11.79s WALL (       3 calls)
     forces       :     33.74s CPU     33.79s WALL (       5 calls)
     stress       :     89.94s CPU     90.07s WALL (       5 calls)

     Called by init_run:
     wfcinit      :      7.71s CPU      7.88s WALL (       2 calls)
     potinit      :      1.58s CPU      1.59s WALL (       2 calls)

     Called by electrons:
     c_bands      :    478.00s CPU    493.39s WALL (      37 calls)
     sum_band     :     84.90s CPU     85.98s WALL (      37 calls)
     v_of_rho     :      8.00s CPU      8.04s WALL (      39 calls)
     newd         :     45.44s CPU     45.49s WALL (      39 calls)
     mix_rho      :      0.71s CPU      0.72s WALL (      37 calls)

     Called by c_bands:
     init_us_2    :      3.27s CPU      3.30s WALL (    3096 calls)
     cegterg      :    467.77s CPU    483.11s WALL (    1332 calls)

     Called by *egterg:
     h_psi        :    230.47s CPU    237.88s WALL (    4018 calls)
     s_psi        :     18.28s CPU     18.33s WALL (    4018 calls)
     g_psi        :      1.44s CPU      1.44s WALL (    2614 calls)
     cdiaghg      :    118.96s CPU    119.30s WALL (    3730 calls)

     Called by h_psi:
     add_vuspsi   :     18.41s CPU     18.40s WALL (    4018 calls)

     General routines
     calbec       :     31.59s CPU     34.42s WALL (    5710 calls)
     fft          :      6.07s CPU      6.11s WALL (    1403 calls)
     ffts         :      0.11s CPU      0.11s WALL (     152 calls)
     fftw         :    192.87s CPU    196.44s WALL (  520296 calls)
     interpolate  :      0.82s CPU      0.83s WALL (     152 calls)

     Parallel routines
     fft_scatter  :     58.67s CPU     59.80s WALL (  521851 calls)

     PWSCF        : 12m46.57s CPU    13m 5.15s WALL


   This run was terminated on:  18:27: 8  23Jan2014            

=------------------------------------------------------------------------------=
   JOB DONE.
=------------------------------------------------------------------------------=
