
     Program PWSCF v.5.0.2 (svn rev. 9656) starts on  2May2014 at  0:26:35 

     This program is part of the open-source Quantum ESPRESSO suite
     for quantum simulation of materials; please cite
         "P. Giannozzi et al., J. Phys.:Condens. Matter 21 395502 (2009);
          URL http://www.quantum-espresso.org", 
     in publications or presentations arising from this work. More details at
     http://www.quantum-espresso.org/quote.php

     Parallel version (MPI), running on    16 processors
     K-points division:     npool     =       4
     R & G space division:  proc/nbgrp/npool/nimage =       4

     Current dimensions of program PWSCF are:
     Max number of different atomic species (ntypx) = 10
     Max number of k-points (npk) =  40000
     Max angular momentum in pseudopotentials (lmaxx) =  3
     Reading input from pwscf.in
Warning: card &CELL ignored
Warning: card / ignored

     Subspace diagonalization in iterative solution of the eigenvalue problem:
     a serial algorithm will be used


     Parallelization info
     --------------------
     sticks:   dense  smooth     PW     G-vecs:    dense   smooth      PW
     Min        1333     428    119               322637    58444    8739
     Max        1334     429    120               322642    58462    8748
     Sum        5335    1713    477              1290557   233813   34969



     bravais-lattice index     =            0
     lattice parameter (alat)  =      10.1289  a.u.
     unit-cell volume          =    6836.7721 (a.u.)^3
     number of atoms/cell      =           32
     number of atomic types    =            3
     number of electrons       =       239.00
     number of Kohn-Sham states=          358
     kinetic-energy cutoff     =      40.0000  Ry
     charge density cutoff     =     500.0000  Ry
     convergence threshold     =      1.0E-06
     mixing beta               =       0.7000
     number of iterations used =            8  plain     mixing
     Exchange-correlation      = SLA  PW   PBE  PBE ( 1 4 3 4 0)
     EXX-fraction              =        0.00
     nstep                     =           50


     celldm(1)=  10.128932  celldm(2)=   0.000000  celldm(3)=   0.000000
     celldm(4)=   0.000000  celldm(5)=   0.000000  celldm(6)=   0.000000

     crystal axes: (cart. coord. in units of alat)
               a(1) = (   1.000000   0.000000   0.000000 )  
               a(2) = (   0.000000   1.306037   0.000000 )  
               a(3) = (   0.000000   0.000000   5.037380 )  

     reciprocal axes: (cart. coord. in units 2 pi/alat)
               b(1) = (  1.000000  0.000000  0.000000 )  
               b(2) = (  0.000000  0.765675  0.000000 )  
               b(3) = (  0.000000  0.000000  0.198516 )  


     PseudoPot. # 1 for O  read from file:
     /home/camp/zhonxu/pseudo/o_pbe_v1.01.uspp.F.UPF
     MD5 check sum: 2bcb18d16ea4b960afae9ec6d52f22d2
     Pseudo is Ultrasoft + core correction, Zval =  6.0
     Generated by new atomic code, or converted to UPF format
     Using radial grid of  737 points,  5 beta functions with: 
                l(1) =   0
                l(2) =   0
                l(3) =   1
                l(4) =   1
                l(5) =   2
     Q(r) pseudized with  8 coefficients,  rinner =    0.900   0.900   0.900
                                                       0.900   0.900

     PseudoPot. # 2 for Re read from file:
     /home/camp/zhonxu/pseudo/re_pbe_v1.uspp.F.UPF
     MD5 check sum: 6f5a5dcaf9c96c20d0ffdde0de57afc6
     Pseudo is Ultrasoft + core correction, Zval = 15.0
     Generated by new atomic code, or converted to UPF format
     Using radial grid of  981 points,  8 beta functions with: 
                l(1) =   0
                l(2) =   0
                l(3) =   1
                l(4) =   1
                l(5) =   2
                l(6) =   2
                l(7) =   3
                l(8) =   3
     Q(r) pseudized with  8 coefficients,  rinner =    1.000   1.000   1.000
                                                       1.000   1.000   1.000
                                                       1.000

     PseudoPot. # 3 for H  read from file:
     /home/camp/zhonxu/pseudo/h_pbe_v1.uspp.F.UPF
     MD5 check sum: 3408e3ff4ec8b0a4e358431e7e038a48
     Pseudo is Ultrasoft, Zval =  1.0
     Generated by new atomic code, or converted to UPF format
     Using radial grid of  615 points,  2 beta functions with: 
                l(1) =   0
                l(2) =   0
     Q(r) pseudized with  8 coefficients,  rinner =    0.700

     atomic species   valence    mass     pseudopotential
        O0             6.00    15.99940     O ( 1.00)
        Re1           15.00   186.20700     Re( 1.00)
        H2             1.00     1.00794     H ( 1.00)


     Simplified LDA+U calculation (l_max = 2) with parameters (eV):
     atomic species    L          U    alpha       J0     beta
        Re1            2     3.0000   0.0000   0.0000   0.0000



     No symmetry found



   Cartesian axes

     site n.     atom                  positions (alat units)
         1           O0  tau(   1) = (   0.0000000   0.0000000   1.8669538  )
         2           O0  tau(   2) = (   0.0000000   0.6530184   1.9246318  )
         3           Re1 tau(   3) = (   0.2500000   0.6530184   2.2252626  )
         4           Re1 tau(   4) = (   0.0000000   0.0000000   2.2335239  )
         5           O0  tau(   5) = (   0.2500000   1.0187087   2.2252626  )
         6           O0  tau(   6) = (   0.2500000   0.2873281   2.2245574  )
         7           O0  tau(   7) = (   0.0000000   0.6530184   2.5039809  )
         8           O0  tau(   8) = (   0.0000000   0.0000000   2.5944019  )
         9           Re1 tau(   9) = (   0.2500000   0.0000000   2.8956372  )
        10           Re1 tau(  10) = (   0.0000000   0.6530184   2.8532728  )
        11           O0  tau(  11) = (   0.2500000   0.9403465   2.8863684  )
        12           O0  tau(  12) = (   0.2500000   0.3656903   2.8866706  )
        13           O0  tau(  13) = (   0.0000000   0.0000000   3.1589410  )
        14           O0  tau(  14) = (   0.5000000   0.0000000   1.8671553  )
        15           O0  tau(  15) = (   0.5000000   0.6530184   1.9260926  )
        16           Re1 tau(  16) = (   0.7500000   0.6530184   2.2254138  )
        17           Re1 tau(  17) = (   0.5000000   0.0000000   2.2327683  )
        18           O0  tau(  18) = (   0.7500000   1.0187087   2.2250108  )
        19           O0  tau(  19) = (   0.7500000   0.2873281   2.2249100  )
        20           O0  tau(  20) = (   0.5000000   0.6530184   2.5136527  )
        21           O0  tau(  21) = (   0.5000000   0.0000000   2.5937470  )
        22           Re1 tau(  22) = (   0.7500000   0.0000000   2.8949319  )
        23           Re1 tau(  23) = (   0.5000000   0.6530184   2.8846557  )
        24           O0  tau(  24) = (   0.7500000   0.9403465   2.8822881  )
        25           O0  tau(  25) = (   0.7500000   0.3656903   2.8822881  )
        26           O0  tau(  26) = (   0.5000000   0.0000000   3.1556667  )
        27           H2  tau(  27) = (  -0.0003600   0.8163644   1.8395505  )
        28           H2  tau(  28) = (   0.4996200   0.8138568   1.8363769  )
        29           H2  tau(  29) = (   0.1695000   0.0302217   1.7958260  )
        30           H2  tau(  30) = (   0.6704500   0.0285761   1.7967327  )
        31           O0  tau(  31) = (   0.5277600   0.6525874   3.2436194  )
        32           H2  tau(  32) = (   0.3788200   0.6519344   3.3501096  )

     number of k points=    10  Methfessel-Paxton smearing, width (Ry)=  0.0100
                       cart. coord. in units 2pi/alat
        k(    1) = (   0.0000000   0.0000000   0.0000000), wk =   0.1250000
        k(    2) = (   0.0000000   0.1914188   0.0000000), wk =   0.2500000
        k(    3) = (   0.0000000  -0.3828376   0.0000000), wk =   0.1250000
        k(    4) = (   0.2500000   0.0000000   0.0000000), wk =   0.2500000
        k(    5) = (   0.2500000   0.1914188   0.0000000), wk =   0.2500000
        k(    6) = (   0.2500000  -0.3828376   0.0000000), wk =   0.2500000
        k(    7) = (  -0.5000000   0.0000000   0.0000000), wk =   0.1250000
        k(    8) = (  -0.5000000   0.1914188   0.0000000), wk =   0.2500000
        k(    9) = (  -0.5000000  -0.3828376   0.0000000), wk =   0.1250000
        k(   10) = (  -0.2500000   0.1914188   0.0000000), wk =   0.2500000

     Dense  grid:  1290557 G-vectors     FFT dimensions: (  75,  96, 375)

     Smooth grid:   233813 G-vectors     FFT dimensions: (  45,  54, 216)

     Largest allocated arrays     est. size (Mb)     dimensions
        Kohn-Sham Wavefunctions        40.23 Mb     (   7365,  358)
        Atomic wavefunctions           20.79 Mb     (   7365,  185)
        NL pseudopotentials            57.65 Mb     (   7365,  513)
        Each V/rho on FFT grid         10.33 Mb     ( 676800)
        Each G-vector array             2.46 Mb     ( 322642)
        G-vector shells                 1.07 Mb     ( 139625)
     Largest temporary arrays     est. size (Mb)     dimensions
        Auxiliary wavefunctions       160.93 Mb     (   7365, 1432)
        Each subspace H/S matrix       31.29 Mb     (1432,1432)
        Each <psi_i|beta_j> matrix      2.80 Mb     (    513,  358)
        Arrays for rho mixing          82.62 Mb     ( 676800,   8)

     Check: negative/imaginary core charge=   -0.000003    0.000000

     Initial potential from superposition of free atoms
     Check: negative starting charge=   -0.237247

     starting charge  234.99957, renormalised to  239.00000

     negative rho (up, down):  0.241E+00 0.000E+00
     Number of +U iterations with fixed ns =  0
     Starting occupations:
 --- enter write_ns ---
 LDA+U parameters:
U( 2)     =  3.00000000
alpha( 2) =  0.00000000
atom    3   Tr[ns(na)] =   5.00000
    eigenvalues: 
  0.500  0.500  0.500  0.500  0.500
    eigenvectors:
  1.000  0.000  0.000  0.000  0.000
  0.000  1.000  0.000  0.000  0.000
  0.000  0.000  1.000  0.000  0.000
  0.000  0.000  0.000  1.000  0.000
  0.000  0.000  0.000  0.000  1.000
    occupations:
  0.500  0.000  0.000  0.000  0.000
  0.000  0.500  0.000  0.000  0.000
  0.000  0.000  0.500  0.000  0.000
  0.000  0.000  0.000  0.500  0.000
  0.000  0.000  0.000  0.000  0.500
atom    4   Tr[ns(na)] =   5.00000
    eigenvalues: 
  0.500  0.500  0.500  0.500  0.500
    eigenvectors:
  1.000  0.000  0.000  0.000  0.000
  0.000  1.000  0.000  0.000  0.000
  0.000  0.000  1.000  0.000  0.000
  0.000  0.000  0.000  1.000  0.000
  0.000  0.000  0.000  0.000  1.000
    occupations:
  0.500  0.000  0.000  0.000  0.000
  0.000  0.500  0.000  0.000  0.000
  0.000  0.000  0.500  0.000  0.000
  0.000  0.000  0.000  0.500  0.000
  0.000  0.000  0.000  0.000  0.500
atom    9   Tr[ns(na)] =   5.00000
    eigenvalues: 
  0.500  0.500  0.500  0.500  0.500
    eigenvectors:
  1.000  0.000  0.000  0.000  0.000
  0.000  1.000  0.000  0.000  0.000
  0.000  0.000  1.000  0.000  0.000
  0.000  0.000  0.000  1.000  0.000
  0.000  0.000  0.000  0.000  1.000
    occupations:
  0.500  0.000  0.000  0.000  0.000
  0.000  0.500  0.000  0.000  0.000
  0.000  0.000  0.500  0.000  0.000
  0.000  0.000  0.000  0.500  0.000
  0.000  0.000  0.000  0.000  0.500
atom   10   Tr[ns(na)] =   5.00000
    eigenvalues: 
  0.500  0.500  0.500  0.500  0.500
    eigenvectors:
  1.000  0.000  0.000  0.000  0.000
  0.000  1.000  0.000  0.000  0.000
  0.000  0.000  1.000  0.000  0.000
  0.000  0.000  0.000  1.000  0.000
  0.000  0.000  0.000  0.000  1.000
    occupations:
  0.500  0.000  0.000  0.000  0.000
  0.000  0.500  0.000  0.000  0.000
  0.000  0.000  0.500  0.000  0.000
  0.000  0.000  0.000  0.500  0.000
  0.000  0.000  0.000  0.000  0.500
atom   16   Tr[ns(na)] =   5.00000
    eigenvalues: 
  0.500  0.500  0.500  0.500  0.500
    eigenvectors:
  1.000  0.000  0.000  0.000  0.000
  0.000  1.000  0.000  0.000  0.000
  0.000  0.000  1.000  0.000  0.000
  0.000  0.000  0.000  1.000  0.000
  0.000  0.000  0.000  0.000  1.000
    occupations:
  0.500  0.000  0.000  0.000  0.000
  0.000  0.500  0.000  0.000  0.000
  0.000  0.000  0.500  0.000  0.000
  0.000  0.000  0.000  0.500  0.000
  0.000  0.000  0.000  0.000  0.500
atom   17   Tr[ns(na)] =   5.00000
    eigenvalues: 
  0.500  0.500  0.500  0.500  0.500
    eigenvectors:
  1.000  0.000  0.000  0.000  0.000
  0.000  1.000  0.000  0.000  0.000
  0.000  0.000  1.000  0.000  0.000
  0.000  0.000  0.000  1.000  0.000
  0.000  0.000  0.000  0.000  1.000
    occupations:
  0.500  0.000  0.000  0.000  0.000
  0.000  0.500  0.000  0.000  0.000
  0.000  0.000  0.500  0.000  0.000
  0.000  0.000  0.000  0.500  0.000
  0.000  0.000  0.000  0.000  0.500
atom   22   Tr[ns(na)] =   5.00000
    eigenvalues: 
  0.500  0.500  0.500  0.500  0.500
    eigenvectors:
  1.000  0.000  0.000  0.000  0.000
  0.000  1.000  0.000  0.000  0.000
  0.000  0.000  1.000  0.000  0.000
  0.000  0.000  0.000  1.000  0.000
  0.000  0.000  0.000  0.000  1.000
    occupations:
  0.500  0.000  0.000  0.000  0.000
  0.000  0.500  0.000  0.000  0.000
  0.000  0.000  0.500  0.000  0.000
  0.000  0.000  0.000  0.500  0.000
  0.000  0.000  0.000  0.000  0.500
atom   23   Tr[ns(na)] =   5.00000
    eigenvalues: 
  0.500  0.500  0.500  0.500  0.500
    eigenvectors:
  1.000  0.000  0.000  0.000  0.000
  0.000  1.000  0.000  0.000  0.000
  0.000  0.000  1.000  0.000  0.000
  0.000  0.000  0.000  1.000  0.000
  0.000  0.000  0.000  0.000  1.000
    occupations:
  0.500  0.000  0.000  0.000  0.000
  0.000  0.500  0.000  0.000  0.000
  0.000  0.000  0.500  0.000  0.000
  0.000  0.000  0.000  0.500  0.000
  0.000  0.000  0.000  0.000  0.500
N of occupied +U levels =  40.0000000
 --- exit write_ns ---
 Atomic wfc used for LDA+U Projector are NOT orthogonalized
     Starting wfc are  185 randomized atomic wfcs

     total cpu time spent up to now is      143.6 secs

     per-process dynamical memory:   420.5 Mb

     Self-consistent Calculation

     iteration #  1     ecut=    40.00 Ry     beta=0.70
     Davidson diagonalization with overlap
     ethr =  1.00E-02,  avg # of iterations =  5.7
 --- enter write_ns ---
 LDA+U parameters:
U( 2)     =  3.00000000
alpha( 2) =  0.00000000
atom    3   Tr[ns(na)] =   5.29603
    eigenvalues: 
  0.377  0.461  0.495  0.599  0.716
    eigenvectors:
  0.005  0.001  0.464  0.000  0.529
  0.000  0.996  0.003  0.000  0.000
  0.993  0.000  0.001  0.002  0.003
  0.000  0.002  0.531  0.000  0.467
  0.002  0.000  0.000  0.997  0.000
    occupations:
  0.611  0.001  0.017 -0.110  0.003
  0.001  0.461  0.000  0.002 -0.002
  0.017  0.000  0.379 -0.010 -0.010
 -0.110  0.002 -0.010  0.598 -0.002
  0.003 -0.002 -0.010 -0.002  0.598
atom    4   Tr[ns(na)] =   5.18308
    eigenvalues: 
  0.360  0.458  0.512  0.555  0.706
    eigenvectors:
  0.000  0.000  0.948  0.008  0.044
  0.000  0.000  0.008  0.992  0.000
  1.000  0.000  0.000  0.000  0.000
  0.000  0.000  0.044  0.000  0.956
  0.000  1.000  0.000  0.000  0.000
    occupations:
  0.521  0.004  0.001 -0.040 -0.000
  0.004  0.555  0.003  0.000 -0.000
  0.001  0.003  0.360 -0.000  0.000
 -0.040  0.000 -0.000  0.698  0.000
 -0.000 -0.000  0.000  0.000  0.458
atom    9   Tr[ns(na)] =   6.09056
    eigenvalues: 
  0.509  0.512  0.567  0.727  0.730
    eigenvectors:
  0.287  0.083  0.000  0.018  0.612
  0.233  0.767  0.000  0.000  0.000
  0.000  0.000  0.996  0.004  0.000
  0.481  0.149  0.000  0.010  0.359
  0.000  0.000  0.004  0.968  0.028
    occupations:
  0.649 -0.002 -0.000 -0.107  0.000
 -0.002  0.511 -0.000 -0.000  0.000
 -0.000 -0.000  0.567 -0.000 -0.010
 -0.107 -0.000 -0.000  0.591 -0.000
  0.000  0.000 -0.010 -0.000  0.727
atom   10   Tr[ns(na)] =   6.45600
    eigenvalues: 
  0.439  0.467  0.746  0.775  0.800
    eigenvectors:
  0.977  0.000  0.023  0.000  0.000
  0.000  0.000  0.000  0.000  1.000
  0.000  0.000  0.000  1.000  0.000
  0.023  0.000  0.977  0.000  0.000
  0.000  1.000  0.000  0.000  0.000
    occupations:
  0.446 -0.004  0.000 -0.046  0.000
 -0.004  0.800  0.000 -0.001  0.000
  0.000  0.000  0.775 -0.000  0.003
 -0.046 -0.001 -0.000  0.739 -0.000
  0.000  0.000  0.003 -0.000  0.467
atom   16   Tr[ns(na)] =   5.29706
    eigenvalues: 
  0.378  0.461  0.495  0.599  0.716
    eigenvectors:
  0.005  0.001  0.466  0.000  0.528
  0.000  0.996  0.004  0.000  0.000
  0.993  0.000  0.001  0.002  0.003
  0.000  0.002  0.529  0.000  0.468
  0.002  0.000  0.000  0.997  0.000
    occupations:
  0.611 -0.000  0.017 -0.110 -0.002
 -0.000  0.461 -0.000 -0.002 -0.002
  0.017 -0.000  0.380 -0.010  0.010
 -0.110 -0.002 -0.010  0.598  0.002
 -0.002 -0.002  0.010  0.002  0.599
atom   17   Tr[ns(na)] =   5.14714
    eigenvalues: 
  0.355  0.457  0.513  0.542  0.707
    eigenvectors:
  0.000  0.000  0.936  0.019  0.044
  0.000  0.000  0.020  0.979  0.000
  1.000  0.000  0.000  0.000  0.000
  0.000  0.000  0.043  0.001  0.956
  0.000  1.000  0.000  0.000  0.000
    occupations:
  0.522  0.004  0.001 -0.040 -0.000
  0.004  0.541  0.002  0.000 -0.000
  0.001  0.002  0.355 -0.001  0.001
 -0.040  0.000 -0.001  0.698  0.000
 -0.000 -0.000  0.001  0.000  0.457
atom   22   Tr[ns(na)] =   6.08420
    eigenvalues: 
  0.508  0.512  0.564  0.728  0.731
    eigenvectors:
  0.276  0.094  0.000  0.013  0.618
  0.261  0.739  0.000  0.000  0.000
  0.000  0.000  0.997  0.003  0.000
  0.463  0.168  0.000  0.008  0.362
  0.000  0.000  0.003  0.977  0.020
    occupations:
  0.649  0.002  0.000 -0.107  0.000
  0.002  0.511 -0.000  0.000 -0.000
  0.000 -0.000  0.564 -0.000  0.009
 -0.107  0.000 -0.000  0.591 -0.000
  0.000 -0.000  0.009 -0.000  0.727
atom   23   Tr[ns(na)] =   6.19079
    eigenvalues: 
  0.471  0.509  0.601  0.741  0.773
    eigenvectors:
  0.000  0.960  0.000  0.039  0.000
  0.000  0.001  0.000  0.000  0.999
  0.000  0.000  1.000  0.000  0.000
  0.000  0.039  0.000  0.961  0.000
  1.000  0.000  0.000  0.000  0.000
    occupations:
  0.518  0.006 -0.001 -0.045  0.000
  0.006  0.773  0.000  0.001  0.000
 -0.001  0.000  0.601  0.000 -0.001
 -0.045  0.001  0.000  0.732  0.000
  0.000  0.000 -0.001  0.000  0.471
N of occupied +U levels =  45.7448720
 --- exit write_ns ---

     negative rho (up, down):  0.287E+00 0.000E+00

     total cpu time spent up to now is      550.9 secs

     total energy              =   -2167.18247780 Ry
     Harris-Foulkes estimate   =   -2176.01416606 Ry
     estimated scf accuracy    <      10.86107951 Ry

     iteration #  2     ecut=    40.00 Ry     beta=0.70
     Davidson diagonalization with overlap
     ethr =  4.54E-03,  avg # of iterations =  5.1

     negative rho (up, down):  0.284E+00 0.000E+00

     total cpu time spent up to now is      917.2 secs

     total energy              =   -2105.93658199 Ry
     Harris-Foulkes estimate   =   -2248.08131587 Ry
     estimated scf accuracy    <    2001.73306824 Ry

     iteration #  3     ecut=    40.00 Ry     beta=0.70
     Davidson diagonalization with overlap
     ethr =  4.54E-03,  avg # of iterations =  5.0

     negative rho (up, down):  0.241E+00 0.000E+00

     total cpu time spent up to now is     1297.1 secs

     total energy              =   -2165.16763502 Ry
     Harris-Foulkes estimate   =   -2182.48492434 Ry
     estimated scf accuracy    <     156.61343660 Ry

     iteration #  4     ecut=    40.00 Ry     beta=0.70
     Davidson diagonalization with overlap
     ethr =  4.54E-03,  avg # of iterations =  3.1

     negative rho (up, down):  0.235E+00 0.000E+00

     total cpu time spent up to now is     1540.8 secs

     total energy              =   -2173.69057910 Ry
     Harris-Foulkes estimate   =   -2175.59883035 Ry
     estimated scf accuracy    <      10.29597742 Ry

     iteration #  5     ecut=    40.00 Ry     beta=0.70
     Davidson diagonalization with overlap
     ethr =  4.31E-03,  avg # of iterations =  1.1

     negative rho (up, down):  0.236E+00 0.000E+00

     total cpu time spent up to now is     1780.9 secs

     total energy              =   -2174.55523124 Ry
     Harris-Foulkes estimate   =   -2174.79974151 Ry
     estimated scf accuracy    <       2.07730172 Ry

     iteration #  6     ecut=    40.00 Ry     beta=0.70
     Davidson diagonalization with overlap
     ethr =  8.69E-04,  avg # of iterations =  3.2

     negative rho (up, down):  0.236E+00 0.000E+00

     total cpu time spent up to now is     2030.4 secs

     total energy              =   -2174.58262081 Ry
     Harris-Foulkes estimate   =   -2174.71848331 Ry
     estimated scf accuracy    <       0.91742470 Ry

     iteration #  7     ecut=    40.00 Ry     beta=0.70
     Davidson diagonalization with overlap
     ethr =  3.84E-04,  avg # of iterations =  3.3

     negative rho (up, down):  0.238E+00 0.000E+00

     total cpu time spent up to now is     2274.8 secs

     total energy              =   -2174.58883577 Ry
     Harris-Foulkes estimate   =   -2174.67113489 Ry
     estimated scf accuracy    <       0.56933578 Ry

     iteration #  8     ecut=    40.00 Ry     beta=0.70
     Davidson diagonalization with overlap
     ethr =  2.38E-04,  avg # of iterations =  4.5

     negative rho (up, down):  0.239E+00 0.000E+00

     total cpu time spent up to now is     2531.1 secs

     total energy              =   -2174.55225057 Ry
     Harris-Foulkes estimate   =   -2174.70328084 Ry
     estimated scf accuracy    <       1.16754776 Ry

     iteration #  9     ecut=    40.00 Ry     beta=0.70
     Davidson diagonalization with overlap
     ethr =  2.38E-04,  avg # of iterations =  1.7

     negative rho (up, down):  0.241E+00 0.000E+00

     total cpu time spent up to now is     2766.2 secs

     total energy              =   -2174.60028839 Ry
     Harris-Foulkes estimate   =   -2174.66298265 Ry
     estimated scf accuracy    <       0.61879060 Ry

     iteration # 10     ecut=    40.00 Ry     beta=0.70
     Davidson diagonalization with overlap
     ethr =  2.38E-04,  avg # of iterations =  3.8

     negative rho (up, down):  0.242E+00 0.000E+00

     total cpu time spent up to now is     3004.7 secs

     total energy              =   -2174.60984602 Ry
     Harris-Foulkes estimate   =   -2174.63706432 Ry
     estimated scf accuracy    <       0.16080307 Ry

     iteration # 11     ecut=    40.00 Ry     beta=0.70
     Davidson diagonalization with overlap
     ethr =  6.73E-05,  avg # of iterations =  5.4

     negative rho (up, down):  0.242E+00 0.000E+00

     total cpu time spent up to now is     3263.7 secs

     total energy              =   -2174.61901185 Ry
     Harris-Foulkes estimate   =   -2174.62671205 Ry
     estimated scf accuracy    <       0.03004698 Ry

     iteration # 12     ecut=    40.00 Ry     beta=0.70
     Davidson diagonalization with overlap
     ethr =  1.26E-05,  avg # of iterations =  3.5

     negative rho (up, down):  0.242E+00 0.000E+00

     total cpu time spent up to now is     3503.0 secs

     total energy              =   -2174.62253273 Ry
     Harris-Foulkes estimate   =   -2174.62585668 Ry
     estimated scf accuracy    <       0.04858323 Ry

     iteration # 13     ecut=    40.00 Ry     beta=0.70
     Davidson diagonalization with overlap
     ethr =  1.26E-05,  avg # of iterations =  1.0

     negative rho (up, down):  0.242E+00 0.000E+00

     total cpu time spent up to now is     3735.1 secs

     total energy              =   -2174.62298913 Ry
     Harris-Foulkes estimate   =   -2174.62413619 Ry
     estimated scf accuracy    <       0.01339559 Ry

     iteration # 14     ecut=    40.00 Ry     beta=0.70
     Davidson diagonalization with overlap
     ethr =  5.60E-06,  avg # of iterations =  4.2

     negative rho (up, down):  0.242E+00 0.000E+00

     total cpu time spent up to now is     3985.5 secs

     total energy              =   -2174.62171393 Ry
     Harris-Foulkes estimate   =   -2174.62587447 Ry
     estimated scf accuracy    <       0.03736696 Ry

     iteration # 15     ecut=    40.00 Ry     beta=0.70
     Davidson diagonalization with overlap
     ethr =  5.60E-06,  avg # of iterations =  4.1

     negative rho (up, down):  0.242E+00 0.000E+00

     total cpu time spent up to now is     4234.7 secs

     total energy              =   -2174.62365820 Ry
     Harris-Foulkes estimate   =   -2174.62440381 Ry
     estimated scf accuracy    <       0.00405589 Ry

     iteration # 16     ecut=    40.00 Ry     beta=0.70
     Davidson diagonalization with overlap
     ethr =  1.70E-06,  avg # of iterations =  2.8

     negative rho (up, down):  0.242E+00 0.000E+00

     total cpu time spent up to now is     4468.3 secs

     total energy              =   -2174.62373098 Ry
     Harris-Foulkes estimate   =   -2174.62436056 Ry
     estimated scf accuracy    <       0.01016373 Ry

     iteration # 17     ecut=    40.00 Ry     beta=0.70
     Davidson diagonalization with overlap
     ethr =  1.70E-06,  avg # of iterations =  1.2

     negative rho (up, down):  0.242E+00 0.000E+00

     total cpu time spent up to now is     4695.1 secs

     total energy              =   -2174.62370111 Ry
     Harris-Foulkes estimate   =   -2174.62448087 Ry
     estimated scf accuracy    <       0.00706169 Ry

     iteration # 18     ecut=    40.00 Ry     beta=0.70
     Davidson diagonalization with overlap
     ethr =  1.70E-06,  avg # of iterations =  1.0

     negative rho (up, down):  0.242E+00 0.000E+00

     total cpu time spent up to now is     4930.3 secs

     total energy              =   -2174.62406208 Ry
     Harris-Foulkes estimate   =   -2174.62414444 Ry
     estimated scf accuracy    <       0.00050530 Ry

     iteration # 19     ecut=    40.00 Ry     beta=0.70
     Davidson diagonalization with overlap
     ethr =  2.11E-07,  avg # of iterations =  1.0

     negative rho (up, down):  0.242E+00 0.000E+00

     total cpu time spent up to now is     5158.4 secs

     total energy              =   -2174.62410696 Ry
     Harris-Foulkes estimate   =   -2174.62412050 Ry
     estimated scf accuracy    <       0.00017699 Ry

     iteration # 20     ecut=    40.00 Ry     beta=0.70
     Davidson diagonalization with overlap
     ethr =  7.41E-08,  avg # of iterations =  1.0

     negative rho (up, down):  0.242E+00 0.000E+00

     total cpu time spent up to now is     5386.5 secs

     total energy              =   -2174.62411292 Ry
     Harris-Foulkes estimate   =   -2174.62412009 Ry
     estimated scf accuracy    <       0.00004482 Ry

     iteration # 21     ecut=    40.00 Ry     beta=0.70
     Davidson diagonalization with overlap
     ethr =  1.88E-08,  avg # of iterations =  1.0

     negative rho (up, down):  0.242E+00 0.000E+00

     total cpu time spent up to now is     5622.9 secs

     total energy              =   -2174.62411404 Ry
     Harris-Foulkes estimate   =   -2174.62412100 Ry
     estimated scf accuracy    <       0.00004672 Ry

     iteration # 22     ecut=    40.00 Ry     beta=0.70
     Davidson diagonalization with overlap
     ethr =  1.88E-08,  avg # of iterations =  1.0

     negative rho (up, down):  0.242E+00 0.000E+00

     total cpu time spent up to now is     5862.1 secs

     total energy              =   -2174.62411633 Ry
     Harris-Foulkes estimate   =   -2174.62412027 Ry
     estimated scf accuracy    <       0.00001807 Ry

     iteration # 23     ecut=    40.00 Ry     beta=0.70
     Davidson diagonalization with overlap
     ethr =  7.56E-09,  avg # of iterations =  1.0

     negative rho (up, down):  0.242E+00 0.000E+00

     total cpu time spent up to now is     6097.7 secs

     total energy              =   -2174.62411716 Ry
     Harris-Foulkes estimate   =   -2174.62411980 Ry
     estimated scf accuracy    <       0.00001397 Ry

     iteration # 24     ecut=    40.00 Ry     beta=0.70
     Davidson diagonalization with overlap
     ethr =  5.85E-09,  avg # of iterations =  1.0

     negative rho (up, down):  0.242E+00 0.000E+00

     total cpu time spent up to now is     6333.5 secs

     total energy              =   -2174.62411702 Ry
     Harris-Foulkes estimate   =   -2174.62412036 Ry
     estimated scf accuracy    <       0.00003323 Ry

     iteration # 25     ecut=    40.00 Ry     beta=0.70
     Davidson diagonalization with overlap
     ethr =  5.85E-09,  avg # of iterations =  1.0

     negative rho (up, down):  0.242E+00 0.000E+00

     total cpu time spent up to now is     6569.4 secs

     total energy              =   -2174.62411854 Ry
     Harris-Foulkes estimate   =   -2174.62411925 Ry
     estimated scf accuracy    <       0.00000558 Ry

     iteration # 26     ecut=    40.00 Ry     beta=0.70
     Davidson diagonalization with overlap
     ethr =  2.33E-09,  avg # of iterations =  1.0

     negative rho (up, down):  0.242E+00 0.000E+00

     total cpu time spent up to now is     6816.1 secs

     End of self-consistent calculation
 --- enter write_ns ---
 LDA+U parameters:
U( 2)     =  3.00000000
alpha( 2) =  0.00000000
atom    3   Tr[ns(na)] =   6.57490
    eigenvalues: 
  0.539  0.569  0.618  0.767  0.794
    eigenvectors:
  0.001  0.354  0.004  0.641  0.000
  0.998  0.001  0.000  0.000  0.001
  0.000  0.001  0.990  0.009  0.000
  0.000  0.645  0.006  0.349  0.000
  0.001  0.000  0.000  0.001  0.998
    occupations:
  0.696 -0.004  0.012 -0.094  0.001
 -0.004  0.540  0.001  0.002 -0.008
  0.012  0.001  0.619 -0.007 -0.002
 -0.094  0.002 -0.007  0.639 -0.000
  0.001 -0.008 -0.002 -0.000  0.794
atom    4   Tr[ns(na)] =   6.54848
    eigenvalues: 
  0.566  0.602  0.617  0.713  0.776
    eigenvectors:
  0.000  0.985  0.000  0.001  0.014
  0.000  0.001  0.008  0.992  0.000
  0.000  0.000  0.992  0.007  0.000
  0.000  0.014  0.000  0.000  0.986
  1.000  0.000  0.000  0.000  0.000
    occupations:
  0.605  0.003  0.000 -0.020  0.001
  0.003  0.712  0.008 -0.000 -0.002
  0.000  0.008  0.618  0.001 -0.000
 -0.020 -0.000  0.001  0.774 -0.000
  0.001 -0.002 -0.000 -0.000  0.566
atom    9   Tr[ns(na)] =   6.55043
    eigenvalues: 
  0.594  0.607  0.608  0.714  0.753
    eigenvectors:
  0.256  0.000  0.000  0.001  0.743
  0.000  0.999  0.001  0.000  0.000
  0.000  0.001  0.994  0.005  0.000
  0.744  0.000  0.000  0.000  0.255
  0.000  0.000  0.005  0.993  0.001
    occupations:
  0.712 -0.000 -0.001 -0.069  0.001
 -0.000  0.607  0.000  0.000  0.000
 -0.001  0.000  0.609  0.001 -0.008
 -0.069  0.000  0.001  0.635 -0.001
  0.001  0.000 -0.008 -0.001  0.713
atom   10   Tr[ns(na)] =   6.51347
    eigenvalues: 
  0.484  0.536  0.648  0.756  0.832
    eigenvectors:
  0.998  0.000  0.000  0.002  0.001
  0.001  0.000  0.000  0.000  0.999
  0.000  0.000  1.000  0.000  0.000
  0.002  0.000  0.000  0.998  0.000
  0.000  1.000  0.000  0.000  0.000
    occupations:
  0.484 -0.008 -0.000 -0.011 -0.000
 -0.008  0.832  0.000 -0.001  0.001
 -0.000  0.000  0.648 -0.000  0.001
 -0.011 -0.001 -0.000  0.756 -0.000
 -0.000  0.001  0.001 -0.000  0.536
atom   16   Tr[ns(na)] =   6.57625
    eigenvalues: 
  0.539  0.569  0.621  0.767  0.793
    eigenvectors:
  0.001  0.355  0.004  0.640  0.000
  0.998  0.001  0.000  0.000  0.001
  0.000  0.001  0.990  0.009  0.000
  0.000  0.644  0.006  0.350  0.000
  0.001  0.000  0.000  0.001  0.998
    occupations:
  0.696  0.004  0.012 -0.094 -0.001
  0.004  0.539 -0.001 -0.002 -0.008
  0.012 -0.001  0.622 -0.007  0.003
 -0.094 -0.002 -0.007  0.639  0.001
 -0.001 -0.008  0.003  0.001  0.793
atom   17   Tr[ns(na)] =   6.54075
    eigenvalues: 
  0.567  0.605  0.609  0.708  0.782
    eigenvectors:
  0.000  0.982  0.004  0.001  0.013
  0.000  0.001  0.005  0.994  0.000
  0.000  0.004  0.991  0.005  0.000
  0.000  0.013  0.000  0.000  0.987
  1.000  0.000  0.000  0.000  0.000
    occupations:
  0.608  0.003  0.000 -0.020  0.001
  0.003  0.707  0.007 -0.000 -0.002
  0.000  0.007  0.609  0.001 -0.000
 -0.020 -0.000  0.001  0.779 -0.000
  0.001 -0.002 -0.000 -0.000  0.567
atom   22   Tr[ns(na)] =   6.54802
    eigenvalues: 
  0.594  0.606  0.606  0.713  0.755
    eigenvectors:
  0.257  0.000  0.000  0.003  0.740
  0.000  0.813  0.187  0.000  0.000
  0.000  0.187  0.810  0.003  0.000
  0.743  0.000  0.000  0.001  0.256
  0.000  0.000  0.002  0.993  0.004
    occupations:
  0.713  0.001 -0.001 -0.070  0.002
  0.001  0.606  0.000 -0.000  0.000
 -0.001  0.000  0.606  0.001  0.006
 -0.070 -0.000  0.001  0.635 -0.002
  0.002  0.000  0.006 -0.002  0.713
atom   23   Tr[ns(na)] =   6.53998
    eigenvalues: 
  0.539  0.554  0.594  0.787  0.797
    eigenvectors:
  0.000  0.000  0.994  0.005  0.001
  0.000  0.000  0.001  0.013  0.986
  0.995  0.005  0.000  0.000  0.000
  0.000  0.000  0.004  0.983  0.013
  0.005  0.995  0.000  0.000  0.000
    occupations:
  0.595  0.007 -0.001 -0.013  0.000
  0.007  0.796  0.000  0.002  0.002
 -0.001  0.000  0.539  0.001 -0.001
 -0.013  0.002  0.001  0.786 -0.000
  0.000  0.002 -0.001 -0.000  0.554
N of occupied +U levels =  52.3922803
 --- exit write_ns ---

          k = 0.0000 0.0000 0.0000 ( 29221 PWs)   bands (ev):

   -81.2146 -81.1125 -81.0210 -80.9638 -80.9518 -80.6624 -80.6115 -80.6068
   -43.3916 -43.2732 -43.1366 -43.1289 -43.0566 -43.0036 -42.9901 -42.9669
   -42.9404 -42.9310 -42.8715 -42.8491 -42.8393 -42.7215 -42.7196 -42.6052
   -42.5950 -42.5907 -42.5758 -42.5133 -42.4913 -42.3740 -42.0352 -41.9475
   -20.9853 -20.5316 -20.4816 -20.3069 -20.0500 -19.9185 -19.5688 -19.5547
   -19.5212 -19.5094 -19.4618 -19.2853 -19.2450 -19.1702 -19.1173 -19.0627
   -18.8176 -18.3247 -17.9712  -9.6356  -9.4741  -9.2366  -8.8875  -8.5822
    -8.4412  -8.3743  -8.0532  -7.9748  -7.9316  -7.8184  -7.7393  -7.6510
    -7.4306  -7.2377  -7.2103  -7.0085  -6.9456  -6.8305  -6.8111  -6.6022
    -6.5022  -6.2434  -6.0116  -5.6598  -5.5884  -5.5153  -5.4728  -5.3216
    -5.1980  -5.1692  -5.0477  -4.9924  -4.7877  -4.7268  -4.5914  -4.4714
    -4.4173  -4.3744  -4.1804  -4.1601  -4.0134  -3.8965  -3.8315  -3.7234
    -3.6644  -3.6262  -3.3411  -3.2984  -3.2732  -3.2468  -3.1852  -3.0515
    -3.0198  -2.9078  -2.8995  -2.7672  -2.6621  -2.5309  -2.3632  -1.2674
    -0.8828  -0.7411  -0.3123  -0.2073   0.0340   0.2352   0.3983   0.4488
     0.5305   0.7160   0.7187   1.0069   1.0895   1.3179   1.7521   1.9445
     2.6975   2.8467   3.0121   3.1996   3.2543   3.3188   3.5236   3.7198
     4.0971   4.2791   4.3028   4.5735   4.6655   4.7795   4.7818   4.9584
     5.0252   5.0286   5.1411   5.1951   5.2984   5.4504   5.5283   6.0220
     6.2054   6.4428   6.6119   6.9002   7.4317   7.6133   7.7262   7.7855
     7.8454   8.0172   8.1032   8.1451   8.3274   8.3485   8.5679   8.7633
     8.8522   8.9737   9.0149   9.0882   9.1419   9.2839   9.3167   9.4184
     9.4816   9.6536   9.7969   9.8226   9.9014   9.9450  10.0265  10.0772
    10.1995  10.2181  10.4292  10.5545  10.5867  10.6563  10.7673  10.9203
    11.0393  11.1747  11.2444  11.3441  11.4530  11.5124  11.5527  11.8338
    11.8551  11.9331  11.9773  12.0028  12.1359  12.2599  12.2867  12.4774
    12.6366  12.7006  12.8978  12.9464  12.9765  13.0475  13.0641  13.0946
    13.1212  13.1901  13.2470  13.3126  13.3267  13.3706  13.4551  13.5558
    13.6293  13.6573  13.6634  13.8767  13.9421  14.0198  14.0346  14.0582
    14.0855  14.1028  14.1373  14.2296  14.2964  14.3220  14.4083  14.5533
    14.6788  14.8064  14.8884  14.9468  15.0265  15.0605  15.0911  15.1437
    15.2733  15.4487  15.4954  15.5439  15.6180  15.7179  15.7647  15.9278
    15.9486  16.0311  16.0754  16.1372  16.2616  16.3204  16.5170  16.5659
    16.6247  16.6899  16.7812  16.8616  16.9888  17.0062  17.1057  17.1692
    17.2207  17.2479  17.3089  17.4453  17.4983  17.5295  17.5879  17.6585
    17.7428  17.8917  17.9557  18.1055  18.1342  18.3311  18.3490  18.4039
    18.5899  18.7056  18.7240  18.7879  18.8580  18.9339  18.9732  19.0348
    19.1922  19.2529  19.3710  19.4336  19.5178  19.5878  19.6528  19.7398
    19.8064  19.8485  20.0253  20.0670  20.1165  20.1521  20.2120  20.2395
    20.4325  20.4406  20.5317  20.5906  20.6479  20.7530  20.8026  20.9783
    20.9949  21.0642  21.2047  21.3416  21.3736  21.4832  21.5111  21.6048
    21.6322  21.7277  21.8090  21.8405  21.8981  21.9844  22.0951  22.1166
    22.1713  22.2302  22.2436  22.2885  22.3317  22.3502  22.3854  22.4073
    22.5132  22.5262  22.5430  22.6386  22.7314  22.8085  22.8255  22.8769
    22.9505  22.9888  23.0175  23.0298  23.1510  23.1645

          k = 0.0000 0.1914 0.0000 ( 29141 PWs)   bands (ev):

   -81.2145 -81.1127 -81.0208 -80.9638 -80.9518 -80.6622 -80.6115 -80.6068
   -43.3918 -43.2731 -43.1365 -43.1279 -43.0471 -43.0036 -42.9995 -42.9668
   -42.9512 -42.9199 -42.8715 -42.8491 -42.8387 -42.7215 -42.7196 -42.6052
   -42.5954 -42.5907 -42.5779 -42.5134 -42.4907 -42.3740 -42.0352 -41.9475
   -20.9332 -20.4418 -20.3914 -20.2768 -20.0496 -19.8973 -19.8487 -19.7646
   -19.5804 -19.5238 -19.5097 -19.3545 -19.2938 -19.0606 -18.9541 -18.9010
   -18.8134 -18.3223 -17.9707  -9.3577  -9.1266  -9.0012  -8.9059  -8.8076
    -8.5040  -8.4810  -8.3728  -8.2367  -8.1983  -8.1546  -7.8797  -7.7513
    -7.5139  -7.2840  -7.2364  -6.8439  -6.6111  -6.5467  -6.3832  -6.2560
    -6.1895  -6.0828  -5.9769  -5.7915  -5.6978  -5.6471  -5.5658  -5.4854
    -5.3604  -5.3204  -5.2009  -5.1428  -4.8074  -4.7531  -4.6368  -4.4793
    -4.4036  -4.3379  -4.2451  -4.0422  -3.9401  -3.8598  -3.6716  -3.6106
    -3.5112  -3.4970  -3.4598  -3.3165  -3.2522  -3.1941  -3.1461  -3.0135
    -2.9729  -2.9042  -2.8589  -2.7752  -2.6805  -2.5517  -2.4294  -1.3516
    -1.2690  -1.2061  -0.9778  -0.2009   0.1080   0.6382   0.6500   0.8043
     0.8898   0.9166   0.9308   1.0147   1.0979   1.3614   1.5305   1.8432
     2.4802   3.0181   3.2013   3.2106   3.2994   3.4414   3.6067   3.8238
     3.8464   4.0914   4.2633   4.3038   4.3439   4.3476   4.4740   4.5515
     4.9153   5.0922   5.1459   5.3559   5.5319   5.7889   6.1380   6.4352
     6.5153   6.5742   6.6921   6.7631   6.7757   7.0211   7.1838   7.5309
     7.7675   7.9176   8.0154   8.1737   8.2488   8.4375   8.6599   8.8920
     8.9415   9.1022   9.2410   9.2996   9.4432   9.4943   9.6401   9.6967
     9.7481   9.8693   9.9949  10.0216  10.0581  10.1397  10.2355  10.3016
    10.4053  10.4655  10.5788  10.6680  10.7785  10.8030  10.9224  11.0248
    11.1367  11.2182  11.2637  11.3611  11.4326  11.5310  11.6200  11.6549
    11.6994  11.8488  11.8701  11.9115  12.0565  12.1189  12.2086  12.2723
    12.3189  12.3626  12.4119  12.5432  12.5920  12.6152  12.7318  12.8396
    12.9475  13.0142  13.1360  13.2221  13.3042  13.4180  13.4683  13.5584
    13.6341  13.7045  13.8498  13.8734  13.9019  13.9913  14.0337  14.0858
    14.1494  14.2431  14.3324  14.4229  14.4556  14.5687  14.6056  14.6702
    14.7232  14.8030  14.8550  14.8836  14.9430  15.0017  15.1034  15.1369
    15.2798  15.3144  15.3712  15.4307  15.5823  15.6408  15.6761  15.7432
    15.7974  15.8276  15.8727  15.9331  15.9503  16.1761  16.3138  16.3727
    16.5172  16.6202  16.6702  16.8125  16.8705  16.9511  17.0622  17.1532
    17.2065  17.3150  17.3477  17.3891  17.4411  17.6501  17.7358  17.8311
    17.9503  18.0644  18.1198  18.2867  18.3280  18.4323  18.5698  18.6494
    18.6771  18.7847  18.8311  18.9650  19.0399  19.0574  19.0790  19.1404
    19.1764  19.3036  19.3750  19.4716  19.5049  19.5520  19.5747  19.5944
    19.6734  19.6940  19.8044  19.9001  19.9724  20.0200  20.0801  20.1795
    20.2785  20.3230  20.3593  20.4292  20.4636  20.4927  20.5199  20.6921
    20.8009  20.8204  20.9197  20.9610  21.0240  21.0604  21.1558  21.1977
    21.4427  21.4831  21.5360  21.5984  21.6616  21.6778  21.7572  21.7933
    21.8874  21.9488  22.0111  22.1830  22.2284  22.2763  22.3177  22.4164
    22.5033  22.5439  22.6158  22.6376  22.7053  22.7828  22.7889  22.8764
    22.9622  22.9835  23.0395  23.0874  23.2998  23.3304

          k = 0.0000-0.3828 0.0000 ( 29262 PWs)   bands (ev):

   -81.2145 -81.1128 -81.0205 -80.9638 -80.9518 -80.6619 -80.6115 -80.6069
   -43.3919 -43.2732 -43.1365 -43.1268 -43.0286 -43.0180 -43.0036 -42.9667
   -42.9571 -42.9139 -42.8714 -42.8491 -42.8382 -42.7215 -42.7196 -42.6053
   -42.5959 -42.5907 -42.5800 -42.5134 -42.4903 -42.3740 -42.0352 -41.9475
   -20.8861 -20.3597 -20.3168 -20.1366 -19.9968 -19.9301 -19.9082 -19.9008
   -19.7036 -19.6580 -19.5271 -19.4926 -19.4455 -19.0604 -18.8321 -18.7373
   -18.7040 -18.3208 -17.9702  -9.2998  -9.0508  -8.8664  -8.7642  -8.6830
    -8.6139  -8.5047  -8.4736  -8.3759  -8.2591  -8.2195  -7.7791  -7.7526
    -7.4276  -7.2247  -7.1503  -7.1040  -7.0225  -6.8355  -6.6435  -6.4884
    -6.1108  -5.8767  -5.7641  -5.6713  -5.6372  -5.5136  -5.3670  -5.2856
    -5.2438  -5.2046  -5.1779  -5.0319  -4.9999  -4.7985  -4.7781  -4.5721
    -4.4277  -4.3850  -4.0581  -4.0142  -3.8545  -3.7773  -3.7544  -3.7114
    -3.6299  -3.5218  -3.5034  -3.3940  -3.2951  -3.1200  -2.9960  -2.8695
    -2.8291  -2.7988  -2.7568  -2.7367  -2.6818  -2.6299  -2.4694  -1.6390
    -1.6224  -1.5345  -1.2563  -0.2744   0.4831   0.7169   0.7555   0.8255
     0.8904   1.0851   1.1879   1.2421   1.3338   1.4531   1.6006   1.6663
     2.2855   2.8568   2.9215   3.1419   3.3030   3.3552   3.4494   3.7124
     3.9233   4.0387   4.1067   4.2741   4.3110   4.4185   4.7906   4.9183
     4.9539   5.1471   5.2195   5.3644   5.5746   5.6965   5.9427   6.0977
     6.3350   6.5448   6.7203   6.7468   7.0301   7.1585   7.1843   7.2855
     7.3661   7.6226   7.8047   8.1255   8.3382   8.6564   8.6723   8.7989
     8.8289   9.0561   9.2290   9.4475   9.5118   9.7049   9.9058   9.9839
    10.0320  10.0500  10.3657  10.3873  10.4162  10.5095  10.6108  10.6364
    10.7345  10.7532  10.8078  10.9406  11.0001  11.0287  11.1201  11.1953
    11.2801  11.3474  11.4554  11.4740  11.5247  11.5543  11.5859  11.6063
    11.6473  11.7111  11.7641  11.7742  11.8604  11.9501  12.0402  12.0537
    12.1152  12.2069  12.3133  12.3324  12.3514  12.3717  12.4559  12.5607
    12.6086  12.7323  12.9269  12.9610  12.9820  13.0391  13.1723  13.4128
    13.5101  13.5468  13.5883  13.6384  13.6873  13.7467  13.8060  13.8813
    13.9409  14.0927  14.1385  14.2374  14.2711  14.3394  14.3790  14.4261
    14.5103  14.7196  14.7508  14.8969  14.9560  15.0856  15.1306  15.3775
    15.4298  15.5465  15.6027  15.6791  15.7877  15.8939  15.9635  16.1406
    16.1711  16.2962  16.4548  16.4639  16.5505  16.6021  16.7171  16.7808
    16.8057  16.8828  16.9338  17.0007  17.0434  17.0662  17.0819  17.1480
    17.3001  17.3364  17.3955  17.4868  17.5215  17.5643  17.5795  17.5973
    17.6707  17.7591  17.7819  17.9147  17.9161  18.0064  18.0813  18.2051
    18.2834  18.3494  18.3988  18.5362  18.5706  18.6623  18.6941  18.7319
    18.7780  18.8496  18.9810  19.0950  19.1322  19.1501  19.2045  19.2861
    19.4745  19.6790  19.7792  19.8379  19.8658  19.9056  19.9562  20.0249
    20.0473  20.2090  20.2633  20.2845  20.4408  20.5522  20.5865  20.7627
    20.8591  20.8879  20.9349  20.9820  21.0493  21.2320  21.2909  21.3158
    21.3846  21.4591  21.4671  21.5531  21.6600  21.7972  22.0043  22.0832
    22.1116  22.2389  22.3037  22.3641  22.3857  22.4047  22.6058  22.6606
    22.6980  22.7325  22.7646  22.8767  22.9945  23.0543  23.1156  23.1594
    23.2308  23.3102  23.3229  23.3530  23.4572  23.5285

          k = 0.2500 0.0000 0.0000 ( 29190 PWs)   bands (ev):

   -81.2058 -81.1117 -81.0084 -80.9681 -80.9471 -80.6497 -80.6106 -80.6079
   -43.2777 -43.1552 -43.1290 -43.1121 -43.0451 -43.0124 -42.9872 -42.9857
   -42.9524 -42.8612 -42.8507 -42.8092 -42.7482 -42.7442 -42.6765 -42.6553
   -42.6202 -42.6032 -42.5981 -42.5649 -42.5188 -42.5050 -42.1680 -42.0896
   -20.8244 -20.3936 -20.3559 -20.2521 -20.1165 -19.8267 -19.6549 -19.5427
   -19.5089 -19.4309 -19.4103 -19.4076 -19.3725 -19.2222 -19.1624 -19.0954
   -18.9114 -18.3646 -18.0903  -9.2093  -9.0966  -8.9260  -8.5939  -8.5111
    -8.1683  -8.1028  -8.0047  -7.8352  -7.7189  -7.6836  -7.6600  -7.5174
    -7.4552  -7.3870  -7.1789  -7.0295  -6.7679  -6.6783  -6.5509  -6.5038
    -6.4651  -6.3817  -6.2202  -6.1628  -5.8708  -5.7803  -5.6917  -5.3971
    -5.3004  -5.1852  -4.9619  -4.8830  -4.8228  -4.6676  -4.5652  -4.5147
    -4.4812  -4.4594  -4.4128  -4.2722  -4.2030  -4.0501  -3.8910  -3.8307
    -3.7115  -3.6440  -3.5465  -3.4161  -3.3684  -3.3204  -3.1374  -3.1039
    -2.9243  -2.7659  -2.7023  -2.6584  -2.4947  -2.4545  -2.0382  -0.9831
    -0.8749  -0.6894  -0.4098  -0.3141  -0.2119   0.0447   0.2574   0.3067
     0.4966   0.5342   0.7657   1.1193   1.2012   1.2812   1.4166   1.5569
     1.6689   1.7800   1.8356   2.1415   2.5613   3.5162   3.7669   4.0656
     4.1781   4.3500   4.4509   4.5540   4.6765   4.8431   4.8629   4.9519
     5.0129   5.0493   5.1735   5.2820   5.3742   5.7094   5.8088   6.2642
     6.3567   6.5286   6.7427   6.9782   7.1023   7.5278   7.6489   7.7316
     7.9774   8.0443   8.0744   8.1893   8.2794   8.3446   8.4480   8.5039
     8.6489   8.7241   8.8716   8.9466   9.1128   9.1860   9.3400   9.4099
     9.4943   9.5618   9.6828   9.7766   9.8716   9.9439  10.0017  10.0551
    10.1306  10.1788  10.4219  10.4451  10.5501  10.6490  10.7944  10.8256
    10.9445  11.0137  11.0607  11.1715  11.2447  11.3083  11.3636  11.5413
    11.5810  11.7409  11.8570  11.9162  12.0922  12.2583  12.3608  12.4231
    12.5004  12.5893  12.6646  12.7522  12.8756  12.9899  13.1132  13.2370
    13.2788  13.3342  13.4004  13.4839  13.5507  13.6586  13.7283  13.7773
    13.8936  13.9492  14.0588  14.1803  14.2503  14.3854  14.4580  14.5247
    14.5540  14.5970  14.6348  14.7985  14.8868  14.9511  15.0456  15.1221
    15.1915  15.2781  15.3336  15.4206  15.5424  15.6653  15.7090  15.8174
    15.8452  15.8982  15.9302  16.0846  16.1033  16.1598  16.2887  16.3348
    16.4027  16.4691  16.5666  16.6306  16.6937  16.7437  16.8228  16.8795
    16.9241  17.0488  17.1583  17.2264  17.3198  17.3518  17.4009  17.4306
    17.5165  17.5593  17.6321  17.6547  17.7300  17.7841  17.8441  18.0069
    18.0600  18.0958  18.1540  18.2353  18.2860  18.3571  18.3786  18.5399
    18.5929  18.6330  18.7524  18.8418  18.8940  18.9939  19.0858  19.1765
    19.2304  19.2782  19.3446  19.4056  19.4654  19.5263  19.5513  19.6358
    19.6966  19.8799  19.9081  19.9487  19.9863  20.0884  20.1244  20.1762
    20.2072  20.2861  20.3592  20.4340  20.4706  20.4943  20.5206  20.5533
    20.6152  20.7711  20.8422  20.8592  20.8837  20.9575  20.9673  21.0193
    21.0489  21.1613  21.2413  21.3160  21.3786  21.4762  21.5917  21.7361
    21.7638  21.8543  21.9161  21.9933  22.0561  22.1028  22.1682  22.2235
    22.3105  22.3311  22.3832  22.4351  22.4728  22.5016  22.5771  22.6901
    22.7085  22.7829  22.8905  22.9168  22.9893  23.0567

          k = 0.2500 0.1914 0.0000 ( 29229 PWs)   bands (ev):

   -81.2058 -81.1118 -81.0082 -80.9681 -80.9471 -80.6495 -80.6106 -80.6079
   -43.2778 -43.1553 -43.1290 -43.1110 -43.0361 -43.0125 -42.9945 -42.9852
   -42.9549 -42.8607 -42.8508 -42.8081 -42.7481 -42.7442 -42.6764 -42.6555
   -42.6203 -42.6038 -42.5983 -42.5666 -42.5187 -42.5050 -42.1680 -42.0896
   -20.7839 -20.3439 -20.2978 -20.1836 -20.0979 -19.8401 -19.7945 -19.7617
   -19.5653 -19.5438 -19.4380 -19.3745 -19.3004 -19.1260 -19.0869 -19.0559
   -18.9046 -18.3633 -18.0909  -9.0003  -8.7766  -8.6844  -8.6609  -8.5219
    -8.3570  -8.3013  -8.1639  -8.0825  -7.9583  -7.8684  -7.7853  -7.5653
    -7.4168  -7.2972  -7.0556  -6.8824  -6.7928  -6.6783  -6.5689  -6.5090
    -6.4301  -6.1007  -6.0257  -5.8635  -5.7467  -5.6649  -5.5197  -5.4708
    -5.3847  -5.2411  -5.0120  -4.9939  -4.8447  -4.8315  -4.7702  -4.7099
    -4.6450  -4.5946  -4.5408  -4.3761  -4.1382  -3.9769  -3.9452  -3.8215
    -3.7103  -3.6352  -3.5379  -3.4479  -3.3827  -3.2941  -3.2027  -3.0341
    -2.8635  -2.7345  -2.6662  -2.5305  -2.2655  -2.0826  -2.0043  -1.2447
    -1.0725  -0.9874  -0.8878  -0.1668  -0.0917   0.3158   0.3983   0.5295
     0.6224   0.7950   0.7967   1.0922   1.2945   1.3667   1.5007   1.5431
     1.6880   1.8093   1.8486   2.1279   2.4129   3.6901   3.7233   3.8229
     3.8606   4.0263   4.0996   4.3367   4.5432   4.5832   4.7681   4.9035
     4.9541   5.2104   5.3425   5.6196   5.8594   5.9088   6.1126   6.2882
     6.4590   6.5286   6.7137   6.8738   7.0083   7.0625   7.2968   7.5121
     7.7532   7.7835   7.8755   8.1249   8.2000   8.3850   8.4798   8.6083
     8.6597   8.6831   8.9036   9.0792   9.1245   9.3749   9.4103   9.5375
     9.6261   9.7043   9.8189   9.8474   9.9353  10.0079  10.0829  10.1903
    10.2767  10.3372  10.3881  10.4542  10.5068  10.7043  10.7659  10.8653
    10.9804  11.0557  11.1938  11.3741  11.4584  11.5065  11.6643  11.7380
    11.8269  11.9137  12.0625  12.2229  12.2819  12.5078  12.5752  12.6534
    12.6961  12.7188  12.7916  12.9069  12.9250  13.0286  13.1003  13.2208
    13.2796  13.4292  13.4672  13.6211  13.6709  13.7547  13.8337  13.8827
    13.9294  13.9732  14.0302  14.0968  14.1684  14.2544  14.3358  14.3628
    14.4734  14.5582  14.5934  14.6367  14.6957  14.7719  14.8483  14.8914
    14.9212  14.9710  15.0128  15.1060  15.1405  15.1971  15.3076  15.4331
    15.4945  15.5641  15.6447  15.7788  15.8329  15.9329  16.0745  16.1184
    16.1742  16.2959  16.3486  16.4195  16.5321  16.5856  16.6090  16.6889
    16.7953  16.8690  16.9724  17.0008  17.1128  17.1897  17.2355  17.3132
    17.3871  17.4642  17.5551  17.6559  17.7207  17.7801  17.8850  17.9227
    18.0255  18.0310  18.0866  18.2260  18.2800  18.2980  18.3652  18.4471
    18.5205  18.6004  18.6284  18.6839  18.7903  18.8645  18.9359  19.0283
    19.0955  19.2017  19.3252  19.3737  19.4909  19.5737  19.6211  19.6958
    19.7624  19.8170  19.9607  20.0737  20.1021  20.1982  20.2491  20.3417
    20.4382  20.5316  20.5638  20.6042  20.7071  20.7322  20.7916  20.8222
    20.8751  20.9500  21.0194  21.0941  21.1654  21.2068  21.2674  21.3262
    21.3821  21.4522  21.4935  21.5697  21.6286  21.6745  21.7801  21.8519
    21.9476  21.9754  22.0741  22.1285  22.1754  22.2652  22.3007  22.3594
    22.4037  22.4472  22.4784  22.5480  22.6047  22.6651  22.7067  22.7667
    22.8115  22.8309  22.8831  22.8974  22.9862  23.0624

          k = 0.2500-0.3828 0.0000 ( 29202 PWs)   bands (ev):

   -81.2058 -81.1119 -81.0081 -80.9681 -80.9471 -80.6493 -80.6106 -80.6079
   -43.2780 -43.1553 -43.1290 -43.1099 -43.0169 -43.0127 -43.0122 -42.9846
   -42.9570 -42.8602 -42.8510 -42.8070 -42.7479 -42.7442 -42.6763 -42.6559
   -42.6203 -42.6045 -42.5984 -42.5680 -42.5186 -42.5049 -42.1680 -42.0896
   -20.7474 -20.3284 -20.1856 -20.1667 -19.9490 -19.8871 -19.8178 -19.8135
   -19.7078 -19.6213 -19.5518 -19.5029 -19.3684 -19.0972 -18.9864 -18.8991
   -18.8754 -18.3624 -18.0918  -8.9674  -8.6971  -8.6131  -8.5678  -8.5044
    -8.2589  -8.2172  -8.1824  -8.0888  -7.9641  -7.8103  -7.7184  -7.6036
    -7.5985  -7.5860  -7.3791  -7.0537  -6.9816  -6.7975  -6.6429  -6.4074
    -5.9714  -5.8752  -5.7685  -5.7264  -5.6237  -5.5664  -5.5402  -5.4169
    -5.3427  -5.2186  -5.1485  -5.0537  -4.9761  -4.9312  -4.8980  -4.8742
    -4.7749  -4.6532  -4.6262  -4.4327  -4.1229  -3.9402  -3.8939  -3.8059
    -3.7440  -3.6172  -3.5705  -3.4895  -3.3637  -3.3105  -3.1203  -2.9126
    -2.8276  -2.7113  -2.5919  -2.5717  -2.1776  -1.9833  -1.8665  -1.4382
    -1.3854  -1.3237  -0.9974  -0.1887   0.1235   0.3323   0.6603   0.8063
     0.9108   0.9304   1.0656   1.1572   1.2494   1.2619   1.6318   1.7065
     1.7792   1.8995   1.9145   2.1142   2.3943   2.9024   2.9851   3.4674
     3.6143   3.8947   4.0137   4.3619   4.6142   4.6736   4.9462   5.1514
     5.2981   5.3776   5.4365   5.5807   5.9088   6.0305   6.2598   6.2858
     6.3663   6.5032   6.7104   6.8284   6.8983   6.9906   7.1365   7.2506
     7.5262   7.8025   7.8246   7.9377   8.0194   8.3806   8.4273   8.5709
     8.6497   8.7222   8.8979   9.0482   9.0976   9.1350   9.2106   9.3033
     9.5025   9.6992   9.8328   9.8644  10.0818  10.2803  10.4187  10.4490
    10.5126  10.6076  10.6559  10.6993  10.7766  10.8339  10.9740  11.1624
    11.2911  11.3737  11.4387  11.5103  11.7866  11.8775  11.9512  12.0256
    12.1122  12.1358  12.2256  12.2585  12.3049  12.3703  12.4130  12.5510
    12.6235  12.7162  12.7573  12.7966  12.9929  13.1061  13.2157  13.2305
    13.3110  13.4458  13.5577  13.6621  13.6850  13.7100  13.7844  13.9117
    13.9257  14.0036  14.0336  14.0906  14.1349  14.1927  14.2886  14.3422
    14.4213  14.4446  14.4937  14.5414  14.6177  14.6565  14.6696  14.7077
    14.7458  14.7707  14.8179  14.8425  14.9603  15.1411  15.2550  15.3327
    15.3979  15.4382  15.4581  15.5055  15.5882  15.6779  15.7475  15.8550
    15.8923  15.9764  16.0565  16.1374  16.2460  16.2918  16.3728  16.4849
    16.5546  16.6202  16.6661  16.7626  16.8757  16.9126  16.9797  17.0207
    17.2068  17.3681  17.4379  17.4666  17.5161  17.6404  17.6811  17.7761
    17.8297  17.8758  18.0402  18.0864  18.1700  18.2133  18.3284  18.4206
    18.4819  18.5842  18.8368  18.8693  18.9135  18.9847  19.1335  19.2958
    19.3892  19.4110  19.5877  19.6471  19.6759  19.7580  19.7935  19.8412
    19.9321  19.9704  20.0804  20.1430  20.1577  20.2045  20.2352  20.2738
    20.3140  20.3819  20.4904  20.5386  20.5994  20.8148  20.9040  21.0051
    21.0390  21.0770  21.1263  21.2107  21.2496  21.2763  21.3377  21.3567
    21.4601  21.5024  21.5547  21.6094  21.6866  21.7291  21.7809  21.8438
    21.8885  21.9449  21.9984  22.0664  22.1276  22.1724  22.2040  22.3177
    22.3504  22.3964  22.5105  22.5548  22.6246  22.6559  22.7000  22.7477
    22.7930  22.8701  22.9185  22.9469  23.0834  23.1470

          k =-0.5000 0.0000 0.0000 ( 29180 PWs)   bands (ev):

   -81.1967 -81.1111 -80.9855 -80.9828 -80.9424 -80.6268 -80.6244 -80.6044
   -43.1220 -43.0895 -43.0282 -43.0239 -43.0175 -43.0108 -42.9886 -42.9654
   -42.9417 -42.8586 -42.8537 -42.8506 -42.7972 -42.7865 -42.6824 -42.6602
   -42.6409 -42.6081 -42.5810 -42.5388 -42.5340 -42.4137 -42.4067 -42.3914
   -20.4867 -20.4168 -20.3145 -20.0682 -19.9442 -19.9111 -19.8501 -19.6502
   -19.5530 -19.5058 -19.3577 -19.3535 -19.3044 -19.2569 -19.1660 -19.1164
   -19.1089 -18.4258 -18.2096  -8.4905  -8.3660  -8.3163  -8.3104  -8.2845
    -8.2735  -8.1571  -8.0572  -8.0501  -8.0250  -7.5808  -7.4241  -7.3609
    -7.3412  -7.2405  -7.0242  -6.9926  -6.8056  -6.7519  -6.5356  -6.2003
    -6.1691  -6.0759  -6.0220  -5.9493  -5.9204  -5.8743  -5.7082  -5.6515
    -5.3707  -5.3231  -5.2922  -5.2368  -5.1282  -5.0412  -4.9591  -4.9103
    -4.7496  -4.6997  -4.6616  -4.5600  -4.4722  -4.3063  -3.9528  -3.9271
    -3.5340  -3.5175  -3.4567  -3.4360  -3.3093  -3.1720  -3.1223  -3.0122
    -2.8845  -2.8264  -2.8018  -2.4736  -1.1870  -1.1647  -1.0127  -1.0024
    -0.8103  -0.7550  -0.6913  -0.6630  -0.6148  -0.5709  -0.3127  -0.2816
     0.0147   0.2112   0.2922   0.5328   0.5723   0.6027   0.8154   0.9929
     1.4793   1.5198   2.0608   2.0932   2.1217   3.6774   4.0191   4.0593
     4.3273   4.5368   4.5709   4.6826   4.7166   4.7295   4.8690   4.9397
     4.9771   5.1468   5.2972   5.5542   5.7862   6.0195   6.1262   6.1367
     6.3550   6.5482   6.6906   6.8287   6.8966   7.0302   7.3461   7.4886
     7.6739   7.8265   8.0081   8.1033   8.4914   8.5639   8.5819   8.6450
     8.7264   9.0535   9.1226   9.1758   9.2219   9.2595   9.2781   9.3110
     9.3349   9.4573   9.6144   9.6854   9.7631   9.8118   9.8365   9.9139
     9.9738  10.0118  10.2688  10.3474  10.3913  10.4886  10.5727  10.6107
    10.6759  10.7074  10.8099  10.8675  10.9511  11.0379  11.3644  11.4826
    11.5441  11.7291  11.8787  11.9244  11.9634  12.1155  12.1607  12.2370
    12.3272  12.4055  12.7302  12.8061  13.0464  13.2497  13.3120  13.3770
    13.4638  13.4899  13.6298  13.6769  13.7855  13.8464  13.8945  14.1909
    14.4405  14.4709  14.5289  14.5360  14.6550  14.7993  14.9509  14.9698
    15.1036  15.1899  15.2127  15.3048  15.3969  15.5246  15.5388  15.5703
    15.5915  15.7149  15.7501  15.8282  15.9050  15.9758  16.0927  16.2779
    16.3513  16.4169  16.4661  16.4738  16.5406  16.5604  16.6088  16.6353
    16.7232  16.7578  16.9221  16.9816  17.0212  17.0715  17.0814  17.1029
    17.3519  17.4013  17.4406  17.4610  17.5257  17.5655  17.7605  17.8321
    17.9095  17.9904  18.0712  18.1102  18.1466  18.2749  18.2874  18.2984
    18.4009  18.4373  18.4693  18.6128  18.6551  18.6643  18.6874  18.6993
    18.8896  18.9580  18.9822  19.0092  19.1048  19.1812  19.2526  19.2719
    19.3202  19.3799  19.4318  19.4429  19.4547  19.5065  19.5512  19.5829
    19.6438  19.6474  19.7197  19.7507  19.7584  19.7803  19.8075  19.9229
    20.0033  20.0537  20.0707  20.1150  20.1664  20.1806  20.2609  20.3138
    20.3299  20.3933  20.4079  20.7006  20.7305  20.7690  20.8431  20.9036
    20.9147  20.9322  20.9941  21.0152  21.0543  21.0579  21.1282  21.1382
    21.2751  21.2996  21.3561  21.4582  21.4799  21.5333  21.5843  21.6976
    21.7305  21.7664  21.8151  22.0241  22.0677  22.1475  22.2511  22.3554
    22.3831  22.3927  22.4458  22.4659  22.5275  22.6700

          k =-0.5000 0.1914 0.0000 ( 29244 PWs)   bands (ev):

   -81.1968 -81.1112 -80.9854 -80.9827 -80.9425 -80.6267 -80.6243 -80.6045
   -43.1220 -43.0886 -43.0239 -43.0204 -43.0166 -43.0109 -42.9879 -42.9738
   -42.9418 -42.8586 -42.8534 -42.8507 -42.7973 -42.7866 -42.6824 -42.6603
   -42.6408 -42.6091 -42.5810 -42.5397 -42.5349 -42.4136 -42.4066 -42.3912
   -20.4724 -20.4086 -20.3115 -20.0148 -19.9194 -19.8612 -19.8321 -19.7118
   -19.6163 -19.5581 -19.3491 -19.3452 -19.3181 -19.2731 -19.1581 -19.1207
   -19.1079 -18.4262 -18.2099  -8.4887  -8.3983  -8.3132  -8.2969  -8.2623
    -8.2525  -8.1756  -8.0802  -8.0706  -8.0389  -7.4113  -7.3581  -7.2324
    -7.1409  -7.1193  -7.0044  -6.9481  -6.7654  -6.6109  -6.4901  -6.3479
    -6.3237  -6.3026  -6.2736  -6.0864  -5.9696  -5.8236  -5.6739  -5.6054
    -5.5612  -5.4978  -5.3393  -5.2518  -5.1789  -5.0699  -4.9189  -4.8808
    -4.8131  -4.7677  -4.7145  -4.6181  -4.3944  -4.2322  -3.9762  -3.9432
    -3.5554  -3.5019  -3.4908  -3.3909  -3.3550  -3.1954  -3.1370  -3.0586
    -2.8165  -2.7179  -2.6742  -2.4659  -1.2095  -1.1481  -1.0708  -0.9706
    -0.7953  -0.7602  -0.6240  -0.6157  -0.4605  -0.2990  -0.2362  -0.1546
     0.1144   0.2188   0.4172   0.4295   0.6177   0.7989   1.0153   1.1247
     1.4020   1.4217   1.8690   1.9556   2.2118   3.6409   3.7102   3.7980
     3.8109   3.8315   4.1434   4.4000   4.4950   4.8620   5.2144   5.3592
     5.4228   5.4456   5.5294   5.7069   5.7991   6.0654   6.2985   6.3154
     6.4866   6.5696   6.7422   6.8335   6.9856   7.0467   7.1941   7.3258
     7.5768   7.7026   7.8298   7.9056   8.0129   8.0827   8.1516   8.2576
     8.4060   8.5638   8.6358   8.8109   8.9672   9.1435   9.2393   9.4139
     9.4758   9.5306   9.5729   9.6851   9.8459   9.9946  10.1085  10.2066
    10.5231  10.5945  10.6715  10.7005  10.7600  10.7828  10.8230  10.9033
    10.9351  11.0151  11.0676  11.2089  11.3374  11.4151  11.5714  11.6426
    11.7861  11.8762  11.9703  12.0997  12.1783  12.2881  12.3871  12.4452
    12.5365  12.7428  12.8068  12.8672  12.9736  13.1221  13.2110  13.4524
    13.5449  13.6125  13.7338  13.8010  13.8584  13.9936  14.2107  14.2651
    14.4187  14.4404  14.5206  14.6154  14.6726  14.7166  14.7870  14.8541
    14.8874  14.9458  14.9818  15.0763  15.1144  15.2029  15.2490  15.3804
    15.4952  15.5206  15.5721  15.7040  15.8018  15.8357  15.8943  15.9283
    15.9520  16.0930  16.1898  16.2427  16.2730  16.3544  16.4240  16.4646
    16.5475  16.6046  16.6552  16.7061  16.7943  16.8206  16.8555  16.9594
    16.9937  17.0693  17.1049  17.2184  17.2314  17.2616  17.2775  17.3409
    17.4183  17.5679  17.6098  17.6995  17.7733  17.8935  17.9554  17.9618
    17.9847  18.0773  18.2186  18.2417  18.2898  18.3181  18.3416  18.4230
    18.5123  18.5773  18.6130  18.6885  18.7913  18.8920  18.9262  19.0697
    19.1336  19.2073  19.2654  19.3373  19.4188  19.4696  19.5810  19.6186
    19.6684  19.7407  19.7828  19.9090  19.9720  20.0006  20.1666  20.1977
    20.2256  20.3274  20.3631  20.4943  20.5674  20.6211  20.7375  20.8127
    20.8352  20.8748  20.9665  21.0067  21.0408  21.1489  21.2016  21.2700
    21.3635  21.3983  21.4378  21.5125  21.5846  21.6065  21.7147  21.7305
    21.7485  21.7898  21.8303  21.8566  21.9069  21.9334  21.9728  22.0117
    22.0823  22.1800  22.2947  22.3534  22.3929  22.4183  22.4605  22.5138
    22.5587  22.6141  22.6971  22.7139  22.8066  22.8358

          k =-0.5000-0.3828 0.0000 ( 29192 PWs)   bands (ev):

   -81.1968 -81.1113 -80.9853 -80.9827 -80.9425 -80.6266 -80.6242 -80.6045
   -43.1220 -43.0877 -43.0239 -43.0156 -43.0110 -43.0074 -42.9883 -42.9862
   -42.9419 -42.8585 -42.8530 -42.8508 -42.7973 -42.7866 -42.6824 -42.6603
   -42.6405 -42.6101 -42.5809 -42.5406 -42.5358 -42.4135 -42.4064 -42.3910
   -20.4578 -20.4008 -20.3087 -19.9041 -19.8884 -19.8610 -19.7859 -19.7227
   -19.7036 -19.6762 -19.3446 -19.3353 -19.3340 -19.2863 -19.1487 -19.1277
   -19.1067 -18.4266 -18.2101  -8.4603  -8.3627  -8.3007  -8.2930  -8.2838
    -8.2302  -8.1565  -8.0708  -8.0639  -8.0390  -7.3822  -7.3133  -7.1660
    -7.0503  -6.9844  -6.9653  -6.8474  -6.7711  -6.6495  -6.6306  -6.5557
    -6.4756  -6.2444  -6.1856  -6.0689  -5.9609  -5.7026  -5.6907  -5.6523
    -5.5860  -5.5181  -5.4011  -5.3584  -5.3189  -5.2227  -5.0009  -4.9232
    -4.8798  -4.8088  -4.7588  -4.6949  -4.1691  -4.1439  -4.0229  -3.9296
    -3.6933  -3.6213  -3.5112  -3.4197  -3.2969  -3.1802  -3.1393  -3.0782
    -2.7878  -2.5899  -2.5351  -2.4520  -1.2972  -1.2930  -1.2385  -1.0247
    -0.8874  -0.8269  -0.7190  -0.5869  -0.2795  -0.1635   0.1531   0.2653
     0.3799   0.3941   0.5872   0.7261   0.8523   1.0690   1.0870   1.1191
     1.5105   1.5359   1.5954   1.6434   2.2681   2.9644   2.9868   3.0516
     3.1161   3.7535   4.1985   4.5286   4.5711   4.9589   5.3555   5.4871
     5.5359   5.7057   5.8338   6.0013   6.1350   6.2787   6.3065   6.4516
     6.4521   6.6897   6.8551   6.8599   6.9805   6.9933   7.1621   7.2045
     7.2808   7.3724   7.5028   7.6486   7.7400   7.8749   7.9745   8.1564
     8.1803   8.4849   8.5511   8.7331   8.7591   8.8041   8.9083   9.1138
     9.2705   9.4699   9.6664   9.9478   9.9832  10.0600  10.0885  10.2431
    10.5177  10.6308  10.8068  11.0056  11.0579  11.1272  11.1630  11.2328
    11.3211  11.3754  11.4448  11.5290  11.6469  11.7550  11.8315  12.1830
    12.1962  12.4231  12.5592  12.6266  12.7880  12.8647  12.9158  13.0143
    13.0361  13.0654  13.0865  13.1606  13.2064  13.3139  13.3203  13.3862
    13.4230  13.4486  13.5583  13.6496  13.7272  13.7860  13.8287  13.8778
    13.9387  13.9931  14.0762  14.1799  14.2867  14.3272  14.4541  14.6075
    14.6436  14.6818  14.6961  14.7238  14.7610  14.9776  15.0429  15.1069
    15.1751  15.2712  15.3236  15.4214  15.4349  15.4723  15.5232  15.6765
    15.8511  15.8742  15.9548  16.0697  16.1395  16.1887  16.2981  16.3452
    16.3589  16.4221  16.5489  16.6228  16.7761  16.7768  16.8271  16.8477
    16.9310  17.0345  17.1004  17.2203  17.2526  17.2891  17.3169  17.3634
    17.4641  17.5824  17.6207  17.6419  17.6767  17.7095  17.7759  17.7870
    17.8625  17.9751  18.0860  18.1372  18.1590  18.1975  18.2526  18.2593
    18.3088  18.3442  18.3950  18.4482  18.5489  18.5968  18.6287  18.6683
    18.8141  18.8905  18.9051  18.9473  19.0517  19.0724  19.2543  19.3592
    19.4900  19.6127  19.6759  19.7282  19.8623  19.9745  20.0779  20.1235
    20.1983  20.2610  20.4186  20.5241  20.6531  20.6794  20.7195  20.8069
    20.8485  20.9266  21.0073  21.2598  21.3022  21.3125  21.3668  21.4100
    21.4908  21.5253  21.6777  21.7497  21.8275  21.8719  22.0109  22.1322
    22.1549  22.1999  22.2670  22.2989  22.3782  22.4010  22.4708  22.5452
    22.6173  22.7639  22.8105  22.8344  22.8931  22.9603  22.9744  23.0239
    23.0515  23.1503  23.2052  23.2601  23.3265  23.4097

          k =-0.2500 0.1914 0.0000 ( 29229 PWs)   bands (ev):

   -81.2058 -81.1118 -81.0082 -80.9681 -80.9471 -80.6495 -80.6106 -80.6079
   -43.2778 -43.1553 -43.1290 -43.1110 -43.0362 -43.0125 -42.9945 -42.9851
   -42.9548 -42.8607 -42.8508 -42.8081 -42.7481 -42.7442 -42.6764 -42.6557
   -42.6203 -42.6038 -42.5983 -42.5664 -42.5188 -42.5050 -42.1680 -42.0896
   -20.7839 -20.3442 -20.2975 -20.1834 -20.0979 -19.8392 -19.7942 -19.7619
   -19.5658 -19.5448 -19.4378 -19.3755 -19.3005 -19.1254 -19.0873 -19.0557
   -18.9039 -18.3632 -18.0909  -8.9992  -8.7763  -8.6835  -8.6632  -8.5198
    -8.3551  -8.3177  -8.1669  -8.0547  -7.9631  -7.8672  -7.8026  -7.5535
    -7.3946  -7.3468  -7.0594  -6.8909  -6.7585  -6.6569  -6.5700  -6.5079
    -6.4021  -6.1254  -6.0250  -5.8374  -5.7791  -5.7153  -5.5534  -5.4681
    -5.3596  -5.1687  -5.0171  -4.9913  -4.8824  -4.8104  -4.7872  -4.7319
    -4.6339  -4.5846  -4.5103  -4.3956  -4.1626  -3.9862  -3.9092  -3.8058
    -3.7309  -3.6451  -3.5887  -3.3967  -3.3595  -3.2919  -3.2000  -3.0717
    -2.8419  -2.7509  -2.6661  -2.5213  -2.2684  -2.0881  -2.0073  -1.2445
    -1.0507  -0.9897  -0.8639  -0.1849  -0.1098   0.3075   0.3919   0.5217
     0.6110   0.7748   0.8453   1.1054   1.2993   1.3725   1.5013   1.5332
     1.6846   1.8114   1.8472   2.1255   2.4122   3.6916   3.7212   3.8238
     3.8617   4.0300   4.1002   4.3349   4.5352   4.5861   4.7662   4.8967
     4.9668   5.2100   5.3418   5.6210   5.8605   5.9124   6.1191   6.2963
     6.4559   6.5152   6.7058   6.8733   6.9922   7.0907   7.2892   7.5293
     7.6851   7.7736   7.9299   8.1017   8.2625   8.3541   8.4902   8.5778
     8.6303   8.7145   8.9436   9.0296   9.1201   9.3755   9.4231   9.5883
     9.6264   9.6763   9.8127   9.8831   9.9169   9.9855  10.0927  10.1936
    10.2357  10.3493  10.3846  10.4491  10.5311  10.7250  10.7581  10.8684
    10.9978  11.1121  11.1753  11.2780  11.4586  11.5445  11.6808  11.7389
    11.8181  11.9239  12.0350  12.2128  12.3364  12.4723  12.5885  12.6151
    12.6564  12.7559  12.8023  12.8844  12.9379  13.0391  13.0939  13.2267
    13.2753  13.4172  13.5035  13.6295  13.6742  13.7416  13.8274  13.8645
    13.9431  13.9537  14.0349  14.0891  14.1299  14.2470  14.3371  14.4075
    14.4919  14.5197  14.5702  14.6673  14.7071  14.7555  14.8490  14.8952
    14.9499  14.9851  15.0138  15.0863  15.1359  15.2096  15.3059  15.4346
    15.5212  15.6063  15.6453  15.7313  15.8354  15.9387  16.0743  16.1406
    16.1797  16.2401  16.3085  16.4716  16.5302  16.5851  16.6076  16.6955
    16.7844  16.8721  16.9498  17.0176  17.1112  17.2032  17.2576  17.2746
    17.3546  17.4878  17.6070  17.6593  17.7287  17.7844  17.8306  17.9458
    17.9811  18.0318  18.1245  18.1783  18.2660  18.2848  18.3986  18.4646
    18.5327  18.5828  18.6418  18.7031  18.7593  18.8601  18.9228  19.0339
    19.0884  19.2331  19.3110  19.3599  19.4829  19.5529  19.6243  19.6822
    19.7502  19.8415  19.9439  20.0172  20.1454  20.1890  20.2485  20.3196
    20.4589  20.5181  20.5885  20.6281  20.6879  20.7598  20.7865  20.8370
    20.8847  20.9591  20.9751  21.1178  21.1568  21.1998  21.2522  21.3184
    21.4017  21.4558  21.5088  21.6138  21.6490  21.7038  21.7681  21.8396
    21.9320  21.9977  22.0835  22.1211  22.2207  22.2447  22.3174  22.3474
    22.4003  22.4466  22.4905  22.5450  22.6211  22.6663  22.6967  22.7296
    22.7933  22.8441  22.8795  22.9394  22.9833  23.0756

     the Fermi energy is     0.4385 ev

!    total energy              =   -2174.62411813 Ry
     Harris-Foulkes estimate   =   -2174.62411895 Ry
     estimated scf accuracy    <       0.00000098 Ry

     The total energy is the sum of the following terms:

     one-electron contribution =  -24248.22377536 Ry
     hartree contribution      =   12142.37949428 Ry
     xc contribution           =    -595.02049427 Ry
     ewald contribution        =   10524.32717492 Ry
     Hubbard energy            =       1.91346858 Ry
     smearing contrib. (-TS)   =       0.00001372 Ry

     convergence has been achieved in  26 iterations

     Forces acting on atoms (Ry/au):


     negative rho (up, down):  0.242E+00 0.000E+00
     atom    1 type  1   force =    -0.00596791   -0.00690778    0.00728368
     atom    2 type  1   force =     0.00008113    0.00650769    0.00114676
     atom    3 type  2   force =     0.02813759   -0.00397807    0.00060410
     atom    4 type  2   force =     0.00171397    0.00697816    0.00275171
     atom    5 type  1   force =     0.00253174    0.00775659    0.00109741
     atom    6 type  1   force =     0.00101452   -0.00767749    0.00048511
     atom    7 type  1   force =     0.00364501    0.00008118    0.00362988
     atom    8 type  1   force =     0.00317225   -0.00188147   -0.00758914
     atom    9 type  2   force =    -0.02472705    0.00187609    0.00173476
     atom   10 type  2   force =    -0.00799575   -0.00086594   -0.01323353
     atom   11 type  1   force =    -0.00675277   -0.00378969   -0.00124850
     atom   12 type  1   force =    -0.00673753    0.00414729   -0.00099234
     atom   13 type  1   force =    -0.00040134   -0.00014440   -0.00082154
     atom   14 type  1   force =    -0.00321646   -0.00619538    0.00824386
     atom   15 type  1   force =     0.00025915    0.00542323    0.00313482
     atom   16 type  2   force =    -0.02884823   -0.00379026    0.00014652
     atom   17 type  2   force =     0.00142175    0.00728757   -0.00133023
     atom   18 type  1   force =     0.00106436    0.00816236    0.00098001
     atom   19 type  1   force =    -0.00065466   -0.00815777    0.00060816
     atom   20 type  1   force =    -0.00259153   -0.00152618    0.00486942
     atom   21 type  1   force =     0.00167321   -0.00161192   -0.00708847
     atom   22 type  2   force =     0.02063502    0.00188437    0.00106687
     atom   23 type  2   force =     0.00102313   -0.00056851    0.00862248
     atom   24 type  1   force =     0.00993037   -0.00188556   -0.00076840
     atom   25 type  1   force =     0.00985622    0.00191123   -0.00085075
     atom   26 type  1   force =     0.00074435   -0.00079718   -0.00233018
     atom   27 type  3   force =     0.00001233   -0.00110450    0.00059609
     atom   28 type  3   force =    -0.00000146   -0.00128172    0.00042317
     atom   29 type  3   force =     0.00050281    0.00024764   -0.00075825
     atom   30 type  3   force =     0.00065901    0.00004693   -0.00065110
     atom   31 type  1   force =     0.00110528   -0.00006595   -0.00981247
     atom   32 type  3   force =    -0.00128852   -0.00008055    0.00005006

     Total force =     0.025638     Total SCF correction =     0.003410
     SCF correction compared to forces is large: reduce conv_thr to get better values

     BFGS Geometry Optimization

     number of scf cycles    =   1
     number of bfgs steps    =   0

     energy   new            =   -2174.6241181291 Ry

     new trust radius        =       0.0132335287 bohr
     new conv_thr            =       0.0000010000 Ry


ATOMIC_POSITIONS (crystal)
O0       0.000000000   0.000000000   0.370762752    0   0   1
O0       0.000000000   0.500000000   0.382092475    0   0   1
Re1      0.250000000   0.500000000   0.441761840    0   0   1
Re1      0.000000000   0.000000000   0.443443930    0   0   1
O0       0.250000000   0.780000000   0.441771508    0   0   1
O0       0.250000000   0.220000000   0.441619508    0   0   1
O0       0.000000000   0.500000000   0.497151142    0   0   1
O0       0.000000000   0.000000000   0.514881261    0   0   1
Re1      0.250000000   0.000000000   0.574863999    0   0   1
Re1      0.000000000   0.500000000   0.566160637    0   0   1
O0       0.250000000   0.720000000   0.572965531    0   0   1
O0       0.250000000   0.280000000   0.573030551    0   0   1
O0       0.000000000   0.000000000   0.627083899    0   0   1
O0       0.500000000   0.000000000   0.370821571    0   0   1
O0       0.500000000   0.500000000   0.382421439    0   0   1
Re1      0.750000000   0.500000000   0.441782872    0   0   1
Re1      0.500000000   0.000000000   0.443213929    0   0   1
O0       0.750000000   0.780000000   0.441719207    0   0   1
O0       0.750000000   0.220000000   0.441691919    0   0   1
O0       0.500000000   0.500000000   0.499095435    0   0   1
O0       0.500000000   0.000000000   0.514761074    0   0   1
Re1      0.750000000   0.000000000   0.574710910    0   0   1
Re1      0.500000000   0.500000000   0.572818991    0   0   1
O0       0.750000000   0.720000000   0.572164940    0   0   1
O0       0.750000000   0.280000000   0.572163326    0   0   1
O0       0.500000000   0.000000000   0.626404331    0   0   1
H2      -0.000358783   0.624986508   0.365191683
H2       0.499619856   0.623053111   0.364558294
H2       0.169549641   0.023158719   0.356485139
H2       0.670515062   0.021883547   0.356667239
O0       0.527869121   0.499665014   0.643717686
H2       0.378692788   0.499163911   0.665050981


     Check: negative starting charge=   -0.237247
     NEW-OLD atomic charge density approx. for the potential

     Check: negative/imaginary core charge=   -0.000003    0.000000
     Check: negative starting charge=   -0.237315

     negative rho (up, down):  0.242E+00 0.000E+00
 Atomic wfc used for LDA+U Projector are NOT orthogonalized

     total cpu time spent up to now is     7185.9 secs

     per-process dynamical memory:   451.8 Mb

     Self-consistent Calculation

     iteration #  1     ecut=    40.00 Ry     beta=0.70
     Davidson diagonalization with overlap
     ethr =  1.00E-06,  avg # of iterations =  3.0
 --- enter write_ns ---
 LDA+U parameters:
U( 2)     =  3.00000000
alpha( 2) =  0.00000000
atom    3   Tr[ns(na)] =   6.57808
    eigenvalues: 
  0.539  0.569  0.619  0.767  0.795
    eigenvectors:
  0.001  0.354  0.004  0.641  0.000
  0.998  0.001  0.000  0.000  0.001
  0.000  0.000  0.990  0.009  0.000
  0.000  0.645  0.006  0.349  0.000
  0.001  0.000  0.000  0.001  0.998
    occupations:
  0.696 -0.004  0.012 -0.094  0.000
 -0.004  0.540  0.001  0.002 -0.008
  0.012  0.001  0.620 -0.008 -0.002
 -0.094  0.002 -0.008  0.639 -0.000
  0.000 -0.008 -0.002 -0.000  0.794
atom    4   Tr[ns(na)] =   6.54638
    eigenvalues: 
  0.566  0.603  0.616  0.712  0.777
    eigenvectors:
  0.000  0.985  0.000  0.001  0.014
  0.000  0.001  0.007  0.992  0.000
  0.000  0.000  0.993  0.007  0.000
  0.000  0.014  0.000  0.000  0.986
  1.000  0.000  0.000  0.000  0.000
    occupations:
  0.606  0.003  0.000 -0.020  0.001
  0.003  0.711  0.008 -0.000 -0.002
  0.000  0.008  0.616  0.001 -0.000
 -0.020 -0.000  0.001  0.774 -0.000
  0.001 -0.002 -0.000 -0.000  0.566
atom    9   Tr[ns(na)] =   6.55862
    eigenvalues: 
  0.594  0.607  0.609  0.716  0.753
    eigenvectors:
  0.256  0.000  0.000  0.001  0.742
  0.000  0.999  0.000  0.000  0.000
  0.000  0.000  0.994  0.006  0.000
  0.743  0.000  0.000  0.000  0.256
  0.000  0.000  0.006  0.993  0.001
    occupations:
  0.712 -0.000 -0.001 -0.070  0.001
 -0.000  0.607  0.000  0.000  0.000
 -0.001  0.000  0.610  0.001 -0.008
 -0.070  0.000  0.001  0.635 -0.001
  0.001  0.000 -0.008 -0.001  0.716
atom   10   Tr[ns(na)] =   6.51580
    eigenvalues: 
  0.486  0.536  0.646  0.757  0.832
    eigenvectors:
  0.998  0.000  0.000  0.002  0.000
  0.001  0.000  0.000  0.000  0.999
  0.000  0.000  1.000  0.000  0.000
  0.002  0.000  0.000  0.998  0.000
  0.000  1.000  0.000  0.000  0.000
    occupations:
  0.486 -0.008 -0.000 -0.011 -0.000
 -0.008  0.832  0.000 -0.001  0.001
 -0.000  0.000  0.646 -0.000  0.001
 -0.011 -0.001 -0.000  0.757 -0.000
 -0.000  0.001  0.001 -0.000  0.536
atom   16   Tr[ns(na)] =   6.57494
    eigenvalues: 
  0.538  0.569  0.621  0.767  0.793
    eigenvectors:
  0.001  0.355  0.004  0.639  0.000
  0.998  0.001  0.000  0.000  0.001
  0.000  0.001  0.990  0.009  0.000
  0.000  0.643  0.006  0.350  0.000
  0.001  0.000  0.000  0.001  0.998
    occupations:
  0.696  0.004  0.012 -0.094 -0.001
  0.004  0.539 -0.001 -0.002 -0.008
  0.012 -0.001  0.622 -0.007  0.002
 -0.094 -0.002 -0.007  0.638  0.001
 -0.001 -0.008  0.002  0.001  0.793
atom   17   Tr[ns(na)] =   6.53582
    eigenvalues: 
  0.567  0.606  0.607  0.707  0.781
    eigenvectors:
  0.000  0.425  0.561  0.001  0.013
  0.000  0.001  0.005  0.994  0.000
  0.000  0.567  0.428  0.005  0.000
  0.000  0.007  0.006  0.000  0.987
  1.000  0.000  0.000  0.000  0.000
    occupations:
  0.609  0.003  0.000 -0.020  0.001
  0.003  0.706  0.007 -0.000 -0.002
  0.000  0.007  0.607  0.001 -0.000
 -0.020 -0.000  0.001  0.779 -0.000
  0.001 -0.002 -0.000 -0.000  0.567
atom   22   Tr[ns(na)] =   6.55630
    eigenvalues: 
  0.594  0.606  0.607  0.716  0.756
    eigenvectors:
  0.258  0.000  0.000  0.003  0.739
  0.000  0.963  0.037  0.000  0.000
  0.000  0.037  0.960  0.003  0.000
  0.742  0.000  0.000  0.001  0.257
  0.000  0.000  0.003  0.992  0.005
    occupations:
  0.714  0.000 -0.001 -0.071  0.002
  0.000  0.606  0.000 -0.000  0.000
 -0.001  0.000  0.607  0.001  0.006
 -0.071 -0.000  0.001  0.636 -0.002
  0.002  0.000  0.006 -0.002  0.716
atom   23   Tr[ns(na)] =   6.54409
    eigenvalues: 
  0.539  0.555  0.595  0.787  0.796
    eigenvectors:
  0.000  0.000  0.994  0.005  0.001
  0.000  0.000  0.001  0.017  0.982
  0.994  0.006  0.000  0.000  0.000
  0.000  0.000  0.004  0.978  0.018
  0.006  0.994  0.000  0.000  0.000
    occupations:
  0.596  0.007 -0.001 -0.013  0.000
  0.007  0.796  0.000  0.002  0.002
 -0.001  0.000  0.539  0.001 -0.001
 -0.013  0.002  0.001  0.786 -0.000
  0.000  0.002 -0.001 -0.000  0.555
N of occupied +U levels =  52.4100354
 --- exit write_ns ---

     negative rho (up, down):  0.242E+00 0.000E+00

     total cpu time spent up to now is     7514.8 secs

     total energy              =   -2174.62413530 Ry
     Harris-Foulkes estimate   =   -2174.62457211 Ry
     estimated scf accuracy    <       0.00056433 Ry

     iteration #  2     ecut=    40.00 Ry     beta=0.70
     Davidson diagonalization with overlap
     ethr =  2.36E-07,  avg # of iterations =  5.7

     negative rho (up, down):  0.242E+00 0.000E+00

     total cpu time spent up to now is     7782.8 secs

     total energy              =   -2174.61994287 Ry
     Harris-Foulkes estimate   =   -2174.62884568 Ry
     estimated scf accuracy    <       0.16830748 Ry

     iteration #  3     ecut=    40.00 Ry     beta=0.70
     Davidson diagonalization with overlap
     ethr =  2.36E-07,  avg # of iterations =  5.3

     negative rho (up, down):  0.242E+00 0.000E+00

     total cpu time spent up to now is     8041.8 secs

     total energy              =   -2174.62378051 Ry
     Harris-Foulkes estimate   =   -2174.62517563 Ry
     estimated scf accuracy    <       0.01684943 Ry

     iteration #  4     ecut=    40.00 Ry     beta=0.70
     Davidson diagonalization with overlap
     ethr =  2.36E-07,  avg # of iterations =  2.5

     negative rho (up, down):  0.242E+00 0.000E+00

     total cpu time spent up to now is     8274.2 secs

     total energy              =   -2174.62441671 Ry
     Harris-Foulkes estimate   =   -2174.62459871 Ry
     estimated scf accuracy    <       0.00115693 Ry

     iteration #  5     ecut=    40.00 Ry     beta=0.70
     Davidson diagonalization with overlap
     ethr =  2.36E-07,  avg # of iterations =  1.0

     negative rho (up, down):  0.242E+00 0.000E+00

     total cpu time spent up to now is     8503.0 secs

     total energy              =   -2174.62447809 Ry
     Harris-Foulkes estimate   =   -2174.62453876 Ry
     estimated scf accuracy    <       0.00029102 Ry

     iteration #  6     ecut=    40.00 Ry     beta=0.70
     Davidson diagonalization with overlap
     ethr =  1.22E-07,  avg # of iterations =  1.0

     negative rho (up, down):  0.242E+00 0.000E+00

     total cpu time spent up to now is     8729.0 secs

     total energy              =   -2174.62449102 Ry
     Harris-Foulkes estimate   =   -2174.62454146 Ry
     estimated scf accuracy    <       0.00039804 Ry

     iteration #  7     ecut=    40.00 Ry     beta=0.70
     Davidson diagonalization with overlap
     ethr =  1.22E-07,  avg # of iterations =  1.0

     negative rho (up, down):  0.242E+00 0.000E+00

     total cpu time spent up to now is     8959.1 secs

     total energy              =   -2174.62451136 Ry
     Harris-Foulkes estimate   =   -2174.62452516 Ry
[...]
     9.3370   9.4630   9.6106   9.6873   9.7675   9.8137   9.8503   9.9503
     9.9844  10.0384  10.2847  10.3674  10.4030  10.5182  10.5902  10.6233
    10.6977  10.7292  10.8168  10.8929  10.9530  11.0440  11.3769  11.4933
    11.5574  11.7548  11.8892  11.9283  11.9715  12.1155  12.1584  12.2397
    12.3265  12.4291  12.7278  12.8074  13.0580  13.2519  13.3101  13.3848
    13.4608  13.5003  13.6374  13.6891  13.7939  13.8581  13.9029  14.1976
    14.4624  14.4780  14.5550  14.5616  14.6829  14.8247  14.9747  14.9912
    15.1216  15.1974  15.2207  15.3136  15.4017  15.5314  15.5450  15.5769
    15.6144  15.7447  15.7802  15.8589  15.9291  15.9779  16.1048  16.3169
    16.3637  16.4298  16.4753  16.4928  16.5480  16.5672  16.6409  16.6518
    16.7227  16.7639  16.9290  16.9939  17.0247  17.0754  17.0985  17.1159
    17.3610  17.3976  17.4416  17.4560  17.5307  17.5699  17.7600  17.8322
    17.9165  17.9860  18.0709  18.1096  18.1431  18.2661  18.2780  18.2903
    18.3940  18.4337  18.4650  18.6088  18.6592  18.6626  18.6836  18.7065
    18.8806  18.9514  18.9786  18.9995  19.0877  19.1718  19.2463  19.2691
    19.3195  19.3755  19.4254  19.4317  19.4545  19.4988  19.5530  19.5829
    19.6368  19.6463  19.7207  19.7459  19.7542  19.7811  19.8051  19.9222
    19.9999  20.0495  20.0682  20.1088  20.1589  20.1767  20.2571  20.3120
    20.3186  20.3955  20.4088  20.7032  20.7295  20.7699  20.8486  20.9047
    20.9149  20.9435  20.9932  21.0200  21.0504  21.0581  21.1185  21.1408
    21.2793  21.3043  21.3561  21.4611  21.4936  21.5404  21.5844  21.6868
    21.7299  21.7641  21.8153  22.0275  22.0714  22.1551  22.2577  22.3565
    22.3772  22.3924  22.4462  22.4676  22.5300  22.6678

          k =-0.5000 0.1914 0.0000 ( 29244 PWs)   bands (ev):

   -81.1715 -81.0872 -80.9424 -80.9383 -80.9076 -80.5774 -80.5741 -80.5701
   -43.1120 -43.0637 -43.0163 -42.9922 -42.9837 -42.9835 -42.9444 -42.9322
   -42.9159 -42.8298 -42.8201 -42.8071 -42.7571 -42.7445 -42.6481 -42.6166
   -42.6077 -42.5774 -42.5478 -42.4908 -42.4851 -42.3694 -42.3618 -42.3525
   -20.5068 -20.4106 -20.3149 -19.9995 -19.9126 -19.8320 -19.7989 -19.7143
   -19.6128 -19.5545 -19.3193 -19.3162 -19.2867 -19.2427 -19.1514 -19.1113
   -19.1044 -18.4094 -18.1790  -8.5084  -8.3827  -8.3045  -8.2777  -8.2424
    -8.2305  -8.1873  -8.1015  -8.0917  -8.0636  -7.4155  -7.3704  -7.2128
    -7.1219  -7.0946  -7.0079  -6.9417  -6.7585  -6.6026  -6.4801  -6.3185
    -6.2997  -6.2777  -6.2465  -6.0859  -5.9723  -5.8088  -5.6547  -5.5834
    -5.5387  -5.4708  -5.3430  -5.2408  -5.1637  -5.0531  -4.9000  -4.8556
    -4.7863  -4.7461  -4.6831  -4.5870  -4.3736  -4.2127  -3.9606  -3.9236
    -3.5375  -3.4868  -3.4744  -3.3726  -3.3431  -3.1865  -3.1225  -3.0398
    -2.7979  -2.7106  -2.6665  -2.4821  -1.1903  -1.1170  -1.0373  -0.9401
    -0.7544  -0.7296  -0.5945  -0.5750  -0.4263  -0.2555  -0.2028  -0.1149
     0.1564   0.2600   0.4590   0.4719   0.6673   0.8505   1.0739   1.1783
     1.4442   1.4636   1.9258   1.9978   2.2772   3.6845   3.7433   3.8336
     3.8572   3.8640   4.1820   4.4508   4.5534   4.8998   5.2571   5.3940
     5.4405   5.4719   5.5487   5.7320   5.8411   6.1042   6.2934   6.3126
     6.4954   6.5926   6.7501   6.8444   6.9855   7.0397   7.1890   7.3332
     7.5863   7.7067   7.8264   7.9034   8.0216   8.0930   8.1660   8.2687
     8.4127   8.5640   8.6490   8.8109   8.9767   9.1553   9.2620   9.4229
     9.4986   9.5431   9.5851   9.6939   9.8478   9.9981  10.1168  10.2215
    10.5371  10.6095  10.6987  10.7116  10.7794  10.8096  10.8483  10.9069
    10.9469  11.0310  11.0752  11.2199  11.3366  11.4131  11.5856  11.6538
    11.7954  11.8787  11.9829  12.1100  12.1849  12.2911  12.3939  12.4478
    12.5353  12.7415  12.8130  12.8669  12.9748  13.1379  13.2186  13.4596
    13.5452  13.6174  13.7376  13.8097  13.8689  14.0096  14.2224  14.2732
    14.4427  14.4577  14.5508  14.6419  14.6999  14.7446  14.8124  14.8619
    14.9026  14.9587  14.9913  15.0906  15.1204  15.2065  15.2530  15.3833
    15.4947  15.5195  15.5821  15.7143  15.8065  15.8436  15.9039  15.9335
    15.9569  16.1073  16.1945  16.2480  16.2895  16.3583  16.4311  16.4775
    16.5490  16.6186  16.6705  16.7062  16.7923  16.8211  16.8722  16.9662
    16.9998  17.0750  17.1114  17.2208  17.2344  17.2700  17.2820  17.3501
    17.4287  17.5747  17.6206  17.7098  17.7877  17.8994  17.9468  17.9642
    17.9783  18.0758  18.2122  18.2493  18.2940  18.3184  18.3361  18.4268
    18.5081  18.5723  18.6061  18.6874  18.7904  18.8905  18.9263  19.0731
    19.1341  19.2140  19.2640  19.3345  19.4138  19.4664  19.5851  19.6165
    19.6676  19.7379  19.7851  19.9106  19.9654  20.0040  20.1630  20.1979
    20.2294  20.3260  20.3694  20.5043  20.5752  20.6210  20.7399  20.8119
    20.8424  20.8822  20.9671  20.9974  21.0329  21.1513  21.2082  21.2695
    21.3628  21.3949  21.4315  21.5135  21.5876  21.6137  21.7168  21.7327
    21.7516  21.7923  21.8293  21.8514  21.9047  21.9363  21.9736  22.0135
    22.0757  22.1785  22.2946  22.3548  22.3924  22.4168  22.4596  22.5157
    22.5654  22.6152  22.6949  22.7155  22.8109  22.8560

          k =-0.5000-0.3828 0.0000 ( 29192 PWs)   bands (ev):

   -81.1716 -81.0873 -80.9423 -80.9382 -80.9076 -80.5773 -80.5740 -80.5702
   -43.1121 -43.0628 -43.0164 -42.9912 -42.9837 -42.9729 -42.9454 -42.9417
   -42.9160 -42.8298 -42.8200 -42.8069 -42.7571 -42.7445 -42.6480 -42.6166
   -42.6075 -42.5784 -42.5478 -42.4917 -42.4859 -42.3693 -42.3616 -42.3523
   -20.4946 -20.4035 -20.3118 -19.8940 -19.8811 -19.8354 -19.7537 -19.7109
   -19.6883 -19.6717 -19.3171 -19.3113 -19.3052 -19.2608 -19.1432 -19.1168
   -19.1033 -18.4098 -18.1793  -8.4847  -8.3539  -8.2880  -8.2706  -8.2628
    -8.2091  -8.1711  -8.0894  -8.0748  -8.0658  -7.3942  -7.3202  -7.1558
    -7.0268  -6.9773  -6.9526  -6.8395  -6.7684  -6.6284  -6.6078  -6.5323
    -6.4540  -6.2359  -6.1790  -6.0650  -5.9587  -5.6871  -5.6715  -5.6337
    -5.5672  -5.5037  -5.3792  -5.3355  -5.3005  -5.1937  -4.9750  -4.8912
    -4.8643  -4.7847  -4.7339  -4.6754  -4.1531  -4.1293  -4.0080  -3.9039
    -3.6805  -3.6032  -3.4995  -3.4036  -3.2728  -3.1692  -3.1180  -3.0533
    -2.7707  -2.5907  -2.5254  -2.4745  -1.2698  -1.2593  -1.2116  -0.9921
    -0.8579  -0.7958  -0.6814  -0.5454  -0.2384  -0.1121   0.1845   0.3041
     0.4144   0.4308   0.6267   0.7676   0.9046   1.1187   1.1376   1.1710
     1.5627   1.5866   1.6400   1.6825   2.3352   2.9966   3.0181   3.0884
     3.1429   3.8167   4.2413   4.5829   4.6288   4.9963   5.3816   5.5271
     5.5745   5.7371   5.8626   6.0345   6.1746   6.3019   6.3342   6.4474
     6.4501   6.7008   6.8458   6.8503   6.9722   6.9834   7.1633   7.2030
     7.2798   7.3674   7.5012   7.6429   7.7371   7.8733   7.9843   8.1701
     8.1997   8.4994   8.5782   8.7532   8.7911   8.8347   8.9235   9.1172
     9.2925   9.4701   9.6716   9.9701   9.9953  10.0920  10.1138  10.2529
    10.5173  10.6423  10.8253  11.0186  11.0804  11.1591  11.1844  11.2640
    11.3283  11.3860  11.4537  11.5292  11.6539  11.7572  11.8416  12.1787
    12.2012  12.4320  12.5721  12.6422  12.7874  12.8620  12.9070  13.0137
    13.0363  13.0587  13.0919  13.1587  13.2028  13.3137  13.3261  13.3916
    13.4342  13.4621  13.5588  13.6540  13.7435  13.7922  13.8349  13.8920
    13.9515  14.0045  14.0826  14.1932  14.2894  14.3363  14.4605  14.6157
    14.6595  14.6970  14.7060  14.7490  14.7892  14.9904  15.0441  15.1087
    15.1796  15.2801  15.3382  15.4358  15.4499  15.4762  15.5364  15.6765
    15.8597  15.8827  15.9633  16.0779  16.1485  16.1993  16.2981  16.3492
    16.3624  16.4271  16.5583  16.6326  16.7826  16.7850  16.8391  16.8616
    16.9357  17.0291  17.0959  17.2265  17.2610  17.2936  17.3184  17.3636
    17.4622  17.5821  17.6268  17.6438  17.6755  17.7075  17.7792  17.7906
    17.8613  17.9899  18.0939  18.1475  18.1731  18.2051  18.2591  18.2721
    18.3171  18.3480  18.4037  18.4592  18.5524  18.5973  18.6252  18.6663
    18.8152  18.8882  18.9043  18.9513  19.0609  19.0706  19.2572  19.3614
    19.4907  19.6115  19.6785  19.7305  19.8575  19.9702  20.0712  20.1192
    20.1944  20.2509  20.4099  20.5387  20.6483  20.6794  20.7148  20.8083
    20.8566  20.9421  21.0070  21.2551  21.3034  21.3127  21.3645  21.4182
    21.4998  21.5382  21.6853  21.7532  21.8522  21.8988  22.0266  22.1367
    22.1657  22.2183  22.2789  22.3277  22.3859  22.4157  22.4772  22.5654
    22.6173  22.7640  22.8102  22.8459  22.9046  22.9687  22.9817  23.0314
    23.0613  23.1492  23.2019  23.2777  23.3274  23.4099

          k =-0.2500 0.1914 0.0000 ( 29229 PWs)   bands (ev):

   -81.1806 -81.0878 -80.9647 -80.9244 -80.9122 -80.5998 -80.5737 -80.5606
   -43.2509 -43.1216 -43.1102 -43.0863 -43.0048 -42.9971 -42.9608 -42.9552
   -42.9112 -42.8374 -42.8105 -42.7717 -42.7078 -42.7038 -42.6316 -42.6289
   -42.5908 -42.5709 -42.5626 -42.5173 -42.4754 -42.4555 -42.1315 -42.0440
   -20.8010 -20.3541 -20.2891 -20.1719 -20.0884 -19.8286 -19.7742 -19.7304
   -19.5730 -19.5585 -19.4247 -19.3434 -19.2731 -19.1009 -19.0659 -19.0222
   -18.9033 -18.3483 -18.0656  -9.0192  -8.7538  -8.6631  -8.6442  -8.5374
    -8.3333  -8.2998  -8.1804  -8.0710  -7.9634  -7.8568  -7.7964  -7.5617
    -7.3966  -7.3497  -7.0471  -6.8752  -6.7362  -6.6366  -6.5593  -6.5041
    -6.3794  -6.1097  -6.0163  -5.8249  -5.7593  -5.7070  -5.5299  -5.4548
    -5.3449  -5.1566  -4.9950  -4.9692  -4.8640  -4.7970  -4.7617  -4.7137
    -4.6124  -4.5645  -4.4869  -4.3735  -4.1413  -3.9685  -3.8877  -3.7973
    -3.7204  -3.6342  -3.5678  -3.3835  -3.3418  -3.2783  -3.1831  -3.0598
    -2.8316  -2.7452  -2.6651  -2.5209  -2.2398  -2.0585  -1.9741  -1.2063
    -1.0103  -0.9634  -0.8215  -0.1462  -0.0754   0.3415   0.4304   0.5667
     0.6580   0.8227   0.8950   1.1515   1.3494   1.4207   1.5345   1.5746
     1.7282   1.8449   1.8854   2.1812   2.4640   3.7237   3.7520   3.8556
     3.9066   4.0695   4.1340   4.3886   4.5680   4.6427   4.7966   4.9349
     4.9926   5.2382   5.3491   5.6419   5.8686   5.9503   6.1251   6.3165
     6.4718   6.5507   6.7272   6.8694   7.0023   7.1208   7.3000   7.5310
     7.6928   7.7641   7.9402   8.0945   8.2673   8.3780   8.4910   8.5844
     8.6523   8.7330   8.9686   9.0325   9.1300   9.3855   9.4205   9.5954
     9.6419   9.6879   9.8249   9.9019   9.9362   9.9906  10.1022  10.2099
    10.2390  10.3665  10.3998  10.4802  10.5629  10.7329  10.7672  10.8709
    11.0060  11.1176  11.1926  11.2935  11.4595  11.5730  11.6819  11.7393
    11.8185  11.9416  12.0431  12.2145  12.3417  12.4836  12.5910  12.6130
    12.6675  12.7671  12.8081  12.8913  12.9487  13.0404  13.0992  13.2295
    13.2889  13.4199  13.5090  13.6426  13.6767  13.7506  13.8244  13.8769
    13.9475  13.9639  14.0509  14.1048  14.1389  14.2539  14.3499  14.4061
    14.4943  14.5280  14.5822  14.6810  14.7102  14.7918  14.8564  14.9033
    14.9581  14.9890  15.0152  15.0926  15.1422  15.2150  15.3124  15.4324
    15.5317  15.6165  15.6464  15.7356  15.8419  15.9504  16.0742  16.1492
    16.1825  16.2409  16.3168  16.4715  16.5421  16.5863  16.6048  16.7021
    16.7853  16.8763  16.9524  17.0225  17.1140  17.2064  17.2658  17.2799
    17.3605  17.4942  17.6084  17.6599  17.7292  17.7920  17.8312  17.9505
    17.9858  18.0276  18.1299  18.1972  18.2691  18.2927  18.4054  18.4725
    18.5443  18.5881  18.6460  18.7029  18.7668  18.8610  18.9233  19.0436
    19.0949  19.2284  19.3149  19.3712  19.4823  19.5617  19.6289  19.6831
    19.7559  19.8437  19.9485  20.0224  20.1544  20.2020  20.2591  20.3335
    20.4658  20.5210  20.5907  20.6329  20.6910  20.7657  20.7970  20.8440
    20.8915  20.9568  20.9793  21.1124  21.1576  21.1963  21.2502  21.3256
    21.4032  21.4686  21.5168  21.6176  21.6568  21.7127  21.7744  21.8464
    21.9354  21.9977  22.0874  22.1358  22.2197  22.2546  22.3299  22.3451
    22.4008  22.4416  22.4973  22.5419  22.6245  22.6630  22.6998  22.7330
    22.8012  22.8507  22.8807  22.9506  22.9819  23.0832

     the Fermi energy is     0.4798 ev

!    total energy              =   -2174.62484437 Ry
     Harris-Foulkes estimate   =   -2174.62484437 Ry
     estimated scf accuracy    <          8.9E-09 Ry

     The total energy is the sum of the following terms:

     one-electron contribution =  -24297.25064451 Ry
     hartree contribution      =   12167.11817968 Ry
     xc contribution           =    -595.08507593 Ry
     ewald contribution        =   10548.68032047 Ry
     Hubbard energy            =       1.91222972 Ry
     smearing contrib. (-TS)   =       0.00014621 Ry

     convergence has been achieved in  14 iterations

     Forces acting on atoms (Ry/au):


     negative rho (up, down):  0.242E+00 0.000E+00
     atom    1 type  1   force =    -0.00621922   -0.00681553   -0.00016243
     atom    2 type  1   force =     0.00009189    0.00506058   -0.00034242
     atom    3 type  2   force =     0.03056044   -0.00372371    0.00012727
     atom    4 type  2   force =     0.00173358    0.00698556   -0.00000960
     atom    5 type  1   force =     0.00263709    0.00833927    0.00014690
     atom    6 type  1   force =     0.00110943   -0.00835466    0.00020575
     atom    7 type  1   force =     0.00354148   -0.00005862    0.00061752
     atom    8 type  1   force =     0.00330555   -0.00179639   -0.00039793
     atom    9 type  2   force =    -0.02666600    0.00192629    0.00006258
     atom   10 type  2   force =    -0.00793820   -0.00098943    0.00025218
     atom   11 type  1   force =    -0.00702949   -0.00335083   -0.00005530
     atom   12 type  1   force =    -0.00707247    0.00387787   -0.00006372
     atom   13 type  1   force =    -0.00030144   -0.00021371    0.00024160
     atom   14 type  1   force =    -0.00255880   -0.00592589    0.00011151
     atom   15 type  1   force =     0.00023425    0.00355293   -0.00052475
     atom   16 type  2   force =    -0.03126295   -0.00353390    0.00011921
     atom   17 type  2   force =     0.00136754    0.00727749   -0.00007004
     atom   18 type  1   force =     0.00102556    0.00869067    0.00016305
     atom   19 type  1   force =    -0.00078815   -0.00874191    0.00022224
     atom   20 type  1   force =    -0.00256715   -0.00177419    0.00008584
     atom   21 type  1   force =     0.00172421   -0.00153989   -0.00021640
     atom   22 type  2   force =     0.02226831    0.00196769    0.00020675
     atom   23 type  2   force =     0.00083872   -0.00061532    0.00014767
     atom   24 type  1   force =     0.01029322   -0.00173946   -0.00008915
     atom   25 type  1   force =     0.01022746    0.00175993   -0.00008209
     atom   26 type  1   force =     0.00072610   -0.00087276    0.00001169
     atom   27 type  3   force =     0.00000161    0.00035795    0.00007368
     atom   28 type  3   force =    -0.00001300    0.00033672   -0.00025578
     atom   29 type  3   force =     0.00041664    0.00014165    0.00026984
     atom   30 type  3   force =     0.00034938   -0.00010757    0.00035272
     atom   31 type  1   force =    -0.00000445   -0.00002142   -0.00073725
     atom   32 type  3   force =    -0.00003115   -0.00009943   -0.00041114

     Total force =     0.001725     Total SCF correction =     0.000241
     SCF correction compared to forces is large: reduce conv_thr to get better values

     bfgs converged in   8 scf cycles and   7 bfgs steps
     (criteria: energy < 0.10E-03, force < 0.10E-02)

     End of BFGS Geometry Optimization

     Final energy   =   -2174.6248443656 Ry
Begin final coordinates

ATOMIC_POSITIONS (crystal)
O0       0.000000000   0.000000000   0.371147578    0   0   1
O0       0.000000000   0.500000000   0.382309438    0   0   1
Re1      0.250000000   0.500000000   0.441908557    0   0   1
Re1      0.000000000   0.000000000   0.443651524    0   0   1
O0       0.250000000   0.780000000   0.442013918    0   0   1
O0       0.250000000   0.220000000   0.441778153    0   0   1
O0       0.000000000   0.500000000   0.496905873    0   0   1
O0       0.000000000   0.000000000   0.514779546    0   0   1
Re1      0.250000000   0.000000000   0.574736770    0   0   1
Re1      0.000000000   0.500000000   0.565852797    0   0   1
O0       0.250000000   0.720000000   0.572598883    0   0   1
O0       0.250000000   0.280000000   0.572704125    0   0   1
O0       0.000000000   0.000000000   0.626946444    0   0   1
O0       0.500000000   0.000000000   0.371123325    0   0   1
O0       0.500000000   0.500000000   0.382768212    0   0   1
Re1      0.750000000   0.500000000   0.441913668    0   0   1
Re1      0.500000000   0.000000000   0.443358362    0   0   1
O0       0.750000000   0.780000000   0.441936084    0   0   1
O0       0.750000000   0.220000000   0.441862291    0   0   1
O0       0.500000000   0.500000000   0.499212567    0   0   1
O0       0.500000000   0.000000000   0.514619011    0   0   1
Re1      0.750000000   0.000000000   0.574513605    0   0   1
Re1      0.500000000   0.500000000   0.572700941    0   0   1
O0       0.750000000   0.720000000   0.571844739    0   0   1
O0       0.750000000   0.280000000   0.571824975    0   0   1
O0       0.500000000   0.000000000   0.626230338    0   0   1
H2      -0.000340718   0.624687090   0.365308237
H2       0.499592534   0.622259163   0.364638482
H2       0.168582113   0.023137814   0.356620922
H2       0.669925617   0.021575385   0.356829257
O0       0.527698480   0.499594987   0.643570889
H2       0.378961226   0.499062554   0.664820488
End final coordinates



     init_run     :    139.25s CPU    143.15s WALL (       1 calls)
     electrons    :  34481.37s CPU  35496.01s WALL (       8 calls)
     update_pot   :    136.28s CPU    141.12s WALL (       7 calls)
     forces       :   1607.32s CPU   1661.81s WALL (       8 calls)

     Called by init_run:
     wfcinit      :     37.16s CPU     39.63s WALL (       1 calls)
     potinit      :      6.86s CPU      7.00s WALL (       1 calls)

     Called by electrons:
     c_bands      :  14310.25s CPU  14841.37s WALL (     149 calls)
     sum_band     :   7775.55s CPU   8027.14s WALL (     149 calls)
     v_of_rho     :    144.21s CPU    152.91s WALL (     151 calls)
     newd         :  12947.84s CPU  13048.94s WALL (     151 calls)
     mix_rho      :     26.01s CPU     27.36s WALL (     149 calls)

     Called by c_bands:
     init_us_2    :     39.41s CPU     39.90s WALL (     969 calls)
     cegterg      :  13998.22s CPU  14473.09s WALL (     447 calls)

     Called by *egterg:
     h_psi        :   8325.47s CPU   8672.51s WALL (    1165 calls)
     s_psi        :    994.22s CPU   1004.71s WALL (    1213 calls)
     g_psi        :     16.63s CPU     16.65s WALL (     715 calls)
     cdiaghg      :   1141.58s CPU   1144.46s WALL (    1123 calls)

     Called by h_psi:
     add_vuspsi   :    963.69s CPU    975.30s WALL (    1165 calls)
     vhpsi        :    816.84s CPU    832.03s WALL (    1165 calls)

     General routines
     calbec       :   2242.51s CPU   2279.72s WALL (   10232 calls)
     fft          :    235.67s CPU    327.96s WALL (    2503 calls)
     ffts         :      2.56s CPU      2.63s WALL (     300 calls)
     fftw         :   4765.69s CPU   5147.09s WALL (  829884 calls)
     interpolate  :     21.70s CPU     22.00s WALL (     300 calls)
     davcio       :      0.08s CPU     15.84s WALL (     993 calls)

     Parallel routines
     fft_scatter  :   1875.43s CPU   2338.36s WALL (  832687 calls)
     Hubbard U routines
     new_ns       :    182.91s CPU    192.51s WALL (     149 calls)
     vhpsi        :    816.84s CPU    832.03s WALL (    1165 calls)
     force_hub    :    322.96s CPU    329.74s WALL (       8 calls)

     PWSCF        :    10h19m CPU       10h38m WALL


   This run was terminated on:  11: 4:41   2May2014            

=------------------------------------------------------------------------------=
   JOB DONE.
=------------------------------------------------------------------------------=
