
     Program PWSCF v.5.0.2 (svn rev. 9656) starts on 28Apr2014 at 14:34:10 

     This program is part of the open-source Quantum ESPRESSO suite
     for quantum simulation of materials; please cite
         "P. Giannozzi et al., J. Phys.:Condens. Matter 21 395502 (2009);
          URL http://www.quantum-espresso.org", 
     in publications or presentations arising from this work. More details at
     http://www.quantum-espresso.org/quote.php

     Parallel version (MPI), running on    16 processors
     K-points division:     npool     =       4
     R & G space division:  proc/nbgrp/npool/nimage =       4

     Current dimensions of program PWSCF are:
     Max number of different atomic species (ntypx) = 10
     Max number of k-points (npk) =  40000
     Max angular momentum in pseudopotentials (lmaxx) =  3
     Reading input from pwscf.in
Warning: card &CELL ignored
Warning: card / ignored

     Subspace diagonalization in iterative solution of the eigenvalue problem:
     a serial algorithm will be used


     Parallelization info
     --------------------
     sticks:   dense  smooth     PW     G-vecs:    dense   smooth      PW
     Min        1386     442    124               330660    59845    8892
     Max        1388     443    125               330662    59871    8899
     Sum        5547    1771    497              1322643   239441   35575



     bravais-lattice index     =            0
     lattice parameter (alat)  =      11.2250  a.u.
     unit-cell volume          =    7005.5484 (a.u.)^3
     number of atoms/cell      =           31
     number of atomic types    =            3
     number of electrons       =       214.00
     number of Kohn-Sham states=          309
     kinetic-energy cutoff     =      40.0000  Ry
     charge density cutoff     =     500.0000  Ry
     convergence threshold     =      1.0E-06
     mixing beta               =       0.7000
     number of iterations used =            8  plain     mixing
     Exchange-correlation      = SLA  PW   PBE  PBE ( 1 4 3 4 0)
     EXX-fraction              =        0.00
     nstep                     =           50


     celldm(1)=  11.224973  celldm(2)=   0.000000  celldm(3)=   0.000000
     celldm(4)=   0.000000  celldm(5)=   0.000000  celldm(6)=   0.000000

     crystal axes: (cart. coord. in units of alat)
               a(1) = (   1.000000   0.000000   0.000000 )  
               a(2) = (   0.000000   1.107086   0.000000 )  
               a(3) = (   0.000000   0.000000   4.474090 )  

     reciprocal axes: (cart. coord. in units 2 pi/alat)
               b(1) = (  1.000000  0.000000  0.000000 )  
               b(2) = (  0.000000  0.903272  0.000000 )  
               b(3) = (  0.000000  0.000000  0.223509 )  


     PseudoPot. # 1 for O  read from file:
     /home/camp/zhonxu/pseudo/o_pbe_v1.01.uspp.F.UPF
     MD5 check sum: 2bcb18d16ea4b960afae9ec6d52f22d2
     Pseudo is Ultrasoft + core correction, Zval =  6.0
     Generated by new atomic code, or converted to UPF format
     Using radial grid of  737 points,  5 beta functions with: 
                l(1) =   0
                l(2) =   0
                l(3) =   1
                l(4) =   1
                l(5) =   2
     Q(r) pseudized with  8 coefficients,  rinner =    0.900   0.900   0.900
                                                       0.900   0.900

     PseudoPot. # 2 for Ti read from file:
     /home/camp/zhonxu/pseudo/ti_pbe_v1.uspp.F.UPF
     MD5 check sum: bcc8f6961b3b91f0cac3ca967d22d0fb
     Pseudo is Ultrasoft + core correction, Zval = 12.0
     Generated by new atomic code, or converted to UPF format
     Using radial grid of  851 points,  6 beta functions with: 
                l(1) =   0
                l(2) =   0
                l(3) =   1
                l(4) =   1
                l(5) =   2
                l(6) =   2
     Q(r) pseudized with  6 coefficients,  rinner =    1.000   1.000   1.000
                                                       1.000   1.000

     PseudoPot. # 3 for H  read from file:
     /home/camp/zhonxu/pseudo/h_pbe_v1.uspp.F.UPF
     MD5 check sum: 3408e3ff4ec8b0a4e358431e7e038a48
     Pseudo is Ultrasoft, Zval =  1.0
     Generated by new atomic code, or converted to UPF format
     Using radial grid of  615 points,  2 beta functions with: 
                l(1) =   0
                l(2) =   0
     Q(r) pseudized with  8 coefficients,  rinner =    0.700

     atomic species   valence    mass     pseudopotential
        O0             6.00    15.99940     O ( 1.00)
        Ti1           12.00    47.88000     Ti( 1.00)
        H2             1.00     1.00794     H ( 1.00)


     Simplified LDA+U calculation (l_max = 2) with parameters (eV):
     atomic species    L          U    alpha       J0     beta
        Ti1            2     7.0000   0.0000   0.0000   0.0000



     No symmetry found



   Cartesian axes

     site n.     atom                  positions (alat units)
         1           O0  tau(   1) = (   0.0000000   0.0000000   1.6912507  )
         2           O0  tau(   2) = (   0.0000000   0.5535432   1.7801061  )
         3           Ti1 tau(   3) = (   0.2500000   0.5535432   2.0136983  )
         4           Ti1 tau(   4) = (   0.0000000   0.0000000   2.0256889  )
         5           O0  tau(   5) = (   0.2500000   0.8967400   2.0101638  )
         6           O0  tau(   6) = (   0.2500000   0.2103464   2.0140115  )
         7           O0  tau(   7) = (   0.0000000   0.5535432   2.2264413  )
         8           O0  tau(   8) = (   0.0000000   0.0000000   2.3510894  )
         9           Ti1 tau(   9) = (   0.2500000   0.0000000   2.5997146  )
        10           Ti1 tau(  10) = (   0.0000000   0.5535432   2.5433858  )
        11           O0  tau(  11) = (   0.2500000   0.7638896   2.5969406  )
        12           O0  tau(  12) = (   0.2500000   0.3431968   2.5970301  )
        13           O0  tau(  13) = (   0.0000000   0.0000000   2.7842260  )
        14           O0  tau(  14) = (   0.5000000   0.0000000   1.6905348  )
        15           O0  tau(  15) = (   0.5000000   0.5535432   1.7767953  )
        16           Ti1 tau(  16) = (   0.7500000   0.5535432   2.0136983  )
        17           Ti1 tau(  17) = (   0.5000000   0.0000000   2.0204542  )
        18           O0  tau(  18) = (   0.7500000   0.8967400   2.0103875  )
        19           O0  tau(  19) = (   0.7500000   0.2103464   2.0134299  )
        20           O0  tau(  20) = (   0.5000000   0.5535432   2.2001336  )
        21           O0  tau(  21) = (   0.5000000   0.0000000   2.3501946  )
        22           Ti1 tau(  22) = (   0.7500000   0.0000000   2.5996698  )
        23           Ti1 tau(  23) = (   0.5000000   0.5535432   2.6765794  )
        24           O0  tau(  24) = (   0.7500000   0.7638896   2.5974328  )
        25           O0  tau(  25) = (   0.7500000   0.3431968   2.5965380  )
        26           O0  tau(  26) = (   0.5000000   0.0000000   2.7806915  )
        27           H2  tau(  27) = (  -0.0007400   0.6861389   1.6797970  )
        28           H2  tau(  28) = (   0.4994200   0.6816995   1.6713410  )
        29           H2  tau(  29) = (   0.1486600   0.0377184   1.6265106  )
        30           H2  tau(  30) = (   0.6489300   0.0363456   1.6257052  )
        31           O0  tau(  31) = (   0.4999900   0.5533882   2.9590287  )

     number of k points=    10  Methfessel-Paxton smearing, width (Ry)=  0.0100
                       cart. coord. in units 2pi/alat
        k(    1) = (   0.0000000   0.0000000   0.0000000), wk =   0.1250000
        k(    2) = (   0.0000000   0.2258180   0.0000000), wk =   0.2500000
        k(    3) = (   0.0000000  -0.4516359   0.0000000), wk =   0.1250000
        k(    4) = (   0.2500000   0.0000000   0.0000000), wk =   0.2500000
        k(    5) = (   0.2500000   0.2258180   0.0000000), wk =   0.2500000
        k(    6) = (   0.2500000  -0.4516359   0.0000000), wk =   0.2500000
        k(    7) = (  -0.5000000   0.0000000   0.0000000), wk =   0.1250000
        k(    8) = (  -0.5000000   0.2258180   0.0000000), wk =   0.2500000
        k(    9) = (  -0.5000000  -0.4516359   0.0000000), wk =   0.1250000
        k(   10) = (  -0.2500000   0.2258180   0.0000000), wk =   0.2500000

     Dense  grid:  1322643 G-vectors     FFT dimensions: (  80,  90, 360)

     Smooth grid:   239441 G-vectors     FFT dimensions: (  45,  54, 216)

     Largest allocated arrays     est. size (Mb)     dimensions
        Kohn-Sham Wavefunctions        35.67 Mb     (   7566,  309)
        Atomic wavefunctions           18.47 Mb     (   7566,  160)
        NL pseudopotentials            46.06 Mb     (   7566,  399)
        Each V/rho on FFT grid          9.89 Mb     ( 648000)
        Each G-vector array             2.52 Mb     ( 330661)
        G-vector shells                 1.08 Mb     ( 141764)
     Largest temporary arrays     est. size (Mb)     dimensions
        Auxiliary wavefunctions       142.69 Mb     (   7566, 1236)
        Each subspace H/S matrix       23.31 Mb     (1236,1236)
        Each <psi_i|beta_j> matrix      1.88 Mb     (    399,  309)
        Arrays for rho mixing          79.10 Mb     ( 648000,   8)

     Check: negative/imaginary core charge=   -0.000006    0.000000

     Initial potential from superposition of free atoms
     Check: negative starting charge=   -0.102438

     starting charge  205.99958, renormalised to  214.00000

     negative rho (up, down):  0.106E+00 0.000E+00
     Number of +U iterations with fixed ns =  0
     Starting occupations:
 --- enter write_ns ---
 LDA+U parameters:
U( 2)     =  7.00000000
alpha( 2) =  0.00000000
atom    3   Tr[ns(na)] =   2.00000
    eigenvalues: 
  0.200  0.200  0.200  0.200  0.200
    eigenvectors:
  1.000  0.000  0.000  0.000  0.000
  0.000  1.000  0.000  0.000  0.000
  0.000  0.000  1.000  0.000  0.000
  0.000  0.000  0.000  1.000  0.000
  0.000  0.000  0.000  0.000  1.000
    occupations:
  0.200  0.000  0.000  0.000  0.000
  0.000  0.200  0.000  0.000  0.000
  0.000  0.000  0.200  0.000  0.000
  0.000  0.000  0.000  0.200  0.000
  0.000  0.000  0.000  0.000  0.200
atom    4   Tr[ns(na)] =   2.00000
    eigenvalues: 
  0.200  0.200  0.200  0.200  0.200
    eigenvectors:
  1.000  0.000  0.000  0.000  0.000
  0.000  1.000  0.000  0.000  0.000
  0.000  0.000  1.000  0.000  0.000
  0.000  0.000  0.000  1.000  0.000
  0.000  0.000  0.000  0.000  1.000
    occupations:
  0.200  0.000  0.000  0.000  0.000
  0.000  0.200  0.000  0.000  0.000
  0.000  0.000  0.200  0.000  0.000
  0.000  0.000  0.000  0.200  0.000
  0.000  0.000  0.000  0.000  0.200
atom    9   Tr[ns(na)] =   2.00000
    eigenvalues: 
  0.200  0.200  0.200  0.200  0.200
    eigenvectors:
  1.000  0.000  0.000  0.000  0.000
  0.000  1.000  0.000  0.000  0.000
  0.000  0.000  1.000  0.000  0.000
  0.000  0.000  0.000  1.000  0.000
  0.000  0.000  0.000  0.000  1.000
    occupations:
  0.200  0.000  0.000  0.000  0.000
  0.000  0.200  0.000  0.000  0.000
  0.000  0.000  0.200  0.000  0.000
  0.000  0.000  0.000  0.200  0.000
  0.000  0.000  0.000  0.000  0.200
atom   10   Tr[ns(na)] =   2.00000
    eigenvalues: 
  0.200  0.200  0.200  0.200  0.200
    eigenvectors:
  1.000  0.000  0.000  0.000  0.000
  0.000  1.000  0.000  0.000  0.000
  0.000  0.000  1.000  0.000  0.000
  0.000  0.000  0.000  1.000  0.000
  0.000  0.000  0.000  0.000  1.000
    occupations:
  0.200  0.000  0.000  0.000  0.000
  0.000  0.200  0.000  0.000  0.000
  0.000  0.000  0.200  0.000  0.000
  0.000  0.000  0.000  0.200  0.000
  0.000  0.000  0.000  0.000  0.200
atom   16   Tr[ns(na)] =   2.00000
    eigenvalues: 
  0.200  0.200  0.200  0.200  0.200
    eigenvectors:
  1.000  0.000  0.000  0.000  0.000
  0.000  1.000  0.000  0.000  0.000
  0.000  0.000  1.000  0.000  0.000
  0.000  0.000  0.000  1.000  0.000
  0.000  0.000  0.000  0.000  1.000
    occupations:
  0.200  0.000  0.000  0.000  0.000
  0.000  0.200  0.000  0.000  0.000
  0.000  0.000  0.200  0.000  0.000
  0.000  0.000  0.000  0.200  0.000
  0.000  0.000  0.000  0.000  0.200
atom   17   Tr[ns(na)] =   2.00000
    eigenvalues: 
  0.200  0.200  0.200  0.200  0.200
    eigenvectors:
  1.000  0.000  0.000  0.000  0.000
  0.000  1.000  0.000  0.000  0.000
  0.000  0.000  1.000  0.000  0.000
  0.000  0.000  0.000  1.000  0.000
  0.000  0.000  0.000  0.000  1.000
    occupations:
  0.200  0.000  0.000  0.000  0.000
  0.000  0.200  0.000  0.000  0.000
  0.000  0.000  0.200  0.000  0.000
  0.000  0.000  0.000  0.200  0.000
  0.000  0.000  0.000  0.000  0.200
atom   22   Tr[ns(na)] =   2.00000
    eigenvalues: 
  0.200  0.200  0.200  0.200  0.200
    eigenvectors:
  1.000  0.000  0.000  0.000  0.000
  0.000  1.000  0.000  0.000  0.000
  0.000  0.000  1.000  0.000  0.000
  0.000  0.000  0.000  1.000  0.000
  0.000  0.000  0.000  0.000  1.000
    occupations:
  0.200  0.000  0.000  0.000  0.000
  0.000  0.200  0.000  0.000  0.000
  0.000  0.000  0.200  0.000  0.000
  0.000  0.000  0.000  0.200  0.000
  0.000  0.000  0.000  0.000  0.200
atom   23   Tr[ns(na)] =   2.00000
    eigenvalues: 
  0.200  0.200  0.200  0.200  0.200
    eigenvectors:
  1.000  0.000  0.000  0.000  0.000
  0.000  1.000  0.000  0.000  0.000
  0.000  0.000  1.000  0.000  0.000
  0.000  0.000  0.000  1.000  0.000
  0.000  0.000  0.000  0.000  1.000
    occupations:
  0.200  0.000  0.000  0.000  0.000
  0.000  0.200  0.000  0.000  0.000
  0.000  0.000  0.200  0.000  0.000
  0.000  0.000  0.000  0.200  0.000
  0.000  0.000  0.000  0.000  0.200
N of occupied +U levels =  16.0000000
 --- exit write_ns ---
 Atomic wfc used for LDA+U Projector are NOT orthogonalized
     Starting wfc are  160 randomized atomic wfcs

     total cpu time spent up to now is       96.7 secs

     per-process dynamical memory:   362.6 Mb

     Self-consistent Calculation

     iteration #  1     ecut=    40.00 Ry     beta=0.70
     Davidson diagonalization with overlap
     ethr =  1.00E-02,  avg # of iterations =  6.0
 --- enter write_ns ---
 LDA+U parameters:
U( 2)     =  7.00000000
alpha( 2) =  0.00000000
atom    3   Tr[ns(na)] =   1.61881
    eigenvalues: 
  0.081  0.099  0.108  0.241  0.281
    eigenvectors:
  0.052  0.093  0.706  0.144  0.005
  0.001  0.001  0.003  0.087  0.909
  0.843  0.044  0.112  0.000  0.000
  0.013  0.017  0.117  0.768  0.084
  0.091  0.845  0.062  0.000  0.002
    occupations:
  0.126  0.003 -0.005  0.049  0.001
  0.003  0.277  0.001 -0.014  0.008
 -0.005  0.001  0.084  0.006 -0.006
  0.049 -0.014  0.006  0.224 -0.001
  0.001  0.008 -0.006 -0.001  0.098
atom    4   Tr[ns(na)] =   1.80977
    eigenvalues: 
  0.101  0.102  0.118  0.278  0.305
    eigenvectors:
  0.005  0.008  0.003  0.000  0.984
  0.002  0.018  0.976  0.000  0.004
  0.732  0.257  0.011  0.000  0.001
  0.261  0.717  0.010  0.000  0.012
  0.000  0.000  0.000  1.000  0.000
    occupations:
  0.302  0.012  0.005 -0.022  0.000
  0.012  0.118  0.002  0.000 -0.001
  0.005  0.002  0.102  0.000  0.000
 -0.022  0.000  0.000  0.104 -0.000
  0.000 -0.001  0.000 -0.000  0.278
atom    9   Tr[ns(na)] =   1.76317
    eigenvalues: 
  0.091  0.120  0.128  0.255  0.288
    eigenvectors:
  0.000  0.000  0.930  0.070  0.000
  0.000  0.000  0.000  0.001  0.999
  1.000  0.000  0.000  0.000  0.000
  0.000  0.000  0.070  0.929  0.001
  0.000  1.000  0.000  0.000  0.000
    occupations:
  0.137  0.001 -0.000  0.032  0.000
  0.001  0.288  0.000 -0.001  0.000
 -0.000  0.000  0.091  0.000  0.001
  0.032 -0.001  0.000  0.246 -0.000
  0.000  0.000  0.001 -0.000  0.120
atom   10   Tr[ns(na)] =   1.57816
    eigenvalues: 
  0.093  0.105  0.118  0.210  0.263
    eigenvectors:
  0.025  0.000  0.000  0.975  0.000
  0.000  0.000  1.000  0.000  0.000
  0.000  1.000  0.000  0.000  0.000
  0.975  0.000  0.000  0.025  0.000
  0.000  0.000  0.000  0.000  1.000
    occupations:
  0.208 -0.000 -0.000 -0.018 -0.000
 -0.000  0.118 -0.000 -0.000 -0.000
 -0.000 -0.000  0.105  0.000  0.000
 -0.018 -0.000  0.000  0.096  0.000
 -0.000 -0.000  0.000  0.000  0.263
atom   16   Tr[ns(na)] =   1.61898
    eigenvalues: 
  0.081  0.099  0.108  0.241  0.281
    eigenvectors:
  0.052  0.099  0.701  0.144  0.005
  0.001  0.000  0.003  0.088  0.908
  0.841  0.044  0.114  0.001  0.000
  0.014  0.018  0.116  0.767  0.086
  0.093  0.839  0.067  0.000  0.002
    occupations:
  0.126 -0.003 -0.005  0.049 -0.001
 -0.003  0.277 -0.001  0.014  0.008
 -0.005 -0.001  0.085  0.006  0.006
  0.049  0.014  0.006  0.224  0.001
 -0.001  0.008  0.006  0.001  0.098
atom   17   Tr[ns(na)] =   1.83791
    eigenvalues: 
  0.100  0.115  0.122  0.276  0.305
    eigenvectors:
  0.013  0.002  0.001  0.000  0.984
  0.010  0.514  0.471  0.000  0.004
  0.002  0.471  0.527  0.000  0.000
  0.974  0.013  0.002  0.000  0.011
  0.000  0.000  0.000  1.000  0.000
    occupations:
  0.302  0.012  0.004 -0.022 -0.000
  0.012  0.119 -0.004  0.000 -0.001
  0.004 -0.004  0.119  0.000  0.000
 -0.022  0.000  0.000  0.103  0.000
 -0.000 -0.001  0.000  0.000  0.276
atom   22   Tr[ns(na)] =   1.76303
    eigenvalues: 
  0.091  0.120  0.128  0.255  0.288
    eigenvectors:
  0.000  0.000  0.930  0.070  0.000
  0.000  0.000  0.000  0.001  0.999
  1.000  0.000  0.000  0.000  0.000
  0.000  0.000  0.070  0.929  0.001
  0.000  1.000  0.000  0.000  0.000
    occupations:
  0.137 -0.001 -0.000  0.032 -0.000
 -0.001  0.288  0.000  0.001  0.000
 -0.000  0.000  0.091 -0.000 -0.001
  0.032  0.001 -0.000  0.246  0.000
 -0.000  0.000 -0.001  0.000  0.120
atom   23   Tr[ns(na)] =   2.01756
    eigenvalues: 
  0.079  0.185  0.199  0.230  0.316
    eigenvectors:
  0.005  0.000  0.000  0.000  0.995
  0.000  0.000  1.000  0.000  0.000
  0.000  1.000  0.000  0.000  0.000
  0.995  0.000  0.000  0.000  0.005
  0.000  0.000  0.000  1.000  0.000
    occupations:
  0.314  0.000  0.000 -0.017 -0.000
  0.000  0.199 -0.000  0.000 -0.000
  0.000 -0.000  0.185 -0.000  0.000
 -0.017  0.000 -0.000  0.080  0.000
 -0.000 -0.000  0.000  0.000  0.230
N of occupied +U levels =  14.0073894
 --- exit write_ns ---

     negative rho (up, down):  0.124E+00 0.000E+00

     total cpu time spent up to now is      384.8 secs

     total energy              =   -1555.95709435 Ry
     Harris-Foulkes estimate   =   -1565.44494716 Ry
     estimated scf accuracy    <      11.62327604 Ry

     iteration #  2     ecut=    40.00 Ry     beta=0.70
     Davidson diagonalization with overlap
     ethr =  5.43E-03,  avg # of iterations =  5.1

     negative rho (up, down):  0.119E+00 0.000E+00

     total cpu time spent up to now is      632.0 secs

     total energy              =   -1490.97351064 Ry
     Harris-Foulkes estimate   =   -1617.60397935 Ry
     estimated scf accuracy    <    1541.95486608 Ry

     iteration #  3     ecut=    40.00 Ry     beta=0.70
     Davidson diagonalization with overlap
     ethr =  5.43E-03,  avg # of iterations =  5.0

     negative rho (up, down):  0.958E-01 0.000E+00

     total cpu time spent up to now is      889.7 secs

     total energy              =   -1541.58430382 Ry
     Harris-Foulkes estimate   =   -1589.08748156 Ry
     estimated scf accuracy    <     905.43675564 Ry

     iteration #  4     ecut=    40.00 Ry     beta=0.70
     Davidson diagonalization with overlap
     ethr =  5.43E-03,  avg # of iterations =  3.0

     negative rho (up, down):  0.956E-01 0.000E+00

     total cpu time spent up to now is     1051.7 secs

     total energy              =   -1563.29446553 Ry
     Harris-Foulkes estimate   =   -1563.96857560 Ry
     estimated scf accuracy    <       4.43364175 Ry

     iteration #  5     ecut=    40.00 Ry     beta=0.70
     Davidson diagonalization with overlap
     ethr =  2.07E-03,  avg # of iterations =  1.2

     negative rho (up, down):  0.963E-01 0.000E+00

     total cpu time spent up to now is     1196.0 secs

     total energy              =   -1563.25784584 Ry
     Harris-Foulkes estimate   =   -1563.78568169 Ry
     estimated scf accuracy    <       5.16107896 Ry

     iteration #  6     ecut=    40.00 Ry     beta=0.70
     Davidson diagonalization with overlap
     ethr =  2.07E-03,  avg # of iterations =  1.0

     negative rho (up, down):  0.975E-01 0.000E+00

     total cpu time spent up to now is     1340.6 secs

     total energy              =   -1563.25510295 Ry
     Harris-Foulkes estimate   =   -1563.56752705 Ry
     estimated scf accuracy    <       4.29278911 Ry

     iteration #  7     ecut=    40.00 Ry     beta=0.70
     Davidson diagonalization with overlap
     ethr =  2.01E-03,  avg # of iterations =  1.5

     negative rho (up, down):  0.992E-01 0.000E+00

     total cpu time spent up to now is     1488.3 secs

     total energy              =   -1563.22515536 Ry
     Harris-Foulkes estimate   =   -1563.41536737 Ry
     estimated scf accuracy    <       2.12872150 Ry

     iteration #  8     ecut=    40.00 Ry     beta=0.70
     Davidson diagonalization with overlap
     ethr =  9.95E-04,  avg # of iterations =  3.7

     negative rho (up, down):  0.100E+00 0.000E+00

     total cpu time spent up to now is     1645.6 secs

     total energy              =   -1563.20185871 Ry
     Harris-Foulkes estimate   =   -1563.28411453 Ry
     estimated scf accuracy    <       1.13372019 Ry

     iteration #  9     ecut=    40.00 Ry     beta=0.70
     Davidson diagonalization with overlap
     ethr =  5.30E-04,  avg # of iterations =  2.9

     negative rho (up, down):  0.102E+00 0.000E+00

     total cpu time spent up to now is     1799.8 secs

     total energy              =   -1563.12503052 Ry
     Harris-Foulkes estimate   =   -1563.25750939 Ry
     estimated scf accuracy    <       1.61475139 Ry

     iteration # 10     ecut=    40.00 Ry     beta=0.70
     Davidson diagonalization with overlap
     ethr =  5.30E-04,  avg # of iterations =  4.9

     negative rho (up, down):  0.105E+00 0.000E+00

     total cpu time spent up to now is     1971.2 secs

     total energy              =   -1563.07934490 Ry
     Harris-Foulkes estimate   =   -1563.16243549 Ry
     estimated scf accuracy    <       0.73912395 Ry

     iteration # 11     ecut=    40.00 Ry     beta=0.70
     Davidson diagonalization with overlap
     ethr =  3.45E-04,  avg # of iterations =  4.3

     negative rho (up, down):  0.109E+00 0.000E+00

     total cpu time spent up to now is     2150.5 secs

     total energy              =   -1563.03609481 Ry
     Harris-Foulkes estimate   =   -1563.11130600 Ry
     estimated scf accuracy    <       0.34163153 Ry

     iteration # 12     ecut=    40.00 Ry     beta=0.70
     Davidson diagonalization with overlap
     ethr =  1.60E-04,  avg # of iterations =  5.1

     negative rho (up, down):  0.106E+00 0.000E+00

     total cpu time spent up to now is     2331.7 secs

     total energy              =   -1562.95118187 Ry
     Harris-Foulkes estimate   =   -1563.08445855 Ry
     estimated scf accuracy    <       0.22386223 Ry

     iteration # 13     ecut=    40.00 Ry     beta=0.70
     Davidson diagonalization with overlap
     ethr =  1.05E-04,  avg # of iterations =  5.8

     negative rho (up, down):  0.108E+00 0.000E+00

     total cpu time spent up to now is     2527.9 secs

     total energy              =   -1562.88955933 Ry
     Harris-Foulkes estimate   =   -1563.35525047 Ry
     estimated scf accuracy    <       2.24271558 Ry

     iteration # 14     ecut=    40.00 Ry     beta=0.70
     Davidson diagonalization with overlap
     ethr =  1.05E-04,  avg # of iterations =  4.6

     negative rho (up, down):  0.107E+00 0.000E+00

     total cpu time spent up to now is     2712.0 secs

     total energy              =   -1563.02656131 Ry
     Harris-Foulkes estimate   =   -1563.11310026 Ry
     estimated scf accuracy    <       0.68016747 Ry

     iteration # 15     ecut=    40.00 Ry     beta=0.70
     Davidson diagonalization with overlap
     ethr =  1.05E-04,  avg # of iterations =  1.4

     negative rho (up, down):  0.108E+00 0.000E+00

     total cpu time spent up to now is     2868.7 secs

     total energy              =   -1563.00882236 Ry
     Harris-Foulkes estimate   =   -1563.07794161 Ry
     estimated scf accuracy    <       0.92598532 Ry

     iteration # 16     ecut=    40.00 Ry     beta=0.70
     Davidson diagonalization with overlap
     ethr =  1.05E-04,  avg # of iterations =  1.0

     negative rho (up, down):  0.108E+00 0.000E+00

     total cpu time spent up to now is     3023.5 secs

     total energy              =   -1563.05261186 Ry
     Harris-Foulkes estimate   =   -1563.06658994 Ry
     estimated scf accuracy    <       0.14127549 Ry

     iteration # 17     ecut=    40.00 Ry     beta=0.70
     Davidson diagonalization with overlap
     ethr =  6.60E-05,  avg # of iterations =  1.2

     negative rho (up, down):  0.107E+00 0.000E+00

     total cpu time spent up to now is     3177.5 secs

     total energy              =   -1563.04755079 Ry
     Harris-Foulkes estimate   =   -1563.06666580 Ry
     estimated scf accuracy    <       0.10340414 Ry

     iteration # 18     ecut=    40.00 Ry     beta=0.70
     Davidson diagonalization with overlap
     ethr =  4.83E-05,  avg # of iterations =  1.0

     negative rho (up, down):  0.107E+00 0.000E+00

     total cpu time spent up to now is     3328.9 secs

     total energy              =   -1563.05567391 Ry
     Harris-Foulkes estimate   =   -1563.06192097 Ry
     estimated scf accuracy    <       0.23160997 Ry

     iteration # 19     ecut=    40.00 Ry     beta=0.70
     Davidson diagonalization with overlap
     ethr =  4.83E-05,  avg # of iterations =  1.0

     negative rho (up, down):  0.107E+00 0.000E+00

     total cpu time spent up to now is     3484.4 secs

     total energy              =   -1563.05279752 Ry
     Harris-Foulkes estimate   =   -1563.06162566 Ry
     estimated scf accuracy    <       0.07318130 Ry

     iteration # 20     ecut=    40.00 Ry     beta=0.70
     Davidson diagonalization with overlap
     ethr =  3.42E-05,  avg # of iterations =  1.0

     negative rho (up, down):  0.108E+00 0.000E+00

     total cpu time spent up to now is     3642.6 secs

     total energy              =   -1563.05652471 Ry
     Harris-Foulkes estimate   =   -1563.06063205 Ry
     estimated scf accuracy    <       0.09529368 Ry

     iteration # 21     ecut=    40.00 Ry     beta=0.70
     Davidson diagonalization with overlap
     ethr =  3.42E-05,  avg # of iterations =  1.0

     negative rho (up, down):  0.108E+00 0.000E+00

     total cpu time spent up to now is     3799.0 secs

     total energy              =   -1563.05729981 Ry
     Harris-Foulkes estimate   =   -1563.05819765 Ry
     estimated scf accuracy    <       0.03161056 Ry

     iteration # 22     ecut=    40.00 Ry     beta=0.70
     Davidson diagonalization with overlap
     ethr =  1.48E-05,  avg # of iterations =  1.7

     negative rho (up, down):  0.108E+00 0.000E+00

     total cpu time spent up to now is     3958.5 secs

     total energy              =   -1563.05738094 Ry
     Harris-Foulkes estimate   =   -1563.05770758 Ry
     estimated scf accuracy    <       0.00885822 Ry

     iteration # 23     ecut=    40.00 Ry     beta=0.70
     Davidson diagonalization with overlap
     ethr =  4.14E-06,  avg # of iterations =  6.6

     negative rho (up, down):  0.108E+00 0.000E+00

     total cpu time spent up to now is     4141.1 secs

     total energy              =   -1563.05721141 Ry
     Harris-Foulkes estimate   =   -1563.05778155 Ry
     estimated scf accuracy    <       0.01454315 Ry

     iteration # 24     ecut=    40.00 Ry     beta=0.70
     Davidson diagonalization with overlap
     ethr =  4.14E-06,  avg # of iterations =  1.0

     negative rho (up, down):  0.108E+00 0.000E+00

     total cpu time spent up to now is     4298.3 secs

     total energy              =   -1563.05669913 Ry
     Harris-Foulkes estimate   =   -1563.05776966 Ry
     estimated scf accuracy    <       0.00884036 Ry

     iteration # 25     ecut=    40.00 Ry     beta=0.70
     Davidson diagonalization with overlap
     ethr =  4.13E-06,  avg # of iterations =  1.0

     negative rho (up, down):  0.108E+00 0.000E+00

     total cpu time spent up to now is     4449.4 secs

     total energy              =   -1563.05627634 Ry
     Harris-Foulkes estimate   =   -1563.05846051 Ry
     estimated scf accuracy    <       0.02906498 Ry

     iteration # 26     ecut=    40.00 Ry     beta=0.70
     Davidson diagonalization with overlap
     ethr =  4.13E-06,  avg # of iterations =  1.0

     negative rho (up, down):  0.108E+00 0.000E+00

     total cpu time spent up to now is     4600.7 secs

     total energy              =   -1563.05739896 Ry
     Harris-Foulkes estimate   =   -1563.05745729 Ry
     estimated scf accuracy    <       0.00040775 Ry

     iteration # 27     ecut=    40.00 Ry     beta=0.70
     Davidson diagonalization with overlap
     ethr =  1.91E-07,  avg # of iterations =  1.0

     negative rho (up, down):  0.108E+00 0.000E+00

     total cpu time spent up to now is     4753.9 secs

     total energy              =   -1563.05739841 Ry
     Harris-Foulkes estimate   =   -1563.05746577 Ry
     estimated scf accuracy    <       0.00037831 Ry

     iteration # 28     ecut=    40.00 Ry     beta=0.70
     Davidson diagonalization with overlap
     ethr =  1.77E-07,  avg # of iterations =  1.0

     negative rho (up, down):  0.108E+00 0.000E+00

     total cpu time spent up to now is     4906.6 secs

     total energy              =   -1563.05741014 Ry
     Harris-Foulkes estimate   =   -1563.05745954 Ry
     estimated scf accuracy    <       0.00046935 Ry

     iteration # 29     ecut=    40.00 Ry     beta=0.70
     Davidson diagonalization with overlap
     ethr =  1.77E-07,  avg # of iterations =  1.0

     negative rho (up, down):  0.108E+00 0.000E+00

     total cpu time spent up to now is     5063.9 secs

     total energy              =   -1563.05742976 Ry
     Harris-Foulkes estimate   =   -1563.05743979 Ry
     estimated scf accuracy    <       0.00009523 Ry

     iteration # 30     ecut=    40.00 Ry     beta=0.70
     Davidson diagonalization with overlap
     ethr =  4.45E-08,  avg # of iterations =  1.0

     negative rho (up, down):  0.108E+00 0.000E+00

     total cpu time spent up to now is     5229.5 secs

     total energy              =   -1563.05742972 Ry
     Harris-Foulkes estimate   =   -1563.05743945 Ry
     estimated scf accuracy    <       0.00006547 Ry

     iteration # 31     ecut=    40.00 Ry     beta=0.70
     Davidson diagonalization with overlap
     ethr =  3.06E-08,  avg # of iterations =  1.0

     negative rho (up, down):  0.108E+00 0.000E+00

     total cpu time spent up to now is     5386.6 secs

     total energy              =   -1563.05743377 Ry
     Harris-Foulkes estimate   =   -1563.05743631 Ry
     estimated scf accuracy    <       0.00002053 Ry

     iteration # 32     ecut=    40.00 Ry     beta=0.70
     Davidson diagonalization with overlap
     ethr =  9.59E-09,  avg # of iterations =  1.0

     negative rho (up, down):  0.108E+00 0.000E+00

     total cpu time spent up to now is     5545.8 secs

     total energy              =   -1563.05743401 Ry
     Harris-Foulkes estimate   =   -1563.05743633 Ry
     estimated scf accuracy    <       0.00002299 Ry

     iteration # 33     ecut=    40.00 Ry     beta=0.70
     Davidson diagonalization with overlap
     ethr =  9.59E-09,  avg # of iterations =  1.0

     negative rho (up, down):  0.108E+00 0.000E+00

     total cpu time spent up to now is     5698.1 secs

     total energy              =   -1563.05743516 Ry
     Harris-Foulkes estimate   =   -1563.05743554 Ry
     estimated scf accuracy    <       0.00000334 Ry

     iteration # 34     ecut=    40.00 Ry     beta=0.70
     Davidson diagonalization with overlap
     ethr =  1.56E-09,  avg # of iterations =  1.0

     negative rho (up, down):  0.108E+00 0.000E+00

     total cpu time spent up to now is     5858.0 secs

     total energy              =   -1563.05743529 Ry
     Harris-Foulkes estimate   =   -1563.05743547 Ry
     estimated scf accuracy    <       0.00000196 Ry

     iteration # 35     ecut=    40.00 Ry     beta=0.70
     Davidson diagonalization with overlap
     ethr =  9.14E-10,  avg # of iterations =  1.0

     negative rho (up, down):  0.108E+00 0.000E+00

     total cpu time spent up to now is     6020.8 secs

     total energy              =   -1563.05743522 Ry
     Harris-Foulkes estimate   =   -1563.05743551 Ry
     estimated scf accuracy    <       0.00000408 Ry

     iteration # 36     ecut=    40.00 Ry     beta=0.70
     Davidson diagonalization with overlap
     ethr =  9.14E-10,  avg # of iterations =  1.0

     negative rho (up, down):  0.108E+00 0.000E+00

     total cpu time spent up to now is     6174.3 secs

     total energy              =   -1563.05743509 Ry
     Harris-Foulkes estimate   =   -1563.05743575 Ry
     estimated scf accuracy    <       0.00000441 Ry

     iteration # 37     ecut=    40.00 Ry     beta=0.70
     Davidson diagonalization with overlap
     ethr =  9.14E-10,  avg # of iterations =  1.0

     negative rho (up, down):  0.108E+00 0.000E+00

     total cpu time spent up to now is     6324.2 secs

     total energy              =   -1563.05743538 Ry
     Harris-Foulkes estimate   =   -1563.05743546 Ry
     estimated scf accuracy    <       0.00000111 Ry

     iteration # 38     ecut=    40.00 Ry     beta=0.70
     Davidson diagonalization with overlap
     ethr =  5.21E-10,  avg # of iterations =  1.0

     negative rho (up, down):  0.108E+00 0.000E+00

     total cpu time spent up to now is     6474.5 secs

     End of self-consistent calculation
 --- enter write_ns ---
 LDA+U parameters:
U( 2)     =  7.00000000
alpha( 2) =  0.00000000
atom    3   Tr[ns(na)] =   2.59776
    eigenvalues: 
  0.122  0.144  0.164  0.404  0.464
    eigenvectors:
  0.027  0.752  0.052  0.155  0.014
  0.002  0.006  0.003  0.236  0.752
  0.676  0.000  0.323  0.000  0.000
  0.008  0.144  0.008  0.608  0.232
  0.287  0.097  0.614  0.001  0.002
    occupations:
  0.189  0.017 -0.003  0.098  0.002
  0.017  0.446  0.003 -0.035  0.014
 -0.003  0.003  0.136  0.007 -0.018
  0.098 -0.035  0.007  0.377 -0.002
  0.002  0.014 -0.018 -0.002  0.151
atom    4   Tr[ns(na)] =   2.68524
    eigenvalues: 
  0.122  0.158  0.168  0.438  0.458
    eigenvectors:
  0.007  0.002  0.000  0.000  0.991
  0.001  0.769  0.228  0.000  0.002
  0.000  0.228  0.772  0.000  0.000
  0.992  0.001  0.000  0.000  0.006
  0.000  0.000  0.000  1.000  0.000
    occupations:
  0.455  0.013  0.005 -0.027 -0.000
  0.013  0.160 -0.004 -0.000 -0.002
  0.005 -0.004  0.165  0.000 -0.000
 -0.027 -0.000  0.000  0.124 -0.000
 -0.000 -0.002 -0.000 -0.000  0.438
atom    9   Tr[ns(na)] =   2.66982
    eigenvalues: 
  0.121  0.168  0.186  0.403  0.456
    eigenvectors:
  0.000  0.000  0.925  0.075  0.000
  0.000  0.000  0.000  0.004  0.995
  0.997  0.003  0.000  0.000  0.000
  0.000  0.000  0.075  0.921  0.005
  0.003  0.997  0.000  0.000  0.000
    occupations:
  0.202  0.002 -0.000  0.057  0.000
  0.002  0.456  0.000 -0.004 -0.000
 -0.000  0.000  0.121 -0.000 -0.003
  0.057 -0.004 -0.000  0.387 -0.000
  0.000 -0.000 -0.003 -0.000  0.168
atom   10   Tr[ns(na)] =   2.58033
    eigenvalues: 
  0.127  0.171  0.191  0.329  0.473
    eigenvectors:
  0.017  0.000  0.000  0.983  0.000
  0.000  0.000  1.000  0.000  0.000
  0.000  1.000  0.000  0.000  0.000
  0.983  0.000  0.000  0.017  0.000
  0.000  0.000  0.000  0.000  1.000
    occupations:
  0.326 -0.000 -0.001 -0.026 -0.000
 -0.000  0.191 -0.000 -0.000 -0.000
 -0.001 -0.000  0.171 -0.000  0.000
 -0.026 -0.000 -0.000  0.130  0.000
 -0.000 -0.000  0.000  0.000  0.473
atom   16   Tr[ns(na)] =   2.59780
    eigenvalues: 
  0.122  0.144  0.164  0.404  0.464
    eigenvectors:
  0.027  0.751  0.053  0.155  0.014
  0.002  0.006  0.003  0.236  0.752
  0.676  0.000  0.323  0.000  0.000
  0.008  0.143  0.008  0.608  0.232
  0.286  0.099  0.612  0.001  0.002
    occupations:
  0.189 -0.017 -0.003  0.098 -0.003
 -0.017  0.446 -0.003  0.036  0.014
 -0.003 -0.003  0.136  0.007  0.018
  0.098  0.036  0.007  0.377  0.002
 -0.003  0.014  0.018  0.002  0.151
atom   17   Tr[ns(na)] =   2.67635
    eigenvalues: 
  0.122  0.155  0.167  0.436  0.460
    eigenvectors:
  0.007  0.002  0.000  0.000  0.991
  0.001  0.809  0.187  0.000  0.002
  0.000  0.187  0.813  0.000  0.000
  0.992  0.002  0.000  0.000  0.006
  0.000  0.000  0.000  1.000  0.000
    occupations:
  0.457  0.015  0.005 -0.027 -0.000
  0.015  0.158 -0.005 -0.000 -0.002
  0.005 -0.005  0.165  0.000 -0.000
 -0.027 -0.000  0.000  0.124 -0.000
 -0.000 -0.002 -0.000 -0.000  0.436
atom   22   Tr[ns(na)] =   2.66968
    eigenvalues: 
  0.121  0.168  0.186  0.403  0.456
    eigenvectors:
  0.000  0.000  0.925  0.075  0.000
  0.000  0.000  0.000  0.004  0.995
  0.997  0.003  0.000  0.000  0.000
  0.000  0.000  0.075  0.920  0.005
  0.003  0.997  0.000  0.000  0.000
    occupations:
  0.202 -0.002 -0.000  0.057  0.000
 -0.002  0.456 -0.000  0.004 -0.000
 -0.000 -0.000  0.121 -0.000  0.003
  0.057  0.004 -0.000  0.387  0.000
  0.000 -0.000  0.003  0.000  0.168
atom   23   Tr[ns(na)] =   2.83824
    eigenvalues: 
  0.084  0.256  0.275  0.337  0.467
    eigenvectors:
  0.004  0.000  0.000  0.000  0.996
  0.000  0.000  1.000  0.000  0.000
  0.000  1.000  0.000  0.000  0.000
  0.996  0.000  0.000  0.000  0.004
  0.000  0.000  0.000  1.000  0.000
    occupations:
  0.466  0.000  0.000 -0.024 -0.000
  0.000  0.275 -0.000 -0.000  0.000
  0.000 -0.000  0.256 -0.000  0.000
 -0.024 -0.000 -0.000  0.086  0.000
 -0.000  0.000  0.000  0.000  0.337
N of occupied +U levels =  21.3152232
 --- exit write_ns ---

          k = 0.0000 0.0000 0.0000 ( 29975 PWs)   bands (ev):

   -61.9484 -61.9122 -61.6831 -60.9817 -60.9426 -60.5754 -60.5371 -59.7588
   -38.3857 -38.1675 -38.0988 -38.0783 -38.0433 -38.0339 -37.9538 -37.7904
   -37.7856 -37.5033 -37.2682 -37.1764 -37.0860 -37.0564 -37.0313 -36.9626
   -36.8226 -36.8053 -36.7910 -36.7197 -36.5276 -36.0689 -36.0649 -36.0472
   -22.1244 -21.7692 -21.0606 -20.8091 -20.3626 -20.2360 -20.0276 -20.0023
   -19.8515 -19.8400 -19.6124 -19.5416 -19.4961 -19.4830 -19.2467 -19.1342
   -18.7475 -18.6118 -17.9189  -9.8308  -9.5286  -8.5477  -8.4751  -7.8829
    -7.8428  -7.7363  -7.5672  -7.4422  -7.3818  -7.2982  -7.1297  -7.0537
    -6.9842  -6.9547  -6.7746  -6.7074  -6.6448  -6.6339  -6.4552  -6.3834
    -6.3174  -6.2951  -6.1220  -6.0618  -5.7986  -5.4808  -5.4400  -5.3743
    -5.2585  -5.2145  -5.1937  -5.1257  -5.0309  -4.9484  -4.7868  -4.7119
    -4.6107  -4.5380  -4.5008  -4.3839  -4.3491  -4.2373  -4.1830  -4.1141
    -3.9606  -3.9239  -3.9108  -3.8923  -3.6200  -3.6124  -3.4770  -3.4457
    -3.3509  -3.3332  -3.1944  -3.0122  -0.4189  -0.1644  -0.0847   0.1340
     0.1731   0.2467   0.3627   0.3881   0.6395   0.7064   0.7991   0.9158
     1.0404   1.1672   1.1868   1.2463   1.2647   1.3139   1.3639   1.4424
     1.4568   1.4892   1.6955   1.8783   1.9867   1.9965   2.0159   2.1227
     2.2151   2.2244   2.2653   2.3682   2.5682   2.6880   2.9080   2.9099
     3.0857   3.2462   3.3929   3.4925   3.6242   3.6407   3.9678   4.3273
     4.7292   5.1275   5.5178   5.6586   5.6924   6.1227   6.2309   6.6739
     7.0162   7.1621   7.2384   7.2743   7.4354   7.5974   7.6344   7.7731
     7.8457   7.8976   7.9327   8.0974   8.1940   8.2639   8.2857   8.3741
     8.5594   8.6093   8.6395   8.7172   8.8211   8.8836   8.9110   8.9716
     9.0726   9.2590   9.3611   9.3938   9.4125   9.6687   9.7232   9.8860
     9.9559  10.1269  10.3347  10.4644  10.5882  10.5936  10.6138  10.6733
    10.7416  10.9126  10.9748  10.9933  11.0696  11.1199  11.1889  11.3209
    11.3412  11.3581  11.3769  11.4103  11.4866  11.5876  11.6570  11.8178
    11.8569  11.8742  12.0036  12.0309  12.0540  12.1649  12.2089  12.3481
    12.4221  12.4288  12.4965  12.5125  12.5830  12.6767  12.6948  12.8655
    12.9760  13.0009  13.0483  13.1563  13.1894  13.3285  13.3679  13.5315
    13.5720  13.6134  13.6513  13.7416  13.7723  13.9451  13.9820  14.0760
    14.1264  14.3217  14.4009  14.5058  14.5812  14.5990  14.6604  14.7011
    14.7521  14.9433  14.9755  15.1278  15.2115  15.3921  15.4213  15.5198
    15.5449  15.6225  15.8860  15.9375  16.0070  16.1201  16.1649  16.3010
    16.3541  16.3829  16.5088  16.5647  16.6351  16.8723  16.9228  17.0981
    17.1223  17.1811  17.2815  17.4465  17.4659  17.4967  17.5508  17.6144
    17.6594  17.7228  17.7977  17.8784  17.8822  17.9385  18.0284  18.0851
    18.1494  18.1987  18.2080  18.2791  18.4147  18.4716  18.4861  18.5254
    18.7032  18.7259  18.8783  18.9785  19.0073

          k = 0.0000 0.2258 0.0000 ( 29933 PWs)   bands (ev):

   -61.9486 -61.9121 -61.6831 -60.9818 -60.9424 -60.5756 -60.5371 -59.7587
   -38.3860 -38.1674 -38.0988 -38.0758 -38.0453 -38.0339 -37.9537 -37.7909
   -37.7849 -37.5012 -37.2706 -37.1767 -37.0860 -37.0563 -37.0313 -36.9628
   -36.8224 -36.8053 -36.7910 -36.7197 -36.5275 -36.0701 -36.0644 -36.0471
   -22.1133 -21.7679 -21.0277 -20.8120 -20.2735 -20.2195 -20.1349 -19.9955
   -19.8880 -19.7468 -19.6511 -19.6373 -19.6107 -19.4140 -19.2133 -19.1339
   -18.7452 -18.6099 -17.9190  -9.8318  -9.5264  -8.5287  -8.2114  -7.8403
    -7.8371  -7.5668  -7.5586  -7.4877  -7.4171  -7.3012  -7.1189  -7.0833
    -6.8951  -6.8275  -6.7411  -6.6739  -6.5782  -6.4791  -6.4548  -6.3750
    -6.3628  -6.3133  -6.0683  -5.9759  -5.8226  -5.5780  -5.5294  -5.4311
    -5.4042  -5.3324  -5.2524  -5.1266  -5.0740  -5.0139  -4.8839  -4.6961
    -4.6327  -4.6075  -4.4987  -4.4663  -4.4436  -4.3494  -4.2091  -4.0868
    -4.0230  -3.9181  -3.8668  -3.8610  -3.7831  -3.6269  -3.5088  -3.4790
    -3.4101  -3.3748  -3.3156  -3.1068  -0.3033  -0.0348   0.0852   0.1346
     0.1381   0.1746   0.3695   0.5761   0.6413   0.7259   0.7954   0.9867
     1.0106   1.0786   1.1916   1.2033   1.2905   1.3100   1.3775   1.4398
     1.4834   1.5368   1.6363   1.7772   1.8929   1.9853   2.0012   2.1567
     2.2704   2.4303   2.4759   2.4883   2.6277   2.7494   2.9402   3.0091
     3.0457   3.2870   3.3517   3.4574   3.6509   3.8310   4.1772   4.3531
     4.6316   4.9659   5.5789   5.6344   5.7905   5.8542   6.1227   6.3528
     6.3610   6.7005   6.9472   7.1057   7.1679   7.3324   7.4319   7.7944
     7.8005   8.1292   8.1927   8.2581   8.2652   8.4500   8.5947   8.6030
     8.7206   8.7887   8.8874   8.9063   8.9530   9.0261   9.0847   9.1940
     9.3808   9.5150   9.5202   9.5691   9.7040   9.7179   9.7916   9.9120
     9.9651  10.0793  10.1452  10.2114  10.3073  10.3919  10.4892  10.5329
    10.5647  10.6838  10.8207  10.8618  10.8996  10.9795  11.0725  11.1302
    11.1501  11.2370  11.2824  11.3785  11.4642  11.6057  11.7896  11.8048
    11.8386  12.0255  12.0925  12.1864  12.3328  12.3925  12.4049  12.4868
    12.5816  12.5873  12.6311  12.7659  12.8841  12.9041  13.0665  13.1080
    13.2449  13.2694  13.3623  13.4156  13.4705  13.5237  13.5497  13.6869
    13.7738  13.8013  13.8278  13.9155  13.9282  14.0231  14.0350  14.1271
    14.2426  14.2641  14.3977  14.4727  14.5088  14.6212  14.6932  14.7777
    14.8208  14.9043  14.9970  15.0359  15.1544  15.2486  15.3394  15.3830
    15.4171  15.5017  15.5511  15.5893  15.6362  15.7463  15.9613  16.0519
    16.1171  16.2793  16.3550  16.4338  16.4763  16.5707  16.6259  16.7155
    16.7800  16.9079  16.9835  17.0586  17.1324  17.1649  17.3665  17.5084
    17.5329  17.6355  17.6578  17.7618  17.7951  18.0115  18.0529  18.0800
    18.1593  18.2115  18.2329  18.2877  18.3288  18.4363  18.5337  18.6379
    18.6937  18.8067  18.8442  18.9329  18.9716

          k = 0.0000-0.4516 0.0000 ( 29906 PWs)   bands (ev):

   -61.9489 -61.9121 -61.6830 -60.9819 -60.9421 -60.5758 -60.5370 -59.7587
   -38.3863 -38.1673 -38.0988 -38.0733 -38.0472 -38.0339 -37.9537 -37.7915
   -37.7843 -37.4992 -37.2731 -37.1770 -37.0860 -37.0563 -37.0313 -36.9629
   -36.8223 -36.8053 -36.7910 -36.7197 -36.5275 -36.0712 -36.0638 -36.0470
   -22.1023 -21.7666 -20.9892 -20.8186 -20.1984 -20.1927 -20.1265 -19.9953
   -19.9327 -19.8596 -19.6856 -19.6652 -19.6436 -19.3766 -19.1945 -19.1334
   -18.7433 -18.6082 -17.9192  -9.8312  -9.5243  -8.5094  -7.9761  -7.8363
    -7.7118  -7.6384  -7.5647  -7.4321  -7.1902  -7.1840  -7.1077  -7.1060
    -6.8418  -6.8112  -6.7252  -6.6117  -6.5331  -6.5046  -6.3198  -6.3182
    -6.2179  -6.1242  -6.0772  -6.0030  -5.9891  -5.8187  -5.7108  -5.6607
    -5.5634  -5.4573  -5.3292  -5.1865  -5.0829  -5.0106  -4.8902  -4.8477
    -4.6783  -4.6371  -4.5023  -4.4743  -4.3679  -4.3229  -4.2796  -4.1221
    -4.0947  -4.0560  -3.9104  -3.8139  -3.8062  -3.6227  -3.5474  -3.4792
    -3.4373  -3.4126  -3.3578  -3.1958  -0.2768  -0.1449   0.0374   0.0848
     0.3087   0.3462   0.4201   0.6451   0.7537   0.7767   0.8188   0.9266
     0.9727   1.0119   1.1931   1.2340   1.3011   1.4004   1.4106   1.4325
     1.4687   1.5415   1.6975   1.7547   1.9065   1.9715   2.0020   2.1407
     2.3034   2.4009   2.4654   2.5781   2.7780   2.9258   2.9534   3.0281
     3.1615   3.2237   3.3393   3.5908   3.6543   3.7139   4.4698   4.6466
     4.6561   5.0837   5.1955   5.4463   5.5872   5.7611   5.8303   6.2642
     6.3365   6.5360   6.6175   6.7556   6.7864   7.2763   7.7362   7.8102
     7.8544   8.0679   8.1667   8.2757   8.4406   8.4436   8.7328   8.8293
     8.8498   8.9154   8.9193   8.9771   8.9999   9.1439   9.1864   9.2797
     9.3356   9.4494   9.5086   9.5200   9.6047   9.6310   9.8063   9.9228
     9.9693  10.0911  10.1364  10.2008  10.3566  10.5400  10.5616  10.5702
    10.6846  10.8077  10.9189  10.9809  11.0375  11.1118  11.2148  11.2630
    11.3934  11.4020  11.5016  11.7202  11.7758  11.7964  11.8331  11.8921
    11.9229  11.9428  11.9785  12.0900  12.2289  12.3191  12.3549  12.4939
    12.5646  12.6323  12.6715  12.6961  12.8741  12.9244  12.9663  12.9927
    13.1089  13.1999  13.2225  13.2732  13.3565  13.3794  13.5543  13.6375
    13.7109  13.7900  13.8486  13.9180  13.9276  13.9747  14.0993  14.3398
    14.4985  14.5141  14.6155  14.6517  14.6991  14.7447  14.7820  14.8404
    14.9382  15.0560  15.1645  15.2031  15.2251  15.3073  15.3602  15.5819
    15.6037  15.6590  15.6872  15.8002  15.8667  15.8865  15.9957  16.0563
    16.1679  16.2087  16.3602  16.3768  16.4443  16.5227  16.5751  16.7266
    16.7453  16.7731  16.8725  16.9239  17.0621  17.0647  17.1215  17.1960
    17.2615  17.2836  17.4448  17.5302  17.5688  17.5832  17.6123  17.6983
    17.7063  17.7910  17.9749  18.0008  18.0459  18.0607  18.0780  18.1400
    18.1618  18.3896  18.5094  18.5549  18.6068

          k = 0.2500 0.0000 0.0000 ( 29937 PWs)   bands (ev):

   -61.9444 -61.9187 -61.6838 -60.9778 -60.9492 -60.5708 -60.5438 -59.7595
   -38.3296 -38.1541 -38.1189 -38.0728 -38.0483 -38.0322 -38.0041 -37.7851
   -37.7847 -37.4412 -37.2550 -37.1899 -37.1435 -37.0548 -37.0334 -36.9035
   -36.8179 -36.7955 -36.7950 -36.7296 -36.5893 -36.0708 -36.0692 -36.0466
   -22.0545 -21.7889 -21.0506 -20.7278 -20.2645 -20.1922 -20.1490 -19.9701
   -19.9236 -19.8222 -19.6715 -19.6625 -19.4618 -19.4021 -19.2653 -19.1137
   -18.8113 -18.6634 -17.9182  -9.8256  -9.5934  -8.3619  -8.3500  -8.0113
    -7.7277  -7.6680  -7.5493  -7.5271  -7.4605  -7.2840  -7.2623  -7.1166
    -6.9305  -6.8913  -6.8526  -6.8083  -6.7313  -6.5294  -6.3621  -6.3038
    -6.2184  -6.0542  -6.0315  -5.7200  -5.6722  -5.5671  -5.5223  -5.3852
    -5.3337  -5.2389  -5.1194  -5.0568  -4.9792  -4.9625  -4.8723  -4.8575
    -4.7693  -4.6836  -4.5188  -4.4600  -4.4203  -4.3896  -4.2600  -4.1711
    -4.0186  -3.9788  -3.9182  -3.8049  -3.7454  -3.5729  -3.4808  -3.4388
    -3.3953  -3.3674  -3.3065  -3.0916  -0.2651  -0.1417  -0.0960   0.1267
     0.1747   0.2256   0.4264   0.4511   0.6303   0.6952   0.7842   0.8505
     1.0028   1.0472   1.0854   1.1335   1.3076   1.4217   1.5154   1.5537
     1.5649   1.6182   1.6964   1.8185   1.8605   2.0104   2.0326   2.1006
     2.2315   2.2551   2.3491   2.5568   2.5931   2.7622   2.8365   2.8938
     2.9148   3.2440   3.3023   3.3186   3.4396   3.8978   4.2851   4.5273
     4.6074   4.9972   5.4127   5.8816   5.9333   5.9587   6.3842   6.3955
     6.6008   6.8787   7.0538   7.2920   7.3271   7.4376   7.5097   7.6198
     7.6943   7.7710   7.9090   8.0668   8.1416   8.1622   8.2759   8.3490
     8.4878   8.5760   8.7824   8.8448   8.9309   8.9794   9.1263   9.1744
     9.2861   9.4237   9.4728   9.5770   9.6002   9.7165   9.8584   9.9881
    10.0555  10.0603  10.1737  10.3518  10.3723  10.3911  10.5472  10.5857
    10.7102  10.7653  10.8004  10.8125  10.9584  10.9901  11.0738  11.1080
    11.1975  11.2461  11.3276  11.4687  11.5201  11.5856  11.6749  11.7021
    11.8167  11.9418  11.9879  12.1628  12.1908  12.2896  12.4843  12.5201
    12.6004  12.6397  12.6887  12.7629  12.8765  13.0163  13.0842  13.2388
    13.2765  13.3472  13.4110  13.5402  13.6288  13.7294  13.7712  13.8283
    13.8800  13.9831  14.0458  14.1094  14.2087  14.2830  14.3109  14.4323
    14.4408  14.4916  14.5538  14.6150  14.7207  14.7793  14.8943  14.9780
    15.0569  15.1166  15.1476  15.2306  15.3056  15.3384  15.5756  15.6084
    15.6361  15.7282  15.7836  15.8122  15.9310  16.0045  16.0390  16.1975
    16.2768  16.3985  16.5344  16.6070  16.6398  16.7189  16.8043  16.8611
    16.9160  16.9816  17.0315  17.1139  17.2640  17.3595  17.4415  17.4769
    17.5666  17.5740  17.6795  17.7514  17.8073  17.8373  17.8867  18.0122
    18.0571  18.1118  18.1552  18.2861  18.3409  18.4010  18.4569  18.5249
    18.5499  18.7020  18.7408  18.7949  18.8584

          k = 0.2500 0.2258 0.0000 ( 29912 PWs)   bands (ev):

   -61.9446 -61.9187 -61.6837 -60.9778 -60.9490 -60.5710 -60.5438 -59.7594
   -38.3298 -38.1540 -38.1189 -38.0710 -38.0495 -38.0322 -38.0041 -37.7852
   -37.7845 -37.4396 -37.2572 -37.1905 -37.1432 -37.0548 -37.0334 -36.9037
   -36.8177 -36.7956 -36.7951 -36.7296 -36.5894 -36.0706 -36.0699 -36.0465
   -22.0465 -21.7874 -21.0303 -20.7138 -20.2039 -20.1588 -20.1431 -20.0510
   -19.9015 -19.8116 -19.6993 -19.6554 -19.5690 -19.4655 -19.2146 -19.1128
   -18.8090 -18.6623 -17.9181  -9.8232  -9.5874  -8.3417  -8.1026  -7.9844
    -7.6815  -7.5674  -7.5408  -7.4137  -7.3691  -7.2519  -7.2038  -7.0758
    -6.9277  -6.8699  -6.8012  -6.7434  -6.7045  -6.5997  -6.3843  -6.2976
    -6.1786  -6.1270  -6.0358  -5.7465  -5.6337  -5.5933  -5.5121  -5.4506
    -5.3804  -5.3147  -5.2580  -5.1832  -5.1173  -5.0710  -4.9996  -4.9178
    -4.8323  -4.6973  -4.6653  -4.5450  -4.4333  -4.3244  -4.2497  -4.1819
    -4.0500  -4.0215  -3.9016  -3.8179  -3.8046  -3.6325  -3.4788  -3.4629
    -3.4453  -3.3579  -3.2972  -3.1389  -0.2449  -0.0592   0.0965   0.1228
     0.1731   0.2545   0.4240   0.5974   0.6473   0.7487   0.7969   0.8765
     1.0083   1.0491   1.1221   1.1725   1.3038   1.4247   1.4800   1.4902
     1.5832   1.6245   1.6556   1.7248   1.8051   1.9448   2.1130   2.1747
     2.2278   2.3420   2.4921   2.5445   2.6337   2.6943   2.8576   2.9155
     3.0158   3.2114   3.3151   3.3915   3.4487   4.0964   4.4910   4.6034
     4.6581   4.9222   5.2667   5.8470   5.9839   6.0494   6.1200   6.3763
     6.4474   6.6173   6.8094   6.9505   7.0611   7.2597   7.3142   7.4645
     7.6130   7.6877   7.7442   7.9082   7.9543   8.0671   8.2180   8.3434
     8.5450   8.6609   8.7007   8.7663   9.0325   9.1724   9.2142   9.3268
     9.3473   9.4957   9.5825   9.6005   9.6903   9.8225   9.9280   9.9882
    10.0310  10.3158  10.3645  10.4430  10.5597  10.6565  10.7506  10.8072
    10.9203  10.9527  11.0433  11.1252  11.1525  11.2601  11.3319  11.3755
    11.4132  11.4902  11.5344  11.7069  11.7354  11.8505  11.9275  11.9545
    11.9998  12.0949  12.1175  12.2001  12.3446  12.4107  12.4769  12.5066
    12.5996  12.7564  12.8045  12.8741  12.9076  13.0234  13.0560  13.1313
    13.2514  13.3387  13.4029  13.4553  13.5510  13.5762  13.6135  13.6624
    13.7657  13.8475  13.9272  14.0064  14.0468  14.1734  14.2095  14.2560
    14.3660  14.4309  14.5230  14.5642  14.6781  14.7186  14.8024  14.9396
    15.0257  15.1151  15.1914  15.2677  15.3382  15.3905  15.4626  15.5216
    15.6257  15.6857  15.7470  15.8317  15.8465  15.9605  16.0177  16.0500
    16.1676  16.2095  16.3181  16.3548  16.4668  16.5656  16.6216  16.6965
    16.7088  16.8134  16.8652  16.9099  16.9913  17.0304  17.0836  17.2061
    17.2427  17.2524  17.3571  17.4421  17.4989  17.5536  17.6835  17.7136
    17.7888  17.8242  17.9155  18.0262  18.0548  18.1239  18.2284  18.3310
    18.3782  18.4795  18.5818  18.6223  18.6640

          k = 0.2500-0.4516 0.0000 ( 29882 PWs)   bands (ev):

   -61.9447 -61.9187 -61.6837 -60.9779 -60.9488 -60.5712 -60.5438 -59.7594
   -38.3301 -38.1540 -38.1189 -38.0691 -38.0507 -38.0322 -38.0042 -37.7857
   -37.7839 -37.4380 -37.2592 -37.1910 -37.1431 -37.0547 -37.0334 -36.9039
   -36.8176 -36.7956 -36.7951 -36.7296 -36.5894 -36.0716 -36.0694 -36.0464
   -22.0387 -21.7859 -21.0097 -20.6968 -20.1699 -20.1310 -20.1078 -20.0403
   -19.9329 -19.7836 -19.7749 -19.7133 -19.6352 -19.4844 -19.1917 -19.1118
   -18.8071 -18.6613 -17.9180  -9.8199  -9.5826  -8.3193  -8.0344  -7.7223
    -7.6075  -7.5162  -7.4414  -7.3465  -7.3331  -7.2999  -7.0208  -6.9946
    -6.9299  -6.8766  -6.7421  -6.6784  -6.6519  -6.4122  -6.3547  -6.2320
    -6.1689  -6.1303  -6.0292  -5.9882  -5.8785  -5.7318  -5.6307  -5.5830
    -5.4715  -5.4248  -5.3967  -5.2902  -5.2347  -5.1708  -5.0779  -5.0089
    -4.7604  -4.7490  -4.6909  -4.6305  -4.5008  -4.2558  -4.2194  -4.1201
    -4.0323  -3.9816  -3.9512  -3.8503  -3.7759  -3.7619  -3.5256  -3.4805
    -3.4176  -3.3166  -3.2917  -3.2111  -0.2351  -0.0762   0.0519   0.1048
     0.2512   0.4193   0.4759   0.6148   0.7648   0.7941   0.8216   0.9822
     1.0374   1.0781   1.1928   1.2013   1.2373   1.3660   1.4398   1.4967
     1.5605   1.6149   1.6512   1.7239   1.8060   1.9085   2.0660   2.1590
     2.3281   2.4272   2.4543   2.5170   2.5932   2.6323   2.8387   3.1104
     3.2208   3.2421   3.2846   3.4252   3.5412   3.9696   4.7406   4.8424
     4.9250   4.9348   5.3568   5.4720   5.7212   5.8357   5.8857   6.1493
     6.5544   6.5863   6.7627   6.8621   7.0028   7.0400   7.2210   7.3845
     7.4656   7.6169   7.6916   7.7761   7.9621   8.0586   8.1114   8.1357
     8.1927   8.4802   8.5400   8.5961   8.8092   8.9818   9.2017   9.2355
     9.3250   9.5385   9.8258   9.8620   9.8878   9.9332  10.2116  10.2447
    10.3272  10.7597  10.8235  10.8565  10.8755  10.9129  11.0006  11.0629
    11.1786  11.2094  11.2477  11.3727  11.4212  11.4629  11.5514  11.6437
    11.7046  11.7478  11.7714  11.9062  11.9362  11.9717  12.0565  12.0657
    12.1651  12.2195  12.3087  12.3779  12.3881  12.4338  12.5330  12.5784
    12.6987  12.7321  12.8173  12.8755  12.9667  13.0681  13.0924  13.1213
    13.1967  13.2373  13.3086  13.4365  13.4540  13.5399  13.6242  13.7026
    13.7221  13.7937  13.8212  13.9147  13.9892  14.0251  14.0695  14.1672
    14.2273  14.2743  14.3079  14.4502  14.5394  14.5847  14.6766  14.7673
    14.8113  14.8789  14.9469  15.0084  15.0709  15.0993  15.1346  15.2283
    15.2800  15.3602  15.3913  15.4743  15.5862  15.6181  15.7374  15.7667
    15.9336  16.1027  16.2001  16.4018  16.4782  16.5329  16.5904  16.6139
    16.6349  16.7482  16.8171  16.8368  16.9341  16.9913  17.0377  17.2248
    17.2603  17.3179  17.3799  17.4110  17.5151  17.5832  17.6261  17.6482
    17.7484  17.8890  17.9146  18.0292  18.0854  18.1721  18.2195  18.2668
    18.3795  18.4031  18.4397  18.4876  18.5415

          k =-0.5000 0.0000 0.0000 ( 29982 PWs)   bands (ev):

   -61.9334 -61.9322 -61.6844 -60.9699 -60.9597 -60.5588 -60.5580 -59.7602
   -38.2147 -38.1957 -38.1140 -38.0833 -38.0604 -38.0598 -38.0310 -37.7846
   -37.7789 -37.3002 -37.2839 -37.2235 -37.2205 -37.0453 -37.0421 -36.8086
   -36.8043 -36.7897 -36.7842 -36.7266 -36.7184 -36.0764 -36.0696 -36.0462
   -21.9498 -21.8413 -21.0528 -20.5041 -20.4432 -20.1019 -20.0297 -19.9842
   -19.9797 -19.8217 -19.8142 -19.7948 -19.4353 -19.2892 -19.2287 -19.1535
   -18.8917 -18.7176 -17.9175  -9.8214  -9.6532  -8.1174  -8.1052  -8.0357
    -7.8122  -7.7911  -7.6485  -7.5964  -7.4846  -7.4143  -7.3033  -7.0704
    -6.9068  -6.8698  -6.8068  -6.6423  -6.5126  -6.4048  -6.3625  -6.1124
    -5.9677  -5.9359  -5.9163  -5.8225  -5.7988  -5.7644  -5.6311  -5.4325
    -5.3816  -5.3294  -5.0624  -5.0406  -4.9404  -4.9278  -4.8692  -4.8226
    -4.8040  -4.7604  -4.6937  -4.6083  -4.5154  -4.4821  -4.2525  -4.1635
    -4.0924  -4.0536  -4.0313  -3.8916  -3.6180  -3.5871  -3.4855  -3.4404
    -3.4054  -3.3771  -3.3158  -3.2398  -0.2551  -0.0978   0.0093   0.1835
     0.2097   0.2522   0.3059   0.5221   0.5666   0.6572   0.6756   0.7707
     0.9910   1.0129   1.1300   1.1507   1.2531   1.4970   1.6018   1.6159
     1.6531   1.6757   1.7049   1.7157   1.8999   1.9714   2.0669   2.0973
     2.2250   2.4611   2.4647   2.5291   2.5746   2.5884   2.8697   2.8985
     3.1268   3.1333   3.2312   3.2700   3.4812   3.5196   4.6781   4.6981
     4.9788   5.2389   5.2953   5.5750   5.7196   5.8533   6.1243   6.2293
     6.5029   6.6973   6.7955   6.9826   7.1407   7.1496   7.5176   7.9039
     7.9593   7.9818   8.1513   8.1838   8.2905   8.2932   8.4483   8.4764
     8.5758   8.6353   8.7419   8.8165   8.8581   8.9342   8.9830   9.1358
     9.1552   9.3353   9.3758   9.5387   9.5931   9.6066   9.7290   9.7588
     9.8274   9.8764   9.9191  10.0152  10.0267  10.2250  10.3567  10.4485
    10.4969  10.6734  10.7981  10.9657  11.0495  11.1134  11.1705  11.2824
    11.5020  11.5634  11.6208  11.6297  11.6472  11.7182  11.9224  12.0207
    12.1364  12.2255  12.2512  12.4900  12.5076  12.6263  12.6697  12.7632
    12.8304  12.8778  12.9095  13.0509  13.1407  13.1788  13.3270  13.4272
    13.4297  13.5735  13.6079  13.6631  13.7721  13.8490  13.9605  13.9982
    14.1086  14.1484  14.1613  14.2710  14.3249  14.3424  14.4019  14.4690
    14.4820  14.6190  14.7233  14.8896  14.9054  14.9908  14.9946  15.0661
    15.2217  15.2816  15.3133  15.3737  15.4172  15.4513  15.5803  15.7983
    15.8199  15.8792  15.8951  16.0359  16.1048  16.1354  16.2967  16.3114
    16.4998  16.5200  16.5720  16.6088  16.6778  16.7664  16.8013  16.9447
    16.9574  17.0050  17.0325  17.0418  17.0671  17.2521  17.2957  17.4278
    17.4305  17.4926  17.6107  17.6615  17.6936  17.7996  17.8695  17.9211
    17.9989  18.0153  18.0619  18.0943  18.1412  18.2291  18.2965  18.3237
    18.3773  18.4148  18.4176  18.5118  18.5630

          k =-0.5000 0.2258 0.0000 ( 29954 PWs)   bands (ev):

   -61.9335 -61.9323 -61.6844 -60.9698 -60.9597 -60.5589 -60.5580 -59.7601
   -38.2148 -38.1958 -38.1140 -38.0833 -38.0600 -38.0595 -38.0310 -37.7840
   -37.7794 -37.2994 -37.2831 -37.2248 -37.2218 -37.0453 -37.0421 -36.8070
   -36.8058 -36.7897 -36.7843 -36.7266 -36.7184 -36.0757 -36.0708 -36.0461
   -21.9470 -21.8381 -21.0426 -20.4576 -20.4252 -20.1117 -20.0188 -19.9442
   -19.9105 -19.8803 -19.8633 -19.7623 -19.5223 -19.4365 -19.1765 -19.1388
   -18.8846 -18.7166 -17.9171  -9.8148  -9.6463  -8.0890  -7.9633  -7.9377
    -7.7399  -7.7120  -7.6327  -7.4717  -7.3134  -7.2275  -7.2176  -6.9237
    -6.9022  -6.8337  -6.7655  -6.6527  -6.6177  -6.4242  -6.4099  -6.2029
    -6.1511  -6.0506  -5.9343  -5.8922  -5.8136  -5.7264  -5.6016  -5.4755
    -5.3758  -5.3473  -5.2992  -5.2401  -5.1606  -5.0893  -4.9554  -4.8759
    -4.8231  -4.7771  -4.7103  -4.6249  -4.5758  -4.5342  -4.3679  -4.1809
    -4.0439  -3.9974  -3.8837  -3.8717  -3.6485  -3.5998  -3.5694  -3.4865
    -3.3938  -3.3695  -3.2490  -3.2431  -0.2299  -0.0802   0.0426   0.1605
     0.1957   0.3784   0.4502   0.5502   0.7045   0.7358   0.7558   0.8415
     0.9867   1.0691   1.1726   1.1757   1.2162   1.3904   1.5022   1.6178
     1.6520   1.6827   1.7027   1.7968   1.8404   1.9930   1.9951   2.1454
     2.2076   2.3562   2.3666   2.4880   2.6166   2.6364   2.7188   2.9415
     3.1253   3.1645   3.3269   3.3903   3.6260   3.6496   4.8393   4.8585
     5.1313   5.2822   5.3043   5.5911   5.6885   5.8938   6.0448   6.1992
     6.5703   6.6587   6.6783   6.7862   6.9453   7.0280   7.1008   7.2929
     7.3543   7.5500   7.6637   7.8387   7.8657   8.0747   8.1332   8.2925
     8.3427   8.4464   8.5688   8.6342   8.7723   8.9130   9.2623   9.3637
     9.4855   9.7106   9.7397   9.8464   9.8620   9.9151   9.9995  10.0776
    10.2456  10.3094  10.3307  10.4683  10.5701  10.6572  10.7377  10.7747
    10.8605  10.9329  11.0697  11.1132  11.2572  11.2942  11.3609  11.5070
    11.6156  11.7415  11.7757  11.9271  11.9498  12.0265  12.0391  12.1075
    12.1889  12.3046  12.5156  12.5543  12.6922  12.7457  12.8267  12.8478
    12.9727  12.9789  13.1255  13.1424  13.1820  13.2297  13.3542  13.3771
    13.4751  13.4945  13.5990  13.6458  13.7987  13.8796  13.9080  13.9854
    14.0142  14.0632  14.1082  14.1888  14.2465  14.3359  14.3567  14.4677
    14.4871  14.7279  14.7592  14.8605  14.9005  14.9189  14.9489  14.9692
    15.1169  15.1598  15.1828  15.2280  15.2794  15.3142  15.3881  15.4149
    15.4761  15.5433  15.5770  15.7068  15.7213  15.7827  15.8166  15.8809
    15.9208  15.9651  16.0613  16.1240  16.2586  16.2754  16.3656  16.3969
    16.4325  16.4875  16.5174  16.6604  16.7387  16.7959  16.8303  16.9284
    16.9601  17.0098  17.1090  17.1888  17.2117  17.2904  17.3510  17.4281
    17.5123  17.5925  17.6528  17.8332  17.9715  17.9970  18.0871  18.1863
    18.2107  18.2905  18.3193  18.3868  18.4320

          k =-0.5000-0.4516 0.0000 ( 29868 PWs)   bands (ev):

   -61.9336 -61.9324 -61.6843 -60.9698 -60.9596 -60.5589 -60.5581 -59.7600
   -38.2149 -38.1959 -38.1140 -38.0834 -38.0596 -38.0591 -38.0310 -37.7834
   -37.7800 -37.2985 -37.2823 -37.2261 -37.2231 -37.0452 -37.0421 -36.8075
   -36.8052 -36.7896 -36.7845 -36.7267 -36.7184 -36.0750 -36.0720 -36.0460
   -21.9441 -21.8349 -21.0322 -20.4046 -20.3947 -20.1385 -19.9878 -19.9703
   -19.9423 -19.8320 -19.7633 -19.6964 -19.6813 -19.6167 -19.1587 -19.1280
   -18.8786 -18.7157 -17.9168  -9.8082  -9.6393  -8.0901  -7.9075  -7.8835
    -7.6314  -7.4898  -7.4836  -7.2832  -7.1556  -7.1495  -6.9569  -6.9022
    -6.8389  -6.7717  -6.7046  -6.6437  -6.6310  -6.5818  -6.3549  -6.2899
    -6.2103  -6.1962  -6.0609  -5.9828  -5.8899  -5.7018  -5.6685  -5.6444
    -5.5911  -5.5446  -5.3687  -5.3260  -5.2849  -5.1935  -5.0875  -5.0542
    -5.0184  -4.8167  -4.7329  -4.6257  -4.5310  -4.3617  -4.3179  -4.2079
    -3.9813  -3.9540  -3.9167  -3.8436  -3.7788  -3.6112  -3.5674  -3.4415
    -3.3603  -3.3256  -3.2824  -3.2130  -0.2144  -0.0065   0.0535   0.1454
     0.1720   0.4307   0.5023   0.5556   0.8154   0.8644   0.9714   0.9984
     1.0232   1.1285   1.1560   1.2255   1.2659   1.3897   1.4084   1.4230
     1.4711   1.6760   1.6871   1.7447   1.7677   1.8594   1.9834   2.2177
     2.3651   2.4512   2.4794   2.4912   2.5157   2.5443   2.5960   2.9227
     3.1125   3.2559   3.3507   3.4502   3.8959   3.8991   4.7050   4.7122
     5.3912   5.5141   5.5282   5.7233   5.7262   6.1034   6.1140   6.2013
     6.2408   6.4334   6.4478   6.5803   6.6058   6.7482   6.9144   7.0445
     7.1639   7.3076   7.4202   7.5536   7.6938   7.7117   7.7842   7.9233
     8.1905   8.5764   8.7306   8.8475   8.8925   8.9523   8.9821   9.1187
     9.1605   9.2677   9.8064   9.8970   9.9494  10.2538  10.3295  10.4851
    10.6111  10.6251  10.7568  10.8011  10.8921  10.9853  11.1433  11.4175
    11.4717  11.4731  11.5536  11.5813  11.7490  11.8011  11.8852  11.9502
    11.9671  12.1828  12.2005  12.2510  12.3133  12.3761  12.4603  12.5083
    12.5222  12.5877  12.6370  12.6914  12.7560  12.8505  12.8680  12.9602
    12.9929  13.0032  13.0739  13.1656  13.1726  13.2357  13.2734  13.3118
    13.5054  13.5553  13.5895  13.6147  13.7317  13.7667  13.7733  13.8251
    13.8514  13.8978  13.9011  14.0194  14.1210  14.1258  14.2719  14.2862
    14.3320  14.4303  14.4619  14.5219  14.5537  14.5931  14.6227  14.6437
    14.6685  14.7402  14.8265  14.9571  15.0167  15.0320  15.0612  15.0952
    15.1587  15.2008  15.2327  15.3495  15.3860  15.4119  15.4865  15.5672
    15.6640  15.7226  15.7452  15.7695  15.8971  15.9866  16.0053  16.0620
    16.0814  16.1742  16.2134  16.2510  16.2936  16.3146  16.3661  16.4274
    16.8531  16.9250  16.9688  17.0618  17.1165  17.1637  17.2522  17.3035
    17.3728  17.4288  17.4808  17.5259  17.5363  17.6829  17.8610  17.9115
    17.9401  17.9644  18.0747  18.2146  18.2583

          k =-0.2500 0.2258 0.0000 ( 29912 PWs)   bands (ev):

   -61.9446 -61.9187 -61.6837 -60.9778 -60.9490 -60.5710 -60.5438 -59.7594
   -38.3298 -38.1540 -38.1189 -38.0710 -38.0495 -38.0322 -38.0041 -37.7852
   -37.7845 -37.4396 -37.2570 -37.1904 -37.1433 -37.0548 -37.0334 -36.9037
   -36.8177 -36.7957 -36.7950 -36.7296 -36.5894 -36.0705 -36.0700 -36.0465
   -22.0466 -21.7874 -21.0303 -20.7137 -20.2030 -20.1583 -20.1404 -20.0579
   -19.9015 -19.8081 -19.7003 -19.6548 -19.5685 -19.4662 -19.2147 -19.1129
   -18.8090 -18.6623 -17.9181  -9.8230  -9.5887  -8.3341  -8.1029  -7.9883
    -7.6895  -7.5744  -7.5392  -7.4128  -7.3693  -7.2582  -7.1952  -7.0770
    -6.9034  -6.8688  -6.8307  -6.7572  -6.6988  -6.5448  -6.3926  -6.2865
    -6.1732  -6.1288  -6.0276  -5.7668  -5.6828  -5.6058  -5.4970  -5.4460
    -5.4006  -5.3225  -5.2491  -5.1824  -5.1424  -5.0548  -5.0068  -4.9169
    -4.7818  -4.6974  -4.6790  -4.5620  -4.4777  -4.2684  -4.2176  -4.1771
    -4.0275  -3.9973  -3.9111  -3.8487  -3.7960  -3.6420  -3.5051  -3.4630
    -3.4087  -3.3821  -3.3031  -3.1463  -0.2449  -0.0567   0.0977   0.1236
     0.1729   0.2540   0.4237   0.5955   0.6474   0.7469   0.7962   0.8763
     1.0070   1.0513   1.1239   1.1725   1.3031   1.4258   1.4781   1.4876
     1.5801   1.6270   1.6573   1.7250   1.8069   1.9454   2.1135   2.1746
     2.2275   2.3418   2.4921   2.5471   2.6324   2.6933   2.8567   2.9159
     3.0171   3.2096   3.3162   3.3911   3.4505   4.0981   4.4919   4.6154
     4.6678   4.9197   5.2623   5.8525   5.9484   6.0427   6.1227   6.3759
     6.4301   6.6227   6.8073   6.9554   7.0724   7.2551   7.3277   7.4443
     7.6046   7.7012   7.7604   7.9090   7.9451   8.0617   8.2207   8.3760
     8.5311   8.6544   8.7132   8.7767   9.0350   9.1822   9.2082   9.3177
     9.3469   9.4780   9.5671   9.6022   9.6948   9.8172   9.8909   9.9948
    10.0579  10.3175  10.3577  10.4594  10.5470  10.6637  10.7549  10.8217
    10.9193  10.9555  11.0369  11.1219  11.1608  11.2556  11.3283  11.3747
    11.4517  11.4902  11.5414  11.7045  11.7530  11.8539  11.9219  11.9562
    12.0215  12.0807  12.1237  12.2397  12.3520  12.4181  12.4616  12.4977
    12.6212  12.7239  12.7890  12.8687  12.9082  12.9652  13.0365  13.1424
    13.2492  13.3067  13.3621  13.4418  13.5393  13.5740  13.6356  13.6742
    13.7644  13.8313  13.9332  14.0319  14.0674  14.1507  14.2180  14.2680
    14.4123  14.4412  14.5173  14.5642  14.6738  14.7326  14.8334  14.9307
    15.0261  15.1290  15.2003  15.2628  15.3323  15.3944  15.4474  15.5444
    15.5836  15.6296  15.7785  15.7973  15.8245  15.9475  15.9708  16.0297
    16.1331  16.2087  16.2797  16.3445  16.4886  16.5629  16.6268  16.6785
    16.7622  16.8421  16.8612  16.9160  16.9674  17.0402  17.1092  17.2026
    17.2309  17.2539  17.3612  17.4409  17.5671  17.5945  17.6590  17.7149
    17.7582  17.8189  17.9031  18.0264  18.0899  18.1831  18.2128  18.3053
    18.3852  18.4944  18.6104  18.6205  18.6486

     the Fermi energy is    -3.2410 ev

!    total energy              =   -1563.05743516 Ry
     Harris-Foulkes estimate   =   -1563.05743544 Ry
     estimated scf accuracy    <       0.00000031 Ry

     The total energy is the sum of the following terms:

     one-electron contribution =  -18540.23080354 Ry
     hartree contribution      =    9282.90847409 Ry
     xc contribution           =    -276.75237153 Ry
     ewald contribution        =    7967.39032071 Ry
     Hubbard energy            =       3.62618770 Ry
     smearing contrib. (-TS)   =       0.00075741 Ry

     convergence has been achieved in  38 iterations

     Forces acting on atoms (Ry/au):


     negative rho (up, down):  0.108E+00 0.000E+00
     atom    1 type  1   force =    -0.00397029   -0.01168877   -0.01954846
     atom    2 type  1   force =    -0.00004072    0.01031814   -0.01716550
     atom    3 type  2   force =     0.05024623   -0.00235895   -0.02204085
     atom    4 type  2   force =     0.00222599    0.00666844   -0.01604857
     atom    5 type  1   force =    -0.00483850   -0.07353669   -0.00016782
     atom    6 type  1   force =    -0.00503825    0.07312650    0.00045100
     atom    7 type  1   force =    -0.00002455   -0.00063870   -0.00880899
     atom    8 type  1   force =     0.00035455   -0.00155234    0.02590379
     atom    9 type  2   force =     0.01165230    0.00026015   -0.03728519
     atom   10 type  2   force =     0.00003543   -0.00020223    0.03434896
     atom   11 type  1   force =    -0.02991463    0.00458958   -0.00298097
     atom   12 type  1   force =    -0.03037156   -0.00430054   -0.00302626
     atom   13 type  1   force =     0.00001528    0.00012613    0.04461872
     atom   14 type  1   force =    -0.00334131   -0.01113008   -0.02520099
     atom   15 type  1   force =    -0.00003227    0.00517991   -0.01623610
     atom   16 type  2   force =    -0.04999853   -0.00203955   -0.02206352
     atom   17 type  2   force =     0.00223005    0.00629387   -0.00340879
     atom   18 type  1   force =     0.00647575   -0.07327238   -0.00015186
     atom   19 type  1   force =     0.00642242    0.07312576    0.00067839
     atom   20 type  1   force =    -0.00009152   -0.00168828    0.04025328
     atom   21 type  1   force =     0.00047846   -0.00130336    0.01879348
     atom   22 type  2   force =    -0.01181727    0.00008426   -0.03721162
     atom   23 type  2   force =    -0.00002446   -0.00034518   -0.02292116
     atom   24 type  1   force =     0.03053770    0.00466878   -0.00324669
     atom   25 type  1   force =     0.02973400   -0.00434124   -0.00278770
     atom   26 type  1   force =     0.00011918   -0.00006163    0.03739626
     atom   27 type  3   force =     0.00014291    0.00140757    0.00314849
     atom   28 type  3   force =     0.00001351    0.00269820    0.00356320
     atom   29 type  3   force =    -0.00055074   -0.00013623    0.00351206
     atom   30 type  3   force =    -0.00064141    0.00008631    0.00322990
     atom   31 type  1   force =     0.00001224   -0.00003746    0.04440352

     Total force =     0.124390     Total SCF correction =     0.002061

     BFGS Geometry Optimization

     number of scf cycles    =   1
     number of bfgs steps    =   0

     energy   new            =   -1563.0574351553 Ry

     new trust radius        =       0.0446187155 bohr
     new conv_thr            =       0.0000010000 Ry


ATOMIC_POSITIONS (crystal)
O0       0.000000000   0.000000000   0.377620755    0   0   1
O0       0.000000000   0.500000000   0.397528204    0   0   1
Ti1      0.250000000   0.500000000   0.449641127    0   0   1
Ti1      0.000000000   0.000000000   0.452440444    0   0   1
O0       0.250000000   0.810000000   0.449286658    0   0   1
O0       0.250000000   0.190000000   0.450158980    0   0   1
O0       0.000000000   0.500000000   0.497454597    0   0   1
O0       0.000000000   0.000000000   0.526005791    0   0   1
Ti1      0.250000000   0.000000000   0.580317586    0   0   1
Ti1      0.000000000   0.500000000   0.569153949    0   0   1
O0       0.250000000   0.690000000   0.580380644    0   0   1
O0       0.250000000   0.310000000   0.580399742    0   0   1
O0       0.000000000   0.000000000   0.623188438    0   0   1
O0       0.500000000   0.000000000   0.377348203    0   0   1
O0       0.500000000   0.500000000   0.396806710    0   0   1
Ti1      0.750000000   0.500000000   0.449640676    0   0   1
Ti1      0.500000000   0.000000000   0.451522125    0   0   1
O0       0.750000000   0.810000000   0.449336976    0   0   1
O0       0.750000000   0.190000000   0.450033508    0   0   1
O0       0.500000000   0.500000000   0.492551514    0   0   1
O0       0.500000000   0.000000000   0.525664212    0   0   1
Ti1      0.750000000   0.000000000   0.580309051    0   0   1
Ti1      0.500000000   0.500000000   0.597783599    0   0   1
O0       0.750000000   0.690000000   0.580485353    0   0   1
O0       0.750000000   0.310000000   0.580294492    0   0   1
O0       0.500000000   0.000000000   0.622254626    0   0   1
H2      -0.000727269   0.619883267   0.375512692
H2       0.499421204   0.615977124   0.373630950
H2       0.148610936   0.034059038   0.363609931
H2       0.648872858   0.032836945   0.363424313
O0       0.499991090   0.499856986   0.662254153


     Check: negative starting charge=   -0.102438
     NEW-OLD atomic charge density approx. for the potential

     Check: negative/imaginary core charge=   -0.000006    0.000000
     Check: negative starting charge=   -0.102566

     negative rho (up, down):  0.108E+00 0.000E+00
 Atomic wfc used for LDA+U Projector are NOT orthogonalized

     total cpu time spent up to now is     6655.8 secs

     per-process dynamical memory:   376.9 Mb

     Self-consistent Calculation

     iteration #  1     ecut=    40.00 Ry     beta=0.70
     Davidson diagonalization with overlap
     ethr =  1.00E-06,  avg # of iterations =  4.6
 --- enter write_ns ---
 LDA+U parameters:
U( 2)     =  7.00000000
alpha( 2) =  0.00000000
atom    3   Tr[ns(na)] =   2.58727
    eigenvalues: 
  0.123  0.142  0.161  0.404  0.463
    eigenvectors:
  0.041  0.738  0.049  0.158  0.014
  0.003  0.005  0.003  0.224  0.765
  0.662  0.003  0.335  0.000  0.000
  0.011  0.144  0.007  0.618  0.219
  0.283  0.109  0.606  0.000  0.002
    occupations:
  0.188  0.016 -0.003  0.100  0.002
  0.016  0.447  0.003 -0.034  0.014
 -0.003  0.003  0.136  0.007 -0.017
  0.100 -0.034  0.007  0.374 -0.002
  0.002  0.014 -0.017 -0.002  0.149
atom    4   Tr[ns(na)] =   2.66102
    eigenvalues: 
  0.122  0.154  0.163  0.438  0.454
    eigenvectors:
  0.007  0.002  0.000  0.000  0.991
  0.001  0.709  0.288  0.000  0.002
  0.000  0.287  0.712  0.000  0.000
  0.992  0.001  0.000  0.000  0.007
  0.000  0.000  0.000  1.000  0.000
    occupations:
  0.451  0.013  0.004 -0.027 -0.000
  0.013  0.157 -0.004 -0.000 -0.002
  0.004 -0.004  0.161  0.000 -0.000
 -0.027 -0.000  0.000  0.124 -0.000
 -0.000 -0.002 -0.000 -0.000  0.438
atom    9   Tr[ns(na)] =   2.65714
    eigenvalues: 
  0.123  0.164  0.181  0.401  0.459
    eigenvectors:
  0.000  0.000  0.914  0.086  0.000
  0.000  0.000  0.000  0.005  0.995
  0.996  0.004  0.000  0.000  0.000
  0.000  0.000  0.086  0.910  0.005
  0.004  0.996  0.000  0.000  0.000
    occupations:
  0.200  0.002 -0.000  0.062  0.000
  0.002  0.459  0.000 -0.005 -0.000
 -0.000  0.000  0.124 -0.000 -0.003
  0.062 -0.005 -0.000  0.383 -0.000
  0.000 -0.000 -0.003 -0.000  0.164
atom   10   Tr[ns(na)] =   2.55639
    eigenvalues: 
  0.128  0.165  0.186  0.324  0.475
    eigenvectors:
  0.018  0.000  0.000  0.982  0.000
  0.000  0.000  1.000  0.000  0.000
  0.000  1.000  0.000  0.000  0.000
  0.982  0.000  0.000  0.018  0.000
  0.000  0.000  0.000  0.000  1.000
    occupations:
  0.321 -0.000 -0.001 -0.026 -0.000
 -0.000  0.186 -0.000 -0.000 -0.000
 -0.001 -0.000  0.165 -0.000  0.000
 -0.026 -0.000 -0.000  0.131  0.000
 -0.000 -0.000  0.000  0.000  0.475
atom   16   Tr[ns(na)] =   2.58726
    eigenvalues: 
  0.123  0.142  0.162  0.404  0.463
    eigenvectors:
  0.041  0.737  0.051  0.158  0.014
  0.003  0.005  0.003  0.224  0.765
  0.663  0.002  0.334  0.000  0.000
  0.012  0.144  0.008  0.617  0.219
  0.282  0.111  0.605  0.001  0.002
    occupations:
  0.188 -0.016 -0.003  0.100 -0.002
 -0.016  0.447 -0.003  0.034  0.014
 -0.003 -0.003  0.136  0.007  0.017
  0.100  0.034  0.007  0.374  0.002
 -0.002  0.014  0.017  0.002  0.149
atom   17   Tr[ns(na)] =   2.65644
    eigenvalues: 
  0.122  0.152  0.163  0.436  0.455
    eigenvectors:
  0.007  0.002  0.000  0.000  0.991
  0.001  0.780  0.217  0.000  0.002
  0.000  0.216  0.783  0.000  0.000
  0.991  0.002  0.000  0.000  0.007
  0.000  0.000  0.000  1.000  0.000
    occupations:
  0.452  0.014  0.005 -0.027 -0.000
  0.014  0.155 -0.005 -0.000 -0.002
  0.005 -0.005  0.161  0.000 -0.000
 -0.027 -0.000  0.000  0.124 -0.000
 -0.000 -0.002 -0.000 -0.000  0.436
atom   22   Tr[ns(na)] =   2.65709
    eigenvalues: 
  0.123  0.164  0.181  0.401  0.459
    eigenvectors:
  0.000  0.000  0.914  0.086  0.000
  0.000  0.000  0.000  0.005  0.995
  0.996  0.004  0.000  0.000  0.000
  0.000  0.000  0.086  0.909  0.005
  0.004  0.996  0.000  0.000  0.000
    occupations:
  0.200 -0.002 -0.000  0.062 -0.000
 -0.002  0.459 -0.000  0.005 -0.000
 -0.000 -0.000  0.124 -0.000  0.003
  0.062  0.005 -0.000  0.383  0.000
 -0.000 -0.000  0.003  0.000  0.164
atom   23   Tr[ns(na)] =   2.70579
    eigenvalues: 
  0.085  0.223  0.250  0.337  0.458
    eigenvectors:
  0.004  0.000  0.000  0.000  0.996
  0.000  0.000  1.000  0.000  0.000
  0.000  1.000  0.000  0.000  0.000
  0.996  0.000  0.000  0.000  0.004
  0.000  0.000  0.000  1.000  0.000
    occupations:
  0.456  0.000  0.000 -0.024 -0.000
  0.000  0.250 -0.000 -0.000  0.000
  0.000 -0.000  0.223 -0.000 -0.000
 -0.024 -0.000 -0.000  0.087  0.000
 -0.000  0.000 -0.000  0.000  0.337
N of occupied +U levels =  21.0683942
 --- exit write_ns ---

     negative rho (up, down):  0.108E+00 0.000E+00

     total cpu time spent up to now is     6935.8 secs

     total energy              =   -1562.53340280 Ry
     Harris-Foulkes estimate   =   -1563.08242647 Ry
     estimated scf accuracy    <       0.63134735 Ry

     iteration #  2     ecut=    40.00 Ry     beta=0.70
     Davidson diagonalization with overlap
     ethr =  2.95E-04,  avg # of iterations =  4.9

     negative rho (up, down):  0.114E+00 0.000E+00

     total cpu time spent up to now is     7141.7 secs

     total energy              =   -1556.32724574 Ry
     Harris-Foulkes estimate   =   -1567.23556549 Ry
     estimated scf accuracy    <     182.50657276 Ry

     iteration #  3     ecut=    40.00 Ry     beta=0.70
     Davidson diagonalization with overlap
     ethr =  2.95E-04,  avg # of iterations =  6.4

     negative rho (up, down):  0.110E+00 0.000E+00

     total cpu time spent up to now is     7351.6 secs

     total energy              =   -1562.86747373 Ry
     Harris-Foulkes estimate   =   -1563.79703616 Ry
     estimated scf accuracy    <       4.58130733 Ry

     iteration #  4     ecut=    40.00 Ry     beta=0.70
     Davidson diagonalization with overlap
     ethr =  2.95E-04,  avg # of iterations =  4.3

     negative rho (up, down):  0.109E+00 0.000E+00

     total cpu time spent up to now is     7520.7 secs

     total energy              =   -1563.06868486 Ry
     Harris-Foulkes estimate   =   -1563.27914324 Ry
     estimated scf accuracy    <       1.57384266 Ry

     iteration #  5     ecut=    40.00 Ry     beta=0.70
     Davidson diagonalization with overlap
     ethr =  2.95E-04,  avg # of iterations =  1.2

     negative rho (up, down):  0.108E+00 0.000E+00

     total cpu time spent up to now is     7675.1 secs

     total energy              =   -1563.09697005 Ry
     Harris-Foulkes estimate   =   -1563.14290495 Ry
     estimated scf accuracy    <       0.55711163 Ry

     iteration #  6     ecut=    40.00 Ry     beta=0.70
     Davidson diagonalization with overlap
     ethr =  2.60E-04,  avg # of iterations =  1.0

     negative rho (up, down):  0.109E+00 0.000E+00

     total cpu time spent up to now is     7836.3 secs

     total energy              =   -1563.08213576 Ry
     Harris-Foulkes estimate   =   -1563.11277792 Ry
     estimated scf accuracy    <       0.51510502 Ry

     iteration #  7     ecut=    40.00 Ry     beta=0.70
     Davidson diagonalization with overlap
     ethr =  2.41E-04,  avg # of iterations =  1.0

     negative rho (up, down):  0.108E+00 0.000E+00

     total cpu time spent up to now is     7986.9 secs

     total energy              =   -1563.07392238 Ry
     Harris-Foulkes estimate   =   -1563.09077443 Ry
[...]
    15.9403  16.1387  16.2391  16.4064  16.4688  16.4918  16.5475  16.5754
    16.5944  16.7348  16.8168  16.8867  16.9216  16.9528  17.0228  17.2071
    17.2486  17.2934  17.3457  17.4102  17.4682  17.5646  17.6355  17.6819
    17.7458  17.9119  17.9626  17.9766  18.0621  18.1092  18.2176  18.2930
    18.3548  18.4320  18.4764  18.5232  18.5651

          k =-0.5000 0.0000 0.0000 ( 29982 PWs)   bands (ev):

   -62.0598 -62.0587 -61.9460 -61.2788 -61.2775 -60.8775 -60.8771 -60.0714
   -38.3232 -38.2960 -38.2494 -38.2075 -38.2054 -38.1992 -38.1696 -38.0473
   -38.0179 -37.5898 -37.5858 -37.5262 -37.5212 -37.3364 -37.3290 -37.1246
   -37.1211 -37.0532 -37.0462 -37.0202 -37.0091 -36.3907 -36.3732 -36.2664
   -21.9539 -21.8784 -20.9343 -20.6187 -20.5428 -20.1796 -20.1687 -20.1434
   -20.0953 -19.9855 -19.9798 -19.7243 -19.5922 -19.3944 -19.3213 -19.2885
   -19.0118 -18.8058 -17.9679  -9.7239  -9.5389  -8.2393  -8.2352  -7.9657
    -7.8762  -7.8456  -7.6674  -7.6242  -7.6040  -7.4542  -7.3915  -7.2183
    -6.9142  -6.8416  -6.8054  -6.6048  -6.5072  -6.4651  -6.4328  -6.1786
    -6.1045  -6.0284  -5.9832  -5.9159  -5.8446  -5.8318  -5.6950  -5.5561
    -5.4788  -5.3904  -5.1321  -5.0927  -5.0633  -5.0542  -5.0006  -4.9751
    -4.9113  -4.8972  -4.7553  -4.6842  -4.6815  -4.6342  -4.2966  -4.2211
    -4.1854  -4.1371  -4.1106  -3.9865  -3.7539  -3.6771  -3.5796  -3.5720
    -3.5384  -3.4992  -3.3972  -3.3200  -0.4040  -0.2434  -0.1773   0.0385
     0.0465   0.1034   0.1201   0.3083   0.3709   0.3976   0.4588   0.5004
     0.8081   0.8090   0.9534   0.9960   1.0337   1.1528   1.2663   1.2906
     1.3490   1.4018   1.4314   1.4558   1.6086   1.6678   1.7008   1.7360
     1.8645   2.1223   2.1525   2.1981   2.1990   2.3328   2.4360   2.4894
     2.6262   2.6440   2.8275   2.8538   3.4789   3.5384   4.7423   4.7746
     4.8610   5.2491   5.3416   5.5356   5.7041   5.8269   6.0621   6.2124
     6.4022   6.6957   6.7298   6.9503   7.2576   7.2854   7.4788   7.7855
     7.9268   8.0131   8.1519   8.2152   8.2781   8.3368   8.3773   8.4323
     8.4484   8.6428   8.7533   8.8184   8.8459   8.9580   9.0332   9.1171
     9.1727   9.2260   9.2419   9.2968   9.4994   9.5166   9.6715   9.7465
     9.7557   9.8690   9.9015   9.9521   9.9791  10.0957  10.3022  10.3844
    10.4576  10.5662  10.7787  10.9265  10.9527  11.0032  11.0759  11.1495
    11.3438  11.4564  11.5390  11.5482  11.5619  11.6929  11.8053  11.9211
    12.0867  12.1301  12.2151  12.3318  12.5066  12.5367  12.5982  12.6713
    12.7267  12.7646  12.8136  12.8808  12.9953  13.0312  13.3155  13.3915
    13.4233  13.4654  13.5001  13.5086  13.6382  13.8114  13.8638  13.9078
    13.9610  14.0609  14.0740  14.1130  14.1625  14.1745  14.3151  14.4238
    14.5166  14.5638  14.5993  14.6192  14.7099  14.8181  14.9048  14.9224
    15.1286  15.1550  15.2107  15.2409  15.3278  15.3549  15.4323  15.8058
    15.8429  15.8770  15.9273  15.9900  16.1175  16.1553  16.3637  16.3724
    16.5257  16.5791  16.6186  16.6383  16.6666  16.7799  16.8094  16.8603
    16.9534  17.0597  17.0668  17.1049  17.1077  17.2492  17.3525  17.4165
    17.4475  17.5337  17.5491  17.6221  17.6450  17.7269  17.8352  17.9722
    18.0127  18.0525  18.0962  18.1354  18.1599  18.2034  18.2828  18.3079
    18.3730  18.4916  18.5053  18.5681  18.6011

          k =-0.5000 0.2258 0.0000 ( 29954 PWs)   bands (ev):

   -62.0599 -62.0588 -61.9459 -61.2787 -61.2774 -60.8775 -60.8772 -60.0713
   -38.3233 -38.2961 -38.2494 -38.2072 -38.2050 -38.1991 -38.1697 -38.0467
   -38.0184 -37.5889 -37.5848 -37.5277 -37.5226 -37.3364 -37.3290 -37.1233
   -37.1224 -37.0531 -37.0464 -37.0202 -37.0091 -36.3916 -36.3727 -36.2664
   -21.9506 -21.8747 -20.9134 -20.5723 -20.5334 -20.1879 -20.1648 -20.0739
   -20.0495 -20.0272 -20.0235 -19.7294 -19.6608 -19.5471 -19.2773 -19.2722
   -19.0001 -18.8049 -17.9674  -9.7147  -9.5276  -8.0983  -8.0508  -7.9560
    -7.8539  -7.8017  -7.5459  -7.5196  -7.3826  -7.3650  -7.3355  -7.0261
    -6.9428  -6.8472  -6.7894  -6.6480  -6.6184  -6.5050  -6.4218  -6.2528
    -6.1819  -6.1661  -5.9783  -5.9738  -5.9186  -5.7863  -5.6939  -5.5432
    -5.4985  -5.4438  -5.4308  -5.3277  -5.2439  -5.1946  -5.0524  -5.0326
    -4.9626  -4.9316  -4.8368  -4.7355  -4.6673  -4.5962  -4.4022  -4.2427
    -4.1486  -4.0526  -3.9850  -3.9716  -3.7751  -3.7028  -3.6602  -3.5575
    -3.5396  -3.4533  -3.3901  -3.3501  -0.3711  -0.2268  -0.1256   0.0121
     0.0440   0.1686   0.2852   0.3954   0.4584   0.4721   0.5445   0.5802
     0.7963   0.8687   0.8919   1.0041   1.0401   1.1200   1.2504   1.3007
     1.3354   1.3919   1.4501   1.4982   1.5353   1.5837   1.6381   1.7965
     1.8814   1.9893   2.0190   2.2265   2.2733   2.3054   2.3750   2.5170
     2.6201   2.6536   2.8942   2.9357   3.6746   3.7218   4.9086   4.9403
     5.0041   5.3560   5.3809   5.5764   5.7466   5.8787   5.9717   6.1259
     6.4894   6.6028   6.6889   6.8256   6.9026   7.0334   7.0909   7.2794
     7.4027   7.5512   7.6161   7.7033   7.7430   8.0357   8.1213   8.2874
     8.3291   8.4482   8.5302   8.5982   8.6868   8.8528   9.2029   9.2932
     9.4318   9.6518   9.6934   9.7474   9.8329   9.8680   9.9078  10.0363
    10.1993  10.2734  10.3164  10.3668  10.4494  10.5998  10.6283  10.7184
    10.8295  10.8518  10.9684  11.0299  11.1316  11.2210  11.2801  11.4336
    11.5932  11.6283  11.7449  11.8363  11.9023  11.9481  11.9997  12.0493
    12.1395  12.1964  12.4047  12.4475  12.5551  12.6404  12.6700  12.7010
    12.8187  12.8361  12.9443  12.9603  13.0958  13.1494  13.1682  13.3287
    13.3784  13.4162  13.4756  13.6350  13.6492  13.6842  13.8004  13.8763
    14.0066  14.0431  14.0775  14.1086  14.2108  14.3251  14.3384  14.4217
    14.4884  14.5134  14.5706  14.7565  14.7826  14.8408  14.8884  14.9502
    14.9810  15.0384  15.1495  15.2383  15.2735  15.3147  15.3417  15.4168
    15.4426  15.5291  15.5624  15.6571  15.7309  15.7905  15.8227  15.8824
    15.9119  16.0037  16.1336  16.1539  16.2404  16.2562  16.3405  16.3651
    16.4068  16.5099  16.5564  16.6444  16.7275  16.7825  16.8478  16.8786
    16.9412  16.9949  17.0835  17.1668  17.2056  17.2808  17.3153  17.4279
    17.4587  17.6563  17.7170  17.9613  17.9886  18.0123  18.0425  18.0937
    18.2162  18.3227  18.3331  18.4301  18.4982

          k =-0.5000-0.4516 0.0000 ( 29868 PWs)   bands (ev):

   -62.0600 -62.0589 -61.9458 -61.2787 -61.2773 -60.8776 -60.8773 -60.0712
   -38.3233 -38.2963 -38.2494 -38.2068 -38.2045 -38.1990 -38.1697 -38.0461
   -38.0190 -37.5878 -37.5839 -37.5293 -37.5241 -37.3364 -37.3289 -37.1238
   -37.1220 -37.0531 -37.0465 -37.0202 -37.0091 -36.3924 -36.3722 -36.2663
   -21.9474 -21.8710 -20.8914 -20.5228 -20.5091 -20.2241 -20.1458 -20.0980
   -20.0880 -19.9330 -19.8961 -19.8488 -19.7239 -19.6891 -19.2687 -19.2557
   -18.9903 -18.8040 -17.9669  -9.7055  -9.5163  -8.0401  -7.9335  -7.9284
    -7.7009  -7.6296  -7.4673  -7.3434  -7.2795  -7.2524  -7.0175  -6.9577
    -6.9196  -6.8447  -6.7560  -6.6970  -6.6115  -6.5877  -6.3978  -6.3322
    -6.2700  -6.2261  -6.1477  -6.0106  -5.9820  -5.8228  -5.8093  -5.7595
    -5.7143  -5.6627  -5.4638  -5.4148  -5.3945  -5.2785  -5.2337  -5.1903
    -5.0615  -4.9393  -4.8645  -4.7135  -4.5821  -4.4650  -4.3328  -4.3060
    -4.0953  -4.0396  -3.9820  -3.9171  -3.9026  -3.7325  -3.6972  -3.5045
    -3.4917  -3.4091  -3.4001  -3.3519  -0.3564  -0.1463  -0.1009  -0.0078
     0.0185   0.1903   0.3621   0.4023   0.5586   0.5974   0.7768   0.7894
     0.8168   0.9091   0.9773   0.9980   1.0339   1.1090   1.1263   1.1447
     1.2387   1.3326   1.3770   1.3802   1.4124   1.4754   1.7032   1.7893
     2.0193   2.0465   2.1857   2.2067   2.2248   2.2726   2.3229   2.4714
     2.5938   2.7508   2.8567   3.0088   3.9807   4.0193   4.7780   4.7906
     5.2264   5.5907   5.6055   5.8113   5.8192   6.0795   6.1233   6.2313
     6.2438   6.3862   6.4847   6.5147   6.5951   6.7091   6.8096   6.9660
     7.0250   7.2663   7.3250   7.4296   7.5630   7.6540   7.8009   7.9205
     8.1732   8.5313   8.7400   8.7658   8.8277   8.9275   8.9456   8.9949
     9.1375   9.2036   9.7792   9.8577   9.9573  10.1692  10.1893  10.2766
    10.6022  10.6350  10.7135  10.7821  10.8268  10.9379  11.0492  11.1986
    11.3434  11.3730  11.4164  11.4348  11.4760  11.5745  11.6890  11.7697
    11.9421  12.0595  12.1038  12.2184  12.2364  12.3285  12.3814  12.4289
    12.4669  12.5012  12.5522  12.6134  12.6570  12.6705  12.7410  12.8046
    12.8572  13.0204  13.0568  13.1357  13.1611  13.2072  13.2393  13.3662
    13.3736  13.3819  13.4886  13.4933  13.4958  13.7037  13.7461  13.8446
    13.8840  13.9150  13.9193  14.0214  14.1191  14.1649  14.2218  14.3233
    14.3263  14.3914  14.4379  14.4598  14.5378  14.5804  14.6130  14.6681
    14.6922  14.7192  14.7577  14.8838  14.9655  15.0096  15.0290  15.0570
    15.1379  15.2035  15.2472  15.2777  15.2965  15.3664  15.4403  15.5087
    15.5440  15.6074  15.6409  15.6655  15.8003  15.9700  16.0312  16.0363
    16.0609  16.1062  16.1829  16.1864  16.2527  16.2620  16.3088  16.4239
    16.8487  16.9213  17.0189  17.0261  17.0560  17.2077  17.2701  17.3067
    17.3255  17.3843  17.5276  17.5563  17.5835  17.6067  17.8557  17.9042
    17.9072  18.0313  18.0466  18.2344  18.2596

          k =-0.2500 0.2258 0.0000 ( 29912 PWs)   bands (ev):

   -62.0704 -62.0457 -61.9454 -61.2901 -61.2633 -60.8889 -60.8634 -60.0709
   -38.4201 -38.2752 -38.2274 -38.2192 -38.2150 -38.1947 -38.0998 -38.0471
   -38.0221 -37.7337 -37.5586 -37.4929 -37.4399 -37.3439 -37.3219 -37.1719
   -37.1335 -37.1126 -37.0631 -37.0027 -36.8913 -36.3913 -36.3689 -36.2668
   -22.0488 -21.8135 -20.9562 -20.7797 -20.3157 -20.2870 -20.2620 -20.1887
   -19.9730 -19.9330 -19.8176 -19.7216 -19.6691 -19.5912 -19.3438 -19.2409
   -18.9365 -18.7427 -17.9683  -9.7220  -9.4851  -8.4094  -8.2441  -7.9147
    -7.7528  -7.5625  -7.5290  -7.4832  -7.4376  -7.3100  -7.2250  -7.1855
    -6.9996  -6.9373  -6.8852  -6.8581  -6.7667  -6.5611  -6.4321  -6.3326
    -6.2352  -6.1667  -6.0891  -5.8576  -5.7750  -5.6668  -5.5645  -5.5455
    -5.4798  -5.4161  -5.3632  -5.3058  -5.1992  -5.1612  -5.0947  -5.0666
    -4.9002  -4.8505  -4.7493  -4.6315  -4.5339  -4.3661  -4.2824  -4.2257
    -4.1815  -4.1076  -4.0310  -3.9646  -3.9243  -3.7068  -3.6198  -3.5565
    -3.5357  -3.4506  -3.4263  -3.2895  -0.3979  -0.1873  -0.0607  -0.0291
     0.0223   0.0592   0.2705   0.3959   0.4315   0.5249   0.5520   0.6524
     0.7624   0.7827   0.8309   0.9922   1.1323   1.1550   1.2215   1.2359
     1.2472   1.3255   1.3674   1.4377   1.5299   1.5476   1.7884   1.8201
     1.8930   2.0556   2.2058   2.2280   2.3596   2.4098   2.4877   2.5614
     2.7575   2.7800   2.8883   2.9451   2.9881   4.1694   4.3626   4.6722
     4.7503   4.9649   5.2240   5.8812   5.9507   6.0091   6.0775   6.3792
     6.5121   6.6487   6.7463   6.9571   7.0044   7.1028   7.2647   7.4346
     7.5810   7.6291   7.7176   7.8417   7.9588   7.9913   8.1539   8.3889
     8.4747   8.5425   8.6823   8.7702   9.0342   9.0930   9.1516   9.2538
     9.3245   9.4477   9.4907   9.5552   9.6137   9.8142   9.8622   9.9391
    10.0060  10.2438  10.3470  10.3798  10.5178  10.5284  10.6346  10.7131
    10.7880  10.9191  10.9434  11.0788  11.1120  11.1886  11.2765  11.3213
    11.4227  11.4391  11.4865  11.6092  11.6438  11.7671  11.8656  11.9212
    11.9750  12.0642  12.1201  12.1478  12.2941  12.3285  12.4082  12.4706
    12.5797  12.6094  12.6787  12.7826  12.8405  12.9030  12.9860  13.0273
    13.1604  13.2064  13.2545  13.3315  13.3646  13.3986  13.5165  13.5738
    13.6338  13.7086  13.8133  13.8768  13.9508  14.0650  14.1273  14.2046
    14.2990  14.4108  14.4837  14.5275  14.6353  14.7079  14.7821  14.8760
    14.9456  15.0561  15.1368  15.2167  15.2816  15.3643  15.3881  15.5092
    15.5684  15.6317  15.6946  15.7567  15.8367  15.8998  15.9443  16.0006
    16.1466  16.1815  16.2453  16.3334  16.4312  16.5174  16.6062  16.6739
    16.6813  16.7844  16.9196  16.9627  17.0117  17.0594  17.0861  17.1536
    17.2592  17.2751  17.3557  17.4612  17.5415  17.6055  17.6907  17.7410
    17.7811  17.8253  17.8701  18.0050  18.0311  18.1416  18.1720  18.2663
    18.3686  18.4706  18.5627  18.6140  18.6586

     the Fermi energy is    -3.3590 ev

!    total energy              =   -1563.08017302 Ry
     Harris-Foulkes estimate   =   -1563.08017302 Ry
     estimated scf accuracy    <          5.1E-09 Ry

     The total energy is the sum of the following terms:

     one-electron contribution =  -18144.00764409 Ry
     hartree contribution      =    9083.52299070 Ry
     xc contribution           =    -276.32287757 Ry
     ewald contribution        =    7770.15965683 Ry
     Hubbard energy            =       3.56797685 Ry
     smearing contrib. (-TS)   =      -0.00027573 Ry

     convergence has been achieved in  18 iterations

     Forces acting on atoms (Ry/au):


     negative rho (up, down):  0.107E+00 0.000E+00
     atom    1 type  1   force =    -0.00324573   -0.01263428    0.00030216
     atom    2 type  1   force =     0.00005997    0.01298697    0.00033810
     atom    3 type  2   force =     0.05501076   -0.00455473    0.00027749
     atom    4 type  2   force =     0.00275858    0.00877288   -0.00057762
     atom    5 type  1   force =    -0.00384818   -0.06934479   -0.00038081
     atom    6 type  1   force =    -0.00565710    0.06769820   -0.00062660
     atom    7 type  1   force =     0.00001273    0.00003475    0.00063043
     atom    8 type  1   force =     0.00012260   -0.00184747   -0.00058420
     atom    9 type  2   force =     0.01216159    0.00044666    0.00088772
     atom   10 type  2   force =     0.00000336   -0.00027609    0.00043823
     atom   11 type  1   force =    -0.02478981   -0.00177286    0.00019289
     atom   12 type  1   force =    -0.02506031    0.00203968    0.00021415
     atom   13 type  1   force =     0.00000556    0.00003185   -0.00009821
     atom   14 type  1   force =    -0.00424980   -0.01272732    0.00002313
     atom   15 type  1   force =     0.00010961    0.01187798   -0.00000968
     atom   16 type  2   force =    -0.05487953   -0.00501533    0.00027990
     atom   17 type  2   force =     0.00249348    0.00845478   -0.00019890
     atom   18 type  1   force =     0.00617993   -0.06916606   -0.00035216
     atom   19 type  1   force =     0.00557188    0.06806084   -0.00057572
     atom   20 type  1   force =    -0.00008612   -0.00064262    0.00069532
     atom   21 type  1   force =     0.00016515   -0.00166620   -0.00041993
     atom   22 type  2   force =    -0.01216798    0.00008485    0.00088572
     atom   23 type  2   force =     0.00000312   -0.00022758   -0.00039347
     atom   24 type  1   force =     0.02505974   -0.00179765    0.00017503
     atom   25 type  1   force =     0.02475286    0.00196095    0.00023342
     atom   26 type  1   force =     0.00003681   -0.00016537   -0.00010902
     atom   27 type  3   force =     0.00000438   -0.00032834   -0.00025087
     atom   28 type  3   force =    -0.00000915   -0.00031563   -0.00069191
     atom   29 type  3   force =    -0.00025596    0.00008988    0.00003720
     atom   30 type  3   force =    -0.00026239   -0.00005138   -0.00051939
     atom   31 type  1   force =    -0.00000002   -0.00000658    0.00017762

     Total force =     0.002536     Total SCF correction =     0.000170

     bfgs converged in  21 scf cycles and  20 bfgs steps
     (criteria: energy < 0.10E-03, force < 0.10E-02)

     End of BFGS Geometry Optimization

     Final energy   =   -1563.0801730154 Ry
Begin final coordinates

ATOMIC_POSITIONS (crystal)
O0       0.000000000   0.000000000   0.374238311    0   0   1
O0       0.000000000   0.500000000   0.395086723    0   0   1
Ti1      0.250000000   0.500000000   0.448357387    0   0   1
Ti1      0.000000000   0.000000000   0.448834441    0   0   1
O0       0.250000000   0.810000000   0.447491673    0   0   1
O0       0.250000000   0.190000000   0.448554337    0   0   1
O0       0.000000000   0.500000000   0.497379072    0   0   1
O0       0.000000000   0.000000000   0.525934006    0   0   1
Ti1      0.250000000   0.000000000   0.579047238    0   0   1
Ti1      0.000000000   0.500000000   0.570227978    0   0   1
O0       0.250000000   0.690000000   0.583614294    0   0   1
O0       0.250000000   0.310000000   0.583595071    0   0   1
O0       0.000000000   0.000000000   0.624513448    0   0   1
O0       0.500000000   0.000000000   0.374635076    0   0   1
O0       0.500000000   0.500000000   0.394481751    0   0   1
Ti1      0.750000000   0.500000000   0.448362631    0   0   1
Ti1      0.500000000   0.000000000   0.449528229    0   0   1
O0       0.750000000   0.810000000   0.447481172    0   0   1
O0       0.750000000   0.190000000   0.448543590    0   0   1
O0       0.500000000   0.500000000   0.491743458    0   0   1
O0       0.500000000   0.000000000   0.525705402    0   0   1
Ti1      0.750000000   0.000000000   0.579044177    0   0   1
Ti1      0.500000000   0.500000000   0.606865675    0   0   1
O0       0.750000000   0.690000000   0.583624266    0   0   1
O0       0.750000000   0.310000000   0.583579349    0   0   1
O0       0.500000000   0.000000000   0.623197882    0   0   1
H2      -0.000299679   0.626426930   0.374899049
H2       0.499796711   0.627760962   0.374805656
H2       0.150593883   0.035233861   0.360989469
H2       0.650075161   0.036516513   0.361362579
O0       0.500010890   0.499902151   0.670316612
End final coordinates



     init_run     :     93.76s CPU     95.82s WALL (       1 calls)
     electrons    :  75659.02s CPU  78398.81s WALL (      21 calls)
     update_pot   :    361.38s CPU    370.07s WALL (      20 calls)
     forces       :   2432.81s CPU   2487.53s WALL (      21 calls)

     Called by init_run:
     wfcinit      :     30.14s CPU     31.57s WALL (       1 calls)
     potinit      :      6.77s CPU      6.89s WALL (       1 calls)

     Called by electrons:
     c_bands      :  37637.05s CPU  39064.04s WALL (     482 calls)
     sum_band     :  15421.91s CPU  16006.44s WALL (     482 calls)
     v_of_rho     :    484.91s CPU    510.51s WALL (     503 calls)
     newd         :  22566.68s CPU  22764.37s WALL (     503 calls)
     mix_rho      :     93.76s CPU     96.61s WALL (     482 calls)

     Called by c_bands:
     init_us_2    :    106.95s CPU    107.73s WALL (    3084 calls)
     cegterg      :  36985.61s CPU  38158.12s WALL (    1446 calls)

     Called by *egterg:
     h_psi        :  22221.03s CPU  22979.40s WALL (    4185 calls)
     s_psi        :   2245.57s CPU   2274.61s WALL (    4311 calls)
     g_psi        :     49.01s CPU     49.09s WALL (    2736 calls)
     cdiaghg      :   3161.80s CPU   3171.86s WALL (    4122 calls)

     Called by h_psi:
     add_vuspsi   :   2186.85s CPU   2218.38s WALL (    4185 calls)
     vhpsi        :   2186.55s CPU   2216.30s WALL (    4185 calls)

     General routines
     calbec       :   5126.00s CPU   5203.47s WALL (   29091 calls)
     fft          :    709.62s CPU    925.92s WALL (    8215 calls)
     ffts         :      8.82s CPU      9.17s WALL (     985 calls)
     fftw         :  13473.27s CPU  14332.04s WALL ( 2343544 calls)
     interpolate  :     76.26s CPU     77.72s WALL (     985 calls)
     davcio       :      0.23s CPU     46.18s WALL (    3147 calls)

     Parallel routines
     fft_scatter  :   5318.21s CPU   6362.69s WALL ( 2352744 calls)
     Hubbard U routines
     new_ns       :    460.43s CPU    492.11s WALL (     482 calls)
     vhpsi        :   2186.55s CPU   2216.30s WALL (    4185 calls)
     force_hub    :    645.53s CPU    665.53s WALL (      21 calls)

     PWSCF        :    22h 5m CPU       22h52m WALL


   This run was terminated on:  13:26:58  29Apr2014            

=------------------------------------------------------------------------------=
   JOB DONE.
=------------------------------------------------------------------------------=
