
     Program PWSCF v.5.0.2 (svn rev. 9656) starts on  5May2014 at  1:22:27 

     This program is part of the open-source Quantum ESPRESSO suite
     for quantum simulation of materials; please cite
         "P. Giannozzi et al., J. Phys.:Condens. Matter 21 395502 (2009);
          URL http://www.quantum-espresso.org", 
     in publications or presentations arising from this work. More details at
     http://www.quantum-espresso.org/quote.php

     Parallel version (MPI), running on    16 processors
     K-points division:     npool     =       4
     R & G space division:  proc/nbgrp/npool/nimage =       4

     Current dimensions of program PWSCF are:
     Max number of different atomic species (ntypx) = 10
     Max number of k-points (npk) =  40000
     Max angular momentum in pseudopotentials (lmaxx) =  3
     Reading input from pwscf.in
Warning: card &CELL ignored
Warning: card / ignored

     Subspace diagonalization in iterative solution of the eigenvalue problem:
     a serial algorithm will be used


     Parallelization info
     --------------------
     sticks:   dense  smooth     PW     G-vecs:    dense   smooth      PW
     Min        1274     408    116               299662    54238    8133
     Max        1275     409    117               299663    54251    8135
     Sum        5097    1635    467              1198649   216969   32535



     bravais-lattice index     =            0
     lattice parameter (alat)  =      10.9604  a.u.
     unit-cell volume          =    6350.6732 (a.u.)^3
     number of atoms/cell      =           32
     number of atomic types    =            3
     number of electrons       =       231.00 (up: 123.00, down: 108.00)
     number of Kohn-Sham states=          334
     kinetic-energy cutoff     =      40.0000  Ry
     charge density cutoff     =     500.0000  Ry
     convergence threshold     =      1.0E-06
     mixing beta               =       0.7000
     number of iterations used =            8  plain     mixing
     Exchange-correlation      = SLA  PW   PBE  PBE ( 1 4 3 4 0)
     EXX-fraction              =        0.00
     nstep                     =           50


     celldm(1)=  10.960412  celldm(2)=   0.000000  celldm(3)=   0.000000
     celldm(4)=   0.000000  celldm(5)=   0.000000  celldm(6)=   0.000000

     crystal axes: (cart. coord. in units of alat)
               a(1) = (   1.000000   0.000000   0.000000 )  
               a(2) = (   0.000000   1.067975   0.000000 )  
               a(3) = (   0.000000   0.000000   4.516251 )  

     reciprocal axes: (cart. coord. in units 2 pi/alat)
               b(1) = (  1.000000  0.000000  0.000000 )  
               b(2) = (  0.000000  0.936351  0.000000 )  
               b(3) = (  0.000000  0.000000  0.221423 )  


     PseudoPot. # 1 for O  read from file:
     /home/camp/zhonxu/pseudo/o_pbe_v1.01.uspp.F.UPF
     MD5 check sum: 2bcb18d16ea4b960afae9ec6d52f22d2
     Pseudo is Ultrasoft + core correction, Zval =  6.0
     Generated by new atomic code, or converted to UPF format
     Using radial grid of  737 points,  5 beta functions with: 
                l(1) =   0
                l(2) =   0
                l(3) =   1
                l(4) =   1
                l(5) =   2
     Q(r) pseudized with  8 coefficients,  rinner =    0.900   0.900   0.900
                                                       0.900   0.900

     PseudoPot. # 2 for Cr read from file:
     /home/camp/zhonxu/pseudo/cr_pbe_v1.uspp.F.UPF
     MD5 check sum: 68b6f918d1762dccfb11451fe85b0e0e
     Pseudo is Ultrasoft + core correction, Zval = 14.0
     Generated by new atomic code, or converted to UPF format
     Using radial grid of  857 points,  6 beta functions with: 
                l(1) =   0
                l(2) =   0
                l(3) =   1
                l(4) =   1
                l(5) =   2
                l(6) =   2
     Q(r) pseudized with  6 coefficients,  rinner =    1.000   1.000   1.000
                                                       1.000   1.000

     PseudoPot. # 3 for H  read from file:
     /home/camp/zhonxu/pseudo/h_pbe_v1.uspp.F.UPF
     MD5 check sum: 3408e3ff4ec8b0a4e358431e7e038a48
     Pseudo is Ultrasoft, Zval =  1.0
     Generated by new atomic code, or converted to UPF format
     Using radial grid of  615 points,  2 beta functions with: 
                l(1) =   0
                l(2) =   0
     Q(r) pseudized with  8 coefficients,  rinner =    0.700

     atomic species   valence    mass     pseudopotential
        O0             6.00    15.99940     O ( 1.00)
        Cr1           14.00    51.99600     Cr( 1.00)
        H2             1.00     1.00794     H ( 1.00)

     Starting magnetic structure 
     atomic species   magnetization
        O0           0.000
        Cr1          0.600
        H2           0.000


     Simplified LDA+U calculation (l_max = 2) with parameters (eV):
     atomic species    L          U    alpha       J0     beta
        Cr1            2     3.5000   0.0000   0.0000   0.0000



     No symmetry found



   Cartesian axes

     site n.     atom                  positions (alat units)
         1           O0  tau(   1) = (   0.0000000   0.0000000   1.7072332  )
         2           O0  tau(   2) = (   0.0000000   0.5339875   1.8068165  )
         3           Cr1 tau(   3) = (   0.2500000   0.5339875   2.0386808  )
         4           Cr1 tau(   4) = (   0.0000000   0.0000000   2.0275709  )
         5           O0  tau(   5) = (   0.2500000   0.8543801   2.0319968  )
         6           O0  tau(   6) = (   0.2500000   0.2135950   2.0327194  )
         7           O0  tau(   7) = (   0.0000000   0.5339875   2.2464284  )
         8           O0  tau(   8) = (   0.0000000   0.0000000   2.3629476  )
         9           Cr1 tau(   9) = (   0.2500000   0.0000000   2.5576884  )
        10           Cr1 tau(  10) = (   0.0000000   0.5339875   2.5509140  )
        11           O0  tau(  11) = (   0.2500000   0.7475825   2.5906119  )
        12           O0  tau(  12) = (   0.2500000   0.3203925   2.5906119  )
        13           O0  tau(  13) = (   0.0000000   0.0000000   2.7911334  )
        14           O0  tau(  14) = (   0.5000000   0.0000000   1.7073235  )
        15           O0  tau(  15) = (   0.5000000   0.5339875   1.8079456  )
        16           Cr1 tau(  16) = (   0.7500000   0.5339875   2.0392228  )
        17           Cr1 tau(  17) = (   0.5000000   0.0000000   2.0278870  )
        18           O0  tau(  18) = (   0.7500000   0.8543801   2.0322226  )
        19           O0  tau(  19) = (   0.7500000   0.2135950   2.0329904  )
        20           O0  tau(  20) = (   0.5000000   0.5339875   2.2544673  )
        21           O0  tau(  21) = (   0.5000000   0.0000000   2.3630380  )
        22           Cr1 tau(  22) = (   0.7500000   0.0000000   2.6360002  )
        23           Cr1 tau(  23) = (   0.5000000   0.5339875   2.6018573  )
        24           O0  tau(  24) = (   0.7500000   0.7475825   2.5939087  )
        25           O0  tau(  25) = (   0.7500000   0.3203925   2.5936377  )
        26           O0  tau(  26) = (   0.5000000   0.0000000   2.7879720  )
        27           H2  tau(  27) = (  -0.0006000   0.6814001   1.7205110  )
        28           H2  tau(  28) = (   0.4996600   0.6814535   1.7215045  )
        29           H2  tau(  29) = (   0.1566500   0.0338121   1.6478896  )
        30           H2  tau(  30) = (   0.6567200   0.0335237   1.6481606  )
        31           O0  tau(  31) = (   0.5143900   0.5336458   2.9144271  )
        32           H2  tau(  32) = (   0.3645400   0.5319370   2.9931001  )

     number of k points=    20  Methfessel-Paxton smearing, width (Ry)=  0.0100
                       cart. coord. in units 2pi/alat
        k(    1) = (   0.0000000   0.0000000   0.0000000), wk =   0.0625000
        k(    2) = (   0.0000000   0.2340879   0.0000000), wk =   0.1250000
        k(    3) = (   0.0000000  -0.4681757   0.0000000), wk =   0.0625000
        k(    4) = (   0.2500000   0.0000000   0.0000000), wk =   0.1250000
        k(    5) = (   0.2500000   0.2340879   0.0000000), wk =   0.1250000
        k(    6) = (   0.2500000  -0.4681757   0.0000000), wk =   0.1250000
        k(    7) = (  -0.5000000   0.0000000   0.0000000), wk =   0.0625000
        k(    8) = (  -0.5000000   0.2340879   0.0000000), wk =   0.1250000
        k(    9) = (  -0.5000000  -0.4681757   0.0000000), wk =   0.0625000
        k(   10) = (  -0.2500000   0.2340879   0.0000000), wk =   0.1250000
        k(   11) = (   0.0000000   0.0000000   0.0000000), wk =   0.0625000
        k(   12) = (   0.0000000   0.2340879   0.0000000), wk =   0.1250000
        k(   13) = (   0.0000000  -0.4681757   0.0000000), wk =   0.0625000
        k(   14) = (   0.2500000   0.0000000   0.0000000), wk =   0.1250000
        k(   15) = (   0.2500000   0.2340879   0.0000000), wk =   0.1250000
        k(   16) = (   0.2500000  -0.4681757   0.0000000), wk =   0.1250000
        k(   17) = (  -0.5000000   0.0000000   0.0000000), wk =   0.0625000
        k(   18) = (  -0.5000000   0.2340879   0.0000000), wk =   0.1250000
        k(   19) = (  -0.5000000  -0.4681757   0.0000000), wk =   0.0625000
        k(   20) = (  -0.2500000   0.2340879   0.0000000), wk =   0.1250000

     Dense  grid:  1198649 G-vectors     FFT dimensions: (  80,  90, 360)

     Smooth grid:   216969 G-vectors     FFT dimensions: (  45,  48, 200)

     Largest allocated arrays     est. size (Mb)     dimensions
        Kohn-Sham Wavefunctions        35.08 Mb     (   6884,  334)
        Atomic wavefunctions           16.91 Mb     (   6884,  161)
        NL pseudopotentials            42.12 Mb     (   6884,  401)
        Each V/rho on FFT grid         19.78 Mb     ( 648000,   2)
        Each G-vector array             2.29 Mb     ( 299662)
        G-vector shells                 0.99 Mb     ( 129803)
     Largest temporary arrays     est. size (Mb)     dimensions
        Auxiliary wavefunctions       140.34 Mb     (   6884, 1336)
        Each subspace H/S matrix       27.24 Mb     (1336,1336)
        Each <psi_i|beta_j> matrix      2.04 Mb     (    401,  334)
        Arrays for rho mixing          79.10 Mb     ( 648000,   8)

     Check: negative/imaginary core charge=   -0.000012    0.000000

     Initial potential from superposition of free atoms
     Check: negative starting charge=(component1):   -0.001476
     Check: negative starting charge=(component2):   -0.000504

     starting charge  222.99983, renormalised to  231.00000

     negative rho (up, down):  0.153E-02 0.522E-03
     Number of +U iterations with fixed ns =  0
     Starting occupations:
 --- enter write_ns ---
 LDA+U parameters:
U( 2)     =  3.50000000
alpha( 2) =  0.00000000
atom    3   Tr[ns(na)] (up, down, total) =   5.00000  0.00000  5.00000
   spin  1
    eigenvalues: 
  1.000  1.000  1.000  1.000  1.000
    eigenvectors:
  1.000  0.000  0.000  0.000  0.000
  0.000  1.000  0.000  0.000  0.000
  0.000  0.000  1.000  0.000  0.000
  0.000  0.000  0.000  1.000  0.000
  0.000  0.000  0.000  0.000  1.000
    occupations:
  1.000  0.000  0.000  0.000  0.000
  0.000  1.000  0.000  0.000  0.000
  0.000  0.000  1.000  0.000  0.000
  0.000  0.000  0.000  1.000  0.000
  0.000  0.000  0.000  0.000  1.000
   spin  2
    eigenvalues: 
  0.000  0.000  0.000  0.000  0.000
    eigenvectors:
  1.000  0.000  0.000  0.000  0.000
  0.000  1.000  0.000  0.000  0.000
  0.000  0.000  1.000  0.000  0.000
  0.000  0.000  0.000  1.000  0.000
  0.000  0.000  0.000  0.000  1.000
    occupations:
  0.000  0.000  0.000  0.000  0.000
  0.000  0.000  0.000  0.000  0.000
  0.000  0.000  0.000  0.000  0.000
  0.000  0.000  0.000  0.000  0.000
  0.000  0.000  0.000  0.000  0.000
atomic mag. moment =     5.000000
atom    4   Tr[ns(na)] (up, down, total) =   5.00000  0.00000  5.00000
   spin  1
    eigenvalues: 
  1.000  1.000  1.000  1.000  1.000
    eigenvectors:
  1.000  0.000  0.000  0.000  0.000
  0.000  1.000  0.000  0.000  0.000
  0.000  0.000  1.000  0.000  0.000
  0.000  0.000  0.000  1.000  0.000
  0.000  0.000  0.000  0.000  1.000
    occupations:
  1.000  0.000  0.000  0.000  0.000
  0.000  1.000  0.000  0.000  0.000
  0.000  0.000  1.000  0.000  0.000
  0.000  0.000  0.000  1.000  0.000
  0.000  0.000  0.000  0.000  1.000
   spin  2
    eigenvalues: 
  0.000  0.000  0.000  0.000  0.000
    eigenvectors:
  1.000  0.000  0.000  0.000  0.000
  0.000  1.000  0.000  0.000  0.000
  0.000  0.000  1.000  0.000  0.000
  0.000  0.000  0.000  1.000  0.000
  0.000  0.000  0.000  0.000  1.000
    occupations:
  0.000  0.000  0.000  0.000  0.000
  0.000  0.000  0.000  0.000  0.000
  0.000  0.000  0.000  0.000  0.000
  0.000  0.000  0.000  0.000  0.000
  0.000  0.000  0.000  0.000  0.000
atomic mag. moment =     5.000000
atom    9   Tr[ns(na)] (up, down, total) =   5.00000  0.00000  5.00000
   spin  1
    eigenvalues: 
  1.000  1.000  1.000  1.000  1.000
    eigenvectors:
  1.000  0.000  0.000  0.000  0.000
  0.000  1.000  0.000  0.000  0.000
  0.000  0.000  1.000  0.000  0.000
  0.000  0.000  0.000  1.000  0.000
  0.000  0.000  0.000  0.000  1.000
    occupations:
  1.000  0.000  0.000  0.000  0.000
  0.000  1.000  0.000  0.000  0.000
  0.000  0.000  1.000  0.000  0.000
  0.000  0.000  0.000  1.000  0.000
  0.000  0.000  0.000  0.000  1.000
   spin  2
    eigenvalues: 
  0.000  0.000  0.000  0.000  0.000
    eigenvectors:
  1.000  0.000  0.000  0.000  0.000
  0.000  1.000  0.000  0.000  0.000
  0.000  0.000  1.000  0.000  0.000
  0.000  0.000  0.000  1.000  0.000
  0.000  0.000  0.000  0.000  1.000
    occupations:
  0.000  0.000  0.000  0.000  0.000
  0.000  0.000  0.000  0.000  0.000
  0.000  0.000  0.000  0.000  0.000
  0.000  0.000  0.000  0.000  0.000
  0.000  0.000  0.000  0.000  0.000
atomic mag. moment =     5.000000
atom   10   Tr[ns(na)] (up, down, total) =   5.00000  0.00000  5.00000
   spin  1
    eigenvalues: 
  1.000  1.000  1.000  1.000  1.000
    eigenvectors:
  1.000  0.000  0.000  0.000  0.000
  0.000  1.000  0.000  0.000  0.000
  0.000  0.000  1.000  0.000  0.000
  0.000  0.000  0.000  1.000  0.000
  0.000  0.000  0.000  0.000  1.000
    occupations:
  1.000  0.000  0.000  0.000  0.000
  0.000  1.000  0.000  0.000  0.000
  0.000  0.000  1.000  0.000  0.000
  0.000  0.000  0.000  1.000  0.000
  0.000  0.000  0.000  0.000  1.000
   spin  2
    eigenvalues: 
  0.000  0.000  0.000  0.000  0.000
    eigenvectors:
  1.000  0.000  0.000  0.000  0.000
  0.000  1.000  0.000  0.000  0.000
  0.000  0.000  1.000  0.000  0.000
  0.000  0.000  0.000  1.000  0.000
  0.000  0.000  0.000  0.000  1.000
    occupations:
  0.000  0.000  0.000  0.000  0.000
  0.000  0.000  0.000  0.000  0.000
  0.000  0.000  0.000  0.000  0.000
  0.000  0.000  0.000  0.000  0.000
  0.000  0.000  0.000  0.000  0.000
atomic mag. moment =     5.000000
atom   16   Tr[ns(na)] (up, down, total) =   5.00000  0.00000  5.00000
   spin  1
    eigenvalues: 
  1.000  1.000  1.000  1.000  1.000
    eigenvectors:
  1.000  0.000  0.000  0.000  0.000
  0.000  1.000  0.000  0.000  0.000
  0.000  0.000  1.000  0.000  0.000
  0.000  0.000  0.000  1.000  0.000
  0.000  0.000  0.000  0.000  1.000
    occupations:
  1.000  0.000  0.000  0.000  0.000
  0.000  1.000  0.000  0.000  0.000
  0.000  0.000  1.000  0.000  0.000
  0.000  0.000  0.000  1.000  0.000
  0.000  0.000  0.000  0.000  1.000
   spin  2
    eigenvalues: 
  0.000  0.000  0.000  0.000  0.000
    eigenvectors:
  1.000  0.000  0.000  0.000  0.000
  0.000  1.000  0.000  0.000  0.000
  0.000  0.000  1.000  0.000  0.000
  0.000  0.000  0.000  1.000  0.000
  0.000  0.000  0.000  0.000  1.000
    occupations:
  0.000  0.000  0.000  0.000  0.000
  0.000  0.000  0.000  0.000  0.000
  0.000  0.000  0.000  0.000  0.000
  0.000  0.000  0.000  0.000  0.000
  0.000  0.000  0.000  0.000  0.000
atomic mag. moment =     5.000000
atom   17   Tr[ns(na)] (up, down, total) =   5.00000  0.00000  5.00000
   spin  1
    eigenvalues: 
  1.000  1.000  1.000  1.000  1.000
    eigenvectors:
  1.000  0.000  0.000  0.000  0.000
  0.000  1.000  0.000  0.000  0.000
  0.000  0.000  1.000  0.000  0.000
  0.000  0.000  0.000  1.000  0.000
  0.000  0.000  0.000  0.000  1.000
    occupations:
  1.000  0.000  0.000  0.000  0.000
  0.000  1.000  0.000  0.000  0.000
  0.000  0.000  1.000  0.000  0.000
  0.000  0.000  0.000  1.000  0.000
  0.000  0.000  0.000  0.000  1.000
   spin  2
    eigenvalues: 
  0.000  0.000  0.000  0.000  0.000
    eigenvectors:
  1.000  0.000  0.000  0.000  0.000
  0.000  1.000  0.000  0.000  0.000
  0.000  0.000  1.000  0.000  0.000
  0.000  0.000  0.000  1.000  0.000
  0.000  0.000  0.000  0.000  1.000
    occupations:
  0.000  0.000  0.000  0.000  0.000
  0.000  0.000  0.000  0.000  0.000
  0.000  0.000  0.000  0.000  0.000
  0.000  0.000  0.000  0.000  0.000
  0.000  0.000  0.000  0.000  0.000
atomic mag. moment =     5.000000
atom   22   Tr[ns(na)] (up, down, total) =   5.00000  0.00000  5.00000
   spin  1
    eigenvalues: 
  1.000  1.000  1.000  1.000  1.000
    eigenvectors:
  1.000  0.000  0.000  0.000  0.000
  0.000  1.000  0.000  0.000  0.000
  0.000  0.000  1.000  0.000  0.000
  0.000  0.000  0.000  1.000  0.000
  0.000  0.000  0.000  0.000  1.000
    occupations:
  1.000  0.000  0.000  0.000  0.000
  0.000  1.000  0.000  0.000  0.000
  0.000  0.000  1.000  0.000  0.000
  0.000  0.000  0.000  1.000  0.000
  0.000  0.000  0.000  0.000  1.000
   spin  2
    eigenvalues: 
  0.000  0.000  0.000  0.000  0.000
    eigenvectors:
  1.000  0.000  0.000  0.000  0.000
  0.000  1.000  0.000  0.000  0.000
  0.000  0.000  1.000  0.000  0.000
  0.000  0.000  0.000  1.000  0.000
  0.000  0.000  0.000  0.000  1.000
    occupations:
  0.000  0.000  0.000  0.000  0.000
  0.000  0.000  0.000  0.000  0.000
  0.000  0.000  0.000  0.000  0.000
  0.000  0.000  0.000  0.000  0.000
  0.000  0.000  0.000  0.000  0.000
atomic mag. moment =     5.000000
atom   23   Tr[ns(na)] (up, down, total) =   5.00000  0.00000  5.00000
   spin  1
    eigenvalues: 
  1.000  1.000  1.000  1.000  1.000
    eigenvectors:
  1.000  0.000  0.000  0.000  0.000
  0.000  1.000  0.000  0.000  0.000
  0.000  0.000  1.000  0.000  0.000
  0.000  0.000  0.000  1.000  0.000
  0.000  0.000  0.000  0.000  1.000
    occupations:
  1.000  0.000  0.000  0.000  0.000
  0.000  1.000  0.000  0.000  0.000
  0.000  0.000  1.000  0.000  0.000
  0.000  0.000  0.000  1.000  0.000
  0.000  0.000  0.000  0.000  1.000
   spin  2
    eigenvalues: 
  0.000  0.000  0.000  0.000  0.000
    eigenvectors:
  1.000  0.000  0.000  0.000  0.000
  0.000  1.000  0.000  0.000  0.000
  0.000  0.000  1.000  0.000  0.000
  0.000  0.000  0.000  1.000  0.000
  0.000  0.000  0.000  0.000  1.000
    occupations:
  0.000  0.000  0.000  0.000  0.000
  0.000  0.000  0.000  0.000  0.000
  0.000  0.000  0.000  0.000  0.000
  0.000  0.000  0.000  0.000  0.000
  0.000  0.000  0.000  0.000  0.000
atomic mag. moment =     5.000000
N of occupied +U levels =  40.0000000
 --- exit write_ns ---
 Atomic wfc used for LDA+U Projector are NOT orthogonalized
     Starting wfc are  161 randomized atomic wfcs

     total cpu time spent up to now is      123.7 secs

     per-process dynamical memory:   420.3 Mb

     Self-consistent Calculation

     iteration #  1     ecut=    40.00 Ry     beta=0.70
     Davidson diagonalization with overlap
     ethr =  1.00E-02,  avg # of iterations =  5.3
 --- enter write_ns ---
 LDA+U parameters:
U( 2)     =  3.50000000
alpha( 2) =  0.00000000
atom    3   Tr[ns(na)] (up, down, total) =   3.57177  0.59444  4.16621
   spin  1
    eigenvalues: 
  0.582  0.587  0.717  0.832  0.853
    eigenvectors:
  0.323  0.010  0.003  0.075  0.589
  0.023  0.939  0.000  0.032  0.005
  0.016  0.002  0.953  0.012  0.017
  0.636  0.013  0.040  0.032  0.278
  0.001  0.036  0.004  0.848  0.111
    occupations:
  0.761  0.003  0.027 -0.124  0.006
  0.003  0.597 -0.004 -0.004  0.047
  0.027 -0.004  0.719  0.003 -0.005
 -0.124 -0.004  0.003  0.671 -0.004
  0.006  0.047 -0.005 -0.004  0.825
   spin  2
    eigenvalues: 
  0.059  0.068  0.068  0.189  0.210
    eigenvectors:
  0.647  0.162  0.006  0.001  0.185
  0.000  0.000  0.001  0.998  0.001
  0.201  0.768  0.031  0.000  0.000
  0.152  0.033  0.001  0.001  0.813
  0.000  0.038  0.961  0.001  0.000
    occupations:
  0.089 -0.001 -0.002  0.058 -0.000
 -0.001  0.189 -0.000  0.001  0.004
 -0.002 -0.000  0.066  0.003 -0.000
  0.058  0.001  0.003  0.182  0.000
 -0.000  0.004 -0.000  0.000  0.069
atomic mag. moment =     2.977331
atom    4   Tr[ns(na)] (up, down, total) =   3.52848  0.61963  4.14811
   spin  1
    eigenvalues: 
  0.538  0.576  0.754  0.776  0.886
    eigenvectors:
  0.000  0.845  0.153  0.000  0.002
  0.000  0.146  0.797  0.057  0.000
  0.000  0.006  0.050  0.943  0.000
  0.000  0.002  0.000  0.000  0.998
  1.000  0.000  0.000  0.000  0.000
    occupations:
  0.604  0.063  0.013 -0.014  0.001
  0.063  0.729 -0.011  0.004  0.002
  0.013 -0.011  0.774  0.001 -0.001
 -0.014  0.004  0.001  0.885  0.001
  0.001  0.002 -0.001  0.001  0.538
   spin  2
    eigenvalues: 
  0.060  0.071  0.081  0.191  0.216
    eigenvectors:
  0.009  0.001  0.000  0.000  0.989
  0.005  0.861  0.133  0.000  0.002
  0.001  0.132  0.867  0.000  0.000
  0.985  0.006  0.000  0.000  0.009
  0.000  0.000  0.000  1.000  0.000
    occupations:
  0.214  0.006  0.002 -0.015  0.000
  0.006  0.073 -0.003  0.000 -0.000
  0.002 -0.003  0.080  0.000  0.000
 -0.015  0.000  0.000  0.062  0.000
  0.000 -0.000  0.000  0.000  0.191
atomic mag. moment =     2.908852
atom    9   Tr[ns(na)] (up, down, total) =   4.16098  0.64745  4.80843
   spin  1
    eigenvalues: 
  0.626  0.634  0.948  0.976  0.977
    eigenvectors:
  0.081  0.105  0.000  0.772  0.042
  0.588  0.412  0.000  0.000  0.000
  0.000  0.000  0.144  0.045  0.810
  0.331  0.483  0.000  0.177  0.009
  0.000  0.000  0.856  0.006  0.139
    occupations:
  0.912 -0.005 -0.000 -0.134 -0.000
 -0.005  0.629 -0.000 -0.002 -0.001
 -0.000 -0.000  0.973 -0.000  0.010
 -0.134 -0.002 -0.000  0.695 -0.000
 -0.000 -0.001  0.010 -0.000  0.952
   spin  2
    eigenvalues: 
  0.073  0.074  0.081  0.208  0.211
    eigenvectors:
  0.000  0.856  0.000  0.008  0.136
  0.000  0.000  0.000  0.949  0.051
  1.000  0.000  0.000  0.000  0.000
  0.000  0.144  0.000  0.044  0.813
  0.000  0.000  1.000  0.000  0.000
    occupations:
  0.094 -0.000 -0.000  0.048  0.000
 -0.000  0.208  0.000 -0.001  0.000
 -0.000  0.000  0.073  0.000  0.000
  0.048 -0.001  0.000  0.191 -0.000
  0.000  0.000  0.000 -0.000  0.081
atomic mag. moment =     3.513531
atom   10   Tr[ns(na)] (up, down, total) =   4.35598  0.55058  4.90656
   spin  1
    eigenvalues: 
  0.664  0.736  0.982  0.986  0.987
    eigenvectors:
  0.001  0.995  0.001  0.003  0.000
  0.000  0.000  0.554  0.393  0.053
  0.002  0.000  0.002  0.089  0.907
  0.000  0.004  0.443  0.515  0.038
  0.998  0.001  0.000  0.000  0.002
    occupations:
  0.737  0.004 -0.001  0.015  0.002
  0.004  0.984  0.000  0.002  0.000
 -0.001  0.000  0.987  0.000 -0.013
  0.015  0.002  0.000  0.984 -0.000
  0.002  0.000 -0.013 -0.000  0.665
   spin  2
    eigenvalues: 
  0.059  0.068  0.075  0.160  0.188
    eigenvectors:
  0.016  0.000  0.000  0.984  0.000
  0.002  0.000  0.998  0.000  0.000
  0.000  1.000  0.000  0.000  0.000
  0.983  0.000  0.002  0.016  0.000
  0.000  0.000  0.000  0.000  1.000
    occupations:
  0.159 -0.000 -0.000 -0.013 -0.000
 -0.000  0.075 -0.000  0.001 -0.000
 -0.000 -0.000  0.068  0.000  0.001
 -0.013  0.001  0.000  0.061  0.000
 -0.000 -0.000  0.001  0.000  0.188
atomic mag. moment =     3.805409
atom   16   Tr[ns(na)] (up, down, total) =   3.55915  0.59437  4.15351
   spin  1
    eigenvalues: 
  0.581  0.587  0.716  0.822  0.854
    eigenvectors:
  0.263  0.068  0.005  0.151  0.513
  0.194  0.766  0.000  0.030  0.010
  0.014  0.003  0.946  0.001  0.036
  0.521  0.130  0.044  0.075  0.229
  0.008  0.032  0.005  0.743  0.212
    occupations:
  0.758 -0.002  0.030 -0.121 -0.010
 -0.002  0.595 -0.003  0.003  0.048
  0.030 -0.003  0.719  0.001 -0.010
 -0.121  0.003  0.001  0.668  0.005
 -0.010  0.048 -0.010  0.005  0.819
   spin  2
    eigenvalues: 
  0.059  0.068  0.069  0.189  0.210
    eigenvectors:
  0.665  0.145  0.004  0.001  0.185
  0.000  0.000  0.001  0.998  0.001
  0.179  0.798  0.023  0.000  0.000
  0.156  0.029  0.001  0.001  0.813
  0.000  0.028  0.971  0.001  0.000
    occupations:
  0.089  0.001 -0.002  0.058  0.000
  0.001  0.189  0.000 -0.001  0.004
 -0.002  0.000  0.067  0.003  0.000
  0.058 -0.001  0.003  0.182 -0.000
  0.000  0.004  0.000 -0.000  0.069
atomic mag. moment =     2.964777
atom   17   Tr[ns(na)] (up, down, total) =   3.49962  0.61817  4.11780
   spin  1
    eigenvalues: 
  0.535  0.572  0.746  0.766  0.881
    eigenvectors:
  0.000  0.853  0.140  0.001  0.005
  0.000  0.136  0.760  0.101  0.003
  0.000  0.008  0.094  0.897  0.000
  0.000  0.002  0.005  0.001  0.992
  1.000  0.000  0.000  0.000  0.000
    occupations:
  0.598  0.060  0.014 -0.017  0.001
  0.060  0.725 -0.012 -0.004  0.002
  0.014 -0.012  0.762  0.002  0.001
 -0.017 -0.004  0.002  0.880  0.001
  0.001  0.002  0.001  0.001  0.535
   spin  2
    eigenvalues: 
  0.060  0.071  0.080  0.191  0.216
    eigenvectors:
  0.009  0.001  0.000  0.000  0.989
  0.008  0.857  0.133  0.000  0.002
  0.001  0.132  0.867  0.000  0.000
  0.981  0.010  0.000  0.000  0.009
  0.000  0.000  0.000  1.000  0.000
    occupations:
  0.214  0.006  0.002 -0.015  0.000
  0.006  0.073 -0.003  0.000 -0.000
  0.002 -0.003  0.079  0.000  0.000
 -0.015  0.000  0.000  0.061  0.000
  0.000 -0.000  0.000  0.000  0.191
atomic mag. moment =     2.881451
atom   22   Tr[ns(na)] (up, down, total) =   4.03032  0.73757  4.76788
   spin  1
    eigenvalues: 
  0.614  0.623  0.882  0.933  0.978
    eigenvectors:
  0.006  0.023  0.001  0.968  0.001
  0.894  0.106  0.000  0.001  0.000
  0.000  0.000  0.007  0.001  0.992
  0.100  0.871  0.000  0.029  0.000
  0.000  0.000  0.992  0.001  0.007
    occupations:
  0.923  0.009 -0.001 -0.052  0.002
  0.009  0.615 -0.001  0.001 -0.001
 -0.001 -0.001  0.977  0.000 -0.008
 -0.052  0.001  0.000  0.632 -0.001
  0.002 -0.001 -0.008 -0.001  0.883
   spin  2
    eigenvalues: 
  0.077  0.106  0.108  0.218  0.229
    eigenvectors:
  0.000  0.984  0.000  0.000  0.016
  0.000  0.000  0.000  0.988  0.012
  0.999  0.000  0.001  0.000  0.000
  0.000  0.016  0.000  0.012  0.972
  0.001  0.000  0.999  0.000  0.000
    occupations:
  0.108 -0.001 -0.000  0.015  0.000
 -0.001  0.218 -0.000  0.001  0.000
 -0.000 -0.000  0.077 -0.000  0.001
  0.015  0.001 -0.000  0.227  0.000
  0.000  0.000  0.001  0.000  0.108
atomic mag. moment =     3.292749
atom   23   Tr[ns(na)] (up, down, total) =   4.17110  0.60899  4.78008
   spin  1
    eigenvalues: 
  0.596  0.641  0.973  0.976  0.986
    eigenvectors:
  0.000  0.998  0.000  0.001  0.001
  0.000  0.001  0.001  0.004  0.994
  0.003  0.000  0.725  0.272  0.000
  0.000  0.001  0.272  0.722  0.005
  0.997  0.000  0.002  0.001  0.000
    occupations:
  0.642 -0.011 -0.003  0.012  0.000
 -0.011  0.986 -0.000 -0.000  0.000
 -0.003 -0.000  0.972 -0.001  0.021
  0.012 -0.000 -0.001  0.974  0.000
  0.000  0.000  0.021  0.000  0.597
   spin  2
    eigenvalues: 
  0.060  0.071  0.076  0.192  0.211
    eigenvectors:
  0.009  0.000  0.000  0.000  0.990
  0.006  0.993  0.001  0.000  0.000
  0.000  0.001  0.999  0.000  0.000
  0.984  0.006  0.000  0.000  0.010
  0.000  0.000  0.000  1.000  0.000
    occupations:
  0.209  0.001  0.000 -0.015 -0.000
  0.001  0.071 -0.000 -0.001 -0.000
  0.000 -0.000  0.076 -0.000 -0.002
 -0.015 -0.001 -0.000  0.061  0.000
 -0.000 -0.000 -0.002  0.000  0.192
atomic mag. moment =     3.562108
N of occupied +U levels =  35.8485887
 --- exit write_ns ---

     negative rho (up, down):  0.289E-02 0.118E-02

     total cpu time spent up to now is      580.1 secs

     total energy              =   -2005.54192877 Ry
     Harris-Foulkes estimate   =   -2021.69257340 Ry
     estimated scf accuracy    <      28.42650230 Ry

     total magnetization       =    15.00 Bohr mag/cell
     absolute magnetization    =    36.00 Bohr mag/cell

     iteration #  2     ecut=    40.00 Ry     beta=0.70
     Davidson diagonalization with overlap
     ethr =  1.00E-02,  avg # of iterations =  6.9

     negative rho (up, down):  0.127E-01 0.704E-02

     total cpu time spent up to now is     1037.6 secs

     total energy              =   -1855.41527531 Ry
     Harris-Foulkes estimate   =   -2277.56737966 Ry
     estimated scf accuracy    <    5321.71824018 Ry

     total magnetization       =    15.00 Bohr mag/cell
     absolute magnetization    =    15.90 Bohr mag/cell

     iteration #  3     ecut=    40.00 Ry     beta=0.70
     Davidson diagonalization with overlap
     ethr =  1.00E-02,  avg # of iterations =  6.0

     negative rho (up, down):  0.561E-02 0.352E-02

     total cpu time spent up to now is     1521.5 secs

     total energy              =   -2022.43636025 Ry
     Harris-Foulkes estimate   =   -2027.09769330 Ry
     estimated scf accuracy    <      13.49349483 Ry

     total magnetization       =    15.00 Bohr mag/cell
     absolute magnetization    =    33.38 Bohr mag/cell

     iteration #  4     ecut=    40.00 Ry     beta=0.70
     Davidson diagonalization with overlap
     ethr =  5.84E-03,  avg # of iterations =  2.4

     negative rho (up, down):  0.828E-02 0.258E-02

     total cpu time spent up to now is     1769.1 secs

     total energy              =   -2023.74296490 Ry
     Harris-Foulkes estimate   =   -2026.11594181 Ry
     estimated scf accuracy    <       9.86462002 Ry

     total magnetization       =    15.00 Bohr mag/cell
     absolute magnetization    =    26.88 Bohr mag/cell

     iteration #  5     ecut=    40.00 Ry     beta=0.70
     Davidson diagonalization with overlap
     ethr =  4.27E-03,  avg # of iterations =  4.0

     negative rho (up, down):  0.617E-02 0.178E-02

     total cpu time spent up to now is     2030.0 secs

     total energy              =   -2023.93424028 Ry
     Harris-Foulkes estimate   =   -2025.90672738 Ry
     estimated scf accuracy    <      16.84101335 Ry

     total magnetization       =    15.00 Bohr mag/cell
     absolute magnetization    =    26.65 Bohr mag/cell

     iteration #  6     ecut=    40.00 Ry     beta=0.70
     Davidson diagonalization with overlap
     ethr =  4.27E-03,  avg # of iterations =  1.2

     negative rho (up, down):  0.681E-02 0.278E-02

     total cpu time spent up to now is     2260.9 secs

     total energy              =   -2023.54805952 Ry
     Harris-Foulkes estimate   =   -2026.42917414 Ry
     estimated scf accuracy    <      19.44641187 Ry

     total magnetization       =    15.00 Bohr mag/cell
     absolute magnetization    =    26.87 Bohr mag/cell

     iteration #  7     ecut=    40.00 Ry     beta=0.70
     Davidson diagonalization with overlap
     ethr =  4.27E-03,  avg # of iterations =  1.1

     negative rho (up, down):  0.484E-02 0.152E-02

     total cpu time spent up to now is     2489.7 secs

     total energy              =   -2025.00195457 Ry
     Harris-Foulkes estimate   =   -2025.46928726 Ry
     estimated scf accuracy    <       2.34791212 Ry

     total magnetization       =    15.00 Bohr mag/cell
     absolute magnetization    =    25.65 Bohr mag/cell

     iteration #  8     ecut=    40.00 Ry     beta=0.70
     Davidson diagonalization with overlap
     ethr =  1.02E-03,  avg # of iterations =  3.5

     negative rho (up, down):  0.622E-02 0.144E-02

     total cpu time spent up to now is     2730.9 secs

     total energy              =   -2025.16462075 Ry
     Harris-Foulkes estimate   =   -2025.39013716 Ry
     estimated scf accuracy    <       1.57365282 Ry

     total magnetization       =    15.00 Bohr mag/cell
     absolute magnetization    =    25.65 Bohr mag/cell

     iteration #  9     ecut=    40.00 Ry     beta=0.70
     Davidson diagonalization with overlap
     ethr =  6.81E-04,  avg # of iterations =  4.4

     negative rho (up, down):  0.577E-02 0.139E-02

     total cpu time spent up to now is     2990.8 secs

     total energy              =   -2025.22635944 Ry
     Harris-Foulkes estimate   =   -2025.31827425 Ry
     estimated scf accuracy    <       0.49354759 Ry

     total magnetization       =    15.00 Bohr mag/cell
     absolute magnetization    =    24.95 Bohr mag/cell

     iteration # 10     ecut=    40.00 Ry     beta=0.70
     Davidson diagonalization with overlap
     ethr =  2.14E-04,  avg # of iterations =  4.0

     negative rho (up, down):  0.548E-02 0.140E-02

     total cpu time spent up to now is     3260.8 secs

     total energy              =   -2025.25494351 Ry
     Harris-Foulkes estimate   =   -2025.29245915 Ry
     estimated scf accuracy    <       0.25436210 Ry

     total magnetization       =    15.00 Bohr mag/cell
     absolute magnetization    =    25.13 Bohr mag/cell

     iteration # 11     ecut=    40.00 Ry     beta=0.70
     Davidson diagonalization with overlap
     ethr =  1.10E-04,  avg # of iterations =  5.3

     negative rho (up, down):  0.382E-02 0.135E-02

     total cpu time spent up to now is     3529.3 secs

     total energy              =   -2025.25459173 Ry
     Harris-Foulkes estimate   =   -2025.28220129 Ry
     estimated scf accuracy    <       0.12575087 Ry

     total magnetization       =    15.00 Bohr mag/cell
     absolute magnetization    =    24.87 Bohr mag/cell

     iteration # 12     ecut=    40.00 Ry     beta=0.70
     Davidson diagonalization with overlap
     ethr =  5.44E-05,  avg # of iterations =  5.7

     negative rho (up, down):  0.511E-02 0.138E-02

     total cpu time spent up to now is     3818.3 secs

     total energy              =   -2025.23212542 Ry
     Harris-Foulkes estimate   =   -2025.32325666 Ry
     estimated scf accuracy    <       0.84352872 Ry

     total magnetization       =    15.00 Bohr mag/cell
     absolute magnetization    =    23.75 Bohr mag/cell

     iteration # 13     ecut=    40.00 Ry     beta=0.70
     Davidson diagonalization with overlap
     ethr =  5.44E-05,  avg # of iterations =  4.2

     negative rho (up, down):  0.426E-02 0.141E-02

     total cpu time spent up to now is     4072.0 secs

     total energy              =   -2025.27092569 Ry
     Harris-Foulkes estimate   =   -2025.28659567 Ry
     estimated scf accuracy    <       0.07171816 Ry

     total magnetization       =    15.00 Bohr mag/cell
     absolute magnetization    =    24.20 Bohr mag/cell

     iteration # 14     ecut=    40.00 Ry     beta=0.70
     Davidson diagonalization with overlap
     ethr =  3.10E-05,  avg # of iterations =  1.0

     negative rho (up, down):  0.530E-02 0.183E-02

     total cpu time spent up to now is     4303.6 secs

     total energy              =   -2025.26605964 Ry
     Harris-Foulkes estimate   =   -2025.28779136 Ry
     estimated scf accuracy    <       0.08728943 Ry

     total magnetization       =    15.00 Bohr mag/cell
     absolute magnetization    =    24.09 Bohr mag/cell

     iteration # 15     ecut=    40.00 Ry     beta=0.70
     Davidson diagonalization with overlap
     ethr =  3.10E-05,  avg # of iterations =  5.0

     negative rho (up, down):  0.619E-02 0.152E-02

     total cpu time spent up to now is     4576.1 secs

     total energy              =   -2025.22085797 Ry
     Harris-Foulkes estimate   =   -2025.33282169 Ry
     estimated scf accuracy    <       1.22142202 Ry

     total magnetization       =    15.00 Bohr mag/cell
     absolute magnetization    =    23.95 Bohr mag/cell

     iteration # 16     ecut=    40.00 Ry     beta=0.70
     Davidson diagonalization with overlap
     ethr =  3.10E-05,  avg # of iterations =  5.0

     negative rho (up, down):  0.517E-02 0.168E-02

     total cpu time spent up to now is     4849.8 secs

     total energy              =   -2025.27542801 Ry
     Harris-Foulkes estimate   =   -2025.28819254 Ry
     estimated scf accuracy    <       0.07718318 Ry

     total magnetization       =    15.00 Bohr mag/cell
     absolute magnetization    =    23.98 Bohr mag/cell

     iteration # 17     ecut=    40.00 Ry     beta=0.70
     Davidson diagonalization with overlap
     ethr =  3.10E-05,  avg # of iterations =  3.1

     negative rho (up, down):  0.509E-02 0.166E-02

     total cpu time spent up to now is     5086.6 secs

     total energy              =   -2025.27984209 Ry
     Harris-Foulkes estimate   =   -2025.28416583 Ry
     estimated scf accuracy    <       0.02730558 Ry

     total magnetization       =    15.00 Bohr mag/cell
     absolute magnetization    =    23.78 Bohr mag/cell

     iteration # 18     ecut=    40.00 Ry     beta=0.70
     Davidson diagonalization with overlap
     ethr =  1.18E-05,  avg # of iterations =  1.7

     negative rho (up, down):  0.494E-02 0.163E-02

     total cpu time spent up to now is     5318.7 secs

     total energy              =   -2025.28134011 Ry
     Harris-Foulkes estimate   =   -2025.28202449 Ry
     estimated scf accuracy    <       0.00305277 Ry

     total magnetization       =    15.00 Bohr mag/cell
     absolute magnetization    =    23.88 Bohr mag/cell

     iteration # 19     ecut=    40.00 Ry     beta=0.70
     Davidson diagonalization with overlap
     ethr =  1.32E-06,  avg # of iterations =  6.0

     negative rho (up, down):  0.516E-02 0.177E-02

     total cpu time spent up to now is     5601.8 secs

     total energy              =   -2025.28072148 Ry
     Harris-Foulkes estimate   =   -2025.28334618 Ry
     estimated scf accuracy    <       0.01840626 Ry

     total magnetization       =    15.00 Bohr mag/cell
     absolute magnetization    =    23.88 Bohr mag/cell

     iteration # 20     ecut=    40.00 Ry     beta=0.70
     Davidson diagonalization with overlap
     ethr =  1.32E-06,  avg # of iterations =  3.8

     negative rho (up, down):  0.513E-02 0.175E-02

     total cpu time spent up to now is     5862.1 secs

     total energy              =   -2025.28199449 Ry
     Harris-Foulkes estimate   =   -2025.28237298 Ry
     estimated scf accuracy    <       0.00263557 Ry

     total magnetization       =    15.00 Bohr mag/cell
     absolute magnetization    =    23.79 Bohr mag/cell

     iteration # 21     ecut=    40.00 Ry     beta=0.70
     Davidson diagonalization with overlap
     ethr =  1.14E-06,  avg # of iterations =  1.0

     negative rho (up, down):  0.516E-02 0.177E-02

     total cpu time spent up to now is     6095.2 secs

     total energy              =   -2025.28219480 Ry
     Harris-Foulkes estimate   =   -2025.28236979 Ry
     estimated scf accuracy    <       0.00175370 Ry

     total magnetization       =    15.00 Bohr mag/cell
     absolute magnetization    =    23.77 Bohr mag/cell

     iteration # 22     ecut=    40.00 Ry     beta=0.70
     Davidson diagonalization with overlap
     ethr =  7.59E-07,  avg # of iterations =  1.0

     negative rho (up, down):  0.519E-02 0.178E-02

     total cpu time spent up to now is     6325.6 secs

     total energy              =   -2025.28223492 Ry
     Harris-Foulkes estimate   =   -2025.28246753 Ry
     estimated scf accuracy    <       0.00201167 Ry

     total magnetization       =    15.00 Bohr mag/cell
     absolute magnetization    =    23.76 Bohr mag/cell

     iteration # 23     ecut=    40.00 Ry     beta=0.70
     Davidson diagonalization with overlap
     ethr =  7.59E-07,  avg # of iterations =  1.0

     negative rho (up, down):  0.520E-02 0.181E-02

     total cpu time spent up to now is     6557.8 secs

     total energy              =   -2025.28245233 Ry
     Harris-Foulkes estimate   =   -2025.28244396 Ry
     estimated scf accuracy    <       0.00092087 Ry

     total magnetization       =    15.00 Bohr mag/cell
     absolute magnetization    =    23.73 Bohr mag/cell

     iteration # 24     ecut=    40.00 Ry     beta=0.70
     Davidson diagonalization with overlap
     ethr =  3.99E-07,  avg # of iterations =  1.0

     negative rho (up, down):  0.524E-02 0.183E-02

     total cpu time spent up to now is     6778.5 secs

     total energy              =   -2025.28254669 Ry
     Harris-Foulkes estimate   =   -2025.28260556 Ry
     estimated scf accuracy    <       0.00085412 Ry

     total magnetization       =    15.00 Bohr mag/cell
     absolute magnetization    =    23.67 Bohr mag/cell

     iteration # 25     ecut=    40.00 Ry     beta=0.70
     Davidson diagonalization with overlap
     ethr =  3.70E-07,  avg # of iterations =  1.0

     negative rho (up, down):  0.526E-02 0.184E-02

     total cpu time spent up to now is     6998.7 secs

     total energy              =   -2025.28263824 Ry
     Harris-Foulkes estimate   =   -2025.28267555 Ry
     estimated scf accuracy    <       0.00030909 Ry

     total magnetization       =    15.00 Bohr mag/cell
     absolute magnetization    =    23.61 Bohr mag/cell

     iteration # 26     ecut=    40.00 Ry     beta=0.70
     Davidson diagonalization with overlap
     ethr =  1.34E-07,  avg # of iterations =  1.0

     negative rho (up, down):  0.527E-02 0.183E-02

     total cpu time spent up to now is     7217.6 secs

     total energy              =   -2025.28265671 Ry
     Harris-Foulkes estimate   =   -2025.28271353 Ry
     estimated scf accuracy    <       0.00018432 Ry

     total magnetization       =    15.00 Bohr mag/cell
     absolute magnetization    =    23.56 Bohr mag/cell

     iteration # 27     ecut=    40.00 Ry     beta=0.70
     Davidson diagonalization with overlap
     ethr =  7.98E-08,  avg # of iterations =  2.0

     negative rho (up, down):  0.524E-02 0.182E-02

     total cpu time spent up to now is     7443.1 secs

     total energy              =   -2025.28260690 Ry
     Harris-Foulkes estimate   =   -2025.28280202 Ry
     estimated scf accuracy    <       0.00096075 Ry

     total magnetization       =    15.00 Bohr mag/cell
     absolute magnetization    =    23.52 Bohr mag/cell

     iteration # 28     ecut=    40.00 Ry     beta=0.70
     Davidson diagonalization with overlap
     ethr =  7.98E-08,  avg # of iterations =  2.0

     negative rho (up, down):  0.524E-02 0.182E-02

     total cpu time spent up to now is     7683.0 secs

     total energy              =   -2025.28266002 Ry
     Harris-Foulkes estimate   =   -2025.28277362 Ry
     estimated scf accuracy    <       0.00105360 Ry

     total magnetization       =    15.00 Bohr mag/cell
     absolute magnetization    =    23.53 Bohr mag/cell

     iteration # 29     ecut=    40.00 Ry     beta=0.70
     Davidson diagonalization with overlap
     ethr =  7.98E-08,  avg # of iterations =  1.0

     negative rho (up, down):  0.524E-02 0.182E-02

     total cpu time spent up to now is     7917.2 secs

     total energy              =   -2025.28271629 Ry
     Harris-Foulkes estimate   =   -2025.28271985 Ry
     estimated scf accuracy    <       0.00004581 Ry

     total magnetization       =    15.00 Bohr mag/cell
     absolute magnetization    =    23.53 Bohr mag/cell

     iteration # 30     ecut=    40.00 Ry     beta=0.70
     Davidson diagonalization with overlap
     ethr =  1.98E-08,  avg # of iterations =  1.0

     negative rho (up, down):  0.523E-02 0.181E-02

     total cpu time spent up to now is     8157.8 secs

     total energy              =   -2025.28271827 Ry
     Harris-Foulkes estimate   =   -2025.28272674 Ry
     estimated scf accuracy    <       0.00004530 Ry

     total magnetization       =    15.00 Bohr mag/cell
     absolute magnetization    =    23.51 Bohr mag/cell

     iteration # 31     ecut=    40.00 Ry     beta=0.70
     Davidson diagonalization with overlap
     ethr =  1.96E-08,  avg # of iterations =  1.0

     negative rho (up, down):  0.523E-02 0.181E-02

     total cpu time spent up to now is     8386.1 secs

     total energy              =   -2025.28271636 Ry
     Harris-Foulkes estimate   =   -2025.28273394 Ry
     estimated scf accuracy    <       0.00010326 Ry

     total magnetization       =    15.00 Bohr mag/cell
     absolute magnetization    =    23.51 Bohr mag/cell

     iteration # 32     ecut=    40.00 Ry     beta=0.70
     Davidson diagonalization with overlap
     ethr =  1.96E-08,  avg # of iterations =  1.1

     negative rho (up, down):  0.523E-02 0.181E-02

     total cpu time spent up to now is     8601.3 secs

     total energy              =   -2025.28272283 Ry
     Harris-Foulkes estimate   =   -2025.28273127 Ry
     estimated scf accuracy    <       0.00006128 Ry

     total magnetization       =    15.00 Bohr mag/cell
     absolute magnetization    =    23.50 Bohr mag/cell

     iteration # 33     ecut=    40.00 Ry     beta=0.70
     Davidson diagonalization with overlap
     ethr =  1.96E-08,  avg # of iterations =  1.0

     negative rho (up, down):  0.523E-02 0.181E-02

     total cpu time spent up to now is     8820.1 secs

     total energy              =   -2025.28272493 Ry
     Harris-Foulkes estimate   =   -2025.28272939 Ry
     estimated scf accuracy    <       0.00003170 Ry

     total magnetization       =    15.00 Bohr mag/cell
     absolute magnetization    =    23.50 Bohr mag/cell

     iteration # 34     ecut=    40.00 Ry     beta=0.70
     Davidson diagonalization with overlap
     ethr =  1.37E-08,  avg # of iterations =  1.0

     negative rho (up, down):  0.523E-02 0.181E-02

     total cpu time spent up to now is     9038.3 secs

     total energy              =   -2025.28272300 Ry
     Harris-Foulkes estimate   =   -2025.28273293 Ry
     estimated scf accuracy    <       0.00006086 Ry

     total magnetization       =    15.00 Bohr mag/cell
     absolute magnetization    =    23.50 Bohr mag/cell

     iteration # 35     ecut=    40.00 Ry     beta=0.70
     Davidson diagonalization with overlap
     ethr =  1.37E-08,  avg # of iterations =  1.0

     negative rho (up, down):  0.523E-02 0.181E-02

     total cpu time spent up to now is     9257.2 secs

     total energy              =   -2025.28272739 Ry
     Harris-Foulkes estimate   =   -2025.28272901 Ry
     estimated scf accuracy    <       0.00000815 Ry

     total magnetization       =    15.00 Bohr mag/cell
     absolute magnetization    =    23.50 Bohr mag/cell

     iteration # 36     ecut=    40.00 Ry     beta=0.70
     Davidson diagonalization with overlap
     ethr =  3.53E-09,  avg # of iterations =  1.0

     negative rho (up, down):  0.523E-02 0.181E-02

     total cpu time spent up to now is     9475.9 secs

     total energy              =   -2025.28272743 Ry
     Harris-Foulkes estimate   =   -2025.28272913 Ry
     estimated scf accuracy    <       0.00001179 Ry

     total magnetization       =    15.00 Bohr mag/cell
     absolute magnetization    =    23.50 Bohr mag/cell

     iteration # 37     ecut=    40.00 Ry     beta=0.70
     Davidson diagonalization with overlap
     ethr =  3.53E-09,  avg # of iterations =  1.0

     negative rho (up, down):  0.523E-02 0.181E-02

     total cpu time spent up to now is     9701.0 secs

     total energy              =   -2025.28272953 Ry
     Harris-Foulkes estimate   =   -2025.28273047 Ry
     estimated scf accuracy    <       0.00000369 Ry

     total magnetization       =    15.00 Bohr mag/cell
     absolute magnetization    =    23.49 Bohr mag/cell

     iteration # 38     ecut=    40.00 Ry     beta=0.70
     Davidson diagonalization with overlap
     ethr =  1.60E-09,  avg # of iterations =  2.0

     negative rho (up, down):  0.523E-02 0.181E-02

     total cpu time spent up to now is     9941.5 secs

     total energy              =   -2025.28272568 Ry
     Harris-Foulkes estimate   =   -2025.28273328 Ry
     estimated scf accuracy    <       0.00004891 Ry

     total magnetization       =    15.00 Bohr mag/cell
     absolute magnetization    =    23.49 Bohr mag/cell

     iteration # 39     ecut=    40.00 Ry     beta=0.70
     Davidson diagonalization with overlap
     ethr =  1.60E-09,  avg # of iterations =  2.0

     negative rho (up, down):  0.523E-02 0.181E-02

     total cpu time spent up to now is    10177.8 secs

     total energy              =   -2025.28272799 Ry
     Harris-Foulkes estimate   =   -2025.28273173 Ry
     estimated scf accuracy    <       0.00002879 Ry

     total magnetization       =    15.00 Bohr mag/cell
     absolute magnetization    =    23.49 Bohr mag/cell

     iteration # 40     ecut=    40.00 Ry     beta=0.70
     Davidson diagonalization with overlap
     ethr =  1.60E-09,  avg # of iterations =  1.0

     negative rho (up, down):  0.523E-02 0.181E-02

     total cpu time spent up to now is    10408.6 secs

     total energy              =   -2025.28272985 Ry
     Harris-Foulkes estimate   =   -2025.28273017 Ry
     estimated scf accuracy    <       0.00000290 Ry

     total magnetization       =    15.00 Bohr mag/cell
     absolute magnetization    =    23.49 Bohr mag/cell

     iteration # 41     ecut=    40.00 Ry     beta=0.70
     Davidson diagonalization with overlap
     ethr =  1.25E-09,  avg # of iterations =  1.0

     negative rho (up, down):  0.523E-02 0.181E-02

     total cpu time spent up to now is    10637.7 secs

     total energy              =   -2025.28273028 Ry
     Harris-Foulkes estimate   =   -2025.28273062 Ry
     estimated scf accuracy    <       0.00000142 Ry

     total magnetization       =    15.00 Bohr mag/cell
     absolute magnetization    =    23.48 Bohr mag/cell

     iteration # 42     ecut=    40.00 Ry     beta=0.70
     Davidson diagonalization with overlap
     ethr =  6.14E-10,  avg # of iterations =  1.1

     negative rho (up, down):  0.523E-02 0.181E-02

     total cpu time spent up to now is    10883.5 secs

     total energy              =   -2025.28273003 Ry
     Harris-Foulkes estimate   =   -2025.28273092 Ry
     estimated scf accuracy    <       0.00000618 Ry

     total magnetization       =    15.00 Bohr mag/cell
     absolute magnetization    =    23.49 Bohr mag/cell

     iteration # 43     ecut=    40.00 Ry     beta=0.70
     Davidson diagonalization with overlap
     ethr =  6.14E-10,  avg # of iterations =  1.0

     negative rho (up, down):  0.523E-02 0.181E-02

     total cpu time spent up to now is    11112.3 secs

     total energy              =   -2025.28273045 Ry
     Harris-Foulkes estimate   =   -2025.28273064 Ry
     estimated scf accuracy    <       0.00000229 Ry

     total magnetization       =    15.00 Bohr mag/cell
     absolute magnetization    =    23.48 Bohr mag/cell

     iteration # 44     ecut=    40.00 Ry     beta=0.70
     Davidson diagonalization with overlap
     ethr =  6.14E-10,  avg # of iterations =  1.0

     negative rho (up, down):  0.523E-02 0.181E-02

     total cpu time spent up to now is    11329.5 secs

     End of self-consistent calculation
 --- enter write_ns ---
 LDA+U parameters:
U( 2)     =  3.50000000
alpha( 2) =  0.00000000
atom    3   Tr[ns(na)] (up, down, total) =   3.59971  1.04222  4.64192
   spin  1
    eigenvalues: 
  0.465  0.506  0.714  0.928  0.986
    eigenvectors:
  0.003  0.212  0.001  0.000  0.783
  0.987  0.013  0.000  0.000  0.000
  0.000  0.000  0.998  0.000  0.002
  0.010  0.775  0.001  0.000  0.215
  0.000  0.000  0.000  0.999  0.000
    occupations:
  0.882 -0.003  0.011 -0.197  0.001
 -0.003  0.466  0.001 -0.004 -0.008
  0.011  0.001  0.715 -0.005 -0.003
 -0.197 -0.004 -0.005  0.609 -0.001
  0.001 -0.008 -0.003 -0.001  0.928
   spin  2
    eigenvalues: 
  0.092  0.112  0.130  0.342  0.366
    eigenvectors:
  0.762  0.000  0.023  0.004  0.211
  0.000  0.002  0.000  0.977  0.021
  0.026  0.005  0.968  0.000  0.000
  0.212  0.000  0.003  0.017  0.768
  0.000  0.992  0.006  0.002  0.000
    occupations:
  0.152 -0.002 -0.003  0.112  0.000
 -0.002  0.342  0.000 -0.003  0.010
 -0.003  0.000  0.129  0.007 -0.001
  0.112 -0.003  0.007  0.307 -0.000
  0.000  0.010 -0.001 -0.000  0.113
atomic mag. moment =     2.557491
atom    4   Tr[ns(na)] (up, down, total) =   3.52902  1.11621  4.64522
   spin  1
    eigenvalues: 
  0.489  0.537  0.611  0.905  0.988
    eigenvectors:
  0.003  0.991  0.000  0.001  0.005
  0.000  0.001  0.017  0.982  0.000
  0.000  0.000  0.983  0.017  0.000
  0.000  0.005  0.000  0.000  0.995
  0.997  0.003  0.000  0.000  0.000
    occupations:
  0.539 -0.013 -0.001  0.032  0.003
 -0.013  0.899  0.038  0.002  0.000
 -0.001  0.038  0.616  0.001 -0.002
  0.032  0.002  0.001  0.986 -0.000
  0.003  0.000 -0.002 -0.000  0.489
   spin  2
    eigenvalues: 
  0.097  0.121  0.152  0.362  0.384
    eigenvectors:
  0.003  0.002  0.000  0.003  0.992
  0.003  0.937  0.058  0.000  0.002
  0.000  0.057  0.942  0.000  0.000
  0.994  0.003  0.000  0.000  0.003
  0.000  0.000  0.000  0.997  0.003
    occupations:
  0.383  0.013  0.003 -0.015  0.001
  0.013  0.123 -0.007  0.001 -0.000
  0.003 -0.007  0.150  0.000  0.000
 -0.015  0.001  0.000  0.098  0.000
  0.001 -0.000  0.000  0.000  0.362
atomic mag. moment =     2.412808
atom    9   Tr[ns(na)] (up, down, total) =   3.56021  1.12874  4.68896
   spin  1
    eigenvalues: 
  0.501  0.510  0.680  0.887  0.982
    eigenvectors:
  0.031  0.134  0.000  0.000  0.835
  0.817  0.182  0.000  0.000  0.000
  0.000  0.000  0.978  0.022  0.000
  0.151  0.683  0.000  0.000  0.165
  0.000  0.000  0.022  0.978  0.000
    occupations:
  0.904  0.003 -0.001 -0.176 -0.000
  0.003  0.503  0.003  0.003 -0.001
 -0.001  0.003  0.685 -0.001 -0.030
 -0.176  0.003 -0.001  0.587  0.002
 -0.000 -0.001 -0.030  0.002  0.882
   spin  2
    eigenvalues: 
  0.111  0.135  0.145  0.366  0.371
    eigenvectors:
  0.827  0.000  0.000  0.006  0.166
  0.000  0.000  0.000  0.962  0.038
  0.000  0.055  0.945  0.000  0.000
  0.173  0.000  0.000  0.031  0.796
  0.000  0.945  0.055  0.000  0.000
    occupations:
  0.156  0.001  0.000  0.098 -0.000
  0.001  0.367 -0.000  0.001  0.000
  0.000 -0.000  0.144  0.000  0.002
  0.098  0.001  0.000  0.326 -0.000
 -0.000  0.000  0.002 -0.000  0.135
atomic mag. moment =     2.431472
atom   10   Tr[ns(na)] (up, down, total) =   3.65161  0.97932  4.63094
   spin  1
    eigenvalues: 
  0.477  0.499  0.787  0.902  0.986
    eigenvectors:
  0.000  0.995  0.000  0.000  0.004
  0.000  0.001  0.000  0.958  0.040
  0.001  0.000  0.999  0.000  0.000
  0.000  0.003  0.000  0.041  0.956
  0.999  0.000  0.001  0.000  0.000
    occupations:
  0.502 -0.015  0.001  0.028 -0.000
 -0.015  0.905 -0.002 -0.016  0.001
  0.001 -0.002  0.786  0.000  0.011
  0.028 -0.016  0.000  0.981  0.000
 -0.000  0.001  0.011  0.000  0.478
   spin  2
    eigenvalues: 
  0.088  0.131  0.134  0.284  0.342
    eigenvectors:
  0.007  0.000  0.000  0.993  0.000
  0.001  0.999  0.000  0.000  0.000
  0.000  0.000  1.000  0.000  0.000
  0.992  0.001  0.000  0.007  0.000
  0.000  0.000  0.000  0.000  1.000
    occupations:
  0.283  0.000 -0.000 -0.016 -0.000
  0.000  0.131 -0.000  0.002 -0.000
 -0.000 -0.000  0.134  0.000  0.002
 -0.016  0.002  0.000  0.090  0.000
 -0.000 -0.000  0.002  0.000  0.342
atomic mag. moment =     2.672289
atom   16   Tr[ns(na)] (up, down, total) =   3.59548  1.04623  4.64170
   spin  1
    eigenvalues: 
  0.466  0.509  0.706  0.929  0.986
    eigenvectors:
  0.005  0.210  0.002  0.000  0.784
  0.980  0.019  0.000  0.000  0.000
  0.000  0.000  0.997  0.001  0.002
  0.015  0.770  0.001  0.000  0.214
  0.000  0.000  0.001  0.999  0.000
    occupations:
  0.883  0.004  0.012 -0.196 -0.001
  0.004  0.467 -0.001  0.004 -0.008
  0.012 -0.001  0.706 -0.006  0.005
 -0.196  0.004 -0.006  0.610 -0.000
 -0.001 -0.008  0.005 -0.000  0.929
   spin  2
    eigenvalues: 
  0.093  0.113  0.131  0.343  0.367
    eigenvectors:
  0.762  0.000  0.023  0.004  0.211
  0.000  0.002  0.000  0.978  0.020
  0.026  0.007  0.966  0.000  0.000
  0.212  0.000  0.003  0.016  0.769
  0.000  0.991  0.007  0.002  0.000
    occupations:
  0.153  0.002 -0.003  0.112 -0.000
  0.002  0.343 -0.000  0.003  0.010
 -0.003 -0.000  0.130  0.007  0.001
  0.112  0.003  0.007  0.308  0.000
 -0.000  0.010  0.001  0.000  0.113
atomic mag. moment =     2.549250
atom   17   Tr[ns(na)] (up, down, total) =   3.54463  1.10166  4.64629
   spin  1
    eigenvalues: 
  0.484  0.535  0.638  0.901  0.987
    eigenvectors:
  0.002  0.992  0.000  0.001  0.005
  0.000  0.001  0.018  0.980  0.000
  0.000  0.000  0.981  0.018  0.000
  0.000  0.005  0.000  0.000  0.995
  0.998  0.002  0.000  0.000  0.000
    occupations:
  0.537 -0.012 -0.002  0.031  0.002
 -0.012  0.896  0.035  0.001  0.000
 -0.002  0.035  0.642  0.000  0.002
  0.031  0.001  0.000  0.985 -0.000
  0.002  0.000  0.002 -0.000  0.484
   spin  2
    eigenvalues: 
  0.096  0.119  0.148  0.357  0.381
    eigenvectors:
  0.003  0.003  0.000  0.002  0.992
  0.004  0.931  0.062  0.000  0.003
  0.000  0.062  0.938  0.000  0.000
  0.992  0.005  0.000  0.000  0.003
  0.000  0.000  0.000  0.998  0.002
    occupations:
  0.380  0.015  0.003 -0.016  0.001
  0.015  0.122 -0.007  0.001 -0.000
  0.003 -0.007  0.147  0.000 -0.000
 -0.016  0.001  0.000  0.096  0.000
  0.001 -0.000 -0.000  0.000  0.357
atomic mag. moment =     2.442974
atom   22   Tr[ns(na)] (up, down, total) =   3.19855  1.61260  4.81115
   spin  1
    eigenvalues: 
  0.544  0.560  0.577  0.691  0.826
    eigenvectors:
  0.893  0.004  0.102  0.000  0.000
  0.008  0.989  0.004  0.000  0.000
  0.000  0.000  0.000  0.005  0.995
  0.099  0.007  0.894  0.000  0.000
  0.000  0.000  0.000  0.995  0.005
    occupations:
  0.548  0.002 -0.002 -0.010  0.001
  0.002  0.560  0.001 -0.001  0.000
 -0.002  0.001  0.825  0.000 -0.010
 -0.010 -0.001  0.000  0.574 -0.001
  0.001  0.000 -0.010 -0.001  0.692
   spin  2
    eigenvalues: 
  0.191  0.250  0.274  0.448  0.450
    eigenvectors:
  0.000  0.000  0.990  0.002  0.008
  0.000  0.000  0.000  0.717  0.283
  0.999  0.001  0.000  0.000  0.000
  0.000  0.000  0.010  0.280  0.709
  0.001  0.999  0.000  0.000  0.000
    occupations:
  0.276 -0.001  0.000  0.018 -0.000
 -0.001  0.449 -0.000 -0.001  0.000
  0.000 -0.000  0.191 -0.000 -0.001
  0.018 -0.001 -0.000  0.448  0.000
 -0.000  0.000 -0.001  0.000  0.250
atomic mag. moment =     1.585943
atom   23   Tr[ns(na)] (up, down, total) =   3.52944  1.10628  4.63572
   spin  1
    eigenvalues: 
  0.479  0.528  0.600  0.942  0.981
    eigenvectors:
  0.000  0.994  0.000  0.000  0.006
  0.000  0.000  0.000  0.951  0.049
  0.009  0.000  0.991  0.000  0.000
  0.000  0.006  0.000  0.049  0.945
  0.991  0.000  0.009  0.000  0.000
    occupations:
  0.531  0.002 -0.001  0.035  0.000
  0.002  0.944  0.003  0.008 -0.000
 -0.001  0.003  0.599 -0.001 -0.011
  0.035  0.008 -0.001  0.976  0.000
  0.000 -0.000 -0.011  0.000  0.480
   spin  2
    eigenvalues: 
  0.094  0.117  0.155  0.360  0.380
    eigenvectors:
  0.002  0.002  0.000  0.000  0.996
  0.005  0.994  0.000  0.000  0.002
  0.000  0.000  1.000  0.000  0.000
  0.993  0.004  0.000  0.000  0.002
  0.000  0.000  0.000  1.000  0.000
    occupations:
  0.379  0.010  0.000 -0.014  0.000
  0.010  0.117 -0.000 -0.002 -0.000
  0.000 -0.000  0.155 -0.000 -0.003
 -0.014 -0.002 -0.000  0.095 -0.000
  0.000 -0.000 -0.003 -0.000  0.360
atomic mag. moment =     2.423163
N of occupied +U levels =  37.3419096
 --- exit write_ns ---

 ------ SPIN UP ------------


          k = 0.0000 0.0000 0.0000 ( 27003 PWs)   bands (ev):

   -75.7188 -75.2297 -75.1539 -75.1328 -75.0595 -75.0317 -74.9896 -74.9615
   -47.1148 -47.0117 -46.9644 -46.7309 -46.5208 -46.5142 -46.4817 -46.4790
   -46.4690 -46.4676 -46.4309 -46.4293 -46.3959 -46.3867 -46.3642 -46.3430
   -46.3416 -46.3330 -46.3250 -46.2842 -46.2837 -46.2643 -46.2463 -46.1280
   -21.2035 -20.7609 -20.3884 -20.3442 -20.1851 -20.0144 -19.8514 -19.6909
   -19.6342 -19.6301 -19.5222 -19.4108 -19.3174 -19.2481 -19.1685 -19.1219
   -19.0907 -18.9814 -18.8897  -9.5496  -9.3211  -9.1040  -8.9545  -8.7831
    -8.5630  -8.2112  -8.1072  -8.0270  -7.9745  -7.8728  -7.8233  -7.7607
    -7.5810  -7.3882  -7.1338  -7.0827  -7.0685  -7.0246  -7.0210  -6.9381
    -6.6820  -6.5857  -6.4915  -6.3464  -6.2738  -5.9402  -5.8497  -5.6887
    -5.6627  -5.5658  -5.4465  -5.3419  -5.2463  -5.0856  -5.0636  -4.9985
    -4.9287  -4.8170  -4.6903  -4.5487  -4.5204  -4.4462  -4.4277  -4.3492
    -4.3477  -4.2900  -4.1575  -4.0926  -4.0710  -4.0107  -3.8726  -3.8528
    -3.8450  -3.7444  -3.6983  -3.5616  -3.5355  -3.4959  -3.3691  -3.3422
    -3.2667  -3.0909  -3.0827  -2.9116  -2.7235  -2.6038  -2.3619  -2.3140
    -2.0257  -1.9099  -1.8133  -1.7875  -1.6502  -1.5206  -1.3769  -1.3693
    -1.1437  -1.0287  -0.9226  -0.6948  -0.3408   0.4138   0.5032   0.8882
     1.2297   1.3259   1.4838   1.4924   1.6129   1.8498   1.8898   1.9749
     2.1177   2.2152   2.2668   2.6903   3.2416   3.3070   3.7757   4.2608
     4.7929   5.5593   6.1357   6.3944   6.7445   6.9354   7.1453   7.2634
     7.2725   7.3090   7.5423   7.6129   7.6997   7.8646   8.0394   8.1249
     8.1844   8.2231   8.3228   8.4889   8.5934   8.6213   8.7559   8.8658
     8.9470   9.2387   9.2879   9.3490   9.4581   9.5339   9.5834   9.7233
     9.8949   9.9506  10.0757  10.0800  10.1759  10.3364  10.5088  10.5858
    10.6654  10.7110  10.9887  11.0890  11.2546  11.3102  11.3776  11.4412
    11.4712  11.4805  11.5368  11.7785  11.7937  11.8480  12.0289  12.0877
    12.1014  12.1402  12.1707  12.2702  12.3543  12.3836  12.4331  12.5177
    12.5682  12.6633  12.7030  12.7753  12.8149  12.9772  13.0134  13.0916
    13.1316  13.1766  13.2146  13.2633  13.3106  13.3395  13.4646  13.5571
    13.6829  13.7610  13.7820  13.8988  13.9606  13.9822  14.1719  14.2598
    14.3079  14.3431  14.4879  14.5474  14.5820  14.6741  14.7825  14.8857
    14.9401  15.0404  15.0602  15.1668  15.2422  15.3053  15.3356  15.5251
    15.5622  15.6116  15.7933  15.8566  16.1319  16.2143  16.2685  16.4000
    16.4028  16.4456  16.6226  16.8208  16.8837  16.9440  17.0017  17.0661
    17.1092  17.1835  17.3745  17.4725  17.6064  17.7027  17.7913  17.8351
    17.9154  17.9970  18.0675  18.1507  18.2858  18.3242  18.5101  18.5665
    18.6907  18.7420  18.8004  18.8296  18.9786  19.0632  19.1521  19.2368
    19.2653  19.3028  19.4320  19.4535  19.4742  19.6446  19.7106  19.7505
    19.8352  19.9014  19.9872  20.0425  20.0790  20.2069  20.2875  20.3364
    20.3994  20.4454  20.5017  20.6207  20.7023  20.7501  20.8969  20.9844
    21.0384  21.0680  21.1637  21.1895  21.2520  21.3364  21.3909  21.4793
    21.5066  21.5299  21.5612  21.5993  21.7300  21.7712

          k = 0.0000 0.2341 0.0000 ( 27088 PWs)   bands (ev):

   -75.7188 -75.2297 -75.1540 -75.1329 -75.0595 -75.0317 -74.9896 -74.9615
   -47.1148 -47.0117 -46.9643 -46.7309 -46.5200 -46.5145 -46.4794 -46.4790
   -46.4680 -46.4675 -46.4329 -46.4306 -46.3950 -46.3862 -46.3668 -46.3434
   -46.3413 -46.3328 -46.3250 -46.2841 -46.2837 -46.2642 -46.2463 -46.1281
   -21.1162 -20.6596 -20.4271 -20.3666 -20.1739 -20.0558 -19.8375 -19.7536
   -19.6837 -19.6389 -19.5740 -19.3923 -19.2824 -19.2693 -19.2213 -19.1557
   -19.0489 -18.9860 -18.8846  -9.4166  -9.0701  -9.0528  -8.9295  -8.8747
    -8.6028  -8.5616  -8.2049  -7.9426  -7.8651  -7.7129  -7.6676  -7.4886
    -7.4501  -7.3114  -7.1209  -7.0065  -6.9452  -6.9064  -6.8563  -6.7269
    -6.6190  -6.6039  -6.5004  -6.3664  -6.2422  -6.1314  -6.0277  -5.8581
    -5.7994  -5.6770  -5.5442  -5.4295  -5.3597  -5.2718  -5.1939  -5.0889
    -5.0411  -5.0137  -4.9404  -4.7719  -4.7272  -4.5797  -4.5137  -4.4348
    -4.3334  -4.2675  -4.1700  -4.1006  -3.9922  -3.9297  -3.8293  -3.7648
    -3.7058  -3.6215  -3.5645  -3.4824  -3.3755  -3.3510  -3.3277  -3.2324
    -3.1480  -3.0791  -3.0193  -2.7839  -2.7428  -2.6509  -2.5526  -2.3997
    -2.3567  -2.2897  -1.9591  -1.6866  -1.5164  -1.4518  -1.3073  -1.1846
    -1.1490  -1.0637  -0.9989  -0.8979  -0.1586   0.3797   0.4348   0.5622
     0.7437   1.1978   1.6081   1.8319   1.8639   1.9123   2.0523   2.1176
     2.2027   2.2891   2.5151   2.5723   3.4611   3.5563   4.0220   4.4808
     5.0040   5.4145   5.6263   5.8803   6.0918   6.3872   6.5612   7.0840
     7.1189   7.3107   7.4275   7.5264   7.7650   7.9827   8.2420   8.3419
     8.3638   8.4403   8.5030   8.6883   8.8082   8.8730   8.9627   9.1372
     9.1939   9.3447   9.4336   9.5231   9.6389   9.7290   9.8408  10.0266
    10.0542  10.1131  10.1527  10.2459  10.2718  10.3029  10.3413  10.4325
    10.4624  10.5961  10.6405  10.7731  10.8255  10.9170  11.0761  11.2074
    11.2702  11.3485  11.4634  11.5928  11.6372  11.6799  11.7524  11.7616
    11.8765  11.9894  12.1503  12.3235  12.3784  12.4531  12.5382  12.6444
    12.7564  12.8365  12.8729  12.9868  13.0239  13.1726  13.2816  13.3971
    13.4351  13.4704  13.5892  13.6734  13.7768  13.8777  13.9864  14.0566
    14.1093  14.1476  14.2301  14.2836  14.3068  14.3713  14.4531  14.4896
    14.5379  14.6142  14.6540  14.7088  14.7724  14.8235  14.9693  14.9995
    15.1157  15.2044  15.2528  15.3200  15.3744  15.4516  15.4959  15.5334
    15.6471  15.6921  15.7221  15.8075  15.8879  15.9513  16.0828  16.1192
    16.1738  16.2493  16.3940  16.4120  16.5404  16.6088  16.6784  16.8181
    16.8776  17.0253  17.1012  17.1630  17.2209  17.3143  17.3422  17.4733
    17.6037  17.6709  17.7087  17.9077  18.0832  18.1006  18.2492  18.3756
    18.4397  18.5355  18.5841  18.7184  18.7604  18.8516  18.9492  19.0569
    19.0994  19.1801  19.2443  19.2913  19.4563  19.5310  19.5678  19.6414
    19.8895  19.9368  19.9953  20.0262  20.1116  20.1708  20.2298  20.2818
    20.3551  20.3886  20.4081  20.4841  20.5386  20.6494  20.6942  20.7636
    20.7729  20.8201  20.9337  20.9850  21.0092  21.0930  21.1609  21.2166
    21.2729  21.3037  21.3704  21.4618  21.5664  21.6235

          k = 0.0000-0.4682 0.0000 ( 27136 PWs)   bands (ev):

   -75.7188 -75.2297 -75.1540 -75.1329 -75.0595 -75.0316 -74.9896 -74.9614
   -47.1148 -47.0117 -46.9641 -46.7308 -46.5182 -46.5157 -46.4790 -46.4772
   -46.4677 -46.4665 -46.4351 -46.4317 -46.3933 -46.3847 -46.3723 -46.3428
   -46.3410 -46.3327 -46.3250 -46.2840 -46.2837 -46.2640 -46.2462 -46.1282
   -20.9977 -20.5699 -20.4329 -20.3643 -20.2205 -20.1450 -19.8601 -19.7630
   -19.6919 -19.6433 -19.6166 -19.3926 -19.3809 -19.2507 -19.2222 -19.1440
   -19.0194 -18.9981 -18.8865  -9.3380  -9.2001  -8.8915  -8.8106  -8.7255
    -8.6280  -8.5966  -8.2022  -7.8939  -7.6786  -7.6386  -7.5061  -7.3418
    -7.3270  -7.2438  -7.2381  -6.9484  -6.8324  -6.7526  -6.7343  -6.6593
    -6.6086  -6.5882  -6.4770  -6.3950  -6.2429  -6.2343  -6.2012  -5.9727
    -5.8119  -5.7456  -5.6820  -5.5633  -5.5352  -5.5185  -5.3785  -5.3571
    -5.2355  -5.1898  -4.9926  -4.8223  -4.7882  -4.6205  -4.5364  -4.4324
    -4.3323  -4.3140  -4.2395  -3.9674  -3.9046  -3.8488  -3.7550  -3.7266
    -3.6693  -3.5344  -3.4607  -3.4280  -3.3628  -3.3497  -3.2951  -3.2130
    -3.0991  -3.0474  -3.0232  -2.9243  -2.8837  -2.7494  -2.5698  -2.5139
    -2.3166  -2.2052  -1.7174  -1.6399  -1.6326  -1.5708  -1.3565  -1.2536
    -1.1948  -1.0484  -1.0318  -0.8424  -0.0260   0.0079   0.1511   0.4206
     1.0135   1.3277   1.7891   1.7930   1.8423   1.9715   2.0708   2.1160
     2.1483   2.2227   2.7049   2.9171   3.7962   4.1173   4.4552   4.6178
     4.7565   4.9190   5.1971   5.4331   5.7882   6.0733   6.4960   6.8697
     7.0998   7.3477   7.5433   7.6410   7.7801   7.9199   8.0861   8.2641
     8.3241   8.6018   8.7289   8.9733   9.0018   9.0571   9.1213   9.1599
     9.1940   9.2068   9.4479   9.5267   9.5426   9.6211   9.6490   9.7055
     9.8463   9.9162  10.0298  10.0785  10.2052  10.3296  10.3595  10.4656
    10.7086  10.7862  10.9316  10.9690  11.0174  11.0664  11.1662  11.2202
    11.3855  11.5411  11.5876  11.6534  11.7013  11.8366  12.0060  12.1858
    12.2285  12.2380  12.4106  12.4398  12.4853  12.5216  12.5991  12.7371
    12.8400  12.8926  12.9883  13.0489  13.1872  13.1968  13.2336  13.3490
    13.4405  13.5209  13.5309  13.6571  13.6906  13.7642  13.7958  13.8994
    14.1178  14.1769  14.2093  14.2507  14.3915  14.4669  14.5489  14.6062
    14.6478  14.6619  14.7044  14.7605  14.7920  14.9696  15.0460  15.0983
    15.1938  15.2428  15.2638  15.3002  15.3410  15.4617  15.5975  15.6277
    15.7566  15.8770  15.9386  16.0233  16.0536  16.0988  16.3345  16.4156
    16.4449  16.6186  16.6374  16.7607  16.7852  16.8576  16.8781  16.9395
    17.0019  17.0552  17.0743  17.0962  17.1394  17.4050  17.4573  17.5386
    17.5707  17.6349  17.7279  17.8226  17.9000  17.9992  18.0446  18.0740
    18.2320  18.2760  18.3181  18.4292  18.4417  18.4668  18.5501  18.5688
    18.6490  18.6999  18.7144  18.7873  18.9727  19.0347  19.0713  19.1293
    19.2125  19.2563  19.3395  19.3981  19.6500  19.7051  19.8574  19.9137
    20.0224  20.0921  20.1327  20.1936  20.2592  20.3395  20.3987  20.4089
    20.5582  20.7450  20.7482  20.7967  20.8396  20.8848  20.9457  21.0553
    21.1009  21.1364  21.1824  21.2512  21.2943  21.3234

          k = 0.2500 0.0000 0.0000 ( 27178 PWs)   bands (ev):

   -75.7187 -75.2292 -75.1540 -75.1322 -75.0596 -75.0317 -74.9885 -74.9621
   -47.1120 -47.0115 -46.9644 -46.7309 -46.5184 -46.4964 -46.4795 -46.4776
   -46.4719 -46.4669 -46.4302 -46.4132 -46.3935 -46.3868 -46.3640 -46.3535
   -46.3423 -46.3310 -46.3254 -46.2871 -46.2865 -46.2698 -46.2510 -46.1511
   -21.0787 -20.6508 -20.4639 -20.2802 -20.2238 -20.0186 -19.8707 -19.7718
   -19.7605 -19.5835 -19.5270 -19.3878 -19.2896 -19.2679 -19.1989 -19.1433
   -19.0711 -19.0056 -18.9132  -9.3352  -9.1295  -8.9421  -8.8076  -8.6626
    -8.4408  -8.1751  -8.0842  -8.0447  -7.9522  -7.9103  -7.8324  -7.7804
    -7.6020  -7.5022  -7.3878  -7.2220  -7.1556  -7.0774  -6.9729  -6.8667
    -6.7432  -6.5657  -6.5241  -6.2473  -6.2135  -5.9778  -5.8800  -5.7363
    -5.6520  -5.5166  -5.5063  -5.3977  -5.3493  -5.2799  -5.2515  -5.2231
    -5.0685  -4.9414  -4.7850  -4.7573  -4.7067  -4.5527  -4.5225  -4.4417
    -4.3371  -4.2960  -4.2005  -4.1197  -4.0593  -4.0219  -3.9703  -3.8192
    -3.6796  -3.6043  -3.5098  -3.4718  -3.4248  -3.3528  -3.3148  -3.1940
    -3.0748  -2.9504  -2.8571  -2.7860  -2.6533  -2.5492  -2.4178  -2.2786
    -2.1036  -2.0289  -1.8104  -1.7645  -1.6845  -1.4822  -1.3258  -1.2245
    -1.1998  -1.1498  -0.9738  -0.7982  -0.2518   0.4323   0.5846   0.9778
     1.1939   1.3378   1.4162   1.4831   1.5873   1.6389   1.7711   1.8880
     1.9688   2.0154   2.1600   2.6349   3.5454   3.6069   4.0660   4.5424
     5.0858   5.6463   5.7278   6.0172   6.3046   6.4313   6.7241   6.7800
     7.2214   7.3848   7.4820   7.5305   7.6263   7.8286   7.9101   7.9554
     8.0687   8.3278   8.4039   8.4935   8.7490   8.8634   9.0143   9.1082
     9.2198   9.3726   9.4245   9.5208   9.6266   9.7818   9.9181   9.9452
     9.9904  10.0796  10.0992  10.1735  10.2258  10.2534  10.3851  10.4774
    10.6023  10.6409  10.6759  10.8002  10.9362  11.0154  11.1059  11.2475
    11.3756  11.4106  11.4406  11.5828  11.6597  11.7087  11.7933  11.8364
    11.9921  12.1186  12.1880  12.3370  12.3959  12.5598  12.5745  12.6789
    12.7265  12.8466  12.9185  12.9856  13.0655  13.1068  13.2268  13.2562
    13.3116  13.4443  13.5419  13.5743  13.6871  13.7986  13.8912  14.0213
    14.1091  14.2062  14.3006  14.3784  14.4276  14.4444  14.5484  14.5869
    14.5950  14.6512  14.7056  14.7389  14.8500  14.8999  14.9663  15.1580
    15.2438  15.2887  15.3611  15.4275  15.5765  15.6572  15.6984  15.7309
    15.8419  15.8619  15.9923  16.0242  16.0896  16.2180  16.3222  16.4446
    16.4792  16.5688  16.6009  16.7199  16.8991  16.9266  17.0285  17.1120
    17.1666  17.2036  17.2271  17.3152  17.4410  17.5019  17.5924  17.6076
    17.6623  17.7353  17.8218  17.9090  18.0228  18.0706  18.1076  18.2122
    18.2962  18.3728  18.4991  18.6854  18.7144  18.8559  18.8891  18.9321
    18.9853  19.1196  19.2377  19.2766  19.4551  19.5042  19.6224  19.6566
    19.7002  19.7518  19.7788  19.8355  19.8831  19.9277  20.0632  20.1520
    20.1751  20.2359  20.3650  20.4042  20.4915  20.5271  20.5652  20.6699
    20.7733  20.8811  20.9321  21.0562  21.1241  21.1627  21.1948  21.2627
    21.2962  21.3113  21.3769  21.4488  21.4902  21.5386

          k = 0.2500 0.2341 0.0000 ( 27132 PWs)   bands (ev):

   -75.7186 -75.2292 -75.1541 -75.1323 -75.0596 -75.0317 -74.9884 -74.9621
   -47.1120 -47.0115 -46.9642 -46.7309 -46.5171 -46.4974 -46.4777 -46.4774
   -46.4702 -46.4668 -46.4327 -46.4117 -46.3957 -46.3871 -46.3654 -46.3531
   -46.3426 -46.3307 -46.3254 -46.2870 -46.2864 -46.2696 -46.2508 -46.1511
   -21.0017 -20.5595 -20.4508 -20.3317 -20.2076 -20.0312 -19.8425 -19.7656
   -19.7466 -19.6925 -19.5561 -19.4370 -19.3175 -19.2838 -19.2501 -19.1677
   -19.0382 -18.9997 -18.9069  -9.2326  -8.8941  -8.8695  -8.7382  -8.6699
    -8.4820  -8.3347  -8.1192  -7.9537  -7.8697  -7.8168  -7.7082  -7.6634
    -7.5037  -7.4197  -7.2806  -7.1904  -7.0825  -6.9985  -6.9016  -6.7226
    -6.6341  -6.5520  -6.4732  -6.2561  -6.1748  -6.1302  -5.8845  -5.8495
    -5.7800  -5.7652  -5.6422  -5.5783  -5.5234  -5.4550  -5.3685  -5.3370
    -5.2737  -5.2016  -5.0342  -4.8903  -4.8022  -4.6697  -4.5847  -4.4825
    -4.3791  -4.2989  -4.2524  -4.1655  -4.0693  -3.9393  -3.8472  -3.7838
    -3.6614  -3.5315  -3.4685  -3.3576  -3.2682  -3.2231  -3.1216  -2.9870
    -2.9447  -2.8164  -2.7861  -2.7135  -2.6300  -2.5448  -2.4885  -2.4023
    -2.3319  -2.2457  -1.9924  -1.6543  -1.5498  -1.4601  -1.2778  -1.2352
    -1.1847  -1.1606  -1.0947  -0.9587  -0.0977   0.4178   0.5092   0.6605
     0.8175   1.1912   1.4364   1.5719   1.6927   1.7417   1.8401   1.9882
     2.0550   2.3008   2.4845   2.5992   3.7352   3.8536   4.3059   4.7558
     5.2734   5.6611   5.8418   5.8740   6.0837   6.2661   6.3860   6.5406
     6.7098   6.8708   7.0093   7.3192   7.4359   7.6406   7.7812   7.9509
     8.0987   8.2648   8.3980   8.4705   8.6261   8.7949   8.9536   9.0548
     9.1736   9.2830   9.4314   9.5306   9.6119   9.6889   9.8081   9.9566
    10.0797  10.1383  10.2468  10.3977  10.4295  10.5492  10.6351  10.7065
    10.9026  10.9551  11.0204  11.1604  11.2327  11.3321  11.4020  11.5151
    11.5781  11.6561  11.7311  11.8632  11.9200  12.0045  12.1093  12.1365
    12.2679  12.3406  12.4890  12.5751  12.6178  12.6560  12.7556  12.8159
    12.9102  12.9269  12.9840  13.0386  13.0629  13.1902  13.2506  13.2815
    13.3589  13.5200  13.5708  13.6622  13.6888  13.7711  13.8296  13.9333
    13.9816  14.1655  14.1899  14.2730  14.3381  14.3986  14.5348  14.5718
    14.6808  14.7320  14.7837  14.8264  14.8664  14.9263  15.0753  15.1250
    15.1864  15.3608  15.4052  15.4280  15.5665  15.6970  15.7482  15.8282
    15.8657  15.9729  15.9942  16.0777  16.1477  16.1945  16.2937  16.3379
    16.4183  16.4980  16.5409  16.6346  16.7143  16.8095  16.8615  16.9503
    17.0320  17.0735  17.1169  17.2245  17.3281  17.3977  17.4405  17.4617
    17.5264  17.5724  17.5846  17.6472  17.7559  17.8424  17.9259  17.9929
    18.1057  18.1504  18.1765  18.2634  18.3462  18.4707  18.5101  18.6663
    18.7153  18.7875  18.8180  18.8630  18.8960  19.0090  19.0729  19.1519
    19.2337  19.3643  19.4015  19.4516  19.5041  19.5707  19.6285  19.6828
    19.7305  19.8465  19.8742  20.0419  20.1103  20.1718  20.2532  20.3676
    20.4203  20.4711  20.5254  20.6130  20.7288  20.7554  20.9127  20.9627
    21.0081  21.1293  21.1591  21.1861  21.3220  21.3548

          k = 0.2500-0.4682 0.0000 ( 27150 PWs)   bands (ev):

   -75.7186 -75.2292 -75.1541 -75.1323 -75.0596 -75.0316 -74.9884 -74.9621
   -47.1120 -47.0115 -46.9640 -46.7309 -46.5157 -46.4985 -46.4778 -46.4755
   -46.4686 -46.4666 -46.4353 -46.4132 -46.3930 -46.3849 -46.3708 -46.3528
   -46.3435 -46.3306 -46.3254 -46.2869 -46.2864 -46.2691 -46.2506 -46.1511
   -20.9029 -20.4600 -20.4372 -20.3563 -20.1886 -20.1139 -19.8390 -19.7982
   -19.7169 -19.6817 -19.6123 -19.4958 -19.3997 -19.3367 -19.2573 -19.1482
   -19.0117 -19.0023 -18.9068  -9.1722  -8.9911  -8.6548  -8.5764  -8.5218
    -8.4444  -8.4253  -8.1304  -7.9299  -7.7700  -7.6929  -7.5078  -7.3990
    -7.3170  -7.2353  -7.1988  -7.1434  -7.0862  -7.0562  -6.8141  -6.7162
    -6.6235  -6.5561  -6.4044  -6.3576  -6.2993  -6.2268  -6.2020  -6.0545
    -5.9343  -5.8335  -5.7948  -5.7038  -5.5711  -5.5552  -5.4666  -5.4397
    -5.3267  -5.2737  -5.1963  -5.1293  -4.9195  -4.8987  -4.6677  -4.5794
    -4.4355  -4.2217  -4.1623  -4.1127  -4.0714  -3.9357  -3.7960  -3.7111
    -3.6271  -3.4589  -3.3568  -3.2596  -3.2064  -3.1423  -3.0284  -3.0147
    -2.8993  -2.8570  -2.7980  -2.7262  -2.6118  -2.5443  -2.4772  -2.4420
    -2.2585  -2.2007  -1.7990  -1.6862  -1.5929  -1.5425  -1.3509  -1.2926
    -1.2096  -1.1311  -1.1143  -0.9876   0.0213   0.1252   0.2654   0.4017
     1.0073   1.3120   1.4306   1.4577   1.6128   1.8017   1.8092   2.0745
     2.2802   2.3282   2.6588   2.8161   4.0281   4.3900   4.7341   4.8931
     5.0282   5.1995   5.4614   5.7187   6.0271   6.2123   6.3576   6.5532
     6.7747   6.8811   7.0281   7.1891   7.2325   7.3578   7.4728   7.6809
     7.8195   7.9531   8.1334   8.3529   8.5087   8.5845   8.6954   8.8231
     9.0608   9.1754   9.3831   9.4359   9.6272   9.8283   9.9720  10.0235
    10.0850  10.2447  10.4004  10.5762  10.6483  10.8417  10.9506  11.0534
    11.2334  11.3443  11.4395  11.4960  11.6243  11.6828  11.7981  11.8502
    11.8985  11.9493  12.0267  12.0944  12.1177  12.1677  12.3982  12.5331
    12.5918  12.6545  12.7192  12.7262  12.8039  12.8877  12.9153  12.9613
    13.0061  13.0912  13.1336  13.1915  13.2385  13.3497  13.4160  13.4764
    13.5718  13.6730  13.7017  13.7765  13.8256  13.9413  14.0081  14.0243
    14.0671  14.1062  14.1467  14.2057  14.2597  14.3204  14.4433  14.5373
    14.6204  14.7606  14.8191  14.8830  14.9818  14.9900  15.0166  15.0680
    15.1199  15.1866  15.2269  15.3098  15.3157  15.3646  15.3848  15.4662
    15.5010  15.5936  15.6556  15.7990  15.8425  15.8489  15.9274  15.9802
    16.1547  16.2158  16.2717  16.3588  16.4618  16.5370  16.5917  16.6087
    16.7223  16.7862  16.8687  16.9570  17.0412  17.1030  17.2294  17.3472
    17.4441  17.5591  17.6306  17.7387  17.8188  17.9070  18.0451  18.0812
    18.1619  18.2242  18.2568  18.3115  18.3699  18.4099  18.4728  18.5034
    18.5593  18.6634  18.7022  18.7896  18.8794  18.9157  18.9511  19.0393
    19.1866  19.3031  19.3554  19.3965  19.4176  19.4547  19.5094  19.5359
    19.6556  19.6927  19.7337  19.7814  19.8818  19.8915  19.9593  19.9923
    20.1449  20.1825  20.3052  20.4483  20.5343  20.5933  20.6717  20.7241
    20.7732  20.7930  20.8468  20.8923  20.9553  21.0181

          k =-0.5000 0.0000 0.0000 ( 27158 PWs)   bands (ev):

   -75.7184 -75.2286 -75.1541 -75.1316 -75.0597 -75.0317 -74.9872 -74.9629
   -47.1092 -47.0113 -46.9644 -46.7310 -46.5158 -46.4833 -46.4774 -46.4751
   -46.4662 -46.4626 -46.4297 -46.4072 -46.3887 -46.3824 -46.3668 -46.3613
   -46.3422 -46.3264 -46.3192 -46.3072 -46.2913 -46.2903 -46.2142 -46.1961
   -20.8089 -20.7198 -20.4278 -20.3599 -20.0857 -20.0672 -20.0393 -19.9015
   -19.6653 -19.6423 -19.4552 -19.3457 -19.3126 -19.2974 -19.2198 -19.2070
   -19.0529 -18.9997 -18.9515  -8.9288  -8.8188  -8.6746  -8.6255  -8.5398
    -8.5284  -8.3303  -8.2393  -8.1113  -7.9628  -7.9542  -7.8714  -7.8358
    -7.6904  -7.5861  -7.5185  -7.1936  -7.0808  -6.9835  -6.8885  -6.7285
    -6.6128  -6.4350  -6.3582  -6.3256  -6.2349  -6.2027  -6.1005  -5.9841
    -5.9515  -5.8406  -5.6808  -5.5839  -5.3539  -5.2990  -5.2329  -5.1753
    -5.1326  -5.0765  -4.9351  -4.8613  -4.8450  -4.7087  -4.6802  -4.5044
    -4.3297  -4.2523  -4.1691  -4.1323  -4.0265  -3.8377  -3.7932  -3.7463
    -3.5727  -3.5298  -3.4564  -3.3775  -3.3733  -3.3131  -3.2434  -3.0076
    -2.9481  -2.7844  -2.7193  -2.6799  -2.6146  -2.5384  -2.4178  -2.2447
    -2.1162  -2.0825  -1.9886  -1.8489  -1.6226  -1.3872  -1.3498  -1.1966
    -1.1277  -1.0940  -1.0587  -1.0120  -0.1879   0.5349   0.7162   0.9328
     1.0856   1.2401   1.4215   1.4718   1.5243   1.5806   1.6040   1.6530
     1.6953   2.0788   2.2949   2.4361   4.0618   4.4216   4.4231   4.7352
     4.8906   5.0290   5.3374   5.5344   5.9150   6.1271   6.5609   6.8044
     7.0919   7.2948   7.5656   7.7391   7.8851   7.9702   8.2047   8.3366
[...]
     3.3555   3.6102   3.7530   3.8123   4.2412   4.4826   4.4867   4.7934
     4.9443   5.0870   5.3957   5.5844   5.9868   6.1759   6.6444   6.8514
     7.1892   7.3376   7.6341   7.7563   7.8707   7.9843   8.3035   8.3579
     8.3690   8.5096   8.5405   8.6628   8.7449   8.7834   8.8050   8.8263
     8.9208   8.9703   9.2188   9.3010   9.3788   9.3931   9.5707   9.7021
     9.8705   9.9932  10.1217  10.2075  10.3215  10.3350  10.4569  10.5110
    10.6618  10.8361  10.8701  11.0461  11.1796  11.2318  11.4084  11.4447
    11.5492  11.5989  11.6964  11.7859  11.9246  11.9666  12.1983  12.2535
    12.4282  12.4741  12.6283  12.6921  12.8470  12.8705  12.9677  13.0157
    13.1319  13.1920  13.2730  13.3286  13.3887  13.4808  13.6440  13.6708
    13.7847  13.8058  13.8532  13.8699  14.0095  14.0904  14.1102  14.2069
    14.3726  14.4433  14.5266  14.5823  14.7735  14.8043  14.8434  14.8555
    14.9661  15.0362  15.1271  15.1626  15.2107  15.2742  15.2868  15.3779
    15.4761  15.5750  15.7702  15.8181  15.8986  15.9766  16.0474  16.1039
    16.2138  16.2735  16.4682  16.5808  16.5936  16.7232  16.7785  16.8231
    16.8964  16.9485  16.9793  17.1643  17.2368  17.2525  17.3262  17.3904
    17.4332  17.5199  17.5941  17.6139  17.6298  17.6618  17.7091  17.7258
    17.7687  17.8038  17.9284  17.9575  17.9892  18.0270  18.1959  18.2445
    18.2596  18.3835  18.4510  18.5512  18.5992  18.6454  18.7324  18.8417
    18.8709  19.0045  19.1014  19.1378  19.1852  19.2422  19.2622  19.3131
    19.3550  19.4335  19.5489  19.6536  19.7350  19.9028  19.9450  20.0021
    20.0160  20.1783  20.2435  20.3584  20.3958  20.4143  20.4654  20.5100
    20.5385  20.5826  20.6204  20.6417  20.7249  20.7492  20.7768  20.9450
    20.9687  21.0427  21.1099  21.1480  21.2060  21.2451

          k =-0.5000 0.2341 0.0000 ( 27132 PWs)   bands (ev):

   -73.8735 -72.5997 -72.5607 -72.4675 -72.4552 -72.3804 -72.2956 -72.2715
   -45.5044 -45.2361 -44.9179 -44.1674 -44.1212 -44.0934 -44.0588 -44.0461
   -44.0114 -44.0101 -43.9056 -43.8798 -43.8567 -43.7875 -43.7359 -43.7036
   -43.6632 -43.6522 -43.6228 -43.5973 -43.5795 -43.5748 -43.3666 -43.3553
   -20.9023 -20.8441 -20.6258 -20.5052 -20.3407 -20.3238 -20.2381 -20.1914
   -19.9447 -19.9033 -19.8555 -19.8094 -19.7014 -19.6775 -19.6250 -19.5577
   -19.4097 -19.3789 -19.3437  -8.4082  -8.3908  -7.9208  -7.7784  -7.7166
    -7.6460  -7.6338  -7.5136  -7.4506  -7.2333  -7.1925  -7.1471  -7.0618
    -6.9869  -6.8673  -6.8329  -6.7560  -6.4567  -6.4014  -6.2847  -6.2319
    -6.1602  -6.0061  -5.9748  -5.8993  -5.7993  -5.7390  -5.6588  -5.4945
    -5.3692  -5.3208  -5.1934  -5.1571  -5.0804  -5.0465  -5.0129  -4.9537
    -4.8776  -4.7865  -4.7484  -4.6672  -4.5601  -4.3742  -4.2441  -4.0980
    -4.0356  -3.9467  -3.8252  -3.7937  -3.7050  -3.6686  -3.5772  -3.5094
    -3.4279  -3.2702  -3.2279  -3.1505   0.3408   0.4542   0.4897   0.9533
     1.0436   1.1054   1.1637   1.2306   1.3048   1.3271   1.3963   1.4505
     1.5634   1.6238   1.6425   1.6769   1.7041   1.7292   1.8474   1.8782
     1.9141   2.0254   2.0754   2.1513   2.1849   2.2840   2.5063   2.5293
     2.6880   2.7005   2.8144   2.8966   2.9222   2.9446   3.0775   3.2475
     3.3880   3.6812   3.8530   3.9115   4.3604   4.7007   4.7068   5.0307
     5.1741   5.3181   5.6014   5.8049   6.1137   6.2913   6.4389   6.5955
     6.6787   6.8887   7.0447   7.1374   7.1998   7.2975   7.5624   7.6670
     7.7457   7.8946   8.2254   8.3501   8.5305   8.6808   8.7901   8.8983
     9.0743   9.2803   9.3375   9.5296   9.6944   9.8377   9.8937   9.9601
    10.3443  10.4150  10.5391  10.5588  10.6392  10.7684  10.9551  10.9727
    11.0261  11.0536  11.2333  11.3700  11.4924  11.5710  11.6778  11.7777
    11.8410  11.8749  11.9817  12.0173  12.2954  12.3997  12.5182  12.5618
    12.6712  12.7670  12.8425  12.8783  12.9470  13.0338  13.1181  13.1608
    13.2283  13.3248  13.4893  13.5490  13.5766  13.6411  13.7415  13.8115
    13.8910  13.9666  14.0664  14.1067  14.1454  14.2752  14.3266  14.4256
    14.4817  14.5353  14.5808  14.6491  14.6956  14.7754  14.8594  14.8795
    14.9344  15.0311  15.0784  15.2334  15.2817  15.3726  15.4029  15.4853
    15.5438  15.6014  15.7204  15.7981  15.8403  15.8700  15.9519  15.9704
    16.0102  16.0653  16.1295  16.1787  16.2196  16.2357  16.2736  16.3365
    16.3616  16.4427  16.5223  16.6103  16.6896  16.7467  16.8126  16.8581
    16.8709  16.9071  17.0049  17.0989  17.1870  17.1978  17.3103  17.3506
    17.4014  17.4261  17.5292  17.5968  17.6860  17.7237  17.8364  17.8980
    17.9321  17.9774  18.0499  18.0772  18.1572  18.2902  18.3534  18.4356
    18.4866  18.5724  18.6092  18.7205  18.9140  18.9500  19.0879  19.1876
    19.2703  19.3743  19.4501  19.5187  19.5928  19.6093  19.7273  19.7902
    19.8814  19.9018  19.9361  19.9531  20.0225  20.0484  20.1003  20.1424
    20.1798  20.2429  20.3736  20.4161  20.5182  20.6455  20.7254  20.7710
    20.8959  20.9265  21.0211  21.0894  21.1992  21.3206

          k =-0.5000-0.4682 0.0000 ( 27168 PWs)   bands (ev):

   -73.8735 -72.5997 -72.5607 -72.4675 -72.4552 -72.3804 -72.2956 -72.2715
   -45.5045 -45.2361 -44.9177 -44.1674 -44.1184 -44.0933 -44.0619 -44.0442
   -44.0114 -44.0101 -43.8932 -43.8882 -43.8643 -43.7875 -43.7359 -43.7036
   -43.6639 -43.6514 -43.6225 -43.5969 -43.5795 -43.5742 -43.3666 -43.3553
   -20.8114 -20.7695 -20.4796 -20.4648 -20.4277 -20.3800 -20.2300 -20.1947
   -20.0054 -19.9883 -19.8580 -19.8342 -19.7720 -19.7554 -19.6484 -19.5332
   -19.3954 -19.3718 -19.3312  -8.3784  -8.3670  -7.8627  -7.7232  -7.6069
    -7.4002  -7.3023  -7.1995  -7.1371  -7.0501  -7.0369  -6.9115  -6.8762
    -6.8281  -6.8160  -6.7350  -6.6723  -6.5665  -6.5020  -6.4645  -6.3713
    -6.3229  -6.2749  -6.2224  -6.0827  -5.9394  -5.8889  -5.7355  -5.6471
    -5.5252  -5.4911  -5.4313  -5.3672  -5.3083  -5.1713  -5.1280  -5.0226
    -4.9163  -4.8412  -4.8086  -4.7314  -4.6328  -4.4321  -4.1918  -4.0085
    -3.9430  -3.8990  -3.8088  -3.7760  -3.7238  -3.6564  -3.5687  -3.5587
    -3.4162  -3.2209  -3.1433  -3.1124   0.3431   0.4432   0.4528   0.9505
     1.0367   1.1086   1.1838   1.2121   1.2682   1.3588   1.4485   1.5874
     1.6569   1.7062   1.7361   1.7881   1.9223   1.9501   2.0116   2.0419
     2.0536   2.0958   2.1262   2.1458   2.1809   2.2207   2.2559   2.2636
     2.4289   2.4541   2.6090   2.7372   2.8425   3.1361   3.1500   3.2456
     3.4927   3.8051   3.8257   3.8460   4.5506   5.1620   5.1663   5.5795
     5.5812   5.6894   5.7007   5.7829   5.8880   5.9871   6.0279   6.1043
     6.3123   6.4671   6.5462   6.6375   6.8934   7.0536   7.2087   7.3235
     7.5994   7.7810   8.0018   8.1537   8.2753   8.4820   8.6986   8.8867
     9.0755   9.3033   9.3556   9.4483   9.5045   9.5841   9.8419  10.0378
    10.1071  10.3810  10.7296  10.8765  11.0043  11.1169  11.2161  11.3067
    11.3306  11.3988  11.5015  11.9007  12.1208  12.2739  12.4609  12.5015
    12.5656  12.6627  12.6934  12.7193  12.8919  12.9584  13.0251  13.0796
    13.2043  13.2400  13.2962  13.4166  13.5616  13.5692  13.6041  13.6355
    13.6860  13.7019  13.7239  13.7551  13.7812  13.8175  13.8538  13.9800
    14.0191  14.0345  14.0859  14.1155  14.1239  14.2975  14.3296  14.4139
    14.4967  14.5250  14.6165  14.6203  14.6776  14.7426  14.7579  14.7804
    14.7932  14.8285  14.8353  14.8669  14.9703  15.0357  15.0946  15.1272
    15.1827  15.2385  15.2587  15.3195  15.3380  15.3718  15.4248  15.4528
    15.5317  15.5946  15.6476  15.7011  15.7544  15.7760  15.8312  15.8674
    15.9612  16.0500  16.0903  16.1239  16.2320  16.3362  16.3533  16.5166
    16.5662  16.6153  16.6620  16.7869  16.8330  16.9497  16.9942  17.0683
    17.0981  17.1512  17.1860  17.2402  17.2802  17.3204  17.3862  17.4863
    17.5286  17.7558  17.8408  17.9130  17.9521  17.9996  18.0295  18.0668
    18.1341  18.1897  18.2710  18.4552  18.6107  18.6839  18.7804  18.8896
    18.9081  18.9764  19.0135  19.0552  19.1707  19.2672  19.2980  19.4096
    19.6118  19.9433  20.0232  20.0474  20.0851  20.2433  20.2774  20.3603
    20.4086  20.5003  20.7569  20.8373  20.8925  20.9977  21.1726  21.2158
    21.3559  21.4543  21.5420  21.5653  21.6550  21.7217

          k =-0.2500 0.2341 0.0000 ( 27132 PWs)   bands (ev):

   -73.8734 -72.5997 -72.5607 -72.4670 -72.4551 -72.3800 -72.2965 -72.2701
   -45.5066 -45.2362 -44.9179 -44.1676 -44.1213 -44.0936 -44.0591 -44.0476
   -44.0112 -44.0099 -43.9063 -43.8792 -43.8566 -43.7874 -43.7410 -43.6997
   -43.6912 -43.6787 -43.6619 -43.5777 -43.5412 -43.5343 -43.4251 -43.2965
   -21.1671 -20.8111 -20.5808 -20.5458 -20.3709 -20.3001 -20.1257 -20.0537
   -20.0135 -19.9478 -19.8388 -19.7331 -19.6738 -19.6653 -19.6373 -19.5388
   -19.4251 -19.3611 -19.3391  -8.5676  -8.3833  -8.0995  -7.9943  -7.8399
    -7.8165  -7.5311  -7.4459  -7.3672  -7.3148  -7.2258  -7.0971  -6.9937
    -6.9525  -6.8160  -6.7757  -6.6835  -6.6457  -6.5114  -6.3482  -6.3102
    -6.2330  -6.0951  -5.8975  -5.8771  -5.6957  -5.6001  -5.5671  -5.3858
    -5.3427  -5.2981  -5.2380  -5.1895  -5.1010  -5.0159  -4.9908  -4.9403
    -4.7990  -4.6950  -4.5620  -4.3839  -4.3450  -4.2499  -4.1932  -4.1082
    -4.0663  -3.9859  -3.9182  -3.8687  -3.7724  -3.6434  -3.6024  -3.5836
    -3.3759  -3.3350  -3.2200  -3.0292   0.2712   0.4537   0.4844   0.9351
     0.9880   1.0596   1.1229   1.1665   1.2183   1.2648   1.3818   1.4689
     1.5095   1.5846   1.6134   1.6637   1.7225   1.7782   1.8387   1.8987
     1.9966   2.0345   2.1200   2.1609   2.2132   2.2661   2.3868   2.4780
     2.5509   2.7651   2.9276   2.9647   3.0422   3.2085   3.3136   3.3547
     3.4072   3.6551   3.7943   3.8280   3.9280   4.0856   4.3668   4.8228
     5.3467   5.7291   5.8886   5.9041   6.1834   6.2972   6.4430   6.6026
     6.7756   6.9136   7.0408   7.3402   7.4630   7.6932   7.8936   7.9936
     8.0833   8.3219   8.4139   8.5400   8.6775   8.8272   8.9877   9.1105
     9.2572   9.3157   9.4328   9.5430   9.6097   9.7789   9.8465  10.0234
    10.1493  10.2291  10.3090  10.4174  10.5067  10.6238  10.7047  10.8302
    10.9254  11.0173  11.1138  11.2211  11.2824  11.3968  11.4673  11.5914
    11.6576  11.7436  11.8646  11.9676  12.0609  12.1247  12.1730  12.2661
    12.3700  12.3899  12.5648  12.6575  12.7218  12.8287  12.9194  12.9706
    12.9777  13.0599  13.0869  13.1548  13.2097  13.3002  13.3451  13.4258
    13.5267  13.6272  13.6918  13.7607  13.8714  13.8988  13.9650  14.0662
    14.1340  14.2057  14.3323  14.4596  14.5156  14.5969  14.6667  14.7557
    14.8033  14.8476  14.9672  15.0416  15.0810  15.2384  15.3059  15.3819
    15.4687  15.5622  15.6165  15.6794  15.7464  15.7566  15.8892  15.9954
    16.0132  16.1164  16.1978  16.2371  16.3002  16.3977  16.4722  16.5110
    16.5863  16.7237  16.7464  16.8446  16.8877  16.9451  17.0064  17.1104
    17.2018  17.2239  17.3105  17.4120  17.4442  17.5297  17.5754  17.6042
    17.7181  17.7374  17.7689  17.8546  17.9403  18.0325  18.1038  18.1632
    18.2460  18.3053  18.3635  18.3913  18.4499  18.6245  18.7297  18.7838
    18.8257  18.8972  18.9615  18.9923  19.0762  19.1569  19.2430  19.3146
    19.4056  19.4312  19.5318  19.6038  19.6418  19.6764  19.7549  19.8652
    19.8915  19.9979  20.1124  20.1855  20.2327  20.3367  20.3926  20.5131
    20.5870  20.7097  20.7487  20.8311  20.8975  20.9552  21.0509  21.1384
    21.1834  21.2432  21.3366  21.3966  21.4094  21.5323

     the spin up/dw Fermi energies are    -1.8902   -2.8434 ev

!    total energy              =   -2025.29062013 Ry
     Harris-Foulkes estimate   =   -2025.29062014 Ry
     estimated scf accuracy    <          7.4E-09 Ry

     The total energy is the sum of the following terms:

     one-electron contribution =  -24088.63499775 Ry
     hartree contribution      =   12064.04534416 Ry
     xc contribution           =    -322.97081223 Ry
     ewald contribution        =   10320.59347135 Ry
     Hubbard energy            =       1.67596196 Ry
     smearing contrib. (-TS)   =       0.00041238 Ry

     total magnetization       =    15.00 Bohr mag/cell
     absolute magnetization    =    24.10 Bohr mag/cell

     convergence has been achieved in  18 iterations

     Forces acting on atoms (Ry/au):


     negative rho (up, down):  0.522E-02 0.181E-02
     atom    1 type  1   force =    -0.00310356   -0.01085232    0.00026411
     atom    2 type  1   force =    -0.00026929    0.00564759   -0.00022825
     atom    3 type  2   force =     0.02756537   -0.00120115    0.00035755
     atom    4 type  2   force =     0.00097494    0.00703598   -0.00038431
     atom    5 type  1   force =    -0.00029509    0.00547688    0.00008214
     atom    6 type  1   force =     0.00044714   -0.00371319    0.00013560
     atom    7 type  1   force =     0.00291166   -0.00190546    0.00053136
     atom    8 type  1   force =    -0.01833665   -0.00080130    0.00047058
     atom    9 type  2   force =     0.00829490    0.00122036   -0.00019127
     atom   10 type  2   force =    -0.00348527    0.00000653    0.00030779
     atom   11 type  1   force =    -0.02505816   -0.03368726   -0.00077854
     atom   12 type  1   force =    -0.02487840    0.03284755   -0.00085190
     atom   13 type  1   force =    -0.03710733    0.00002775   -0.00012637
     atom   14 type  1   force =    -0.00721267   -0.01182693    0.00008850
     atom   15 type  1   force =     0.00056646    0.00698803   -0.00008071
     atom   16 type  2   force =    -0.02938288   -0.00035895    0.00029422
     atom   17 type  2   force =     0.00744076    0.00677020   -0.00060375
     atom   18 type  1   force =     0.00142126    0.00481057    0.00016543
     atom   19 type  1   force =     0.00233303   -0.00337544    0.00019374
     atom   20 type  1   force =     0.00081667   -0.00240130    0.00041248
     atom   21 type  1   force =     0.01423857    0.00023456    0.00072325
     atom   22 type  2   force =     0.00269460   -0.00003662   -0.00021451
     atom   23 type  2   force =    -0.00825529    0.00027968    0.00066498
     atom   24 type  1   force =     0.02581374   -0.01660976    0.00003197
     atom   25 type  1   force =     0.02618347    0.01675183    0.00004210
     atom   26 type  1   force =     0.03512772   -0.00017113    0.00013419
     atom   27 type  3   force =    -0.00004417   -0.00026803   -0.00086652
     atom   28 type  3   force =    -0.00001156   -0.00031724   -0.00076287
     atom   29 type  3   force =     0.00008664   -0.00042557    0.00031401
     atom   30 type  3   force =     0.00011835   -0.00013511    0.00024849
     atom   31 type  1   force =     0.00018410    0.00003387   -0.00071897
     atom   32 type  3   force =     0.00022093   -0.00004462    0.00034549

     Total force =     0.002598     Total SCF correction =     0.000154

     bfgs converged in  12 scf cycles and  11 bfgs steps
     (criteria: energy < 0.10E-03, force < 0.10E-02)

     End of BFGS Geometry Optimization

     Final energy   =   -2025.2906201349 Ry
Begin final coordinates

ATOMIC_POSITIONS (crystal)
O0       0.000000000   0.000000000   0.377234293    0   0   1
O0       0.000000000   0.500000000   0.398035385    0   0   1
Cr1      0.250000000   0.500000000   0.450079755    0   0   1
Cr1      0.000000000   0.000000000   0.449272109    0   0   1
O0       0.250000000   0.800000000   0.449569672    0   0   1
O0       0.250000000   0.200000000   0.449643340    0   0   1
O0       0.000000000   0.500000000   0.497147526    0   0   1
O0       0.000000000   0.000000000   0.523377984    0   0   1
Cr1      0.250000000   0.000000000   0.569531941    0   0   1
Cr1      0.000000000   0.500000000   0.565618716    0   0   1
O0       0.250000000   0.700000000   0.574337634    0   0   1
O0       0.250000000   0.300000000   0.574434296    0   0   1
O0       0.000000000   0.000000000   0.619098820    0   0   1
O0       0.500000000   0.000000000   0.377150026    0   0   1
O0       0.500000000   0.500000000   0.398577269    0   0   1
Cr1      0.750000000   0.500000000   0.450079273    0   0   1
Cr1      0.500000000   0.000000000   0.449509584    0   0   1
O0       0.750000000   0.800000000   0.449592995    0   0   1
O0       0.750000000   0.200000000   0.449624901    0   0   1
O0       0.500000000   0.500000000   0.499976205    0   0   1
O0       0.500000000   0.000000000   0.523842192    0   0   1
Cr1      0.750000000   0.000000000   0.583042590    0   0   1
Cr1      0.500000000   0.500000000   0.576139140    0   0   1
O0       0.750000000   0.700000000   0.575141104    0   0   1
O0       0.750000000   0.300000000   0.575112920    0   0   1
O0       0.500000000   0.000000000   0.618976418    0   0   1
H2      -0.000598248   0.639470612   0.379634014
H2       0.499534082   0.638920898   0.379868163
H2       0.158083116   0.029501462   0.364494957
H2       0.657359709   0.030283838   0.364290555
O0       0.515581174   0.499742859   0.646857144
H2       0.363599474   0.497934339   0.663439078
End final coordinates



     init_run     :    111.91s CPU    121.81s WALL (       1 calls)
     electrons    :  62360.83s CPU  65119.18s WALL (      12 calls)
     update_pot   :    195.66s CPU    204.96s WALL (      11 calls)
     forces       :   2347.33s CPU   2420.10s WALL (      12 calls)

     Called by init_run:
     wfcinit      :     47.63s CPU     56.00s WALL (       1 calls)
     potinit      :      7.58s CPU      7.89s WALL (       1 calls)

     Called by electrons:
     c_bands      :  34929.12s CPU  36469.61s WALL (     268 calls)
     sum_band     :  14055.83s CPU  14684.03s WALL (     268 calls)
     v_of_rho     :    554.79s CPU    626.64s WALL (     278 calls)
     newd         :  12970.63s CPU  13051.45s WALL (     278 calls)
     mix_rho      :     98.66s CPU    101.41s WALL (     268 calls)

     Called by c_bands:
     init_us_2    :     89.89s CPU     90.60s WALL (    2865 calls)
     cegterg      :  34047.05s CPU  35099.44s WALL (    1340 calls)

     Called by *egterg:
     h_psi        :  19400.38s CPU  20041.68s WALL (    3767 calls)
     s_psi        :   2081.03s CPU   2115.11s WALL (    3887 calls)
     g_psi        :     44.58s CPU     44.68s WALL (    2422 calls)
     cdiaghg      :   3385.18s CPU   3399.69s WALL (    3697 calls)

     Called by h_psi:
     add_vuspsi   :   2035.66s CPU   2072.42s WALL (    3767 calls)
     vhpsi        :   2008.38s CPU   2048.36s WALL (    3767 calls)

     General routines
     calbec       :   4707.39s CPU   4774.96s WALL (   27734 calls)
     fft          :    652.09s CPU    825.73s WALL (    8742 calls)
     ffts         :      7.43s CPU      7.91s WALL (    1092 calls)
     fftw         :  10904.17s CPU  11525.71s WALL ( 2349148 calls)
     interpolate  :     75.52s CPU     76.75s WALL (    1092 calls)
     davcio       :      0.18s CPU     49.69s WALL (    2925 calls)

     Parallel routines
     fft_scatter  :   4270.89s CPU   5038.78s WALL ( 2358982 calls)
     Hubbard U routines
     new_ns       :    421.90s CPU    449.98s WALL (     268 calls)
     vhpsi        :   2008.38s CPU   2048.36s WALL (    3767 calls)
     force_hub    :    601.05s CPU    624.01s WALL (      12 calls)

     PWSCF        :    18h13m CPU       19h 0m WALL


   This run was terminated on:  20:23:14   5May2014            

=------------------------------------------------------------------------------=
   JOB DONE.
=------------------------------------------------------------------------------=
---------------------------------------
Running PBS batch system epilogue script
Job id: 340729.audhumbla.fysik.dtu.dk
Username: zhonxu
Groupname: campgst
Jobname: CrO2/Eads-2-layers/OH-U-3.5
Sessionid: 6546
Resources limits: neednodes=2:ppn=8:xeon8,nodes=2:ppn=8:xeon8,walltime=48:00:00
Resources used: cput=303:42:40,mem=17293236kb,vmem=21366188kb,walltime=19:00:49
Queuename: verylong
Accounting:
This job has allocated the following 16 nodes:
b022 b022 b022 b022 b022 b022 b022 b022 b010 b010 b010 b010 b010 b010 b010 b010
Finished epilogue job 340729.audhumbla.fysik.dtu.dk for zhonxu
