
     Program PWSCF v.5.0.2 (svn rev. 9656) starts on 30Apr2014 at  2:55:28 

     This program is part of the open-source Quantum ESPRESSO suite
     for quantum simulation of materials; please cite
         "P. Giannozzi et al., J. Phys.:Condens. Matter 21 395502 (2009);
          URL http://www.quantum-espresso.org", 
     in publications or presentations arising from this work. More details at
     http://www.quantum-espresso.org/quote.php

     Parallel version (MPI), running on    16 processors
     K-points division:     npool     =       4
     R & G space division:  proc/nbgrp/npool/nimage =       4

     Current dimensions of program PWSCF are:
     Max number of different atomic species (ntypx) = 10
     Max number of k-points (npk) =  40000
     Max angular momentum in pseudopotentials (lmaxx) =  3
     Reading input from pwscf.in
Warning: card &CELL ignored
Warning: card / ignored

     Subspace diagonalization in iterative solution of the eigenvalue problem:
     a serial algorithm will be used


     Parallelization info
     --------------------
     sticks:   dense  smooth     PW     G-vecs:    dense   smooth      PW
     Min        1386     442    124               330660    59845    8892
     Max        1388     443    125               330662    59871    8899
     Sum        5547    1771    497              1322643   239441   35575



     bravais-lattice index     =            0
     lattice parameter (alat)  =      11.2250  a.u.
     unit-cell volume          =    7005.5484 (a.u.)^3
     number of atoms/cell      =           32
     number of atomic types    =            3
     number of electrons       =       215.00
     number of Kohn-Sham states=          310
     kinetic-energy cutoff     =      40.0000  Ry
     charge density cutoff     =     500.0000  Ry
     convergence threshold     =      1.0E-06
     mixing beta               =       0.7000
     number of iterations used =            8  plain     mixing
     Exchange-correlation      = SLA  PW   PBE  PBE ( 1 4 3 4 0)
     EXX-fraction              =        0.00
     nstep                     =           50


     celldm(1)=  11.224973  celldm(2)=   0.000000  celldm(3)=   0.000000
     celldm(4)=   0.000000  celldm(5)=   0.000000  celldm(6)=   0.000000

     crystal axes: (cart. coord. in units of alat)
               a(1) = (   1.000000   0.000000   0.000000 )  
               a(2) = (   0.000000   1.107086   0.000000 )  
               a(3) = (   0.000000   0.000000   4.474090 )  

     reciprocal axes: (cart. coord. in units 2 pi/alat)
               b(1) = (  1.000000  0.000000  0.000000 )  
               b(2) = (  0.000000  0.903272  0.000000 )  
               b(3) = (  0.000000  0.000000  0.223509 )  


     PseudoPot. # 1 for O  read from file:
     /home/camp/zhonxu/pseudo/o_pbe_v1.01.uspp.F.UPF
     MD5 check sum: 2bcb18d16ea4b960afae9ec6d52f22d2
     Pseudo is Ultrasoft + core correction, Zval =  6.0
     Generated by new atomic code, or converted to UPF format
     Using radial grid of  737 points,  5 beta functions with: 
                l(1) =   0
                l(2) =   0
                l(3) =   1
                l(4) =   1
                l(5) =   2
     Q(r) pseudized with  8 coefficients,  rinner =    0.900   0.900   0.900
                                                       0.900   0.900

     PseudoPot. # 2 for Ti read from file:
     /home/camp/zhonxu/pseudo/ti_pbe_v1.uspp.F.UPF
     MD5 check sum: bcc8f6961b3b91f0cac3ca967d22d0fb
     Pseudo is Ultrasoft + core correction, Zval = 12.0
     Generated by new atomic code, or converted to UPF format
     Using radial grid of  851 points,  6 beta functions with: 
                l(1) =   0
                l(2) =   0
                l(3) =   1
                l(4) =   1
                l(5) =   2
                l(6) =   2
     Q(r) pseudized with  6 coefficients,  rinner =    1.000   1.000   1.000
                                                       1.000   1.000

     PseudoPot. # 3 for H  read from file:
     /home/camp/zhonxu/pseudo/h_pbe_v1.uspp.F.UPF
     MD5 check sum: 3408e3ff4ec8b0a4e358431e7e038a48
     Pseudo is Ultrasoft, Zval =  1.0
     Generated by new atomic code, or converted to UPF format
     Using radial grid of  615 points,  2 beta functions with: 
                l(1) =   0
                l(2) =   0
     Q(r) pseudized with  8 coefficients,  rinner =    0.700

     atomic species   valence    mass     pseudopotential
        O0             6.00    15.99940     O ( 1.00)
        Ti1           12.00    47.88000     Ti( 1.00)
        H2             1.00     1.00794     H ( 1.00)


     Simplified LDA+U calculation (l_max = 2) with parameters (eV):
     atomic species    L          U    alpha       J0     beta
        Ti1            2     2.0000   0.0000   0.0000   0.0000



     No symmetry found



   Cartesian axes

     site n.     atom                  positions (alat units)
         1           O0  tau(   1) = (   0.0000000   0.0000000   1.6864186  )
         2           O0  tau(   2) = (   0.0000000   0.5535432   1.7740213  )
         3           Ti1 tau(   3) = (   0.2500000   0.5535432   2.0074793  )
         4           Ti1 tau(   4) = (   0.0000000   0.0000000   2.0324447  )
         5           O0  tau(   5) = (   0.2500000   0.8967400   2.0044817  )
         6           O0  tau(   6) = (   0.2500000   0.2103464   2.0092242  )
         7           O0  tau(   7) = (   0.0000000   0.5535432   2.2196854  )
         8           O0  tau(   8) = (   0.0000000   0.0000000   2.3507315  )
         9           Ti1 tau(   9) = (   0.2500000   0.0000000   2.6021753  )
        10           Ti1 tau(  10) = (   0.0000000   0.5535432   2.5345718  )
        11           O0  tau(  11) = (   0.2500000   0.7638896   2.5931377  )
        12           O0  tau(  12) = (   0.2500000   0.3431968   2.5930482  )
        13           O0  tau(  13) = (   0.0000000   0.0000000   2.7844945  )
        14           O0  tau(  14) = (   0.5000000   0.0000000   1.6873582  )
        15           O0  tau(  15) = (   0.5000000   0.5535432   1.7709789  )
        16           Ti1 tau(  16) = (   0.7500000   0.5535432   2.0079715  )
        17           Ti1 tau(  17) = (   0.5000000   0.0000000   2.0352187  )
        18           O0  tau(  18) = (   0.7500000   0.8967400   2.0040790  )
        19           O0  tau(  19) = (   0.7500000   0.2103464   2.0094479  )
        20           O0  tau(  20) = (   0.5000000   0.5535432   2.1971360  )
        21           O0  tau(  21) = (   0.5000000   0.0000000   2.3514026  )
        22           Ti1 tau(  22) = (   0.7500000   0.0000000   2.6024885  )
        23           Ti1 tau(  23) = (   0.5000000   0.5535432   2.6568935  )
        24           O0  tau(  24) = (   0.7500000   0.7638896   2.5904532  )
        25           O0  tau(  25) = (   0.7500000   0.3431968   2.5901848  )
        26           O0  tau(  26) = (   0.5000000   0.0000000   2.7844945  )
        27           H2  tau(  27) = (  -0.0007700   0.6889399   1.6773810  )
        28           H2  tau(  28) = (   0.4993300   0.6850208   1.6695513  )
        29           H2  tau(  29) = (   0.1496500   0.0435638   1.6275396  )
        30           H2  tau(  30) = (   0.6495100   0.0435638   1.6281213  )
        31           O0  tau(  31) = (   0.5047900   0.5534214   2.9586261  )
        32           H2  tau(  32) = (   0.3766100   0.5530007   3.0621118  )

     number of k points=    10  Methfessel-Paxton smearing, width (Ry)=  0.0100
                       cart. coord. in units 2pi/alat
        k(    1) = (   0.0000000   0.0000000   0.0000000), wk =   0.1250000
        k(    2) = (   0.0000000   0.2258180   0.0000000), wk =   0.2500000
        k(    3) = (   0.0000000  -0.4516359   0.0000000), wk =   0.1250000
        k(    4) = (   0.2500000   0.0000000   0.0000000), wk =   0.2500000
        k(    5) = (   0.2500000   0.2258180   0.0000000), wk =   0.2500000
        k(    6) = (   0.2500000  -0.4516359   0.0000000), wk =   0.2500000
        k(    7) = (  -0.5000000   0.0000000   0.0000000), wk =   0.1250000
        k(    8) = (  -0.5000000   0.2258180   0.0000000), wk =   0.2500000
        k(    9) = (  -0.5000000  -0.4516359   0.0000000), wk =   0.1250000
        k(   10) = (  -0.2500000   0.2258180   0.0000000), wk =   0.2500000

     Dense  grid:  1322643 G-vectors     FFT dimensions: (  80,  90, 360)

     Smooth grid:   239441 G-vectors     FFT dimensions: (  45,  54, 216)

     Largest allocated arrays     est. size (Mb)     dimensions
        Kohn-Sham Wavefunctions        35.79 Mb     (   7566,  310)
        Atomic wavefunctions           18.59 Mb     (   7566,  161)
        NL pseudopotentials            46.29 Mb     (   7566,  401)
        Each V/rho on FFT grid          9.89 Mb     ( 648000)
        Each G-vector array             2.52 Mb     ( 330661)
        G-vector shells                 1.08 Mb     ( 141764)
     Largest temporary arrays     est. size (Mb)     dimensions
        Auxiliary wavefunctions       143.16 Mb     (   7566, 1240)
        Each subspace H/S matrix       23.46 Mb     (1240,1240)
        Each <psi_i|beta_j> matrix      1.90 Mb     (    401,  310)
        Arrays for rho mixing          79.10 Mb     ( 648000,   8)

     Check: negative/imaginary core charge=   -0.000006    0.000000

     Initial potential from superposition of free atoms
     Check: negative starting charge=   -0.102331

     starting charge  206.99957, renormalised to  215.00000

     negative rho (up, down):  0.106E+00 0.000E+00
     Number of +U iterations with fixed ns =  0
     Starting occupations:
 --- enter write_ns ---
 LDA+U parameters:
U( 2)     =  2.00000000
alpha( 2) =  0.00000000
atom    3   Tr[ns(na)] =   2.00000
    eigenvalues: 
  0.200  0.200  0.200  0.200  0.200
    eigenvectors:
  1.000  0.000  0.000  0.000  0.000
  0.000  1.000  0.000  0.000  0.000
  0.000  0.000  1.000  0.000  0.000
  0.000  0.000  0.000  1.000  0.000
  0.000  0.000  0.000  0.000  1.000
    occupations:
  0.200  0.000  0.000  0.000  0.000
  0.000  0.200  0.000  0.000  0.000
  0.000  0.000  0.200  0.000  0.000
  0.000  0.000  0.000  0.200  0.000
  0.000  0.000  0.000  0.000  0.200
atom    4   Tr[ns(na)] =   2.00000
    eigenvalues: 
  0.200  0.200  0.200  0.200  0.200
    eigenvectors:
  1.000  0.000  0.000  0.000  0.000
  0.000  1.000  0.000  0.000  0.000
  0.000  0.000  1.000  0.000  0.000
  0.000  0.000  0.000  1.000  0.000
  0.000  0.000  0.000  0.000  1.000
    occupations:
  0.200  0.000  0.000  0.000  0.000
  0.000  0.200  0.000  0.000  0.000
  0.000  0.000  0.200  0.000  0.000
  0.000  0.000  0.000  0.200  0.000
  0.000  0.000  0.000  0.000  0.200
atom    9   Tr[ns(na)] =   2.00000
    eigenvalues: 
  0.200  0.200  0.200  0.200  0.200
    eigenvectors:
  1.000  0.000  0.000  0.000  0.000
  0.000  1.000  0.000  0.000  0.000
  0.000  0.000  1.000  0.000  0.000
  0.000  0.000  0.000  1.000  0.000
  0.000  0.000  0.000  0.000  1.000
    occupations:
  0.200  0.000  0.000  0.000  0.000
  0.000  0.200  0.000  0.000  0.000
  0.000  0.000  0.200  0.000  0.000
  0.000  0.000  0.000  0.200  0.000
  0.000  0.000  0.000  0.000  0.200
atom   10   Tr[ns(na)] =   2.00000
    eigenvalues: 
  0.200  0.200  0.200  0.200  0.200
    eigenvectors:
  1.000  0.000  0.000  0.000  0.000
  0.000  1.000  0.000  0.000  0.000
  0.000  0.000  1.000  0.000  0.000
  0.000  0.000  0.000  1.000  0.000
  0.000  0.000  0.000  0.000  1.000
    occupations:
  0.200  0.000  0.000  0.000  0.000
  0.000  0.200  0.000  0.000  0.000
  0.000  0.000  0.200  0.000  0.000
  0.000  0.000  0.000  0.200  0.000
  0.000  0.000  0.000  0.000  0.200
atom   16   Tr[ns(na)] =   2.00000
    eigenvalues: 
  0.200  0.200  0.200  0.200  0.200
    eigenvectors:
  1.000  0.000  0.000  0.000  0.000
  0.000  1.000  0.000  0.000  0.000
  0.000  0.000  1.000  0.000  0.000
  0.000  0.000  0.000  1.000  0.000
  0.000  0.000  0.000  0.000  1.000
    occupations:
  0.200  0.000  0.000  0.000  0.000
  0.000  0.200  0.000  0.000  0.000
  0.000  0.000  0.200  0.000  0.000
  0.000  0.000  0.000  0.200  0.000
  0.000  0.000  0.000  0.000  0.200
atom   17   Tr[ns(na)] =   2.00000
    eigenvalues: 
  0.200  0.200  0.200  0.200  0.200
    eigenvectors:
  1.000  0.000  0.000  0.000  0.000
  0.000  1.000  0.000  0.000  0.000
  0.000  0.000  1.000  0.000  0.000
  0.000  0.000  0.000  1.000  0.000
  0.000  0.000  0.000  0.000  1.000
    occupations:
  0.200  0.000  0.000  0.000  0.000
  0.000  0.200  0.000  0.000  0.000
  0.000  0.000  0.200  0.000  0.000
  0.000  0.000  0.000  0.200  0.000
  0.000  0.000  0.000  0.000  0.200
atom   22   Tr[ns(na)] =   2.00000
    eigenvalues: 
  0.200  0.200  0.200  0.200  0.200
    eigenvectors:
  1.000  0.000  0.000  0.000  0.000
  0.000  1.000  0.000  0.000  0.000
  0.000  0.000  1.000  0.000  0.000
  0.000  0.000  0.000  1.000  0.000
  0.000  0.000  0.000  0.000  1.000
    occupations:
  0.200  0.000  0.000  0.000  0.000
  0.000  0.200  0.000  0.000  0.000
  0.000  0.000  0.200  0.000  0.000
  0.000  0.000  0.000  0.200  0.000
  0.000  0.000  0.000  0.000  0.200
atom   23   Tr[ns(na)] =   2.00000
    eigenvalues: 
  0.200  0.200  0.200  0.200  0.200
    eigenvectors:
  1.000  0.000  0.000  0.000  0.000
  0.000  1.000  0.000  0.000  0.000
  0.000  0.000  1.000  0.000  0.000
  0.000  0.000  0.000  1.000  0.000
  0.000  0.000  0.000  0.000  1.000
    occupations:
  0.200  0.000  0.000  0.000  0.000
  0.000  0.200  0.000  0.000  0.000
  0.000  0.000  0.200  0.000  0.000
  0.000  0.000  0.000  0.200  0.000
  0.000  0.000  0.000  0.000  0.200
N of occupied +U levels =  16.0000000
 --- exit write_ns ---
 Atomic wfc used for LDA+U Projector are NOT orthogonalized
     Starting wfc are  161 randomized atomic wfcs

     total cpu time spent up to now is      100.6 secs

     per-process dynamical memory:   377.4 Mb

     Self-consistent Calculation

     iteration #  1     ecut=    40.00 Ry     beta=0.70
     Davidson diagonalization with overlap
     ethr =  1.00E-02,  avg # of iterations =  6.0
 --- enter write_ns ---
 LDA+U parameters:
U( 2)     =  2.00000000
alpha( 2) =  0.00000000
atom    3   Tr[ns(na)] =   1.98436
    eigenvalues: 
  0.107  0.128  0.145  0.283  0.329
    eigenvectors:
  0.080  0.057  0.709  0.152  0.002
  0.001  0.002  0.002  0.045  0.949
  0.829  0.032  0.138  0.001  0.000
  0.023  0.011  0.118  0.802  0.046
  0.066  0.898  0.032  0.000  0.003
    occupations:
  0.163  0.004 -0.009  0.052  0.001
  0.004  0.326  0.002 -0.012  0.012
 -0.009  0.002  0.113  0.010 -0.006
  0.052 -0.012  0.010  0.263 -0.001
  0.001  0.012 -0.006 -0.001  0.128
atom    4   Tr[ns(na)] =   2.16335
    eigenvalues: 
  0.123  0.130  0.154  0.320  0.355
    eigenvectors:
  0.001  0.010  0.005  0.000  0.984
  0.016  0.007  0.971  0.000  0.005
  0.973  0.009  0.018  0.000  0.001
  0.010  0.974  0.006  0.000  0.010
  0.000  0.000  0.000  1.000  0.000
    occupations:
  0.351  0.015  0.005 -0.022 -0.000
  0.015  0.155  0.004  0.000 -0.002
  0.005  0.004  0.123  0.000  0.000
 -0.022  0.000  0.000  0.132  0.000
 -0.000 -0.002  0.000  0.000  0.320
atom    9   Tr[ns(na)] =   2.71346
    eigenvalues: 
  0.177  0.202  0.311  0.332  0.334
    eigenvectors:
  0.922  0.001  0.077  0.000  0.000
  0.000  0.000  0.001  0.000  0.999
  0.000  0.133  0.000  0.866  0.000
  0.077  0.000  0.922  0.000  0.001
  0.000  0.866  0.000  0.133  0.000
    occupations:
  0.188 -0.001 -0.001  0.036  0.000
 -0.001  0.334 -0.000 -0.000  0.000
 -0.001 -0.000  0.315  0.001  0.044
  0.036 -0.000  0.001  0.301 -0.000
  0.000  0.000  0.044 -0.000  0.219
atom   10   Tr[ns(na)] =   3.57281
    eigenvalues: 
  0.149  0.258  0.304  0.370  0.706
    eigenvectors:
  0.000  0.981  0.000  0.000  0.019
  0.000  0.000  0.000  1.000  0.000
  1.000  0.000  0.000  0.000  0.000
  0.000  0.019  0.000  0.000  0.981
  0.000  0.000  1.000  0.000  0.000
    occupations:
  0.266 -0.000 -0.000  0.061 -0.000
 -0.000  0.370 -0.000 -0.002  0.000
 -0.000 -0.000  0.149 -0.000 -0.001
  0.061 -0.002 -0.000  0.698  0.000
 -0.000  0.000 -0.001  0.000  0.304
atom   16   Tr[ns(na)] =   1.98475
    eigenvalues: 
  0.107  0.128  0.145  0.283  0.329
    eigenvectors:
  0.077  0.067  0.703  0.151  0.002
  0.001  0.002  0.002  0.047  0.947
  0.825  0.035  0.139  0.001  0.000
  0.022  0.013  0.117  0.800  0.047
  0.075  0.883  0.039  0.000  0.003
    occupations:
  0.162 -0.004 -0.009  0.052 -0.002
 -0.004  0.326 -0.002  0.012  0.012
 -0.009 -0.002  0.113  0.009  0.006
  0.052  0.012  0.009  0.263  0.001
 -0.002  0.012  0.006  0.001  0.128
atom   17   Tr[ns(na)] =   2.14540
    eigenvalues: 
  0.124  0.129  0.153  0.317  0.350
    eigenvectors:
  0.001  0.011  0.004  0.000  0.985
  0.014  0.007  0.975  0.000  0.004
  0.956  0.027  0.017  0.000  0.000
  0.029  0.956  0.004  0.000  0.010
  0.000  0.000  0.000  1.000  0.000
    occupations:
  0.346  0.013  0.004 -0.022 -0.000
  0.013  0.153  0.004  0.000 -0.002
  0.004  0.004  0.125  0.000  0.000
 -0.022  0.000  0.000  0.131  0.000
 -0.000 -0.002  0.000  0.000  0.317
atom   22   Tr[ns(na)] =   2.71583
    eigenvalues: 
  0.177  0.199  0.311  0.334  0.336
    eigenvectors:
  0.924  0.000  0.076  0.000  0.000
  0.000  0.000  0.000  0.999  0.001
  0.000  0.127  0.000  0.001  0.872
  0.076  0.000  0.924  0.000  0.000
  0.000  0.873  0.000  0.000  0.127
    occupations:
  0.188 -0.000 -0.001  0.035  0.000
 -0.000  0.334  0.000  0.000  0.000
 -0.001  0.000  0.319  0.000 -0.045
  0.035  0.000  0.000  0.301 -0.000
  0.000  0.000 -0.045 -0.000  0.217
atom   23   Tr[ns(na)] =   2.44483
    eigenvalues: 
  0.187  0.191  0.241  0.287  0.317
    eigenvectors:
  0.032  0.000  0.052  0.000  0.916
  0.935  0.001  0.048  0.000  0.016
  0.001  0.999  0.000  0.000  0.000
  0.032  0.000  0.900  0.000  0.068
  0.000  0.000  0.000  1.000  0.000
    occupations:
  0.308  0.019  0.000  0.021 -0.000
  0.019  0.192 -0.000 -0.007 -0.000
  0.000 -0.000  0.191 -0.000  0.000
  0.021 -0.007 -0.000  0.244  0.000
 -0.000 -0.000  0.000  0.000  0.287
N of occupied +U levels =  19.7247830
 --- exit write_ns ---

     negative rho (up, down):  0.109E+00 0.000E+00

     total cpu time spent up to now is      400.0 secs

     total energy              =   -1550.23164506 Ry
     Harris-Foulkes estimate   =   -1568.96770049 Ry
     estimated scf accuracy    <      21.78420560 Ry

     iteration #  2     ecut=    40.00 Ry     beta=0.70
     Davidson diagonalization with overlap
     ethr =  1.00E-02,  avg # of iterations =  7.0

     negative rho (up, down):  0.111E+00 0.000E+00

     total cpu time spent up to now is      691.9 secs

     total energy              =   -1415.68898608 Ry
     Harris-Foulkes estimate   =   -1747.94741234 Ry
     estimated scf accuracy    <    3943.60696985 Ry

     iteration #  3     ecut=    40.00 Ry     beta=0.70
     Davidson diagonalization with overlap
     ethr =  1.00E-02,  avg # of iterations =  6.0

     negative rho (up, down):  0.106E+00 0.000E+00

     total cpu time spent up to now is     1005.5 secs

     total energy              =   -1554.46905879 Ry
     Harris-Foulkes estimate   =   -1575.01559676 Ry
     estimated scf accuracy    <     239.81846912 Ry

     iteration #  4     ecut=    40.00 Ry     beta=0.70
     Davidson diagonalization with overlap
     ethr =  1.00E-02,  avg # of iterations =  2.0

     negative rho (up, down):  0.997E-01 0.000E+00

     total cpu time spent up to now is     1166.3 secs

     total energy              =   -1567.24412312 Ry
     Harris-Foulkes estimate   =   -1569.48644736 Ry
     estimated scf accuracy    <       7.41149153 Ry

     iteration #  5     ecut=    40.00 Ry     beta=0.70
     Davidson diagonalization with overlap
     ethr =  3.45E-03,  avg # of iterations =  2.3

     negative rho (up, down):  0.101E+00 0.000E+00

     total cpu time spent up to now is     1324.2 secs

     total energy              =   -1567.41364697 Ry
     Harris-Foulkes estimate   =   -1567.71643509 Ry
     estimated scf accuracy    <       1.47488002 Ry

     iteration #  6     ecut=    40.00 Ry     beta=0.70
     Davidson diagonalization with overlap
     ethr =  6.86E-04,  avg # of iterations =  4.5

     negative rho (up, down):  0.101E+00 0.000E+00

     total cpu time spent up to now is     1496.5 secs

     total energy              =   -1567.21392120 Ry
     Harris-Foulkes estimate   =   -1567.56006482 Ry
     estimated scf accuracy    <       1.82236032 Ry

     iteration #  7     ecut=    40.00 Ry     beta=0.70
     Davidson diagonalization with overlap
     ethr =  6.86E-04,  avg # of iterations =  4.9

     negative rho (up, down):  0.100E+00 0.000E+00

     total cpu time spent up to now is     1667.1 secs

     total energy              =   -1567.25926075 Ry
     Harris-Foulkes estimate   =   -1567.42402805 Ry
     estimated scf accuracy    <       0.98188601 Ry

     iteration #  8     ecut=    40.00 Ry     beta=0.70
     Davidson diagonalization with overlap
     ethr =  4.57E-04,  avg # of iterations =  4.4

     negative rho (up, down):  0.101E+00 0.000E+00

     total cpu time spent up to now is     1835.4 secs

     total energy              =   -1567.25705126 Ry
     Harris-Foulkes estimate   =   -1567.38999394 Ry
     estimated scf accuracy    <       0.98279266 Ry

     iteration #  9     ecut=    40.00 Ry     beta=0.70
     Davidson diagonalization with overlap
     ethr =  4.57E-04,  avg # of iterations =  1.6

     negative rho (up, down):  0.101E+00 0.000E+00

     total cpu time spent up to now is     1988.4 secs

     total energy              =   -1567.21392399 Ry
     Harris-Foulkes estimate   =   -1567.28130155 Ry
     estimated scf accuracy    <       0.34422980 Ry

     iteration # 10     ecut=    40.00 Ry     beta=0.70
     Davidson diagonalization with overlap
     ethr =  1.60E-04,  avg # of iterations =  5.7

     negative rho (up, down):  0.102E+00 0.000E+00

     total cpu time spent up to now is     2169.4 secs

     total energy              =   -1567.18999979 Ry
     Harris-Foulkes estimate   =   -1567.22723433 Ry
     estimated scf accuracy    <       0.28969368 Ry

     iteration # 11     ecut=    40.00 Ry     beta=0.70
     Davidson diagonalization with overlap
     ethr =  1.35E-04,  avg # of iterations =  4.2

     negative rho (up, down):  0.104E+00 0.000E+00

     total cpu time spent up to now is     2338.4 secs

     total energy              =   -1567.14602337 Ry
     Harris-Foulkes estimate   =   -1567.20891625 Ry
     estimated scf accuracy    <       0.27808960 Ry

     iteration # 12     ecut=    40.00 Ry     beta=0.70
     Davidson diagonalization with overlap
     ethr =  1.29E-04,  avg # of iterations =  6.5

     negative rho (up, down):  0.103E+00 0.000E+00

     total cpu time spent up to now is     2524.2 secs

     total energy              =   -1567.12161283 Ry
     Harris-Foulkes estimate   =   -1567.22374824 Ry
     estimated scf accuracy    <       0.40164451 Ry

     iteration # 13     ecut=    40.00 Ry     beta=0.70
     Davidson diagonalization with overlap
     ethr =  1.29E-04,  avg # of iterations =  4.1

     negative rho (up, down):  0.103E+00 0.000E+00

     total cpu time spent up to now is     2687.8 secs

     total energy              =   -1567.15291985 Ry
     Harris-Foulkes estimate   =   -1567.18716083 Ry
     estimated scf accuracy    <       0.10900564 Ry

     iteration # 14     ecut=    40.00 Ry     beta=0.70
     Davidson diagonalization with overlap
     ethr =  5.07E-05,  avg # of iterations =  5.6

     negative rho (up, down):  0.103E+00 0.000E+00

     total cpu time spent up to now is     2860.9 secs

     total energy              =   -1567.16861209 Ry
     Harris-Foulkes estimate   =   -1567.17444976 Ry
     estimated scf accuracy    <       0.03659157 Ry

     iteration # 15     ecut=    40.00 Ry     beta=0.70
     Davidson diagonalization with overlap
     ethr =  1.70E-05,  avg # of iterations =  1.9

     negative rho (up, down):  0.103E+00 0.000E+00

     total cpu time spent up to now is     3013.4 secs

     total energy              =   -1567.17080311 Ry
     Harris-Foulkes estimate   =   -1567.17258394 Ry
     estimated scf accuracy    <       0.00761812 Ry

     iteration # 16     ecut=    40.00 Ry     beta=0.70
     Davidson diagonalization with overlap
     ethr =  3.54E-06,  avg # of iterations =  6.2

     negative rho (up, down):  0.104E+00 0.000E+00

     total cpu time spent up to now is     3182.8 secs

     total energy              =   -1567.17150744 Ry
     Harris-Foulkes estimate   =   -1567.17195307 Ry
     estimated scf accuracy    <       0.00267383 Ry

     iteration # 17     ecut=    40.00 Ry     beta=0.70
     Davidson diagonalization with overlap
     ethr =  1.24E-06,  avg # of iterations =  2.9

     negative rho (up, down):  0.104E+00 0.000E+00

     total cpu time spent up to now is     3337.3 secs

     total energy              =   -1567.17145802 Ry
     Harris-Foulkes estimate   =   -1567.17194575 Ry
     estimated scf accuracy    <       0.00455304 Ry

     iteration # 18     ecut=    40.00 Ry     beta=0.70
     Davidson diagonalization with overlap
     ethr =  1.24E-06,  avg # of iterations =  1.0

     negative rho (up, down):  0.104E+00 0.000E+00

     total cpu time spent up to now is     3488.9 secs

     total energy              =   -1567.17159091 Ry
     Harris-Foulkes estimate   =   -1567.17182778 Ry
     estimated scf accuracy    <       0.00095230 Ry

     iteration # 19     ecut=    40.00 Ry     beta=0.70
     Davidson diagonalization with overlap
     ethr =  4.43E-07,  avg # of iterations =  1.0

     negative rho (up, down):  0.104E+00 0.000E+00

     total cpu time spent up to now is     3635.9 secs

     total energy              =   -1567.17164435 Ry
     Harris-Foulkes estimate   =   -1567.17177522 Ry
     estimated scf accuracy    <       0.00032880 Ry

     iteration # 20     ecut=    40.00 Ry     beta=0.70
     Davidson diagonalization with overlap
     ethr =  1.53E-07,  avg # of iterations =  1.1

     negative rho (up, down):  0.104E+00 0.000E+00

     total cpu time spent up to now is     3784.0 secs

     total energy              =   -1567.17166776 Ry
     Harris-Foulkes estimate   =   -1567.17178114 Ry
     estimated scf accuracy    <       0.00059917 Ry

     iteration # 21     ecut=    40.00 Ry     beta=0.70
     Davidson diagonalization with overlap
     ethr =  1.53E-07,  avg # of iterations =  1.0

     negative rho (up, down):  0.104E+00 0.000E+00

     total cpu time spent up to now is     3934.5 secs

     total energy              =   -1567.17171721 Ry
     Harris-Foulkes estimate   =   -1567.17172994 Ry
     estimated scf accuracy    <       0.00004804 Ry

     iteration # 22     ecut=    40.00 Ry     beta=0.70
     Davidson diagonalization with overlap
     ethr =  2.23E-08,  avg # of iterations =  1.0

     negative rho (up, down):  0.104E+00 0.000E+00

     total cpu time spent up to now is     4089.2 secs

     total energy              =   -1567.17171837 Ry
     Harris-Foulkes estimate   =   -1567.17172913 Ry
     estimated scf accuracy    <       0.00006152 Ry

     iteration # 23     ecut=    40.00 Ry     beta=0.70
     Davidson diagonalization with overlap
     ethr =  2.23E-08,  avg # of iterations =  1.0

     negative rho (up, down):  0.104E+00 0.000E+00

     total cpu time spent up to now is     4247.0 secs

     total energy              =   -1567.17172357 Ry
     Harris-Foulkes estimate   =   -1567.17172531 Ry
     estimated scf accuracy    <       0.00001125 Ry

     iteration # 24     ecut=    40.00 Ry     beta=0.70
     Davidson diagonalization with overlap
     ethr =  5.23E-09,  avg # of iterations =  1.0

     negative rho (up, down):  0.104E+00 0.000E+00

     total cpu time spent up to now is     4398.6 secs

     total energy              =   -1567.17172411 Ry
     Harris-Foulkes estimate   =   -1567.17172487 Ry
     estimated scf accuracy    <       0.00000466 Ry

     iteration # 25     ecut=    40.00 Ry     beta=0.70
     Davidson diagonalization with overlap
     ethr =  2.17E-09,  avg # of iterations =  1.0

     negative rho (up, down):  0.104E+00 0.000E+00

     total cpu time spent up to now is     4550.2 secs

     End of self-consistent calculation
 --- enter write_ns ---
 LDA+U parameters:
U( 2)     =  2.00000000
alpha( 2) =  0.00000000
atom    3   Tr[ns(na)] =   2.80622
    eigenvalues: 
  0.179  0.192  0.215  0.388  0.429
    eigenvectors:
  0.079  0.685  0.056  0.168  0.012
  0.004  0.003  0.003  0.183  0.808
  0.565  0.006  0.429  0.001  0.000
  0.022  0.144  0.009  0.648  0.178
  0.331  0.162  0.504  0.001  0.002
    occupations:
  0.228  0.011 -0.004  0.076  0.002
  0.011  0.419  0.003 -0.022  0.011
 -0.004  0.003  0.194  0.007 -0.016
  0.076 -0.022  0.007  0.361 -0.001
  0.002  0.011 -0.016 -0.001  0.200
atom    4   Tr[ns(na)] =   2.89403
    eigenvalues: 
  0.167  0.214  0.225  0.415  0.427
    eigenvectors:
  0.006  0.002  0.000  0.000  0.992
  0.000  0.907  0.092  0.000  0.001
  0.000  0.091  0.908  0.000  0.000
  0.994  0.000  0.000  0.000  0.006
  0.000  0.000  0.000  1.000  0.000
    occupations:
  0.425  0.008  0.004 -0.020 -0.000
  0.008  0.215 -0.003 -0.000 -0.002
  0.004 -0.003  0.224  0.000 -0.000
 -0.020 -0.000  0.000  0.168 -0.000
 -0.000 -0.002 -0.000 -0.000  0.415
atom    9   Tr[ns(na)] =   2.88016
    eigenvalues: 
  0.176  0.217  0.236  0.383  0.427
    eigenvectors:
  0.000  0.000  0.930  0.070  0.000
  0.000  0.000  0.000  0.000  1.000
  0.997  0.003  0.000  0.000  0.000
  0.000  0.000  0.070  0.930  0.000
  0.003  0.997  0.000  0.000  0.000
    occupations:
  0.247 -0.000 -0.000  0.038  0.000
 -0.000  0.427  0.000  0.000 -0.000
 -0.000  0.000  0.176 -0.000  0.002
  0.038  0.000 -0.000  0.373 -0.000
  0.000 -0.000  0.002 -0.000  0.217
atom   10   Tr[ns(na)] =   2.80733
    eigenvalues: 
  0.171  0.233  0.236  0.334  0.429
    eigenvectors:
  0.017  0.000  0.000  0.983  0.000
  0.000  0.001  0.999  0.000  0.000
  0.000  0.999  0.001  0.000  0.000
  0.983  0.000  0.000  0.017  0.000
  0.000  0.000  0.000  0.000  1.000
    occupations:
  0.332  0.001 -0.000 -0.021 -0.000
  0.001  0.236 -0.000  0.000 -0.000
 -0.000 -0.000  0.233 -0.000 -0.001
 -0.021  0.000 -0.000  0.174  0.000
 -0.000 -0.000 -0.001  0.000  0.429
atom   16   Tr[ns(na)] =   2.80712
    eigenvalues: 
  0.179  0.192  0.215  0.388  0.429
    eigenvectors:
  0.072  0.692  0.057  0.167  0.013
  0.004  0.003  0.003  0.186  0.804
  0.573  0.005  0.422  0.000  0.000
  0.020  0.143  0.009  0.646  0.181
  0.331  0.157  0.509  0.001  0.002
    occupations:
  0.228 -0.011 -0.004  0.075 -0.003
 -0.011  0.419 -0.003  0.023  0.011
 -0.004 -0.003  0.194  0.006  0.016
  0.075  0.023  0.006  0.362  0.001
 -0.003  0.011  0.016  0.001  0.200
atom   17   Tr[ns(na)] =   2.88700
    eigenvalues: 
  0.166  0.214  0.226  0.411  0.428
    eigenvectors:
  0.006  0.001  0.000  0.000  0.993
  0.000  0.925  0.074  0.000  0.001
  0.000  0.074  0.926  0.000  0.000
  0.994  0.000  0.000  0.000  0.006
  0.000  0.000  0.000  1.000  0.000
    occupations:
  0.426  0.008  0.004 -0.020 -0.000
  0.008  0.215 -0.003 -0.000 -0.002
  0.004 -0.003  0.225  0.000 -0.000
 -0.020 -0.000  0.000  0.167 -0.000
 -0.000 -0.002 -0.000 -0.000  0.411
atom   22   Tr[ns(na)] =   2.87926
    eigenvalues: 
  0.176  0.218  0.236  0.383  0.427
    eigenvectors:
  0.000  0.000  0.930  0.070  0.000
  0.000  0.000  0.000  0.000  1.000
  0.998  0.002  0.000  0.000  0.000
  0.000  0.000  0.070  0.930  0.000
  0.002  0.998  0.000  0.000  0.000
    occupations:
  0.246 -0.000 -0.000  0.037  0.000
 -0.000  0.427 -0.000 -0.000 -0.000
 -0.000 -0.000  0.176 -0.000 -0.002
  0.037 -0.000 -0.000  0.373 -0.000
  0.000 -0.000 -0.002 -0.000  0.217
atom   23   Tr[ns(na)] =   2.84593
    eigenvalues: 
  0.153  0.227  0.260  0.379  0.404
    eigenvectors:
  0.011  0.038  0.000  0.950  0.000
  0.002  0.958  0.000  0.040  0.000
  0.000  0.000  1.000  0.000  0.000
  0.987  0.004  0.000  0.009  0.000
  0.000  0.000  0.000  0.000  1.000
    occupations:
  0.371  0.030  0.000 -0.022 -0.000
  0.030  0.233 -0.000 -0.000 -0.000
  0.000 -0.000  0.260 -0.000 -0.000
 -0.022 -0.000 -0.000  0.155 -0.000
 -0.000 -0.000 -0.000 -0.000  0.404
N of occupied +U levels =  22.8070568
 --- exit write_ns ---

          k = 0.0000 0.0000 0.0000 ( 29975 PWs)   bands (ev):

   -60.3587 -60.3201 -60.1720 -59.7545 -59.4135 -59.3738 -59.1618 -59.1200
   -36.8839 -36.6194 -36.5274 -36.5131 -36.5091 -36.4752 -36.4375 -36.4354
   -36.3359 -36.0644 -36.0047 -35.9644 -35.9422 -35.7284 -35.6524 -35.6309
   -35.5641 -35.5453 -35.5012 -35.4350 -35.4146 -35.4040 -35.3255 -35.1836
   -21.4440 -21.1004 -20.5228 -20.4631 -20.2003 -19.9577 -19.5364 -19.4016
   -19.3303 -19.2958 -19.1918 -19.1727 -19.1524 -19.0171 -18.9532 -18.8381
   -18.6071 -18.2218 -18.1586  -9.2182  -8.8194  -8.3933  -7.9631  -7.8527
    -7.6122  -7.4109  -7.3604  -6.9144  -6.8181  -6.6836  -6.6621  -6.6144
    -6.5988  -6.5173  -6.5102  -6.3472  -6.3019  -6.2777  -6.2228  -6.1308
    -5.9773  -5.8318  -5.6459  -5.5212  -5.4066  -5.3190  -5.2548  -5.1504
    -4.9472  -4.8908  -4.8613  -4.7725  -4.6872  -4.4994  -4.4839  -4.3287
    -4.3071  -4.2309  -4.1772  -4.1537  -4.0645  -3.9999  -3.8660  -3.7980
    -3.6958  -3.6547  -3.6185  -3.5004  -3.3513  -3.2715  -3.2214  -3.1083
    -2.8933  -2.8177  -2.8068  -2.5442  -0.5550  -0.2797  -0.2474  -0.2255
    -0.1273  -0.0781   0.2228   0.2956   0.5258   0.5788   0.6043   0.6174
     0.8256   0.9101   0.9469   1.0761   1.0996   1.1162   1.1625   1.1724
     1.4111   1.4765   1.5704   1.9623   2.0600   2.1213   2.2448   2.2530
     2.5177   2.5813   2.7778   2.8637   3.0379   3.0983   3.3417   3.3509
     3.4690   3.6322   3.6467   3.9813   4.0189   4.2246   4.2587   4.5935
     4.6144   5.3926   5.6157   5.8564   6.2546   6.3646   6.6796   6.7365
     6.7939   6.8719   6.9953   7.1312   7.1654   7.4158   7.6162   7.6723
     7.7597   7.8614   7.9182   7.9456   8.0749   8.2110   8.2911   8.3922
     8.5025   8.5248   8.7156   8.8001   8.9149   8.9456   8.9897   9.0612
     9.2265   9.2416   9.3576   9.4199   9.4780   9.7979   9.8571   9.9864
    10.0205  10.1284  10.2828  10.4358  10.4503  10.4989  10.7354  10.8196
    10.8658  10.9074  11.0104  11.0507  11.1002  11.2030  11.2786  11.3167
    11.3704  11.3742  11.4486  11.5608  11.5907  11.6288  11.6708  11.7494
    11.7951  11.8528  11.8823  11.9782  12.1085  12.1600  12.2124  12.2191
    12.3031  12.4140  12.4555  12.4698  12.5280  12.5944  12.7379  12.8628
    12.9539  13.0048  13.1175  13.1553  13.3320  13.3910  13.4491  13.6309
    13.6369  13.7581  13.7984  13.8202  13.9234  14.0185  14.1285  14.1647
    14.2823  14.4221  14.4295  14.5695  14.6141  14.6984  14.8323  14.8687
    14.9590  15.0999  15.1545  15.2323  15.3874  15.4332  15.5103  15.5499
    15.6507  15.7295  15.9222  16.0497  16.1373  16.1872  16.4002  16.4632
    16.4848  16.5579  16.6930  16.7223  16.7566  16.8579  17.0244  17.1190
    17.1583  17.1852  17.2233  17.3590  17.5141  17.5668  17.5693  17.6213
    17.6928  17.7572  17.8038  17.8976  18.0186  18.0804  18.1033  18.1693
    18.1732  18.2911  18.4435  18.4949  18.5435  18.5672  18.6044  18.7251
    18.8177  18.8845  18.9519  19.0787  19.1082  19.1424

          k = 0.0000 0.2258 0.0000 ( 29933 PWs)   bands (ev):

   -60.3588 -60.3201 -60.1720 -59.7545 -59.4136 -59.3737 -59.1619 -59.1199
   -36.8841 -36.6194 -36.5274 -36.5104 -36.5091 -36.4779 -36.4383 -36.4354
   -36.3348 -36.0645 -36.0017 -35.9647 -35.9410 -35.7316 -35.6520 -35.6308
   -35.5641 -35.5453 -35.5012 -35.4378 -35.4146 -35.4028 -35.3255 -35.1836
   -21.4336 -21.0994 -20.5073 -20.4579 -20.1735 -19.8701 -19.5221 -19.5201
   -19.3582 -19.3055 -19.2759 -19.1746 -19.0822 -19.0259 -19.0126 -18.7984
   -18.6077 -18.2199 -18.1586  -9.2176  -8.8235  -8.3938  -7.8322  -7.7236
    -7.3716  -7.3577  -7.3446  -7.1350  -6.9226  -6.8035  -6.6910  -6.5849
    -6.5263  -6.3822  -6.3166  -6.3025  -6.2153  -6.1922  -6.0585  -5.9884
    -5.9116  -5.8623  -5.6449  -5.5154  -5.4224  -5.3120  -5.2512  -5.1942
    -5.1760  -5.0196  -4.9577  -4.8875  -4.7143  -4.6693  -4.4923  -4.4539
    -4.2779  -4.1973  -4.1865  -4.1557  -4.0556  -4.0016  -3.9662  -3.8826
    -3.8539  -3.7213  -3.5243  -3.4872  -3.4506  -3.3527  -3.2902  -3.2439
    -3.0709  -2.8362  -2.7817  -2.5897  -0.5092  -0.3481  -0.2701  -0.1059
     0.0096   0.1433   0.2362   0.2871   0.5086   0.5626   0.5814   0.5960
     0.8073   0.8153   1.0871   1.1230   1.1323   1.1681   1.2507   1.3776
     1.4069   1.4424   1.5597   1.8541   2.0120   2.0244   2.1828   2.2088
     2.3820   2.6092   2.7958   3.0045   3.1187   3.3192   3.3413   3.4681
     3.7744   3.8407   3.8521   3.9031   4.0029   4.3001   4.3364   4.5989
     4.7886   5.0444   5.2995   5.5967   5.6823   5.9152   6.1720   6.3567
     6.6426   6.9319   7.0010   7.0398   7.3161   7.5514   7.6794   7.7625
     7.8956   7.9778   8.0657   8.1081   8.3164   8.4329   8.5079   8.5563
     8.6920   8.7654   8.8149   8.9769   9.0433   9.1114   9.2164   9.2784
     9.3162   9.4188   9.4623   9.5458   9.5700   9.6727   9.7697   9.8228
     9.8537  10.0024  10.0371  10.1501  10.1863  10.2831  10.4305  10.5956
    10.6638  10.6989  10.7960  10.8401  10.8969  11.0051  11.0540  11.1351
    11.1782  11.2463  11.4015  11.5383  11.6659  11.7638  11.8344  11.9098
    12.0026  12.0946  12.1593  12.2357  12.3159  12.4241  12.5418  12.6324
    12.6995  12.7738  12.7967  12.9318  13.0077  13.1038  13.1444  13.1994
    13.2258  13.2804  13.3353  13.4107  13.6071  13.6533  13.6893  13.7205
    13.7941  13.8558  13.9366  13.9961  14.0517  14.1008  14.1426  14.2037
    14.2504  14.3737  14.4211  14.5357  14.5745  14.5993  14.7081  14.8256
    14.8507  14.9290  15.0242  15.0759  15.1309  15.2541  15.2957  15.3522
    15.4011  15.5242  15.5773  15.6521  15.7912  15.9015  16.0183  16.0658
    16.1466  16.1933  16.3073  16.3736  16.5098  16.6166  16.6745  16.7753
    16.9010  16.9777  17.0147  17.1199  17.2088  17.3059  17.3917  17.4893
    17.6440  17.6866  17.7701  17.9611  18.0197  18.0947  18.1561  18.1950
    18.2748  18.2967  18.3908  18.3984  18.4806  18.5141  18.6276  18.7275
    18.7558  18.8185  18.8874  18.9559  18.9988  19.0582

          k = 0.0000-0.4516 0.0000 ( 29906 PWs)   bands (ev):

   -60.3588 -60.3201 -60.1720 -59.7545 -59.4136 -59.3737 -59.1619 -59.1199
   -36.8842 -36.6194 -36.5274 -36.5092 -36.5076 -36.4804 -36.4391 -36.4355
   -36.3337 -36.0645 -35.9988 -35.9650 -35.9399 -35.7348 -35.6516 -35.6308
   -35.5642 -35.5453 -35.5012 -35.4407 -35.4146 -35.4016 -35.3255 -35.1836
   -21.4233 -21.0985 -20.4942 -20.4516 -20.1404 -19.7342 -19.5928 -19.4755
   -19.4076 -19.3813 -19.3527 -19.2750 -19.0724 -19.0096 -18.9695 -18.7777
   -18.6083 -18.2184 -18.1586  -9.2155  -8.8279  -8.3943  -7.8105  -7.5275
    -7.3543  -7.2922  -7.1700  -7.0866  -7.0193  -6.7974  -6.6750  -6.4300
    -6.4154  -6.3897  -6.2757  -6.2543  -6.1338  -5.9971  -5.9864  -5.9186
    -5.8825  -5.6430  -5.6143  -5.6001  -5.5730  -5.4618  -5.3538  -5.3059
    -5.1941  -5.1546  -5.1371  -5.0381  -4.8454  -4.7080  -4.6571  -4.3967
    -4.3474  -4.3154  -4.2554  -4.1525  -4.1149  -4.0959  -3.9598  -3.9079
    -3.7500  -3.6325  -3.6103  -3.5474  -3.4588  -3.4435  -3.3504  -3.2494
    -3.2290  -2.8284  -2.7734  -2.6136  -0.5253  -0.4914  -0.2949  -0.0147
     0.0641   0.1743   0.2792   0.5066   0.5356   0.5607   0.5641   0.5833
     0.7893   1.0237   1.1015   1.1297   1.1631   1.2024   1.2753   1.3077
     1.3853   1.5584   1.6423   1.8005   1.8727   1.9371   1.9731   2.2277
     2.5551   2.7215   2.8002   2.9945   3.1919   3.2811   3.5865   3.6337
     3.7674   3.9353   4.0637   4.1484   4.2708   4.3425   4.4505   4.5145
     4.6029   4.7235   4.9333   5.2235   5.4559   5.8015   6.1156   6.3590
     6.4848   6.6352   6.7967   7.1940   7.2882   7.3279   7.4260   7.7824
     7.9079   8.2163   8.3467   8.4419   8.5109   8.6110   8.6466   8.6646
     8.7259   8.7671   8.7955   8.9417   9.0107   9.1012   9.1738   9.2005
     9.2766   9.3360   9.3417   9.4799   9.5850   9.7094   9.7535   9.8377
     9.9504   9.9827  10.0235  10.3070  10.4413  10.5007  10.5875  10.6677
    10.7050  10.7564  10.8408  10.9836  11.1483  11.2062  11.2329  11.3672
    11.3846  11.4400  11.4864  11.5454  11.6287  11.6718  11.7883  11.8597
    11.9648  12.0694  12.1333  12.2241  12.2795  12.3548  12.4530  12.6007
    12.6708  12.7873  12.8211  12.9422  12.9846  13.0122  13.0708  13.2169
    13.2404  13.3084  13.3463  13.4196  13.5279  13.5926  13.6747  13.7449
    13.8034  13.8795  13.9772  14.0894  14.2228  14.2785  14.3559  14.4560
    14.4874  14.5910  14.6385  14.7372  14.7672  14.9496  14.9763  15.0639
    15.1169  15.2296  15.3186  15.3590  15.4254  15.4457  15.5027  15.5378
    15.6160  15.6346  15.6732  15.6817  15.7531  15.7909  15.8408  15.8750
    15.9594  16.0649  16.1830  16.2084  16.2420  16.2760  16.3648  16.4252
    16.4536  16.6570  16.7573  16.8628  16.9422  17.0046  17.1380  17.2163
    17.3257  17.3720  17.4958  17.5927  17.6436  17.6816  17.6981  17.7927
    17.8123  17.8395  17.8953  17.9264  17.9948  18.0302  18.1761  18.2477
    18.3752  18.4233  18.5797  18.6810  18.7252  18.8351

          k = 0.2500 0.0000 0.0000 ( 29937 PWs)   bands (ev):

   -60.3536 -60.3260 -60.1720 -59.7549 -59.4082 -59.3799 -59.1565 -59.1258
   -36.8247 -36.6094 -36.5549 -36.5076 -36.5068 -36.4840 -36.4805 -36.4111
   -36.3340 -36.0671 -35.9876 -35.9444 -35.9415 -35.7144 -35.6453 -35.6293
   -35.5897 -35.5398 -35.5060 -35.4316 -35.4072 -35.4066 -35.3360 -35.2488
   -21.3687 -21.1109 -20.5263 -20.4735 -20.0985 -19.8565 -19.5330 -19.4535
   -19.3453 -19.3335 -19.2681 -19.1917 -19.1250 -19.0180 -18.9084 -18.8861
   -18.5825 -18.2693 -18.2456  -9.1667  -8.8876  -8.3961  -7.7993  -7.6513
    -7.5119  -7.4721  -7.2098  -6.9616  -6.8662  -6.7710  -6.7450  -6.6998
    -6.5952  -6.4883  -6.4319  -6.3716  -6.3566  -6.2306  -6.1931  -6.0651
    -5.9007  -5.7516  -5.5839  -5.5161  -5.3828  -5.2714  -5.1933  -5.0436
    -4.9533  -4.8741  -4.8143  -4.7374  -4.6676  -4.6173  -4.4803  -4.4295
    -4.4215  -4.3030  -4.2644  -4.2294  -4.1896  -3.9756  -3.9225  -3.9054
    -3.8143  -3.7998  -3.6060  -3.5660  -3.4797  -3.3253  -3.1922  -3.1493
    -2.9848  -2.8458  -2.8141  -2.6318  -0.4159  -0.2993  -0.1726  -0.0869
    -0.0469   0.0263   0.1604   0.3427   0.4499   0.5830   0.6073   0.6239
     0.7775   0.7872   0.8937   0.9717   1.0511   1.1695   1.2195   1.2775
     1.5269   1.5546   1.6032   1.8398   2.0253   2.0425   2.3229   2.3880
     2.5402   2.6586   2.7422   2.9786   3.2214   3.3316   3.3682   3.3819
     3.4278   3.4527   3.7964   3.9030   3.9874   4.2195   4.2946   4.4853
     4.8929   5.1972   5.5112   5.6872   5.9844   6.0727   6.1715   6.4542
     6.7920   6.9388   6.9471   6.9595   7.1712   7.3043   7.3945   7.4438
     7.5401   7.8072   7.9155   7.9613   8.0828   8.2904   8.3760   8.4975
     8.6036   8.7384   8.8399   8.9127   9.0353   9.0798   9.1309   9.2445
     9.3532   9.3882   9.4356   9.5445   9.5754   9.6047   9.6970   9.8148
     9.8606  10.0488  10.1408  10.2601  10.3504  10.3653  10.4881  10.6113
    10.6961  10.7157  10.8176  10.8582  11.0003  11.0620  11.1193  11.2551
    11.3340  11.4061  11.5429  11.6546  11.7124  11.7723  11.8780  11.8988
    11.9222  11.9865  12.1181  12.1974  12.2799  12.4031  12.4732  12.6437
    12.6884  12.7261  12.7919  12.8796  13.0667  13.1661  13.2225  13.3053
    13.4177  13.5509  13.5697  13.6327  13.6901  13.7485  13.8192  13.8406
    13.9120  13.9697  14.0859  14.1454  14.1602  14.3840  14.4182  14.4817
    14.5371  14.6234  14.7418  14.8048  14.8381  14.9117  15.0056  15.0630
    15.1299  15.2070  15.3166  15.4122  15.5309  15.5736  15.5955  15.6489
    15.7725  15.8131  15.8677  15.9363  16.1356  16.2013  16.2416  16.2537
    16.3650  16.4429  16.5014  16.5199  16.6231  16.7392  16.7897  16.8895
    16.9474  17.0159  17.0369  17.1407  17.2073  17.3395  17.3699  17.4300
    17.4898  17.5848  17.6038  17.7103  17.7627  17.8419  17.8778  17.9943
    18.0854  18.1092  18.1919  18.2700  18.3191  18.3587  18.4362  18.4846
    18.5658  18.6437  18.6890  18.7407  18.8598  18.9321

          k = 0.2500 0.2258 0.0000 ( 29912 PWs)   bands (ev):

   -60.3536 -60.3260 -60.1720 -59.7549 -59.4082 -59.3798 -59.1566 -59.1258
   -36.8249 -36.6094 -36.5550 -36.5068 -36.5055 -36.4840 -36.4821 -36.4118
   -36.3330 -36.0673 -35.9881 -35.9430 -35.9392 -35.7172 -35.6457 -35.6290
   -35.5894 -35.5398 -35.5060 -35.4336 -35.4068 -35.4065 -35.3360 -35.2488
   -21.3612 -21.1098 -20.5154 -20.4716 -20.0614 -19.7735 -19.5443 -19.4570
   -19.3827 -19.3528 -19.2974 -19.1330 -19.1258 -19.0916 -19.0704 -18.7908
   -18.5825 -18.2690 -18.2449  -9.1633  -8.8812  -8.3968  -7.6443  -7.5820
    -7.4332  -7.2501  -7.1874  -7.0335  -6.7553  -6.7040  -6.7020  -6.6463
    -6.6185  -6.5039  -6.4274  -6.3815  -6.2189  -6.1538  -6.1468  -6.0394
    -5.9120  -5.7651  -5.6858  -5.5220  -5.3571  -5.2157  -5.1596  -5.0874
    -5.0357  -4.9589  -4.8767  -4.8390  -4.7417  -4.6731  -4.6381  -4.5430
    -4.5220  -4.4648  -4.3537  -4.2654  -4.2030  -4.0667  -4.0284  -3.9207
    -3.8649  -3.7335  -3.6334  -3.5917  -3.4679  -3.3265  -3.2777  -3.1838
    -3.0900  -2.8220  -2.7989  -2.6306  -0.3915  -0.2964  -0.2553  -0.0852
     0.0750   0.1388   0.2932   0.3808   0.4367   0.5406   0.6193   0.6790
     0.7958   0.9144   0.9849   1.0276   1.1256   1.1896   1.2354   1.3631
     1.4556   1.6179   1.6437   1.7465   1.9243   2.0900   2.1581   2.3134
     2.4081   2.6209   2.7291   3.0148   3.1123   3.3533   3.4608   3.5642
     3.6615   3.7166   3.7691   3.9805   4.1317   4.2724   4.3561   4.5926
     5.0381   5.3084   5.3276   5.5104   5.7595   5.9390   6.0252   6.2102
     6.3126   6.4554   6.6097   6.8973   6.9731   7.2432   7.3545   7.5214
     7.5832   7.8381   7.9300   7.9638   8.0410   8.0983   8.2784   8.4270
     8.4651   8.5725   8.7213   8.8296   9.0048   9.1111   9.2482   9.3165
     9.3743   9.4935   9.5901   9.6999   9.7683   9.8329  10.0401  10.1277
    10.1427  10.2767  10.3839  10.4641  10.5917  10.6349  10.7762  10.8195
    10.9132  10.9668  11.0479  11.0963  11.2531  11.3155  11.4183  11.4676
    11.5116  11.5494  11.6867  11.7213  11.8161  11.9561  11.9851  12.0491
    12.1068  12.1957  12.2397  12.2860  12.3772  12.4531  12.5127  12.6179
    12.6456  12.7815  12.8379  12.9120  12.9631  13.0157  13.1094  13.1843
    13.3234  13.3749  13.4640  13.5728  13.6855  13.7653  13.8213  13.9141
    13.9566  14.0093  14.0803  14.1682  14.1941  14.3060  14.4138  14.4338
    14.5211  14.5929  14.6723  14.7003  14.7787  14.7975  14.9147  14.9549
    15.0534  15.1942  15.2345  15.2829  15.3113  15.4046  15.4787  15.5914
    15.6310  15.6814  15.7277  15.8387  15.8881  15.9689  16.0415  16.0826
    16.1959  16.2619  16.3566  16.3983  16.4841  16.5526  16.6297  16.6863
    16.7672  16.7838  16.8327  16.8541  16.9452  17.0423  17.1074  17.1517
    17.2024  17.3003  17.3444  17.3861  17.4645  17.5251  17.5861  17.6873
    17.7468  17.8257  17.9053  17.9585  18.0467  18.1089  18.2362  18.2749
    18.3698  18.4522  18.5018  18.5181  18.6074  18.6917

          k = 0.2500-0.4516 0.0000 ( 29882 PWs)   bands (ev):

   -60.3537 -60.3260 -60.1720 -59.7549 -59.4083 -59.3798 -59.1566 -59.1258
   -36.8250 -36.6094 -36.5550 -36.5069 -36.5035 -36.4842 -36.4835 -36.4125
   -36.3320 -36.0674 -35.9885 -35.9416 -35.9370 -35.7198 -35.6461 -35.6288
   -35.5891 -35.5397 -35.5060 -35.4357 -35.4066 -35.4061 -35.3360 -35.2488
   -21.3539 -21.1086 -20.5051 -20.4698 -20.0159 -19.6559 -19.5458 -19.4228
   -19.4091 -19.3941 -19.3352 -19.3017 -19.1358 -19.0861 -19.0778 -18.7622
   -18.5825 -18.2690 -18.2441  -9.1588  -8.8767  -8.3974  -7.6205  -7.5273
    -7.2195  -7.1641  -6.9989  -6.8935  -6.7928  -6.7541  -6.6416  -6.5692
    -6.5390  -6.4509  -6.3842  -6.2951  -6.1455  -6.1059  -6.0282  -5.9822
    -5.8903  -5.8044  -5.7047  -5.5168  -5.4852  -5.2962  -5.2366  -5.2113
    -5.1272  -5.0964  -5.0713  -4.9288  -4.8613  -4.7975  -4.7741  -4.6572
    -4.6329  -4.5982  -4.3708  -4.2759  -4.2277  -4.1665  -4.0853  -3.9422
    -3.7610  -3.6626  -3.6267  -3.5510  -3.4357  -3.3745  -3.2702  -3.2239
    -3.1935  -2.8378  -2.7836  -2.6339  -0.4218  -0.3790  -0.2642  -0.0358
     0.0244   0.2349   0.3233   0.4559   0.5065   0.5975   0.6682   0.7291
     0.8681   1.0497   1.0944   1.1106   1.1527   1.2010   1.2481   1.3087
     1.5800   1.6239   1.7030   1.7195   1.8238   1.9294   1.9584   2.2157
     2.4889   2.6799   2.7674   2.8615   3.0505   3.2983   3.4676   3.8447
     3.8712   3.8902   3.9984   4.0305   4.3080   4.3429   4.5091   4.7084
     4.7767   4.9984   5.2007   5.4958   5.5355   5.7098   6.0438   6.1387
     6.3864   6.5119   6.7361   6.7849   6.8912   6.9465   7.0443   7.1664
     7.2743   7.5206   7.6227   7.7318   7.9433   8.1208   8.1370   8.3279
     8.4394   8.5772   8.7160   8.8823   8.9698   9.0254   9.1853   9.4941
     9.6074   9.6611   9.7597   9.8558   9.9467  10.0904  10.1118  10.3797
    10.5400  10.7122  10.8259  10.8721  10.9988  11.0282  11.0906  11.1536
    11.1946  11.2378  11.3339  11.4598  11.5298  11.5761  11.6179  11.6599
    11.6843  11.7070  11.8253  11.8854  11.9689  12.0483  12.0832  12.1348
    12.1752  12.3068  12.3214  12.3858  12.4187  12.5215  12.5907  12.6525
    12.7095  12.7375  12.8671  12.9617  13.0171  13.0581  13.1708  13.2390
    13.3223  13.4181  13.4770  13.5007  13.5638  13.6266  13.7359  13.7620
    13.8038  13.8206  13.8566  13.8993  13.9205  13.9944  14.1260  14.2391
    14.2918  14.4208  14.4564  14.5445  14.6093  14.6692  14.7499  14.8375
    14.8643  14.9333  15.0042  15.0874  15.1074  15.1604  15.2452  15.2901
    15.3398  15.4023  15.5262  15.6116  15.6740  15.7029  15.8132  15.8934
    15.9118  16.0497  16.1180  16.2009  16.3999  16.4833  16.5698  16.6433
    16.7201  16.8952  16.9211  16.9345  17.0427  17.0931  17.1979  17.2355
    17.2718  17.3365  17.3928  17.4262  17.5414  17.5562  17.6213  17.6872
    17.6963  17.7628  17.8964  17.9472  17.9919  18.0199  18.1039  18.1690
    18.2351  18.3038  18.3403  18.4445  18.4685  18.5337

          k =-0.5000 0.0000 0.0000 ( 29982 PWs)   bands (ev):

   -60.3429 -60.3374 -60.1720 -59.7554 -59.3968 -59.3921 -59.1473 -59.1357
   -36.6909 -36.6792 -36.5581 -36.5546 -36.5007 -36.4967 -36.4912 -36.3821
   -36.3320 -36.0728 -36.0113 -35.9466 -35.7907 -35.7833 -35.6816 -35.6782
   -35.5281 -35.5231 -35.4436 -35.4349 -35.4269 -35.4117 -35.3554 -35.3452
   -21.2573 -21.1532 -20.5468 -20.4768 -19.8584 -19.7908 -19.6041 -19.5723
   -19.4101 -19.3386 -19.2540 -19.1730 -19.1696 -19.0289 -18.9822 -18.6749
   -18.6607 -18.3444 -18.3272  -9.0986  -8.9675  -8.3991  -7.5652  -7.4241
    -7.4083  -7.2033  -7.1770  -7.1102  -7.0480  -7.0172  -7.0012  -6.8260
    -6.5878  -6.5379  -6.2980  -6.2677  -6.2246  -6.0286  -5.9650  -5.8300
    -5.7844  -5.5682  -5.5500  -5.4439  -5.4365  -5.3416  -5.2844  -5.2583
    -5.1163  -5.0030  -4.9360  -4.8691  -4.7903  -4.6419  -4.5152  -4.3448
    -4.2709  -4.2424  -4.2342  -4.2140  -4.2091  -4.1656  -4.0656  -4.0526
    -3.9432  -3.7593  -3.6397  -3.6360  -3.6117  -3.5770  -3.0041  -2.9960
    -2.9643  -2.9607  -2.8303  -2.7981  -0.3855  -0.2128  -0.1649  -0.0448
     0.0920   0.1321   0.3324   0.3960   0.4086   0.4664   0.5752   0.6163
     0.7145   0.7184   0.7192   0.9266   0.9354   1.2267   1.2768   1.5028
     1.5867   1.6520   1.6642   1.6820   1.8468   2.0444   2.3560   2.4260
     2.6338   2.6662   2.8724   3.0024   3.3604   3.4105   3.4347   3.4634
     3.4723   3.5048   3.8087   3.9839   4.0433   4.2604   4.3622   4.5966
     4.7112   4.8391   5.1470   5.3003   5.6669   5.8033   6.2844   6.4255
     6.6459   6.8534   6.9055   7.0335   7.3380   7.3468   7.5760   7.7148
     7.7241   7.8942   7.9480   7.9950   8.1354   8.1622   8.1944   8.2365
     8.3589   8.4049   8.5746   8.6729   8.7473   8.8688   8.9297   9.0115
     9.1109   9.2546   9.4362   9.4616   9.6466   9.7259   9.8020   9.9011
     9.9183  10.0083  10.1113  10.2038  10.2884  10.3475  10.4766  10.5995
    10.6993  10.8821  10.9054  11.0236  11.0580  11.1233  11.2715  11.5480
    11.5816  11.6888  11.8237  11.9343  11.9762  12.0383  12.0675  12.1686
    12.2772  12.3261  12.4066  12.5559  12.7169  12.7673  12.8518  12.9011
    12.9704  13.0473  13.0584  13.1778  13.2235  13.3034  13.4102  13.4556
    13.5340  13.6065  13.7053  13.7610  13.8938  13.9564  14.0007  14.0897
    14.1265  14.1990  14.2746  14.2839  14.3796  14.4063  14.4888  14.5838
    14.6904  14.7950  14.8339  14.9911  15.1345  15.2185  15.3745  15.3892
    15.4856  15.5008  15.5842  15.5982  15.6462  15.7295  15.8352  15.8754
    15.9184  15.9832  16.0335  16.1440  16.2225  16.2468  16.3673  16.4045
    16.4549  16.5534  16.5653  16.5847  16.6441  16.6493  16.6743  16.7183
    16.7548  16.8179  16.8565  16.8997  16.9953  17.0400  17.0839  17.1763
    17.2425  17.3037  17.4332  17.5413  17.6149  17.6370  17.7013  17.8214
    17.8533  17.9372  17.9764  18.1004  18.1210  18.1553  18.2572  18.2828
    18.4044  18.4354  18.4557  18.4790  18.5137  18.5529

          k =-0.5000 0.2258 0.0000 ( 29954 PWs)   bands (ev):

   -60.3429 -60.3374 -60.1720 -59.7553 -59.3968 -59.3920 -59.1473 -59.1357
   -36.6910 -36.6793 -36.5581 -36.5546 -36.5007 -36.4963 -36.4907 -36.3827
   -36.3311 -36.0731 -36.0119 -35.9450 -35.7896 -35.7822 -35.6831 -35.6797
   -35.5281 -35.5231 -35.4435 -35.4349 -35.4276 -35.4124 -35.3554 -35.3452
   -21.2546 -21.1505 -20.5408 -20.4751 -19.8019 -19.7593 -19.5523 -19.5135
   -19.4282 -19.3437 -19.2565 -19.2175 -19.1961 -19.1199 -19.0797 -18.6606
   -18.6478 -18.3436 -18.3248  -9.0894  -8.9583  -8.3998  -7.5596  -7.2580
    -7.2450  -7.1689  -7.0395  -6.9928  -6.9448  -6.9003  -6.8597  -6.7291
    -6.5232  -6.4793  -6.3523  -6.2834  -6.1479  -6.0288  -5.9888  -5.9327
    -5.7548  -5.7273  -5.6383  -5.5915  -5.5016  -5.4000  -5.3476  -5.2623
    -5.1251  -5.1056  -4.9396  -4.8432  -4.7553  -4.6465  -4.6093  -4.5588
    -4.5497  -4.4262  -4.4066  -4.3824  -4.2338  -4.1986  -4.1035  -4.0232
    -3.9751  -3.7939  -3.6047  -3.5856  -3.4980  -3.4622  -3.1045  -3.0784
    -2.9981  -2.9357  -2.8023  -2.7398  -0.3629  -0.2174  -0.1839  -0.0930
     0.0348   0.2259   0.3436   0.3925   0.5767   0.5883   0.6395   0.7180
     0.7254   0.8350   0.8631   1.0401   1.0612   1.2162   1.3055   1.4809
     1.4991   1.5598   1.7128   1.7224   1.8074   2.0976   2.3533   2.3698
     2.5257   2.5487   2.6332   2.6798   3.2983   3.3304   3.5373   3.5823
     3.6761   3.6824   3.9515   4.1377   4.2024   4.3419   4.3903   4.7915
     4.9130   5.0256   5.3176   5.4643   5.7398   5.8317   6.0527   6.1365
     6.2659   6.4688   6.6255   6.6920   6.7826   6.8800   6.9808   7.1362
     7.2060   7.3029   7.6186   7.7481   7.9132   8.0721   8.1810   8.3906
     8.5155   8.5914   8.6824   8.7696   8.8927   9.0033   9.1078   9.3868
     9.6507   9.7065   9.8643   9.9289   9.9663  10.0182  10.0821  10.1126
    10.1678  10.2671  10.3892  10.4447  10.6003  10.7599  10.9035  10.9452
    10.9791  11.0381  11.1333  11.2717  11.3923  11.4362  11.5847  11.6221
    11.6640  11.9136  11.9688  12.0267  12.0841  12.1470  12.2686  12.3196
    12.3847  12.5234  12.5832  12.7975  12.8216  12.8888  12.9387  13.0662
    13.1720  13.2393  13.2810  13.3595  13.4049  13.4529  13.4676  13.5202
    13.5465  13.5923  13.6510  13.7342  13.7767  13.8929  13.9840  14.0310
    14.1084  14.1566  14.2201  14.3014  14.3248  14.4181  14.4554  14.4973
    14.5373  14.6270  14.7343  14.8954  14.9078  14.9933  15.0554  15.0839
    15.1078  15.1906  15.2300  15.2568  15.3278  15.3529  15.4069  15.4230
    15.4423  15.5249  15.5835  15.6247  15.7023  15.7175  15.7520  15.8216
    15.8567  15.9117  16.0222  16.1026  16.1542  16.2506  16.2577  16.3199
    16.3727  16.4980  16.5645  16.6727  16.7126  16.7600  16.8075  16.8341
    16.8975  16.9423  17.1357  17.1858  17.2420  17.2731  17.3636  17.4080
    17.5272  17.5594  17.6760  17.7714  17.8120  17.8851  17.9629  18.1678
    18.2259  18.3653  18.4210  18.4489  18.5356  18.5938

          k =-0.5000-0.4516 0.0000 ( 29868 PWs)   bands (ev):

   -60.3430 -60.3375 -60.1720 -59.7553 -59.3968 -59.3920 -59.1473 -59.1358
   -36.6911 -36.6794 -36.5581 -36.5546 -36.5008 -36.4959 -36.4903 -36.3833
   -36.3302 -36.0734 -36.0125 -35.9433 -35.7885 -35.7811 -35.6846 -35.6812
   -35.5281 -35.5231 -35.4433 -35.4348 -35.4283 -35.4131 -35.3554 -35.3452
   -21.2518 -21.1477 -20.5348 -20.4735 -19.7206 -19.7034 -19.5899 -19.3787
   -19.3545 -19.3346 -19.2972 -19.2670 -19.2557 -19.2397 -19.2059 -18.6504
   -18.6380 -18.3428 -18.3226  -9.0801  -8.9490  -8.4006  -7.5579  -7.1982
    -7.1889  -7.1555  -6.8054  -6.7342  -6.6956  -6.6052  -6.5899  -6.5395
    -6.4740  -6.4306  -6.3897  -6.2524  -6.2097  -6.1509  -6.0448  -6.0101
    -5.8983  -5.8626  -5.8188  -5.7115  -5.5736  -5.4456  -5.3807  -5.2150
    -5.1005  -5.0777  -5.0571  -5.0481  -4.9453  -4.8396  -4.7998  -4.7325
    -4.6231  -4.5910  -4.5514  -4.3899  -4.3216  -4.2130  -4.0706  -4.0210
    -3.9876  -3.7682  -3.5412  -3.4666  -3.4138  -3.3328  -3.2310  -3.1858
    -2.9844  -2.9415  -2.7464  -2.7272  -0.3348  -0.2422  -0.1864  -0.1158
    -0.0316   0.2625   0.3418   0.4050   0.6273   0.6352   0.6989   0.8918
     0.8979   0.9515   1.0409   1.0974   1.2271   1.2511   1.2555   1.4590
     1.5025   1.5681   1.7783   1.7878   1.7996   2.0871   2.1461   2.1647
     2.2229   2.3352   2.5908   2.6644   3.3653   3.3907   3.4824   3.5882
     3.7932   3.8094   4.2047   4.2303   4.2799   4.5815   4.5971   5.2189
     5.2199   5.2791   5.4268   5.5071   5.5505   5.6112   5.7261   5.8148
     5.9580   6.0699   6.2275   6.3238   6.4601   6.6210   6.8396   6.9690
     7.1288   7.3607   7.4260   7.6290   7.6891   7.8286   7.9207   8.0244
     8.2096   8.4354   8.6487   8.8313   8.9088   9.0729   9.3416   9.4016
     9.5382   9.6832   9.8457  10.1630  10.2337  10.3247  10.3649  10.5829
    10.5944  10.6434  10.6668  11.1513  11.2279  11.4186  11.5361  11.5465
    11.5790  11.6357  11.7652  11.8129  11.9389  12.0048  12.1165  12.2129
    12.2964  12.3767  12.4115  12.4392  12.4739  12.4873  12.5116  12.5613
    12.5853  12.6016  12.6537  12.7061  12.8039  12.8306  12.9031  12.9893
    13.0052  13.0245  13.0988  13.3080  13.3383  13.3487  13.4085  13.4706
    13.4885  13.5145  13.5915  13.6510  13.7030  13.7536  13.7662  13.8163
    13.8375  13.9448  14.0158  14.0368  14.0605  14.1003  14.2063  14.2230
    14.2922  14.3262  14.3403  14.3795  14.4091  14.4481  14.5004  14.5291
    14.5869  14.6841  14.8006  14.8324  14.8918  14.9355  14.9632  15.0516
    15.0938  15.1505  15.1790  15.1827  15.3504  15.4979  15.5788  15.6405
    15.6649  15.7189  15.7687  15.8169  15.9177  15.9697  16.0404  16.0561
    16.0874  16.2248  16.3818  16.3926  16.4568  16.5148  16.5493  16.7086
    16.7241  16.9192  17.0044  17.0487  17.0888  17.1384  17.2470  17.2826
    17.3928  17.4551  17.5200  17.5475  17.6009  17.8023  17.8700  17.9616
    17.9842  18.0680  18.1022  18.1614  18.2096  18.2955

          k =-0.2500 0.2258 0.0000 ( 29912 PWs)   bands (ev):

   -60.3536 -60.3260 -60.1720 -59.7549 -59.4082 -59.3798 -59.1566 -59.1258
   -36.8249 -36.6094 -36.5550 -36.5068 -36.5055 -36.4841 -36.4820 -36.4118
   -36.3330 -36.0673 -35.9881 -35.9430 -35.9392 -35.7170 -35.6457 -35.6291
   -35.5894 -35.5398 -35.5060 -35.4336 -35.4067 -35.4066 -35.3360 -35.2488
   -21.3613 -21.1097 -20.5154 -20.4716 -20.0615 -19.7735 -19.5409 -19.4557
   -19.3896 -19.3529 -19.2975 -19.1321 -19.1224 -19.0954 -19.0684 -18.7908
   -18.5825 -18.2690 -18.2449  -9.1631  -8.8833  -8.3967  -7.6300  -7.5847
    -7.4387  -7.2533  -7.1936  -7.0227  -6.7790  -6.7140  -6.7049  -6.6578
    -6.5957  -6.4923  -6.4401  -6.3606  -6.2594  -6.1446  -6.1095  -5.9847
    -5.9329  -5.7743  -5.6659  -5.5257  -5.3521  -5.2649  -5.1697  -5.0848
    -5.0333  -5.0000  -4.8751  -4.8221  -4.7454  -4.7321  -4.6245  -4.5742
    -4.5019  -4.4270  -4.3283  -4.2524  -4.2007  -4.1134  -4.0161  -3.9101
    -3.8203  -3.7298  -3.6166  -3.5862  -3.4589  -3.3374  -3.2765  -3.1908
    -3.0887  -2.8546  -2.7942  -2.6411  -0.3911  -0.2860  -0.2553  -0.0866
     0.0749   0.1391   0.2932   0.3766   0.4351   0.5376   0.6194   0.6768
     0.7974   0.9182   0.9880   1.0261   1.1194   1.1943   1.2351   1.3608
     1.4609   1.6184   1.6388   1.7470   1.9238   2.0899   2.1596   2.3137
     2.4071   2.6207   2.7292   3.0147   3.1123   3.3539   3.4606   3.5646
     3.6612   3.7155   3.7690   3.9822   4.1311   4.2741   4.3571   4.5919
     5.0455   5.3141   5.3395   5.5055   5.7903   5.8759   6.0753   6.2106
     6.2958   6.4562   6.5787   6.8784   6.9670   7.2817   7.3408   7.4849
     7.6192   7.8135   7.9272   7.9614   8.0500   8.1266   8.2274   8.3910
     8.5133   8.5860   8.7767   8.8329   8.9472   9.1080   9.2568   9.3276
     9.4171   9.5318   9.5798   9.6160   9.7980   9.8798   9.9962  10.1113
    10.1434  10.2544  10.4060  10.4726  10.5751  10.6267  10.7585  10.8119
    10.9292  10.9779  11.0320  11.1282  11.2747  11.2895  11.4198  11.4722
    11.5029  11.5687  11.6711  11.7268  11.8349  11.9412  11.9843  12.0521
    12.1345  12.1893  12.2186  12.3387  12.3989  12.4555  12.5083  12.5728
    12.7038  12.8279  12.8593  12.8880  12.9866  13.0187  13.0669  13.1397
    13.3302  13.3672  13.4898  13.6215  13.6400  13.7110  13.8190  13.8803
    13.9007  13.9742  14.1215  14.1531  14.2221  14.2951  14.4243  14.4658
    14.5234  14.5843  14.6356  14.6738  14.7157  14.8468  14.9583  14.9672
    15.0424  15.1950  15.2640  15.3002  15.3620  15.4009  15.4983  15.5712
    15.6073  15.6624  15.7860  15.8303  15.8638  15.9618  16.0085  16.0856
    16.2001  16.2483  16.3424  16.3717  16.4493  16.5108  16.6366  16.6775
    16.7508  16.7909  16.8179  16.8324  16.9393  17.0259  17.0642  17.1225
    17.2076  17.3060  17.3486  17.3851  17.4700  17.5165  17.6212  17.7276
    17.7772  17.8569  17.9242  17.9443  18.0711  18.1070  18.2201  18.2777
    18.3849  18.4385  18.4908  18.5374  18.6256  18.7050

     the Fermi energy is    -2.6562 ev

!    total energy              =   -1567.17172425 Ry
     Harris-Foulkes estimate   =   -1567.17172454 Ry
     estimated scf accuracy    <       0.00000033 Ry

     The total energy is the sum of the following terms:

     one-electron contribution =  -18635.14941465 Ry
     hartree contribution      =    9336.42164187 Ry
     xc contribution           =    -277.56213296 Ry
     ewald contribution        =    8007.98017506 Ry
     Hubbard energy            =       1.13757438 Ry
     smearing contrib. (-TS)   =       0.00043205 Ry

     convergence has been achieved in  25 iterations

     Forces acting on atoms (Ry/au):


     negative rho (up, down):  0.104E+00 0.000E+00
     atom    1 type  1   force =    -0.00040699   -0.01276117    0.00728205
     atom    2 type  1   force =     0.00000892    0.01357490   -0.00077709
     atom    3 type  2   force =     0.05941007   -0.00947886   -0.01161418
     atom    4 type  2   force =    -0.00242061    0.00577283   -0.02658753
     atom    5 type  1   force =    -0.00359145   -0.06741121    0.00358432
     atom    6 type  1   force =    -0.00391915    0.06933739    0.00299374
     atom    7 type  1   force =     0.00146083    0.00119671    0.00227290
     atom    8 type  1   force =     0.00221882   -0.00164664    0.01203214
     atom    9 type  2   force =    -0.00011982    0.00000478   -0.00644051
     atom   10 type  2   force =    -0.00453974   -0.00004015    0.00573769
     atom   11 type  1   force =    -0.01784295   -0.02243667   -0.00110688
     atom   12 type  1   force =    -0.01803216    0.02229398   -0.00104934
     atom   13 type  1   force =     0.00122356    0.00007271    0.00845288
     atom   14 type  1   force =    -0.00076807   -0.01213374    0.00719574
     atom   15 type  1   force =     0.00001676    0.00932001   -0.00034487
     atom   16 type  2   force =    -0.05937693   -0.00980575   -0.01174193
     atom   17 type  2   force =    -0.00202110    0.00505472   -0.02712207
     atom   18 type  1   force =     0.00591865   -0.06663978    0.00376685
     atom   19 type  1   force =     0.00637281    0.06978351    0.00293096
     atom   20 type  1   force =    -0.00076773    0.00047256    0.01191839
     atom   21 type  1   force =     0.00093353   -0.00139899    0.01210325
     atom   22 type  2   force =    -0.00040116   -0.00000268   -0.00642029
     atom   23 type  2   force =    -0.00190299    0.00003330   -0.00809229
     atom   24 type  1   force =     0.01998551   -0.02072781   -0.00036613
     atom   25 type  1   force =     0.01981986    0.02066732   -0.00037543
     atom   26 type  1   force =    -0.00080562    0.00004452    0.00841461
     atom   27 type  3   force =     0.00001880    0.00223632    0.00017674
     atom   28 type  3   force =     0.00009400    0.00287124    0.00024921
     atom   29 type  3   force =    -0.00092624    0.00084190    0.00103501
     atom   30 type  3   force =    -0.00145230    0.00092792    0.00120489
     atom   31 type  1   force =     0.00096169    0.00001154    0.01113023
     atom   32 type  3   force =     0.00085117   -0.00003473   -0.00044308

     Total force =     0.052687     Total SCF correction =     0.001166

     BFGS Geometry Optimization

     number of scf cycles    =   1
     number of bfgs steps    =   0

     energy   new            =   -1567.1717242484 Ry

     new trust radius        =       0.0271220666 bohr
     new conv_thr            =       0.0000010000 Ry


ATOMIC_POSITIONS (crystal)
O0       0.000000000   0.000000000   0.377074999    0   0   1
O0       0.000000000   0.500000000   0.396494527    0   0   1
Ti1      0.250000000   0.500000000   0.448458741    0   0   1
Ti1      0.000000000   0.000000000   0.453740595    0   0   1
O0       0.250000000   0.810000000   0.448091370    0   0   1
O0       0.250000000   0.190000000   0.449139611    0   0   1
O0       0.000000000   0.500000000   0.496165258    0   0   1
O0       0.000000000   0.000000000   0.525649581    0   0   1
Ti1      0.250000000   0.000000000   0.581481758    0   0   1
Ti1      0.000000000   0.500000000   0.566614248    0   0   1
O0       0.250000000   0.690000000   0.579567960    0   0   1
O0       0.250000000   0.310000000   0.579549106    0   0   1
O0       0.000000000   0.000000000   0.622528312    0   0   1
O0       0.500000000   0.000000000   0.377283280    0   0   1
O0       0.500000000   0.500000000   0.395823133    0   0   1
Ti1      0.750000000   0.500000000   0.448566197    0   0   1
Ti1      0.500000000   0.000000000   0.454349951    0   0   1
O0       0.750000000   0.810000000   0.448005005    0   0   1
O0       0.750000000   0.190000000   0.449188361    0   0   1
O0       0.500000000   0.500000000   0.491317316    0   0   1
O0       0.500000000   0.000000000   0.525800997    0   0   1
Ti1      0.750000000   0.000000000   0.581552161    0   0   1
Ti1      0.500000000   0.500000000   0.593678868    0   0   1
O0       0.750000000   0.690000000   0.578982710    0   0   1
O0       0.750000000   0.310000000   0.578922525    0   0   1
O0       0.500000000   0.000000000   0.622527550    0   0   1
H2      -0.000768325   0.622479956   0.374913519
H2       0.499338375   0.618991048   0.373164962
H2       0.149567484   0.039417748   0.363790609
H2       0.649380619   0.039424670   0.363923992
O0       0.504875674   0.499890929   0.661501623
H2       0.376685828   0.499507206   0.684401177


     Check: negative starting charge=   -0.102331
     NEW-OLD atomic charge density approx. for the potential

     Check: negative/imaginary core charge=   -0.000006    0.000000
     Check: negative starting charge=   -0.101832

     negative rho (up, down):  0.103E+00 0.000E+00
 Atomic wfc used for LDA+U Projector are NOT orthogonalized

     total cpu time spent up to now is     4730.4 secs

     per-process dynamical memory:   399.1 Mb

     Self-consistent Calculation

     iteration #  1     ecut=    40.00 Ry     beta=0.70
     Davidson diagonalization with overlap
     ethr =  1.00E-06,  avg # of iterations =  4.9
 --- enter write_ns ---
 LDA+U parameters:
U( 2)     =  2.00000000
alpha( 2) =  0.00000000
atom    3   Tr[ns(na)] =   2.80315
    eigenvalues: 
  0.179  0.191  0.215  0.388  0.429
    eigenvectors:
  0.090  0.675  0.053  0.169  0.012
  0.004  0.003  0.003  0.179  0.812
  0.558  0.010  0.432  0.000  0.000
  0.024  0.143  0.009  0.651  0.174
  0.323  0.170  0.504  0.000  0.002
    occupations:
  0.228  0.010 -0.005  0.076  0.002
  0.010  0.419  0.003 -0.022  0.011
 -0.005  0.003  0.194  0.007 -0.016
  0.076 -0.022  0.007  0.360 -0.001
  0.002  0.011 -0.016 -0.001  0.200
atom    4   Tr[ns(na)] =   2.88379
    eigenvalues: 
  0.167  0.211  0.223  0.415  0.425
    eigenvectors:
  0.006  0.002  0.000  0.000  0.992
  0.000  0.900  0.098  0.000  0.001
  0.000  0.098  0.901  0.000  0.000
  0.994  0.000  0.000  0.000  0.006
  0.000  0.000  0.000  1.000  0.000
    occupations:
  0.423  0.008  0.004 -0.020 -0.000
  0.008  0.213 -0.003 -0.000 -0.002
  0.004 -0.003  0.222  0.000 -0.000
 -0.020 -0.000  0.000  0.169 -0.000
 -0.000 -0.002 -0.000 -0.000  0.415
atom    9   Tr[ns(na)] =   2.88333
    eigenvalues: 
  0.176  0.218  0.236  0.383  0.429
    eigenvectors:
  0.000  0.000  0.926  0.074  0.000
  0.000  0.000  0.000  0.000  1.000
  0.998  0.002  0.000  0.000  0.000
  0.000  0.000  0.074  0.926  0.000
  0.002  0.998  0.000  0.000  0.000
    occupations:
  0.247 -0.000 -0.000  0.038  0.000
 -0.000  0.429  0.000  0.000 -0.000
 -0.000  0.000  0.176 -0.000  0.002
  0.038  0.000 -0.000  0.372 -0.000
  0.000 -0.000  0.002 -0.000  0.218
atom   10   Tr[ns(na)] =   2.80662
    eigenvalues: 
  0.172  0.232  0.236  0.334  0.430
    eigenvectors:
  0.017  0.000  0.000  0.983  0.000
  0.000  0.000  0.999  0.000  0.000
  0.000  1.000  0.000  0.000  0.000
  0.983  0.000  0.000  0.017  0.000
  0.000  0.000  0.000  0.000  1.000
    occupations:
  0.331  0.001 -0.000 -0.021 -0.000
  0.001  0.236 -0.000  0.000 -0.000
 -0.000 -0.000  0.232 -0.000 -0.001
 -0.021  0.000 -0.000  0.175  0.000
 -0.000 -0.000 -0.001  0.000  0.430
atom   16   Tr[ns(na)] =   2.80380
    eigenvalues: 
  0.179  0.192  0.215  0.388  0.429
    eigenvectors:
  0.083  0.682  0.054  0.168  0.013
  0.004  0.003  0.003  0.182  0.808
  0.567  0.008  0.425  0.000  0.000
  0.023  0.142  0.009  0.649  0.177
  0.324  0.164  0.510  0.001  0.002
    occupations:
  0.228 -0.010 -0.004  0.076 -0.003
 -0.010  0.419 -0.003  0.022  0.011
 -0.004 -0.003  0.194  0.006  0.016
  0.076  0.022  0.006  0.361  0.001
 -0.003  0.011  0.016  0.001  0.200
atom   17   Tr[ns(na)] =   2.87575
    eigenvalues: 
  0.166  0.211  0.223  0.411  0.426
    eigenvectors:
  0.006  0.002  0.000  0.000  0.992
  0.000  0.916  0.083  0.000  0.001
  0.000  0.082  0.917  0.000  0.000
  0.994  0.000  0.000  0.000  0.006
  0.000  0.000  0.000  1.000  0.000
    occupations:
  0.424  0.008  0.004 -0.020 -0.000
  0.008  0.213 -0.003 -0.000 -0.002
  0.004 -0.003  0.222  0.000 -0.000
 -0.020 -0.000  0.000  0.167 -0.000
 -0.000 -0.002 -0.000 -0.000  0.411
atom   22   Tr[ns(na)] =   2.88256
    eigenvalues: 
  0.176  0.218  0.236  0.383  0.429
    eigenvectors:
  0.000  0.000  0.926  0.074  0.000
  0.000  0.000  0.000  0.000  1.000
  0.998  0.002  0.000  0.000  0.000
  0.000  0.000  0.074  0.926  0.000
  0.002  0.998  0.000  0.000  0.000
    occupations:
  0.247 -0.000 -0.000  0.038  0.000
 -0.000  0.429 -0.000 -0.000 -0.000
 -0.000 -0.000  0.176 -0.000 -0.002
  0.038 -0.000 -0.000  0.372 -0.000
  0.000 -0.000 -0.002 -0.000  0.218
atom   23   Tr[ns(na)] =   2.83114
    eigenvalues: 
  0.153  0.225  0.257  0.377  0.405
    eigenvectors:
  0.012  0.037  0.000  0.951  0.000
  0.002  0.959  0.000  0.039  0.000
  0.000  0.000  1.000  0.000  0.000
  0.987  0.004  0.000  0.010  0.000
  0.000  0.000  0.000  0.000  1.000
    occupations:
  0.368  0.030  0.000 -0.022 -0.000
  0.030  0.230 -0.000 -0.000 -0.000
  0.000 -0.000  0.257 -0.000 -0.000
 -0.022 -0.000 -0.000  0.155 -0.000
 -0.000 -0.000 -0.000 -0.000  0.405
N of occupied +U levels =  22.7701370
 --- exit write_ns ---

     negative rho (up, down):  0.104E+00 0.000E+00

     total cpu time spent up to now is     4987.7 secs

     total energy              =   -1567.16376359 Ry
     Harris-Foulkes estimate   =   -1567.17448300 Ry
     estimated scf accuracy    <       0.01269094 Ry

     iteration #  2     ecut=    40.00 Ry     beta=0.70
     Davidson diagonalization with overlap
     ethr =  5.90E-06,  avg # of iterations =  5.4

     negative rho (up, down):  0.104E+00 0.000E+00

     total cpu time spent up to now is     5189.3 secs

     total energy              =   -1567.14781235 Ry
     Harris-Foulkes estimate   =   -1567.22278886 Ry
     estimated scf accuracy    <       0.39752791 Ry

     iteration #  3     ecut=    40.00 Ry     beta=0.70
     Davidson diagonalization with overlap
     ethr =  5.90E-06,  avg # of iterations =  5.4

     negative rho (up, down):  0.104E+00 0.000E+00

     total cpu time spent up to now is     5388.1 secs

     total energy              =   -1567.17271867 Ry
     Harris-Foulkes estimate   =   -1567.17491716 Ry
     estimated scf accuracy    <       0.02629723 Ry

     iteration #  4     ecut=    40.00 Ry     beta=0.70
     Davidson diagonalization with overlap
     ethr =  5.90E-06,  avg # of iterations =  1.0

     negative rho (up, down):  0.104E+00 0.000E+00

     total cpu time spent up to now is     5548.8 secs

     total energy              =   -1567.17308789 Ry
     Harris-Foulkes estimate   =   -1567.17440211 Ry
     estimated scf accuracy    <       0.01704299 Ry

     iteration #  5     ecut=    40.00 Ry     beta=0.70
     Davidson diagonalization with overlap
     ethr =  5.90E-06,  avg # of iterations =  1.2

     negative rho (up, down):  0.104E+00 0.000E+00

     total cpu time spent up to now is     5707.2 secs

     total energy              =   -1567.17356768 Ry
     Harris-Foulkes estimate   =   -1567.17374424 Ry
     estimated scf accuracy    <       0.00083177 Ry

     iteration #  6     ecut=    40.00 Ry     beta=0.70
     Davidson diagonalization with overlap
     ethr =  3.87E-07,  avg # of iterations =  3.6

     negative rho (up, down):  0.104E+00 0.000E+00

     total cpu time spent up to now is     5874.3 secs

     total energy              =   -1567.17364196 Ry
     Harris-Foulkes estimate   =   -1567.17369812 Ry
     estimated scf accuracy    <       0.00019919 Ry

     iteration #  7     ecut=    40.00 Ry     beta=0.70
     Davidson diagonalization with overlap
     ethr =  9.26E-08,  avg # of iterations =  1.0

     negative rho (up, down):  0.104E+00 0.000E+00

     total cpu time spent up to now is     6028.0 secs

     total energy              =   -1567.17366560 Ry
     Harris-Foulkes estimate   =   -1567.17367628 Ry
     estimated scf accuracy    <       0.00004772 Ry

     iteration #  8     ecut=    40.00 Ry     beta=0.70
     Davidson diagonalization with overlap
     ethr =  2.22E-08,  avg # of iterations =  1.0

     negative rho (up, down):  0.104E+00 0.000E+00

     total cpu time spent up to now is     6179.4 secs

     total energy              =   -1567.17366856 Ry
     Harris-Foulkes estimate   =   -1567.17367414 Ry
     estimated scf accuracy    <       0.00002688 Ry

     iteration #  9     ecut=    40.00 Ry     beta=0.70
     Davidson diagonalization with overlap
     ethr =  1.25E-08,  avg # of iterations =  1.0

     negative rho (up, down):  0.104E+00 0.000E+00

     total cpu time spent up to now is     6329.0 secs

     total energy              =   -1567.17367118 Ry
     Harris-Foulkes estimate   =   -1567.17367204 Ry
     estimated scf accuracy    <       0.00000278 Ry

     iteration # 10     ecut=    40.00 Ry     beta=0.70
     Davidson diagonalization with overlap
     ethr =  1.29E-09,  avg # of iterations =  1.0

     negative rho (up, down):  0.104E+00 0.000E+00

     total cpu time spent up to now is     6482.0 secs

     total energy              =   -1567.17367153 Ry
     Harris-Foulkes estimate   =   -1567.17367181 Ry
     estimated scf accuracy    <       0.00000126 Ry

     iteration # 11     ecut=    40.00 Ry     beta=0.70
     Davidson diagonalization with overlap
     ethr =  5.85E-10,  avg # of iterations =  1.0

     negative rho (up, down):  0.104E+00 0.000E+00

     total cpu time spent up to now is     6634.3 secs

     End of self-consistent calculation
 --- enter write_ns ---
 LDA+U parameters:
U( 2)     =  2.00000000
alpha( 2) =  0.00000000
atom    3   Tr[ns(na)] =   2.80287
    eigenvalues: 
  0.179  0.191  0.214  0.388  0.429
    eigenvectors:
  0.099  0.664  0.055  0.169  0.013
  0.004  0.002  0.003  0.178  0.812
  0.551  0.012  0.436  0.001  0.000
  0.027  0.141  0.009  0.651  0.173
  0.319  0.181  0.498  0.000  0.002
    occupations:
  0.228  0.010 -0.005  0.077  0.002
  0.010  0.419  0.003 -0.022  0.011
 -0.005  0.003  0.195  0.007 -0.016
  0.077 -0.022  0.007  0.360 -0.001
  0.002  0.011 -0.016 -0.001  0.199
atom    4   Tr[ns(na)] =   2.88956
    eigenvalues: 
  0.168  0.211  0.224  0.416  0.427
    eigenvectors:
  0.006  0.002  0.000  0.000  0.992
  0.000  0.898  0.100  0.000  0.002
  0.000  0.099  0.900  0.000  0.000
  0.994  0.000  0.000  0.000  0.006
  0.000  0.000  0.000  1.000  0.000
    occupations:
  0.425  0.009  0.004 -0.020 -0.000
  0.009  0.213 -0.004 -0.000 -0.002
  0.004 -0.004  0.223  0.000 -0.000
 -0.020 -0.000  0.000  0.169 -0.000
 -0.000 -0.002 -0.000 -0.000  0.415
atom    9   Tr[ns(na)] =   2.87859
    eigenvalues: 
  0.176  0.217  0.236  0.382  0.428
    eigenvectors:
  0.000  0.000  0.926  0.074  0.000
  0.000  0.000  0.000  0.000  1.000
  0.998  0.002  0.000  0.000  0.000
  0.000  0.000  0.074  0.926  0.000
  0.002  0.998  0.000  0.000  0.000
    occupations:
  0.246 -0.000 -0.000  0.038  0.000
 -0.000  0.428  0.000  0.000 -0.000
 -0.000  0.000  0.176 -0.000  0.002
  0.038  0.000 -0.000  0.371 -0.000
  0.000 -0.000  0.002 -0.000  0.217
atom   10   Tr[ns(na)] =   2.80670
    eigenvalues: 
  0.172  0.232  0.236  0.334  0.430
    eigenvectors:
  0.017  0.000  0.000  0.983  0.000
  0.000  0.001  0.999  0.000  0.000
  0.000  0.999  0.001  0.000  0.000
  0.983  0.000  0.000  0.017  0.000
  0.000  0.000  0.000  0.000  1.000
    occupations:
  0.331  0.001 -0.000 -0.021 -0.000
  0.001  0.236 -0.000  0.000 -0.000
 -0.000 -0.000  0.232 -0.000 -0.001
 -0.021  0.000 -0.000  0.175  0.000
 -0.000 -0.000 -0.001  0.000  0.430
atom   16   Tr[ns(na)] =   2.80370
    eigenvalues: 
  0.179  0.191  0.214  0.388  0.429
    eigenvectors:
  0.091  0.673  0.055  0.168  0.013
  0.004  0.003  0.003  0.182  0.809
  0.560  0.010  0.430  0.000  0.000
  0.025  0.141  0.009  0.649  0.176
  0.320  0.174  0.503  0.001  0.002
    occupations:
  0.228 -0.010 -0.005  0.076 -0.003
 -0.010  0.419 -0.003  0.022  0.011
 -0.005 -0.003  0.195  0.006  0.016
  0.076  0.022  0.006  0.361  0.001
 -0.003  0.011  0.016  0.001  0.200
atom   17   Tr[ns(na)] =   2.88212
    eigenvalues: 
  0.166  0.212  0.224  0.412  0.427
    eigenvectors:
  0.006  0.002  0.000  0.000  0.992
  0.000  0.915  0.083  0.000  0.001
  0.000  0.083  0.916  0.000  0.000
  0.994  0.000  0.000  0.000  0.006
  0.000  0.000  0.000  1.000  0.000
    occupations:
  0.425  0.008  0.004 -0.020 -0.000
  0.008  0.213 -0.003 -0.000 -0.002
  0.004 -0.003  0.223  0.000 -0.000
 -0.020 -0.000  0.000  0.168 -0.000
 -0.000 -0.002 -0.000 -0.000  0.412
atom   22   Tr[ns(na)] =   2.87772
    eigenvalues: 
  0.176  0.217  0.235  0.382  0.428
    eigenvectors:
  0.000  0.000  0.927  0.073  0.000
  0.000  0.000  0.000  0.000  1.000
  0.998  0.002  0.000  0.000  0.000
  0.000  0.000  0.073  0.927  0.000
  0.002  0.998  0.000  0.000  0.000
    occupations:
  0.246 -0.000 -0.000  0.038  0.000
 -0.000  0.428  0.000 -0.000 -0.000
 -0.000  0.000  0.176 -0.000 -0.002
  0.038 -0.000 -0.000  0.371 -0.000
  0.000 -0.000 -0.002 -0.000  0.217
atom   23   Tr[ns(na)] =   2.84002
    eigenvalues: 
[...]
    17.2706  17.3292  17.3939  17.4190  17.5402  17.5481  17.6267  17.6795
    17.6935  17.7736  17.8694  17.9447  17.9956  18.0167  18.0976  18.1743
    18.2345  18.3059  18.3366  18.4564  18.4738  18.5370

          k =-0.5000 0.0000 0.0000 ( 29982 PWs)   bands (ev):

   -60.4028 -60.3984 -60.1696 -59.7545 -59.4488 -59.4478 -59.0674 -59.0544
   -36.7414 -36.7309 -36.6118 -36.5988 -36.5596 -36.5552 -36.5096 -36.3792
   -36.3295 -36.0623 -36.0056 -35.9454 -35.8508 -35.8455 -35.7399 -35.7341
   -35.5607 -35.5589 -35.3580 -35.3477 -35.3414 -35.3384 -35.2679 -35.2565
   -21.3292 -21.2410 -20.5353 -20.4092 -19.9288 -19.8761 -19.6073 -19.5754
   -19.4886 -19.4717 -19.2943 -19.2487 -19.2461 -19.0286 -18.9789 -18.5559
   -18.5371 -18.2147 -18.1916  -9.1422  -9.0265  -8.2962  -7.5850  -7.5160
    -7.4866  -7.2173  -7.1918  -7.1709  -7.1271  -7.0802  -7.0786  -6.8906
    -6.5652  -6.5226  -6.2635  -6.1801  -6.1574  -6.0712  -6.0160  -5.8592
    -5.7992  -5.5552  -5.5195  -5.4303  -5.4072  -5.3273  -5.3071  -5.2777
    -5.1066  -4.9792  -4.8829  -4.8732  -4.7128  -4.6454  -4.5084  -4.3642
    -4.3197  -4.2741  -4.2547  -4.2190  -4.1742  -4.1463  -4.0406  -4.0344
    -3.8902  -3.7918  -3.5781  -3.5668  -3.5426  -3.5067  -3.0688  -3.0527
    -2.9422  -2.9237  -2.8924  -2.8789  -0.4262  -0.2577  -0.2080  -0.0897
     0.0853   0.1391   0.2678   0.3366   0.3736   0.4381   0.5780   0.6004
     0.7287   0.7293   0.7698   0.9144   0.9230   1.2119   1.2519   1.4542
     1.5772   1.6790   1.6881   1.6969   1.8914   1.9981   2.3015   2.3565
     2.5613   2.5690   2.8992   3.0036   3.3819   3.4234   3.4567   3.4688
     3.4799   3.4973   3.8328   3.9349   4.0075   4.2610   4.3779   4.6277
     4.7023   4.8503   5.1376   5.2982   5.6537   5.7884   6.2552   6.3884
     6.6581   6.8226   6.9043   7.0309   7.3918   7.4210   7.5655   7.6345
     7.6646   7.9482   7.9668   8.0069   8.1500   8.1536   8.1888   8.2339
     8.3636   8.3812   8.5741   8.6728   8.7485   8.8735   8.9353   9.0339
     9.0953   9.2389   9.4307   9.4589   9.6454   9.7082   9.7887   9.8723
     9.8974   9.9678  10.1259  10.2125  10.2760  10.3468  10.4931  10.6213
    10.6901  10.8359  10.8981  10.9739  11.0361  11.1262  11.2726  11.5498
    11.5847  11.6817  11.8144  11.9127  11.9920  12.0416  12.0641  12.1834
    12.2857  12.3393  12.4110  12.5614  12.6965  12.7417  12.8444  12.8740
    12.9724  13.0187  13.0702  13.1624  13.2125  13.2991  13.3880  13.4528
    13.5326  13.6016  13.6828  13.7606  13.8824  13.9995  14.0101  14.0891
    14.1285  14.1913  14.2659  14.2705  14.3767  14.4030  14.5033  14.5854
    14.7067  14.7758  14.8557  14.9871  15.1258  15.2184  15.3563  15.3716
    15.4672  15.4706  15.5617  15.5993  15.6539  15.7439  15.8409  15.8920
    15.9383  15.9898  16.0417  16.1297  16.2085  16.2410  16.3902  16.4140
    16.4610  16.5264  16.5339  16.5822  16.6328  16.6527  16.6744  16.7214
    16.7483  16.8193  16.8600  16.9016  16.9939  17.0374  17.0775  17.1754
    17.2465  17.3084  17.4326  17.5291  17.6282  17.6386  17.7053  17.8357
    17.8590  17.9252  17.9615  18.0820  18.1136  18.1434  18.2693  18.2816
    18.3991  18.4190  18.4555  18.4718  18.5092  18.5413

          k =-0.5000 0.2258 0.0000 ( 29954 PWs)   bands (ev):

   -60.4028 -60.3984 -60.1696 -59.7545 -59.4487 -59.4478 -59.0674 -59.0544
   -36.7415 -36.7310 -36.6118 -36.5988 -36.5592 -36.5548 -36.5097 -36.3798
   -36.3286 -36.0627 -36.0060 -35.9440 -35.8497 -35.8444 -35.7414 -35.7355
   -35.5607 -35.5589 -35.3586 -35.3476 -35.3420 -35.3383 -35.2679 -35.2565
   -21.3264 -21.2383 -20.5283 -20.4073 -19.8785 -19.8507 -19.5813 -19.5151
   -19.4643 -19.4615 -19.3358 -19.3023 -19.2465 -19.1153 -19.0726 -18.5452
   -18.5278 -18.2142 -18.1896  -9.1322  -9.0164  -8.2970  -7.5684  -7.3789
    -7.3643  -7.1672  -7.1242  -7.0920  -6.9810  -6.9201  -6.8635  -6.7920
    -6.4996  -6.4659  -6.3142  -6.2193  -6.1073  -6.0634  -6.0197  -5.9593
    -5.7745  -5.7448  -5.6392  -5.5593  -5.5146  -5.4073  -5.3318  -5.2378
    -5.0893  -5.0528  -4.8781  -4.8439  -4.7759  -4.6311  -4.6234  -4.5715
    -4.5507  -4.4395  -4.4155  -4.3612  -4.2236  -4.1901  -4.1044  -4.0232
    -3.9742  -3.7666  -3.5443  -3.5203  -3.4250  -3.3814  -3.0829  -3.0604
    -3.0073  -2.9545  -2.9011  -2.8309  -0.4077  -0.2592  -0.2434  -0.1451
     0.0417   0.2295   0.2795   0.3320   0.5922   0.5995   0.6529   0.7009
     0.7133   0.8478   0.8828   1.0248   1.0548   1.1974   1.2771   1.4494
     1.5133   1.5641   1.7057   1.7183   1.8424   2.0517   2.2883   2.2962
     2.5141   2.5481   2.5577   2.6621   3.2812   3.3197   3.5398   3.5733
     3.7166   3.7284   3.9834   4.1003   4.1632   4.3205   4.3918   4.8303
     4.9041   5.0319   5.3051   5.4520   5.7053   5.7936   6.0352   6.1349
     6.2993   6.5003   6.6220   6.6874   6.7868   6.8773   6.9952   7.1536
     7.2094   7.3084   7.6183   7.7437   7.9167   8.0618   8.1812   8.3692
     8.5380   8.5962   8.7100   8.7579   8.8908   8.9837   9.1006   9.3615
     9.6350   9.7072   9.8327   9.8966   9.9709   9.9999  10.0545  10.0921
    10.1619  10.2468  10.3686  10.4264  10.5922  10.7628  10.8826  10.9367
    10.9607  11.0457  11.1322  11.2637  11.3983  11.4549  11.5874  11.6188
    11.6693  11.9049  11.9765  12.0365  12.0864  12.1550  12.2655  12.3317
    12.4033  12.5195  12.5866  12.7833  12.8164  12.8954  12.9001  13.0567
    13.1592  13.1995  13.2553  13.3594  13.4116  13.4573  13.4736  13.5170
    13.5475  13.6005  13.6535  13.7439  13.7729  13.8775  13.9751  14.0295
    14.1042  14.1662  14.2105  14.2825  14.2994  14.4110  14.4621  14.5099
    14.5227  14.6171  14.7254  14.8873  14.8996  14.9874  15.0379  15.0746
    15.1119  15.1924  15.2347  15.2605  15.3233  15.3557  15.4080  15.4307
    15.4450  15.5079  15.5743  15.6193  15.7054  15.7180  15.7543  15.8164
    15.8572  15.9097  16.0231  16.1065  16.1568  16.2446  16.2618  16.3271
    16.3673  16.4968  16.5633  16.6610  16.7080  16.7641  16.8125  16.8422
    16.9019  16.9385  17.1274  17.1854  17.2475  17.2711  17.3509  17.4056
    17.5292  17.5596  17.6687  17.7670  17.8026  17.8973  17.9516  18.1724
    18.2286  18.3511  18.4101  18.4442  18.5248  18.5822

          k =-0.5000-0.4516 0.0000 ( 29868 PWs)   bands (ev):

   -60.4029 -60.3985 -60.1696 -59.7545 -59.4487 -59.4477 -59.0675 -59.0544
   -36.7416 -36.7311 -36.6118 -36.5988 -36.5588 -36.5544 -36.5097 -36.3803
   -36.3278 -36.0631 -36.0064 -35.9425 -35.8486 -35.8433 -35.7429 -35.7371
   -35.5607 -35.5589 -35.3592 -35.3475 -35.3426 -35.3383 -35.2678 -35.2565
   -21.3237 -21.2356 -20.5215 -20.4056 -19.8216 -19.8043 -19.6124 -19.4351
   -19.3892 -19.3818 -19.3723 -19.3455 -19.2799 -19.2358 -19.2211 -18.5369
   -18.5201 -18.2138 -18.1877  -9.1221  -9.0062  -8.2978  -7.5649  -7.3338
    -7.3106  -7.1775  -6.8669  -6.8201  -6.7724  -6.6468  -6.5867  -6.5300
    -6.4489  -6.4116  -6.3856  -6.2762  -6.2533  -6.1455  -6.0361  -5.9867
    -5.8748  -5.8583  -5.7982  -5.7480  -5.5853  -5.4393  -5.3572  -5.1476
    -5.0999  -5.0916  -5.0651  -5.0061  -4.9201  -4.8262  -4.8126  -4.7426
    -4.6399  -4.5518  -4.5480  -4.3884  -4.2857  -4.2191  -4.0823  -4.0355
    -3.9755  -3.7072  -3.4902  -3.3949  -3.3464  -3.3116  -3.1539  -3.1242
    -3.0258  -2.9715  -2.8329  -2.8200  -0.3824  -0.2726  -0.2632  -0.1816
    -0.0104   0.2612   0.2801   0.3358   0.6639   0.6665   0.6831   0.9352
     0.9456   0.9624   1.0362   1.0881   1.2091   1.2178   1.2206   1.4668
     1.4810   1.5800   1.7313   1.7417   1.8197   2.0234   2.1105   2.1499
     2.1721   2.3418   2.5719   2.5741   3.3623   3.3954   3.4614   3.5537
     3.8382   3.8538   4.2345   4.2586   4.2832   4.5130   4.5243   5.1488
     5.1516   5.3430   5.4754   5.5279   5.5514   5.6123   5.7330   5.8306
     5.9576   6.0699   6.2276   6.3288   6.4618   6.6165   6.8340   6.9664
     7.1239   7.3515   7.4430   7.6443   7.6866   7.8294   7.9613   8.0773
     8.2138   8.4225   8.6485   8.8362   8.9214   9.0568   9.3129   9.3702
     9.4946   9.6044   9.8093  10.1429  10.2104  10.2762  10.3395  10.5670
    10.6026  10.6456  10.6554  11.1247  11.1876  11.4362  11.4646  11.4943
    11.5979  11.6334  11.7504  11.7957  11.9847  12.0263  12.1900  12.2248
    12.2896  12.3836  12.4373  12.4579  12.4939  12.5158  12.5216  12.5987
    12.6051  12.6286  12.6741  12.7100  12.8167  12.8414  12.9124  12.9884
    12.9926  13.0233  13.0839  13.2361  13.2873  13.3328  13.3953  13.4496
    13.4690  13.5062  13.5761  13.6501  13.7037  13.7569  13.7689  13.8013
    13.8167  13.9269  14.0007  14.0254  14.0586  14.1053  14.2024  14.2154
    14.2723  14.3249  14.3423  14.3770  14.4054  14.4472  14.4940  14.5325
    14.5757  14.6960  14.7952  14.8258  14.8868  14.9290  14.9607  15.0446
    15.0823  15.1453  15.1713  15.1763  15.3518  15.4940  15.5818  15.6414
    15.6646  15.7216  15.7743  15.8212  15.9221  15.9565  16.0344  16.0527
    16.0821  16.2212  16.3606  16.3828  16.4505  16.5081  16.5303  16.7124
    16.7521  16.9001  17.0029  17.0530  17.0891  17.1433  17.2462  17.2821
    17.3905  17.4533  17.5030  17.5377  17.6065  17.7936  17.8657  17.9587
    17.9879  18.0854  18.1133  18.1614  18.2140  18.2875

          k =-0.2500 0.2258 0.0000 ( 29912 PWs)   bands (ev):

   -60.4139 -60.3867 -60.1697 -59.7541 -59.4620 -59.4338 -59.0761 -59.0451
   -36.8747 -36.6553 -36.6116 -36.5688 -36.5459 -36.5368 -36.5105 -36.4098
   -36.3305 -36.0517 -36.0020 -35.9865 -35.9420 -35.7751 -35.7022 -35.6883
   -35.5722 -35.5505 -35.4826 -35.3643 -35.3366 -35.3180 -35.2455 -35.1576
   -21.4312 -21.1919 -20.5066 -20.4083 -20.1427 -19.7672 -19.6229 -19.5747
   -19.5082 -19.3753 -19.2977 -19.2201 -19.1377 -19.1024 -19.0638 -18.7073
   -18.4607 -18.1401 -18.1097  -9.2072  -8.9416  -8.2940  -7.7968  -7.6492
    -7.4716  -7.2451  -7.1927  -7.0619  -6.8807  -6.7705  -6.7137  -6.6705
    -6.6299  -6.4780  -6.4422  -6.3623  -6.2628  -6.1593  -6.0870  -5.9788
    -5.9360  -5.7425  -5.6156  -5.4159  -5.3316  -5.2706  -5.1754  -5.0859
    -5.0347  -4.9996  -4.8773  -4.8489  -4.7617  -4.7075  -4.6356  -4.5913
    -4.5180  -4.4416  -4.3328  -4.2616  -4.2099  -4.1381  -4.0277  -3.8734
    -3.7701  -3.6725  -3.5281  -3.4864  -3.4450  -3.3108  -3.2250  -3.1881
    -3.0474  -2.9590  -2.8470  -2.7036  -0.4449  -0.3391  -0.2981  -0.1421
     0.0829   0.1449   0.2426   0.3571   0.3930   0.5106   0.5842   0.6942
     0.8193   0.8984   0.9476   1.0024   1.1070   1.2254   1.2436   1.3680
     1.4749   1.6193   1.6297   1.7448   1.9365   2.0293   2.1282   2.3005
     2.3430   2.5761   2.6418   3.0796   3.1307   3.2866   3.4665   3.6176
     3.6457   3.7038   3.7975   3.9856   4.1239   4.2929   4.3792   4.5881
     5.0217   5.2477   5.2745   5.5706   5.8269   5.8698   6.0923   6.1982
     6.2990   6.4561   6.5410   6.8575   6.9595   7.2827   7.3491   7.4677
     7.6485   7.8091   7.9007   7.9836   8.0727   8.1192   8.2001   8.3896
     8.4995   8.5845   8.7690   8.8336   8.9398   9.0789   9.2515   9.3162
     9.4156   9.5262   9.5647   9.6184   9.7690   9.8920  10.0234  10.0692
    10.1485  10.2511  10.3922  10.4644  10.5830  10.6498  10.7566  10.8048
    10.9484  10.9765  11.0315  11.1372  11.2740  11.2961  11.4149  11.4741
    11.4871  11.5678  11.6444  11.7408  11.8298  11.9373  11.9745  12.0281
    12.1266  12.1814  12.2062  12.3444  12.3966  12.4507  12.5090  12.5858
    12.7075  12.8110  12.8559  12.8880  12.9715  13.0119  13.0486  13.1296
    13.3404  13.3850  13.4860  13.6006  13.6214  13.6820  13.8164  13.8643
    13.8923  13.9578  14.1243  14.1466  14.2158  14.2721  14.4223  14.4652
    14.5259  14.5728  14.6410  14.6630  14.7291  14.8498  14.9431  14.9816
    15.0293  15.1950  15.2633  15.2932  15.3490  15.4067  15.4905  15.5576
    15.6075  15.6681  15.7852  15.8335  15.8561  15.9470  16.0153  16.0679
    16.2147  16.2493  16.3392  16.3717  16.4293  16.5008  16.6346  16.6962
    16.7522  16.7881  16.8242  16.8420  16.9342  17.0251  17.0620  17.1193
    17.2047  17.2933  17.3519  17.3776  17.4697  17.5174  17.6146  17.7045
    17.7735  17.8529  17.9172  17.9432  18.0743  18.1075  18.2246  18.2828
    18.3876  18.4412  18.4790  18.5462  18.6149  18.7042

     the Fermi energy is    -2.7234 ev

!    total energy              =   -1567.17513790 Ry
     Harris-Foulkes estimate   =   -1567.17513791 Ry
     estimated scf accuracy    <          9.2E-09 Ry

     The total energy is the sum of the following terms:

     one-electron contribution =  -18610.01143598 Ry
     hartree contribution      =    9323.79588452 Ry
     xc contribution           =    -277.51817021 Ry
     ewald contribution        =    7995.42250864 Ry
     Hubbard energy            =       1.13540218 Ry
     smearing contrib. (-TS)   =       0.00067295 Ry

     convergence has been achieved in  11 iterations

     Forces acting on atoms (Ry/au):


     negative rho (up, down):  0.104E+00 0.000E+00
     atom    1 type  1   force =    -0.00089081   -0.01098785    0.00057061
     atom    2 type  1   force =     0.00002320    0.01629738    0.00021680
     atom    3 type  2   force =     0.06087312   -0.00944902    0.00046923
     atom    4 type  2   force =    -0.00280893    0.00515372   -0.00012404
     atom    5 type  1   force =    -0.00299570   -0.07064281   -0.00091583
     atom    6 type  1   force =    -0.00497745    0.07200297   -0.00057321
     atom    7 type  1   force =     0.00126014    0.00065284   -0.00004927
     atom    8 type  1   force =     0.00231215   -0.00106589    0.00083628
     atom    9 type  2   force =    -0.00044942   -0.00005314   -0.00042276
     atom   10 type  2   force =    -0.00464245    0.00019942    0.00015807
     atom   11 type  1   force =    -0.01680074   -0.02368676    0.00023242
     atom   12 type  1   force =    -0.01703728    0.02357467    0.00022943
     atom   13 type  1   force =     0.00142564    0.00012235   -0.00036707
     atom   14 type  1   force =    -0.00182200   -0.01058383    0.00015466
     atom   15 type  1   force =     0.00012607    0.01268228   -0.00015501
     atom   16 type  2   force =    -0.06081376   -0.00964068    0.00049369
     atom   17 type  2   force =    -0.00247902    0.00454407    0.00007256
     atom   18 type  1   force =     0.00700993   -0.07015928   -0.00090241
     atom   19 type  1   force =     0.00567661    0.07224643   -0.00061312
     atom   20 type  1   force =    -0.00067503   -0.00004688    0.00023108
     atom   21 type  1   force =     0.00126352   -0.00085433    0.00092015
     atom   22 type  2   force =    -0.00023121   -0.00001513   -0.00048513
     atom   23 type  2   force =    -0.00090397    0.00008262    0.00020581
     atom   24 type  1   force =     0.01931949   -0.02188380   -0.00009060
     atom   25 type  1   force =     0.01887153    0.02180875   -0.00008851
     atom   26 type  1   force =    -0.00093267    0.00006185   -0.00039478
     atom   27 type  3   force =     0.00003131    0.00008092    0.00036751
     atom   28 type  3   force =     0.00003380    0.00055127    0.00057727
     atom   29 type  3   force =    -0.00022833   -0.00056403   -0.00024718
     atom   30 type  3   force =    -0.00011564   -0.00039128   -0.00035385
     atom   31 type  1   force =     0.00032056    0.00001285   -0.00039451
     atom   32 type  3   force =     0.00025731   -0.00004970    0.00044173

     Total force =     0.002790     Total SCF correction =     0.000169

     bfgs converged in  10 scf cycles and   9 bfgs steps
     (criteria: energy < 0.10E-03, force < 0.10E-02)

     End of BFGS Geometry Optimization

     Final energy   =   -1567.1751379018 Ry
Begin final coordinates

ATOMIC_POSITIONS (crystal)
O0       0.000000000   0.000000000   0.377234858    0   0   1
O0       0.000000000   0.500000000   0.396132601    0   0   1
Ti1      0.250000000   0.500000000   0.448486611    0   0   1
Ti1      0.000000000   0.000000000   0.452459147    0   0   1
O0       0.250000000   0.810000000   0.448615363    0   0   1
O0       0.250000000   0.190000000   0.449383122    0   0   1
O0       0.000000000   0.500000000   0.496096859    0   0   1
O0       0.000000000   0.000000000   0.525497753    0   0   1
Ti1      0.250000000   0.000000000   0.581343454    0   0   1
Ti1      0.000000000   0.500000000   0.566721220    0   0   1
O0       0.250000000   0.690000000   0.579511436    0   0   1
O0       0.250000000   0.310000000   0.579509141    0   0   1
O0       0.000000000   0.000000000   0.622705618    0   0   1
O0       0.500000000   0.000000000   0.377541840    0   0   1
O0       0.500000000   0.500000000   0.395576296    0   0   1
Ti1      0.750000000   0.500000000   0.448577018    0   0   1
Ti1      0.500000000   0.000000000   0.452946643    0   0   1
O0       0.750000000   0.810000000   0.448576721    0   0   1
O0       0.750000000   0.190000000   0.449408336    0   0   1
O0       0.500000000   0.500000000   0.491440926    0   0   1
O0       0.500000000   0.000000000   0.525583343    0   0   1
Ti1      0.750000000   0.000000000   0.581438428    0   0   1
Ti1      0.500000000   0.500000000   0.593927154    0   0   1
O0       0.750000000   0.690000000   0.579031893    0   0   1
O0       0.750000000   0.310000000   0.578944482    0   0   1
O0       0.500000000   0.000000000   0.622707482    0   0   1
H2      -0.000648731   0.624237076   0.375129525
H2       0.499542568   0.621251298   0.373621870
H2       0.149406108   0.038474037   0.363852394
H2       0.648907607   0.038867878   0.364005709
O0       0.507078304   0.499934845   0.661798653
H2       0.377190246   0.499424865   0.684444103
End final coordinates



     init_run     :     98.42s CPU    100.08s WALL (       1 calls)
     electrons    :  20348.39s CPU  20994.69s WALL (      10 calls)
     update_pot   :    163.23s CPU    167.12s WALL (       9 calls)
     forces       :   1142.32s CPU   1163.18s WALL (      10 calls)

     Called by init_run:
     wfcinit      :     31.78s CPU     32.38s WALL (       1 calls)
     potinit      :      6.91s CPU      7.19s WALL (       1 calls)

     Called by electrons:
     c_bands      :  10639.36s CPU  11006.95s WALL (     128 calls)
     sum_band     :   4133.82s CPU   4264.60s WALL (     128 calls)
     v_of_rho     :    127.50s CPU    135.11s WALL (     132 calls)
     newd         :   5792.38s CPU   5833.39s WALL (     132 calls)
     mix_rho      :     22.36s CPU     22.93s WALL (     128 calls)

     Called by c_bands:
     init_us_2    :     29.04s CPU     29.35s WALL (     861 calls)
     cegterg      :  10509.97s CPU  10854.60s WALL (     384 calls)

     Called by *egterg:
     h_psi        :   6236.29s CPU   6464.41s WALL (    1302 calls)
     s_psi        :    633.51s CPU    642.21s WALL (    1362 calls)
     g_psi        :     13.71s CPU     13.73s WALL (     915 calls)
     cdiaghg      :   1014.50s CPU   1018.55s WALL (    1254 calls)

     Called by h_psi:
     add_vuspsi   :    604.69s CPU    613.83s WALL (    1302 calls)
     vhpsi        :    609.71s CPU    617.13s WALL (    1302 calls)

     General routines
     calbec       :   1523.07s CPU   1543.57s WALL (   12132 calls)
     fft          :    182.48s CPU    234.69s WALL (    2215 calls)
     ffts         :      2.36s CPU      2.42s WALL (     260 calls)
     fftw         :   3702.04s CPU   3942.17s WALL (  638854 calls)
     interpolate  :     19.82s CPU     20.14s WALL (     260 calls)
     davcio       :      0.07s CPU     12.46s WALL (     891 calls)

     Parallel routines
     fft_scatter  :   1471.92s CPU   1756.44s WALL (  641329 calls)
     Hubbard U routines
     new_ns       :    123.72s CPU    132.09s WALL (     128 calls)
     vhpsi        :    609.71s CPU    617.13s WALL (    1302 calls)
     force_hub    :    308.65s CPU    317.14s WALL (      10 calls)

     PWSCF        :     6h 9m CPU        6h21m WALL


   This run was terminated on:   9:16:33  30Apr2014            

=------------------------------------------------------------------------------=
   JOB DONE.
=------------------------------------------------------------------------------=
