
     Program PWSCF v.5.0.2 (svn rev. 9656) starts on  6May2014 at  7:32:32 

     This program is part of the open-source Quantum ESPRESSO suite
     for quantum simulation of materials; please cite
         "P. Giannozzi et al., J. Phys.:Condens. Matter 21 395502 (2009);
          URL http://www.quantum-espresso.org", 
     in publications or presentations arising from this work. More details at
     http://www.quantum-espresso.org/quote.php

     Parallel version (MPI), running on    16 processors
     K-points division:     npool     =       4
     R & G space division:  proc/nbgrp/npool/nimage =       4

     Current dimensions of program PWSCF are:
     Max number of different atomic species (ntypx) = 10
     Max number of k-points (npk) =  40000
     Max angular momentum in pseudopotentials (lmaxx) =  3
     Reading input from pwscf.in
Warning: card &CELL ignored
Warning: card / ignored

     Subspace diagonalization in iterative solution of the eigenvalue problem:
     a serial algorithm will be used

     Found symmetry operation: I + ( -0.5000  0.0000  0.0000)
     This is a supercell, fractional translations are disabled

     Parallelization info
     --------------------
     sticks:   dense  smooth     PW     G-vecs:    dense   smooth      PW
     Min        1491     475    132               353925    64028    9441
     Max        1492     476    134               353934    64061    9444
     Sum        5965    1901    531              1415713   256153   37769



     bravais-lattice index     =            0
     lattice parameter (alat)  =      12.2076  a.u.
     unit-cell volume          =    7496.5096 (a.u.)^3
     number of atoms/cell      =           30
     number of atomic types    =            3
     number of electrons       =       240.00
     number of Kohn-Sham states=          360
     kinetic-energy cutoff     =      40.0000  Ry
     charge density cutoff     =     500.0000  Ry
     convergence threshold     =      1.0E-06
     mixing beta               =       0.7000
     number of iterations used =            8  plain     mixing
     Exchange-correlation      = SLA  PW   PBE  PBE ( 1 4 3 4 0)
     EXX-fraction              =        0.00
     nstep                     =           50


     celldm(1)=  12.207631  celldm(2)=   0.000000  celldm(3)=   0.000000
     celldm(4)=   0.000000  celldm(5)=   0.000000  celldm(6)=   0.000000

     crystal axes: (cart. coord. in units of alat)
               a(1) = (   1.000000   0.000000   0.000000 )  
               a(2) = (   0.000000   1.004836   0.000000 )  
               a(3) = (   0.000000   0.000000   4.100811 )  

     reciprocal axes: (cart. coord. in units 2 pi/alat)
               b(1) = (  1.000000  0.000000  0.000000 )  
               b(2) = (  0.000000  0.995187  0.000000 )  
               b(3) = (  0.000000  0.000000  0.243854 )  


     PseudoPot. # 1 for O  read from file:
     /home/camp/zhonxu/pseudo/o_pbe_v1.01.uspp.F.UPF
     MD5 check sum: 2bcb18d16ea4b960afae9ec6d52f22d2
     Pseudo is Ultrasoft + core correction, Zval =  6.0
     Generated by new atomic code, or converted to UPF format
     Using radial grid of  737 points,  5 beta functions with: 
                l(1) =   0
                l(2) =   0
                l(3) =   1
                l(4) =   1
                l(5) =   2
     Q(r) pseudized with  8 coefficients,  rinner =    0.900   0.900   0.900
                                                       0.900   0.900

     PseudoPot. # 2 for Pt read from file:
     /home/camp/zhonxu/pseudo/pt_pbe_v1.uspp.F.UPF
     MD5 check sum: 4c71d6ad5ef119f1eb26a4d0b7884226
     Pseudo is Ultrasoft + core correction, Zval = 16.0
     Generated by new atomic code, or converted to UPF format
     Using radial grid of  985 points,  6 beta functions with: 
                l(1) =   0
                l(2) =   0
                l(3) =   1
                l(4) =   1
                l(5) =   2
                l(6) =   2
     Q(r) pseudized with  8 coefficients,  rinner =    1.300   1.300   1.300
                                                       1.300   1.300

     PseudoPot. # 3 for H  read from file:
     /home/camp/zhonxu/pseudo/h_pbe_v1.uspp.F.UPF
     MD5 check sum: 3408e3ff4ec8b0a4e358431e7e038a48
     Pseudo is Ultrasoft, Zval =  1.0
     Generated by new atomic code, or converted to UPF format
     Using radial grid of  615 points,  2 beta functions with: 
                l(1) =   0
                l(2) =   0
     Q(r) pseudized with  8 coefficients,  rinner =    0.700

     atomic species   valence    mass     pseudopotential
        O0             6.00    15.99940     O ( 1.00)
        Pt1           16.00   195.08000     Pt( 1.00)
        H2             1.00     1.00794     H ( 1.00)


     Simplified LDA+U calculation (l_max = 2) with parameters (eV):
     atomic species    L          U    alpha       J0     beta
        Pt1            2     3.5000   0.0000   0.0000   0.0000



     No symmetry found



   Cartesian axes

     site n.     atom                  positions (alat units)
         1           O0  tau(   1) = (   0.0000000   0.0000000   1.5457188  )
         2           O0  tau(   2) = (   0.0000000   0.5024180   1.6369208  )
         3           Pt1 tau(   3) = (   0.2500000   0.5024180   1.8413872  )
         4           Pt1 tau(   4) = (   0.0000000   0.0000000   1.8534436  )
         5           O0  tau(   5) = (   0.2500000   0.8139171   1.8157162  )
         6           O0  tau(   6) = (   0.2500000   0.1909188   1.8824364  )
         7           O0  tau(   7) = (   0.0000000   0.5024180   2.0315829  )
         8           O0  tau(   8) = (   0.0000000   0.0000000   2.1708464  )
         9           Pt1 tau(   9) = (   0.2500000   0.0000000   2.3625593  )
        10           Pt1 tau(  10) = (   0.0000000   0.5024180   2.3549318  )
        11           O0  tau(  11) = (   0.2500000   0.6933368   2.3911010  )
        12           O0  tau(  12) = (   0.2500000   0.3114991   2.3934384  )
        13           O0  tau(  13) = (   0.0000000   0.0000000   2.5491052  )
        14           O0  tau(  14) = (   0.5000000   0.0000000   1.5457188  )
        15           O0  tau(  15) = (   0.5000000   0.5024180   1.6369208  )
        16           Pt1 tau(  16) = (   0.7500000   0.5024180   1.8413872  )
        17           Pt1 tau(  17) = (   0.5000000   0.0000000   1.8534436  )
        18           O0  tau(  18) = (   0.7500000   0.8139171   1.8157162  )
        19           O0  tau(  19) = (   0.7500000   0.1909188   1.8824364  )
        20           O0  tau(  20) = (   0.5000000   0.5024180   2.0315829  )
        21           O0  tau(  21) = (   0.5000000   0.0000000   2.1708464  )
        22           Pt1 tau(  22) = (   0.7500000   0.0000000   2.3625593  )
        23           Pt1 tau(  23) = (   0.5000000   0.5024180   2.3549318  )
        24           O0  tau(  24) = (   0.7500000   0.6933368   2.3911010  )
        25           O0  tau(  25) = (   0.7500000   0.3114991   2.3934384  )
        26           O0  tau(  26) = (   0.5000000   0.0000000   2.5491052  )
        27           H2  tau(  27) = (  -0.0000500   0.6431553   1.5728661  )
        28           H2  tau(  28) = (   0.4999500   0.6431553   1.5728661  )
        29           H2  tau(  29) = (   0.1440700   0.0315318   1.5048747  )
        30           H2  tau(  30) = (   0.6440700   0.0315318   1.5048747  )

     number of k points=    10  Methfessel-Paxton smearing, width (Ry)=  0.0100
                       cart. coord. in units 2pi/alat
        k(    1) = (   0.0000000   0.0000000   0.0000000), wk =   0.1250000
        k(    2) = (   0.0000000   0.2487968   0.0000000), wk =   0.2500000
        k(    3) = (   0.0000000  -0.4975937   0.0000000), wk =   0.1250000
        k(    4) = (   0.2500000   0.0000000   0.0000000), wk =   0.2500000
        k(    5) = (   0.2500000   0.2487968   0.0000000), wk =   0.2500000
        k(    6) = (   0.2500000  -0.4975937   0.0000000), wk =   0.2500000
        k(    7) = (  -0.5000000   0.0000000   0.0000000), wk =   0.1250000
        k(    8) = (  -0.5000000   0.2487968   0.0000000), wk =   0.2500000
        k(    9) = (  -0.5000000  -0.4975937   0.0000000), wk =   0.1250000
        k(   10) = (  -0.2500000   0.2487968   0.0000000), wk =   0.2500000

     Dense  grid:  1415713 G-vectors     FFT dimensions: (  90,  90, 360)

     Smooth grid:   256153 G-vectors     FFT dimensions: (  50,  50, 216)

     Largest allocated arrays     est. size (Mb)     dimensions
        Kohn-Sham Wavefunctions        44.48 Mb     (   8098,  360)
        Atomic wavefunctions           21.25 Mb     (   8098,  172)
        NL pseudopotentials            47.70 Mb     (   8098,  386)
        Each V/rho on FFT grid         11.12 Mb     ( 729000)
        Each G-vector array             2.70 Mb     ( 353934)
        G-vector shells                 1.17 Mb     ( 153301)
     Largest temporary arrays     est. size (Mb)     dimensions
        Auxiliary wavefunctions       177.93 Mb     (   8098, 1440)
        Each subspace H/S matrix       31.64 Mb     (1440,1440)
        Each <psi_i|beta_j> matrix      2.12 Mb     (    386,  360)
        Arrays for rho mixing          88.99 Mb     ( 729000,   8)

     Check: negative/imaginary core charge=   -0.000003    0.000000

     Initial potential from superposition of free atoms
     Check: negative starting charge=   -1.537272

     starting charge  235.99985, renormalised to  240.00000

     negative rho (up, down):  0.156E+01 0.000E+00
     Number of +U iterations with fixed ns =  0
     Starting occupations:
 --- enter write_ns ---
 LDA+U parameters:
U( 2)     =  3.50000000
alpha( 2) =  0.00000000
atom    3   Tr[ns(na)] =   8.00000
    eigenvalues: 
  0.800  0.800  0.800  0.800  0.800
    eigenvectors:
  1.000  0.000  0.000  0.000  0.000
  0.000  1.000  0.000  0.000  0.000
  0.000  0.000  1.000  0.000  0.000
  0.000  0.000  0.000  1.000  0.000
  0.000  0.000  0.000  0.000  1.000
    occupations:
  0.800  0.000  0.000  0.000  0.000
  0.000  0.800  0.000  0.000  0.000
  0.000  0.000  0.800  0.000  0.000
  0.000  0.000  0.000  0.800  0.000
  0.000  0.000  0.000  0.000  0.800
atom    4   Tr[ns(na)] =   8.00000
    eigenvalues: 
  0.800  0.800  0.800  0.800  0.800
    eigenvectors:
  1.000  0.000  0.000  0.000  0.000
  0.000  1.000  0.000  0.000  0.000
  0.000  0.000  1.000  0.000  0.000
  0.000  0.000  0.000  1.000  0.000
  0.000  0.000  0.000  0.000  1.000
    occupations:
  0.800  0.000  0.000  0.000  0.000
  0.000  0.800  0.000  0.000  0.000
  0.000  0.000  0.800  0.000  0.000
  0.000  0.000  0.000  0.800  0.000
  0.000  0.000  0.000  0.000  0.800
atom    9   Tr[ns(na)] =   8.00000
    eigenvalues: 
  0.800  0.800  0.800  0.800  0.800
    eigenvectors:
  1.000  0.000  0.000  0.000  0.000
  0.000  1.000  0.000  0.000  0.000
  0.000  0.000  1.000  0.000  0.000
  0.000  0.000  0.000  1.000  0.000
  0.000  0.000  0.000  0.000  1.000
    occupations:
  0.800  0.000  0.000  0.000  0.000
  0.000  0.800  0.000  0.000  0.000
  0.000  0.000  0.800  0.000  0.000
  0.000  0.000  0.000  0.800  0.000
  0.000  0.000  0.000  0.000  0.800
atom   10   Tr[ns(na)] =   8.00000
    eigenvalues: 
  0.800  0.800  0.800  0.800  0.800
    eigenvectors:
  1.000  0.000  0.000  0.000  0.000
  0.000  1.000  0.000  0.000  0.000
  0.000  0.000  1.000  0.000  0.000
  0.000  0.000  0.000  1.000  0.000
  0.000  0.000  0.000  0.000  1.000
    occupations:
  0.800  0.000  0.000  0.000  0.000
  0.000  0.800  0.000  0.000  0.000
  0.000  0.000  0.800  0.000  0.000
  0.000  0.000  0.000  0.800  0.000
  0.000  0.000  0.000  0.000  0.800
atom   16   Tr[ns(na)] =   8.00000
    eigenvalues: 
  0.800  0.800  0.800  0.800  0.800
    eigenvectors:
  1.000  0.000  0.000  0.000  0.000
  0.000  1.000  0.000  0.000  0.000
  0.000  0.000  1.000  0.000  0.000
  0.000  0.000  0.000  1.000  0.000
  0.000  0.000  0.000  0.000  1.000
    occupations:
  0.800  0.000  0.000  0.000  0.000
  0.000  0.800  0.000  0.000  0.000
  0.000  0.000  0.800  0.000  0.000
  0.000  0.000  0.000  0.800  0.000
  0.000  0.000  0.000  0.000  0.800
atom   17   Tr[ns(na)] =   8.00000
    eigenvalues: 
  0.800  0.800  0.800  0.800  0.800
    eigenvectors:
  1.000  0.000  0.000  0.000  0.000
  0.000  1.000  0.000  0.000  0.000
  0.000  0.000  1.000  0.000  0.000
  0.000  0.000  0.000  1.000  0.000
  0.000  0.000  0.000  0.000  1.000
    occupations:
  0.800  0.000  0.000  0.000  0.000
  0.000  0.800  0.000  0.000  0.000
  0.000  0.000  0.800  0.000  0.000
  0.000  0.000  0.000  0.800  0.000
  0.000  0.000  0.000  0.000  0.800
atom   22   Tr[ns(na)] =   8.00000
    eigenvalues: 
  0.800  0.800  0.800  0.800  0.800
    eigenvectors:
  1.000  0.000  0.000  0.000  0.000
  0.000  1.000  0.000  0.000  0.000
  0.000  0.000  1.000  0.000  0.000
  0.000  0.000  0.000  1.000  0.000
  0.000  0.000  0.000  0.000  1.000
    occupations:
  0.800  0.000  0.000  0.000  0.000
  0.000  0.800  0.000  0.000  0.000
  0.000  0.000  0.800  0.000  0.000
  0.000  0.000  0.000  0.800  0.000
  0.000  0.000  0.000  0.000  0.800
atom   23   Tr[ns(na)] =   8.00000
    eigenvalues: 
  0.800  0.800  0.800  0.800  0.800
    eigenvectors:
  1.000  0.000  0.000  0.000  0.000
  0.000  1.000  0.000  0.000  0.000
  0.000  0.000  1.000  0.000  0.000
  0.000  0.000  0.000  1.000  0.000
  0.000  0.000  0.000  0.000  1.000
    occupations:
  0.800  0.000  0.000  0.000  0.000
  0.000  0.800  0.000  0.000  0.000
  0.000  0.000  0.800  0.000  0.000
  0.000  0.000  0.000  0.800  0.000
  0.000  0.000  0.000  0.000  0.800
N of occupied +U levels =  64.0000000
 --- exit write_ns ---
 Atomic wfc used for LDA+U Projector are NOT orthogonalized
     Starting wfc are  172 randomized atomic wfcs

     total cpu time spent up to now is      129.7 secs

     per-process dynamical memory:   430.0 Mb

     Self-consistent Calculation

     iteration #  1     ecut=    40.00 Ry     beta=0.70
     Davidson diagonalization with overlap
     ethr =  1.00E-02,  avg # of iterations =  5.0
 --- enter write_ns ---
 LDA+U parameters:
U( 2)     =  3.50000000
alpha( 2) =  0.00000000
atom    3   Tr[ns(na)] =   7.13652
    eigenvalues: 
  0.437  0.475  0.735  0.959  0.961
    eigenvectors:
  0.000  0.138  0.069  0.792  0.001
  1.000  0.000  0.000  0.000  0.000
  0.000  0.019  0.929  0.052  0.000
  0.000  0.843  0.001  0.155  0.000
  0.000  0.000  0.000  0.001  0.999
    occupations:
  0.877 -0.000 -0.032 -0.167  0.000
 -0.000  0.437  0.000  0.000 -0.004
 -0.032  0.000  0.742  0.053  0.001
 -0.167  0.000  0.053  0.551 -0.000
  0.000 -0.004  0.001 -0.000  0.961
atom    4   Tr[ns(na)] =   6.94412
    eigenvalues: 
  0.451  0.471  0.770  0.823  0.958
    eigenvectors:
  0.000  0.973  0.009  0.001  0.017
  0.032  0.000  0.060  0.909  0.000
  0.000  0.012  0.923  0.060  0.005
  0.000  0.014  0.006  0.000  0.979
  0.968  0.000  0.002  0.030  0.000
    occupations:
  0.482 -0.003 -0.035  0.059 -0.001
 -0.003  0.808  0.012  0.001  0.065
 -0.035  0.012  0.770 -0.009  0.002
  0.059  0.001 -0.009  0.949  0.000
 -0.001  0.065  0.002  0.000  0.463
atom    9   Tr[ns(na)] =   7.74483
    eigenvalues: 
  0.468  0.489  0.970  0.970  0.975
    eigenvectors:
  0.000  0.141  0.592  0.148  0.119
  1.000  0.000  0.000  0.000  0.000
  0.000  0.000  0.101  0.038  0.861
  0.000  0.859  0.098  0.024  0.018
  0.000  0.000  0.209  0.790  0.001
    occupations:
  0.903  0.000 -0.002 -0.168  0.000
  0.000  0.468  0.000  0.000  0.001
 -0.002  0.000  0.975 -0.001 -0.000
 -0.168  0.000 -0.001  0.557  0.000
  0.000  0.001 -0.000  0.000  0.970
atom   10   Tr[ns(na)] =   8.55470
    eigenvalues: 
  0.460  0.872  0.979  0.982  0.985
    eigenvectors:
  0.000  0.879  0.118  0.000  0.003
  0.000  0.000  0.000  1.000  0.000
  0.000  0.001  0.006  0.000  0.993
  0.000  0.120  0.876  0.000  0.004
  1.000  0.000  0.000  0.000  0.000
    occupations:
  0.885  0.000  0.003  0.035  0.000
  0.000  0.982 -0.000 -0.000 -0.003
  0.003 -0.000  0.985 -0.001  0.000
  0.035 -0.000 -0.001  0.966 -0.000
  0.000 -0.003  0.000 -0.000  0.460
atom   16   Tr[ns(na)] =   7.13652
    eigenvalues: 
  0.437  0.475  0.735  0.959  0.961
    eigenvectors:
  0.000  0.138  0.069  0.792  0.001
  1.000  0.000  0.000  0.000  0.000
  0.000  0.019  0.929  0.052  0.000
  0.000  0.843  0.001  0.155  0.000
  0.000  0.000  0.000  0.001  0.999
    occupations:
  0.877 -0.000 -0.032 -0.167  0.000
 -0.000  0.437  0.000  0.000 -0.004
 -0.032  0.000  0.742  0.053  0.001
 -0.167  0.000  0.053  0.551 -0.000
  0.000 -0.004  0.001 -0.000  0.961
atom   17   Tr[ns(na)] =   6.94409
    eigenvalues: 
  0.451  0.471  0.770  0.823  0.958
    eigenvectors:
  0.000  0.973  0.009  0.001  0.017
  0.032  0.000  0.060  0.909  0.000
  0.000  0.012  0.923  0.060  0.005
  0.000  0.014  0.006  0.000  0.979
  0.968  0.000  0.002  0.030  0.000
    occupations:
  0.482 -0.003 -0.035  0.059 -0.001
 -0.003  0.808  0.012  0.001  0.065
 -0.035  0.012  0.770 -0.009  0.002
  0.059  0.001 -0.009  0.949  0.000
 -0.001  0.065  0.002  0.000  0.463
atom   22   Tr[ns(na)] =   7.74482
    eigenvalues: 
  0.468  0.489  0.970  0.970  0.975
    eigenvectors:
  0.000  0.141  0.592  0.148  0.119
  1.000  0.000  0.000  0.000  0.000
  0.000  0.000  0.101  0.038  0.861
  0.000  0.859  0.098  0.024  0.019
  0.000  0.000  0.210  0.789  0.001
    occupations:
  0.903  0.000 -0.002 -0.168  0.000
  0.000  0.468  0.000  0.000  0.001
 -0.002  0.000  0.975 -0.001 -0.000
 -0.168  0.000 -0.001  0.557  0.000
  0.000  0.001 -0.000  0.000  0.970
atom   23   Tr[ns(na)] =   8.55469
    eigenvalues: 
  0.460  0.872  0.979  0.982  0.985
    eigenvectors:
  0.000  0.879  0.118  0.000  0.003
  0.000  0.000  0.000  1.000  0.000
  0.000  0.001  0.006  0.000  0.993
  0.000  0.120  0.876  0.000  0.004
  1.000  0.000  0.000  0.000  0.000
    occupations:
  0.885  0.000  0.003  0.035  0.000
  0.000  0.982 -0.000 -0.000 -0.003
  0.003 -0.000  0.985 -0.001  0.000
  0.035 -0.000 -0.001  0.966 -0.000
  0.000 -0.003  0.000 -0.000  0.460
N of occupied +U levels =  60.7602826
 --- exit write_ns ---

     negative rho (up, down):  0.151E+01 0.000E+00

     total cpu time spent up to now is      521.6 secs

     total energy              =   -2230.41462799 Ry
     Harris-Foulkes estimate   =   -2252.82630369 Ry
     estimated scf accuracy    <      27.29963052 Ry

     iteration #  2     ecut=    40.00 Ry     beta=0.70
     Davidson diagonalization with overlap
     ethr =  1.00E-02,  avg # of iterations =  5.0

     negative rho (up, down):  0.129E+01 0.000E+00

     total cpu time spent up to now is      893.9 secs

     total energy              =   -2153.00414000 Ry
     Harris-Foulkes estimate   =   -2333.66715419 Ry
     estimated scf accuracy    <    1748.33771956 Ry

     iteration #  3     ecut=    40.00 Ry     beta=0.70
     Davidson diagonalization with overlap
     ethr =  1.00E-02,  avg # of iterations =  5.0

     negative rho (up, down):  0.929E+00 0.000E+00

     total cpu time spent up to now is     1290.1 secs

     total energy              =   -2220.86069687 Ry
     Harris-Foulkes estimate   =   -2273.28450502 Ry
     estimated scf accuracy    <     396.48991321 Ry

     iteration #  4     ecut=    40.00 Ry     beta=0.70
     Davidson diagonalization with overlap
     ethr =  1.00E-02,  avg # of iterations =  3.8

     negative rho (up, down):  0.101E+01 0.000E+00

     total cpu time spent up to now is     1537.1 secs

     total energy              =   -2244.85170934 Ry
     Harris-Foulkes estimate   =   -2250.81215579 Ry
     estimated scf accuracy    <      21.02584197 Ry

     iteration #  5     ecut=    40.00 Ry     beta=0.70
     Davidson diagonalization with overlap
     ethr =  8.76E-03,  avg # of iterations =  1.0

     negative rho (up, down):  0.115E+01 0.000E+00

     total cpu time spent up to now is     1747.3 secs

     total energy              =   -2247.41452806 Ry
     Harris-Foulkes estimate   =   -2248.79325449 Ry
     estimated scf accuracy    <       7.05493614 Ry

     iteration #  6     ecut=    40.00 Ry     beta=0.70
     Davidson diagonalization with overlap
     ethr =  2.94E-03,  avg # of iterations =  3.1

     negative rho (up, down):  0.120E+01 0.000E+00

     total cpu time spent up to now is     1966.5 secs

     total energy              =   -2247.80640075 Ry
     Harris-Foulkes estimate   =   -2248.22626229 Ry
     estimated scf accuracy    <       1.80848979 Ry

     iteration #  7     ecut=    40.00 Ry     beta=0.70
     Davidson diagonalization with overlap
     ethr =  7.54E-04,  avg # of iterations =  5.0

     negative rho (up, down):  0.127E+01 0.000E+00

     total cpu time spent up to now is     2209.8 secs

     total energy              =   -2247.83147774 Ry
     Harris-Foulkes estimate   =   -2248.01502996 Ry
     estimated scf accuracy    <       1.08029074 Ry

     iteration #  8     ecut=    40.00 Ry     beta=0.70
     Davidson diagonalization with overlap
     ethr =  4.50E-04,  avg # of iterations =  3.6

     negative rho (up, down):  0.137E+01 0.000E+00

     total cpu time spent up to now is     2445.7 secs

     total energy              =   -2247.79614344 Ry
     Harris-Foulkes estimate   =   -2247.96319900 Ry
     estimated scf accuracy    <       0.66656392 Ry

     iteration #  9     ecut=    40.00 Ry     beta=0.70
     Davidson diagonalization with overlap
     ethr =  2.78E-04,  avg # of iterations =  6.7

     negative rho (up, down):  0.145E+01 0.000E+00

     total cpu time spent up to now is     2714.9 secs

     total energy              =   -2247.81581224 Ry
     Harris-Foulkes estimate   =   -2247.87510571 Ry
     estimated scf accuracy    <       0.28199733 Ry

     iteration # 10     ecut=    40.00 Ry     beta=0.70
     Davidson diagonalization with overlap
     ethr =  1.17E-04,  avg # of iterations =  4.4

     negative rho (up, down):  0.153E+01 0.000E+00

     total cpu time spent up to now is     2964.0 secs

     total energy              =   -2247.81486429 Ry
     Harris-Foulkes estimate   =   -2247.84517890 Ry
     estimated scf accuracy    <       0.10529574 Ry

     iteration # 11     ecut=    40.00 Ry     beta=0.70
     Davidson diagonalization with overlap
     ethr =  4.39E-05,  avg # of iterations =  4.1

     negative rho (up, down):  0.157E+01 0.000E+00

     total cpu time spent up to now is     3189.4 secs

     total energy              =   -2247.81728961 Ry
     Harris-Foulkes estimate   =   -2247.82727075 Ry
     estimated scf accuracy    <       0.04869530 Ry

     iteration # 12     ecut=    40.00 Ry     beta=0.70
     Davidson diagonalization with overlap
     ethr =  2.03E-05,  avg # of iterations =  4.6

     negative rho (up, down):  0.157E+01 0.000E+00

     total cpu time spent up to now is     3428.2 secs

     total energy              =   -2247.81845756 Ry
     Harris-Foulkes estimate   =   -2247.82446271 Ry
     estimated scf accuracy    <       0.02748601 Ry

     iteration # 13     ecut=    40.00 Ry     beta=0.70
     Davidson diagonalization with overlap
     ethr =  1.15E-05,  avg # of iterations =  1.0

     negative rho (up, down):  0.158E+01 0.000E+00

     total cpu time spent up to now is     3641.1 secs

     total energy              =   -2247.81819277 Ry
     Harris-Foulkes estimate   =   -2247.82196220 Ry
     estimated scf accuracy    <       0.01094908 Ry

     iteration # 14     ecut=    40.00 Ry     beta=0.70
     Davidson diagonalization with overlap
     ethr =  4.56E-06,  avg # of iterations =  6.5

     negative rho (up, down):  0.158E+01 0.000E+00

     total cpu time spent up to now is     3905.3 secs

     total energy              =   -2247.81634375 Ry
     Harris-Foulkes estimate   =   -2247.82480394 Ry
     estimated scf accuracy    <       0.06104946 Ry

     iteration # 15     ecut=    40.00 Ry     beta=0.70
     Davidson diagonalization with overlap
     ethr =  4.56E-06,  avg # of iterations =  5.6

     negative rho (up, down):  0.158E+01 0.000E+00

     total cpu time spent up to now is     4162.6 secs

     total energy              =   -2247.82045858 Ry
     Harris-Foulkes estimate   =   -2247.82091351 Ry
     estimated scf accuracy    <       0.00146630 Ry

     iteration # 16     ecut=    40.00 Ry     beta=0.70
     Davidson diagonalization with overlap
     ethr =  6.11E-07,  avg # of iterations =  1.1

     negative rho (up, down):  0.158E+01 0.000E+00

     total cpu time spent up to now is     4379.8 secs

     total energy              =   -2247.82046854 Ry
     Harris-Foulkes estimate   =   -2247.82085877 Ry
     estimated scf accuracy    <       0.00157727 Ry

     iteration # 17     ecut=    40.00 Ry     beta=0.70
     Davidson diagonalization with overlap
     ethr =  6.11E-07,  avg # of iterations =  1.9

     negative rho (up, down):  0.158E+01 0.000E+00

     total cpu time spent up to now is     4596.7 secs

     total energy              =   -2247.82015262 Ry
     Harris-Foulkes estimate   =   -2247.82128909 Ry
     estimated scf accuracy    <       0.00838022 Ry

     iteration # 18     ecut=    40.00 Ry     beta=0.70
     Davidson diagonalization with overlap
     ethr =  6.11E-07,  avg # of iterations =  1.5

     negative rho (up, down):  0.158E+01 0.000E+00

     total cpu time spent up to now is     4818.7 secs

     total energy              =   -2247.82071101 Ry
     Harris-Foulkes estimate   =   -2247.82076143 Ry
     estimated scf accuracy    <       0.00019508 Ry

     iteration # 19     ecut=    40.00 Ry     beta=0.70
     Davidson diagonalization with overlap
     ethr =  8.13E-08,  avg # of iterations =  1.0

     negative rho (up, down):  0.158E+01 0.000E+00

     total cpu time spent up to now is     5036.0 secs

     total energy              =   -2247.82073276 Ry
     Harris-Foulkes estimate   =   -2247.82074353 Ry
     estimated scf accuracy    <       0.00006691 Ry

     iteration # 20     ecut=    40.00 Ry     beta=0.70
     Davidson diagonalization with overlap
     ethr =  2.79E-08,  avg # of iterations =  1.0

     negative rho (up, down):  0.158E+01 0.000E+00

     total cpu time spent up to now is     5253.5 secs

     total energy              =   -2247.82073596 Ry
     Harris-Foulkes estimate   =   -2247.82073941 Ry
     estimated scf accuracy    <       0.00001990 Ry

     iteration # 21     ecut=    40.00 Ry     beta=0.70
     Davidson diagonalization with overlap
     ethr =  8.29E-09,  avg # of iterations =  1.0

     negative rho (up, down):  0.158E+01 0.000E+00

     total cpu time spent up to now is     5470.3 secs

     total energy              =   -2247.82073751 Ry
     Harris-Foulkes estimate   =   -2247.82073829 Ry
     estimated scf accuracy    <       0.00000290 Ry

     iteration # 22     ecut=    40.00 Ry     beta=0.70
     Davidson diagonalization with overlap
     ethr =  1.21E-09,  avg # of iterations =  1.7

     negative rho (up, down):  0.158E+01 0.000E+00

     total cpu time spent up to now is     5691.3 secs

     total energy              =   -2247.82073685 Ry
     Harris-Foulkes estimate   =   -2247.82073909 Ry
     estimated scf accuracy    <       0.00001055 Ry

     iteration # 23     ecut=    40.00 Ry     beta=0.70
     Davidson diagonalization with overlap
     ethr =  1.21E-09,  avg # of iterations =  1.8

     negative rho (up, down):  0.158E+01 0.000E+00

     total cpu time spent up to now is     5913.8 secs

     total energy              =   -2247.82073765 Ry
     Harris-Foulkes estimate   =   -2247.82073840 Ry
     estimated scf accuracy    <       0.00000368 Ry

     iteration # 24     ecut=    40.00 Ry     beta=0.70
     Davidson diagonalization with overlap
     ethr =  1.21E-09,  avg # of iterations =  1.0

     negative rho (up, down):  0.158E+01 0.000E+00

     total cpu time spent up to now is     6140.1 secs

     End of self-consistent calculation
 --- enter write_ns ---
 LDA+U parameters:
U( 2)     =  3.50000000
alpha( 2) =  0.00000000
atom    3   Tr[ns(na)] =   8.73143
    eigenvalues: 
  0.699  0.707  0.983  0.987  0.990
    eigenvectors:
  0.179  0.000  0.774  0.000  0.048
  0.000  1.000  0.000  0.000  0.000
  0.002  0.000  0.069  0.000  0.928
  0.819  0.000  0.157  0.000  0.024
  0.000  0.000  0.000  1.000  0.000
    occupations:
  0.933 -0.000  0.005 -0.109  0.000
 -0.000  0.707  0.000  0.000 -0.001
  0.005  0.000  0.989  0.014 -0.000
 -0.109  0.000  0.014  0.750  0.000
  0.000 -0.001 -0.000  0.000  0.987
atom    4   Tr[ns(na)] =   8.70801
    eigenvalues: 
  0.689  0.712  0.982  0.985  0.987
    eigenvectors:
  0.000  0.987  0.008  0.002  0.003
  0.008  0.000  0.033  0.938  0.021
  0.000  0.004  0.803  0.010  0.184
  0.000  0.009  0.157  0.043  0.792
  0.992  0.000  0.000  0.007  0.000
    occupations:
  0.715 -0.005 -0.016  0.026 -0.001
 -0.005  0.983  0.000  0.000  0.026
 -0.016  0.000  0.982  0.003  0.000
  0.026  0.000  0.003  0.983  0.000
 -0.001  0.026  0.000  0.000  0.691
atom    9   Tr[ns(na)] =   8.68771
    eigenvalues: 
  0.715  0.721  0.960  0.961  0.986
    eigenvectors:
  0.001  0.143  0.000  0.000  0.856
  0.996  0.004  0.000  0.000  0.000
  0.000  0.000  0.000  1.000  0.000
  0.004  0.853  0.000  0.000  0.143
  0.000  0.000  1.000  0.000  0.000
    occupations:
  0.948  0.000 -0.001 -0.093  0.000
  0.000  0.715  0.000  0.000 -0.000
 -0.001  0.000  0.961 -0.001 -0.000
 -0.093  0.000 -0.001  0.759  0.000
  0.000 -0.000 -0.000  0.000  0.960
atom   10   Tr[ns(na)] =   8.76539
    eigenvalues: 
  0.657  0.787  0.967  0.986  0.986
    eigenvectors:
  0.000  0.980  0.000  0.003  0.017
  0.000  0.000  1.000  0.000  0.000
  0.000  0.000  0.000  0.790  0.210
  0.000  0.020  0.000  0.207  0.773
  1.000  0.000  0.000  0.000  0.000
    occupations:
  0.791  0.000  0.002  0.028  0.000
  0.000  0.967 -0.000  0.000 -0.001
  0.002 -0.000  0.986 -0.000 -0.000
  0.028  0.000 -0.000  0.982 -0.000
  0.000 -0.001 -0.000 -0.000  0.657
atom   16   Tr[ns(na)] =   8.73143
    eigenvalues: 
  0.699  0.707  0.983  0.987  0.990
    eigenvectors:
  0.179  0.000  0.774  0.000  0.048
  0.000  1.000  0.000  0.000  0.000
  0.002  0.000  0.069  0.000  0.928
  0.819  0.000  0.157  0.000  0.024
  0.000  0.000  0.000  1.000  0.000
    occupations:
  0.933 -0.000  0.005 -0.109  0.000
 -0.000  0.707  0.000  0.000 -0.001
  0.005  0.000  0.989  0.014 -0.000
 -0.109  0.000  0.014  0.750  0.000
  0.000 -0.001 -0.000  0.000  0.987
atom   17   Tr[ns(na)] =   8.70801
    eigenvalues: 
  0.689  0.712  0.982  0.985  0.987
    eigenvectors:
  0.000  0.987  0.008  0.002  0.003
  0.008  0.000  0.033  0.938  0.021
  0.000  0.004  0.802  0.010  0.184
  0.000  0.009  0.157  0.043  0.791
  0.992  0.000  0.000  0.007  0.000
    occupations:
  0.715 -0.005 -0.016  0.026 -0.001
 -0.005  0.983  0.000  0.000  0.026
 -0.016  0.000  0.982  0.003  0.000
  0.026  0.000  0.003  0.983  0.000
 -0.001  0.026  0.000  0.000  0.691
atom   22   Tr[ns(na)] =   8.68770
    eigenvalues: 
  0.715  0.721  0.960  0.961  0.986
    eigenvectors:
  0.001  0.143  0.000  0.000  0.856
  0.996  0.004  0.000  0.000  0.000
  0.000  0.000  0.000  1.000  0.000
  0.004  0.853  0.000  0.000  0.143
  0.000  0.000  1.000  0.000  0.000
    occupations:
  0.948  0.000 -0.001 -0.093  0.000
  0.000  0.715  0.000  0.000 -0.000
 -0.001  0.000  0.961 -0.001 -0.000
 -0.093  0.000 -0.001  0.759  0.000
  0.000 -0.000 -0.000  0.000  0.960
atom   23   Tr[ns(na)] =   8.76524
    eigenvalues: 
  0.657  0.787  0.967  0.986  0.986
    eigenvectors:
  0.000  0.980  0.000  0.003  0.017
  0.000  0.000  1.000  0.000  0.000
  0.000  0.000  0.000  0.796  0.204
  0.000  0.020  0.000  0.201  0.779
  1.000  0.000  0.000  0.000  0.000
    occupations:
  0.791  0.000  0.002  0.028  0.000
  0.000  0.967 -0.000  0.000 -0.001
  0.002 -0.000  0.986 -0.000 -0.000
  0.028  0.000 -0.000  0.982 -0.000
  0.000 -0.001 -0.000 -0.000  0.657
N of occupied +U levels =  69.7849303
 --- exit write_ns ---

          k = 0.0000 0.0000 0.0000 ( 32157 PWs)   bands (ev):

   -55.4692 -55.4126 -55.3832 -55.3735 -55.3448 -55.3417 -55.3284 -55.3179
   -55.2275 -55.2230 -55.1354 -55.1304 -55.0797 -55.0722 -55.0587 -55.0511
   -55.0478 -55.0452 -54.8324 -54.7757 -54.4765 -54.4701 -54.2049 -54.2012
   -22.1128 -21.8236 -21.3934 -21.3231 -20.6487 -20.5529 -20.5229 -20.4361
   -20.4079 -20.3940 -20.3105 -20.2942 -20.1809 -19.9176 -19.8045 -19.7759
   -19.1044 -18.8741 -11.1287 -10.9289 -10.7076 -10.0425  -9.8278  -9.7505
    -9.5319  -9.4114  -9.2749  -9.2597  -9.2504  -9.2023  -9.0777  -9.0543
    -9.0373  -8.9578  -8.6790  -8.4539  -8.3605  -8.3532  -7.8956  -7.8374
    -7.7743  -7.6184  -7.5332  -7.4386  -7.0946  -6.9515  -6.8824  -6.8452
    -6.5844  -6.5730  -6.2554  -6.2456  -6.0972  -6.0705  -6.0144  -5.8854
    -5.8500  -5.7519  -5.7100  -5.6485  -5.5753  -5.4442  -5.3945  -5.3499
    -5.3208  -5.3054  -5.2003  -5.0775  -5.0503  -5.0468  -5.0153  -4.9747
    -4.8612  -4.8050  -4.7968  -4.5176  -4.3125  -4.2541  -4.0826  -3.9200
    -3.7134  -3.6524  -3.3067  -3.2561  -3.0962  -3.0616  -3.0159  -2.7113
    -2.5772  -2.5259  -2.4198  -2.3020  -2.2851  -2.1797  -2.1750  -1.7396
    -1.5380  -1.5209  -0.6480  -0.5296  -0.5176  -0.3961  -0.1247   0.0068
     0.1075   0.5267   0.8225   1.3176   1.3445   1.4597   1.5264   1.8744
     2.3358   3.1919   4.1082   4.5633   4.6262   5.4826   5.5357   5.7626
     5.7790   6.0652   6.3732   6.4958   6.5802   6.7919   6.9597   6.9918
     7.1000   7.1291   7.2385   7.3104   7.5715   7.5822   7.6584   7.6701
     7.7800   7.8111   7.8516   8.0066   8.0404   8.0698   8.0996   8.2591
     8.2995   8.4182   8.4525   8.5412   8.6505   8.8131   8.8853   8.9936
     9.0493   9.0836   9.3894   9.5162   9.5352   9.6126   9.7559   9.8557
     9.9062   9.9267  10.1098  10.1481  10.3021  10.4560  10.5988  10.6367
    10.7128  10.7998  10.8457  10.9397  10.9656  11.0286  11.0784  11.1130
    11.2623  11.3485  11.3884  11.3939  11.4176  11.4762  11.5473  11.6717
    11.8539  11.8542  11.8946  11.9943  12.0205  12.1311  12.1696  12.2194
    12.2745  12.3598  12.4160  12.4623  12.4865  12.6557  12.7766  12.9317
    12.9371  13.2213  13.2913  13.3396  13.3503  13.3987  13.5319  13.5649
    13.6721  13.7063  13.9793  13.9796  13.9952  14.1237  14.2263  14.3219
    14.4804  14.5228  14.6010  14.6242  14.7126  14.7195  14.7266  14.9639
    15.1481  15.2302  15.2479  15.3487  15.4784  15.5029  15.5159  15.6208
    15.7083  15.7758  15.8454  15.8575  15.9543  16.1679  16.3152  16.3598
    16.5099  16.5540  16.6213  16.7046  16.7235  16.7857  16.8448  16.8462
    16.9012  16.9756  17.0324  17.0392  17.0522  17.0710  17.1351  17.2480
    17.3712  17.3731  17.4030  17.5956  17.7297  17.7334  17.7993  17.8228
    17.9015  17.9286  18.0108  18.0532  18.0925  18.1393  18.1516  18.1744
    18.2180  18.4150  18.4857  18.5349  18.5710  18.5940  18.6258  18.8032
    18.8069  18.8654  18.9226  18.9666  19.0028  19.0192  19.0436  19.0919
    19.1028  19.1667  19.3226  19.3372  19.4966  19.5637  19.6253  19.6511
    19.6987  19.7182  19.7357  19.8636  19.9309  20.0101  20.0431  20.1333
    20.1433  20.1621  20.1681  20.3785  20.5155  20.5746  20.6453  20.7844
    20.8319  20.8548  20.8762  20.8902  21.0035  21.1101  21.1799  21.2532
    21.2611  21.3790  21.3919  21.4180  21.4310  21.5647  21.6248  21.6823
    21.7426  21.7990  21.8128  21.8272  21.8343  21.8792  21.9107  21.9254

          k = 0.0000 0.2488 0.0000 ( 32033 PWs)   bands (ev):

   -55.4688 -55.4125 -55.3829 -55.3735 -55.3451 -55.3415 -55.3282 -55.3181
   -55.2273 -55.2225 -55.1358 -55.1300 -55.0798 -55.0721 -55.0584 -55.0510
   -55.0485 -55.0449 -54.8322 -54.7758 -54.4768 -54.4695 -54.2050 -54.2012
   -22.0950 -21.8228 -21.2929 -21.1994 -20.7203 -20.6661 -20.6122 -20.4042
   -20.3979 -20.3305 -20.2502 -20.2077 -20.2000 -19.9662 -19.9265 -19.9170
   -19.1022 -18.8696 -10.7829 -10.6314 -10.4848 -10.3545  -9.8404  -9.8264
    -9.7560  -9.4274  -9.3518  -9.2070  -9.1633  -9.1009  -9.0698  -8.9414
    -8.9239  -8.8921  -8.5967  -8.3121  -8.1342  -7.9599  -7.8622  -7.8042
    -7.7886  -7.5429  -7.5099  -7.4018  -7.3323  -7.0054  -6.9968  -6.9143
    -6.7632  -6.7362  -6.7205  -6.6731  -6.4709  -6.4263  -6.1427  -6.1298
    -6.0735  -5.9031  -5.8714  -5.6338  -5.5326  -5.3941  -5.3808  -5.3194
    -5.2620  -5.1821  -5.0619  -5.0494  -4.9611  -4.9270  -4.8377  -4.7025
    -4.6102  -4.5209  -4.4642  -4.3441  -4.3394  -4.2863  -4.1300  -3.9381
    -3.8174  -3.7339  -3.6257  -3.5882  -3.3879  -3.2311  -3.0099  -2.7631
    -2.5521  -2.3606  -2.3480  -2.2686  -2.2551  -2.2322  -1.9769  -1.8022
    -1.5446  -1.4460  -1.2857  -0.9682  -0.5074  -0.3746  -0.1588   0.3830
     0.8214   1.0475   1.1477   1.2860   1.3532   1.3783   1.4444   1.8749
     2.6955   3.3709   4.3196   4.7467   4.8155   4.9504   5.4915   5.7167
     5.8006   5.9380   6.1460   6.1566   6.3820   6.5563   6.6155   6.8085
     7.0475   7.1308   7.1676   7.2960   7.3478   7.3830   7.4878   7.6082
     7.6871   7.8398   7.9079   8.0525   8.0934   8.1679   8.2506   8.2803
     8.4251   8.5346   8.6232   8.7239   8.8558   8.8757   9.0746   9.1415
     9.1672   9.3261   9.4499   9.4577   9.6864   9.7188   9.7842   9.8769
     9.9601   9.9720  10.0187  10.0377  10.1678  10.2968  10.3155  10.3424
    10.5184  10.5265  10.6668  10.7478  10.7902  10.9459  11.0255  11.0288
    11.2165  11.2915  11.3790  11.4770  11.5075  11.6528  11.7954  11.8549
    11.9230  12.1033  12.1587  12.1627  12.3178  12.3887  12.3982  12.4668
    12.5273  12.6037  12.6468  12.8122  13.0145  13.1232  13.1406  13.2214
    13.3306  13.3785  13.4766  13.5519  13.5915  13.6510  13.7167  13.7575
    13.8297  13.9539  14.0089  14.0733  14.1317  14.2850  14.2921  14.4331
    14.5603  14.5713  14.7451  14.7932  14.8427  14.8609  15.0174  15.0872
    15.0980  15.1940  15.2321  15.3823  15.4607  15.5156  15.5831  15.6150
    15.6493  15.8033  15.8387  15.8786  15.9203  15.9662  16.0545  16.0873
    16.1907  16.2585  16.2643  16.3593  16.5311  16.6332  16.6729  16.7129
    16.8114  16.8314  16.8426  16.9319  16.9776  16.9902  17.0144  17.0437
    17.0646  17.0913  17.1397  17.1655  17.2334  17.4093  17.5052  17.5702
    17.6856  17.7226  17.8112  17.8197  18.0011  18.0375  18.1050  18.1808
    18.2567  18.2679  18.2868  18.3857  18.4711  18.4917  18.5707  18.5978
    18.6087  18.7404  18.8339  18.8658  18.9038  18.9226  18.9649  18.9759
    19.0070  19.0943  19.1050  19.1189  19.2951  19.3146  19.3345  19.3833
    19.3870  19.4471  19.4478  19.6630  19.6653  19.6860  19.7460  19.7464
    19.8971  19.9144  20.0121  20.0799  20.2050  20.2321  20.3043  20.3198
    20.3256  20.4103  20.4145  20.4752  20.5234  20.6702  20.7011  20.7318
    20.8047  20.8229  20.8419  21.0100  21.0445  21.0590  21.1364  21.1877
    21.2342  21.2929  21.3179  21.3527  21.3888  21.4196  21.4781  21.5869

          k = 0.0000-0.4976 0.0000 ( 31948 PWs)   bands (ev):

   -55.4685 -55.4125 -55.3826 -55.3735 -55.3454 -55.3413 -55.3280 -55.3184
   -55.2272 -55.2222 -55.1362 -55.1297 -55.0799 -55.0721 -55.0580 -55.0509
   -55.0493 -55.0445 -54.8319 -54.7758 -54.4772 -54.4689 -54.2051 -54.2012
   -22.0786 -21.8219 -21.1644 -20.9966 -20.8081 -20.7272 -20.6715 -20.4441
   -20.3793 -20.3451 -20.2410 -20.1625 -20.1568 -20.1478 -20.0531 -19.9153
   -19.1000 -18.8667 -10.7134 -10.5668 -10.0589 -10.0250  -9.9117  -9.8791
    -9.8244  -9.3119  -9.2903  -9.2349  -9.0491  -9.0261  -8.9596  -8.8522
    -8.8206  -8.7575  -8.6012  -8.3969  -8.0417  -8.0342  -8.0188  -8.0098
    -7.9755  -7.7059  -7.3557  -7.3035  -7.3028  -7.2325  -7.1720  -7.1383
    -7.0030  -6.7783  -6.6386  -6.5774  -6.5273  -6.4861  -6.4791  -6.2506
    -6.0430  -5.9710  -5.9279  -5.8854  -5.4670  -5.4032  -5.3852  -5.3778
    -5.2932  -5.2423  -5.1112  -4.9778  -4.9248  -4.9076  -4.6313  -4.6242
    -4.5357  -4.5097  -4.4760  -4.3113  -4.1461  -4.0873  -4.0356  -4.0257
    -3.9470  -3.8678  -3.6308  -3.4776  -3.4304  -3.3035  -3.0344  -2.7834
    -2.5567  -2.4897  -2.4277  -2.3876  -2.3830  -2.2951  -1.9146  -1.7520
    -1.5632  -1.4520  -1.3996  -1.3142  -0.4953  -0.3553   0.3463   0.6968
     0.8144   0.9421   1.0982   1.3027   1.4355   1.5441   1.8207   1.8754
     3.5125   3.7155   4.0183   4.6623   4.9009   5.0914   5.2888   5.4076
     5.5418   5.6382   6.1049   6.1804   6.2148   6.2537   6.4384   6.5446
     6.8741   7.0239   7.2367   7.3150   7.4131   7.5291   7.5657   7.6487
     7.6797   7.7805   7.9477   8.0616   8.2228   8.4432   8.4558   8.5844
     8.5875   8.6380   8.7032   8.7509   8.7968   8.8357   8.8563   8.9774
     8.9884   9.0076   9.0279   9.3193   9.3698   9.4359   9.4730   9.6794
     9.7749   9.8320   9.8525   9.8887   9.9590  10.6077  10.6422  10.6960
    10.7463  10.8301  10.9294  11.0277  11.1543  11.2428  11.2551  11.3374
    11.3863  11.4390  11.5559  11.5912  11.8126  11.9935  12.0489  12.0674
    12.1178  12.1820  12.2138  12.3319  12.4414  12.5197  12.5287  12.6515
    12.6741  12.7710  12.8326  12.8725  12.8760  13.0484  13.0941  13.1238
    13.2137  13.2342  13.4775  13.4929  13.5201  13.6513  13.8185  13.8852
    13.9457  14.1821  14.2057  14.2200  14.2535  14.5023  14.5520  14.6431
    14.8894  14.9151  14.9299  15.0097  15.0306  15.0755  15.1309  15.3258
    15.3375  15.3778  15.4285  15.6598  15.6607  15.6769  15.6973  15.7082
    15.7177  15.7764  15.8269  15.8770  15.8824  15.9812  16.1165  16.1257
    16.1982  16.2048  16.2515  16.2642  16.3817  16.3957  16.4524  16.5726
    16.6313  16.6502  16.6861  16.7355  16.8106  16.8432  16.9352  16.9823
    17.0121  17.0216  17.0770  17.0813  17.1279  17.1454  17.2128  17.2444
    17.3137  17.3415  17.4015  17.5507  17.5824  17.6839  17.7085  17.7486
    17.8161  17.8249  17.8296  17.9966  18.0147  18.0395  18.1234  18.1622
    18.2042  18.2599  18.4092  18.5171  18.5776  18.6315  18.7104  18.7816
    18.7828  18.8564  18.8875  18.9925  19.0805  19.1632  19.1971  19.2535
    19.2819  19.4393  19.4529  19.4906  19.5805  19.6054  19.6200  19.7533
    19.7554  19.8086  19.8758  19.8780  19.9414  19.9624  19.9920  20.1123
    20.1167  20.1379  20.1708  20.2445  20.3149  20.3721  20.4097  20.4925
    20.5030  20.5555  20.5893  20.6506  20.7151  20.7486  20.7564  20.8629
    20.9579  20.9704  20.9769  21.0933  21.1152  21.2323  21.3387  21.3491

          k = 0.2500 0.0000 0.0000 ( 32013 PWs)   bands (ev):

   -55.4619 -55.4219 -55.3764 -55.3663 -55.3445 -55.3423 -55.3376 -55.3271
   -55.2270 -55.2238 -55.1347 -55.1312 -55.0787 -55.0733 -55.0578 -55.0524
   -55.0474 -55.0455 -54.8253 -54.7852 -54.4756 -54.4711 -54.2045 -54.2019
   -22.0399 -21.8320 -21.2825 -21.2089 -20.7155 -20.6412 -20.5575 -20.4140
   -20.4113 -20.3501 -20.3146 -20.2235 -20.1565 -19.9340 -19.8924 -19.8575
   -19.1497 -18.9660 -10.9042 -10.7066 -10.5104 -10.0423  -9.7241  -9.5737
    -9.5296  -9.4938  -9.4608  -9.2894  -9.1959  -9.0737  -9.0012  -8.9870
    -8.8900  -8.7671  -8.6832  -8.5966  -8.3096  -8.1931  -8.1428  -7.9476
    -7.8073  -7.6947  -7.3912  -7.3657  -7.2505  -7.1250  -7.0392  -6.9341
    -6.8711  -6.7809  -6.5119  -6.4568  -6.3568  -6.2780  -6.2417  -6.1525
    -6.1300  -6.0321  -5.9970  -5.9557  -5.8603  -5.6721  -5.5937  -5.4117
    -5.3035  -5.1840  -5.1602  -4.9787  -4.8855  -4.8181  -4.7965  -4.7621
    -4.5850  -4.5659  -4.3700  -4.3255  -4.0737  -4.0365  -3.7724  -3.6694
    -3.6179  -3.5188  -3.5177  -2.9753  -2.9258  -2.8913  -2.8426  -2.7290
    -2.6702  -2.6667  -2.5506  -2.3452  -2.2418  -2.2149  -1.9640  -1.7142
    -1.7113  -1.6167  -0.4798  -0.4125  -0.3413  -0.2596   0.0636   0.0677
     0.0902   0.5241   0.5316   0.9892   1.1679   1.2161   1.3046   1.6303
     2.7421   3.5065   4.3357   4.7820   4.8595   4.8889   5.4001   5.6971
     5.7382   6.0184   6.0419   6.3755   6.5124   6.5880   6.7983   6.8240
     7.0339   7.1334   7.1680   7.2272   7.3830   7.5092   7.5118   7.8179
     7.8362   7.9032   7.9705   8.0098   8.2001   8.2694   8.3027   8.4688
     8.4728   8.5014   8.6495   8.6799   8.8215   8.8587   9.0402   9.2043
     9.2294   9.3848   9.5212   9.5716   9.6920   9.7521   9.7544   9.8681
     9.8959   9.9996  10.0516  10.1012  10.1157  10.1911  10.2885  10.3107
    10.5593  10.6210  10.6882  10.7141  10.7414  10.7912  10.9536  10.9912
    11.0947  11.1554  11.2572  11.3060  11.4072  11.4227  11.6026  11.7209
    12.0145  12.0180  12.0978  12.1349  12.2363  12.2706  12.4274  12.4956
    12.5775  12.7375  12.8610  12.9009  13.0245  13.0804  13.1777  13.2900
    13.3247  13.4598  13.5140  13.5413  13.6294  13.6461  13.6673  13.7189
    13.7254  13.7970  13.8305  13.9277  13.9793  14.0494  14.1194  14.2099
    14.3182  14.3691  14.4355  14.5962  14.6485  14.7984  14.8268  14.9588
    15.0142  15.0854  15.1870  15.2758  15.2860  15.4611  15.4764  15.5630
    15.6607  15.6752  15.7605  15.8877  15.9327  16.0516  16.0874  16.1449
    16.2544  16.3715  16.3743  16.5359  16.5568  16.7607  16.7644  16.8322
    16.8323  16.8755  16.9599  16.9815  17.0006  17.0371  17.0437  17.0878
    17.0880  17.1402  17.2613  17.3766  17.5245  17.5566  17.6562  17.7050
    17.7716  17.8046  17.8798  17.9600  18.0032  18.0278  18.1172  18.1757
    18.3334  18.3993  18.5027  18.5242  18.5434  18.6623  18.6874  18.6998
    18.7682  18.8332  18.8590  18.9218  18.9280  18.9597  19.0021  19.0313
    19.0595  19.1182  19.1547  19.2587  19.2591  19.3039  19.3137  19.3922
    19.4800  19.5633  19.5647  19.6179  19.6654  19.6782  19.7387  19.8016
    19.8935  19.9107  20.0094  20.0527  20.1324  20.1856  20.2118  20.3008
    20.3571  20.4595  20.4897  20.5104  20.5966  20.6474  20.6626  20.7142
    20.8058  20.8843  20.9083  20.9099  20.9857  21.0154  21.0266  21.1782
    21.1965  21.2461  21.2919  21.3314  21.5354  21.5517  21.5797  21.6092

          k = 0.2500 0.2488 0.0000 ( 32025 PWs)   bands (ev):

   -55.4617 -55.4219 -55.3760 -55.3664 -55.3447 -55.3422 -55.3374 -55.3273
   -55.2268 -55.2234 -55.1351 -55.1309 -55.0787 -55.0733 -55.0574 -55.0523
   -55.0480 -55.0454 -54.8251 -54.7852 -54.4758 -54.4706 -54.2046 -54.2019
   -22.0269 -21.8309 -21.1816 -21.0847 -20.7276 -20.6328 -20.5734 -20.4309
   -20.4266 -20.3829 -20.2538 -20.2390 -20.1887 -20.0401 -19.9867 -19.9363
   -19.1483 -18.9621 -10.5873 -10.4092 -10.2782 -10.2048  -9.7248  -9.6587
    -9.5457  -9.3744  -9.3673  -9.2640  -9.2489  -9.0219  -8.9562  -8.8812
    -8.8167  -8.7526  -8.7198  -8.4384  -8.2010  -8.1017  -8.0272  -7.9855
    -7.7794  -7.6418  -7.5166  -7.3935  -7.2723  -7.1842  -7.1207  -7.0956
    -7.0838  -6.9332  -6.8631  -6.7343  -6.6440  -6.5070  -6.4695  -6.4461
    -6.2987  -6.0721  -6.0558  -5.8897  -5.7432  -5.6458  -5.5403  -5.4911
    -5.3420  -5.1684  -5.1237  -4.9138  -4.8944  -4.8244  -4.7750  -4.4678
    -4.3670  -4.3501  -4.2102  -4.1379  -4.0043  -3.9050  -3.8650  -3.6995
    -3.5633  -3.5114  -3.4928  -3.3964  -3.1728  -3.1598  -2.7524  -2.7221
    -2.6281  -2.5614  -2.4215  -2.3412  -2.3366  -2.2630  -1.8863  -1.7907
    -1.7579  -1.4256  -1.0593  -0.6881  -0.3471  -0.2954  -0.1010   0.2971
     0.5410   0.7451   0.8873   0.9998   1.2449   1.2550   1.4173   1.6110
     3.0865   3.6838   4.5511   4.9712   5.0509   5.0759   5.1801   5.4803
     5.7114   5.9571   6.0549   6.2437   6.3956   6.5397   6.6251   6.6446
     6.7606   6.8150   7.0279   7.1255   7.2717   7.3785   7.4447   7.5369
     7.5642   7.7338   7.8403   7.9521   8.1209   8.1704   8.2284   8.3469
     8.3549   8.4820   8.5502   8.6387   8.7649   8.8358   9.0259   9.1305
     9.3014   9.3373   9.4584   9.5875   9.6471   9.7854   9.8913   9.9636
    10.0539  10.1438  10.2039  10.2173  10.4191  10.5315  10.5558  10.6366
    10.6664  10.8158  10.8344  10.9489  11.1472  11.2327  11.3245  11.3804
    11.4309  11.5402  11.6422  11.7317  11.7926  11.8006  11.8771  11.9227
    11.9883  12.1474  12.1946  12.2116  12.3408  12.3516  12.4025  12.5094
    12.5708  12.6088  12.7272  12.7488  12.8194  12.8985  13.0301  13.1138
    13.1593  13.3087  13.4116  13.4959  13.6146  13.6251  13.7264  13.8056
    13.8104  13.9594  13.9852  14.0319  14.1253  14.3703  14.3709  14.4093
    14.4849  14.6044  14.6487  14.7087  14.8028  14.9777  15.0672  15.1874
    15.2379  15.2642  15.3333  15.3523  15.4343  15.5275  15.5588  15.6164
    15.6175  15.6752  15.7631  15.8098  15.8759  15.9483  16.0038  16.0232
    16.1416  16.1922  16.2056  16.3156  16.4284  16.4746  16.6201  16.6886
    16.7523  16.8132  16.8364  16.9150  16.9290  16.9468  16.9985  17.0054
    17.0219  17.0569  17.0607  17.1368  17.1449  17.1746  17.2527  17.2558
    17.3277  17.4033  17.4398  17.4536  17.4573  17.5770  17.6702  17.7620
    17.7956  17.8199  17.8618  17.9227  18.0018  18.0656  18.0682  18.1544
    18.2040  18.3369  18.3895  18.4011  18.4598  18.5077  18.6876  18.6926
    18.7352  18.8230  18.9235  18.9924  19.0085  19.1248  19.1373  19.3038
    19.3091  19.4317  19.4364  19.5139  19.5678  19.7453  19.8093  19.8848
    19.9169  19.9760  20.0234  20.0309  20.0841  20.0851  20.1929  20.2562
    20.3450  20.3455  20.4293  20.4585  20.6010  20.7134  20.7725  20.8383
    20.8494  20.9314  20.9683  21.0322  21.0578  21.1743  21.2194  21.2502
    21.3453  21.4543  21.4587  21.5382  21.5639  21.6187  21.7159  21.7773

          k = 0.2500-0.4976 0.0000 ( 32026 PWs)   bands (ev):

   -55.4614 -55.4219 -55.3757 -55.3666 -55.3450 -55.3421 -55.3371 -55.3276
   -55.2266 -55.2230 -55.1354 -55.1307 -55.0788 -55.0733 -55.0571 -55.0521
   -55.0487 -55.0453 -54.8249 -54.7852 -54.4760 -54.4702 -54.2046 -54.2019
   -22.0149 -21.8298 -21.0407 -20.8786 -20.7454 -20.6313 -20.6178 -20.4909
   -20.4341 -20.3953 -20.2736 -20.2534 -20.2245 -20.2151 -20.0699 -19.9352
   -19.1470 -18.9595 -10.5148 -10.3284  -9.8180  -9.7404  -9.7296  -9.7282
    -9.6352  -9.3452  -9.2460  -9.1822  -8.9860  -8.9739  -8.8821  -8.8748
    -8.8107  -8.6739  -8.5672  -8.4375  -8.3937  -8.1631  -8.0199  -7.9000
    -7.8858  -7.7426  -7.6982  -7.6165  -7.5850  -7.4849  -7.3040  -7.2920
    -7.0772  -6.9945  -6.8235  -6.7846  -6.7365  -6.6524  -6.5580  -6.5287
    -6.3593  -6.3154  -6.0792  -5.9763  -5.6867  -5.6043  -5.5799  -5.5013
    -5.4123  -5.2215  -5.0547  -5.0457  -4.6689  -4.6290  -4.5984  -4.5028
    -4.3955  -4.2009  -4.0957  -4.0144  -3.9359  -3.8922  -3.7622  -3.7067
    -3.6367  -3.5351  -3.4866  -3.3317  -3.1985  -3.0760  -3.0410  -2.6562
    -2.5771  -2.5236  -2.4917  -2.4865  -2.4401  -2.2485  -2.0138  -1.7892
    -1.6405  -1.3581  -1.3029  -1.1137  -0.3305  -0.2884   0.2120   0.3703
     0.4741   0.6278   0.9433   1.2688   1.2892   1.4156   1.5730   1.7430
     3.7992   3.9943   4.3145   4.9860   5.1608   5.3316   5.3986   5.5352
     5.5963   5.6431   5.7840   5.8997   6.0556   6.4211   6.4496   6.7110
     6.7208   6.7923   6.8685   7.0996   7.2061   7.3336   7.4419   7.4564
     7.5827   7.6071   7.7725   7.8161   7.8938   7.9153   8.0106   8.1605
     8.2893   8.3924   8.4187   8.6925   8.6936   8.8276   8.8435   9.0511
     9.0836   9.2169   9.2988   9.5138   9.5892   9.7887   9.9407   9.9870
    10.0976  10.4217  10.6030  10.6992  10.7680  10.8078  11.0184  11.0558
    11.1066  11.1137  11.2361  11.2774  11.2785  11.3756  11.4862  11.5346
    11.6114  11.6609  11.6988  11.8867  11.9228  12.0252  12.0536  12.0987
    12.2360  12.3517  12.3647  12.4217  12.4406  12.6062  12.7637  12.7879
    12.7939  12.9013  12.9065  12.9916  13.0273  13.1247  13.1685  13.2603
    13.2886  13.4842  13.5364  13.6121  13.6741  13.6830  13.7791  13.8528
    13.8954  13.9446  14.0373  14.0908  14.1318  14.2152  14.2584  14.3335
    14.4119  14.5186  14.5525  14.5601  14.6470  14.6924  14.7313  14.8390
    14.8801  14.9184  15.0875  15.1485  15.2876  15.3127  15.3683  15.5107
    15.5927  15.6350  15.6949  15.7295  15.7303  15.9050  15.9550  16.0395
    16.0553  16.1178  16.1977  16.2762  16.2930  16.3535  16.3959  16.4277
    16.5331  16.5814  16.6283  16.6285  16.6884  16.8014  16.8328  16.8420
    16.8935  17.0035  17.0156  17.0193  17.0401  17.0483  17.1069  17.1233
    17.1814  17.2312  17.2400  17.3422  17.4070  17.5036  17.5583  17.6485
    17.7128  17.7441  17.7853  17.8262  17.8559  17.9679  18.0871  18.0878
    18.1366  18.1513  18.2470  18.2614  18.2883  18.3725  18.3924  18.4072
    18.6064  18.6419  18.6498  18.8159  18.8649  18.8907  18.9356  19.0790
    19.0825  19.1626  19.2596  19.2665  19.2943  19.3769  19.3864  19.4777
    19.4976  19.5628  19.6825  19.8594  19.9285  19.9928  20.0451  20.1959
    20.1991  20.3308  20.3486  20.3939  20.4636  20.4833  20.5861  20.6360
    20.6610  20.7728  20.8689  20.8739  20.9875  20.9970  21.1220  21.1607
    21.1684  21.2351  21.4711  21.4792  21.5497  21.5874  21.6448  21.7111

          k =-0.5000 0.0000 0.0000 ( 31984 PWs)   bands (ev):

   -55.4431 -55.4431 -55.3582 -55.3582 -55.3477 -55.3477 -55.3435 -55.3435
   -55.2255 -55.2255 -55.1330 -55.1330 -55.0761 -55.0761 -55.0553 -55.0553
   -55.0464 -55.0464 -54.8066 -54.8063 -54.4736 -54.4733 -54.2035 -54.2031
   -21.9023 -21.9022 -21.0134 -21.0134 -20.9279 -20.9279 -20.4410 -20.4409
   -20.3812 -20.3811 -20.1711 -20.1711 -20.0479 -20.0479 -19.9957 -19.9957
   -19.1278 -19.1276 -10.3272 -10.3272 -10.1289 -10.1289 -10.0825 -10.0825
    -9.4383  -9.4383  -9.2999  -9.2998  -9.1057  -9.1057  -9.0373  -9.0373
    -8.6620  -8.6619  -8.5734  -8.5734  -8.1598  -8.1598  -7.7947  -7.7947
    -7.7325  -7.7324  -7.5860  -7.5860  -7.4008  -7.4008  -7.2628  -7.2628
    -7.0842  -7.0842  -6.6749  -6.6749  -6.5132  -6.5132  -6.4323  -6.4322
    -6.3179  -6.3179  -6.0844  -6.0842  -6.0265  -6.0265  -5.4567  -5.4566
    -5.2228  -5.2228  -4.9562  -4.9562  -4.8351  -4.8351  -4.4545  -4.4544
    -4.4283  -4.4282  -4.1341  -4.1341  -3.9675  -3.9675  -3.5641  -3.5641
    -3.4255  -3.4254  -3.2193  -3.2193  -2.7675  -2.7675  -2.6993  -2.6992
    -2.6406  -2.6405  -2.5075  -2.5075  -2.1564  -2.1563  -2.0083  -2.0082
    -1.6341  -1.6339  -0.2464  -0.2464  -0.1203  -0.1202   0.2694   0.2694
     0.3636   0.3636   0.4744   0.4745   0.5705   0.5706   1.4068   1.4068
     3.7243   3.7243   4.3250   4.3250   5.0011   5.0012   5.4139   5.4139
     5.5129   5.5130   6.2240   6.2240   6.3179   6.3179   6.6107   6.6107
     7.0108   7.0108   7.4099   7.4099   7.5998   7.5999   7.6869   7.6869
     8.0078   8.0078   8.2580   8.2580   8.4120   8.4120   8.4941   8.4941
     8.6148   8.6148   8.7903   8.7903   8.8916   8.8916   9.0506   9.0506
     9.0974   9.0974   9.2579   9.2579   9.3669   9.3669   9.4697   9.4697
     9.7566   9.7566   9.9919   9.9919  10.1710  10.1710  10.5987  10.5987
    10.6752  10.6752  10.7549  10.7549  11.1311  11.1311  11.3734  11.3734
    11.4977  11.4977  11.5626  11.5627  11.6560  11.6560  11.8512  11.8512
    11.9609  11.9609  12.2232  12.2232  12.4175  12.4175  12.5342  12.5342
    12.6535  12.6535  12.7794  12.7794  12.9131  12.9131  13.0055  13.0055
    13.0893  13.0893  13.2446  13.2446  13.4686  13.4686  13.5938  13.5939
    13.7834  13.7834  13.8951  13.8951  14.2073  14.2073  14.3278  14.3278
    14.4843  14.4843  14.6214  14.6214  14.9315  14.9315  15.1240  15.1240
    15.4737  15.4737  15.5884  15.5884  15.6666  15.6666  15.7104  15.7104
    15.7950  15.7950  15.9794  15.9794  16.0630  16.0630  16.1322  16.1322
    16.2141  16.2141  16.2902  16.2902  16.4918  16.4918  16.5958  16.5958
    16.7180  16.7180  16.8324  16.8324  16.8764  16.8764  17.0210  17.0210
    17.0324  17.0324  17.1009  17.1009  17.1838  17.1838  17.3363  17.3363
    17.5623  17.5623  17.6662  17.6663  17.7905  17.7908  17.8996  17.8997
    17.9685  17.9685  18.1678  18.1678  18.2305  18.2305  18.4032  18.4032
    18.5465  18.5465  18.6506  18.6506  18.7404  18.7404  18.8130  18.8130
    18.9288  18.9288  19.0864  19.0864  19.1855  19.1855  19.3545  19.3545
    19.3797  19.3797  19.4582  19.4582  19.5212  19.5212  19.6213  19.6213
    19.8046  19.8046  19.8992  19.8992  19.9427  19.9427  20.0040  20.0040
    20.1287  20.1287  20.2544  20.2544  20.4452  20.4452  20.4930  20.4930
    20.5200  20.5200  20.5521  20.5521  20.7853  20.7853  20.8875  20.8875
    20.9584  20.9584  21.1111  21.1111  21.2238  21.2238  21.4592  21.4592

          k =-0.5000 0.2488 0.0000 ( 32052 PWs)   bands (ev):

   -55.4429 -55.4429 -55.3579 -55.3579 -55.3479 -55.3479 -55.3436 -55.3436
   -55.2252 -55.2252 -55.1331 -55.1331 -55.0761 -55.0761 -55.0550 -55.0550
   -55.0468 -55.0467 -54.8065 -54.8062 -54.4734 -54.4731 -54.2035 -54.2032
   -21.8978 -21.8978 -20.9226 -20.9214 -20.8193 -20.8193 -20.4831 -20.4765
   -20.3859 -20.3826 -20.2501 -20.2362 -20.1847 -20.1843 -20.0086 -20.0039
   -19.1257 -19.1255 -10.1707 -10.1690  -9.9062  -9.9004  -9.7513  -9.7509
    -9.4549  -9.4416  -9.2740  -9.2682  -9.0894  -9.0839  -9.0242  -9.0115
    -8.7732  -8.7464  -8.5029  -8.4615  -8.2757  -8.2649  -8.0262  -7.9784
    -7.7859  -7.7548  -7.7093  -7.6847  -7.3959  -7.3626  -7.2736  -7.2471
    -7.0691  -7.0377  -6.9257  -6.8939  -6.7271  -6.7243  -6.6263  -6.6195
    -6.3932  -6.3576  -6.2249  -6.1763  -5.8326  -5.7890  -5.6641  -5.6621
    -5.3620  -5.2552  -5.0980  -5.0496  -4.9702  -4.9138  -4.2543  -4.2226
    -4.1232  -4.0548  -3.9789  -3.9554  -3.7576  -3.7558  -3.6474  -3.6378
    -3.4141  -3.3544  -3.1834  -3.1658  -2.9252  -2.8916  -2.7964  -2.7882
    -2.6324  -2.6323  -2.4724  -2.4410  -2.2587  -2.2585  -2.1403  -2.1368
    -1.4937  -1.4927  -0.4223  -0.4128  -0.1890  -0.1884   0.0230   0.0233
     0.2472   0.2478   0.6494   0.6532   1.0211   1.0225   1.4819   1.4833
     3.9875   3.9959   4.4663   4.4678   5.2195   5.2221   5.6070   5.6088
     5.6963   5.7049   5.7945   5.8310   6.2921   6.3035   6.5619   6.5736
     6.7301   6.7306   7.0623   7.0743   7.2857   7.2965   7.4810   7.5023
     7.5858   7.5994   7.8304   7.8414   8.0234   8.0650   8.1194   8.1227
     8.3994   8.4008   8.6517   8.6838   8.8513   8.8675   9.0295   9.0442
     9.2922   9.3001   9.4182   9.4399   9.6953   9.6992  10.0076  10.0217
    10.2331  10.2596  10.5136  10.5363  10.7244  10.7315  10.8216  10.8279
    10.8754  10.8813  11.1371  11.1501  11.2263  11.2342  11.5301  11.5628
    11.7195  11.7204  11.7749  11.8423  12.0045  12.0415  12.0682  12.0795
    12.2323  12.2431  12.4608  12.4656  12.5032  12.5409  12.6348  12.6582
    12.8195  12.8266  12.9128  12.9283  13.0445  13.0669  13.1172  13.1370
    13.1947  13.2140  13.4064  13.4075  13.4803  13.5029  13.6855  13.6889
    13.9270  13.9584  14.0253  14.0259  14.1439  14.1450  14.1823  14.2317
    14.2994  14.3390  14.4403  14.4461  14.5751  14.5848  14.7105  14.7281
    14.8043  14.8060  15.0488  15.0860  15.2769  15.3106  15.5108  15.5162
    15.6786  15.6916  15.7575  15.7662  15.9116  15.9225  15.9689  15.9793
    16.1299  16.1322  16.2028  16.2315  16.3533  16.3805  16.4959  16.5037
    16.5745  16.5803  16.6425  16.6426  16.7613  16.8005  16.8412  16.8801
    16.9971  17.0041  17.0321  17.0341  17.0734  17.0849  17.1064  17.1472
    17.3438  17.3501  17.3834  17.3916  17.4899  17.5326  17.5794  17.6017
    17.7978  17.8026  17.9447  17.9496  17.9701  17.9810  18.0307  18.0469
    18.1107  18.1269  18.2145  18.2448  18.3701  18.3734  18.5146  18.5797
    18.6681  18.6720  18.7664  18.8109  18.8341  18.8777  19.0746  19.0862
    19.2132  19.2318  19.2782  19.2821  19.4494  19.4813  19.5411  19.5839
    19.6771  19.6871  19.7324  19.7719  19.8903  19.9629  20.0040  20.0099
    20.2175  20.2259  20.3241  20.3647  20.4813  20.5096  20.6267  20.6785
    20.8207  20.8687  20.9388  20.9714  21.1297  21.1612  21.1952  21.2075
    21.3644  21.3855  21.5459  21.5499  21.6434  21.6665  21.7556  21.7582

          k =-0.5000-0.4976 0.0000 ( 31956 PWs)   bands (ev):

   -55.4428 -55.4428 -55.3575 -55.3575 -55.3482 -55.3482 -55.3436 -55.3436
   -55.2249 -55.2249 -55.1332 -55.1332 -55.0762 -55.0761 -55.0546 -55.0546
   -55.0471 -55.0471 -54.8064 -54.8061 -54.4733 -54.4730 -54.2035 -54.2032
   -21.8935 -21.8935 -20.7424 -20.7423 -20.6323 -20.6322 -20.5678 -20.5678
   -20.4985 -20.4984 -20.3572 -20.3571 -20.2863 -20.2863 -20.0146 -20.0146
   -19.1240 -19.1237 -10.1308 -10.1308  -9.5375  -9.5374  -9.2794  -9.2794
    -9.2495  -9.2494  -9.0874  -9.0873  -9.0358  -9.0358  -8.9703  -8.9702
    -8.8247  -8.8247  -8.7610  -8.7610  -8.6727  -8.6727  -8.0354  -8.0353
    -7.8013  -7.8013  -7.7054  -7.7054  -7.5772  -7.5771  -7.3514  -7.3514
    -7.2115  -7.2115  -7.1067  -7.1067  -6.9720  -6.9720  -6.7331  -6.7331
    -6.3988  -6.3988  -6.0668  -6.0668  -5.8161  -5.8160  -5.6284  -5.6283
    -5.5197  -5.5196  -5.0912  -5.0912  -4.8860  -4.8860  -4.0805  -4.0805
    -3.9679  -3.9679  -3.7884  -3.7883  -3.6105  -3.6104  -3.5344  -3.5343
    -3.3972  -3.3971  -3.2273  -3.2273  -2.9180  -2.9179  -2.8600  -2.8600
    -2.6619  -2.6617  -2.4006  -2.4006  -2.3316  -2.3314  -2.2355  -2.2355
    -1.3984  -1.3983  -0.7400  -0.7400  -0.3742  -0.3741  -0.0760  -0.0760
     0.2865   0.2865   0.9786   0.9786   1.1359   1.1359   1.5984   1.5984
     4.4895   4.4895   4.6912   4.6913   5.0472   5.0472   5.7570   5.7570
     5.8625   5.8625   6.0218   6.0218   6.1997   6.1998   6.3138   6.3138
     6.4587   6.4587   6.6020   6.6020   7.0631   7.0632   7.0739   7.0739
     7.3898   7.3898   7.4585   7.4585   7.9138   7.9138   8.2273   8.2273
     8.3048   8.3049   8.4922   8.4922   8.8859   8.8859   9.1607   9.1608
     9.2815   9.2815   9.5048   9.5048   9.6647   9.6647  10.0132  10.0133
    10.3241  10.3241  10.6888  10.6888  10.8512  10.8513  11.1878  11.1878
    11.3917  11.3917  11.7224  11.7225  11.8935  11.8935  11.9283  11.9283
    12.0373  12.0373  12.3504  12.3504  12.4770  12.4771  12.5304  12.5304
    12.6936  12.6936  12.7566  12.7566  12.8443  12.8443  13.0503  13.0503
    13.1528  13.1528  13.1954  13.1954  13.2290  13.2290  13.3597  13.3598
    13.4340  13.4340  13.5066  13.5066  13.5736  13.5736  13.6683  13.6683
    13.6914  13.6914  13.7595  13.7595  13.8840  13.8840  13.9390  13.9390
    14.1920  14.1920  14.2689  14.2689  14.4884  14.4884  14.6461  14.6461
    14.6897  14.6897  14.7553  14.7553  14.8147  14.8147  14.9703  14.9703
    15.0733  15.0733  15.1230  15.1230  15.2968  15.2968  15.3263  15.3263
    15.4117  15.4118  15.5530  15.5530  15.7606  15.7606  16.0530  16.0530
    16.2914  16.2914  16.3914  16.3914  16.4779  16.4780  16.5655  16.5655
    16.8257  16.8257  16.8665  16.8665  16.9743  16.9744  17.0372  17.0372
    17.0617  17.0617  17.2133  17.2133  17.4170  17.4170  17.6396  17.6396
    17.7082  17.7084  17.7419  17.7420  17.9170  17.9172  17.9656  17.9656
    18.1616  18.1616  18.3774  18.3774  18.5268  18.5268  18.6005  18.6005
    18.9109  18.9109  19.0125  19.0125  19.1466  19.1466  19.2354  19.2354
    19.4892  19.4892  19.6912  19.6912  19.8402  19.8402  19.9639  19.9639
    20.0582  20.0582  20.0835  20.0835  20.2670  20.2670  20.3949  20.3949
    20.4465  20.4465  20.4804  20.4804  20.5737  20.5737  20.7607  20.7607
    20.9110  20.9110  20.9385  20.9385  20.9810  20.9810  21.0889  21.0890
    21.1907  21.1907  21.2770  21.2770  21.3563  21.3563  21.4629  21.4629

          k =-0.2500 0.2488 0.0000 ( 32025 PWs)   bands (ev):

   -55.4617 -55.4219 -55.3761 -55.3664 -55.3447 -55.3422 -55.3373 -55.3273
   -55.2268 -55.2234 -55.1350 -55.1310 -55.0787 -55.0733 -55.0574 -55.0523
   -55.0480 -55.0454 -54.8251 -54.7852 -54.4758 -54.4706 -54.2046 -54.2019
   -22.0269 -21.8309 -21.1814 -21.0845 -20.7304 -20.6319 -20.5756 -20.4263
   -20.4165 -20.3861 -20.2607 -20.2448 -20.1851 -20.0407 -19.9881 -19.9331
   -19.1483 -18.9621 -10.5861 -10.4097 -10.2782 -10.2026  -9.7256  -9.6819
    -9.5451  -9.3723  -9.3228  -9.2632  -9.2500  -9.0266  -8.9561  -8.9006
    -8.8719  -8.7394  -8.6904  -8.4423  -8.1847  -8.1189  -8.0134  -7.9778
    -7.7487  -7.5729  -7.5690  -7.4362  -7.3423  -7.1811  -7.1719  -7.0896
    -6.9920  -6.9754  -6.7388  -6.7218  -6.6478  -6.5541  -6.4696  -6.4600
    -6.2931  -6.1190  -6.0464  -5.9028  -5.7989  -5.6461  -5.5428  -5.3966
    -5.2701  -5.2075  -5.1846  -4.9515  -4.8952  -4.7983  -4.7034  -4.5066
    -4.3723  -4.3333  -4.2150  -4.1803  -3.9461  -3.9013  -3.8429  -3.6944
    -3.5762  -3.5610  -3.5197  -3.3949  -3.1728  -3.1253  -2.8097  -2.6721
    -2.6274  -2.5624  -2.4166  -2.3699  -2.3344  -2.2295  -1.8847  -1.7926
    -1.7578  -1.4274  -1.0690  -0.6878  -0.3486  -0.2953  -0.0985   0.2970
     0.5404   0.7433   0.8913   1.0012   1.2434   1.2559   1.4160   1.6113
     3.0857   3.6824   4.5522   4.9719   5.0513   5.0951   5.2029   5.4809
     5.7149   5.9506   6.0569   6.2274   6.4003   6.5090   6.5873   6.6394
     6.7667   6.8234   7.0256   7.0936   7.2654   7.3998   7.4397   7.5298
     7.6000   7.7403   7.8190   7.9826   8.1073   8.1822   8.2592   8.3115
     8.3563   8.4771   8.5427   8.6372   8.7620   8.8685   9.0285   9.1451
     9.3011   9.3390   9.4508   9.5717   9.6514   9.7607   9.8880   9.9463
    10.0910  10.1453  10.2045  10.2193  10.4217  10.5081  10.5302  10.6349
    10.6644  10.8231  10.8381  10.9713  11.1487  11.2462  11.3456  11.3840
    11.4218  11.5427  11.6481  11.7312  11.7944  11.8064  11.8986  11.9324
    11.9868  12.1564  12.2077  12.2144  12.3200  12.3463  12.4343  12.5203
    12.5685  12.6089  12.7213  12.7893  12.8894  12.8997  13.0293  13.0851
    13.1533  13.2519  13.4094  13.5040  13.6006  13.6329  13.7011  13.8083
    13.8295  13.8871  14.0182  14.0247  14.1244  14.2868  14.3631  14.4225
    14.4581  14.6016  14.6723  14.7246  14.8314  14.9184  15.0277  15.1513
    15.2136  15.2171  15.3441  15.3512  15.4410  15.5103  15.5601  15.6218
    15.6225  15.6694  15.7584  15.8058  15.8519  15.9327  16.0156  16.0333
    16.1685  16.1726  16.2285  16.3065  16.3902  16.4855  16.6046  16.7151
    16.7768  16.8149  16.8362  16.8723  16.9260  16.9619  17.0067  17.0192
    17.0262  17.0738  17.0846  17.1359  17.1437  17.1774  17.2468  17.2580
    17.3371  17.3906  17.4476  17.4529  17.4914  17.6068  17.6748  17.7524
    17.7557  17.8199  17.8396  17.8911  18.0344  18.0866  18.1163  18.1931
    18.2013  18.3585  18.3932  18.3939  18.5263  18.5764  18.6873  18.6934
    18.7309  18.8858  18.9287  19.0210  19.0354  19.1092  19.1512  19.2691
    19.3298  19.3881  19.4080  19.5563  19.6132  19.7690  19.8247  19.8412
    19.8986  19.9418  19.9909  20.0398  20.0594  20.0934  20.2417  20.2626
    20.3174  20.3280  20.5075  20.5183  20.6345  20.6975  20.7628  20.8086
    20.8117  20.9329  20.9366  21.0077  21.0362  21.2139  21.2461  21.2548
    21.3469  21.4319  21.4446  21.5339  21.5810  21.6214  21.6479  21.7689

     the Fermi energy is    -1.7343 ev

!    total energy              =   -2247.82073744 Ry
     Harris-Foulkes estimate   =   -2247.82073812 Ry
     estimated scf accuracy    <       0.00000075 Ry

     The total energy is the sum of the following terms:

     one-electron contribution =  -22776.36929154 Ry
     hartree contribution      =   11429.03089997 Ry
     xc contribution           =    -565.12754968 Ry
     ewald contribution        =    9663.68434580 Ry
     Hubbard energy            =       0.96187202 Ry
     smearing contrib. (-TS)   =      -0.00101401 Ry

     convergence has been achieved in  24 iterations

     Forces acting on atoms (Ry/au):


     negative rho (up, down):  0.158E+01 0.000E+00
     atom    1 type  1   force =    -0.00808665   -0.00555095   -0.00063063
     atom    2 type  1   force =     0.00010593    0.00371358    0.00320619
     atom    3 type  2   force =    -0.00048631    0.00243258   -0.00301679
     atom    4 type  2   force =     0.01087743    0.00220328   -0.00016142
     atom    5 type  1   force =     0.00099601   -0.00185160   -0.00211373
     atom    6 type  1   force =     0.00004569    0.00117286    0.00108934
     atom    7 type  1   force =     0.00004497    0.00412085    0.00224424
     atom    8 type  1   force =    -0.00404763   -0.00719532    0.00352848
     atom    9 type  2   force =     0.00188453    0.00095651   -0.00581945
     atom   10 type  2   force =    -0.00002995   -0.00166478   -0.00569665
     atom   11 type  1   force =     0.00004163   -0.00550053    0.00224579
     atom   12 type  1   force =     0.00011864    0.00650753    0.00186084
     atom   13 type  1   force =    -0.00112248   -0.00035398    0.00093486
     atom   14 type  1   force =    -0.00809517   -0.00555293   -0.00063584
     atom   15 type  1   force =     0.00010557    0.00371340    0.00321132
     atom   16 type  2   force =    -0.00050359    0.00243266   -0.00301655
     atom   17 type  2   force =     0.01087564    0.00220673   -0.00014543
     atom   18 type  1   force =     0.00098931   -0.00185208   -0.00211364
     atom   19 type  1   force =     0.00003596    0.00117307    0.00108992
     atom   20 type  1   force =     0.00004483    0.00411941    0.00230198
     atom   21 type  1   force =    -0.00404706   -0.00719504    0.00355283
     atom   22 type  2   force =     0.00180179    0.00095645   -0.00581934
     atom   23 type  2   force =    -0.00002943   -0.00166297   -0.00571426
     atom   24 type  1   force =    -0.00002902   -0.00550022    0.00224558
     atom   25 type  1   force =     0.00005405    0.00650719    0.00186065
     atom   26 type  1   force =    -0.00112159   -0.00035427    0.00086206
     atom   27 type  3   force =     0.00001196    0.00051896    0.00160208
     atom   28 type  3   force =     0.00001193    0.00051734    0.00160285
     atom   29 type  3   force =    -0.00022194    0.00049151    0.00072199
     atom   30 type  3   force =    -0.00022504    0.00049079    0.00072272

     Total force =     0.015656     Total SCF correction =     0.004111
     SCF correction compared to forces is large: reduce conv_thr to get better values

     BFGS Geometry Optimization

     number of scf cycles    =   1
     number of bfgs steps    =   0

     energy   new            =   -2247.8207374377 Ry

     new trust radius        =       0.0058194548 bohr
     new conv_thr            =       0.0000010000 Ry


ATOMIC_POSITIONS (crystal)
O0       0.000000000   0.000000000   0.376917403    0   0   1
O0       0.000000000   0.500000000   0.399234046    0   0   1
Pt1      0.250000000   0.500000000   0.448969738    0   0   1
Pt1      0.000000000   0.000000000   0.451966776    0   0   1
O0       0.250000000   0.810000000   0.442727777    0   0   1
O0       0.250000000   0.190000000   0.459061760    0   0   1
O0       0.000000000   0.500000000   0.495454830    0   0   1
O0       0.000000000   0.000000000   0.529440483    0   0   1
Pt1      0.250000000   0.000000000   0.576003753    0   0   1
Pt1      0.000000000   0.500000000   0.574146206    0   0   1
O0       0.250000000   0.690000000   0.583124861    0   0   1
O0       0.250000000   0.310000000   0.583687171    0   0   1
O0       0.000000000   0.000000000   0.621628674    0   0   1
O0       0.500000000   0.000000000   0.376917299    0   0   1
O0       0.500000000   0.500000000   0.399234148    0   0   1
Pt1      0.750000000   0.500000000   0.448969743    0   0   1
Pt1      0.500000000   0.000000000   0.451967095    0   0   1
O0       0.750000000   0.810000000   0.442727779    0   0   1
O0       0.750000000   0.190000000   0.459061772    0   0   1
O0       0.500000000   0.500000000   0.495455983    0   0   1
O0       0.500000000   0.000000000   0.529440970    0   0   1
Pt1      0.750000000   0.000000000   0.576003756    0   0   1
Pt1      0.500000000   0.500000000   0.574145854    0   0   1
O0       0.750000000   0.690000000   0.583124857    0   0   1
O0       0.750000000   0.310000000   0.583687168    0   0   1
O0       0.500000000   0.000000000   0.621627220    0   0   1
H2      -0.000049020   0.640102306   0.383582002
H2       0.499950977   0.640102175   0.383582018
H2       0.144051819   0.031420069   0.366984422
H2       0.644051566   0.031420010   0.366984437


     Check: negative starting charge=   -1.537272
     NEW-OLD atomic charge density approx. for the potential

     Check: negative/imaginary core charge=   -0.000003    0.000000
     Check: negative starting charge=   -1.537988

     negative rho (up, down):  0.158E+01 0.000E+00
 Atomic wfc used for LDA+U Projector are NOT orthogonalized

     total cpu time spent up to now is     6382.5 secs

     per-process dynamical memory:   458.1 Mb

     Self-consistent Calculation

     iteration #  1     ecut=    40.00 Ry     beta=0.70
     Davidson diagonalization with overlap
     ethr =  1.00E-06,  avg # of iterations =  3.0
 --- enter write_ns ---
 LDA+U parameters:
U( 2)     =  3.50000000
alpha( 2) =  0.00000000
atom    3   Tr[ns(na)] =   8.73333
    eigenvalues: 
  0.699  0.708  0.983  0.987  0.990
    eigenvectors:
  0.179  0.000  0.773  0.000  0.048
  0.000  1.000  0.000  0.000  0.000
  0.003  0.000  0.070  0.000  0.927
  0.819  0.000  0.157  0.000  0.024
  0.000  0.000  0.000  1.000  0.000
    occupations:
  0.933 -0.000  0.005 -0.109  0.000
 -0.000  0.708  0.000  0.000 -0.001
  0.005  0.000  0.989  0.014 -0.000
 -0.109  0.000  0.014  0.751  0.000
  0.000 -0.001 -0.000  0.000  0.987
atom    4   Tr[ns(na)] =   8.70948
    eigenvalues: 
  0.689  0.712  0.982  0.985  0.987
    eigenvectors:
  0.000  0.987  0.008  0.002  0.003
  0.008  0.000  0.033  0.935  0.023
  0.000  0.004  0.781  0.009  0.207
  0.000  0.009  0.177  0.047  0.767
  0.992  0.000  0.000  0.008  0.000
    occupations:
  0.715 -0.005 -0.016  0.026 -0.001
 -0.005  0.983  0.000  0.000  0.026
 -0.016  0.000  0.982  0.003  0.000
  0.026  0.000  0.003  0.983  0.000
 -0.001  0.026  0.000  0.000  0.692
atom    9   Tr[ns(na)] =   8.68974
    eigenvalues: 
  0.715  0.722  0.960  0.962  0.986
    eigenvectors:
  0.001  0.143  0.000  0.000  0.856
  0.995  0.005  0.000  0.000  0.000
  0.000  0.000  0.001  0.999  0.000
  0.004  0.852  0.000  0.000  0.144
  0.000  0.000  0.999  0.001  0.000
    occupations:
  0.948  0.000 -0.000 -0.093  0.000
  0.000  0.715  0.000  0.000 -0.000
 -0.000  0.000  0.962 -0.001 -0.000
 -0.093  0.000 -0.001  0.760  0.000
  0.000 -0.000 -0.000  0.000  0.960
atom   10   Tr[ns(na)] =   8.76293
    eigenvalues: 
  0.658  0.784  0.968  0.986  0.986
    eigenvectors:
  0.000  0.980  0.000  0.002  0.018
  0.000  0.000  1.000  0.000  0.000
  0.000  0.000  0.000  0.881  0.119
  0.000  0.020  0.000  0.117  0.863
  1.000  0.000  0.000  0.000  0.000
    occupations:
  0.788  0.000  0.002  0.028  0.000
  0.000  0.968 -0.000  0.000 -0.001
  0.002 -0.000  0.986 -0.000 -0.000
  0.028  0.000 -0.000  0.982 -0.000
  0.000 -0.001 -0.000 -0.000  0.658
atom   16   Tr[ns(na)] =   8.73332
    eigenvalues: 
  0.699  0.708  0.983  0.987  0.990
    eigenvectors:
  0.179  0.000  0.773  0.000  0.048
  0.000  1.000  0.000  0.000  0.000
  0.003  0.000  0.070  0.000  0.927
  0.819  0.000  0.157  0.000  0.024
  0.000  0.000  0.000  1.000  0.000
    occupations:
  0.933  0.000  0.005 -0.109  0.000
  0.000  0.708  0.000  0.000 -0.001
  0.005  0.000  0.989  0.014 -0.000
 -0.109  0.000  0.014  0.751  0.000
  0.000 -0.001 -0.000  0.000  0.987
atom   17   Tr[ns(na)] =   8.70945
    eigenvalues: 
  0.689  0.712  0.982  0.985  0.987
    eigenvectors:
  0.000  0.987  0.008  0.002  0.003
  0.008  0.000  0.033  0.935  0.023
  0.000  0.004  0.784  0.009  0.204
  0.000  0.009  0.175  0.047  0.769
  0.992  0.000  0.000  0.008  0.000
    occupations:
  0.715 -0.005 -0.016  0.026 -0.001
 -0.005  0.983  0.000  0.000  0.026
 -0.016  0.000  0.982  0.003  0.000
  0.026  0.000  0.003  0.983  0.000
 -0.001  0.026  0.000  0.000  0.692
atom   22   Tr[ns(na)] =   8.68975
    eigenvalues: 
  0.715  0.722  0.960  0.962  0.986
    eigenvectors:
  0.001  0.143  0.000  0.000  0.856
  0.996  0.004  0.000  0.000  0.000
  0.000  0.000  0.000  1.000  0.000
  0.003  0.853  0.000  0.000  0.144
  0.000  0.000  1.000  0.000  0.000
    occupations:
  0.948  0.000 -0.000 -0.093  0.000
  0.000  0.715  0.000  0.000 -0.000
 -0.000  0.000  0.962 -0.001  0.000
 -0.093  0.000 -0.001  0.760  0.000
  0.000 -0.000  0.000  0.000  0.960
atom   23   Tr[ns(na)] =   8.76441
    eigenvalues: 
  0.658  0.785  0.968  0.986  0.986
    eigenvectors:
  0.000  0.980  0.000  0.003  0.017
  0.000  0.000  1.000  0.000  0.000
  0.000  0.000  0.000  0.833  0.167
  0.000  0.020  0.000  0.165  0.815
  1.000  0.000  0.000  0.000  0.000
    occupations:
  0.789  0.000  0.002  0.028  0.000
  0.000  0.968 -0.000  0.000 -0.001
  0.002 -0.000  0.986 -0.000 -0.000
  0.028  0.000 -0.000  0.982 -0.000
  0.000 -0.001 -0.000 -0.000  0.658
N of occupied +U levels =  69.7924135
 --- exit write_ns ---

     Threshold (ethr) on eigenvalues was too large:
     Diagonalizing with lowered threshold

     Davidson diagonalization with overlap
     ethr =  6.55E-08,  avg # of iterations =  1.1

     negative rho (up, down):  0.158E+01 0.000E+00

     total cpu time spent up to now is     6834.9 secs

     total energy              =   -2247.82082101 Ry
     Harris-Foulkes estimate   =   -2247.82092331 Ry
     estimated scf accuracy    <       0.00015776 Ry

     iteration #  2     ecut=    40.00 Ry     beta=0.70
     Davidson diagonalization with overlap
     ethr =  6.57E-08,  avg # of iterations =  2.1

     negative rho (up, down):  0.158E+01 0.000E+00

     total cpu time spent up to now is     7066.1 secs

     total energy              =   -2247.82039961 Ry
     Harris-Foulkes estimate   =   -2247.82136275 Ry
     estimated scf accuracy    <       0.00705207 Ry

     iteration #  3     ecut=    40.00 Ry     beta=0.70
     Davidson diagonalization with overlap
     ethr =  6.57E-08,  avg # of iterations =  2.3

     negative rho (up, down):  0.158E+01 0.000E+00

     total cpu time spent up to now is     7297.2 secs

     total energy              =   -2247.82082235 Ry
     Harris-Foulkes estimate   =   -2247.82095618 Ry
     estimated scf accuracy    <       0.00083710 Ry

     iteration #  4     ecut=    40.00 Ry     beta=0.70
     Davidson diagonalization with overlap
     ethr =  6.57E-08,  avg # of iterations =  1.0

     negative rho (up, down):  0.158E+01 0.000E+00

     total cpu time spent up to now is     7514.1 secs

     total energy              =   -2247.82087358 Ry
     Harris-Foulkes estimate   =   -2247.82092885 Ry
     estimated scf accuracy    <       0.00037334 Ry

     iteration #  5     ecut=    40.00 Ry     beta=0.70
     Davidson diagonalization with overlap
     ethr =  6.57E-08,  avg # of iterations =  1.0

     negative rho (up, down):  0.158E+01 0.000E+00

     total cpu time spent up to now is     7733.8 secs

     total energy              =   -2247.82088533 Ry
     Harris-Foulkes estimate   =   -2247.82092113 Ry
     estimated scf accuracy    <       0.00019961 Ry

     iteration #  6     ecut=    40.00 Ry     beta=0.70
     Davidson diagonalization with overlap
     ethr =  6.57E-08,  avg # of iterations =  1.0

     negative rho (up, down):  0.158E+01 0.000E+00

     total cpu time spent up to now is     7950.3 secs

     total energy              =   -2247.82090106 Ry
     Harris-Foulkes estimate   =   -2247.82090928 Ry
     estimated scf accuracy    <       0.00003694 Ry

     iteration #  7     ecut=    40.00 Ry     beta=0.70
     Davidson diagonalization with overlap
     ethr =  1.54E-08,  avg # of iterations =  1.0

     negative rho (up, down):  0.158E+01 0.000E+00

     total cpu time spent up to now is     8165.3 secs

     total energy              =   -2247.82090465 Ry
     Harris-Foulkes estimate   =   -2247.82090584 Ry
     estimated scf accuracy    <       0.00000379 Ry

     iteration #  8     ecut=    40.00 Ry     beta=0.70
     Davidson diagonalization with overlap
     ethr =  1.58E-09,  avg # of iterations =  1.0

     negative rho (up, down):  0.158E+01 0.000E+00

     total cpu time spent up to now is     8378.3 secs

     total energy              =   -2247.82090487 Ry
     Harris-Foulkes estimate   =   -2247.82090581 Ry
     estimated scf accuracy    <       0.00000457 Ry

     iteration #  9     ecut=    40.00 Ry     beta=0.70
     Davidson diagonalization with overlap
     ethr =  1.58E-09,  avg # of iterations =  1.0

     negative rho (up, down):  0.158E+01 0.000E+00

     total cpu time spent up to now is     8586.9 secs

     total energy              =   -2247.82090519 Ry
     Harris-Foulkes estimate   =   -2247.82090556 Ry
     estimated scf accuracy    <       0.00000213 Ry

[...]
     5.5133   5.5133   6.2215   6.2215   6.3187   6.3187   6.5998   6.5998
     6.9893   6.9893   7.4055   7.4055   7.5904   7.5905   7.6754   7.6754
     8.0042   8.0042   8.2499   8.2499   8.4026   8.4026   8.4874   8.4874
     8.6204   8.6204   8.7911   8.7911   8.8911   8.8911   9.0486   9.0487
     9.1002   9.1002   9.2623   9.2623   9.3656   9.3656   9.4667   9.4667
     9.7637   9.7637   9.9948   9.9948  10.1719  10.1719  10.6020  10.6021
    10.6759  10.6759  10.7483  10.7483  11.1113  11.1113  11.3763  11.3763
    11.4941  11.4941  11.5761  11.5762  11.6654  11.6654  11.8509  11.8509
    11.9578  11.9579  12.2248  12.2248  12.4203  12.4203  12.5315  12.5315
    12.6506  12.6506  12.7797  12.7797  12.9149  12.9149  13.0064  13.0064
    13.0959  13.0960  13.2511  13.2512  13.4717  13.4717  13.5944  13.5944
    13.7855  13.7855  13.8996  13.8996  14.2162  14.2162  14.3405  14.3405
    14.4885  14.4885  14.6190  14.6191  14.9339  14.9339  15.1262  15.1263
    15.4789  15.4789  15.5905  15.5905  15.6637  15.6637  15.7191  15.7191
    15.7981  15.7981  15.9861  15.9861  16.0681  16.0681  16.1400  16.1401
    16.2240  16.2240  16.2949  16.2949  16.4912  16.4912  16.6054  16.6054
    16.7333  16.7333  16.8466  16.8466  16.8828  16.8828  17.0105  17.0105
    17.0248  17.0248  17.0968  17.0968  17.1900  17.1900  17.3354  17.3354
    17.5512  17.5513  17.6631  17.6631  17.7735  17.7736  17.9040  17.9041
    17.9654  17.9654  18.1609  18.1610  18.2302  18.2302  18.3983  18.3983
    18.5452  18.5452  18.6539  18.6539  18.7371  18.7371  18.8197  18.8197
    18.9275  18.9276  19.0909  19.0909  19.1809  19.1809  19.3434  19.3434
    19.3822  19.3822  19.4513  19.4513  19.5205  19.5205  19.6240  19.6240
    19.8072  19.8072  19.8966  19.8966  19.9450  19.9450  20.0080  20.0080
    20.1350  20.1350  20.2597  20.2597  20.4515  20.4515  20.4965  20.4966
    20.5231  20.5231  20.5560  20.5560  20.7860  20.7860  20.8919  20.8919
    20.9655  20.9655  21.1180  21.1180  21.2319  21.2319  21.4556  21.4556

          k =-0.5000 0.2488 0.0000 ( 32052 PWs)   bands (ev):

   -55.4360 -55.4360 -55.3817 -55.3817 -55.3541 -55.3540 -55.3259 -55.3259
   -55.2501 -55.2501 -55.1469 -55.1468 -55.0731 -55.0731 -55.0583 -55.0583
   -55.0451 -55.0451 -54.8192 -54.8191 -54.4885 -54.4885 -54.2531 -54.2529
   -21.9599 -21.9598 -20.9396 -20.9383 -20.8132 -20.8132 -20.5303 -20.5259
   -20.4134 -20.4058 -20.2744 -20.2585 -20.1792 -20.1787 -20.0162 -20.0115
   -19.1150 -19.1149 -10.2225 -10.2206  -9.9157  -9.9096  -9.7314  -9.7310
    -9.4658  -9.4503  -9.3106  -9.3041  -9.1090  -9.1025  -9.0522  -9.0395
    -8.7907  -8.7661  -8.5344  -8.4922  -8.3124  -8.2985  -8.0521  -8.0071
    -7.7999  -7.7756  -7.7208  -7.7106  -7.4039  -7.3476  -7.2885  -7.2445
    -7.0658  -7.0390  -6.9461  -6.9171  -6.7475  -6.7450  -6.6426  -6.6329
    -6.3967  -6.3563  -6.2297  -6.1752  -5.8458  -5.7969  -5.6889  -5.6816
    -5.3662  -5.2499  -5.1117  -5.0472  -4.9810  -4.9275  -4.2719  -4.2404
    -4.1432  -4.0743  -3.9901  -3.9680  -3.7694  -3.7671  -3.6570  -3.6504
    -3.4422  -3.3767  -3.2006  -3.1837  -2.9368  -2.9021  -2.8138  -2.8068
    -2.6442  -2.6429  -2.5005  -2.4710  -2.2592  -2.2586  -2.1541  -2.1514
    -1.4673  -1.4663  -0.4483  -0.4380  -0.1936  -0.1929   0.0174   0.0176
     0.2503   0.2514   0.6337   0.6370   1.0022   1.0035   1.4614   1.4627
     3.9804   3.9890   4.4566   4.4585   5.2238   5.2264   5.6093   5.6116
     5.6969   5.7070   5.7838   5.8204   6.2803   6.2921   6.5559   6.5672
     6.7262   6.7270   7.0660   7.0778   7.2825   7.2935   7.4788   7.4994
     7.5770   7.5913   7.8304   7.8410   8.0027   8.0459   8.1076   8.1083
     8.3939   8.3966   8.6445   8.6811   8.8378   8.8545   9.0267   9.0417
     9.2906   9.2990   9.4226   9.4465   9.6884   9.6909  10.0123  10.0260
    10.2283  10.2554  10.5173  10.5404  10.7286  10.7361  10.8206  10.8243
    10.8778  10.8829  11.1349  11.1463  11.2296  11.2381  11.5383  11.5691
    11.7137  11.7149  11.7738  11.8437  12.0162  12.0486  12.0721  12.0797
    12.2389  12.2424  12.4599  12.4653  12.5025  12.5329  12.6331  12.6588
    12.8238  12.8277  12.9141  12.9285  13.0394  13.0600  13.1206  13.1379
    13.1935  13.2157  13.4147  13.4185  13.4828  13.5024  13.6956  13.6997
    13.9339  13.9656  14.0286  14.0327  14.1491  14.1516  14.1851  14.2352
    14.3043  14.3427  14.4420  14.4460  14.5805  14.5886  14.7083  14.7301
    14.8089  14.8095  15.0555  15.0942  15.2810  15.3162  15.5161  15.5232
    15.6851  15.6977  15.7589  15.7671  15.9159  15.9261  15.9715  15.9782
    16.1352  16.1390  16.2045  16.2357  16.3610  16.3948  16.5024  16.5080
    16.5761  16.5824  16.6549  16.6562  16.7669  16.8140  16.8577  16.8914
    16.9962  17.0016  17.0219  17.0224  17.0749  17.0893  17.1082  17.1508
    17.3475  17.3522  17.3845  17.3935  17.4936  17.5335  17.5778  17.6034
    17.7819  17.7862  17.9475  17.9510  17.9680  17.9852  18.0319  18.0456
    18.1124  18.1298  18.2146  18.2427  18.3717  18.3762  18.5134  18.5731
    18.6712  18.6797  18.7722  18.8036  18.8293  18.8865  19.0715  19.0855
    19.2172  19.2395  19.2878  19.2929  19.4433  19.4758  19.5369  19.5738
    19.6762  19.6843  19.7284  19.7611  19.8772  19.9606  20.0020  20.0075
    20.2101  20.2224  20.3257  20.3662  20.4905  20.5235  20.6269  20.6740
    20.8219  20.8653  20.9350  20.9734  21.1288  21.1649  21.1976  21.2142
    21.3573  21.3775  21.5540  21.5579  21.6484  21.6673  21.7534  21.7583

          k =-0.5000-0.4976 0.0000 ( 31956 PWs)   bands (ev):

   -55.4359 -55.4359 -55.3815 -55.3815 -55.3542 -55.3541 -55.3260 -55.3260
   -55.2498 -55.2498 -55.1469 -55.1469 -55.0730 -55.0730 -55.0583 -55.0583
   -55.0452 -55.0452 -54.8191 -54.8190 -54.4884 -54.4883 -54.2531 -54.2530
   -21.9557 -21.9556 -20.7624 -20.7624 -20.6602 -20.6602 -20.5671 -20.5671
   -20.5011 -20.5011 -20.3978 -20.3978 -20.2964 -20.2963 -20.0229 -20.0229
   -19.1132 -19.1130 -10.1857 -10.1857  -9.5574  -9.5573  -9.3067  -9.3066
    -9.2764  -9.2764  -9.0930  -9.0930  -9.0654  -9.0654  -8.9540  -8.9540
    -8.8372  -8.8371  -8.7753  -8.7753  -8.6844  -8.6844  -8.0711  -8.0711
    -7.8143  -7.8143  -7.7335  -7.7335  -7.5906  -7.5906  -7.3613  -7.3613
    -7.2343  -7.2343  -7.1102  -7.1102  -6.9888  -6.9888  -6.7492  -6.7492
    -6.4018  -6.4018  -6.0747  -6.0747  -5.8003  -5.8003  -5.6504  -5.6503
    -5.5097  -5.5097  -5.1144  -5.1144  -4.9009  -4.9008  -4.0864  -4.0863
    -3.9882  -3.9882  -3.8102  -3.8102  -3.6495  -3.6494  -3.5580  -3.5580
    -3.3957  -3.3957  -3.2217  -3.2217  -2.9376  -2.9376  -2.8870  -2.8870
    -2.6755  -2.6754  -2.4368  -2.4368  -2.3277  -2.3277  -2.2447  -2.2447
    -1.3711  -1.3710  -0.7596  -0.7596  -0.3779  -0.3779  -0.0799  -0.0798
     0.2953   0.2953   0.9688   0.9688   1.1003   1.1003   1.5808   1.5809
     4.4823   4.4823   4.6883   4.6883   5.0339   5.0339   5.7357   5.7358
     5.8622   5.8622   6.0265   6.0265   6.1996   6.1996   6.3162   6.3162
     6.4568   6.4568   6.6039   6.6039   7.0616   7.0617   7.0706   7.0706
     7.3865   7.3865   7.4468   7.4468   7.8955   7.8955   8.2116   8.2116
     8.3071   8.3071   8.4776   8.4776   8.8820   8.8820   9.1567   9.1567
     9.2605   9.2606   9.4956   9.4956   9.6675   9.6675  10.0260  10.0260
    10.3133  10.3133  10.6879  10.6880  10.8709  10.8710  11.1697  11.1698
    11.3958  11.3958  11.7290  11.7290  11.9028  11.9028  11.9218  11.9218
    12.0374  12.0374  12.3541  12.3542  12.4690  12.4691  12.5367  12.5367
    12.6968  12.6969  12.7489  12.7489  12.8442  12.8442  13.0584  13.0584
    13.1534  13.1534  13.2018  13.2018  13.2323  13.2323  13.3643  13.3643
    13.4380  13.4380  13.5156  13.5156  13.5774  13.5774  13.6731  13.6731
    13.6942  13.6942  13.7640  13.7641  13.8860  13.8860  13.9377  13.9377
    14.1998  14.1998  14.2756  14.2756  14.4887  14.4887  14.6475  14.6475
    14.6936  14.6936  14.7588  14.7588  14.8211  14.8211  14.9725  14.9725
    15.0768  15.0768  15.1285  15.1285  15.3012  15.3012  15.3261  15.3261
    15.4234  15.4235  15.5597  15.5597  15.7675  15.7675  16.0580  16.0580
    16.2991  16.2991  16.3952  16.3952  16.4811  16.4811  16.5809  16.5809
    16.8421  16.8421  16.8700  16.8700  16.9772  16.9772  17.0323  17.0323
    17.0505  17.0505  17.2195  17.2195  17.4259  17.4259  17.6324  17.6324
    17.6991  17.6991  17.7547  17.7547  17.9087  17.9088  17.9783  17.9783
    18.1666  18.1666  18.3758  18.3758  18.5295  18.5295  18.6039  18.6039
    18.9073  18.9073  19.0127  19.0127  19.1404  19.1404  19.2372  19.2372
    19.4943  19.4944  19.6924  19.6924  19.8357  19.8357  19.9626  19.9626
    20.0619  20.0619  20.0773  20.0773  20.2616  20.2616  20.3841  20.3841
    20.4451  20.4452  20.4842  20.4843  20.5732  20.5732  20.7618  20.7618
    20.9154  20.9154  20.9408  20.9409  20.9788  20.9788  21.0930  21.0930
    21.2040  21.2040  21.2755  21.2755  21.3502  21.3502  21.4505  21.4505

          k =-0.2500 0.2488 0.0000 ( 32025 PWs)   bands (ev):

   -55.4549 -55.4149 -55.4001 -55.3724 -55.3611 -55.3335 -55.3271 -55.3245
   -55.2517 -55.2483 -55.1488 -55.1447 -55.0755 -55.0705 -55.0610 -55.0553
   -55.0463 -55.0438 -54.8378 -54.7981 -54.4910 -54.4859 -54.2542 -54.2515
   -22.0916 -21.8911 -21.1948 -21.0757 -20.7524 -20.6252 -20.5912 -20.4794
   -20.4681 -20.4126 -20.2754 -20.2414 -20.2047 -20.0479 -19.9910 -19.9435
   -19.1382 -18.9516 -10.6346 -10.4277 -10.2607 -10.2514  -9.7368  -9.7007
    -9.5357  -9.3905  -9.3303  -9.3080  -9.2742  -9.0423  -8.9453  -8.9234
    -8.8986  -8.7514  -8.7026  -8.5208  -8.2099  -8.1484  -8.0265  -7.9851
    -7.7597  -7.5985  -7.5771  -7.4571  -7.3635  -7.1865  -7.1788  -7.1092
    -7.0162  -6.9854  -6.7563  -6.7173  -6.6757  -6.5610  -6.4819  -6.4648
    -6.3009  -6.1309  -6.0495  -5.9083  -5.8135  -5.6854  -5.5631  -5.4056
    -5.2872  -5.2224  -5.1951  -4.9508  -4.9041  -4.8019  -4.7098  -4.5177
    -4.3735  -4.3655  -4.2015  -4.1974  -3.9675  -3.9185  -3.8615  -3.7044
    -3.5963  -3.5710  -3.5365  -3.3758  -3.1824  -3.1357  -2.8226  -2.6769
    -2.6533  -2.5875  -2.4387  -2.3992  -2.3612  -2.2625  -1.8915  -1.7963
    -1.7527  -1.3916  -1.0794  -0.6817  -0.3486  -0.2856  -0.1140   0.2947
     0.5347   0.7091   0.8613   0.9618   1.2281   1.2518   1.3950   1.6093
     3.0711   3.6771   4.5573   4.9752   5.0550   5.0955   5.1971   5.4675
     5.6980   5.9444   6.0526   6.2274   6.4049   6.4900   6.5862   6.6380
     6.7618   6.8208   7.0213   7.0776   7.2631   7.3984   7.4269   7.5127
     7.5988   7.7368   7.8146   7.9758   8.0952   8.1641   8.2596   8.3094
     8.3560   8.4716   8.5407   8.6445   8.7670   8.8681   9.0291   9.1204
     9.3052   9.3412   9.4451   9.5599   9.6499   9.7628   9.8909   9.9532
    10.0948  10.1447  10.2100  10.2154  10.4238  10.5121  10.5297  10.6374
    10.6621  10.8257  10.8360  10.9778  11.1453  11.2486  11.3481  11.3888
    11.4185  11.5444  11.6526  11.7357  11.7945  11.8146  11.8845  11.9359
    11.9879  12.1582  12.2055  12.2110  12.3250  12.3477  12.4347  12.5182
    12.5778  12.6177  12.7263  12.7947  12.8887  12.8978  13.0351  13.0918
    13.1555  13.2457  13.4119  13.5042  13.6106  13.6336  13.7058  13.8111
    13.8256  13.8903  14.0231  14.0282  14.1227  14.2803  14.3607  14.4095
    14.4688  14.6109  14.6788  14.7274  14.8308  14.9240  15.0360  15.1556
    15.2189  15.2205  15.3471  15.3554  15.4451  15.5154  15.5593  15.6289
    15.6292  15.6739  15.7569  15.8184  15.8597  15.9382  16.0200  16.0392
    16.1696  16.1757  16.2282  16.3167  16.3940  16.4936  16.6087  16.7175
    16.7821  16.8275  16.8540  16.8759  16.9320  16.9604  17.0006  17.0102
    17.0147  17.0694  17.0892  17.1393  17.1457  17.1798  17.2517  17.2609
    17.3419  17.3979  17.4476  17.4596  17.4959  17.6144  17.6766  17.7426
    17.7553  17.8008  17.8297  17.8943  18.0396  18.0874  18.1172  18.1901
    18.2054  18.3543  18.3870  18.3951  18.5295  18.5861  18.6941  18.7051
    18.7297  18.8934  18.9329  19.0127  19.0241  19.1041  19.1488  19.2769
    19.3271  19.3883  19.4061  19.5601  19.6104  19.7679  19.8163  19.8360
    19.9027  19.9459  19.9791  20.0439  20.0685  20.0862  20.2480  20.2728
    20.3213  20.3356  20.5096  20.5103  20.6432  20.6949  20.7648  20.8007
    20.8077  20.9339  20.9434  21.0036  21.0371  21.2128  21.2478  21.2620
    21.3552  21.4373  21.4403  21.5294  21.5807  21.6242  21.6537  21.7687

     the Fermi energy is    -1.7323 ev

!    total energy              =   -2247.82124577 Ry
     Harris-Foulkes estimate   =   -2247.82124577 Ry
     estimated scf accuracy    <          1.5E-09 Ry

     The total energy is the sum of the following terms:

     one-electron contribution =  -22797.50937942 Ry
     hartree contribution      =   11439.50557277 Ry
     xc contribution           =    -565.14393581 Ry
     ewald contribution        =    9674.36611781 Ry
     Hubbard energy            =       0.96131269 Ry
     smearing contrib. (-TS)   =      -0.00093380 Ry

     convergence has been achieved in  13 iterations

     Forces acting on atoms (Ry/au):


     negative rho (up, down):  0.158E+01 0.000E+00
     atom    1 type  1   force =    -0.00766333   -0.00440017   -0.00019148
     atom    2 type  1   force =     0.00010540    0.00426400   -0.00024773
     atom    3 type  2   force =    -0.00046631    0.00219910   -0.00005495
     atom    4 type  2   force =     0.01014995    0.00220033    0.00005287
     atom    5 type  1   force =     0.00111845   -0.00217106    0.00011049
     atom    6 type  1   force =     0.00008092    0.00062173   -0.00008624
     atom    7 type  1   force =     0.00003422    0.00470873    0.00094798
     atom    8 type  1   force =    -0.00395055   -0.00780947    0.00057419
     atom    9 type  2   force =     0.00177115    0.00100079   -0.00031341
     atom   10 type  2   force =    -0.00003109   -0.00185898   -0.00006422
     atom   11 type  1   force =    -0.00000268   -0.00664739   -0.00014489
     atom   12 type  1   force =     0.00007966    0.00766228   -0.00008603
     atom   13 type  1   force =    -0.00108319   -0.00027818   -0.00007447
     atom   14 type  1   force =    -0.00766271   -0.00439968   -0.00019485
     atom   15 type  1   force =     0.00010539    0.00426701   -0.00024308
     atom   16 type  2   force =    -0.00047592    0.00219912   -0.00005498
     atom   17 type  2   force =     0.01014957    0.00220004    0.00004864
     atom   18 type  1   force =     0.00111531   -0.00217115    0.00011039
     atom   19 type  1   force =     0.00007801    0.00062180   -0.00008635
     atom   20 type  1   force =     0.00003419    0.00470859    0.00092282
     atom   21 type  1   force =    -0.00395069   -0.00780959    0.00057110
     atom   22 type  2   force =     0.00177554    0.00100079   -0.00031325
     atom   23 type  2   force =    -0.00003104   -0.00185875   -0.00005294
     atom   24 type  1   force =    -0.00001315   -0.00664741   -0.00014488
     atom   25 type  1   force =     0.00006927    0.00766226   -0.00008606
     atom   26 type  1   force =    -0.00108305   -0.00027803   -0.00004607
     atom   27 type  3   force =     0.00001297    0.00027426    0.00005239
     atom   28 type  3   force =     0.00001300    0.00027094    0.00005456
     atom   29 type  3   force =    -0.00013954    0.00023397   -0.00047955
     atom   30 type  3   force =    -0.00013974    0.00023410   -0.00048001

     Total force =     0.001919     Total SCF correction =     0.000087

     bfgs converged in   9 scf cycles and   8 bfgs steps
     (criteria: energy < 0.10E-03, force < 0.10E-02)

     End of BFGS Geometry Optimization

     Final energy   =   -2247.8212457692 Ry
Begin final coordinates

ATOMIC_POSITIONS (crystal)
O0       0.000000000   0.000000000   0.376810203    0   0   1
O0       0.000000000   0.500000000   0.399569147    0   0   1
Pt1      0.250000000   0.500000000   0.449073734    0   0   1
Pt1      0.000000000   0.000000000   0.451862899    0   0   1
O0       0.250000000   0.810000000   0.441956033    0   0   1
O0       0.250000000   0.190000000   0.459563027    0   0   1
O0       0.000000000   0.500000000   0.495477289    0   0   1
O0       0.000000000   0.000000000   0.529301683    0   0   1
Pt1      0.250000000   0.000000000   0.575847675    0   0   1
Pt1      0.000000000   0.500000000   0.573727048    0   0   1
O0       0.250000000   0.690000000   0.583266756    0   0   1
O0       0.250000000   0.310000000   0.583767560    0   0   1
O0       0.000000000   0.000000000   0.621378837    0   0   1
O0       0.500000000   0.000000000   0.376810753    0   0   1
O0       0.500000000   0.500000000   0.399569072    0   0   1
Pt1      0.750000000   0.500000000   0.449073738    0   0   1
Pt1      0.500000000   0.000000000   0.451863274    0   0   1
O0       0.750000000   0.810000000   0.441956065    0   0   1
O0       0.750000000   0.190000000   0.459563040    0   0   1
O0       0.500000000   0.500000000   0.495478861    0   0   1
O0       0.500000000   0.000000000   0.529301539    0   0   1
Pt1      0.750000000   0.000000000   0.575847670    0   0   1
Pt1      0.500000000   0.500000000   0.573726393    0   0   1
O0       0.750000000   0.690000000   0.583266752    0   0   1
O0       0.750000000   0.310000000   0.583767563    0   0   1
O0       0.500000000   0.000000000   0.621376989    0   0   1
H2      -0.000020097   0.640626320   0.384245326
H2       0.499979863   0.640626538   0.384245212
H2       0.144087403   0.032384655   0.367082690
H2       0.644087323   0.032384578   0.367083173
End final coordinates



     init_run     :    123.39s CPU    128.20s WALL (       1 calls)
     electrons    :  28137.39s CPU  29491.62s WALL (       9 calls)
     update_pot   :    171.61s CPU    174.93s WALL (       8 calls)
     forces       :   1295.57s CPU   1349.60s WALL (       9 calls)

     Called by init_run:
     wfcinit      :     41.74s CPU     45.19s WALL (       1 calls)
     potinit      :      7.67s CPU      7.84s WALL (       1 calls)

     Called by electrons:
     c_bands      :  14709.53s CPU  15228.09s WALL (     131 calls)
     sum_band     :   5775.76s CPU   6008.70s WALL (     131 calls)
     v_of_rho     :    166.36s CPU    181.89s WALL (     134 calls)
     newd         :   7935.26s CPU   8426.04s WALL (     134 calls)
     mix_rho      :     30.85s CPU     31.59s WALL (     131 calls)

     Called by c_bands:
     init_us_2    :     41.38s CPU     41.87s WALL (     870 calls)
     cegterg      :  14508.67s CPU  14958.46s WALL (     393 calls)

     Called by *egterg:
     h_psi        :   8836.95s CPU   9104.92s WALL (    1139 calls)
     s_psi        :    756.67s CPU    766.87s WALL (    1193 calls)
     g_psi        :     16.93s CPU     16.96s WALL (     743 calls)
     cdiaghg      :   1220.23s CPU   1224.32s WALL (    1094 calls)

     Called by h_psi:
     add_vuspsi   :    731.68s CPU    742.40s WALL (    1139 calls)
     vhpsi        :    863.95s CPU    882.47s WALL (    1139 calls)

     General routines
     calbec       :   1857.77s CPU   1885.96s WALL (   10462 calls)
     fft          :    323.84s CPU    472.64s WALL (    2239 calls)
     ffts         :      2.71s CPU      2.98s WALL (     265 calls)
     fftw         :   5125.79s CPU   5402.70s WALL (  743010 calls)
     interpolate  :     25.68s CPU     26.40s WALL (     265 calls)
     davcio       :      0.08s CPU     21.10s WALL (     897 calls)

     Parallel routines
     fft_scatter  :   2296.33s CPU   2710.25s WALL (  745514 calls)
     Hubbard U routines
     new_ns       :    169.24s CPU    178.92s WALL (     131 calls)
     vhpsi        :    863.95s CPU    882.47s WALL (    1139 calls)
     force_hub    :    338.70s CPU    345.08s WALL (       9 calls)

     PWSCF        :     8h24m CPU        8h48m WALL


   This run was terminated on:  16:20:48   6May2014            

=------------------------------------------------------------------------------=
   JOB DONE.
=------------------------------------------------------------------------------=
