
     Program PWSCF v.5.0.2 (svn rev. 9656) starts on  1May2014 at  6:49:53 

     This program is part of the open-source Quantum ESPRESSO suite
     for quantum simulation of materials; please cite
         "P. Giannozzi et al., J. Phys.:Condens. Matter 21 395502 (2009);
          URL http://www.quantum-espresso.org", 
     in publications or presentations arising from this work. More details at
     http://www.quantum-espresso.org/quote.php

     Parallel version (MPI), running on    16 processors
     K-points division:     npool     =       4
     R & G space division:  proc/nbgrp/npool/nimage =       4

     Current dimensions of program PWSCF are:
     Max number of different atomic species (ntypx) = 10
     Max number of k-points (npk) =  40000
     Max angular momentum in pseudopotentials (lmaxx) =  3
     Reading input from pwscf.in
Warning: card &CELL ignored
Warning: card / ignored

     Subspace diagonalization in iterative solution of the eigenvalue problem:
     a serial algorithm will be used


     Parallelization info
     --------------------
     sticks:   dense  smooth     PW     G-vecs:    dense   smooth      PW
     Min        1333     428    119               322637    58444    8739
     Max        1334     429    120               322642    58462    8748
     Sum        5335    1713    477              1290557   233813   34969



     bravais-lattice index     =            0
     lattice parameter (alat)  =      10.1289  a.u.
     unit-cell volume          =    6836.7721 (a.u.)^3
     number of atoms/cell      =           32
     number of atomic types    =            3
     number of electrons       =       239.00
     number of Kohn-Sham states=          358
     kinetic-energy cutoff     =      40.0000  Ry
     charge density cutoff     =     500.0000  Ry
     convergence threshold     =      1.0E-06
     mixing beta               =       0.7000
     number of iterations used =            8  plain     mixing
     Exchange-correlation      = SLA  PW   PBE  PBE ( 1 4 3 4 0)
     EXX-fraction              =        0.00
     nstep                     =           50


     celldm(1)=  10.128932  celldm(2)=   0.000000  celldm(3)=   0.000000
     celldm(4)=   0.000000  celldm(5)=   0.000000  celldm(6)=   0.000000

     crystal axes: (cart. coord. in units of alat)
               a(1) = (   1.000000   0.000000   0.000000 )  
               a(2) = (   0.000000   1.306037   0.000000 )  
               a(3) = (   0.000000   0.000000   5.037380 )  

     reciprocal axes: (cart. coord. in units 2 pi/alat)
               b(1) = (  1.000000  0.000000  0.000000 )  
               b(2) = (  0.000000  0.765675  0.000000 )  
               b(3) = (  0.000000  0.000000  0.198516 )  


     PseudoPot. # 1 for O  read from file:
     /home/camp/zhonxu/pseudo/o_pbe_v1.01.uspp.F.UPF
     MD5 check sum: 2bcb18d16ea4b960afae9ec6d52f22d2
     Pseudo is Ultrasoft + core correction, Zval =  6.0
     Generated by new atomic code, or converted to UPF format
     Using radial grid of  737 points,  5 beta functions with: 
                l(1) =   0
                l(2) =   0
                l(3) =   1
                l(4) =   1
                l(5) =   2
     Q(r) pseudized with  8 coefficients,  rinner =    0.900   0.900   0.900
                                                       0.900   0.900

     PseudoPot. # 2 for Re read from file:
     /home/camp/zhonxu/pseudo/re_pbe_v1.uspp.F.UPF
     MD5 check sum: 6f5a5dcaf9c96c20d0ffdde0de57afc6
     Pseudo is Ultrasoft + core correction, Zval = 15.0
     Generated by new atomic code, or converted to UPF format
     Using radial grid of  981 points,  8 beta functions with: 
                l(1) =   0
                l(2) =   0
                l(3) =   1
                l(4) =   1
                l(5) =   2
                l(6) =   2
                l(7) =   3
                l(8) =   3
     Q(r) pseudized with  8 coefficients,  rinner =    1.000   1.000   1.000
                                                       1.000   1.000   1.000
                                                       1.000

     PseudoPot. # 3 for H  read from file:
     /home/camp/zhonxu/pseudo/h_pbe_v1.uspp.F.UPF
     MD5 check sum: 3408e3ff4ec8b0a4e358431e7e038a48
     Pseudo is Ultrasoft, Zval =  1.0
     Generated by new atomic code, or converted to UPF format
     Using radial grid of  615 points,  2 beta functions with: 
                l(1) =   0
                l(2) =   0
     Q(r) pseudized with  8 coefficients,  rinner =    0.700

     atomic species   valence    mass     pseudopotential
        O0             6.00    15.99940     O ( 1.00)
        Re1           15.00   186.20700     Re( 1.00)
        H2             1.00     1.00794     H ( 1.00)


     Simplified LDA+U calculation (l_max = 2) with parameters (eV):
     atomic species    L          U    alpha       J0     beta
        Re1            2     1.5000   0.0000   0.0000   0.0000



     No symmetry found



   Cartesian axes

     site n.     atom                  positions (alat units)
         1           O0  tau(   1) = (   0.0000000   0.0000000   1.8669538  )
         2           O0  tau(   2) = (   0.0000000   0.6530184   1.9246318  )
         3           Re1 tau(   3) = (   0.2500000   0.6530184   2.2252626  )
         4           Re1 tau(   4) = (   0.0000000   0.0000000   2.2335239  )
         5           O0  tau(   5) = (   0.2500000   1.0187087   2.2252626  )
         6           O0  tau(   6) = (   0.2500000   0.2873281   2.2245574  )
         7           O0  tau(   7) = (   0.0000000   0.6530184   2.5039809  )
         8           O0  tau(   8) = (   0.0000000   0.0000000   2.5944019  )
         9           Re1 tau(   9) = (   0.2500000   0.0000000   2.8956372  )
        10           Re1 tau(  10) = (   0.0000000   0.6530184   2.8532728  )
        11           O0  tau(  11) = (   0.2500000   0.9403465   2.8863684  )
        12           O0  tau(  12) = (   0.2500000   0.3656903   2.8866706  )
        13           O0  tau(  13) = (   0.0000000   0.0000000   3.1589410  )
        14           O0  tau(  14) = (   0.5000000   0.0000000   1.8671553  )
        15           O0  tau(  15) = (   0.5000000   0.6530184   1.9260926  )
        16           Re1 tau(  16) = (   0.7500000   0.6530184   2.2254138  )
        17           Re1 tau(  17) = (   0.5000000   0.0000000   2.2327683  )
        18           O0  tau(  18) = (   0.7500000   1.0187087   2.2250108  )
        19           O0  tau(  19) = (   0.7500000   0.2873281   2.2249100  )
        20           O0  tau(  20) = (   0.5000000   0.6530184   2.5136527  )
        21           O0  tau(  21) = (   0.5000000   0.0000000   2.5937470  )
        22           Re1 tau(  22) = (   0.7500000   0.0000000   2.8949319  )
        23           Re1 tau(  23) = (   0.5000000   0.6530184   2.8846557  )
        24           O0  tau(  24) = (   0.7500000   0.9403465   2.8822881  )
        25           O0  tau(  25) = (   0.7500000   0.3656903   2.8822881  )
        26           O0  tau(  26) = (   0.5000000   0.0000000   3.1556667  )
        27           H2  tau(  27) = (  -0.0003600   0.8163644   1.8395505  )
        28           H2  tau(  28) = (   0.4996200   0.8138568   1.8363769  )
        29           H2  tau(  29) = (   0.1695000   0.0302217   1.7958260  )
        30           H2  tau(  30) = (   0.6704500   0.0285761   1.7967327  )
        31           O0  tau(  31) = (   0.5277600   0.6525874   3.2436194  )
        32           H2  tau(  32) = (   0.3788200   0.6519344   3.3501096  )

     number of k points=    10  Methfessel-Paxton smearing, width (Ry)=  0.0100
                       cart. coord. in units 2pi/alat
        k(    1) = (   0.0000000   0.0000000   0.0000000), wk =   0.1250000
        k(    2) = (   0.0000000   0.1914188   0.0000000), wk =   0.2500000
        k(    3) = (   0.0000000  -0.3828376   0.0000000), wk =   0.1250000
        k(    4) = (   0.2500000   0.0000000   0.0000000), wk =   0.2500000
        k(    5) = (   0.2500000   0.1914188   0.0000000), wk =   0.2500000
        k(    6) = (   0.2500000  -0.3828376   0.0000000), wk =   0.2500000
        k(    7) = (  -0.5000000   0.0000000   0.0000000), wk =   0.1250000
        k(    8) = (  -0.5000000   0.1914188   0.0000000), wk =   0.2500000
        k(    9) = (  -0.5000000  -0.3828376   0.0000000), wk =   0.1250000
        k(   10) = (  -0.2500000   0.1914188   0.0000000), wk =   0.2500000

     Dense  grid:  1290557 G-vectors     FFT dimensions: (  75,  96, 375)

     Smooth grid:   233813 G-vectors     FFT dimensions: (  45,  54, 216)

     Largest allocated arrays     est. size (Mb)     dimensions
        Kohn-Sham Wavefunctions        40.23 Mb     (   7365,  358)
        Atomic wavefunctions           20.79 Mb     (   7365,  185)
        NL pseudopotentials            57.65 Mb     (   7365,  513)
        Each V/rho on FFT grid         10.33 Mb     ( 676800)
        Each G-vector array             2.46 Mb     ( 322642)
        G-vector shells                 1.07 Mb     ( 139625)
     Largest temporary arrays     est. size (Mb)     dimensions
        Auxiliary wavefunctions       160.93 Mb     (   7365, 1432)
        Each subspace H/S matrix       31.29 Mb     (1432,1432)
        Each <psi_i|beta_j> matrix      2.80 Mb     (    513,  358)
        Arrays for rho mixing          82.62 Mb     ( 676800,   8)

     Check: negative/imaginary core charge=   -0.000003    0.000000

     Initial potential from superposition of free atoms
     Check: negative starting charge=   -0.237247

     starting charge  234.99957, renormalised to  239.00000

     negative rho (up, down):  0.241E+00 0.000E+00
     Number of +U iterations with fixed ns =  0
     Starting occupations:
 --- enter write_ns ---
 LDA+U parameters:
U( 2)     =  1.50000000
alpha( 2) =  0.00000000
atom    3   Tr[ns(na)] =   5.00000
    eigenvalues: 
  0.500  0.500  0.500  0.500  0.500
    eigenvectors:
  1.000  0.000  0.000  0.000  0.000
  0.000  1.000  0.000  0.000  0.000
  0.000  0.000  1.000  0.000  0.000
  0.000  0.000  0.000  1.000  0.000
  0.000  0.000  0.000  0.000  1.000
    occupations:
  0.500  0.000  0.000  0.000  0.000
  0.000  0.500  0.000  0.000  0.000
  0.000  0.000  0.500  0.000  0.000
  0.000  0.000  0.000  0.500  0.000
  0.000  0.000  0.000  0.000  0.500
atom    4   Tr[ns(na)] =   5.00000
    eigenvalues: 
  0.500  0.500  0.500  0.500  0.500
    eigenvectors:
  1.000  0.000  0.000  0.000  0.000
  0.000  1.000  0.000  0.000  0.000
  0.000  0.000  1.000  0.000  0.000
  0.000  0.000  0.000  1.000  0.000
  0.000  0.000  0.000  0.000  1.000
    occupations:
  0.500  0.000  0.000  0.000  0.000
  0.000  0.500  0.000  0.000  0.000
  0.000  0.000  0.500  0.000  0.000
  0.000  0.000  0.000  0.500  0.000
  0.000  0.000  0.000  0.000  0.500
atom    9   Tr[ns(na)] =   5.00000
    eigenvalues: 
  0.500  0.500  0.500  0.500  0.500
    eigenvectors:
  1.000  0.000  0.000  0.000  0.000
  0.000  1.000  0.000  0.000  0.000
  0.000  0.000  1.000  0.000  0.000
  0.000  0.000  0.000  1.000  0.000
  0.000  0.000  0.000  0.000  1.000
    occupations:
  0.500  0.000  0.000  0.000  0.000
  0.000  0.500  0.000  0.000  0.000
  0.000  0.000  0.500  0.000  0.000
  0.000  0.000  0.000  0.500  0.000
  0.000  0.000  0.000  0.000  0.500
atom   10   Tr[ns(na)] =   5.00000
    eigenvalues: 
  0.500  0.500  0.500  0.500  0.500
    eigenvectors:
  1.000  0.000  0.000  0.000  0.000
  0.000  1.000  0.000  0.000  0.000
  0.000  0.000  1.000  0.000  0.000
  0.000  0.000  0.000  1.000  0.000
  0.000  0.000  0.000  0.000  1.000
    occupations:
  0.500  0.000  0.000  0.000  0.000
  0.000  0.500  0.000  0.000  0.000
  0.000  0.000  0.500  0.000  0.000
  0.000  0.000  0.000  0.500  0.000
  0.000  0.000  0.000  0.000  0.500
atom   16   Tr[ns(na)] =   5.00000
    eigenvalues: 
  0.500  0.500  0.500  0.500  0.500
    eigenvectors:
  1.000  0.000  0.000  0.000  0.000
  0.000  1.000  0.000  0.000  0.000
  0.000  0.000  1.000  0.000  0.000
  0.000  0.000  0.000  1.000  0.000
  0.000  0.000  0.000  0.000  1.000
    occupations:
  0.500  0.000  0.000  0.000  0.000
  0.000  0.500  0.000  0.000  0.000
  0.000  0.000  0.500  0.000  0.000
  0.000  0.000  0.000  0.500  0.000
  0.000  0.000  0.000  0.000  0.500
atom   17   Tr[ns(na)] =   5.00000
    eigenvalues: 
  0.500  0.500  0.500  0.500  0.500
    eigenvectors:
  1.000  0.000  0.000  0.000  0.000
  0.000  1.000  0.000  0.000  0.000
  0.000  0.000  1.000  0.000  0.000
  0.000  0.000  0.000  1.000  0.000
  0.000  0.000  0.000  0.000  1.000
    occupations:
  0.500  0.000  0.000  0.000  0.000
  0.000  0.500  0.000  0.000  0.000
  0.000  0.000  0.500  0.000  0.000
  0.000  0.000  0.000  0.500  0.000
  0.000  0.000  0.000  0.000  0.500
atom   22   Tr[ns(na)] =   5.00000
    eigenvalues: 
  0.500  0.500  0.500  0.500  0.500
    eigenvectors:
  1.000  0.000  0.000  0.000  0.000
  0.000  1.000  0.000  0.000  0.000
  0.000  0.000  1.000  0.000  0.000
  0.000  0.000  0.000  1.000  0.000
  0.000  0.000  0.000  0.000  1.000
    occupations:
  0.500  0.000  0.000  0.000  0.000
  0.000  0.500  0.000  0.000  0.000
  0.000  0.000  0.500  0.000  0.000
  0.000  0.000  0.000  0.500  0.000
  0.000  0.000  0.000  0.000  0.500
atom   23   Tr[ns(na)] =   5.00000
    eigenvalues: 
  0.500  0.500  0.500  0.500  0.500
    eigenvectors:
  1.000  0.000  0.000  0.000  0.000
  0.000  1.000  0.000  0.000  0.000
  0.000  0.000  1.000  0.000  0.000
  0.000  0.000  0.000  1.000  0.000
  0.000  0.000  0.000  0.000  1.000
    occupations:
  0.500  0.000  0.000  0.000  0.000
  0.000  0.500  0.000  0.000  0.000
  0.000  0.000  0.500  0.000  0.000
  0.000  0.000  0.000  0.500  0.000
  0.000  0.000  0.000  0.000  0.500
N of occupied +U levels =  40.0000000
 --- exit write_ns ---
 Atomic wfc used for LDA+U Projector are NOT orthogonalized
     Starting wfc are  185 randomized atomic wfcs

     total cpu time spent up to now is      145.0 secs

     per-process dynamical memory:   420.5 Mb

     Self-consistent Calculation

     iteration #  1     ecut=    40.00 Ry     beta=0.70
     Davidson diagonalization with overlap
     ethr =  1.00E-02,  avg # of iterations =  5.7
 --- enter write_ns ---
 LDA+U parameters:
U( 2)     =  1.50000000
alpha( 2) =  0.00000000
atom    3   Tr[ns(na)] =   5.29603
    eigenvalues: 
  0.377  0.461  0.495  0.599  0.716
    eigenvectors:
  0.005  0.001  0.464  0.000  0.529
  0.000  0.996  0.003  0.000  0.000
  0.993  0.000  0.001  0.002  0.003
  0.000  0.002  0.531  0.000  0.467
  0.002  0.000  0.000  0.997  0.000
    occupations:
  0.611  0.001  0.017 -0.110  0.003
  0.001  0.461  0.000  0.002 -0.002
  0.017  0.000  0.379 -0.010 -0.010
 -0.110  0.002 -0.010  0.598 -0.002
  0.003 -0.002 -0.010 -0.002  0.598
atom    4   Tr[ns(na)] =   5.18308
    eigenvalues: 
  0.360  0.458  0.512  0.555  0.706
    eigenvectors:
  0.000  0.000  0.948  0.008  0.044
  0.000  0.000  0.008  0.992  0.000
  1.000  0.000  0.000  0.000  0.000
  0.000  0.000  0.044  0.000  0.956
  0.000  1.000  0.000  0.000  0.000
    occupations:
  0.521  0.004  0.001 -0.040 -0.000
  0.004  0.555  0.003  0.000 -0.000
  0.001  0.003  0.360 -0.000  0.000
 -0.040  0.000 -0.000  0.698  0.000
 -0.000 -0.000  0.000  0.000  0.458
atom    9   Tr[ns(na)] =   6.09056
    eigenvalues: 
  0.509  0.512  0.567  0.727  0.730
    eigenvectors:
  0.287  0.083  0.000  0.018  0.612
  0.233  0.767  0.000  0.000  0.000
  0.000  0.000  0.996  0.004  0.000
  0.481  0.149  0.000  0.010  0.359
  0.000  0.000  0.004  0.968  0.028
    occupations:
  0.649 -0.002 -0.000 -0.107  0.000
 -0.002  0.511 -0.000 -0.000  0.000
 -0.000 -0.000  0.567 -0.000 -0.010
 -0.107 -0.000 -0.000  0.591 -0.000
  0.000  0.000 -0.010 -0.000  0.727
atom   10   Tr[ns(na)] =   6.45600
    eigenvalues: 
  0.439  0.467  0.746  0.775  0.800
    eigenvectors:
  0.977  0.000  0.023  0.000  0.000
  0.000  0.000  0.000  0.000  1.000
  0.000  0.000  0.000  1.000  0.000
  0.023  0.000  0.977  0.000  0.000
  0.000  1.000  0.000  0.000  0.000
    occupations:
  0.446 -0.004  0.000 -0.046  0.000
 -0.004  0.800  0.000 -0.001  0.000
  0.000  0.000  0.775 -0.000  0.003
 -0.046 -0.001 -0.000  0.739 -0.000
  0.000  0.000  0.003 -0.000  0.467
atom   16   Tr[ns(na)] =   5.29706
    eigenvalues: 
  0.378  0.461  0.495  0.599  0.716
    eigenvectors:
  0.005  0.001  0.466  0.000  0.528
  0.000  0.996  0.004  0.000  0.000
  0.993  0.000  0.001  0.002  0.003
  0.000  0.002  0.529  0.000  0.468
  0.002  0.000  0.000  0.997  0.000
    occupations:
  0.611 -0.000  0.017 -0.110 -0.002
 -0.000  0.461 -0.000 -0.002 -0.002
  0.017 -0.000  0.380 -0.010  0.010
 -0.110 -0.002 -0.010  0.598  0.002
 -0.002 -0.002  0.010  0.002  0.599
atom   17   Tr[ns(na)] =   5.14714
    eigenvalues: 
  0.355  0.457  0.513  0.542  0.707
    eigenvectors:
  0.000  0.000  0.936  0.019  0.044
  0.000  0.000  0.020  0.979  0.000
  1.000  0.000  0.000  0.000  0.000
  0.000  0.000  0.043  0.001  0.956
  0.000  1.000  0.000  0.000  0.000
    occupations:
  0.522  0.004  0.001 -0.040 -0.000
  0.004  0.541  0.002  0.000 -0.000
  0.001  0.002  0.355 -0.001  0.001
 -0.040  0.000 -0.001  0.698  0.000
 -0.000 -0.000  0.001  0.000  0.457
atom   22   Tr[ns(na)] =   6.08420
    eigenvalues: 
  0.508  0.512  0.564  0.728  0.731
    eigenvectors:
  0.276  0.094  0.000  0.013  0.618
  0.261  0.739  0.000  0.000  0.000
  0.000  0.000  0.997  0.003  0.000
  0.463  0.168  0.000  0.008  0.362
  0.000  0.000  0.003  0.977  0.020
    occupations:
  0.649  0.002  0.000 -0.107  0.000
  0.002  0.511 -0.000  0.000 -0.000
  0.000 -0.000  0.564 -0.000  0.009
 -0.107  0.000 -0.000  0.591 -0.000
  0.000 -0.000  0.009 -0.000  0.727
atom   23   Tr[ns(na)] =   6.19079
    eigenvalues: 
  0.471  0.509  0.601  0.741  0.773
    eigenvectors:
  0.000  0.960  0.000  0.039  0.000
  0.000  0.001  0.000  0.000  0.999
  0.000  0.000  1.000  0.000  0.000
  0.000  0.039  0.000  0.961  0.000
  1.000  0.000  0.000  0.000  0.000
    occupations:
  0.518  0.006 -0.001 -0.045  0.000
  0.006  0.773  0.000  0.001  0.000
 -0.001  0.000  0.601  0.000 -0.001
 -0.045  0.001  0.000  0.732  0.000
  0.000  0.000 -0.001  0.000  0.471
N of occupied +U levels =  45.7448720
 --- exit write_ns ---

     negative rho (up, down):  0.287E+00 0.000E+00

     total cpu time spent up to now is      554.3 secs

     total energy              =   -2168.18857810 Ry
     Harris-Foulkes estimate   =   -2177.11664582 Ry
     estimated scf accuracy    <      10.86107951 Ry

     iteration #  2     ecut=    40.00 Ry     beta=0.70
     Davidson diagonalization with overlap
     ethr =  4.54E-03,  avg # of iterations =  5.1

     negative rho (up, down):  0.284E+00 0.000E+00

     total cpu time spent up to now is      910.6 secs

     total energy              =   -2107.06577936 Ry
     Harris-Foulkes estimate   =   -2249.47123298 Ry
     estimated scf accuracy    <    2004.13435945 Ry

     iteration #  3     ecut=    40.00 Ry     beta=0.70
     Davidson diagonalization with overlap
     ethr =  4.54E-03,  avg # of iterations =  5.0

     negative rho (up, down):  0.241E+00 0.000E+00

     total cpu time spent up to now is     1293.9 secs

     total energy              =   -2165.99278114 Ry
     Harris-Foulkes estimate   =   -2183.40805985 Ry
     estimated scf accuracy    <     155.14505848 Ry

     iteration #  4     ecut=    40.00 Ry     beta=0.70
     Davidson diagonalization with overlap
     ethr =  4.54E-03,  avg # of iterations =  3.1

     negative rho (up, down):  0.235E+00 0.000E+00

     total cpu time spent up to now is     1548.0 secs

     total energy              =   -2174.67376732 Ry
     Harris-Foulkes estimate   =   -2176.57948103 Ry
     estimated scf accuracy    <      10.12165712 Ry

     iteration #  5     ecut=    40.00 Ry     beta=0.70
     Davidson diagonalization with overlap
     ethr =  4.24E-03,  avg # of iterations =  1.1

     negative rho (up, down):  0.236E+00 0.000E+00

     total cpu time spent up to now is     1777.3 secs

     total energy              =   -2175.52759056 Ry
     Harris-Foulkes estimate   =   -2175.81983277 Ry
     estimated scf accuracy    <       2.65380526 Ry

     iteration #  6     ecut=    40.00 Ry     beta=0.70
     Davidson diagonalization with overlap
     ethr =  1.11E-03,  avg # of iterations =  3.0

     negative rho (up, down):  0.237E+00 0.000E+00

     total cpu time spent up to now is     2018.4 secs

     total energy              =   -2175.57169918 Ry
     Harris-Foulkes estimate   =   -2175.70629608 Ry
     estimated scf accuracy    <       0.97790135 Ry

     iteration #  7     ecut=    40.00 Ry     beta=0.70
     Davidson diagonalization with overlap
     ethr =  4.09E-04,  avg # of iterations =  3.7

     negative rho (up, down):  0.239E+00 0.000E+00

     total cpu time spent up to now is     2256.3 secs

     total energy              =   -2175.57123872 Ry
     Harris-Foulkes estimate   =   -2175.65039891 Ry
     estimated scf accuracy    <       0.51088193 Ry

     iteration #  8     ecut=    40.00 Ry     beta=0.70
     Davidson diagonalization with overlap
     ethr =  2.14E-04,  avg # of iterations =  3.9

     negative rho (up, down):  0.240E+00 0.000E+00

     total cpu time spent up to now is     2499.3 secs

     total energy              =   -2175.52622822 Ry
     Harris-Foulkes estimate   =   -2175.68746747 Ry
     estimated scf accuracy    <       1.37106803 Ry

     iteration #  9     ecut=    40.00 Ry     beta=0.70
     Davidson diagonalization with overlap
     ethr =  2.14E-04,  avg # of iterations =  1.1

     negative rho (up, down):  0.242E+00 0.000E+00

     total cpu time spent up to now is     2724.1 secs

     total energy              =   -2175.56516350 Ry
     Harris-Foulkes estimate   =   -2175.63538428 Ry
     estimated scf accuracy    <       0.74474477 Ry

     iteration # 10     ecut=    40.00 Ry     beta=0.70
     Davidson diagonalization with overlap
     ethr =  2.14E-04,  avg # of iterations =  3.8

     negative rho (up, down):  0.243E+00 0.000E+00

     total cpu time spent up to now is     2964.1 secs

     total energy              =   -2175.57391208 Ry
     Harris-Foulkes estimate   =   -2175.60341036 Ry
     estimated scf accuracy    <       0.14119073 Ry

     iteration # 11     ecut=    40.00 Ry     beta=0.70
     Davidson diagonalization with overlap
     ethr =  5.91E-05,  avg # of iterations =  5.8

     negative rho (up, down):  0.244E+00 0.000E+00

     total cpu time spent up to now is     3218.9 secs

     total energy              =   -2175.58052191 Ry
     Harris-Foulkes estimate   =   -2175.59053477 Ry
     estimated scf accuracy    <       0.04634237 Ry

     iteration # 12     ecut=    40.00 Ry     beta=0.70
     Davidson diagonalization with overlap
     ethr =  1.94E-05,  avg # of iterations =  3.4

     negative rho (up, down):  0.244E+00 0.000E+00

     total cpu time spent up to now is     3458.6 secs

     total energy              =   -2175.58305786 Ry
     Harris-Foulkes estimate   =   -2175.59209323 Ry
     estimated scf accuracy    <       0.12128381 Ry

     iteration # 13     ecut=    40.00 Ry     beta=0.70
     Davidson diagonalization with overlap
     ethr =  1.94E-05,  avg # of iterations =  1.0

     negative rho (up, down):  0.244E+00 0.000E+00

     total cpu time spent up to now is     3687.1 secs

     total energy              =   -2175.58597024 Ry
     Harris-Foulkes estimate   =   -2175.58720368 Ry
     estimated scf accuracy    <       0.00730780 Ry

     iteration # 14     ecut=    40.00 Ry     beta=0.70
     Davidson diagonalization with overlap
     ethr =  3.06E-06,  avg # of iterations =  5.3

     negative rho (up, down):  0.245E+00 0.000E+00

     total cpu time spent up to now is     3942.3 secs

     total energy              =   -2175.58567049 Ry
     Harris-Foulkes estimate   =   -2175.58752422 Ry
     estimated scf accuracy    <       0.02793824 Ry

     iteration # 15     ecut=    40.00 Ry     beta=0.70
     Davidson diagonalization with overlap
     ethr =  3.06E-06,  avg # of iterations =  5.0

     negative rho (up, down):  0.245E+00 0.000E+00

     total cpu time spent up to now is     4199.3 secs

     total energy              =   -2175.58607632 Ry
     Harris-Foulkes estimate   =   -2175.58733475 Ry
     estimated scf accuracy    <       0.00803738 Ry

     iteration # 16     ecut=    40.00 Ry     beta=0.70
     Davidson diagonalization with overlap
     ethr =  3.06E-06,  avg # of iterations =  3.5

     negative rho (up, down):  0.245E+00 0.000E+00

     total cpu time spent up to now is     4438.8 secs

     total energy              =   -2175.58642157 Ry
     Harris-Foulkes estimate   =   -2175.58696572 Ry
     estimated scf accuracy    <       0.00264549 Ry

     iteration # 17     ecut=    40.00 Ry     beta=0.70
     Davidson diagonalization with overlap
     ethr =  1.11E-06,  avg # of iterations =  1.6

     negative rho (up, down):  0.245E+00 0.000E+00

     total cpu time spent up to now is     4668.8 secs

     total energy              =   -2175.58663376 Ry
     Harris-Foulkes estimate   =   -2175.58683382 Ry
     estimated scf accuracy    <       0.00182392 Ry

     iteration # 18     ecut=    40.00 Ry     beta=0.70
     Davidson diagonalization with overlap
     ethr =  7.63E-07,  avg # of iterations =  1.0

     negative rho (up, down):  0.245E+00 0.000E+00

     total cpu time spent up to now is     4903.3 secs

     total energy              =   -2175.58671216 Ry
     Harris-Foulkes estimate   =   -2175.58677362 Ry
     estimated scf accuracy    <       0.00035187 Ry

     iteration # 19     ecut=    40.00 Ry     beta=0.70
     Davidson diagonalization with overlap
     ethr =  1.47E-07,  avg # of iterations =  1.0

     negative rho (up, down):  0.245E+00 0.000E+00

     total cpu time spent up to now is     5126.7 secs

     total energy              =   -2175.58673855 Ry
     Harris-Foulkes estimate   =   -2175.58674706 Ry
     estimated scf accuracy    <       0.00005746 Ry

     iteration # 20     ecut=    40.00 Ry     beta=0.70
     Davidson diagonalization with overlap
     ethr =  2.40E-08,  avg # of iterations =  1.0

     negative rho (up, down):  0.245E+00 0.000E+00

     total cpu time spent up to now is     5365.2 secs

     total energy              =   -2175.58673807 Ry
     Harris-Foulkes estimate   =   -2175.58674840 Ry
     estimated scf accuracy    <       0.00010119 Ry

     iteration # 21     ecut=    40.00 Ry     beta=0.70
     Davidson diagonalization with overlap
     ethr =  2.40E-08,  avg # of iterations =  1.0

     negative rho (up, down):  0.245E+00 0.000E+00

     total cpu time spent up to now is     5591.0 secs

     total energy              =   -2175.58674200 Ry
     Harris-Foulkes estimate   =   -2175.58674456 Ry
     estimated scf accuracy    <       0.00001509 Ry

     iteration # 22     ecut=    40.00 Ry     beta=0.70
     Davidson diagonalization with overlap
     ethr =  6.32E-09,  avg # of iterations =  1.0

     negative rho (up, down):  0.245E+00 0.000E+00

     total cpu time spent up to now is     5820.1 secs

     total energy              =   -2175.58674193 Ry
     Harris-Foulkes estimate   =   -2175.58674418 Ry
     estimated scf accuracy    <       0.00000880 Ry

     iteration # 23     ecut=    40.00 Ry     beta=0.70
     Davidson diagonalization with overlap
     ethr =  3.68E-09,  avg # of iterations =  2.0

     negative rho (up, down):  0.245E+00 0.000E+00

     total cpu time spent up to now is     6055.7 secs

     total energy              =   -2175.58673949 Ry
     Harris-Foulkes estimate   =   -2175.58674745 Ry
     estimated scf accuracy    <       0.00004993 Ry

     iteration # 24     ecut=    40.00 Ry     beta=0.70
     Davidson diagonalization with overlap
     ethr =  3.68E-09,  avg # of iterations =  1.1

     negative rho (up, down):  0.245E+00 0.000E+00

     total cpu time spent up to now is     6285.6 secs

     total energy              =   -2175.58674299 Ry
     Harris-Foulkes estimate   =   -2175.58674385 Ry
     estimated scf accuracy    <       0.00000787 Ry

     iteration # 25     ecut=    40.00 Ry     beta=0.70
     Davidson diagonalization with overlap
     ethr =  3.29E-09,  avg # of iterations =  1.0

     negative rho (up, down):  0.245E+00 0.000E+00

     total cpu time spent up to now is     6514.2 secs

     total energy              =   -2175.58674334 Ry
     Harris-Foulkes estimate   =   -2175.58674364 Ry
     estimated scf accuracy    <       0.00000609 Ry

     iteration # 26     ecut=    40.00 Ry     beta=0.70
     Davidson diagonalization with overlap
     ethr =  2.55E-09,  avg # of iterations =  1.0

     negative rho (up, down):  0.245E+00 0.000E+00

     total cpu time spent up to now is     6746.9 secs

     End of self-consistent calculation
 --- enter write_ns ---
 LDA+U parameters:
U( 2)     =  1.50000000
alpha( 2) =  0.00000000
atom    3   Tr[ns(na)] =   6.54750
    eigenvalues: 
  0.541  0.570  0.642  0.760  0.761
    eigenvectors:
  0.001  0.371  0.006  0.508  0.114
  0.998  0.001  0.000  0.000  0.002
  0.000  0.000  0.989  0.010  0.001
  0.000  0.628  0.005  0.300  0.067
  0.001  0.000  0.000  0.182  0.816
    occupations:
  0.689 -0.004  0.010 -0.091  0.000
 -0.004  0.542  0.001  0.002 -0.008
  0.010  0.001  0.643 -0.007 -0.002
 -0.091  0.002 -0.007  0.640 -0.000
  0.000 -0.008 -0.002 -0.000  0.761
atom    4   Tr[ns(na)] =   6.51735
    eigenvalues: 
  0.564  0.601  0.623  0.700  0.770
    eigenvectors:
  0.000  0.982  0.000  0.001  0.017
  0.000  0.001  0.006  0.993  0.000
  0.000  0.000  0.993  0.006  0.000
  0.000  0.017  0.000  0.000  0.983
  1.000  0.000  0.000  0.000  0.000
    occupations:
  0.604  0.003  0.000 -0.022  0.000
  0.003  0.700  0.006 -0.000 -0.001
  0.000  0.006  0.623  0.001 -0.000
 -0.022 -0.000  0.001  0.767 -0.000
  0.000 -0.001 -0.000 -0.000  0.564
atom    9   Tr[ns(na)] =   6.51952
    eigenvalues: 
  0.593  0.606  0.618  0.701  0.743
    eigenvectors:
  0.266  0.000  0.000  0.000  0.733
  0.000  1.000  0.000  0.000  0.000
  0.000  0.000  0.992  0.008  0.000
  0.733  0.000  0.000  0.000  0.266
  0.000  0.000  0.008  0.992  0.000
    occupations:
  0.703 -0.000 -0.001 -0.066  0.001
 -0.000  0.606  0.000  0.001  0.000
 -0.001  0.000  0.618  0.000 -0.007
 -0.066  0.001  0.000  0.633 -0.001
  0.001  0.000 -0.007 -0.001  0.700
atom   10   Tr[ns(na)] =   6.48795
    eigenvalues: 
  0.493  0.539  0.661  0.750  0.800
    eigenvectors:
  0.996  0.000  0.000  0.003  0.001
  0.001  0.000  0.000  0.000  0.999
  0.000  0.000  1.000  0.000  0.000
  0.003  0.000  0.000  0.997  0.000
  0.000  1.000  0.000  0.000  0.000
    occupations:
  0.494 -0.007  0.000 -0.015 -0.000
 -0.007  0.800  0.000 -0.001  0.001
  0.000  0.000  0.661 -0.000  0.001
 -0.015 -0.001 -0.000  0.749 -0.000
 -0.000  0.001  0.001 -0.000  0.539
atom   16   Tr[ns(na)] =   6.54759
    eigenvalues: 
  0.541  0.570  0.644  0.759  0.760
    eigenvectors:
  0.001  0.373  0.006  0.381  0.240
  0.997  0.001  0.000  0.000  0.002
  0.000  0.000  0.989  0.008  0.002
  0.000  0.626  0.005  0.226  0.142
  0.001  0.000  0.000  0.384  0.614
    occupations:
  0.688  0.004  0.010 -0.091 -0.000
  0.004  0.541 -0.000 -0.002 -0.007
  0.010 -0.000  0.645 -0.007  0.002
 -0.091 -0.002 -0.007  0.640  0.000
 -0.000 -0.007  0.002  0.000  0.760
atom   17   Tr[ns(na)] =   6.50983
    eigenvalues: 
  0.565  0.604  0.614  0.698  0.774
    eigenvectors:
  0.000  0.983  0.000  0.001  0.016
  0.000  0.001  0.005  0.995  0.000
  0.000  0.000  0.995  0.004  0.000
  0.000  0.016  0.000  0.000  0.984
  1.000  0.000  0.000  0.000  0.000
    occupations:
  0.607  0.003  0.000 -0.021  0.000
  0.003  0.698  0.006 -0.000 -0.001
  0.000  0.006  0.614  0.001 -0.000
 -0.021 -0.000  0.001  0.772 -0.000
  0.000 -0.001 -0.000 -0.000  0.565
atom   22   Tr[ns(na)] =   6.51753
    eigenvalues: 
  0.593  0.605  0.615  0.700  0.745
    eigenvectors:
  0.267  0.000  0.000  0.002  0.731
  0.000  0.999  0.000  0.000  0.000
  0.000  0.000  0.995  0.004  0.000
  0.732  0.000  0.000  0.001  0.267
  0.000  0.000  0.004  0.993  0.002
    occupations:
  0.704  0.001 -0.001 -0.067  0.002
  0.001  0.605  0.000 -0.000  0.000
 -0.001  0.000  0.616  0.000  0.006
 -0.067 -0.000  0.000  0.634 -0.001
  0.002  0.000  0.006 -0.001  0.700
atom   23   Tr[ns(na)] =   6.51446
    eigenvalues: 
  0.557  0.563  0.594  0.765  0.779
    eigenvectors:
  0.000  0.000  0.991  0.002  0.007
  0.000  0.000  0.001  0.996  0.003
  0.027  0.972  0.000  0.000  0.000
  0.000  0.000  0.007  0.003  0.990
  0.973  0.027  0.000  0.000  0.000
    occupations:
  0.595  0.006 -0.001 -0.015  0.000
  0.006  0.765  0.000  0.001  0.001
 -0.001  0.000  0.563  0.001 -0.001
 -0.015  0.001  0.001  0.777 -0.000
  0.000  0.001 -0.001 -0.000  0.557
N of occupied +U levels =  52.1617351
 --- exit write_ns ---

          k = 0.0000 0.0000 0.0000 ( 29221 PWs)   bands (ev):

   -81.3564 -81.2606 -81.1417 -81.1352 -81.0848 -80.8511 -80.7954 -80.7798
   -43.5469 -43.4115 -43.2619 -43.2602 -43.1730 -43.1437 -43.1360 -43.1080
   -43.1004 -43.0678 -43.0490 -43.0260 -42.9719 -42.8620 -42.8228 -42.7652
   -42.7550 -42.7252 -42.7213 -42.6728 -42.6705 -42.5155 -42.2472 -42.1857
   -21.0102 -20.5307 -20.4685 -20.3270 -20.0687 -19.8576 -19.5367 -19.5212
   -19.4853 -19.4445 -19.4375 -19.2739 -19.2265 -19.1783 -19.1211 -19.0804
   -18.7645 -18.2905 -17.9303  -9.5440  -9.4003  -9.2036  -8.7655  -8.5476
    -8.2668  -8.2651  -7.9942  -7.9159  -7.8339  -7.7129  -7.6432  -7.4949
    -7.3620  -7.2016  -7.1737  -6.9784  -6.9544  -6.8504  -6.7938  -6.5308
    -6.4598  -6.1806  -5.9740  -5.6410  -5.5653  -5.4643  -5.4272  -5.3073
    -5.1758  -5.1312  -5.0183  -4.9644  -4.7646  -4.7062  -4.5801  -4.4557
    -4.3851  -4.3485  -4.1492  -4.1344  -3.9861  -3.8462  -3.6845  -3.6543
    -3.6219  -3.4234  -3.3113  -3.2912  -3.2458  -3.2191  -3.1293  -3.0214
    -3.0021  -2.9207  -2.8535  -2.6838  -2.6214  -2.5034  -2.3374  -1.1376
    -0.7698  -0.6183  -0.1906  -0.1554   0.0793   0.3012   0.4525   0.5675
     0.6099   0.7447   0.8948   1.0570   1.1960   1.3191   1.6614   1.9475
     2.6960   2.9639   3.1067   3.1912   3.3409   3.4251   3.5156   3.6997
     4.0627   4.2162   4.2702   4.5615   4.6417   4.7306   4.7860   4.9049
     4.9863   5.0073   5.1265   5.1486   5.2924   5.4420   5.4845   6.0175
     6.2003   6.4251   6.6155   6.8937   7.4382   7.6144   7.7088   7.8006
     7.8566   8.0299   8.1162   8.1358   8.3381   8.3504   8.5780   8.7518
     8.8438   8.9486   8.9921   9.0663   9.1220   9.2439   9.2799   9.3804
     9.4863   9.6333   9.7929   9.8188   9.8787   9.9266  10.0276  10.0871
    10.2047  10.2213  10.4350  10.5453  10.5828  10.6584  10.7587  10.9182
    11.0402  11.1791  11.2300  11.3381  11.4571  11.4961  11.5495  11.8046
    11.8422  11.9307  11.9755  11.9982  12.1413  12.2511  12.2744  12.4863
    12.6463  12.7091  12.8967  12.9158  12.9795  13.0585  13.0726  13.1020
    13.1350  13.2013  13.2608  13.3027  13.3299  13.3833  13.4621  13.5610
    13.5933  13.6202  13.6706  13.8775  13.9449  14.0154  14.0211  14.0479
    14.0772  14.1007  14.1371  14.2354  14.2983  14.3227  14.4051  14.5491
    14.6830  14.7991  14.8847  14.9465  15.0233  15.0539  15.0821  15.1393
    15.2706  15.4480  15.5029  15.5245  15.5903  15.7079  15.7569  15.9352
    15.9382  16.0209  16.0787  16.1274  16.2626  16.3125  16.5203  16.5718
    16.6268  16.6945  16.7851  16.8603  16.9854  17.0010  17.1161  17.1790
    17.2136  17.2414  17.3182  17.4541  17.5004  17.5343  17.5818  17.6610
    17.7441  17.8908  17.9588  18.0914  18.1380  18.3282  18.3514  18.3881
    18.5787  18.6960  18.7073  18.7817  18.8613  18.9396  18.9768  19.0306
    19.1752  19.2212  19.3555  19.4262  19.4833  19.5241  19.6520  19.7276
    19.7659  19.8351  20.0069  20.0466  20.1119  20.1338  20.2000  20.2264
    20.4341  20.4424  20.5291  20.5778  20.6449  20.7514  20.7941  20.9701
    20.9758  21.0678  21.1939  21.3116  21.3440  21.4745  21.5047  21.5758
    21.6114  21.7242  21.8124  21.8397  21.8996  21.9828  22.0801  22.1127
    22.1638  22.2224  22.2559  22.2761  22.3392  22.3596  22.3816  22.4094
    22.5140  22.5303  22.5457  22.6352  22.7268  22.7955  22.8155  22.8713
    22.9338  22.9687  23.0183  23.0258  23.1465  23.1553

          k = 0.0000 0.1914 0.0000 ( 29141 PWs)   bands (ev):

   -81.3563 -81.2606 -81.1416 -81.1352 -81.0848 -80.8510 -80.7954 -80.7798
   -43.5471 -43.4115 -43.2613 -43.2594 -43.1635 -43.1458 -43.1359 -43.1171
   -43.1017 -43.0661 -43.0468 -43.0257 -42.9719 -42.8621 -42.8227 -42.7652
   -42.7569 -42.7252 -42.7218 -42.6729 -42.6700 -42.5154 -42.2472 -42.1857
   -20.9604 -20.4410 -20.3983 -20.2840 -20.0666 -19.8460 -19.8095 -19.7338
   -19.5540 -19.4883 -19.4387 -19.3535 -19.2807 -19.0780 -18.9514 -18.8969
   -18.7619 -18.2877 -17.9299  -9.3102  -9.0317  -8.9317  -8.7795  -8.6742
    -8.3267  -8.3080  -8.2639  -8.2141  -8.1800  -8.1426  -7.8514  -7.6393
    -7.4926  -7.2662  -7.1801  -6.7954  -6.5285  -6.4721  -6.3301  -6.2118
    -6.1297  -6.0437  -5.9453  -5.7744  -5.6856  -5.6378  -5.5226  -5.4712
    -5.3590  -5.3180  -5.1395  -5.0959  -4.7942  -4.7342  -4.6128  -4.4519
    -4.3588  -4.2967  -4.2091  -4.0207  -3.9327  -3.8379  -3.6291  -3.5779
    -3.4902  -3.4504  -3.4234  -3.2828  -3.2078  -3.0981  -3.0404  -3.0020
    -2.9290  -2.8450  -2.7497  -2.6871  -2.6267  -2.5234  -2.3990  -1.2281
    -1.1392  -1.0754  -0.8665  -0.1296   0.1358   0.6602   0.7856   0.9062
     0.9672   0.9837   1.0480   1.0724   1.2056   1.3484   1.5110   1.7900
     2.4745   3.1355   3.2814   3.2929   3.3800   3.4388   3.5576   3.8091
     3.8376   4.0566   4.2124   4.2445   4.3105   4.3411   4.4181   4.5379
     4.9141   5.0793   5.1539   5.3426   5.5332   5.7884   6.1377   6.3751
     6.5188   6.5662   6.6947   6.7170   6.7728   7.0201   7.1936   7.5336
     7.7486   7.9019   8.0073   8.1652   8.2502   8.4351   8.6606   8.8667
     8.9470   9.0935   9.2085   9.2856   9.4043   9.4770   9.6140   9.6900
     9.7172   9.8692   9.9827  10.0135  10.0536  10.1241  10.2492  10.3072
    10.4122  10.4707  10.5838  10.6585  10.7736  10.8009  10.9131  11.0257
    11.1360  11.2149  11.2644  11.3574  11.4405  11.5225  11.6179  11.6551
    11.7048  11.8418  11.8749  11.8985  12.0507  12.1221  12.1968  12.2783
    12.3201  12.3640  12.4089  12.5335  12.5666  12.6048  12.7253  12.8439
    12.9486  13.0111  13.1390  13.2224  13.3051  13.4109  13.4444  13.5594
    13.6342  13.7041  13.8350  13.8562  13.8880  13.9744  14.0270  14.0866
    14.1415  14.2413  14.3352  14.4271  14.4616  14.5764  14.6112  14.6622
    14.7173  14.8080  14.8569  14.8874  14.9361  14.9985  15.1040  15.1375
    15.2764  15.3149  15.3693  15.4395  15.5742  15.6385  15.6739  15.7388
    15.8016  15.8267  15.8730  15.9254  15.9496  16.1768  16.3160  16.3739
    16.5189  16.6236  16.6724  16.8207  16.8743  16.9490  17.0494  17.1499
    17.1959  17.3073  17.3482  17.3807  17.4392  17.6404  17.7304  17.8186
    17.9542  18.0653  18.1213  18.2758  18.3102  18.4201  18.5609  18.6398
    18.6754  18.7785  18.8176  18.9480  19.0228  19.0464  19.0764  19.1269
    19.1792  19.2949  19.3381  19.4402  19.4883  19.5592  19.5777  19.5959
    19.6718  19.6829  19.7966  19.8914  19.9686  20.0181  20.0730  20.1822
    20.2781  20.3250  20.3604  20.4045  20.4647  20.4956  20.5201  20.6924
    20.7988  20.8254  20.9140  20.9607  21.0206  21.0573  21.1511  21.1928
    21.4271  21.4720  21.5265  21.5856  21.6500  21.6705  21.7436  21.7796
    21.8753  21.9448  21.9994  22.1782  22.2208  22.2653  22.3081  22.4142
    22.4954  22.5401  22.5941  22.6156  22.6935  22.7437  22.7731  22.8655
    22.9520  22.9723  23.0337  23.0856  23.2867  23.3177

          k = 0.0000-0.3828 0.0000 ( 29262 PWs)   bands (ev):

   -81.3563 -81.2607 -81.1415 -81.1352 -81.0849 -80.8509 -80.7955 -80.7798
   -43.5473 -43.4116 -43.2612 -43.2582 -43.1480 -43.1437 -43.1366 -43.1360
   -43.1029 -43.0646 -43.0449 -43.0255 -42.9720 -42.8621 -42.8228 -42.7652
   -42.7590 -42.7253 -42.7224 -42.6730 -42.6696 -42.5154 -42.2472 -42.1857
   -20.9143 -20.3759 -20.3173 -20.1607 -19.9525 -19.9192 -19.9056 -19.8730
   -19.6725 -19.6339 -19.4750 -19.4409 -19.3992 -19.0779 -18.7928 -18.7296
   -18.7071 -18.2856 -17.9295  -9.2673  -8.8671  -8.7377  -8.6716  -8.6074
    -8.5620  -8.3640  -8.3408  -8.2606  -8.1972  -8.1276  -7.7446  -7.6628
    -7.4249  -7.1732  -7.1475  -7.1265  -6.9814  -6.7859  -6.5990  -6.4042
    -6.0525  -5.8226  -5.7045  -5.6840  -5.6049  -5.4968  -5.3682  -5.2862
    -5.2439  -5.2082  -5.1298  -5.0169  -4.9851  -4.7481  -4.6761  -4.5679
    -4.4103  -4.3447  -4.0534  -3.9883  -3.7584  -3.7325  -3.7087  -3.6745
    -3.6154  -3.4955  -3.4829  -3.3753  -3.2750  -3.0599  -3.0194  -2.8079
    -2.7321  -2.7213  -2.7063  -2.6632  -2.6122  -2.4945  -2.4069  -1.5210
    -1.4757  -1.3933  -1.1270  -0.1946   0.5222   0.7337   0.8364   0.8987
     0.9381   1.1904   1.2611   1.2685   1.4343   1.5639   1.5930   1.6395
     2.2613   2.8447   2.8745   3.2584   3.3740   3.4320   3.5388   3.7030
     3.8787   4.0303   4.0372   4.2171   4.2465   4.4186   4.7794   4.9041
     4.9299   5.1551   5.2128   5.3212   5.5883   5.7075   5.9565   6.1049
     6.3476   6.5339   6.7123   6.7459   7.0131   7.0883   7.1740   7.2462
     7.3694   7.6325   7.7833   8.1080   8.3303   8.6638   8.6831   8.7852
     8.8171   8.9956   9.2243   9.4309   9.4997   9.6410   9.8931   9.9748
    10.0178  10.0257  10.3456  10.3891  10.3996  10.5099  10.6208  10.6398
    10.7478  10.7636  10.8211  10.9540  11.0048  11.0243  11.1271  11.1956
    11.2839  11.3568  11.4571  11.4645  11.5121  11.5379  11.5728  11.5969
    11.6270  11.7155  11.7756  11.7799  11.8586  11.9428  12.0334  12.0475
    12.1237  12.2079  12.3076  12.3245  12.3454  12.3728  12.4524  12.5632
    12.6054  12.7301  12.9209  12.9629  12.9853  13.0415  13.1634  13.4098
    13.4949  13.5467  13.5812  13.6343  13.6824  13.7323  13.8098  13.8717
    13.9385  14.0784  14.1171  14.2232  14.2559  14.3337  14.3638  14.4260
    14.4889  14.7146  14.7555  14.9005  14.9528  15.0816  15.1262  15.3846
    15.4315  15.5431  15.6040  15.6861  15.7734  15.8934  15.9625  16.1328
    16.1723  16.3002  16.4416  16.4595  16.5606  16.6067  16.7177  16.7874
    16.8076  16.8830  16.9387  17.0056  17.0475  17.0644  17.0903  17.1561
    17.2873  17.3400  17.3980  17.4907  17.5134  17.5660  17.5843  17.6037
    17.6768  17.7595  17.7800  17.9066  17.9109  17.9914  18.0788  18.1884
    18.2940  18.3461  18.4067  18.5362  18.5634  18.6354  18.6775  18.7359
    18.7829  18.8278  18.9591  19.0851  19.1149  19.1189  19.1899  19.2735
    19.4666  19.6782  19.7689  19.8352  19.8684  19.9121  19.9641  20.0217
    20.0562  20.2050  20.2452  20.2832  20.4314  20.5157  20.5692  20.7534
    20.8569  20.8676  20.9286  20.9560  21.0462  21.2315  21.2920  21.3110
    21.3834  21.4376  21.4685  21.5535  21.6415  21.7929  21.9913  22.0765
    22.0926  22.2230  22.2891  22.3421  22.3668  22.3954  22.5929  22.6455
    22.6923  22.7274  22.7718  22.8682  22.9760  23.0314  23.1035  23.1265
    23.2205  23.2886  23.3169  23.3278  23.4453  23.5168

          k = 0.2500 0.0000 0.0000 ( 29190 PWs)   bands (ev):

   -81.3498 -81.2624 -81.1324 -81.1314 -81.0912 -80.8408 -80.8014 -80.7785
   -43.4294 -43.2904 -43.2529 -43.2435 -43.1621 -43.1447 -43.1192 -43.1030
   -43.0612 -43.0492 -43.0085 -42.9537 -42.9513 -42.8451 -42.8386 -42.8101
   -42.7714 -42.7435 -42.7426 -42.7270 -42.6835 -42.6560 -42.3748 -42.3233
   -20.8496 -20.4010 -20.3585 -20.2536 -20.1396 -19.7642 -19.6285 -19.5114
   -19.4762 -19.4095 -19.3924 -19.3691 -19.3323 -19.2231 -19.1619 -19.1068
   -18.8603 -18.3215 -18.0455  -9.1520  -9.0476  -8.9163  -8.5566  -8.4237
    -8.0964  -8.0296  -7.9691  -7.7691  -7.6614  -7.6127  -7.5859  -7.4550
    -7.4141  -7.3440  -7.1059  -6.9605  -6.7317  -6.6358  -6.5211  -6.4556
    -6.4238  -6.3391  -6.1621  -6.1201  -5.7891  -5.7129  -5.6456  -5.3788
    -5.2183  -5.1544  -4.9123  -4.8470  -4.7616  -4.5989  -4.5315  -4.4867
    -4.4719  -4.4085  -4.3212  -4.2519  -4.1679  -4.0000  -3.8936  -3.8193
    -3.6868  -3.6251  -3.5153  -3.3877  -3.3390  -3.2965  -3.1050  -3.0688
    -2.8930  -2.7260  -2.6323  -2.5781  -2.4325  -2.3731  -1.9482  -0.8530
    -0.7625  -0.5546  -0.3538  -0.1895  -0.1338   0.1828   0.3283   0.4684
     0.5419   0.5875   0.8703   1.1487   1.2376   1.4026   1.4147   1.5657
     1.7427   1.8433   1.8850   2.1359   2.5617   3.5039   3.7258   4.0344
     4.1466   4.3390   4.4142   4.5253   4.6226   4.8042   4.8578   4.9432
     4.9443   5.0367   5.1744   5.2504   5.3710   5.7070   5.8077   6.2601
     6.3405   6.5216   6.7295   6.9839   7.0899   7.5342   7.6564   7.7403
     7.9867   8.0558   8.0705   8.1986   8.2792   8.3580   8.4506   8.5081
     8.6500   8.7293   8.8708   8.9434   9.1145   9.1878   9.3303   9.4004
     9.4772   9.5448   9.6665   9.7662   9.8655   9.9329   9.9898  10.0460
    10.1284  10.1761  10.4045  10.4426  10.5481  10.6480  10.8018  10.8202
    10.9446  11.0116  11.0590  11.1824  11.2426  11.3103  11.3572  11.5411
    11.5893  11.7433  11.8593  11.9168  12.0936  12.2618  12.3614  12.4261
    12.4985  12.5522  12.6602  12.7442  12.8808  12.9904  13.1057  13.2382
    13.2792  13.3298  13.3920  13.4824  13.5474  13.6498  13.7255  13.7719
    13.8961  13.9425  14.0407  14.1583  14.2371  14.3697  14.4375  14.5010
    14.5432  14.5819  14.6174  14.7880  14.8750  14.9423  15.0381  15.1147
    15.1828  15.2627  15.3349  15.4106  15.5306  15.6558  15.6859  15.8109
    15.8545  15.8921  15.9217  16.0839  16.1092  16.1645  16.2860  16.3370
    16.3999  16.4697  16.5655  16.6309  16.6975  16.7437  16.8170  16.8789
    16.9250  17.0559  17.1554  17.2265  17.3236  17.3554  17.4047  17.4314
    17.5118  17.5565  17.6323  17.6580  17.7299  17.7801  17.8405  18.0060
    18.0389  18.0867  18.1431  18.2280  18.2920  18.3394  18.3683  18.5272
    18.5791  18.6243  18.7542  18.8325  18.8950  18.9962  19.0749  19.1642
    19.2151  19.2404  19.3394  19.3946  19.4554  19.5232  19.5505  19.6230
    19.6923  19.8682  19.9001  19.9398  19.9770  20.0888  20.1099  20.1772
    20.2076  20.2848  20.3554  20.4195  20.4644  20.4944  20.5139  20.5411
    20.6138  20.7766  20.8409  20.8574  20.8859  20.9578  20.9672  21.0238
    21.0548  21.1615  21.2454  21.3191  21.3767  21.4720  21.5885  21.7324
    21.7584  21.8454  21.9100  21.9866  22.0547  22.0957  22.1590  22.2161
    22.3041  22.3304  22.3767  22.4326  22.4673  22.4942  22.5641  22.6822
    22.6970  22.7739  22.8833  22.9166  22.9853  23.0509

          k = 0.2500 0.1914 0.0000 ( 29229 PWs)   bands (ev):

   -81.3498 -81.2625 -81.1324 -81.1313 -81.0912 -80.8407 -80.8014 -80.7786
   -43.4296 -43.2906 -43.2529 -43.2423 -43.1535 -43.1447 -43.1189 -43.1103
   -43.0686 -43.0439 -43.0070 -42.9534 -42.9513 -42.8451 -42.8386 -42.8105
   -42.7714 -42.7448 -42.7427 -42.7278 -42.6834 -42.6559 -42.3748 -42.3233
   -20.8110 -20.3658 -20.2998 -20.1879 -20.1056 -19.8056 -19.7491 -19.7314
   -19.5458 -19.4771 -19.4136 -19.3643 -19.2790 -19.1226 -19.0881 -19.0494
   -18.8552 -18.3198 -18.0463  -8.9870  -8.7143  -8.6396  -8.6024  -8.4282
    -8.3149  -8.2679  -8.0905  -8.0169  -7.9353  -7.7555  -7.6896  -7.4703
    -7.3625  -7.2410  -6.9940  -6.8529  -6.7645  -6.6495  -6.5257  -6.4390
    -6.3986  -6.0513  -5.9574  -5.8117  -5.6887  -5.6217  -5.4848  -5.4485
    -5.3704  -5.1702  -4.9909  -4.9725  -4.8248  -4.7803  -4.7400  -4.6600
    -4.6036  -4.5513  -4.4627  -4.3042  -4.1134  -3.9632  -3.9097  -3.8095
    -3.6782  -3.6019  -3.5038  -3.4138  -3.3546  -3.2650  -3.1597  -3.0032
    -2.8311  -2.6939  -2.6301  -2.4888  -2.1512  -1.9678  -1.9095  -1.0961
    -0.9735  -0.8584  -0.7505  -0.1038   0.0015   0.4498   0.5122   0.6013
     0.7086   0.8376   0.8891   1.1300   1.3262   1.3667   1.5381   1.6079
     1.7092   1.8947   1.9390   2.1316   2.4046   3.6678   3.6901   3.7829
     3.8165   3.9900   4.0555   4.2965   4.5053   4.5928   4.7401   4.8954
     4.9444   5.1926   5.3484   5.6110   5.8538   5.8882   6.1111   6.2700
     6.4444   6.5114   6.7033   6.8830   7.0085   7.0528   7.2990   7.5214
     7.7598   7.7932   7.8716   8.1325   8.1982   8.3779   8.4778   8.6144
     8.6524   8.6813   8.8997   9.0745   9.1242   9.3748   9.4158   9.5391
     9.6276   9.6997   9.8110   9.8444   9.9307  10.0127  10.0812  10.1796
    10.2757  10.3220  10.3762  10.4417  10.4965  10.6974  10.7561  10.8665
    10.9834  11.0561  11.1867  11.3579  11.4505  11.5067  11.6632  11.7414
    11.8228  11.9057  12.0594  12.2284  12.2728  12.4978  12.5817  12.6501
    12.6926  12.7036  12.7897  12.8936  12.9272  13.0166  13.1027  13.2198
    13.2749  13.4290  13.4672  13.6191  13.6637  13.7552  13.8295  13.8750
    13.9241  13.9627  14.0178  14.0959  14.1501  14.2489  14.3202  14.3552
    14.4729  14.5484  14.5911  14.6264  14.6909  14.7676  14.8383  14.8789
    14.9244  14.9664  15.0116  15.1037  15.1377  15.1889  15.2982  15.4354
    15.4918  15.5632  15.6475  15.7737  15.8232  15.9278  16.0729  16.1138
    16.1690  16.2874  16.3498  16.4161  16.5291  16.5807  16.6086  16.6820
    16.7931  16.8657  16.9675  16.9965  17.1033  17.1845  17.2307  17.3039
    17.3812  17.4630  17.5559  17.6535  17.7233  17.7676  17.8780  17.9240
    18.0152  18.0337  18.0762  18.2147  18.2786  18.2892  18.3593  18.4376
    18.5008  18.5962  18.6213  18.6741  18.7861  18.8607  18.9365  19.0226
    19.0798  19.1936  19.3153  19.3640  19.4824  19.5656  19.6137  19.6908
    19.7559  19.8176  19.9483  20.0557  20.0980  20.1859  20.2324  20.3234
    20.4236  20.5198  20.5556  20.5985  20.7044  20.7197  20.7728  20.8140
    20.8651  20.9490  21.0234  21.0974  21.1675  21.2108  21.2665  21.3212
    21.3805  21.4438  21.4932  21.5661  21.6199  21.6667  21.7681  21.8526
    21.9459  21.9731  22.0712  22.1239  22.1698  22.2531  22.3029  22.3636
    22.4057  22.4460  22.4741  22.5498  22.6067  22.6674  22.7094  22.7623
    22.8003  22.8242  22.8779  22.8945  22.9871  23.0577

          k = 0.2500-0.3828 0.0000 ( 29202 PWs)   bands (ev):

   -81.3498 -81.2625 -81.1324 -81.1312 -81.0912 -80.8406 -80.8014 -80.7786
   -43.4298 -43.2906 -43.2529 -43.2411 -43.1447 -43.1381 -43.1245 -43.1186
   -43.0735 -43.0409 -43.0054 -42.9531 -42.9513 -42.8451 -42.8386 -42.8111
   -42.7714 -42.7459 -42.7427 -42.7287 -42.6834 -42.6558 -42.3747 -42.3233
   -20.7757 -20.3545 -20.2010 -20.1647 -19.9230 -19.8554 -19.8184 -19.8024
   -19.6951 -19.5678 -19.4853 -19.4803 -19.3238 -19.1086 -18.9688 -18.8984
   -18.8377 -18.3186 -18.0473  -8.9614  -8.6262  -8.5997  -8.5601  -8.4094
    -8.1183  -8.1135  -8.0427  -8.0376  -7.8706  -7.7473  -7.6636  -7.6098
    -7.5916  -7.4958  -7.3414  -6.9854  -6.9416  -6.7487  -6.5928  -6.3272
    -5.9031  -5.8127  -5.7310  -5.6823  -5.6136  -5.5627  -5.5279  -5.4176
    -5.3204  -5.2028  -5.1277  -5.0127  -4.9566  -4.8854  -4.8483  -4.8243
    -4.7455  -4.6161  -4.5565  -4.3568  -4.1004  -3.8696  -3.8461  -3.7944
    -3.7026  -3.5814  -3.5411  -3.4544  -3.3429  -3.2882  -3.0812  -2.8782
    -2.7868  -2.6731  -2.5710  -2.5348  -2.0348  -1.8789  -1.7277  -1.3005
    -1.2590  -1.1693  -0.8688  -0.0890   0.2543   0.3848   0.6958   0.8864
     0.9716   1.0348   1.1129   1.2260   1.2798   1.2947   1.6297   1.7053
     1.8891   1.9594   2.0112   2.1771   2.3916   2.8521   2.9388   3.4198
     3.5547   3.8431   3.9616   4.3490   4.5749   4.6898   4.9530   5.1354
     5.2777   5.3535   5.4225   5.5724   5.9214   6.0419   6.2575   6.2891
     6.3488   6.4864   6.7182   6.8130   6.8831   6.9643   7.1330   7.2376
     7.5229   7.7985   7.8375   7.9344   8.0248   8.3743   8.4332   8.5863
     8.6499   8.7288   8.9049   9.0352   9.1031   9.1352   9.2076   9.3063
     9.5046   9.6964   9.8052   9.8699  10.0785  10.2726  10.4145  10.4353
    10.5091  10.5960  10.6365  10.6854  10.7720  10.8390  10.9769  11.1479
    11.2806  11.3688  11.4319  11.4894  11.7813  11.8597  11.9559  12.0191
    12.1213  12.1346  12.2170  12.2603  12.2974  12.3615  12.4101  12.5414
    12.6234  12.7053  12.7474  12.7925  12.9873  13.1041  13.2161  13.2347
    13.3141  13.4378  13.5643  13.6544  13.6831  13.7146  13.7953  13.9054
    13.9263  14.0003  14.0314  14.0959  14.1252  14.1671  14.2808  14.3336
    14.4088  14.4364  14.4851  14.5437  14.6095  14.6433  14.6753  14.7072
    14.7428  14.7672  14.8185  14.8468  14.9564  15.1425  15.2486  15.3371
    15.3961  15.4389  15.4613  15.5066  15.5897  15.6750  15.7459  15.8499
    15.8874  15.9745  16.0573  16.1301  16.2356  16.2833  16.3642  16.4641
    16.5560  16.6118  16.6323  16.7478  16.8682  16.9100  16.9771  17.0166
    17.2056  17.3643  17.4307  17.4605  17.5128  17.6240  17.6720  17.7711
    17.8260  17.8634  18.0282  18.0806  18.1594  18.2053  18.3165  18.4114
    18.4696  18.5818  18.8287  18.8588  18.9040  18.9826  19.1199  19.2895
    19.3760  19.4030  19.5772  19.6428  19.6704  19.7510  19.7921  19.8380
    19.9324  19.9637  20.0767  20.1440  20.1602  20.2082  20.2373  20.2692
    20.3048  20.3746  20.4776  20.5256  20.5847  20.8023  20.8969  20.9785
    21.0320  21.0759  21.1167  21.2094  21.2532  21.2728  21.3358  21.3582
    21.4324  21.4943  21.5398  21.6002  21.6756  21.7330  21.7836  21.8405
    21.8864  21.9402  21.9862  22.0417  22.1216  22.1621  22.2039  22.3102
    22.3487  22.3971  22.5087  22.5561  22.6174  22.6546  22.6919  22.7425
    22.7904  22.8627  22.9107  22.9440  23.0776  23.1420

          k =-0.5000 0.0000 0.0000 ( 29180 PWs)   bands (ev):

   -81.3428 -81.2647 -81.1296 -81.1112 -81.1074 -80.8205 -80.8174 -80.7773
   -43.2445 -43.2196 -43.1583 -43.1545 -43.1506 -43.1480 -43.0960 -43.0952
   -43.0786 -43.0256 -42.9881 -42.9852 -42.8985 -42.8903 -42.8494 -42.8166
   -42.7954 -42.7524 -42.7330 -42.7166 -42.7113 -42.6404 -42.6351 -42.5869
   -20.5096 -20.4453 -20.3430 -20.0621 -19.9325 -19.8943 -19.8388 -19.6060
   -19.4925 -19.4658 -19.3424 -19.3382 -19.2935 -19.2493 -19.1463 -19.0961
   -19.0677 -18.3685 -18.1623  -8.4987  -8.3725  -8.3058  -8.3008  -8.3002
    -8.2632  -8.1834  -8.0423  -8.0085  -7.9820  -7.5119  -7.3613  -7.3130
    -7.2850  -7.1670  -6.9398  -6.9123  -6.7539  -6.7088  -6.4602  -6.1192
    -6.0577  -5.9889  -5.9424  -5.8878  -5.8526  -5.8105  -5.6625  -5.5893
    -5.2755  -5.2588  -5.2019  -5.1873  -5.0877  -4.9977  -4.9260  -4.8683
    -4.7155  -4.6628  -4.6214  -4.5323  -4.4597  -4.2615  -3.9592  -3.9301
    -3.5049  -3.4883  -3.4246  -3.4097  -3.2927  -3.1550  -3.0922  -2.9947
    -2.8473  -2.7911  -2.7719  -2.4513  -1.0331  -1.0194  -0.8791  -0.8724
    -0.7067  -0.6152  -0.6035  -0.5863  -0.4846  -0.4388  -0.1856  -0.1795
     0.1480   0.3172   0.3839   0.6321   0.6621   0.6783   0.8580   0.9998
     1.4930   1.5413   1.9717   2.0805   2.1399   3.6089   3.9798   4.0560
     4.3027   4.4996   4.5303   4.6220   4.6610   4.7086   4.8587   4.9233
     4.9729   5.1400   5.2838   5.5474   5.7666   6.0001   6.1378   6.1456
     6.3588   6.5484   6.6791   6.8203   6.8968   7.0354   7.3451   7.4894
     7.6819   7.8173   8.0125   8.1087   8.5001   8.5706   8.5915   8.6477
     8.7262   9.0611   9.1360   9.1908   9.2346   9.2494   9.2922   9.3237
     9.3442   9.4536   9.6274   9.6870   9.7616   9.8165   9.8417   9.9091
     9.9616  10.0076  10.2656  10.3433  10.3917  10.4828  10.5696  10.6056
    10.6646  10.7055  10.8102  10.8572  10.9571  11.0417  11.3612  11.4772
    11.5370  11.7178  11.8711  11.9228  11.9588  12.1214  12.1639  12.2348
    12.3347  12.3892  12.7365  12.8019  13.0244  13.2411  13.3031  13.3645
    13.4632  13.4793  13.6251  13.6724  13.7836  13.8403  13.8916  14.1911
    14.4243  14.4623  14.5032  14.5114  14.6313  14.7689  14.9156  14.9413
    15.0859  15.1802  15.2084  15.2951  15.3857  15.5133  15.5286  15.5654
    15.5760  15.6842  15.7181  15.7988  15.8743  15.9726  16.0796  16.2460
    16.3357  16.4002  16.4504  16.4633  16.5236  16.5449  16.5821  16.6314
    16.7200  16.7578  16.9165  16.9732  17.0235  17.0512  17.0809  17.0977
    17.3510  17.4013  17.4346  17.4567  17.5205  17.5603  17.7625  17.8322
    17.9052  17.9918  18.0752  18.1129  18.1493  18.2836  18.2961  18.3075
    18.4063  18.4406  18.4756  18.6219  18.6477  18.6740  18.6928  18.6979
    18.8975  18.9650  18.9844  19.0159  19.1087  19.1840  19.2571  19.2749
    19.3195  19.3860  19.4394  19.4525  19.4563  19.5161  19.5538  19.5878
    19.6492  19.6529  19.7250  19.7580  19.7700  19.7830  19.8147  19.9259
    20.0098  20.0589  20.0769  20.1233  20.1776  20.1866  20.2658  20.3195
    20.3413  20.3964  20.4108  20.6886  20.7369  20.7679  20.8377  20.9027
    20.9157  20.9247  20.9952  21.0116  21.0538  21.0591  21.1309  21.1360
    21.2753  21.2960  21.3559  21.4561  21.4736  21.5288  21.5864  21.7031
    21.7302  21.7658  21.8185  22.0195  22.0657  22.1405  22.2385  22.3501
    22.3812  22.3889  22.4423  22.4622  22.5249  22.6657

          k =-0.5000 0.1914 0.0000 ( 29244 PWs)   bands (ev):

   -81.3429 -81.2647 -81.1296 -81.1112 -81.1074 -80.8204 -80.8173 -80.7773
   -43.2445 -43.2189 -43.1585 -43.1546 -43.1497 -43.1416 -43.0956 -43.0953
   -43.0855 -43.0256 -42.9880 -42.9851 -42.8985 -42.8904 -42.8490 -42.8166
   -42.7954 -42.7525 -42.7340 -42.7174 -42.7121 -42.6403 -42.6350 -42.5867
   -20.4962 -20.4376 -20.3404 -20.0058 -19.9033 -19.8428 -19.8136 -19.6795
   -19.5714 -19.5296 -19.3252 -19.3206 -19.3071 -19.2610 -19.1398 -19.0992
   -19.0662 -18.3689 -18.1626  -8.4958  -8.4024  -8.3191  -8.2981  -8.2602
    -8.2567  -8.2050  -8.0644  -8.0212  -7.9916  -7.3157  -7.2567  -7.1491
    -7.0586  -7.0417  -6.9239  -6.8764  -6.6998  -6.5712  -6.4409  -6.2914
    -6.2714  -6.2357  -6.2075  -6.0383  -5.9020  -5.7619  -5.6151  -5.5404
    -5.4723  -5.4192  -5.2848  -5.2198  -5.1299  -5.0241  -4.8788  -4.8518
    -4.7769  -4.7515  -4.6801  -4.5790  -4.3608  -4.1917  -3.9698  -3.9318
    -3.5249  -3.4743  -3.4435  -3.3655  -3.3134  -3.1769  -3.1038  -3.0288
    -2.7844  -2.6819  -2.6371  -2.4466  -1.0478  -0.9798  -0.9270  -0.8494
    -0.6764  -0.6226  -0.5007  -0.4892  -0.3781  -0.1933  -0.1246  -0.0465
     0.2170   0.3043   0.5089   0.5223   0.7025   0.8598   1.0572   1.1184
     1.4276   1.4470   1.8529   1.9506   2.1632   3.5835   3.6752   3.7570
     3.7595   3.7885   4.0865   4.3986   4.4942   4.8537   5.1933   5.3325
     5.4112   5.4311   5.5113   5.6863   5.7779   6.0438   6.3088   6.3250
     6.4878   6.5573   6.7451   6.8285   6.9867   7.0544   7.2024   7.3301
     7.5814   7.7068   7.8410   7.9157   8.0205   8.0871   8.1543   8.2640
     8.4127   8.5739   8.6387   8.8186   8.9687   9.1386   9.2312   9.4095
     9.4644   9.5322   9.5759   9.6918   9.8498   9.9942  10.1038  10.2037
    10.5156  10.5926  10.6615  10.6949  10.7446  10.7710  10.8138  10.9084
    10.9386  11.0167  11.0719  11.2084  11.3463  11.4249  11.5623  11.6352
    11.7843  11.8785  11.9671  12.0959  12.1744  12.2861  12.3845  12.4456
    12.5391  12.7381  12.7993  12.8663  12.9750  13.1120  13.2076  13.4476
    13.5462  13.6084  13.7286  13.7932  13.8483  13.9873  14.1978  14.2567
    14.3933  14.4272  14.4995  14.5876  14.6437  14.6829  14.7568  14.8401
    14.8718  14.9372  14.9720  15.0615  15.1088  15.1971  15.2449  15.3755
    15.4993  15.5251  15.5673  15.6977  15.7965  15.8287  15.8855  15.9233
    15.9502  16.0781  16.1745  16.2276  16.2594  16.3413  16.4055  16.4555
    16.5455  16.5828  16.6442  16.7076  16.7994  16.8229  16.8386  16.9486
    16.9867  17.0640  17.0987  17.2180  17.2276  17.2589  17.2768  17.3352
    17.4135  17.5558  17.6028  17.6887  17.7581  17.8904  17.9547  17.9646
    17.9895  18.0790  18.2206  18.2382  18.2883  18.3159  18.3505  18.4224
    18.5131  18.5818  18.6217  18.6911  18.7944  18.8931  18.9227  19.0621
    19.1291  19.1984  19.2658  19.3417  19.4174  19.4715  19.5791  19.6199
    19.6698  19.7368  19.7777  19.9020  19.9683  19.9901  20.1654  20.1922
    20.2233  20.3259  20.3602  20.4843  20.5591  20.6189  20.7361  20.8095
    20.8309  20.8615  20.9662  21.0124  21.0465  21.1454  21.1964  21.2711
    21.3682  21.4019  21.4410  21.5109  21.5809  21.6042  21.7148  21.7349
    21.7526  21.7911  21.8357  21.8630  21.9116  21.9346  21.9722  22.0132
    22.0865  22.1817  22.2908  22.3490  22.3937  22.4169  22.4586  22.5130
    22.5546  22.6094  22.7011  22.7124  22.7998  22.8186

          k =-0.5000-0.3828 0.0000 ( 29192 PWs)   bands (ev):

   -81.3429 -81.2648 -81.1296 -81.1111 -81.1073 -80.8204 -80.8173 -80.7774
   -43.2445 -43.2181 -43.1586 -43.1546 -43.1489 -43.1331 -43.0959 -43.0956
   -43.0935 -43.0256 -42.9879 -42.9850 -42.8985 -42.8904 -42.8486 -42.8166
   -42.7954 -42.7525 -42.7350 -42.7181 -42.7128 -42.6402 -42.6349 -42.5864
   -20.4826 -20.4304 -20.3379 -19.8796 -19.8626 -19.8510 -19.7621 -19.6902
   -19.6727 -19.6666 -19.3388 -19.3105 -19.2991 -19.2696 -19.1332 -19.1033
   -19.0648 -18.3693 -18.1629  -8.4717  -8.3875  -8.3013  -8.2959  -8.2946
    -8.2292  -8.1822  -8.0595  -8.0108  -7.9869  -7.2715  -7.1976  -7.0660
    -6.8949  -6.8664  -6.8406  -6.7299  -6.7034  -6.6285  -6.5890  -6.5484
    -6.4675  -6.1997  -6.1628  -6.0402  -5.8966  -5.6258  -5.5839  -5.5630
    -5.5219  -5.4873  -5.3546  -5.3234  -5.2990  -5.1936  -4.9931  -4.9142
    -4.8724  -4.7820  -4.7260  -4.6713  -4.1456  -4.1217  -3.9937  -3.8994
    -3.6362  -3.5709  -3.4434  -3.3950  -3.2672  -3.1574  -3.0704  -3.0433
    -2.7543  -2.5572  -2.5054  -2.4361  -1.1225  -1.1046  -1.0630  -0.8929
    -0.7590  -0.6872  -0.6147  -0.4591  -0.1948  -0.0383   0.2489   0.3533
     0.4804   0.4962   0.6684   0.8064   0.9192   1.0779   1.1326   1.1595
     1.5268   1.5509   1.5835   1.6846   2.2069   2.9161   2.9348   3.0008
     3.0577   3.6794   4.1343   4.5422   4.5815   4.9395   5.3414   5.4835
     5.5241   5.6832   5.8147   5.9670   6.0978   6.2688   6.2946   6.4561
     6.4571   6.6668   6.8683   6.8731   6.9952   7.0082   7.1709   7.2143
     7.2920   7.3833   7.5111   7.6618   7.7516   7.8833   7.9787   8.1603
     8.1801   8.4830   8.5407   8.7227   8.7603   8.8079   8.9089   9.1207
     9.2562   9.4751   9.6644   9.9352   9.9829  10.0524  10.0868  10.2495
    10.5183  10.6176  10.7950  10.9916  11.0413  11.1073  11.1548  11.2253
    11.3198  11.3715  11.4449  11.5268  11.6487  11.7573  11.8232  12.1790
    12.1925  12.4096  12.5453  12.6230  12.7875  12.8701  12.9257  13.0229
    13.0472  13.0775  13.0923  13.1725  13.2165  13.3204  13.3239  13.3853
    13.4199  13.4403  13.5563  13.6511  13.7194  13.7839  13.8251  13.8717
    13.9285  13.9835  14.0729  14.1675  14.2838  14.3151  14.4451  14.5954
    14.6219  14.6660  14.6917  14.7054  14.7461  14.9633  15.0384  15.1059
    15.1691  15.2537  15.3072  15.4024  15.4193  15.4658  15.5074  15.6749
    15.8429  15.8624  15.9430  16.0512  16.1301  16.1796  16.2893  16.3333
    16.3480  16.4060  16.5374  16.6169  16.7676  16.7707  16.8166  16.8289
    16.9281  17.0377  17.0959  17.2136  17.2448  17.2896  17.3173  17.3672
    17.4657  17.5845  17.6194  17.6378  17.6816  17.7156  17.7709  17.7840
    17.8630  17.9544  18.0708  18.1234  18.1379  18.1835  18.2444  18.2538
    18.3040  18.3313  18.3830  18.4367  18.5422  18.5964  18.6370  18.6731
    18.8101  18.8920  18.9045  18.9384  19.0466  19.0710  19.2433  19.3517
    19.4879  19.6155  19.6755  19.7243  19.8646  19.9738  20.0846  20.1261
    20.2034  20.2648  20.4166  20.5071  20.6497  20.6795  20.7223  20.7935
    20.8312  20.9159  21.0020  21.2575  21.3001  21.3123  21.3668  21.4000
    21.4740  21.5104  21.6735  21.7458  21.8059  21.8527  21.9963  22.1209
    22.1413  22.1782  22.2586  22.2780  22.3691  22.3830  22.4633  22.5259
    22.6149  22.7596  22.8099  22.8269  22.8834  22.9460  22.9701  23.0223
    23.0477  23.1437  23.2063  23.2509  23.3242  23.4138

          k =-0.2500 0.1914 0.0000 ( 29229 PWs)   bands (ev):

   -81.3498 -81.2625 -81.1324 -81.1313 -81.0912 -80.8407 -80.8014 -80.7786
   -43.4296 -43.2905 -43.2529 -43.2423 -43.1535 -43.1447 -43.1189 -43.1104
   -43.0685 -43.0439 -43.0070 -42.9534 -42.9513 -42.8451 -42.8386 -42.8108
   -42.7714 -42.7446 -42.7427 -42.7278 -42.6834 -42.6559 -42.3748 -42.3233
   -20.8111 -20.3659 -20.2996 -20.1878 -20.1057 -19.8050 -19.7486 -19.7312
   -19.5460 -19.4784 -19.4132 -19.3654 -19.2790 -19.1223 -19.0882 -19.0492
   -18.8546 -18.3198 -18.0463  -8.9861  -8.7136  -8.6390  -8.6016  -8.4326
    -8.3123  -8.2771  -8.0952  -8.0024  -7.9226  -7.7600  -7.7132  -7.4507
    -7.3395  -7.2916  -6.9985  -6.8621  -6.7342  -6.6297  -6.5296  -6.4356
    -6.3687  -6.0649  -5.9683  -5.7836  -5.7315  -5.6557  -5.5289  -5.4469
    -5.3301  -5.1095  -4.9966  -4.9678  -4.8581  -4.7757  -4.7441  -4.6788
    -4.5973  -4.5330  -4.4361  -4.3230  -4.1415  -3.9612  -3.8824  -3.7952
    -3.7000  -3.6026  -3.5573  -3.3700  -3.3296  -3.2614  -3.1566  -3.0371
    -2.8115  -2.7121  -2.6297  -2.4854  -2.1514  -1.9719  -1.9114  -1.0963
    -0.9439  -0.8616  -0.7356  -0.1224  -0.0147   0.4417   0.5054   0.5946
     0.7038   0.8206   0.9281   1.1413   1.3312   1.3730   1.5314   1.6068
     1.7044   1.8963   1.9376   2.1300   2.4040   3.6688   3.6888   3.7835
     3.8168   3.9935   4.0560   4.2955   4.4986   4.5954   4.7381   4.8892
     4.9564   5.1918   5.3476   5.6127   5.8558   5.8903   6.1155   6.2798
     6.4445   6.4943   6.6960   6.8832   6.9945   7.0758   7.2955   7.5410
     7.6837   7.7827   7.9316   8.1105   8.2632   8.3406   8.4953   8.5766
     8.6214   8.7141   8.9360   9.0325   9.1187   9.3719   9.4334   9.5884
     9.6221   9.6770   9.8104   9.8792   9.9086   9.9858  10.0887  10.1845
    10.2366  10.3400  10.3784  10.4339  10.5117  10.7213  10.7515  10.8731
    10.9981  11.1098  11.1635  11.2666  11.4611  11.5326  11.6792  11.7395
    11.8171  11.9157  12.0320  12.2153  12.3353  12.4572  12.5866  12.6209
    12.6452  12.7419  12.8039  12.8766  12.9344  13.0340  13.0925  13.2235
    13.2719  13.4162  13.5027  13.6229  13.6752  13.7390  13.8283  13.8552
    13.9380  13.9508  14.0071  14.0750  14.1295  14.2410  14.3216  14.4072
    14.4888  14.5146  14.5675  14.6495  14.7068  14.7390  14.8436  14.8867
    14.9446  14.9855  15.0178  15.0819  15.1313  15.2045  15.2987  15.4418
    15.5108  15.5981  15.6493  15.7285  15.8305  15.9316  16.0703  16.1347
    16.1785  16.2352  16.3049  16.4711  16.5219  16.5804  16.6102  16.6860
    16.7827  16.8698  16.9467  17.0076  17.1080  17.2010  17.2469  17.2698
    17.3523  17.4812  17.6071  17.6586  17.7280  17.7786  17.8300  17.9389
    17.9661  18.0363  18.1194  18.1618  18.2602  18.2782  18.3939  18.4500
    18.5155  18.5774  18.6357  18.6996  18.7520  18.8575  18.9227  19.0198
    19.0784  19.2296  19.3031  19.3436  19.4772  19.5410  19.6232  19.6751
    19.7419  19.8393  19.9325  20.0154  20.1280  20.1740  20.2324  20.3011
    20.4506  20.5122  20.5760  20.6175  20.6791  20.7469  20.7708  20.8300
    20.8786  20.9595  20.9761  21.1237  21.1586  21.2044  21.2519  21.3137
    21.3993  21.4402  21.5044  21.6070  21.6456  21.6964  21.7590  21.8379
    21.9286  21.9995  22.0837  22.1128  22.2182  22.2379  22.3112  22.3516
    22.4023  22.4488  22.4859  22.5449  22.6211  22.6683  22.6938  22.7316
    22.7813  22.8380  22.8812  22.9278  22.9882  23.0707

     the Fermi energy is     0.5292 ev

!    total energy              =   -2175.58674295 Ry
     Harris-Foulkes estimate   =   -2175.58674355 Ry
     estimated scf accuracy    <       0.00000067 Ry

     The total energy is the sum of the following terms:

     one-electron contribution =  -24247.14745849 Ry
     hartree contribution      =   12141.26368070 Ry
     xc contribution           =    -594.99702262 Ry
     ewald contribution        =   10524.32717492 Ry
     Hubbard energy            =       0.96797713 Ry
     smearing contrib. (-TS)   =      -0.00109459 Ry

     convergence has been achieved in  26 iterations

     Forces acting on atoms (Ry/au):


     negative rho (up, down):  0.245E+00 0.000E+00
     atom    1 type  1   force =    -0.00559568   -0.00715807    0.00311501
     atom    2 type  1   force =    -0.00001635    0.00617490    0.00062340
     atom    3 type  2   force =     0.02860037   -0.00409225    0.00059180
     atom    4 type  2   force =     0.00176170    0.00740872    0.00146880
     atom    5 type  1   force =     0.00278396    0.01169226    0.00053127
     atom    6 type  1   force =     0.00112154   -0.01215564    0.00022608
     atom    7 type  1   force =     0.00336134    0.00019489    0.00224337
     atom    8 type  1   force =     0.00307326   -0.00171009   -0.00320707
     atom    9 type  2   force =    -0.02424180    0.00175004    0.00080970
     atom   10 type  2   force =    -0.00739749   -0.00055168   -0.00810235
     atom   11 type  1   force =    -0.00546814   -0.01027056   -0.00018286
     atom   12 type  1   force =    -0.00555702    0.01033267   -0.00001610
     atom   13 type  1   force =    -0.00056614   -0.00012424   -0.00050486
     atom   14 type  1   force =    -0.00275869   -0.00645596    0.00378575
     atom   15 type  1   force =     0.00033548    0.00514235    0.00150652
     atom   16 type  2   force =    -0.02933660   -0.00407058    0.00028466
     atom   17 type  2   force =     0.00119996    0.00775626   -0.00086633
     atom   18 type  1   force =     0.00105531    0.01211893    0.00045451
     atom   19 type  1   force =    -0.00083214   -0.01245766    0.00026891
     atom   20 type  1   force =    -0.00235442   -0.00125836    0.00367937
     atom   21 type  1   force =     0.00181135   -0.00163277   -0.00346116
     atom   22 type  2   force =     0.02025795    0.00183106    0.00044213
     atom   23 type  2   force =    -0.00011510   -0.00057635    0.00355916
     atom   24 type  1   force =     0.00883901   -0.00878904    0.00003387
     atom   25 type  1   force =     0.00864929    0.00845481    0.00002934
     atom   26 type  1   force =     0.00070278   -0.00062739   -0.00156716
     atom   27 type  3   force =    -0.00000508   -0.00035401    0.00048172
     atom   28 type  3   force =    -0.00001135   -0.00058892    0.00044727
     atom   29 type  3   force =     0.00020734    0.00016122   -0.00060452
     atom   30 type  3   force =     0.00020260   -0.00000310   -0.00051805
     atom   31 type  1   force =     0.00083555   -0.00003100   -0.00558886
     atom   32 type  3   force =    -0.00054276   -0.00011045    0.00003670

     Total force =     0.013685     Total SCF correction =     0.002703
     SCF correction compared to forces is large: reduce conv_thr to get better values

     BFGS Geometry Optimization

     number of scf cycles    =   1
     number of bfgs steps    =   0

     energy   new            =   -2175.5867429534 Ry

     new trust radius        =       0.0081023457 bohr
     new conv_thr            =       0.0000010000 Ry


ATOMIC_POSITIONS (crystal)
O0       0.000000000   0.000000000   0.370681051    0   0   1
O0       0.000000000   0.500000000   0.382082218    0   0   1
Re1      0.250000000   0.500000000   0.441761599    0   0   1
Re1      0.000000000   0.000000000   0.443418787    0   0   1
O0       0.250000000   0.780000000   0.441760412    0   0   1
O0       0.250000000   0.220000000   0.441614431    0   0   1
O0       0.000000000   0.500000000   0.497123968    0   0   1
O0       0.000000000   0.000000000   0.514967145    0   0   1
Re1      0.250000000   0.000000000   0.574845869    0   0   1
Re1      0.000000000   0.500000000   0.566261203    0   0   1
O0       0.250000000   0.720000000   0.572986416    0   0   1
O0       0.250000000   0.280000000   0.573049684    0   0   1
O0       0.000000000   0.000000000   0.627090105    0   0   1
O0       0.500000000   0.000000000   0.370734197    0   0   1
O0       0.500000000   0.500000000   0.382389526    0   0   1
Re1      0.750000000   0.500000000   0.441785579    0   0   1
Re1      0.500000000   0.000000000   0.443223021    0   0   1
O0       0.750000000   0.780000000   0.441708908    0   0   1
O0       0.750000000   0.220000000   0.441685270    0   0   1
O0       0.500000000   0.500000000   0.499072112    0   0   1
O0       0.500000000   0.000000000   0.514832165    0   0   1
Re1      0.750000000   0.000000000   0.574698665    0   0   1
Re1      0.500000000   0.500000000   0.572719756    0   0   1
O0       0.750000000   0.720000000   0.572180664    0   0   1
O0       0.750000000   0.280000000   0.572180575    0   0   1
O0       0.500000000   0.000000000   0.626419285    0   0   1
H2      -0.000360501   0.625043239   0.365189441
H2       0.499618879   0.623105482   0.364558766
H2       0.169520470   0.023152187   0.356488152
H2       0.670470002   0.021879766   0.356669847
O0       0.527842492   0.499667656   0.643800465
H2       0.378766415   0.499161651   0.665050719


     Check: negative starting charge=   -0.237247
     NEW-OLD atomic charge density approx. for the potential

     Check: negative/imaginary core charge=   -0.000003    0.000000
     Check: negative starting charge=   -0.237300

     negative rho (up, down):  0.245E+00 0.000E+00
 Atomic wfc used for LDA+U Projector are NOT orthogonalized

     total cpu time spent up to now is     7052.4 secs

     per-process dynamical memory:   451.8 Mb

     Self-consistent Calculation

     iteration #  1     ecut=    40.00 Ry     beta=0.70
     Davidson diagonalization with overlap
     ethr =  1.00E-06,  avg # of iterations =  3.0
 --- enter write_ns ---
 LDA+U parameters:
U( 2)     =  1.50000000
alpha( 2) =  0.00000000
atom    3   Tr[ns(na)] =   6.55829
    eigenvalues: 
  0.541  0.570  0.644  0.760  0.765
    eigenvectors:
  0.001  0.371  0.006  0.614  0.008
  0.998  0.001  0.000  0.000  0.001
  0.000  0.000  0.989  0.011  0.000
  0.000  0.628  0.005  0.362  0.005
  0.001  0.000  0.000  0.013  0.986
    occupations:
  0.689 -0.004  0.010 -0.091  0.000
 -0.004  0.541  0.001  0.002 -0.008
  0.010  0.001  0.645 -0.007 -0.001
 -0.091  0.002 -0.007  0.640 -0.000
  0.000 -0.008 -0.001 -0.000  0.764
atom    4   Tr[ns(na)] =   6.51869
    eigenvalues: 
  0.564  0.602  0.623  0.700  0.770
    eigenvectors:
  0.000  0.982  0.000  0.001  0.017
  0.000  0.001  0.006  0.993  0.000
  0.000  0.000  0.994  0.006  0.000
  0.000  0.017  0.000  0.000  0.983
  1.000  0.000  0.000  0.000  0.000
    occupations:
  0.605  0.003  0.000 -0.022  0.000
  0.003  0.700  0.006 -0.000 -0.001
  0.000  0.006  0.623  0.001 -0.000
 -0.022 -0.000  0.001  0.767 -0.000
  0.000 -0.001 -0.000 -0.000  0.564
atom    9   Tr[ns(na)] =   6.52246
    eigenvalues: 
  0.593  0.606  0.618  0.701  0.744
    eigenvectors:
  0.266  0.000  0.000  0.000  0.733
  0.000  1.000  0.000  0.000  0.000
  0.000  0.000  0.991  0.009  0.000
  0.733  0.000  0.000  0.000  0.266
  0.000  0.000  0.009  0.990  0.000
    occupations:
  0.704 -0.000 -0.001 -0.067  0.001
 -0.000  0.606  0.000  0.000  0.000
 -0.001  0.000  0.619  0.000 -0.008
 -0.067  0.000  0.000  0.633 -0.001
  0.001  0.000 -0.008 -0.001  0.700
atom   10   Tr[ns(na)] =   6.47559
    eigenvalues: 
  0.494  0.539  0.656  0.750  0.799
    eigenvectors:
  0.996  0.000  0.000  0.003  0.001
  0.001  0.000  0.000  0.000  0.999
  0.000  0.000  1.000  0.000  0.000
  0.003  0.000  0.000  0.997  0.000
  0.000  1.000  0.000  0.000  0.000
    occupations:
  0.495 -0.007  0.000 -0.015 -0.000
 -0.007  0.799  0.000 -0.001  0.001
  0.000  0.000  0.656 -0.000  0.001
 -0.015 -0.001 -0.000  0.750 -0.000
 -0.000  0.001  0.001 -0.000  0.539
atom   16   Tr[ns(na)] =   6.56589
    eigenvalues: 
  0.541  0.570  0.647  0.760  0.765
    eigenvectors:
  0.001  0.372  0.006  0.613  0.007
  0.998  0.001  0.000  0.000  0.001
  0.000  0.000  0.989  0.011  0.000
  0.000  0.627  0.005  0.364  0.004
  0.001  0.000  0.000  0.012  0.987
    occupations:
  0.688  0.004  0.009 -0.091 -0.000
  0.004  0.541 -0.000 -0.002 -0.008
  0.009 -0.000  0.649 -0.007  0.002
 -0.091 -0.002 -0.007  0.640  0.000
 -0.000 -0.008  0.002  0.000  0.765
atom   17   Tr[ns(na)] =   6.51478
    eigenvalues: 
  0.565  0.605  0.614  0.699  0.775
    eigenvectors:
  0.000  0.983  0.000  0.001  0.016
  0.000  0.001  0.005  0.995  0.000
  0.000  0.001  0.995  0.004  0.000
  0.000  0.016  0.000  0.000  0.984
  1.000  0.000  0.000  0.000  0.000
    occupations:
  0.608  0.003  0.000 -0.021  0.000
  0.003  0.698  0.006 -0.000 -0.001
  0.000  0.006  0.614  0.001 -0.000
 -0.021 -0.000  0.001  0.772 -0.000
  0.000 -0.001 -0.000 -0.000  0.565
atom   22   Tr[ns(na)] =   6.51550
    eigenvalues: 
  0.593  0.605  0.615  0.700  0.745
    eigenvectors:
  0.268  0.000  0.000  0.001  0.731
  0.000  0.999  0.000  0.000  0.000
  0.000  0.000  0.994  0.005  0.000
  0.732  0.000  0.000  0.001  0.267
  0.000  0.000  0.005  0.993  0.002
    occupations:
  0.704  0.001 -0.001 -0.067  0.002
  0.001  0.605  0.000 -0.000  0.000
 -0.001  0.000  0.616  0.000  0.006
 -0.067 -0.000  0.000  0.634 -0.001
  0.002  0.000  0.006 -0.001  0.700
atom   23   Tr[ns(na)] =   6.50488
    eigenvalues: 
  0.556  0.561  0.594  0.762  0.779
    eigenvectors:
  0.000  0.000  0.991  0.002  0.007
  0.000  0.000  0.001  0.996  0.002
  0.063  0.937  0.000  0.000  0.000
  0.000  0.000  0.007  0.002  0.991
  0.937  0.063  0.000  0.000  0.000
    occupations:
  0.596  0.006 -0.001 -0.015  0.000
  0.006  0.762  0.000  0.001  0.001
 -0.001  0.000  0.560  0.001 -0.001
 -0.015  0.001  0.001  0.777 -0.000
  0.000  0.001 -0.001 -0.000  0.557
N of occupied +U levels =  52.1760814
 --- exit write_ns ---

     negative rho (up, down):  0.245E+00 0.000E+00

     total cpu time spent up to now is     7344.0 secs

     total energy              =   -2175.58572343 Ry
     Harris-Foulkes estimate   =   -2175.58690243 Ry
     estimated scf accuracy    <       0.00137051 Ry

     iteration #  2     ecut=    40.00 Ry     beta=0.70
     Davidson diagonalization with overlap
     ethr =  5.73E-07,  avg # of iterations =  4.5

     negative rho (up, down):  0.245E+00 0.000E+00

     total cpu time spent up to now is     7608.6 secs

     total energy              =   -2175.56754960 Ry
     Harris-Foulkes estimate   =   -2175.61062764 Ry
     estimated scf accuracy    <       0.91077188 Ry

     iteration #  3     ecut=    40.00 Ry     beta=0.70
     Davidson diagonalization with overlap
     ethr =  5.73E-07,  avg # of iterations =  5.2

     negative rho (up, down):  0.245E+00 0.000E+00

     total cpu time spent up to now is     7883.6 secs

     total energy              =   -2175.58615705 Ry
     Harris-Foulkes estimate   =   -2175.58752942 Ry
     estimated scf accuracy    <       0.01272568 Ry

     iteration #  4     ecut=    40.00 Ry     beta=0.70
     Davidson diagonalization with overlap
     ethr =  5.73E-07,  avg # of iterations =  1.0

     negative rho (up, down):  0.245E+00 0.000E+00

     total cpu time spent up to now is     8122.2 secs

     total energy              =   -2175.58676020 Ry
     Harris-Foulkes estimate   =   -2175.58694217 Ry
     estimated scf accuracy    <       0.00143143 Ry

     iteration #  5     ecut=    40.00 Ry     beta=0.70
     Davidson diagonalization with overlap
     ethr =  5.73E-07,  avg # of iterations =  1.0

     negative rho (up, down):  0.245E+00 0.000E+00

     total cpu time spent up to now is     8358.0 secs

     total energy              =   -2175.58683885 Ry
     Harris-Foulkes estimate   =   -2175.58687488 Ry
     estimated scf accuracy    <       0.00021205 Ry

     iteration #  6     ecut=    40.00 Ry     beta=0.70
     Davidson diagonalization with overlap
     ethr =  8.87E-08,  avg # of iterations =  1.0

     negative rho (up, down):  0.245E+00 0.000E+00

     total cpu time spent up to now is     8594.7 secs

     total energy              =   -2175.58685359 Ry
     Harris-Foulkes estimate   =   -2175.58686466 Ry
     estimated scf accuracy    <       0.00005842 Ry

     iteration #  7     ecut=    40.00 Ry     beta=0.70
     Davidson diagonalization with overlap
     ethr =  2.44E-08,  avg # of iterations =  1.0

     negative rho (up, down):  0.245E+00 0.000E+00

     total cpu time spent up to now is     8824.9 secs

     total energy              =   -2175.58685736 Ry
     Harris-Foulkes estimate   =   -2175.58686246 Ry
[...]
    14.4299  14.4664  14.5092  14.5180  14.6431  14.7793  14.9254  14.9508
    15.0945  15.1840  15.2102  15.3005  15.3884  15.5187  15.5328  15.5690
    15.5842  15.6962  15.7301  15.8142  15.8853  15.9740  16.0872  16.2600
    16.3392  16.4064  16.4582  16.4682  16.5289  16.5545  16.5920  16.6341
    16.7214  16.7595  16.9208  16.9805  17.0265  17.0597  17.0827  17.1018
    17.3550  17.4005  17.4390  17.4555  17.5238  17.5629  17.7630  17.8328
    17.9074  17.9896  18.0756  18.1123  18.1482  18.2806  18.2928  18.3043
    18.4033  18.4404  18.4748  18.6200  18.6498  18.6718  18.6950  18.6958
    18.8932  18.9622  18.9827  19.0118  19.1028  19.1806  19.2556  19.2727
    19.3185  19.3837  19.4366  19.4493  19.4564  19.5129  19.5528  19.5879
    19.6454  19.6525  19.7247  19.7556  19.7666  19.7820  19.8129  19.9250
    20.0080  20.0572  20.0756  20.1204  20.1751  20.1849  20.2640  20.3188
    20.3360  20.3969  20.4108  20.6904  20.7345  20.7684  20.8391  20.9026
    20.9155  20.9278  20.9950  21.0126  21.0510  21.0581  21.1290  21.1363
    21.2758  21.2967  21.3555  21.4576  21.4768  21.5308  21.5857  21.6983
    21.7298  21.7651  21.8168  22.0210  22.0657  22.1423  22.2399  22.3508
    22.3785  22.3886  22.4430  22.4635  22.5260  22.6635

          k =-0.5000 0.1914 0.0000 ( 29244 PWs)   bands (ev):

   -81.3334 -81.2526 -81.1166 -81.0893 -81.0882 -80.7957 -80.7929 -80.7645
   -43.2416 -43.2095 -43.1510 -43.1451 -43.1376 -43.1293 -43.0824 -43.0756
   -43.0670 -43.0215 -42.9685 -42.9625 -42.8789 -42.8705 -42.8367 -42.7975
   -42.7729 -42.7404 -42.7245 -42.6925 -42.6875 -42.6186 -42.6122 -42.5689
   -20.5194 -20.4316 -20.3434 -19.9961 -19.8963 -19.8301 -19.7990 -19.6783
   -19.5656 -19.5278 -19.3116 -19.3065 -19.2934 -19.2475 -19.1360 -19.0940
   -19.0597 -18.3619 -18.1473  -8.4975  -8.3941  -8.3222  -8.2872  -8.2532
    -8.2430  -8.2091  -8.0806  -8.0267  -7.9970  -7.3168  -7.2637  -7.1356
    -7.0474  -7.0289  -6.9225  -6.8698  -6.6994  -6.5708  -6.4407  -6.2774
    -6.2597  -6.2232  -6.1951  -6.0356  -5.8990  -5.7519  -5.6062  -5.5297
    -5.4612  -5.4058  -5.2840  -5.2138  -5.1222  -5.0135  -4.8697  -4.8421
    -4.7644  -4.7396  -4.6666  -4.5655  -4.3515  -4.1818  -3.9617  -3.9211
    -3.5173  -3.4663  -3.4353  -3.3598  -3.3064  -3.1738  -3.0961  -3.0200
    -2.7732  -2.6803  -2.6331  -2.4575  -1.0387  -0.9649  -0.9113  -0.8338
    -0.6628  -0.6110  -0.4865  -0.4740  -0.3640  -0.1758  -0.1099  -0.0300
     0.2367   0.3225   0.5300   0.5448   0.7249   0.8825   1.0851   1.1433
     1.4453   1.4641   1.8819   1.9693   2.1975   3.6012   3.6900   3.7717
     3.7796   3.7959   4.1003   4.4193   4.5186   4.8720   5.2120   5.3465
     5.4185   5.4414   5.5170   5.6941   5.7958   6.0599   6.3068   6.3229
     6.4900   6.5678   6.7463   6.8299   6.9842   7.0504   7.1994   7.3350
     7.5845   7.7094   7.8399   7.9152   8.0233   8.0913   8.1591   8.2665
     8.4161   8.5741   8.6427   8.8185   8.9728   9.1429   9.2403   9.4127
     9.4740   9.5363   9.5801   9.6946   9.8516   9.9974  10.1082  10.2075
    10.5216  10.5975  10.6721  10.7002  10.7554  10.7802  10.8219  10.9098
    10.9420  11.0199  11.0727  11.2123  11.3455  11.4238  11.5683  11.6391
    11.7882  11.8791  11.9728  12.1001  12.1763  12.2896  12.3874  12.4489
    12.5385  12.7386  12.8032  12.8668  12.9766  13.1199  13.2117  13.4504
    13.5470  13.6108  13.7304  13.7963  13.8530  13.9941  14.2018  14.2612
    14.4045  14.4328  14.5090  14.5993  14.6533  14.6931  14.7674  14.8433
    14.8779  14.9410  14.9745  15.0659  15.1116  15.1981  15.2466  15.3773
    15.4992  15.5250  15.5706  15.7018  15.7996  15.8327  15.8906  15.9256
    15.9531  16.0848  16.1802  16.2328  16.2681  16.3455  16.4132  16.4564
    16.5454  16.5912  16.6482  16.7067  16.7988  16.8241  16.8432  16.9524
    16.9897  17.0672  17.1020  17.2187  17.2291  17.2624  17.2779  17.3388
    17.4170  17.5626  17.6053  17.6941  17.7662  17.8934  17.9545  17.9628
    17.9868  18.0780  18.2190  18.2402  18.2884  18.3161  18.3472  18.4237
    18.5116  18.5799  18.6189  18.6909  18.7942  18.8927  18.9231  19.0635
    19.1290  19.2004  19.2651  19.3408  19.4168  19.4706  19.5807  19.6185
    19.6692  19.7357  19.7787  19.9018  19.9663  19.9892  20.1651  20.1925
    20.2248  20.3260  20.3623  20.4892  20.5619  20.6189  20.7368  20.8118
    20.8333  20.8645  20.9670  21.0084  21.0440  21.1463  21.1977  21.2705
    21.3674  21.4001  21.4375  21.5113  21.5818  21.6062  21.7159  21.7338
    21.7519  21.7920  21.8351  21.8601  21.9102  21.9349  21.9724  22.0149
    22.0840  22.1813  22.2904  22.3496  22.3939  22.4146  22.4580  22.5134
    22.5562  22.6095  22.6999  22.7131  22.8021  22.8274

          k =-0.5000-0.3828 0.0000 ( 29192 PWs)   bands (ev):

   -81.3335 -81.2527 -81.1166 -81.0893 -81.0882 -80.7956 -80.7928 -80.7645
   -43.2416 -43.2087 -43.1510 -43.1452 -43.1368 -43.1220 -43.0826 -43.0749
   -43.0748 -43.0215 -42.9684 -42.9624 -42.8789 -42.8705 -42.8362 -42.7975
   -42.7728 -42.7405 -42.7256 -42.6932 -42.6882 -42.6185 -42.6121 -42.5687
   -20.5073 -20.4245 -20.3408 -19.8696 -19.8537 -19.8394 -19.7477 -19.6837
   -19.6694 -19.6616 -19.3246 -19.2971 -19.2874 -19.2589 -19.1300 -19.0981
   -19.0584 -18.3623 -18.1476  -8.4746  -8.3868  -8.2981  -8.2855  -8.2822
    -8.2141  -8.1903  -8.0752  -8.0144  -7.9924  -7.2784  -7.2007  -7.0573
    -6.8863  -6.8648  -6.8282  -6.7256  -6.6998  -6.6166  -6.5782  -6.5360
    -6.4581  -6.1955  -6.1567  -6.0359  -5.8982  -5.6143  -5.5762  -5.5538
    -5.5105  -5.4759  -5.3460  -5.3171  -5.2931  -5.1806  -4.9818  -4.9013
    -4.8650  -4.7698  -4.7122  -4.6605  -4.1367  -4.1148  -3.9873  -3.8846
    -3.6333  -3.5588  -3.4351  -3.3892  -3.2561  -3.1537  -3.0580  -3.0306
    -2.7424  -2.5598  -2.4996  -2.4507  -1.1101  -1.0890  -1.0499  -0.8789
    -0.7490  -0.6689  -0.6020  -0.4452  -0.1816  -0.0184   0.2618   0.3681
     0.4963   0.5130   0.6904   0.8318   0.9441   1.1018   1.1538   1.1810
     1.5502   1.5756   1.6034   1.7009   2.2452   2.9307   2.9502   3.0158
     3.0641   3.7032   4.1492   4.5633   4.6050   4.9601   5.3541   5.5007
     5.5402   5.6937   5.8276   5.9776   6.1148   6.2792   6.3036   6.4547
     6.4549   6.6655   6.8643   6.8693   6.9909   7.0035   7.1698   7.2123
     7.2905   7.3804   7.5097   7.6592   7.7508   7.8827   7.9831   8.1673
     8.1877   8.4912   8.5507   8.7288   8.7700   8.8174   8.9162   9.1223
     9.2628   9.4745   9.6675   9.9471   9.9908  10.0651  10.0926  10.2528
    10.5181  10.6243  10.8007  10.9952  11.0485  11.1215  11.1660  11.2358
    11.3214  11.3760  11.4449  11.5266  11.6537  11.7597  11.8308  12.1806
    12.1939  12.4147  12.5529  12.6312  12.7864  12.8708  12.9227  13.0239
    13.0458  13.0746  13.0933  13.1712  13.2169  13.3213  13.3251  13.3895
    13.4247  13.4437  13.5559  13.6527  13.7246  13.7868  13.8271  13.8772
    13.9336  13.9870  14.0738  14.1715  14.2851  14.3170  14.4476  14.5970
    14.6286  14.6719  14.6953  14.7114  14.7548  14.9671  15.0381  15.1045
    15.1713  15.2573  15.3134  15.4113  15.4251  15.4674  15.5156  15.6762
    15.8469  15.8675  15.9478  16.0560  16.1370  16.1854  16.2929  16.3370
    16.3497  16.4082  16.5396  16.6217  16.7709  16.7746  16.8220  16.8367
    16.9291  17.0359  17.0944  17.2157  17.2490  17.2914  17.3183  17.3678
    17.4649  17.5845  17.6209  17.6392  17.6807  17.7146  17.7725  17.7851
    17.8619  17.9600  18.0758  18.1272  18.1460  18.1865  18.2473  18.2545
    18.3062  18.3320  18.3870  18.4394  18.5428  18.5964  18.6354  18.6725
    18.8107  18.8913  18.9045  18.9396  19.0489  19.0683  19.2447  19.3532
    19.4883  19.6158  19.6781  19.7271  19.8628  19.9721  20.0818  20.1244
    20.2021  20.2616  20.4127  20.5137  20.6495  20.6804  20.7226  20.7936
    20.8398  20.9240  21.0001  21.2568  21.3013  21.3131  21.3660  21.4051
    21.4776  21.5164  21.6748  21.7492  21.8126  21.8608  22.0027  22.1230
    22.1470  22.1850  22.2625  22.2911  22.3708  22.3881  22.4669  22.5323
    22.6164  22.7574  22.8095  22.8298  22.8878  22.9535  22.9687  23.0245
    23.0514  23.1425  23.2046  23.2590  23.3254  23.4128

          k =-0.2500 0.1914 0.0000 ( 29229 PWs)   bands (ev):

   -81.3402 -81.2505 -81.1194 -81.1107 -81.0708 -80.8161 -80.7768 -80.7657
   -43.4175 -43.2696 -43.2494 -43.2324 -43.1398 -43.1390 -43.1075 -43.0931
   -43.0506 -43.0328 -42.9945 -42.9333 -42.9318 -42.8258 -42.8167 -42.7985
   -42.7632 -42.7216 -42.7203 -42.7176 -42.6586 -42.6345 -42.3582 -42.3012
   -20.8193 -20.3736 -20.2913 -20.1832 -20.1002 -19.7940 -19.7413 -19.7170
   -19.5519 -19.4765 -19.4025 -19.3520 -19.2671 -19.1135 -19.0754 -19.0348
   -18.8523 -18.3126 -18.0337  -8.9948  -8.7016  -8.6248  -8.5941  -8.4372
    -8.2994  -8.2692  -8.0945  -8.0192  -7.9284  -7.7609  -7.7042  -7.4471
    -7.3397  -7.2912  -6.9878  -6.8538  -6.7218  -6.6180  -6.5210  -6.4365
    -6.3593  -6.0578  -5.9659  -5.7771  -5.7245  -5.6494  -5.5176  -5.4402
    -5.3219  -5.1034  -4.9852  -4.9616  -4.8476  -4.7655  -4.7372  -4.6734
    -4.5844  -4.5222  -4.4257  -4.3126  -4.1304  -3.9522  -3.8710  -3.7878
    -3.6953  -3.5954  -3.5478  -3.3646  -3.3207  -3.2562  -3.1491  -3.0304
    -2.8069  -2.7095  -2.6308  -2.4863  -2.1386  -1.9587  -1.8980  -1.0773
    -0.9250  -0.8492  -0.7176  -0.1079   0.0013   0.4548   0.5244   0.6190
     0.7240   0.8423   0.9509   1.1615   1.3555   1.3950   1.5509   1.6209
     1.7275   1.9121   1.9517   2.1552   2.4286   3.6845   3.7000   3.7948
     3.8357   4.0109   4.0656   4.3175   4.5099   4.6173   4.7500   4.9046
     4.9654   5.2028   5.3494   5.6206   5.8600   5.9019   6.1180   6.2862
     6.4547   6.5073   6.7033   6.8816   7.0021   7.0867   7.2981   7.5424
     7.6864   7.7789   7.9358   8.1069   8.2644   8.3496   8.4959   8.5791
     8.6290   8.7191   8.9491   9.0348   9.1217   9.3759   9.4320   9.5929
     9.6304   9.6802   9.8160   9.8863   9.9166   9.9878  10.0927  10.1902
    10.2375  10.3467  10.3833  10.4438  10.5249  10.7245  10.7541  10.8741
    11.0007  11.1117  11.1704  11.2734  11.4627  11.5450  11.6795  11.7392
    11.8170  11.9221  12.0358  12.2161  12.3379  12.4627  12.5884  12.6194
    12.6509  12.7488  12.8056  12.8806  12.9372  13.0371  13.0926  13.2251
    13.2739  13.4182  13.5032  13.6289  13.6763  13.7436  13.8276  13.8599
    13.9417  13.9534  14.0159  14.0825  14.1335  14.2438  14.3270  14.4075
    14.4914  14.5167  14.5737  14.6567  14.7095  14.7509  14.8458  14.8884
    14.9468  14.9863  15.0164  15.0839  15.1326  15.2072  15.3011  15.4404
    15.5157  15.6022  15.6499  15.7300  15.8329  15.9362  16.0707  16.1384
    16.1798  16.2361  16.3077  16.4710  16.5270  16.5828  16.6084  16.6883
    16.7835  16.8724  16.9481  17.0097  17.1089  17.2027  17.2511  17.2711
    17.3535  17.4847  17.6077  17.6588  17.7290  17.7812  17.8292  17.9410
    17.9682  18.0345  18.1222  18.1703  18.2629  18.2794  18.3971  18.4549
    18.5210  18.5787  18.6386  18.7009  18.7556  18.8585  18.9234  19.0237
    19.0812  19.2292  19.3070  19.3480  19.4796  19.5441  19.6243  19.6776
    19.7448  19.8405  19.9342  20.0177  20.1345  20.1795  20.2382  20.3068
    20.4537  20.5140  20.5791  20.6202  20.6792  20.7520  20.7731  20.8324
    20.8822  20.9597  20.9765  21.1217  21.1588  21.2028  21.2514  21.3166
    21.4007  21.4451  21.5078  21.6104  21.6464  21.6984  21.7619  21.8393
    21.9291  21.9991  22.0835  22.1174  22.2184  22.2397  22.3149  22.3511
    22.4021  22.4467  22.4882  22.5430  22.6220  22.6686  22.6938  22.7308
    22.7839  22.8404  22.8823  22.9311  22.9870  23.0740

     the Fermi energy is     0.5488 ev

!    total energy              =   -2175.58693608 Ry
     Harris-Foulkes estimate   =   -2175.58693608 Ry
     estimated scf accuracy    <          6.6E-10 Ry

     The total energy is the sum of the following terms:

     one-electron contribution =  -24262.38700115 Ry
     hartree contribution      =   12148.99298018 Ry
     xc contribution           =    -595.02152466 Ry
     ewald contribution        =   10531.86191350 Ry
     Hubbard energy            =       0.96761539 Ry
     smearing contrib. (-TS)   =      -0.00091933 Ry

     convergence has been achieved in  16 iterations

     Forces acting on atoms (Ry/au):


     negative rho (up, down):  0.245E+00 0.000E+00
     atom    1 type  1   force =    -0.00565434   -0.00708702    0.00008058
     atom    2 type  1   force =     0.00007113    0.00576538    0.00023987
     atom    3 type  2   force =     0.03056593   -0.00397230    0.00001301
     atom    4 type  2   force =     0.00175365    0.00742081    0.00041745
     atom    5 type  1   force =     0.00281655    0.01208632    0.00039760
     atom    6 type  1   force =     0.00114190   -0.01255383    0.00028869
     atom    7 type  1   force =     0.00337243    0.00011353    0.00043792
     atom    8 type  1   force =     0.00308253   -0.00167578    0.00033616
     atom    9 type  2   force =    -0.02530476    0.00177350   -0.00034998
     atom   10 type  2   force =    -0.00725547   -0.00056451   -0.00021488
     atom   11 type  1   force =    -0.00579210   -0.01064065   -0.00046696
     atom   12 type  1   force =    -0.00591655    0.01076983   -0.00039085
     atom   13 type  1   force =    -0.00057698   -0.00015788   -0.00031605
     atom   14 type  1   force =    -0.00260667   -0.00631462   -0.00005780
     atom   15 type  1   force =     0.00025452    0.00453602    0.00031297
     atom   16 type  2   force =    -0.03127960   -0.00398525    0.00005121
     atom   17 type  2   force =     0.00126257    0.00776005    0.00027391
     atom   18 type  1   force =     0.00106665    0.01259109    0.00033756
     atom   19 type  1   force =    -0.00085042   -0.01290344    0.00029194
     atom   20 type  1   force =    -0.00239893   -0.00136090   -0.00058461
     atom   21 type  1   force =     0.00184871   -0.00161753    0.00042482
     atom   22 type  2   force =     0.02124100    0.00186764   -0.00040517
     atom   23 type  2   force =    -0.00033154   -0.00054679   -0.00038742
     atom   24 type  1   force =     0.00921486   -0.00912355   -0.00045349
     atom   25 type  1   force =     0.00902262    0.00879127   -0.00047963
     atom   26 type  1   force =     0.00078988   -0.00063724   -0.00012777
     atom   27 type  3   force =     0.00000923   -0.00006108    0.00046999
     atom   28 type  3   force =    -0.00001583   -0.00016892    0.00027412
     atom   29 type  3   force =     0.00002592    0.00010054   -0.00006039
     atom   30 type  3   force =     0.00017111   -0.00007709   -0.00003446
     atom   31 type  1   force =    -0.00010663   -0.00002247    0.00019710
     atom   32 type  3   force =     0.00037861   -0.00010514   -0.00051542

     Total force =     0.001985     Total SCF correction =     0.000092

     bfgs converged in   5 scf cycles and   4 bfgs steps
     (criteria: energy < 0.10E-03, force < 0.10E-02)

     End of BFGS Geometry Optimization

     Final energy   =   -2175.5869360795 Ry
Begin final coordinates

ATOMIC_POSITIONS (crystal)
O0       0.000000000   0.000000000   0.370789558    0   0   1
O0       0.000000000   0.500000000   0.382144496    0   0   1
Re1      0.250000000   0.500000000   0.441811969    0   0   1
Re1      0.000000000   0.000000000   0.443458218    0   0   1
O0       0.250000000   0.780000000   0.441815592    0   0   1
O0       0.250000000   0.220000000   0.441649076    0   0   1
O0       0.000000000   0.500000000   0.496975383    0   0   1
O0       0.000000000   0.000000000   0.514897232    0   0   1
Re1      0.250000000   0.000000000   0.574812822    0   0   1
Re1      0.000000000   0.500000000   0.566080093    0   0   1
O0       0.250000000   0.720000000   0.572954812    0   0   1
O0       0.250000000   0.280000000   0.573030239    0   0   1
O0       0.000000000   0.000000000   0.627069830    0   0   1
O0       0.500000000   0.000000000   0.370820999    0   0   1
O0       0.500000000   0.500000000   0.382493108    0   0   1
Re1      0.750000000   0.500000000   0.441823104    0   0   1
Re1      0.500000000   0.000000000   0.443234855    0   0   1
O0       0.750000000   0.780000000   0.441756909    0   0   1
O0       0.750000000   0.220000000   0.441721834    0   0   1
O0       0.500000000   0.500000000   0.499211044    0   0   1
O0       0.500000000   0.000000000   0.514728986    0   0   1
Re1      0.750000000   0.000000000   0.574646633    0   0   1
Re1      0.500000000   0.500000000   0.572703345    0   0   1
O0       0.750000000   0.720000000   0.572158613    0   0   1
O0       0.750000000   0.280000000   0.572156224    0   0   1
O0       0.500000000   0.000000000   0.626369660    0   0   1
H2      -0.000357621   0.625000153   0.365233458
H2       0.499612668   0.622923953   0.364603360
H2       0.169133025   0.023139242   0.356497792
H2       0.670167175   0.021803681   0.356685091
O0       0.527696750   0.499654966   0.643715692
H2       0.379058835   0.499123388   0.664979972
End final coordinates



     init_run     :    140.48s CPU    144.58s WALL (       1 calls)
     electrons    :  20545.81s CPU  21214.04s WALL (       5 calls)
     update_pot   :     77.46s CPU     79.20s WALL (       4 calls)
     forces       :    967.05s CPU   1014.26s WALL (       5 calls)

     Called by init_run:
     wfcinit      :     37.92s CPU     39.94s WALL (       1 calls)
     potinit      :      7.13s CPU      7.48s WALL (       1 calls)

     Called by electrons:
     c_bands      :   8570.35s CPU   8832.07s WALL (      88 calls)
     sum_band     :   4565.52s CPU   4727.47s WALL (      88 calls)
     v_of_rho     :     84.79s CPU     89.05s WALL (      90 calls)
     newd         :   7613.43s CPU   7677.79s WALL (      90 calls)
     mix_rho      :     15.09s CPU     15.45s WALL (      88 calls)

     Called by c_bands:
     init_us_2    :     21.65s CPU     21.92s WALL (     576 calls)
     cegterg      :   8382.73s CPU   8598.03s WALL (     264 calls)

     Called by *egterg:
     h_psi        :   4833.59s CPU   4970.00s WALL (     749 calls)
     s_psi        :    597.60s CPU    604.84s WALL (     779 calls)
     g_psi        :     10.04s CPU     10.05s WALL (     482 calls)
     cdiaghg      :    806.46s CPU    808.71s WALL (     725 calls)

     Called by h_psi:
     add_vuspsi   :    579.56s CPU    587.46s WALL (     749 calls)
     vhpsi        :    460.35s CPU    469.40s WALL (     749 calls)

     General routines
     calbec       :   1346.46s CPU   1368.89s WALL (    6406 calls)
     fft          :    154.13s CPU    221.49s WALL (    1491 calls)
     ffts         :      1.48s CPU      1.54s WALL (     178 calls)
     fftw         :   2740.01s CPU   2882.31s WALL (  495518 calls)
     interpolate  :     12.74s CPU     12.95s WALL (     178 calls)
     davcio       :      0.05s CPU      8.34s WALL (     591 calls)

     Parallel routines
     fft_scatter  :   1058.12s CPU   1262.28s WALL (  497187 calls)
     Hubbard U routines
     new_ns       :    107.30s CPU    113.27s WALL (      88 calls)
     vhpsi        :    460.35s CPU    469.40s WALL (     749 calls)
     force_hub    :    203.36s CPU    208.19s WALL (       5 calls)

     PWSCF        :     6h 9m CPU        6h21m WALL


   This run was terminated on:  13:11:17   1May2014            

=------------------------------------------------------------------------------=
   JOB DONE.
=------------------------------------------------------------------------------=
---------------------------------------
Running PBS batch system epilogue script
Job id: 340623.audhumbla.fysik.dtu.dk
Username: zhonxu
Groupname: campgst
Jobname: ReO2/Eads-2-layers/OH-U-1.5
Sessionid: 7723
Resources limits: neednodes=2:ppn=8:xeon8,nodes=2:ppn=8:xeon8,walltime=48:00:00
Resources used: cput=101:37:25,mem=17145716kb,vmem=20946260kb,walltime=06:21:25
Queuename: verylong
Accounting:
This job has allocated the following 16 nodes:
a058 a058 a058 a058 a058 a058 a058 a058 a021 a021 a021 a021 a021 a021 a021 a021
Finished epilogue job 340623.audhumbla.fysik.dtu.dk for zhonxu
