
     Program PWSCF v.5.0.2 (svn rev. 9656) starts on 27Feb2014 at 20:52:26 

     This program is part of the open-source Quantum ESPRESSO suite
     for quantum simulation of materials; please cite
         "P. Giannozzi et al., J. Phys.:Condens. Matter 21 395502 (2009);
          URL http://www.quantum-espresso.org", 
     in publications or presentations arising from this work. More details at
     http://www.quantum-espresso.org/quote.php

     Parallel version (MPI), running on    24 processors
     R & G space division:  proc/nbgrp/npool/nimage =      24

     Current dimensions of program PWSCF are:
     Max number of different atomic species (ntypx) = 10
     Max number of k-points (npk) =  40000
     Max angular momentum in pseudopotentials (lmaxx) =  3
     Reading input from slab-relax.in
Warning: card &CELL ignored
Warning: card / ignored

     Subspace diagonalization in iterative solution of the eigenvalue problem:
     a serial algorithm will be used

     Found symmetry operation: I + ( -0.5000  0.0000  0.0000)
     This is a supercell, fractional translations are disabled

     Parallelization info
     --------------------
     sticks:   dense  smooth     PW     G-vecs:    dense   smooth      PW
     Min         237      76     21                76695    13866    2037
     Max         238      77     22                76708    13928    2067
     Sum        5697    1827    505              1840805   333393   49337



     bravais-lattice index     =            0
     lattice parameter (alat)  =      11.7541  a.u.
     unit-cell volume          =    9749.5977 (a.u.)^3
     number of atoms/cell      =           48
     number of atomic types    =            2
     number of electrons       =       432.00
     number of Kohn-Sham states=          648
     kinetic-energy cutoff     =      40.0000  Ry
     charge density cutoff     =     500.0000  Ry
     convergence threshold     =      1.0E-06
     mixing beta               =       0.3000
     number of iterations used =            8  plain     mixing
     Exchange-correlation      = SLA  PW   PBE  PBE ( 1 4 3 4 0)
     EXX-fraction              =        0.00
     nstep                     =           50


     celldm(1)=  11.754097  celldm(2)=   0.000000  celldm(3)=   0.000000
     celldm(4)=   0.000000  celldm(5)=   0.000000  celldm(6)=   0.000000

     crystal axes: (cart. coord. in units of alat)
               a(1) = (   1.000000   0.000000   0.000000 )  
               a(2) = (   0.000000   1.034513   0.000000 )  
               a(3) = (   0.000000   0.000000   5.803406 )  

     reciprocal axes: (cart. coord. in units 2 pi/alat)
               b(1) = (  1.000000  0.000000  0.000000 )  
               b(2) = (  0.000000  0.966638  0.000000 )  
               b(3) = (  0.000000  0.000000  0.172313 )  


     PseudoPot. # 1 for O  read from file:
     /home/camp/zhonxu/pseudo/o_pbe_v1.01.uspp.F.UPF
     MD5 check sum: 2bcb18d16ea4b960afae9ec6d52f22d2
     Pseudo is Ultrasoft + core correction, Zval =  6.0
     Generated by new atomic code, or converted to UPF format
     Using radial grid of  737 points,  5 beta functions with: 
                l(1) =   0
                l(2) =   0
                l(3) =   1
                l(4) =   1
                l(5) =   2
     Q(r) pseudized with  8 coefficients,  rinner =    0.900   0.900   0.900
                                                       0.900   0.900

     PseudoPot. # 2 for Rh read from file:
     /home/camp/zhonxu/pseudo/rh_pbe_v1.uspp.F.UPF
     MD5 check sum: 37b626987ad0dd8ec6bf4cc9ef289918
     Pseudo is Ultrasoft + core correction, Zval = 15.0
     Generated by new atomic code, or converted to UPF format
     Using radial grid of  969 points,  7 beta functions with: 
                l(1) =   0
                l(2) =   0
                l(3) =   1
                l(4) =   1
                l(5) =   2
                l(6) =   2
                l(7) =   2
     Q(r) pseudized with  6 coefficients,  rinner =    1.050   1.050   1.050
                                                       1.050   1.050

     atomic species   valence    mass     pseudopotential
        O0             6.00    15.99940     O ( 1.00)
        Rh1           15.00   102.90550     Rh( 1.00)

      4 Sym. Ops. (no inversion) found



   Cartesian axes

     site n.     atom                  positions (alat units)
         1           O0  tau(   1) = (   0.0000000   0.5172566   1.9292842  )
         2           Rh1 tau(   2) = (   0.2500000   0.5172566   2.1258455  )
         3           Rh1 tau(   3) = (   0.0000000   0.0000000   2.1258455  )
         4           O0  tau(   4) = (   0.2500000   0.8379556   2.1258455  )
         5           O0  tau(   5) = (   0.2500000   0.1965575   2.1258455  )
         6           O0  tau(   6) = (   0.0000000   0.5172566   2.3223488  )
         7           O0  tau(   7) = (   0.0000000   0.0000000   2.4465417  )
         8           Rh1 tau(   8) = (   0.2500000   0.0000000   2.6431030  )
         9           Rh1 tau(   9) = (   0.0000000   0.5172566   2.6431030  )
        10           O0  tau(  10) = (   0.2500000   0.7138141   2.6431030  )
        11           O0  tau(  11) = (   0.2500000   0.3206991   2.6431030  )
        12           O0  tau(  12) = (   0.0000000   0.0000000   2.8396064  )
        13           O0  tau(  13) = (   0.0000000   0.5172566   2.9637992  )
        14           Rh1 tau(  14) = (   0.2500000   0.5172566   3.1603026  )
        15           Rh1 tau(  15) = (   0.0000000   0.0000000   3.1603026  )
        16           O0  tau(  16) = (   0.2500000   0.8379556   3.1603026  )
        17           O0  tau(  17) = (   0.2500000   0.1965575   3.1603026  )
        18           O0  tau(  18) = (   0.0000000   0.5172566   3.3568639  )
        19           O0  tau(  19) = (   0.0000000   0.0000000   3.4810568  )
        20           Rh1 tau(  20) = (   0.2500000   0.0000000   3.6775601  )
        21           Rh1 tau(  21) = (   0.0000000   0.5172566   3.6775601  )
        22           O0  tau(  22) = (   0.2500000   0.7138141   3.6775601  )
        23           O0  tau(  23) = (   0.2500000   0.3206991   3.6775601  )
        24           O0  tau(  24) = (   0.0000000   0.0000000   3.8741214  )
        25           O0  tau(  25) = (   0.5000000   0.5172566   1.9292842  )
        26           Rh1 tau(  26) = (   0.7500000   0.5172566   2.1258455  )
        27           Rh1 tau(  27) = (   0.5000000   0.0000000   2.1258455  )
        28           O0  tau(  28) = (   0.7500000   0.8379556   2.1258455  )
        29           O0  tau(  29) = (   0.7500000   0.1965575   2.1258455  )
        30           O0  tau(  30) = (   0.5000000   0.5172566   2.3223488  )
        31           O0  tau(  31) = (   0.5000000   0.0000000   2.4465417  )
        32           Rh1 tau(  32) = (   0.7500000   0.0000000   2.6431030  )
        33           Rh1 tau(  33) = (   0.5000000   0.5172566   2.6431030  )
        34           O0  tau(  34) = (   0.7500000   0.7138141   2.6431030  )
        35           O0  tau(  35) = (   0.7500000   0.3206991   2.6431030  )
        36           O0  tau(  36) = (   0.5000000   0.0000000   2.8396064  )
        37           O0  tau(  37) = (   0.5000000   0.5172566   2.9637992  )
        38           Rh1 tau(  38) = (   0.7500000   0.5172566   3.1603026  )
        39           Rh1 tau(  39) = (   0.5000000   0.0000000   3.1603026  )
        40           O0  tau(  40) = (   0.7500000   0.8379556   3.1603026  )
        41           O0  tau(  41) = (   0.7500000   0.1965575   3.1603026  )
        42           O0  tau(  42) = (   0.5000000   0.5172566   3.3568639  )
        43           O0  tau(  43) = (   0.5000000   0.0000000   3.4810568  )
        44           Rh1 tau(  44) = (   0.7500000   0.0000000   3.6775601  )
        45           Rh1 tau(  45) = (   0.5000000   0.5172566   3.6775601  )
        46           O0  tau(  46) = (   0.7500000   0.7138141   3.6775601  )
        47           O0  tau(  47) = (   0.7500000   0.3206991   3.6775601  )
        48           O0  tau(  48) = (   0.5000000   0.0000000   3.8741214  )

     number of k points=     9  Methfessel-Paxton smearing, width (Ry)=  0.0100
                       cart. coord. in units 2pi/alat
        k(    1) = (   0.0000000   0.0000000   0.0000000), wk =   0.1250000
        k(    2) = (   0.0000000   0.2416596   0.0000000), wk =   0.2500000
        k(    3) = (   0.0000000  -0.4833191   0.0000000), wk =   0.1250000
        k(    4) = (   0.2500000   0.0000000   0.0000000), wk =   0.2500000
        k(    5) = (   0.2500000   0.2416596   0.0000000), wk =   0.5000000
        k(    6) = (   0.2500000  -0.4833191   0.0000000), wk =   0.2500000
        k(    7) = (  -0.5000000   0.0000000   0.0000000), wk =   0.1250000
        k(    8) = (  -0.5000000   0.2416596   0.0000000), wk =   0.2500000
        k(    9) = (  -0.5000000  -0.4833191   0.0000000), wk =   0.1250000

     Dense  grid:  1840805 G-vectors     FFT dimensions: (  90,  90, 486)

     Smooth grid:   333393 G-vectors     FFT dimensions: (  48,  50, 288)

     Largest allocated arrays     est. size (Mb)     dimensions
        Kohn-Sham Wavefunctions        17.84 Mb     (   1804,  648)
        NL pseudopotentials            21.58 Mb     (   1804,  784)
        Each V/rho on FFT grid          2.60 Mb     ( 170100)
        Each G-vector array             0.59 Mb     (  76701)
        G-vector shells                 0.29 Mb     (  37517)
     Largest temporary arrays     est. size (Mb)     dimensions
        Auxiliary wavefunctions        71.35 Mb     (   1804, 2592)
        Each subspace H/S matrix      102.52 Mb     (2592,2592)
        Each <psi_i|beta_j> matrix      7.75 Mb     (    784,  648)
        Arrays for rho mixing          20.76 Mb     ( 170100,   8)

     Check: negative/imaginary core charge=   -0.000003    0.000000

     Initial potential from superposition of free atoms
     Check: negative starting charge=   -1.288865

     starting charge  423.99838, renormalised to  432.00000

     negative rho (up, down):  0.131E+01 0.000E+00
     Starting wfc are  320 randomized atomic wfcs

     total cpu time spent up to now is      173.1 secs

     per-process dynamical memory:   274.3 Mb

     Self-consistent Calculation

     iteration #  1     ecut=    40.00 Ry     beta=0.30
     Davidson diagonalization with overlap
     ethr =  1.00E-02,  avg # of iterations =  5.9

     negative rho (up, down):  0.133E+01 0.000E+00

     total cpu time spent up to now is     2060.4 secs

     total energy              =   -3751.33468695 Ry
     Harris-Foulkes estimate   =   -3764.21959762 Ry
     estimated scf accuracy    <      27.89366734 Ry

     iteration #  2     ecut=    40.00 Ry     beta=0.30
     Davidson diagonalization with overlap
     ethr =  6.46E-03,  avg # of iterations =  1.3

     negative rho (up, down):  0.134E+01 0.000E+00

     total cpu time spent up to now is     2508.9 secs

     total energy              =   -3748.60511343 Ry
     Harris-Foulkes estimate   =   -3760.01669315 Ry
     estimated scf accuracy    <      53.81600220 Ry

     iteration #  3     ecut=    40.00 Ry     beta=0.30
     Davidson diagonalization with overlap
     ethr =  6.46E-03,  avg # of iterations =  3.9

     negative rho (up, down):  0.134E+01 0.000E+00

     total cpu time spent up to now is     3166.3 secs

     total energy              =   -3742.61924508 Ry
     Harris-Foulkes estimate   =   -3773.15322236 Ry
     estimated scf accuracy    <     671.29120740 Ry

     iteration #  4     ecut=    40.00 Ry     beta=0.30
     Davidson diagonalization with overlap
     ethr =  6.46E-03,  avg # of iterations =  2.8

     negative rho (up, down):  0.134E+01 0.000E+00

     total cpu time spent up to now is     3748.2 secs

     total energy              =   -3757.85996531 Ry
     Harris-Foulkes estimate   =   -3759.26746555 Ry
     estimated scf accuracy    <       8.40729547 Ry

     iteration #  5     ecut=    40.00 Ry     beta=0.30
     Davidson diagonalization with overlap
     ethr =  1.95E-03,  avg # of iterations =  2.0

     negative rho (up, down):  0.135E+01 0.000E+00

     total cpu time spent up to now is     4254.8 secs

     total energy              =   -3758.13792724 Ry
     Harris-Foulkes estimate   =   -3758.46130959 Ry
     estimated scf accuracy    <       5.94359156 Ry

     iteration #  6     ecut=    40.00 Ry     beta=0.30
     Davidson diagonalization with overlap
     ethr =  1.38E-03,  avg # of iterations =  1.2

     negative rho (up, down):  0.135E+01 0.000E+00

     total cpu time spent up to now is     4713.3 secs

     total energy              =   -3758.15522506 Ry
     Harris-Foulkes estimate   =   -3758.31507725 Ry
     estimated scf accuracy    <       4.81131782 Ry

     iteration #  7     ecut=    40.00 Ry     beta=0.30
     Davidson diagonalization with overlap
     ethr =  1.11E-03,  avg # of iterations =  2.9

     negative rho (up, down):  0.135E+01 0.000E+00

     total cpu time spent up to now is     5272.9 secs

     total energy              =   -3758.04622893 Ry
     Harris-Foulkes estimate   =   -3758.37044079 Ry
     estimated scf accuracy    <      16.98336702 Ry

     iteration #  8     ecut=    40.00 Ry     beta=0.30
     Davidson diagonalization with overlap
     ethr =  1.11E-03,  avg # of iterations =  1.8

     negative rho (up, down):  0.136E+01 0.000E+00

     total cpu time spent up to now is     5761.3 secs

     total energy              =   -3758.03458455 Ry
     Harris-Foulkes estimate   =   -3758.18686411 Ry
     estimated scf accuracy    <       0.88833393 Ry

     iteration #  9     ecut=    40.00 Ry     beta=0.30
     Davidson diagonalization with overlap
     ethr =  2.06E-04,  avg # of iterations =  5.1

     negative rho (up, down):  0.137E+01 0.000E+00

     total cpu time spent up to now is     6463.5 secs

     total energy              =   -3758.09466495 Ry
     Harris-Foulkes estimate   =   -3758.13887483 Ry
     estimated scf accuracy    <       0.72476699 Ry

     iteration # 10     ecut=    40.00 Ry     beta=0.30
     Davidson diagonalization with overlap
     ethr =  1.68E-04,  avg # of iterations =  1.0

     negative rho (up, down):  0.136E+01 0.000E+00

     total cpu time spent up to now is     6907.0 secs

     total energy              =   -3758.01287161 Ry
     Harris-Foulkes estimate   =   -3758.15669514 Ry
     estimated scf accuracy    <       1.82898596 Ry

     iteration # 11     ecut=    40.00 Ry     beta=0.30
     Davidson diagonalization with overlap
     ethr =  1.68E-04,  avg # of iterations =  1.0

     negative rho (up, down):  0.137E+01 0.000E+00

     total cpu time spent up to now is     7364.7 secs

     total energy              =   -3758.10060784 Ry
     Harris-Foulkes estimate   =   -3758.11590834 Ry
     estimated scf accuracy    <       0.26430380 Ry

     iteration # 12     ecut=    40.00 Ry     beta=0.30
     Davidson diagonalization with overlap
     ethr =  6.12E-05,  avg # of iterations =  1.2

     negative rho (up, down):  0.137E+01 0.000E+00

     total cpu time spent up to now is     7839.2 secs

     total energy              =   -3758.09520722 Ry
     Harris-Foulkes estimate   =   -3758.11731722 Ry
     estimated scf accuracy    <       0.21725558 Ry

     iteration # 13     ecut=    40.00 Ry     beta=0.30
     Davidson diagonalization with overlap
     ethr =  5.03E-05,  avg # of iterations =  4.2

     negative rho (up, down):  0.138E+01 0.000E+00

     total cpu time spent up to now is     8478.4 secs

     total energy              =   -3758.09029943 Ry
     Harris-Foulkes estimate   =   -3758.11364604 Ry
     estimated scf accuracy    <       0.29579296 Ry

     iteration # 14     ecut=    40.00 Ry     beta=0.30
     Davidson diagonalization with overlap
     ethr =  5.03E-05,  avg # of iterations =  1.1

     negative rho (up, down):  0.138E+01 0.000E+00

     total cpu time spent up to now is     8928.7 secs

     total energy              =   -3758.10145094 Ry
     Harris-Foulkes estimate   =   -3758.10470412 Ry
     estimated scf accuracy    <       0.03490568 Ry

     iteration # 15     ecut=    40.00 Ry     beta=0.30
     Davidson diagonalization with overlap
     ethr =  8.08E-06,  avg # of iterations =  5.2

     negative rho (up, down):  0.138E+01 0.000E+00

     total cpu time spent up to now is     9657.8 secs

     total energy              =   -3758.09925809 Ry
     Harris-Foulkes estimate   =   -3758.10652776 Ry
     estimated scf accuracy    <       0.16567889 Ry

     iteration # 16     ecut=    40.00 Ry     beta=0.30
     Davidson diagonalization with overlap
     ethr =  8.08E-06,  avg # of iterations =  2.3

     negative rho (up, down):  0.138E+01 0.000E+00

     total cpu time spent up to now is    10187.4 secs

     total energy              =   -3758.10063565 Ry
     Harris-Foulkes estimate   =   -3758.10414918 Ry
     estimated scf accuracy    <       0.02685690 Ry

     iteration # 17     ecut=    40.00 Ry     beta=0.30
     Davidson diagonalization with overlap
     ethr =  6.22E-06,  avg # of iterations =  6.2

     negative rho (up, down):  0.138E+01 0.000E+00

     total cpu time spent up to now is    10993.0 secs

     total energy              =   -3758.08339336 Ry
     Harris-Foulkes estimate   =   -3758.12199741 Ry
     estimated scf accuracy    <       2.97820891 Ry

     iteration # 18     ecut=    40.00 Ry     beta=0.30
     Davidson diagonalization with overlap
     ethr =  6.22E-06,  avg # of iterations =  4.6

     negative rho (up, down):  0.138E+01 0.000E+00

     total cpu time spent up to now is    11682.5 secs

     total energy              =   -3758.10199155 Ry
     Harris-Foulkes estimate   =   -3758.10410737 Ry
     estimated scf accuracy    <       0.03187111 Ry

     iteration # 19     ecut=    40.00 Ry     beta=0.30
     Davidson diagonalization with overlap
     ethr =  6.22E-06,  avg # of iterations =  1.0

     negative rho (up, down):  0.138E+01 0.000E+00

     total cpu time spent up to now is    12126.7 secs

     total energy              =   -3758.10268796 Ry
     Harris-Foulkes estimate   =   -3758.10342348 Ry
     estimated scf accuracy    <       0.00590435 Ry

     iteration # 20     ecut=    40.00 Ry     beta=0.30
     Davidson diagonalization with overlap
     ethr =  1.37E-06,  avg # of iterations =  1.0

     negative rho (up, down):  0.138E+01 0.000E+00

     total cpu time spent up to now is    12572.1 secs

     total energy              =   -3758.10291701 Ry
     Harris-Foulkes estimate   =   -3758.10326597 Ry
     estimated scf accuracy    <       0.00344654 Ry

     iteration # 21     ecut=    40.00 Ry     beta=0.30
     Davidson diagonalization with overlap
     ethr =  7.98E-07,  avg # of iterations =  4.1

     negative rho (up, down):  0.138E+01 0.000E+00

     total cpu time spent up to now is    13201.9 secs

     total energy              =   -3758.10300669 Ry
     Harris-Foulkes estimate   =   -3758.10318974 Ry
     estimated scf accuracy    <       0.00163675 Ry

     iteration # 22     ecut=    40.00 Ry     beta=0.30
     Davidson diagonalization with overlap
     ethr =  3.79E-07,  avg # of iterations =  1.0

     negative rho (up, down):  0.138E+01 0.000E+00

     total cpu time spent up to now is    13643.9 secs

     total energy              =   -3758.10306005 Ry
     Harris-Foulkes estimate   =   -3758.10315347 Ry
     estimated scf accuracy    <       0.00084763 Ry

     iteration # 23     ecut=    40.00 Ry     beta=0.30
     Davidson diagonalization with overlap
     ethr =  1.96E-07,  avg # of iterations =  1.0

     negative rho (up, down):  0.138E+01 0.000E+00

     total cpu time spent up to now is    14087.1 secs

     total energy              =   -3758.10305199 Ry
     Harris-Foulkes estimate   =   -3758.10316817 Ry
     estimated scf accuracy    <       0.00142176 Ry

     iteration # 24     ecut=    40.00 Ry     beta=0.30
     Davidson diagonalization with overlap
     ethr =  1.96E-07,  avg # of iterations =  1.0

     negative rho (up, down):  0.138E+01 0.000E+00

     total cpu time spent up to now is    14531.9 secs

     total energy              =   -3758.10309033 Ry
     Harris-Foulkes estimate   =   -3758.10312792 Ry
     estimated scf accuracy    <       0.00034518 Ry

     iteration # 25     ecut=    40.00 Ry     beta=0.30
     Davidson diagonalization with overlap
     ethr =  7.99E-08,  avg # of iterations =  1.0

     negative rho (up, down):  0.138E+01 0.000E+00

     total cpu time spent up to now is    14973.7 secs

     total energy              =   -3758.10307856 Ry
     Harris-Foulkes estimate   =   -3758.10313799 Ry
     estimated scf accuracy    <       0.00099744 Ry

     iteration # 26     ecut=    40.00 Ry     beta=0.30
     Davidson diagonalization with overlap
     ethr =  7.99E-08,  avg # of iterations =  1.0

     negative rho (up, down):  0.138E+01 0.000E+00

     total cpu time spent up to now is    15414.3 secs

     total energy              =   -3758.10309316 Ry
     Harris-Foulkes estimate   =   -3758.10312776 Ry
     estimated scf accuracy    <       0.00054393 Ry

     iteration # 27     ecut=    40.00 Ry     beta=0.30
     Davidson diagonalization with overlap
     ethr =  7.99E-08,  avg # of iterations =  1.0

     negative rho (up, down):  0.138E+01 0.000E+00

     total cpu time spent up to now is    15854.4 secs

     total energy              =   -3758.10304536 Ry
     Harris-Foulkes estimate   =   -3758.10316886 Ry
     estimated scf accuracy    <       0.00866587 Ry

     iteration # 28     ecut=    40.00 Ry     beta=0.30
     Davidson diagonalization with overlap
     ethr =  7.99E-08,  avg # of iterations =  1.0

     negative rho (up, down):  0.138E+01 0.000E+00

     total cpu time spent up to now is    16296.1 secs

     total energy              =   -3758.10309668 Ry
     Harris-Foulkes estimate   =   -3758.10312349 Ry
     estimated scf accuracy    <       0.00051865 Ry

     iteration # 29     ecut=    40.00 Ry     beta=0.30
     Davidson diagonalization with overlap
     ethr =  7.99E-08,  avg # of iterations =  1.0

     negative rho (up, down):  0.138E+01 0.000E+00

     total cpu time spent up to now is    16741.2 secs

     total energy              =   -3758.10310204 Ry
     Harris-Foulkes estimate   =   -3758.10311750 Ry
     estimated scf accuracy    <       0.00017093 Ry

     iteration # 30     ecut=    40.00 Ry     beta=0.30
     Davidson diagonalization with overlap
     ethr =  3.96E-08,  avg # of iterations =  1.0

     negative rho (up, down):  0.138E+01 0.000E+00

     total cpu time spent up to now is    17186.3 secs

     total energy              =   -3758.10310520 Ry
     Harris-Foulkes estimate   =   -3758.10311690 Ry
     estimated scf accuracy    <       0.00012072 Ry

     iteration # 31     ecut=    40.00 Ry     beta=0.30
     Davidson diagonalization with overlap
     ethr =  2.79E-08,  avg # of iterations =  1.0

     negative rho (up, down):  0.138E+01 0.000E+00

     total cpu time spent up to now is    17631.9 secs

     total energy              =   -3758.10310798 Ry
     Harris-Foulkes estimate   =   -3758.10311268 Ry
     estimated scf accuracy    <       0.00003967 Ry

     iteration # 32     ecut=    40.00 Ry     beta=0.30
     Davidson diagonalization with overlap
     ethr =  9.18E-09,  avg # of iterations =  1.0

     negative rho (up, down):  0.138E+01 0.000E+00

     total cpu time spent up to now is    18077.5 secs

     total energy              =   -3758.10310834 Ry
     Harris-Foulkes estimate   =   -3758.10311302 Ry
     estimated scf accuracy    <       0.00004638 Ry

     iteration # 33     ecut=    40.00 Ry     beta=0.30
     Davidson diagonalization with overlap
     ethr =  9.18E-09,  avg # of iterations =  1.0

     negative rho (up, down):  0.138E+01 0.000E+00

     total cpu time spent up to now is    18524.8 secs

     total energy              =   -3758.10310892 Ry
     Harris-Foulkes estimate   =   -3758.10311218 Ry
     estimated scf accuracy    <       0.00004007 Ry

     iteration # 34     ecut=    40.00 Ry     beta=0.30
     Davidson diagonalization with overlap
     ethr =  9.18E-09,  avg # of iterations =  1.0

     negative rho (up, down):  0.138E+01 0.000E+00

     total cpu time spent up to now is    18973.5 secs

     total energy              =   -3758.10310988 Ry
     Harris-Foulkes estimate   =   -3758.10311124 Ry
     estimated scf accuracy    <       0.00001352 Ry

     iteration # 35     ecut=    40.00 Ry     beta=0.30
     Davidson diagonalization with overlap
     ethr =  3.13E-09,  avg # of iterations =  1.0

     negative rho (up, down):  0.138E+01 0.000E+00

     total cpu time spent up to now is    19423.6 secs

     total energy              =   -3758.10310948 Ry
     Harris-Foulkes estimate   =   -3758.10311139 Ry
     estimated scf accuracy    <       0.00002520 Ry

     iteration # 36     ecut=    40.00 Ry     beta=0.30
     Davidson diagonalization with overlap
     ethr =  3.13E-09,  avg # of iterations =  1.4

     negative rho (up, down):  0.138E+01 0.000E+00

     total cpu time spent up to now is    19897.1 secs

     total energy              =   -3758.10310961 Ry
     Harris-Foulkes estimate   =   -3758.10311152 Ry
     estimated scf accuracy    <       0.00004138 Ry

     iteration # 37     ecut=    40.00 Ry     beta=0.30
     Davidson diagonalization with overlap
     ethr =  3.13E-09,  avg # of iterations =  1.0

     negative rho (up, down):  0.138E+01 0.000E+00

     total cpu time spent up to now is    20345.5 secs

     total energy              =   -3758.10310935 Ry
     Harris-Foulkes estimate   =   -3758.10311134 Ry
     estimated scf accuracy    <       0.00011799 Ry

     iteration # 38     ecut=    40.00 Ry     beta=0.30
     Davidson diagonalization with overlap
     ethr =  3.13E-09,  avg # of iterations =  1.0

     negative rho (up, down):  0.138E+01 0.000E+00

     total cpu time spent up to now is    20792.1 secs

     total energy              =   -3758.10310997 Ry
     Harris-Foulkes estimate   =   -3758.10311088 Ry
     estimated scf accuracy    <       0.00002507 Ry

     iteration # 39     ecut=    40.00 Ry     beta=0.30
     Davidson diagonalization with overlap
     ethr =  3.13E-09,  avg # of iterations =  1.0

     negative rho (up, down):  0.138E+01 0.000E+00

     total cpu time spent up to now is    21238.6 secs

     total energy              =   -3758.10310991 Ry
     Harris-Foulkes estimate   =   -3758.10311087 Ry
     estimated scf accuracy    <       0.00001525 Ry

     iteration # 40     ecut=    40.00 Ry     beta=0.30
     Davidson diagonalization with overlap
     ethr =  3.13E-09,  avg # of iterations =  1.0

     negative rho (up, down):  0.138E+01 0.000E+00

     total cpu time spent up to now is    21685.0 secs

     total energy              =   -3758.10311006 Ry
     Harris-Foulkes estimate   =   -3758.10311068 Ry
     estimated scf accuracy    <       0.00000615 Ry

     iteration # 41     ecut=    40.00 Ry     beta=0.30
     Davidson diagonalization with overlap
     ethr =  1.42E-09,  avg # of iterations =  1.0

     negative rho (up, down):  0.138E+01 0.000E+00

     total cpu time spent up to now is    22130.8 secs

     total energy              =   -3758.10311019 Ry
     Harris-Foulkes estimate   =   -3758.10311054 Ry
     estimated scf accuracy    <       0.00000266 Ry

     iteration # 42     ecut=    40.00 Ry     beta=0.30
     Davidson diagonalization with overlap
     ethr =  6.15E-10,  avg # of iterations =  1.0

     negative rho (up, down):  0.138E+01 0.000E+00

     total cpu time spent up to now is    22574.8 secs

     total energy              =   -3758.10311019 Ry
     Harris-Foulkes estimate   =   -3758.10311048 Ry
     estimated scf accuracy    <       0.00000270 Ry

     iteration # 43     ecut=    40.00 Ry     beta=0.30
     Davidson diagonalization with overlap
     ethr =  6.15E-10,  avg # of iterations =  1.0

     negative rho (up, down):  0.138E+01 0.000E+00

     total cpu time spent up to now is    23017.3 secs

     total energy              =   -3758.10311024 Ry
     Harris-Foulkes estimate   =   -3758.10311043 Ry
     estimated scf accuracy    <       0.00000217 Ry

     iteration # 44     ecut=    40.00 Ry     beta=0.30
     Davidson diagonalization with overlap
     ethr =  5.02E-10,  avg # of iterations =  1.0

     negative rho (up, down):  0.138E+01 0.000E+00

     total cpu time spent up to now is    23463.4 secs

     total energy              =   -3758.10311027 Ry
     Harris-Foulkes estimate   =   -3758.10311040 Ry
     estimated scf accuracy    <       0.00000136 Ry

     iteration # 45     ecut=    40.00 Ry     beta=0.30
     Davidson diagonalization with overlap
     ethr =  3.14E-10,  avg # of iterations =  1.0

     negative rho (up, down):  0.138E+01 0.000E+00

     total cpu time spent up to now is    23911.7 secs

     total energy              =   -3758.10311025 Ry
     Harris-Foulkes estimate   =   -3758.10311037 Ry
     estimated scf accuracy    <       0.00000134 Ry

     iteration # 46     ecut=    40.00 Ry     beta=0.30
     Davidson diagonalization with overlap
     ethr =  3.11E-10,  avg # of iterations =  1.0

     negative rho (up, down):  0.138E+01 0.000E+00

     total cpu time spent up to now is    24353.8 secs

     total energy              =   -3758.10311022 Ry
     Harris-Foulkes estimate   =   -3758.10311041 Ry
     estimated scf accuracy    <       0.00000427 Ry

     iteration # 47     ecut=    40.00 Ry     beta=0.30
     Davidson diagonalization with overlap
     ethr =  3.11E-10,  avg # of iterations =  1.0

     negative rho (up, down):  0.138E+01 0.000E+00

     total cpu time spent up to now is    24796.4 secs

     total energy              =   -3758.10311026 Ry
     Harris-Foulkes estimate   =   -3758.10311035 Ry
     estimated scf accuracy    <       0.00000454 Ry

     iteration # 48     ecut=    40.00 Ry     beta=0.30
     Davidson diagonalization with overlap
     ethr =  3.11E-10,  avg # of iterations =  1.0

     negative rho (up, down):  0.138E+01 0.000E+00

     total cpu time spent up to now is    25236.2 secs

     total energy              =   -3758.10311027 Ry
     Harris-Foulkes estimate   =   -3758.10311034 Ry
     estimated scf accuracy    <       0.00000194 Ry

     iteration # 49     ecut=    40.00 Ry     beta=0.30
     Davidson diagonalization with overlap
     ethr =  3.11E-10,  avg # of iterations =  1.0

     negative rho (up, down):  0.138E+01 0.000E+00

     total cpu time spent up to now is    25678.0 secs

     End of self-consistent calculation

          k = 0.0000 0.0000 0.0000 ( 41643 PWs)   bands (ev):

   -47.7747 -47.7746 -47.7451 -47.7450 -47.7097 -47.7095 -47.7010 -47.7007
   -47.6973 -47.6972 -47.6919 -47.6919 -47.6889 -47.6888 -47.6817 -47.6817
   -47.6590 -47.6578 -47.6295 -47.6292 -47.5920 -47.5913 -47.5743 -47.5741
   -47.5725 -47.5724 -47.5288 -47.5282 -47.5138 -47.5137 -47.5129 -47.5127
   -47.4596 -47.4595 -47.3966 -47.3965 -47.3566 -47.3565 -47.3493 -47.3492
   -47.2998 -47.2997 -47.2824 -47.2823 -47.1975 -47.1973 -47.1796 -47.1794
   -19.7734 -19.5489 -19.3307 -19.2417 -19.1465 -18.9009 -18.6963 -18.6898
   -18.5816 -18.5711 -18.5455 -18.5365 -18.5129 -18.5091 -18.4762 -18.4695
   -18.4606 -18.4407 -18.4105 -18.3824 -18.2140 -18.2138 -18.1830 -18.1269
   -18.0119 -17.9835 -17.9422 -17.9039 -17.0378 -17.0378 -16.9553 -16.9519
    -8.1905  -8.1740  -8.1276  -8.1275  -7.8921  -7.8858  -7.1468  -7.1046
    -6.9633  -6.9285  -6.9270  -6.9095  -6.8969  -6.8459  -6.8166  -6.8158
    -6.7780  -6.7598  -6.6377  -6.6348  -6.6126  -6.5848  -6.5341  -6.5332
    -6.4421  -6.3985  -6.3538  -6.3457  -6.2798  -6.2453  -6.1650  -6.1465
    -6.1430  -6.0834  -6.0552  -5.8948  -5.7687  -5.5845  -5.3795  -5.3644
    -5.3163  -4.8414  -4.8319  -4.7731  -4.7729  -4.7726  -4.7500  -4.6647
    -4.6524  -4.6277  -4.4404  -4.3503  -4.3316  -4.3204  -4.1699  -4.1069
    -4.0585  -4.0557  -3.9795  -3.9433  -3.8274  -3.7525  -3.6735  -3.6038
    -3.5525  -3.5394  -3.5232  -3.4736  -3.4337  -3.4185  -3.3604  -3.2806
    -3.2739  -3.2384  -3.1787  -3.1446  -3.1297  -3.1097  -3.0089  -2.8431
    -2.8196  -2.8175  -2.7454  -2.7163  -2.5405  -2.5373  -2.5235  -2.5151
    -2.4856  -2.4078  -2.3642  -2.2509  -2.2468  -2.2361  -2.2316  -2.1891
    -2.1197  -2.1196  -2.0449  -2.0408  -1.9871  -1.9661  -1.8598  -1.8352
    -1.8028  -1.7960  -1.7721  -1.7346  -1.7094  -1.6535  -1.5920  -1.5614
    -1.5593  -1.4628  -1.4557  -1.4456  -1.4444  -1.3964  -1.3321  -1.3025
    -1.1494  -1.0497  -0.9499  -0.8605  -0.8262  -0.7565  -0.7050  -0.5625
    -0.5394  -0.5205  -0.2676  -0.1158  -0.1074   0.0344   0.0666   0.1080
     0.1140   0.1685   0.1938   0.2925   0.3484   0.3905   0.4565   0.4953
     0.5939   0.7035   0.7338   0.8559   1.2256   1.2877   1.4373   1.9161
     2.0463   2.0527   2.1360   2.1924   2.1927   2.3810   2.3981   2.3996
     2.4128   2.5504   2.5578   2.6719   3.3328   3.3365   3.3780   3.4259
     3.5076   3.6124   3.6202   3.7414   3.7416   3.9492   3.9528   4.1667
     5.0655   5.0842   5.8478   6.0766   6.3494   6.6868   6.8693   7.5334
     7.7558   7.8825   7.8863   8.3608   8.7665   8.7686   8.8094   8.9334
     8.9343   8.9913   9.2799   9.4912   9.5452   9.6449   9.7010   9.7183
     9.7500   9.8586   9.9078   9.9171   9.9956   9.9982  10.0134  10.0289
    10.0366  10.1589  10.2224  10.2932  10.3228  10.3837  10.5267  10.5303
    10.5790  10.6349  10.7190  10.7333  10.7463  10.7504  10.7641  10.8158
    11.1275  11.1407  11.1699  11.2685  11.3055  11.3278  11.3448  11.4495
    11.8026  11.8189  11.9741  12.0336  12.0364  12.1597  12.1598  12.1894
    12.3217  12.4911  12.5321  12.6143  12.6230  12.6705  12.7722  12.7885
    12.8086  12.9541  13.1204  13.1303  13.1718  13.2485  13.2826  13.3261
    13.3497  13.3861  13.4174  13.4210  13.4655  13.4933  13.5175  13.5344
    13.5926  13.6089  13.6212  13.6459  13.6599  13.6741  13.6894  13.6927
    13.7007  13.7021  13.7537  13.8669  13.9380  13.9384  13.9404  13.9748
    14.0468  14.2081  14.2127  14.2974  14.3004  14.3623  14.4003  14.4859
    14.5501  14.5781  14.6026  14.6600  14.7169  14.7971  14.7978  14.8336
    14.9901  14.9992  15.1366  15.1500  15.1882  15.2105  15.3119  15.3530
    15.4165  15.6406  15.6974  15.7487  15.8224  15.8547  15.8637  15.8731
    15.9361  16.0555  16.0711  16.2068  16.2395  16.2706  16.3752  16.4755
    16.5826  16.6149  16.6646  16.7224  16.7387  16.8871  16.8885  16.9541
    16.9927  17.1240  17.2235  17.2370  17.2632  17.4260  17.4374  17.4431
    17.4905  17.5018  17.6613  17.6721  17.8089  17.8596  17.9424  17.9608
    17.9900  18.0097  18.0656  18.1607  18.1744  18.2268  18.2357  18.5061
    18.5441  18.5947  18.6254  18.7129  18.7206  18.9473  19.0401  19.0560
    19.1667  19.2710  19.2883  19.3060  19.3374  19.3847  19.3950  19.4889
    19.5548  19.6119  19.6631  19.6712  19.7006  19.7415  19.8275  19.8352
    19.9002  19.9674  20.0195  20.0870  20.1001  20.2959  20.3159  20.3258
    20.3320  20.3322  20.4089  20.4377  20.4927  20.5272  20.5929  20.6079
    20.6392  20.6760  20.7802  20.8946  20.8967  20.9372  20.9988  21.0240
    21.1110  21.1175  21.1299  21.1449  21.1961  21.1961  21.2139  21.2190
    21.2789  21.3530  21.3733  21.4781  21.5167  21.5548  21.5585  21.5590
    21.6100  21.6622  21.6926  21.7420  21.9416  21.9617  21.9703  22.0543
    22.0545  22.1128  22.1575  22.1687  22.1873  22.2404  22.2593  22.2678
    22.3517  22.3751  22.4672  22.5862  22.6318  22.6628  22.6873  22.6949
    22.7548  22.7566  23.0059  23.0080  23.0775  23.0914  23.1604  23.2703
    23.3505  23.3510  23.3710  23.4044  23.4317  23.4644  23.4842  23.5305
    23.5785  23.7181  23.7553  23.7838  23.7966  23.8213  23.8360  23.8514
    24.0000  24.0297  24.1426  24.1571  24.1660  24.1786  24.2008  24.2460
    24.2657  24.2772  24.2796  24.3107  24.3110  24.3176  24.3547  24.4124
    24.4330  24.4922  24.5266  24.5857  24.6299  24.6385  24.6488  24.6813
    24.7461  24.7744  24.8469  24.8480  24.8931  24.9130  24.9282  24.9642
    24.9772  24.9830  24.9940  25.0581  25.0781  25.0980  25.1214  25.1295
    25.1339  25.1875  25.2169  25.2439  25.2774  25.2842  25.3443  25.3661
    25.3838  25.4089  25.4446  25.4538  25.4737  25.5125  25.5207  25.5642
    25.5916  25.7318  25.8484  25.8526  25.8802  25.8920  25.9315  25.9779
    25.9857  25.9994  26.0114  26.0157  26.0464  26.0920  26.1025  26.1813
    26.1834  26.3608  26.3612  26.4373  26.4635  26.4775  26.5371  26.5904
    26.6775  26.6817  26.6914  26.7292  26.7736  26.7987  26.8003  26.8045
    26.8267  27.0276  27.0398  27.0399  27.0766  27.1055  27.1268  27.1673
    27.1940  27.2133  27.2434  27.2715  27.3430  27.3704  27.4177  27.5124

          k = 0.0000 0.2417 0.0000 ( 41668 PWs)   bands (ev):

   -47.7750 -47.7748 -47.7467 -47.7466 -47.7098 -47.7095 -47.7008 -47.7007
   -47.6969 -47.6968 -47.6907 -47.6906 -47.6897 -47.6896 -47.6806 -47.6802
   -47.6587 -47.6579 -47.6296 -47.6294 -47.5919 -47.5915 -47.5741 -47.5741
   -47.5727 -47.5726 -47.5299 -47.5295 -47.5133 -47.5132 -47.5129 -47.5126
   -47.4596 -47.4595 -47.3966 -47.3965 -47.3566 -47.3565 -47.3493 -47.3491
   -47.2998 -47.2998 -47.2823 -47.2822 -47.1979 -47.1978 -47.1795 -47.1794
   -19.6761 -19.4549 -19.2237 -19.2027 -19.1337 -18.9386 -18.6928 -18.6882
   -18.6411 -18.6318 -18.6208 -18.6145 -18.5934 -18.5718 -18.5651 -18.4859
   -18.3284 -18.3266 -18.3175 -18.3074 -18.2168 -18.2166 -18.1709 -18.1607
   -18.0869 -18.0540 -18.0276 -18.0155 -17.0374 -17.0374 -16.9511 -16.9489
    -7.9326  -7.8974  -7.7832  -7.7531  -7.7271  -7.7174  -7.1117  -7.0872
    -7.0658  -7.0507  -6.9579  -6.9322  -6.8680  -6.8663  -6.8558  -6.8431
    -6.7951  -6.7903  -6.7798  -6.7604  -6.7599  -6.5763  -6.5448  -6.5355
    -6.5101  -6.4133  -6.3520  -6.3464  -6.3241  -6.2891  -6.2608  -6.1042
    -6.0662  -5.8575  -5.5163  -5.4547  -5.4463  -5.4192  -5.2300  -5.1975
    -5.1140  -4.8185  -4.8162  -4.8075  -4.8028  -4.7581  -4.7357  -4.7271
    -4.7235  -4.6501  -4.6417  -4.5978  -4.5598  -4.5173  -4.4819  -4.4741
    -4.2764  -4.1684  -4.1507  -3.9789  -3.8971  -3.8893  -3.8625  -3.7788
    -3.7272  -3.7194  -3.7037  -3.6117  -3.5916  -3.5476  -3.5127  -3.5065
    -3.4943  -3.4693  -3.3427  -3.3119  -3.0781  -3.0428  -3.0045  -2.9048
    -2.8999  -2.8202  -2.8103  -2.7936  -2.7594  -2.7006  -2.6930  -2.5196
    -2.5153  -2.4438  -2.3654  -2.2619  -2.2033  -2.1340  -2.0032  -1.9062
    -1.9053  -1.8788  -1.8750  -1.7940  -1.7757  -1.7206  -1.7105  -1.7022
    -1.7003  -1.6390  -1.6036  -1.5852  -1.5741  -1.5468  -1.5464  -1.5397
    -1.4848  -1.4716  -1.4667  -1.4481  -1.4472  -1.4146  -1.3320  -1.3098
    -1.2749  -1.2720  -1.2044  -1.1598  -1.1533  -0.9969  -0.8940  -0.5563
    -0.5097  -0.5084  -0.0909   0.0550   0.0862   0.1652   0.2033   0.2050
     0.2391   0.2607   0.3106   0.3570   0.3793   0.4295   0.5207   0.5562
     0.5591   0.5786   0.6682   0.7675   1.0294   1.1050   1.2496   1.2560
     1.3256   1.4565   1.6734   2.2115   2.4091   2.4197   2.5847   2.8076
     3.2523   3.3333   3.3339   3.3658   3.3672   3.4346   3.4377   3.4787
     3.4883   3.5046   3.5371   3.5651   3.5666   3.9511   3.9528   4.0406
     5.2293   5.2348   6.0727   6.2921   6.6083   6.9338   7.0645   7.4754
     7.4905   7.8488   7.9165   7.9986   8.0010   8.0365   8.2612   8.5324
     8.8477   8.9656   8.9830   8.9852   9.0762   9.0855   9.4266   9.5429
     9.8319   9.9201   9.9490   9.9577  10.0333  10.0594  10.1478  10.1582
    10.3299  10.4189  10.5610  10.5776  10.6065  10.6133  10.7129  10.7369
    10.7565  10.7874  10.8503  10.8591  10.9240  10.9800  11.1991  11.2405
    11.2448  11.2822  11.3891  11.4071  11.4548  11.5394  11.5926  11.6004
    11.7064  11.7363  11.8291  11.8337  11.9129  11.9786  11.9931  12.0096
    12.1237  12.1938  12.2280  12.4118  12.4163  12.4353  12.4696  12.4744
    12.4746  12.5210  12.6121  12.8832  12.9332  13.0146  13.0197  13.0420
    13.0963  13.1898  13.2352  13.3635  13.5796  13.5986  13.6207  13.6867
    13.6911  13.7234  13.7974  13.8335  13.8552  13.9186  13.9596  13.9675
    14.0344  14.0433  14.0464  14.1378  14.1481  14.2279  14.2308  14.3078
    14.4244  14.4847  14.5924  14.6124  14.6327  14.7142  14.8384  14.8596
    14.8692  14.9063  14.9724  14.9920  15.0589  15.0612  15.0900  15.1164
    15.2629  15.3217  15.4150  15.4481  15.4819  15.5275  15.5620  15.8399
    15.8517  15.8660  15.9013  15.9128  15.9254  15.9552  15.9773  16.1198
    16.1310  16.1360  16.1862  16.2357  16.3264  16.3660  16.3816  16.3903
    16.5797  16.5871  16.6654  16.6656  16.8057  16.9944  17.0161  17.0398
    17.1037  17.1236  17.2173  17.2271  17.2878  17.4084  17.4705  17.5152
    17.5279  17.5329  17.5797  17.5952  17.7548  17.7704  17.7945  17.8196
    17.8320  17.9015  17.9019  17.9212  18.0670  18.1058  18.1711  18.2181
    18.2562  18.3277  18.3416  18.4231  18.4530  18.5105  18.5516  18.6170
    18.7329  18.7871  18.8614  18.9427  18.9580  18.9712  18.9836  19.1575
    19.1616  19.2363  19.3408  19.3881  19.4826  19.5238  19.5488  19.5999
    19.6268  19.6956  19.8613  19.9213  19.9369  19.9924  20.0206  20.0420
    20.0463  20.0572  20.1752  20.2097  20.2643  20.3177  20.4303  20.6418
    20.6483  20.7255  20.7384  20.7436  20.7790  20.8148  20.8511  20.9103
    20.9378  20.9804  20.9888  21.0791  21.0879  21.1141  21.1487  21.1875
    21.1953  21.2388  21.3226  21.3322  21.3557  21.3675  21.3676  21.4255
    21.5919  21.6454  21.6458  21.6486  21.6592  21.6885  21.6920  21.7993
    21.8733  21.8778  21.9167  21.9809  22.0053  22.0399  22.0849  22.1551
    22.1734  22.1870  22.2125  22.2594  22.2710  22.3326  22.3329  22.4709
    22.5569  22.6207  22.6613  22.6704  22.7679  22.8212  22.8759  22.9239
    23.0043  23.0170  23.0919  23.1195  23.2525  23.3337  23.3648  23.3738
    23.3889  23.4358  23.4391  23.4417  23.4542  23.4883  23.5776  23.5890
    23.6313  23.6378  23.6416  23.7042  23.7172  23.7276  23.7454  23.8643
    23.8686  23.8996  24.0150  24.0261  24.0825  24.0829  24.1242  24.2076
    24.3175  24.3563  24.3581  24.4164  24.4999  24.5168  24.5347  24.5770
    24.6139  24.6273  24.6576  24.7001  24.7413  24.7832  24.8011  24.9144
    24.9184  24.9469  24.9816  25.1279  25.1589  25.1942  25.2132  25.2349
    25.2440  25.2993  25.3522  25.3996  25.4389  25.4499  25.4614  25.4663
    25.5318  25.5426  25.5433  25.5938  25.6069  25.6699  25.8004  25.9091
    25.9415  25.9659  26.0670  26.0675  26.0768  26.1811  26.2409  26.2700
    26.3022  26.3059  26.3128  26.4193  26.4362  26.6350  26.6640  26.7087
    26.7715  26.7954  26.7969  26.9073  26.9502  26.9562  26.9612  26.9627
    26.9645  27.0654  27.0764  27.0780  27.1112  27.1398  27.1908  27.2023
    27.2845  27.2937  27.3792  27.3984  27.4245  27.4510  27.4786  27.4935
    27.5058  27.5255  27.5564  27.5631  27.5903  27.6147  27.6604  27.6873

          k = 0.0000-0.4833 0.0000 ( 41652 PWs)   bands (ev):

   -47.7750 -47.7749 -47.7481 -47.7480 -47.7097 -47.7096 -47.7007 -47.7006
   -47.6964 -47.6963 -47.6903 -47.6903 -47.6894 -47.6893 -47.6791 -47.6790
   -47.6581 -47.6581 -47.6297 -47.6296 -47.5918 -47.5917 -47.5740 -47.5740
   -47.5728 -47.5727 -47.5310 -47.5309 -47.5129 -47.5128 -47.5127 -47.5126
   -47.4594 -47.4594 -47.3966 -47.3965 -47.3566 -47.3565 -47.3492 -47.3491
   -47.2999 -47.2998 -47.2823 -47.2822 -47.1983 -47.1982 -47.1796 -47.1795
   -19.4607 -19.4607 -19.1620 -19.1619 -18.9701 -18.9701 -18.7098 -18.7097
   -18.6880 -18.6880 -18.6841 -18.6840 -18.6786 -18.6786 -18.5254 -18.5254
   -18.2703 -18.2702 -18.2571 -18.2571 -18.2195 -18.2195 -18.1820 -18.1820
   -18.1614 -18.1614 -18.0906 -18.0906 -17.0370 -17.0370 -16.9470 -16.9470
    -7.9048  -7.9048  -7.2285  -7.2284  -7.1957  -7.1956  -7.1068  -7.1067
    -7.0760  -7.0760  -7.0525  -7.0524  -6.9446  -6.9446  -6.7974  -6.7973
    -6.7926  -6.7925  -6.6995  -6.6994  -6.6415  -6.6415  -6.5106  -6.5105
    -6.5027  -6.5027  -6.3479  -6.3479  -6.3479  -6.3478  -6.0829  -6.0828
    -5.7928  -5.7928  -5.6039  -5.6039  -5.4261  -5.4261  -5.3808  -5.3807
    -5.2967  -5.2967  -4.8573  -4.8572  -4.8491  -4.8490  -4.7906  -4.7906
    -4.6516  -4.6516  -4.6234  -4.6234  -4.5529  -4.5529  -4.4346  -4.4346
    -4.2439  -4.2439  -4.1544  -4.1543  -4.1181  -4.1180  -4.0539  -4.0538
    -4.0167  -4.0167  -3.7700  -3.7700  -3.7625  -3.7625  -3.7418  -3.7418
    -3.3427  -3.3427  -3.3340  -3.3340  -2.8325  -2.8325  -2.8190  -2.8190
    -2.7988  -2.7988  -2.7694  -2.7694  -2.7463  -2.7463  -2.6153  -2.6153
    -2.5427  -2.5426  -2.2684  -2.2684  -2.2287  -2.2287  -2.1368  -2.1368
    -1.9770  -1.9770  -1.8793  -1.8793  -1.8510  -1.8510  -1.7823  -1.7823
    -1.7308  -1.7308  -1.7057  -1.7056  -1.5731  -1.5730  -1.5299  -1.5298
    -1.4463  -1.4462  -1.3649  -1.3649  -1.2006  -1.2005  -1.1770  -1.1770
    -1.1092  -1.1091  -1.0820  -1.0819  -1.0481  -1.0481  -0.5611  -0.5611
    -0.4483  -0.4483  -0.2576  -0.2576   0.1054   0.1054   0.1742   0.1742
     0.2264   0.2264   0.3854   0.3855   0.4955   0.4955   0.6023   0.6023
     0.6068   0.6068   0.6873   0.6874   0.8075   0.8076   0.8139   0.8140
     1.4396   1.4396   2.1462   2.1462   2.4229   2.4230   3.0099   3.0099
     3.2393   3.2393   3.3321   3.3321   3.3797   3.3798   3.5415   3.5416
     3.5475   3.5475   3.8014   3.8014   3.9524   3.9525   3.9755   3.9756
     5.5456   5.5457   6.6030   6.6030   6.7943   6.7943   7.0671   7.0671
     7.4381   7.4381   7.8583   7.8583   7.9210   7.9210   8.1265   8.1265
     8.5275   8.5275   8.6486   8.6486   9.0275   9.0276   9.3462   9.3462
     9.5201   9.5201  10.2202  10.2202  10.3224  10.3225  10.3386  10.3386
    10.4558  10.4558  10.6307  10.6307  10.6530  10.6531  10.6660  10.6660
    10.8208  10.8208  10.8488  10.8488  10.9189  10.9189  11.1416  11.1416
    11.1748  11.1748  11.2950  11.2950  11.3680  11.3680  11.4872  11.4872
    11.6979  11.6979  11.9206  11.9206  12.0870  12.0870  12.1231  12.1231
    12.1782  12.1782  12.2891  12.2892  12.4317  12.4318  12.5813  12.5814
    12.7086  12.7087  12.8624  12.8624  12.9318  12.9319  13.1517  13.1518
    13.3197  13.3197  13.3284  13.3284  13.6256  13.6256  13.8505  13.8505
    13.8858  13.8858  13.9958  13.9958  14.0093  14.0093  14.0779  14.0779
    14.1692  14.1692  14.3230  14.3230  14.4068  14.4069  14.4437  14.4437
    14.6130  14.6130  14.6557  14.6557  14.6694  14.6694  14.7238  14.7238
    14.9758  14.9758  15.1573  15.1573  15.1865  15.1865  15.2318  15.2318
    15.5119  15.5119  15.7286  15.7286  15.7808  15.7809  15.8549  15.8549
    15.8956  15.8957  16.0052  16.0052  16.0513  16.0514  16.1744  16.1744
    16.2662  16.2663  16.2860  16.2860  16.4800  16.4800  16.6834  16.6834
    16.7273  16.7273  16.7992  16.7992  16.9147  16.9147  16.9278  16.9278
    17.0553  17.0553  17.1403  17.1404  17.2263  17.2263  17.3042  17.3042
    17.4831  17.4832  17.8941  17.8942  17.9004  17.9004  18.0343  18.0343
    18.1011  18.1011  18.1218  18.1218  18.2077  18.2077  18.2848  18.2848
    18.3285  18.3285  18.3754  18.3755  18.4030  18.4030  18.5071  18.5071
    18.5772  18.5772  18.6108  18.6108  18.6994  18.6994  18.9846  18.9846
    19.0130  19.0130  19.0160  19.0160  19.1031  19.1031  19.2763  19.2763
    19.3748  19.3748  19.6101  19.6101  19.6261  19.6261  19.6361  19.6361
    19.6821  19.6821  19.6879  19.6879  19.6892  19.6892  19.7758  19.7758
    20.1211  20.1211  20.2380  20.2380  20.3652  20.3652  20.4716  20.4716
    20.5519  20.5519  20.6936  20.6936  20.7608  20.7609  20.8331  20.8331
    20.9976  20.9976  21.1069  21.1069  21.2318  21.2318  21.2747  21.2747
    21.4260  21.4260  21.4826  21.4826  21.6034  21.6035  21.7688  21.7688
    21.7825  21.7826  21.9464  21.9464  22.1514  22.1514  22.1787  22.1787
    22.1924  22.1924  22.2111  22.2111  22.2809  22.2809  22.3147  22.3147
    22.4495  22.4495  22.4895  22.4895  22.5101  22.5101  22.6255  22.6255
    22.7703  22.7703  22.9006  22.9006  22.9236  22.9236  22.9955  22.9955
    23.0272  23.0272  23.0751  23.0751  23.3089  23.3089  23.3754  23.3754
    23.4810  23.4810  23.5867  23.5867  23.5895  23.5895  23.7220  23.7220
    23.8266  23.8266  23.8366  23.8366  23.8964  23.8964  24.0013  24.0013
    24.0246  24.0246  24.1576  24.1577  24.3215  24.3215  24.5602  24.5602
    24.5995  24.5995  24.6506  24.6506  24.7751  24.7751  24.8587  24.8588
    24.8795  24.8795  24.9616  24.9616  25.0191  25.0191  25.1747  25.1747
    25.3580  25.3581  25.3848  25.3848  25.4004  25.4004  25.5072  25.5073
    25.7761  25.7761  25.9500  25.9500  26.0239  26.0239  26.1288  26.1288
    26.1827  26.1827  26.2287  26.2287  26.2744  26.2744  26.3285  26.3285
    26.3576  26.3576  26.4108  26.4108  26.5304  26.5304  26.6505  26.6505
    26.9613  26.9613  26.9833  26.9833  27.0802  27.0802  27.1103  27.1103
    27.1402  27.1402  27.1845  27.1845  27.4348  27.4349  27.5130  27.5131
    27.5330  27.5330  27.5545  27.5546  27.6515  27.6516  27.7470  27.7471
    27.9485  27.9486  28.0165  28.0165  28.0721  28.0723  28.1285  28.1285

          k = 0.2500 0.0000 0.0000 ( 41648 PWs)   bands (ev):

   -47.7581 -47.7581 -47.7284 -47.7281 -47.7088 -47.7084 -47.7019 -47.7017
   -47.6961 -47.6960 -47.6905 -47.6904 -47.6902 -47.6901 -47.6833 -47.6832
   -47.6756 -47.6748 -47.6466 -47.6461 -47.5892 -47.5888 -47.5767 -47.5766
   -47.5563 -47.5562 -47.5265 -47.5260 -47.5151 -47.5150 -47.4969 -47.4968
   -47.4762 -47.4762 -47.4138 -47.4137 -47.3555 -47.3553 -47.3503 -47.3502
   -47.2972 -47.2971 -47.2849 -47.2848 -47.1949 -47.1948 -47.1822 -47.1820
   -19.6441 -19.4307 -19.2222 -19.1362 -19.0475 -18.8924 -18.8192 -18.8075
   -18.6976 -18.6029 -18.5840 -18.5675 -18.5230 -18.4748 -18.4612 -18.4512
   -18.3973 -18.3763 -18.3448 -18.3154 -18.2423 -18.2358 -18.2096 -18.1881
   -18.0802 -18.0533 -18.0138 -17.9773 -17.0660 -17.0659 -17.0007 -16.9983
    -8.0213  -7.9986  -7.9527  -7.9521  -7.7135  -7.6990  -7.1880  -7.0415
    -6.9777  -6.9521  -6.9508  -6.9475  -6.9278  -6.8732  -6.8732  -6.8349
    -6.7812  -6.7643  -6.7429  -6.7121  -6.7073  -6.6330  -6.6017  -6.5358
    -6.4972  -6.4546  -6.3418  -6.2856  -6.1310  -6.0861  -6.0555  -6.0425
    -6.0409  -5.8567  -5.8556  -5.8159  -5.6367  -5.6262  -5.2051  -5.2023
    -5.1983  -5.1224  -4.9551  -4.7926  -4.7640  -4.7621  -4.7062  -4.6610
    -4.5417  -4.5249  -4.5167  -4.4828  -4.4667  -4.4260  -4.2291  -4.1621
    -4.0807  -4.0760  -4.0582  -4.0449  -4.0368  -3.9918  -3.9252  -3.8961
    -3.8889  -3.8153  -3.7571  -3.7566  -3.6637  -3.6347  -3.6125  -3.5372
    -3.4446  -3.3476  -3.2961  -3.2321  -3.2266  -3.2093  -3.1787  -3.0887
    -3.0418  -3.0262  -3.0021  -2.9944  -2.8707  -2.7804  -2.7003  -2.5681
    -2.4900  -2.4189  -2.3814  -2.3618  -2.3344  -2.2898  -2.2667  -2.1527
    -1.9571  -1.8654  -1.8175  -1.7730  -1.7124  -1.6808  -1.6780  -1.6581
    -1.6192  -1.6070  -1.5427  -1.5379  -1.5037  -1.4560  -1.4560  -1.4290
    -1.3946  -1.3409  -1.3143  -1.2295  -1.1531  -1.1467  -1.0010  -0.9816
    -0.9236  -0.8842  -0.7954  -0.7027  -0.5943  -0.5788  -0.4692  -0.3743
    -0.3351  -0.2600  -0.2495  -0.2221  -0.1966  -0.1628  -0.1061  -0.0688
     0.0418   0.1978   0.2922   0.2939   0.3595   0.3769   0.3990   0.4089
     0.4897   0.5234   0.6009   0.7270   1.3656   1.4057   1.5874   2.0393
     2.1902   2.1953   2.1963   2.3130   2.3336   2.3338   2.4497   2.4732
     2.5113   2.6002   2.6058   2.6135   2.7975   3.0479   3.2838   3.2911
     3.4146   3.4149   3.4168   3.4200   3.4432   3.5073   3.6151   4.0309
     5.3296   5.3356   6.0941   6.3246   6.6563   7.0278   7.0288   7.0423
     7.1345   7.7687   8.0269   8.0589   8.2318   8.5651   8.5694   8.9854
     9.0045   9.0076   9.0660   9.2534   9.3668   9.4858   9.5542   9.6705
     9.7365   9.8038   9.8795   9.9762  10.0531  10.1210  10.1737  10.1849
    10.2815  10.3573  10.4436  10.4782  10.4934  10.5941  10.5973  10.6101
    10.6287  10.6353  10.8201  10.8529  10.9597  10.9825  11.0860  11.1690
    11.3709  11.4204  11.4533  11.5495  11.6304  11.6780  11.6881  11.7269
    11.7527  11.9033  11.9282  11.9504  12.0275  12.0771  12.0779  12.1373
    12.1562  12.2100  12.2568  12.2662  12.3100  12.5123  12.5756  12.6323
    12.7149  12.7412  12.7606  12.8308  12.8657  12.8935  12.9456  13.0027
    13.0184  13.0708  13.1714  13.2067  13.2714  13.3259  13.3706  13.4738
    13.5198  13.6599  13.6614  13.7752  13.7977  13.8575  13.8603  13.8779
    13.9039  13.9165  13.9485  14.0239  14.0927  14.1805  14.3129  14.3818
    14.3862  14.4055  14.4310  14.6224  14.6999  14.7646  14.7861  14.7936
    14.9041  14.9381  14.9752  14.9918  15.0229  15.1168  15.2350  15.3287
    15.4924  15.5379  15.5401  15.5544  15.6710  15.6845  15.7205  15.7472
    15.8120  15.8270  15.8663  15.8738  15.8914  15.9192  15.9603  16.0401
    16.1081  16.1465  16.1497  16.2685  16.2954  16.3075  16.3264  16.4073
    16.4752  16.5885  16.7016  16.8213  16.9111  16.9122  16.9137  16.9323
    16.9381  16.9533  17.0229  17.1069  17.1285  17.1705  17.1706  17.1818
    17.3163  17.4949  17.5353  17.5538  17.5790  17.6226  17.6529  17.7120
    17.8203  17.8288  17.8592  17.8730  17.9098  17.9133  18.0335  18.0565
    18.1216  18.1260  18.3557  18.4992  18.5799  18.6309  18.6349  18.6931
    18.7762  18.7891  18.8056  18.8091  19.0921  19.1074  19.1237  19.1603
    19.2635  19.3394  19.4174  19.5381  19.5895  19.7092  19.7240  19.7397
    19.8258  19.8263  19.8582  19.8774  19.9039  20.0669  20.1507  20.3402
    20.3571  20.3576  20.4219  20.5208  20.5800  20.5874  20.6075  20.6181
    20.6493  20.6557  20.7101  20.7668  20.7754  20.8575  20.9196  20.9750
    20.9792  21.0803  21.0821  21.0927  21.2228  21.2809  21.3524  21.3745
    21.4050  21.4338  21.4453  21.4508  21.4781  21.5192  21.5498  21.5881
    21.5996  21.6004  21.6284  21.7502  21.8286  21.8480  21.8900  21.9559
    21.9656  22.0526  22.0932  22.0958  22.1498  22.1815  22.2081  22.2129
    22.2238  22.2560  22.2705  22.4202  22.4996  22.5175  22.5430  22.5629
    22.5743  22.5852  22.5921  22.6227  22.6500  22.6544  22.7682  22.7829
    22.8312  22.8531  22.8632  22.8851  22.9059  22.9099  22.9771  23.0172
    23.0357  23.0574  23.2301  23.2560  23.3337  23.3413  23.3786  23.4065
    23.4128  23.4393  23.4862  23.5751  23.5947  23.6647  23.7281  23.7432
    23.7454  23.7786  23.8135  23.8717  23.9325  23.9345  24.0114  24.0800
    24.1281  24.1800  24.2189  24.2297  24.2636  24.2646  24.2954  24.3732
    24.4881  24.5189  24.5811  24.6140  24.7574  24.7716  24.8214  24.9303
    24.9606  24.9969  25.0064  25.0772  25.1546  25.1588  25.2064  25.3248
    25.3499  25.3543  25.4072  25.4172  25.4518  25.4962  25.5363  25.5523
    25.6050  25.6304  25.6375  25.6919  25.7600  25.8119  25.9409  25.9855
    25.9946  26.0308  26.0325  26.0787  26.0897  26.1038  26.1629  26.2028
    26.2404  26.2547  26.2836  26.2990  26.4088  26.4194  26.4603  26.4885
    26.6154  26.6207  26.6450  26.6773  26.7106  26.8022  26.8058  26.8130
    26.8322  26.9418  26.9872  27.0229  27.0409  27.0656  27.1640  27.1837
    27.2276  27.2754  27.2882  27.3294  27.3831  27.3941  27.4343  27.4750
    27.4839  27.5256  27.5390  27.5566  27.5598  27.5809  27.5886  27.6279

          k = 0.2500 0.2417 0.0000 ( 41623 PWs)   bands (ev):

   -47.7581 -47.7581 -47.7301 -47.7300 -47.7087 -47.7085 -47.7019 -47.7017
   -47.6957 -47.6957 -47.6906 -47.6905 -47.6898 -47.6896 -47.6814 -47.6812
   -47.6753 -47.6748 -47.6464 -47.6460 -47.5893 -47.5889 -47.5767 -47.5766
   -47.5563 -47.5562 -47.5274 -47.5270 -47.5153 -47.5151 -47.4964 -47.4963
   -47.4762 -47.4761 -47.4139 -47.4137 -47.3555 -47.3554 -47.3503 -47.3502
   -47.2973 -47.2972 -47.2849 -47.2848 -47.1952 -47.1951 -47.1822 -47.1821
   -19.5514 -19.3413 -19.1187 -19.0992 -19.0321 -18.8553 -18.8512 -18.7806
   -18.6761 -18.6340 -18.6122 -18.5671 -18.5552 -18.5290 -18.5024 -18.4815
   -18.3810 -18.3746 -18.3478 -18.3284 -18.2317 -18.2290 -18.2282 -18.2124
   -18.1499 -18.1144 -18.0963 -18.0779 -17.0661 -17.0661 -16.9972 -16.9957
    -7.7701  -7.7195  -7.6193  -7.5853  -7.5663  -7.5522  -7.0922  -7.0024
    -6.9742  -6.9567  -6.9404  -6.8984  -6.8877  -6.8539  -6.8430  -6.8014
    -6.7517  -6.7329  -6.7161  -6.6828  -6.6752  -6.6558  -6.5920  -6.5738
    -6.5154  -6.4945  -6.3436  -6.2977  -6.1178  -6.0785  -6.0744  -6.0534
    -6.0476  -5.7707  -5.7160  -5.7086  -5.5990  -5.4765  -5.3210  -5.2439
    -5.1510  -5.0532  -4.9612  -4.9182  -4.9145  -4.7944  -4.7575  -4.6917
    -4.6322  -4.5771  -4.5652  -4.5360  -4.4924  -4.4064  -4.3622  -4.3291
    -4.3024  -4.2619  -4.2364  -4.2142  -4.1999  -4.1028  -4.1022  -4.0826
    -4.0661  -4.0487  -3.9956  -3.8828  -3.7934  -3.7506  -3.7063  -3.6796
    -3.6792  -3.6695  -3.5774  -3.4619  -3.3846  -3.3128  -3.0791  -3.0565
    -3.0416  -3.0095  -2.9143  -2.8561  -2.8498  -2.8469  -2.5904  -2.4993
    -2.4551  -2.4017  -2.3665  -2.3423  -2.3195  -2.2873  -2.2713  -2.1911
    -1.8875  -1.6783  -1.6719  -1.6686  -1.6600  -1.6446  -1.5132  -1.4767
    -1.4749  -1.4598  -1.4415  -1.4147  -1.4142  -1.4127  -1.3603  -1.3038
    -1.3016  -1.2777  -1.1936  -1.1565  -1.0789  -1.0414  -1.0364  -0.9885
    -0.9827  -0.9542  -0.8957  -0.8825  -0.8636  -0.7832  -0.6057  -0.4705
    -0.2379  -0.2372  -0.2111  -0.1170  -0.0178   0.0525   0.0584   0.0891
     0.1430   0.1479   0.1837   0.1952   0.3513   0.3796   0.4326   0.5047
     0.5106   0.5451   0.5720   0.7397   1.2629   1.3354   1.4576   1.4674
     1.4812   1.6121   1.7060   2.2606   2.4601   2.4730   2.4984   2.6412
     2.7786   2.9469   3.0737   3.0886   3.1444   3.2362   3.2606   3.3415
     3.3641   3.4346   3.4979   3.5286   3.5380   3.5457   3.6301   3.9888
     5.4841   5.4865   6.3169   6.5362   6.8760   7.1274   7.1281   7.3109
     7.3125   7.7231   7.7841   8.1197   8.1704   8.2451   8.3265   8.4293
     8.5257   8.7362   8.7716   9.1044   9.1177   9.2311   9.3593   9.3657
     9.4462   9.5708   9.7313   9.7747   9.8648   9.8709   9.9238  10.0731
    10.1142  10.2482  10.2841  10.2949  10.4053  10.4270  10.4724  10.4891
    10.8055  10.8369  10.9437  10.9438  11.0300  11.1001  11.1296  11.1965
    11.4752  11.4752  11.5452  11.6203  11.6722  11.6928  11.7471  11.7838
    12.0398  12.0843  12.1006  12.1206  12.1574  12.2239  12.3190  12.3465
    12.4194  12.4602  12.5207  12.6571  12.6592  12.6982  12.7151  12.7514
    12.7712  12.8808  12.9490  12.9758  13.1794  13.2320  13.2419  13.2752
    13.3525  13.3688  13.3783  13.4070  13.4344  13.5913  13.6684  13.7143
    13.7180  13.8254  13.8965  13.9375  13.9614  14.0240  14.0281  14.0535
    14.1518  14.1716  14.1902  14.2115  14.2972  14.3250  14.3691  14.4256
    14.4402  14.5537  14.5761  14.5854  14.6285  14.7134  14.9064  14.9282
    14.9490  14.9971  15.0654  15.0971  15.1743  15.2373  15.2694  15.2785
    15.3005  15.3241  15.3670  15.3719  15.4863  15.4943  15.6631  15.7033
    15.7634  15.7769  15.8219  15.8912  15.8956  15.9081  15.9639  16.0312
    16.0424  16.1693  16.1709  16.3213  16.3340  16.3443  16.4219  16.4391
    16.5345  16.6176  16.6563  16.6926  16.7738  16.8527  17.0563  17.0649
    17.0993  17.2298  17.2548  17.2995  17.3873  17.3898  17.4122  17.4980
    17.5034  17.5081  17.5188  17.6591  17.6820  17.7110  17.7452  17.8128
    17.8139  17.8813  17.9071  17.9410  17.9968  18.0561  18.1381  18.1484
    18.1780  18.2204  18.2565  18.2722  18.3639  18.3831  18.4338  18.5315
    18.5504  18.6156  18.7183  18.7263  18.7520  18.8522  18.9507  18.9853
    18.9874  18.9889  19.0143  19.0813  19.1576  19.2345  19.2617  19.2939
    19.3241  19.3325  19.4361  19.4856  19.5327  19.5687  19.6420  19.6540
    19.7384  19.7697  19.8687  19.9029  20.0066  20.0188  20.0414  20.1110
    20.1512  20.1550  20.1640  20.2511  20.2694  20.3729  20.3756  20.6136
    20.6344  20.6376  20.6585  20.7284  20.7970  20.8001  20.8502  20.8523
    20.8845  20.9399  21.0497  21.0729  21.1871  21.2082  21.2993  21.3196
    21.3546  21.4018  21.4085  21.4361  21.4970  21.5252  21.7022  21.7092
    21.7657  21.7913  21.8070  21.8557  21.9106  21.9630  21.9651  22.0719
    22.2317  22.2556  22.2564  22.3985  22.4577  22.4659  22.5223  22.5599
    22.6082  22.6276  22.6721  22.7590  22.8109  22.8641  22.8900  22.9743
    23.0356  23.0830  23.1150  23.1314  23.1786  23.2286  23.2715  23.2877
    23.2964  23.3843  23.4172  23.4609  23.5101  23.5360  23.5729  23.5945
    23.6127  23.6971  23.7519  23.7814  23.8311  23.9029  23.9188  23.9699
    23.9997  24.0374  24.0521  24.0999  24.1165  24.1968  24.2952  24.3665
    24.4102  24.4519  24.4525  24.4561  24.4696  24.5631  24.5633  24.5634
    24.7131  24.7420  24.7837  24.7873  24.8367  24.8982  24.9551  24.9797
    25.0064  25.0194  25.1556  25.1805  25.2256  25.2322  25.2630  25.3078
    25.3483  25.3704  25.5450  25.5837  25.6247  25.6537  25.6688  25.6907
    25.7103  25.7884  25.7924  25.8390  25.8694  25.8857  25.9092  25.9149
    25.9597  25.9741  26.0206  26.0606  26.1008  26.1277  26.1484  26.2169
    26.2427  26.3311  26.4284  26.5010  26.5598  26.5892  26.6229  26.6420
    26.6767  26.6904  26.7341  26.8253  26.8401  26.8598  26.8984  26.9392
    26.9908  27.0176  27.0241  27.0710  27.1298  27.1633  27.1701  27.1976
    27.2175  27.2453  27.2817  27.3051  27.3453  27.4073  27.4925  27.5203
    27.5252  27.5501  27.5531  27.5847  27.6230  27.6654  27.7105  27.7233

          k = 0.2500-0.4833 0.0000 ( 41698 PWs)   bands (ev):

   -47.7583 -47.7582 -47.7319 -47.7318 -47.7086 -47.7085 -47.7019 -47.7018
   -47.6954 -47.6953 -47.6912 -47.6911 -47.6890 -47.6890 -47.6797 -47.6797
   -47.6750 -47.6750 -47.6460 -47.6459 -47.5891 -47.5891 -47.5767 -47.5766
   -47.5564 -47.5563 -47.5283 -47.5282 -47.5156 -47.5155 -47.4961 -47.4960
   -47.4762 -47.4761 -47.4138 -47.4137 -47.3555 -47.3554 -47.3503 -47.3502
   -47.2973 -47.2972 -47.2849 -47.2848 -47.1955 -47.1954 -47.1824 -47.1823
   -19.3464 -19.3464 -19.0573 -19.0573 -18.8710 -18.8709 -18.7693 -18.7693
   -18.6785 -18.6785 -18.6445 -18.6444 -18.6184 -18.6183 -18.5254 -18.5253
   -18.3708 -18.3708 -18.3459 -18.3459 -18.2474 -18.2473 -18.2245 -18.2245
   -18.2187 -18.2186 -18.1418 -18.1417 -17.0662 -17.0662 -16.9939 -16.9938
    -7.7284  -7.7284  -6.9871  -6.9871  -6.9845  -6.9845  -6.9604  -6.9604
    -6.8972  -6.8972  -6.8942  -6.8941  -6.8306  -6.8305  -6.7727  -6.7726
    -6.7558  -6.7557  -6.7215  -6.7214  -6.7142  -6.7141  -6.6223  -6.6223
    -6.5687  -6.5686  -6.4419  -6.4418  -6.1362  -6.1362  -6.0583  -6.0582
    -5.6320  -5.6319  -5.6214  -5.6213  -5.3843  -5.3843  -5.3502  -5.3501
    -5.1945  -5.1944  -5.1510  -5.1510  -5.0674  -5.0673  -4.9888  -4.9888
    -4.9640  -4.9640  -4.8100  -4.8099  -4.5308  -4.5307  -4.5275  -4.5275
    -4.4301  -4.4301  -4.3310  -4.3310  -4.2497  -4.2496  -4.2032  -4.2032
    -4.1117  -4.1116  -3.9950  -3.9950  -3.9656  -3.9656  -3.9586  -3.9585
    -3.6430  -3.6430  -3.4441  -3.4440  -3.3855  -3.3854  -3.0777  -3.0777
    -2.8522  -2.8522  -2.8352  -2.8352  -2.6426  -2.6426  -2.4243  -2.4243
    -2.4237  -2.4236  -2.2939  -2.2938  -2.2599  -2.2599  -2.2097  -2.2097
    -2.0209  -2.0209  -1.8794  -1.8794  -1.6164  -1.6164  -1.5879  -1.5878
    -1.4040  -1.4039  -1.3782  -1.3782  -1.3433  -1.3432  -1.2951  -1.2950
    -1.2831  -1.2830  -1.1545  -1.1544  -0.9731  -0.9731  -0.8903  -0.8903
    -0.7468  -0.7467  -0.7381  -0.7381  -0.6276  -0.6275  -0.5262  -0.5262
    -0.3512  -0.3512  -0.2062  -0.2062  -0.0158  -0.0157  -0.0121  -0.0121
     0.2014   0.2015   0.2596   0.2597   0.3739   0.3739   0.3815   0.3815
     0.6181   0.6182   0.8344   0.8345   0.8558   0.8558   1.0285   1.0286
     1.5727   1.5727   2.1182   2.1183   2.4761   2.4762   2.5343   2.5343
     2.7120   2.7120   3.0807   3.0807   3.3407   3.3407   3.3960   3.3961
     3.5155   3.5155   3.7174   3.7174   3.7181   3.7181   3.8698   3.8699
     5.7463   5.7463   6.8700   6.8700   7.0450   7.0450   7.2475   7.2476
     7.3247   7.3247   7.7095   7.7095   8.1743   8.1743   8.2411   8.2411
     8.7777   8.7777   8.8265   8.8265   8.9661   8.9661   8.9705   8.9705
     9.2381   9.2381   9.6209   9.6209   9.6486   9.6486   9.8255   9.8256
     9.8548   9.8548  10.1198  10.1198  10.1915  10.1915  10.5207  10.5207
    10.7289  10.7289  10.7487  10.7487  10.7911  10.7911  11.4438  11.4438
    11.4987  11.4987  11.5279  11.5279  11.7026  11.7026  12.1591  12.1591
    12.3643  12.3643  12.3864  12.3864  12.4636  12.4636  12.4734  12.4734
    12.7815  12.7815  12.8419  12.8419  12.9343  12.9344  12.9498  12.9498
    13.1183  13.1183  13.1814  13.1814  13.3119  13.3119  13.4770  13.4770
    13.5431  13.5431  13.6239  13.6239  13.7888  13.7888  13.9153  13.9153
    14.0442  14.0442  14.1343  14.1344  14.1530  14.1530  14.2146  14.2146
    14.2460  14.2460  14.3865  14.3865  14.5071  14.5071  14.5442  14.5442
    14.7484  14.7484  14.8251  14.8251  14.8421  14.8421  14.8440  14.8440
    14.9443  14.9443  15.1195  15.1195  15.2966  15.2966  15.3968  15.3968
    15.4534  15.4534  15.6312  15.6312  15.6677  15.6677  15.7465  15.7465
    15.8466  15.8466  15.8939  15.8939  15.9754  15.9754  16.1824  16.1824
    16.1869  16.1869  16.2579  16.2579  16.3060  16.3060  16.4032  16.4032
    16.4951  16.4951  16.5185  16.5186  16.5722  16.5722  16.6230  16.6230
    16.8623  16.8623  16.9861  16.9861  17.0471  17.0471  17.1192  17.1192
    17.1972  17.1972  17.2812  17.2812  17.3739  17.3739  17.5933  17.5933
    17.7462  17.7462  17.7484  17.7484  17.9631  17.9631  17.9916  17.9916
    18.0775  18.0775  18.1896  18.1896  18.3065  18.3065  18.4251  18.4251
    18.4645  18.4645  18.6538  18.6538  18.6842  18.6842  18.8275  18.8275
    18.8523  18.8523  19.0141  19.0141  19.1279  19.1279  19.1656  19.1656
    19.2749  19.2749  19.4448  19.4448  19.5280  19.5280  19.5906  19.5906
    19.6733  19.6733  19.8134  19.8134  19.8951  19.8951  19.9702  19.9703
    20.0544  20.0544  20.0605  20.0605  20.1148  20.1148  20.3021  20.3021
    20.3453  20.3453  20.4281  20.4281  20.6156  20.6156  20.6307  20.6307
    20.7046  20.7046  20.8772  20.8772  20.8926  20.8926  20.9942  20.9942
    21.0799  21.0799  21.2559  21.2559  21.3370  21.3370  21.4633  21.4633
    21.5250  21.5250  21.5410  21.5410  21.6954  21.6954  21.7374  21.7374
    21.9424  21.9424  22.0058  22.0058  22.1103  22.1103  22.1450  22.1451
    22.3020  22.3020  22.5296  22.5296  22.5307  22.5307  22.6687  22.6687
    22.6787  22.6787  22.7714  22.7715  22.9226  22.9226  23.0733  23.0733
    23.1176  23.1176  23.2206  23.2206  23.4943  23.4943  23.5097  23.5097
    23.6088  23.6088  23.7871  23.7872  23.8135  23.8135  23.9989  23.9989
    24.0206  24.0206  24.0988  24.0989  24.3471  24.3471  24.3516  24.3516
    24.4762  24.4762  24.6853  24.6853  24.7572  24.7572  24.7852  24.7852
    24.8782  24.8782  24.9388  24.9388  25.1256  25.1256  25.2818  25.2818
    25.4220  25.4220  25.4240  25.4241  25.5186  25.5186  25.5425  25.5426
    25.6248  25.6248  25.7834  25.7834  25.9052  25.9052  26.0447  26.0447
    26.0536  26.0536  26.1030  26.1030  26.1783  26.1783  26.2116  26.2116
    26.3224  26.3225  26.3337  26.3337  26.4418  26.4418  26.4875  26.4875
    26.5287  26.5287  26.5697  26.5697  26.5857  26.5857  26.6585  26.6585
    26.7348  26.7348  26.8451  26.8451  26.9221  26.9221  27.0226  27.0227
    27.0847  27.0847  27.1296  27.1296  27.1601  27.1601  27.2139  27.2139
    27.2587  27.2587  27.4579  27.4579  27.4996  27.4997  27.6027  27.6028
    27.6168  27.6168  27.6217  27.6217  27.7240  27.7240  27.8274  27.8767

          k =-0.5000 0.0000 0.0000 ( 41692 PWs)   bands (ev):

   -47.7185 -47.7185 -47.7184 -47.7184 -47.7037 -47.7037 -47.7034 -47.7034
   -47.6931 -47.6931 -47.6931 -47.6931 -47.6878 -47.6878 -47.6873 -47.6873
   -47.6870 -47.6870 -47.6867 -47.6867 -47.5830 -47.5830 -47.5827 -47.5827
   -47.5207 -47.5207 -47.5206 -47.5206 -47.5165 -47.5165 -47.5164 -47.5164
   -47.4556 -47.4556 -47.4555 -47.4555 -47.3529 -47.3529 -47.3528 -47.3528
   -47.2910 -47.2910 -47.2910 -47.2910 -47.1885 -47.1885 -47.1884 -47.1884
   -19.3055 -19.3055 -19.1306 -19.1306 -18.9530 -18.9530 -18.8741 -18.8741
   -18.8063 -18.8063 -18.6438 -18.6438 -18.4267 -18.4267 -18.4119 -18.4119
   -18.2988 -18.2988 -18.2509 -18.2509 -18.2413 -18.2413 -18.2175 -18.2175
   -18.1823 -18.1823 -18.1495 -18.1495 -17.0709 -17.0709 -17.0704 -17.0704
    -7.5953  -7.5953  -7.5340  -7.5340  -7.4904  -7.4904  -7.4891  -7.4891
    -7.2517  -7.2517  -7.2175  -7.2175  -6.9037  -6.9037  -6.8607  -6.8607
    -6.8374  -6.8374  -6.7571  -6.7571  -6.5984  -6.5984  -6.4961  -6.4961
    -6.4607  -6.4607  -6.3484  -6.3484  -5.8489  -5.8489  -5.8201  -5.8201
    -5.7989  -5.7989  -5.4567  -5.4567  -5.3561  -5.3561  -5.2873  -5.2873
    -5.0447  -5.0447  -4.9974  -4.9974  -4.9633  -4.9633  -4.8991  -4.8991
    -4.7908  -4.7908  -4.5548  -4.5548  -4.5081  -4.5081  -4.3259  -4.3259
    -4.2445  -4.2445  -4.1336  -4.1336  -4.0640  -4.0640  -4.0448  -4.0448
    -3.9557  -3.9557  -3.8861  -3.8861  -3.8476  -3.8476  -3.8186  -3.8186
    -3.6389  -3.6389  -3.4322  -3.4322  -3.4067  -3.4067  -3.3855  -3.3855
    -3.3150  -3.3150  -2.9790  -2.9790  -2.8708  -2.8708  -2.5853  -2.5853
    -2.3844  -2.3844  -2.3794  -2.3794  -2.3408  -2.3408  -2.2088  -2.2088
    -1.6982  -1.6982  -1.6755  -1.6755  -1.6259  -1.6259  -1.6109  -1.6109
    -1.5311  -1.5311  -1.4156  -1.4156  -1.3523  -1.3523  -1.3290  -1.3290
    -1.2240  -1.2240  -0.9433  -0.9433  -0.8363  -0.8363  -0.7644  -0.7644
    -0.5878  -0.5878  -0.5216  -0.5216  -0.4432  -0.4432  -0.3075  -0.3075
    -0.2336  -0.2336  -0.2217  -0.2217  -0.2178  -0.2178  -0.2063  -0.2063
    -0.0230  -0.0230   0.1289   0.1289   0.2623   0.2623   0.3686   0.3686
     0.5418   0.5418   0.5899   0.5899   1.5421   1.5421   2.0098   2.0098
     2.2851   2.2851   2.3379   2.3379   2.5570   2.5570   2.6426   2.6426
     2.6604   2.6604   2.6915   2.6915   2.7865   2.7865   2.7867   2.7867
     2.8435   2.8435   2.8875   2.8875   3.4245   3.4245   3.6302   3.6302
     6.0291   6.0291   6.0293   6.0293   6.8237   6.8237   7.0526   7.0526
     7.4176   7.4176   7.8743   7.8743   8.0611   8.0611   8.4530   8.4530
     8.8478   8.8478   9.1463   9.1463   9.6467   9.6467   9.6561   9.6561
     9.7549   9.7549   9.8383   9.8383  10.2955  10.2955  10.4543  10.4543
    10.5120  10.5120  10.5316  10.5316  10.6702  10.6702  10.6958  10.6958
    10.8525  10.8525  10.9965  10.9965  11.1213  11.1213  11.2159  11.2159
    11.3589  11.3589  11.5306  11.5306  11.5571  11.5571  11.5984  11.5984
    11.6294  11.6294  11.6642  11.6642  11.8103  11.8103  12.0241  12.0241
    12.0515  12.0515  12.2327  12.2327  12.3311  12.3311  12.6796  12.6796
    12.7048  12.7048  12.8075  12.8075  12.9923  12.9923  13.1644  13.1644
    13.2920  13.2920  13.5554  13.5554  13.5563  13.5563  13.6065  13.6065
    13.6147  13.6147  13.7309  13.7309  13.7367  13.7367  13.9152  13.9152
    13.9243  13.9243  14.4668  14.4668  14.4728  14.4728  14.5982  14.5982
    14.7324  14.7324  14.7434  14.7434  14.9383  14.9383  15.1364  15.1364
    15.2720  15.2720  15.2938  15.2938  15.3311  15.3311  15.4619  15.4619
    15.4709  15.4709  15.4849  15.4849  15.5501  15.5501  15.7744  15.7744
    15.8285  15.8285  15.8925  15.8925  15.9003  15.9003  16.0197  16.0197
    16.0322  16.0322  16.0996  16.0996  16.1535  16.1535  16.1950  16.1950
    16.2231  16.2231  16.5563  16.5563  16.5853  16.5853  16.6340  16.6340
    16.8247  16.8247  17.0814  17.0814  17.2060  17.2060  17.2748  17.2748
    17.6977  17.6977  17.7233  17.7233  17.7281  17.7281  17.9471  17.9471
    17.9650  17.9650  18.0281  18.0281  18.1299  18.1299  18.2361  18.2361
    18.3127  18.3127  18.3391  18.3391  18.5170  18.5170  18.5777  18.5777
    18.6369  18.6369  18.6700  18.6700  18.8265  18.8265  18.9722  18.9722
    19.0040  19.0040  19.1028  19.1028  19.4290  19.4290  19.4519  19.4519
    19.6201  19.6201  19.6922  19.6922  19.8811  19.8811  19.8920  19.8920
    20.0137  20.0137  20.0824  20.0824  20.1570  20.1570  20.2299  20.2299
    20.3433  20.3433  20.5734  20.5734  20.7089  20.7089  20.7321  20.7321
    20.8873  20.8873  20.9001  20.9001  20.9936  20.9936  21.0805  21.0805
    21.2982  21.2982  21.3314  21.3314  21.3322  21.3322  21.3612  21.3612
    21.4195  21.4195  21.5243  21.5243  21.6782  21.6782  21.7156  21.7156
    21.7193  21.7193  21.7537  21.7537  21.7781  21.7781  21.9383  21.9383
    21.9770  21.9770  22.1382  22.1382  22.2211  22.2211  22.2900  22.2900
    22.4282  22.4282  22.4296  22.4296  22.6182  22.6182  22.6668  22.6668
    22.7494  22.7494  22.7525  22.7525  22.8606  22.8606  22.9206  22.9206
    22.9911  22.9911  23.1884  23.1884  23.2022  23.2022  23.2198  23.2198
    23.2828  23.2828  23.3398  23.3398  23.3693  23.3693  23.7278  23.7278
    23.7279  23.7279  23.7413  23.7413  23.8099  23.8099  23.8362  23.8362
    23.9549  23.9549  24.1516  24.1516  24.2075  24.2075  24.2633  24.2633
    24.3140  24.3140  24.5128  24.5128  24.5511  24.5511  24.6014  24.6014
    24.7728  24.7728  24.8310  24.8310  24.8596  24.8596  24.8917  24.8917
    25.1513  25.1513  25.1667  25.1667  25.2596  25.2596  25.7618  25.7618
    25.7704  25.7704  25.8221  25.8221  25.8272  25.8272  25.9015  25.9015
    26.1377  26.1377  26.2571  26.2571  26.3378  26.3378  26.3836  26.3836
    26.3852  26.3852  26.5762  26.5762  26.6077  26.6077  26.6293  26.6293
    26.6946  26.6946  26.7420  26.7420  26.8433  26.8433  27.0639  27.0639
    27.0891  27.0891  27.1164  27.1164  27.2214  27.2214  27.2243  27.2243
    27.2876  27.2876  27.3291  27.3291  27.3780  27.3780  27.6333  27.6333
    27.7487  27.7487  27.7849  27.7850  27.8339  27.8340  27.9781  27.9781

          k =-0.5000 0.2417 0.0000 ( 41644 PWs)   bands (ev):

   -47.7185 -47.7185 -47.7184 -47.7184 -47.7037 -47.7037 -47.7034 -47.7034
   -47.6941 -47.6941 -47.6937 -47.6937 -47.6931 -47.6931 -47.6930 -47.6930
   -47.6800 -47.6800 -47.6798 -47.6798 -47.5829 -47.5829 -47.5827 -47.5827
   -47.5213 -47.5213 -47.5211 -47.5211 -47.5165 -47.5165 -47.5164 -47.5164
   -47.4554 -47.4554 -47.4553 -47.4553 -47.3529 -47.3529 -47.3528 -47.3528
   -47.2910 -47.2910 -47.2910 -47.2910 -47.1887 -47.1887 -47.1886 -47.1886
   -19.2293 -19.2293 -19.0588 -19.0588 -18.8665 -18.8665 -18.8485 -18.8485
   -18.7857 -18.7857 -18.6632 -18.6632 -18.4409 -18.4409 -18.4115 -18.4115
   -18.3644 -18.3644 -18.3440 -18.3440 -18.2846 -18.2846 -18.2526 -18.2526
   -18.2258 -18.2258 -18.1999 -18.1999 -17.0697 -17.0697 -17.0693 -17.0693
    -7.3810  -7.3810  -7.2609  -7.2609  -7.2424  -7.2424  -7.2005  -7.2005
    -7.1903  -7.1903  -7.1465  -7.1465  -6.8927  -6.8927  -6.8420  -6.8420
    -6.7125  -6.7125  -6.6144  -6.6144  -6.4861  -6.4861  -6.4693  -6.4693
    -6.4544  -6.4544  -6.3775  -6.3775  -5.8854  -5.8854  -5.8393  -5.8393
    -5.6188  -5.6188  -5.5332  -5.5332  -5.5025  -5.5025  -5.4729  -5.4729
    -5.4044  -5.4044  -5.3261  -5.3261  -5.2878  -5.2878  -5.0598  -5.0598
    -4.7269  -4.7269  -4.6503  -4.6503  -4.5086  -4.5086  -4.3491  -4.3491
    -4.2545  -4.2545  -4.2253  -4.2253  -4.1286  -4.1286  -4.1125  -4.1125
    -3.9928  -3.9928  -3.9796  -3.9796  -3.9224  -3.9224  -3.8299  -3.8299
    -3.7527  -3.7527  -3.7149  -3.7149  -3.5224  -3.5224  -3.2886  -3.2886
    -3.2737  -3.2737  -3.1497  -3.1497  -3.0227  -3.0227  -2.7301  -2.7301
    -2.4501  -2.4501  -2.3953  -2.3953  -2.2331  -2.2331  -2.1862  -2.1862
    -1.8853  -1.8853  -1.6146  -1.6146  -1.4419  -1.4419  -1.3976  -1.3976
    -1.1932  -1.1932  -1.1592  -1.1592  -1.1406  -1.1406  -1.1092  -1.1092
    -0.9898  -0.9898  -0.9475  -0.9475  -0.9070  -0.9070  -0.7887  -0.7887
    -0.5056  -0.5056  -0.4868  -0.4868  -0.4400  -0.4400  -0.4157  -0.4157
    -0.2800  -0.2800  -0.2490  -0.2490  -0.1450  -0.1450  -0.1401  -0.1401
    -0.0718  -0.0718   0.0323   0.0323   0.1278   0.1278   0.2241   0.2241
     0.6791   0.6791   0.7139   0.7139   1.6530   1.6530   1.9183   1.9183
     1.9929   1.9929   2.0190   2.0190   2.0594   2.0594   2.1027   2.1027
     2.7312   2.7312   2.7479   2.7479   2.9181   2.9181   3.0910   3.0910
     3.1906   3.1906   3.3084   3.3084   3.5409   3.5409   3.7343   3.7343
     6.1545   6.1545   6.1546   6.1546   7.0431   7.0431   7.2554   7.2554
     7.5975   7.5975   8.0087   8.0087   8.2817   8.2817   8.4267   8.4267
     8.5691   8.5691   8.8669   8.8669   8.9039   8.9039   9.0948   9.0948
     9.2693   9.2693   9.4375   9.4375   9.7819   9.7819   9.9495   9.9495
    10.0104  10.0104  10.0410  10.0410  10.4017  10.4017  10.6403  10.6403
    10.6890  10.6890  10.9816  10.9816  11.3223  11.3223  11.3372  11.3372
    11.6860  11.6860  11.7771  11.7771  11.9142  11.9142  12.0294  12.0294
    12.1762  12.1762  12.3037  12.3037  12.3961  12.3961  12.4832  12.4832
    12.5302  12.5302  12.6700  12.6700  12.7762  12.7762  12.8935  12.8935
    12.9191  12.9191  13.0702  13.0702  13.3130  13.3130  13.4109  13.4109
    13.4684  13.4684  13.4820  13.4820  13.6282  13.6282  13.7358  13.7358
    13.8567  13.8567  13.8763  13.8763  13.9470  13.9470  14.0470  14.0470
    14.2064  14.2064  14.6663  14.6663  14.6705  14.6705  14.7911  14.7911
    14.8383  14.8383  14.9360  14.9360  14.9703  14.9703  15.1159  15.1159
    15.2546  15.2546  15.3269  15.3269  15.4065  15.4065  15.4561  15.4561
    15.5089  15.5089  15.5622  15.5622  15.6066  15.6066  15.7293  15.7293
    15.8200  15.8200  15.9008  15.9008  15.9771  15.9771  16.0956  16.0956
    16.1802  16.1802  16.2505  16.2505  16.3688  16.3688  16.3843  16.3843
    16.4658  16.4658  16.5081  16.5081  16.5501  16.5501  16.7477  16.7477
    16.7852  16.7852  16.8578  16.8578  16.9595  16.9595  16.9861  16.9861
    17.1251  17.1251  17.2662  17.2662  17.3406  17.3406  17.4659  17.4659
    17.5432  17.5432  17.6794  17.6794  17.7361  17.7361  17.9876  17.9876
    18.1165  18.1165  18.2232  18.2232  18.2758  18.2758  18.3516  18.3516
    18.3703  18.3703  18.5683  18.5683  18.6607  18.6607  18.6849  18.6849
    18.7130  18.7130  18.9359  18.9359  19.0775  19.0775  19.1568  19.1568
    19.3092  19.3092  19.4031  19.4031  19.4186  19.4186  19.5958  19.5958
    19.6904  19.6904  19.7278  19.7278  19.8848  19.8848  20.0589  20.0589
    20.0758  20.0758  20.1482  20.1482  20.2557  20.2557  20.3251  20.3251
    20.3697  20.3697  20.4010  20.4010  20.6200  20.6200  20.8287  20.8287
    20.8360  20.8360  20.8713  20.8713  20.9800  20.9800  21.0092  21.0092
    21.2501  21.2501  21.2853  21.2853  21.3644  21.3644  21.4161  21.4161
    21.7467  21.7467  21.8248  21.8248  21.8424  21.8424  21.9017  21.9017
    22.0088  22.0088  22.0551  22.0551  22.1693  22.1693  22.3301  22.3301
    22.6079  22.6079  22.6686  22.6686  22.6869  22.6869  22.7414  22.7414
    22.9676  22.9676  23.0015  23.0015  23.0860  23.0860  23.3674  23.3674
    23.3760  23.3760  23.4444  23.4444  23.5507  23.5507  23.5549  23.5549
    23.6536  23.6536  23.8776  23.8776  23.8883  23.8883  23.9313  23.9313
    23.9700  23.9700  24.1468  24.1468  24.1776  24.1776  24.3007  24.3007
    24.3742  24.3742  24.5541  24.5541  24.7329  24.7329  24.7961  24.7961
    24.9468  24.9468  25.0268  25.0268  25.1137  25.1137  25.1137  25.1137
    25.1623  25.1623  25.1847  25.1847  25.3244  25.3244  25.3489  25.3489
    25.5022  25.5022  25.5084  25.5084  25.6190  25.6190  25.7272  25.7272
    25.7710  25.7710  25.8302  25.8302  25.8862  25.8862  25.9442  25.9442
    26.0879  26.0879  26.2111  26.2111  26.2207  26.2208  26.2648  26.2648
    26.2670  26.2670  26.3495  26.3495  26.3887  26.3887  26.5888  26.5888
    26.5900  26.5900  26.6460  26.6460  26.6949  26.6949  26.7572  26.7572
    26.8785  26.8785  26.8991  26.8992  26.9848  26.9848  26.9940  26.9940
    27.1215  27.1215  27.2069  27.2069  27.2875  27.2875  27.3028  27.3028
    27.3344  27.3345  27.5687  27.5687  27.5712  27.5712  27.7007  27.7008

          k =-0.5000-0.4833 0.0000 ( 41672 PWs)   bands (ev):

   -47.7184 -47.7184 -47.7184 -47.7184 -47.7036 -47.7036 -47.7035 -47.7035
[...]
    -1.1055  -1.1055  -1.0255  -1.0255  -0.9540  -0.9540  -0.8151  -0.8151
    -0.6148  -0.6148  -0.5456  -0.5456  -0.5001  -0.5001  -0.4555  -0.4555
    -0.3428  -0.3428  -0.2876  -0.2876  -0.2122  -0.2122  -0.1611  -0.1611
    -0.1237  -0.1237  -0.0213  -0.0213   0.0591   0.0591   0.1616   0.1616
     0.6159   0.6159   0.9781   0.9781   1.5989   1.5989   1.8160   1.8160
     1.9020   1.9020   1.9479   1.9479   2.0011   2.0011   2.0775   2.0775
     2.6549   2.6549   2.6613   2.6613   2.8259   2.8259   3.0075   3.0075
     3.1213   3.1213   3.2375   3.2375   3.5031   3.5031   3.7197   3.7197
     6.0843   6.0843   6.4600   6.4600   7.0740   7.0740   7.3047   7.3047
     7.6443   7.6443   8.0439   8.0439   8.1862   8.1862   8.4305   8.4305
     8.5963   8.5963   8.8872   8.8872   8.9353   8.9353   9.0146   9.0146
     9.3041   9.3041   9.4773   9.4773   9.7325   9.7325   9.8797   9.8797
     9.9717   9.9717  10.0321  10.0321  10.3352  10.3352  10.6174  10.6174
    10.6869  10.6869  10.9954  10.9954  11.2394  11.2394  11.3533  11.3533
    11.6701  11.6701  11.8030  11.8030  11.8801  11.8801  11.9408  11.9408
    12.1843  12.1843  12.2103  12.2103  12.3742  12.3742  12.4774  12.4774
    12.4941  12.4941  12.6714  12.6714  12.8059  12.8059  12.8731  12.8731
    12.9003  12.9003  13.0638  13.0638  13.2908  13.2908  13.3619  13.3619
    13.3947  13.3947  13.4789  13.4789  13.6041  13.6041  13.6300  13.6300
    13.8106  13.8106  13.9057  13.9057  13.9644  13.9644  14.0078  14.0078
    14.2662  14.2662  14.6197  14.6197  14.6752  14.6752  14.7997  14.7997
    14.8354  14.8354  14.9661  14.9661  15.0007  15.0007  15.1010  15.1010
    15.2244  15.2244  15.3175  15.3175  15.3942  15.3942  15.4160  15.4160
    15.4425  15.4425  15.5139  15.5139  15.5403  15.5403  15.6203  15.6203
    15.7686  15.7686  15.8395  15.8395  15.9985  15.9985  16.1021  16.1021
    16.1389  16.1389  16.1790  16.1790  16.3372  16.3372  16.3630  16.3630
    16.4058  16.4058  16.4398  16.4398  16.5364  16.5364  16.7360  16.7360
    16.8150  16.8150  16.8847  16.8847  16.9987  16.9987  17.0216  17.0216
    17.1226  17.1226  17.2970  17.2970  17.3204  17.3204  17.4579  17.4579
    17.5589  17.5589  17.6784  17.6784  17.8228  17.8228  18.0150  18.0150
    18.1470  18.1470  18.2622  18.2622  18.2931  18.2931  18.3565  18.3565
    18.4245  18.4245  18.5473  18.5473  18.6627  18.6627  18.6967  18.6967
    18.7509  18.7509  18.9187  18.9187  19.0341  19.0341  19.1640  19.1640
    19.2757  19.2757  19.3873  19.3873  19.4337  19.4337  19.5632  19.5632
    19.7100  19.7100  19.7880  19.7880  19.8542  19.8542  20.0036  20.0036
    20.0391  20.0391  20.1597  20.1597  20.2707  20.2707  20.3272  20.3272
    20.3940  20.3940  20.4353  20.4353  20.6514  20.6514  20.8128  20.8128
    20.8565  20.8565  20.9198  20.9198  21.0046  21.0046  21.0634  21.0634
    21.2504  21.2504  21.2659  21.2659  21.3553  21.3553  21.4359  21.4359
    21.7605  21.7605  21.8287  21.8287  21.8814  21.8814  21.9381  21.9381
    21.9749  21.9749  22.0671  22.0671  22.2263  22.2263  22.3445  22.3445
    22.6075  22.6075  22.6609  22.6609  22.6754  22.6754  22.7489  22.7489
    22.9445  22.9445  22.9889  22.9889  23.1715  23.1715  23.3189  23.3189
    23.3656  23.3656  23.4071  23.4071  23.4605  23.4605  23.5136  23.5136
    23.6805  23.6805  23.8499  23.8499  23.8866  23.8866  23.9387  23.9387
    23.9812  23.9812  24.0535  24.0535  24.1819  24.1819  24.3036  24.3036
    24.3387  24.3387  24.5118  24.5118  24.6490  24.6490  24.8041  24.8041
    24.9297  24.9297  24.9808  24.9808  25.0752  25.0752  25.1058  25.1058
    25.1236  25.1236  25.2269  25.2269  25.3058  25.3058  25.3870  25.3870
    25.4646  25.4646  25.5252  25.5252  25.6374  25.6374  25.7321  25.7321
    25.8084  25.8084  25.8465  25.8465  25.9148  25.9148  25.9593  25.9593
    26.0833  26.0833  26.1361  26.1361  26.1825  26.1825  26.2139  26.2139
    26.2956  26.2956  26.3269  26.3269  26.3680  26.3680  26.5476  26.5476
    26.5986  26.5986  26.6509  26.6509  26.6620  26.6620  26.7137  26.7137
    26.7953  26.7953  26.9061  26.9061  26.9751  26.9751  27.0110  27.0110
    27.1470  27.1470  27.1698  27.1698  27.2187  27.2187  27.2531  27.2531
    27.3125  27.3125  27.5197  27.5197  27.6016  27.6016  27.7061  27.7061

          k =-0.5000-0.4833 0.0000 ( 41672 PWs)   bands (ev):

   -47.8340 -47.8340 -47.8001 -47.8001 -47.7990 -47.7990 -47.7906 -47.7906
   -47.7884 -47.7884 -47.7724 -47.7724 -47.7628 -47.7628 -47.7296 -47.7296
   -47.7282 -47.7282 -47.6688 -47.6688 -47.6616 -47.6616 -47.6404 -47.6404
   -47.6363 -47.6363 -47.6051 -47.6051 -47.5906 -47.5906 -47.5386 -47.5386
   -47.5242 -47.5242 -47.4746 -47.4746 -47.4370 -47.4370 -47.4355 -47.4355
   -47.3654 -47.3654 -47.2699 -47.2699 -47.2671 -47.2671 -47.2540 -47.2540
   -19.2320 -19.2320 -19.1337 -19.1337 -18.9239 -18.9239 -18.8555 -18.8555
   -18.6966 -18.6966 -18.6586 -18.6586 -18.6192 -18.6192 -18.5500 -18.5500
   -18.5367 -18.5367 -18.4817 -18.4817 -18.4710 -18.4710 -18.4242 -18.4242
   -18.2952 -18.2952 -18.2105 -18.2105 -17.2222 -17.2222 -17.1404 -17.1404
    -7.4801  -7.4801  -7.3533  -7.3533  -7.0383  -7.0383  -6.9495  -6.9495
    -6.9435  -6.9435  -6.9213  -6.9213  -6.8325  -6.8325  -6.6843  -6.6843
    -6.6136  -6.6136  -6.5515  -6.5515  -6.4906  -6.4906  -6.4578  -6.4578
    -6.3728  -6.3728  -6.2639  -6.2639  -6.1527  -6.1527  -6.0866  -6.0866
    -6.0244  -6.0244  -5.9737  -5.9737  -5.8880  -5.8880  -5.8005  -5.8005
    -5.4514  -5.4514  -5.3681  -5.3681  -5.2105  -5.2105  -5.1845  -5.1845
    -4.8412  -4.8412  -4.7917  -4.7917  -4.7274  -4.7274  -4.6673  -4.6673
    -4.6349  -4.6349  -4.6286  -4.6286  -4.5754  -4.5754  -4.5287  -4.5287
    -4.2881  -4.2881  -4.2668  -4.2668  -4.2270  -4.2270  -4.1977  -4.1977
    -3.8769  -3.8769  -3.8334  -3.8334  -3.2385  -3.2385  -3.1753  -3.1753
    -2.9791  -2.9791  -2.9710  -2.9710  -2.8405  -2.8405  -2.6853  -2.6853
    -2.6694  -2.6694  -2.6289  -2.6289  -2.3623  -2.3623  -2.2727  -2.2727
    -1.7751  -1.7751  -1.7066  -1.7066  -1.5543  -1.5543  -1.5017  -1.5017
    -1.4257  -1.4257  -1.3896  -1.3896  -1.1574  -1.1574  -1.1332  -1.1332
    -0.8685  -0.8685  -0.8571  -0.8571  -0.7828  -0.7828  -0.7493  -0.7493
    -0.4783  -0.4783  -0.4757  -0.4757  -0.4334  -0.4334  -0.3653  -0.3653
    -0.3145  -0.3145  -0.2454  -0.2454  -0.1933  -0.1933  -0.1816  -0.1816
    -0.1136  -0.1136  -0.0813  -0.0813  -0.0587  -0.0587  -0.0219  -0.0219
     0.7074   0.7074   1.0845   1.0845   1.4039   1.4039   1.4543   1.4543
     1.6200   1.6200   1.7002   1.7002   1.8962   1.8962   1.9073   1.9073
     2.6980   2.6980   2.6989   2.6989   3.0337   3.0337   3.0740   3.0740
     3.4200   3.4200   3.4607   3.4607   3.6904   3.6904   3.6966   3.6966
     6.2594   6.2594   6.6874   6.6874   7.5697   7.5697   7.6929   7.6929
     7.8001   7.8001   7.8269   7.8269   8.0922   8.0922   8.1072   8.1072
     8.4823   8.4823   8.4900   8.4900   8.8859   8.8859   8.9132   8.9132
     8.9754   8.9754   9.0059   9.0059   9.5441   9.5441   9.5724   9.5724
     9.6397   9.6397   9.6814   9.6814  10.3673  10.3673  10.3682  10.3682
    10.4870  10.4870  10.4918  10.4918  11.1923  11.1923  11.2197  11.2197
    11.6080  11.6080  11.6149  11.6149  12.1212  12.1212  12.2053  12.2053
    12.5076  12.5076  12.5249  12.5249  12.7840  12.7840  12.8833  12.8833
    13.0286  13.0286  13.0558  13.0558  13.1573  13.1573  13.1999  13.1999
    13.4029  13.4029  13.4786  13.4786  13.6544  13.6544  13.6942  13.6942
    13.8935  13.8935  13.9973  13.9973  14.0326  14.0326  14.1344  14.1344
    14.2866  14.2866  14.3101  14.3101  14.4482  14.4482  14.4869  14.4869
    14.5246  14.5246  14.5386  14.5386  14.9739  14.9739  15.0155  15.0155
    15.0536  15.0536  15.0736  15.0736  15.1431  15.1431  15.2396  15.2396
    15.3271  15.3271  15.3854  15.3854  15.4043  15.4043  15.4074  15.4074
    15.4888  15.4888  15.5231  15.5231  15.5240  15.5240  15.5396  15.5396
    15.7821  15.7821  15.7852  15.7852  15.8773  15.8773  15.8792  15.8792
    16.0225  16.0225  16.0500  16.0500  16.1070  16.1070  16.1239  16.1239
    16.2031  16.2031  16.2190  16.2190  16.4045  16.4045  16.4305  16.4305
    16.6665  16.6665  16.6696  16.6696  16.8120  16.8120  16.8487  16.8487
    17.0382  17.0382  17.0641  17.0641  17.0928  17.0928  17.1171  17.1171
    17.3878  17.3878  17.4219  17.4219  17.5749  17.5749  17.6544  17.6544
    17.7175  17.7175  17.7312  17.7312  17.8710  17.8710  17.8721  17.8721
    17.9933  17.9933  18.0621  18.0621  18.2273  18.2273  18.2626  18.2626
    18.4279  18.4279  18.4534  18.4534  18.6740  18.6740  18.7396  18.7396
    18.8850  18.8850  18.8898  18.8898  19.1489  19.1489  19.1691  19.1691
    19.5689  19.5689  19.5897  19.5897  19.6561  19.6561  19.6861  19.6861
    19.8762  19.8762  19.9025  19.9025  19.9289  19.9289  19.9687  19.9687
    20.3377  20.3377  20.3736  20.3736  20.4157  20.4157  20.5176  20.5176
    21.0782  21.0782  21.0806  21.0806  21.3368  21.3368  21.4054  21.4054
    21.4859  21.4859  21.4885  21.4885  21.6087  21.6087  21.7250  21.7250
    21.9691  21.9691  21.9799  21.9799  22.2507  22.2507  22.2904  22.2904
    22.4929  22.4929  22.5334  22.5334  22.7057  22.7057  22.7341  22.7341
    22.7837  22.7837  22.7942  22.7942  22.8912  22.8912  22.9140  22.9140
    23.0872  23.0872  23.0955  23.0955  23.2815  23.2815  23.2898  23.2898
    23.3776  23.3776  23.4007  23.4007  23.5033  23.5033  23.5235  23.5235
    23.6712  23.6712  23.6985  23.6985  23.8659  23.8659  23.8674  23.8674
    23.9564  23.9564  23.9961  23.9961  24.1692  24.1692  24.2257  24.2257
    24.2619  24.2619  24.2673  24.2673  24.4037  24.4037  24.4052  24.4052
    24.4999  24.4999  24.5560  24.5560  24.7086  24.7086  24.7367  24.7367
    24.7972  24.7972  24.8130  24.8130  25.0526  25.0526  25.0866  25.0866
    25.2487  25.2487  25.2753  25.2753  25.4091  25.4091  25.5063  25.5063
    25.5359  25.5359  25.5551  25.5551  25.8419  25.8419  25.8570  25.8570
    25.9544  25.9544  25.9757  25.9757  26.1034  26.1034  26.1653  26.1653
    26.3891  26.3891  26.4379  26.4379  26.6659  26.6659  26.6850  26.6850
    26.7933  26.7933  26.8055  26.8055  26.8133  26.8133  26.8938  26.8938
    27.0414  27.0414  27.0706  27.0706  27.2184  27.2184  27.2349  27.2349
    27.3981  27.3981  27.4132  27.4132  27.5568  27.5568  27.5912  27.5912
    27.7377  27.7377  27.7430  27.7430  27.9386  27.9386  27.9646  27.9646

     the Fermi energy is    -0.0102 ev

!    total energy              =   -3758.13102454 Ry
     Harris-Foulkes estimate   =   -3758.13102454 Ry
     estimated scf accuracy    <          5.7E-09 Ry

     The total energy is the sum of the following terms:

     one-electron contribution =  -79678.36792436 Ry
     hartree contribution      =   39944.09863058 Ry
     xc contribution           =    -695.82394326 Ry
     ewald contribution        =   36671.96213673 Ry
     smearing contrib. (-TS)   =       0.00007577 Ry

     convergence has been achieved in  26 iterations

     Forces acting on atoms (Ry/au):


     negative rho (up, down):  0.138E+01 0.000E+00
     atom    1 type  1   force =     0.00000000    0.00000000    0.01185104
     atom    2 type  2   force =    -0.00000000    0.00000000   -0.02605270
     atom    3 type  2   force =     0.00000000    0.00000000    0.07705878
     atom    4 type  1   force =    -0.00000000   -0.01189379   -0.02806522
     atom    5 type  1   force =    -0.00000000    0.01189379   -0.02806522
     atom    6 type  1   force =     0.00000000    0.00000000    0.02580943
     atom    7 type  1   force =     0.00000000    0.00000000   -0.02713101
     atom    8 type  2   force =    -0.00000000    0.00000000   -0.01177525
     atom    9 type  2   force =     0.00000000    0.00000000   -0.01999640
     atom   10 type  1   force =     0.00000000    0.02099739   -0.00305764
     atom   11 type  1   force =     0.00000000   -0.02099739   -0.00305764
     atom   12 type  1   force =     0.00000000    0.00000000    0.02876539
     atom   13 type  1   force =     0.00000000    0.00000000    0.00085426
     atom   14 type  2   force =     0.00000000    0.00000000    0.00049237
     atom   15 type  2   force =     0.00000000    0.00000000   -0.00040679
     atom   16 type  1   force =     0.00000000    0.00044042    0.00078071
     atom   17 type  1   force =     0.00000000   -0.00044042    0.00078071
     atom   18 type  1   force =     0.00000000    0.00000000   -0.00009794
     atom   19 type  1   force =     0.00000000    0.00000000   -0.00010806
     atom   20 type  2   force =    -0.00000000    0.00000000    0.00017867
     atom   21 type  2   force =     0.00000000    0.00000000    0.00001380
     atom   22 type  1   force =    -0.00000000   -0.00035371    0.00040372
     atom   23 type  1   force =    -0.00000000    0.00035371    0.00040372
     atom   24 type  1   force =     0.00000000    0.00000000    0.00042128
     atom   25 type  1   force =     0.00000000    0.00000000    0.01185104
     atom   26 type  2   force =     0.00000000    0.00000000   -0.02605270
     atom   27 type  2   force =     0.00000000    0.00000000    0.07705878
     atom   28 type  1   force =     0.00000000   -0.01189379   -0.02806522
     atom   29 type  1   force =     0.00000000    0.01189379   -0.02806522
     atom   30 type  1   force =     0.00000000    0.00000000    0.02580943
     atom   31 type  1   force =     0.00000000    0.00000000   -0.02713101
     atom   32 type  2   force =     0.00000000    0.00000000   -0.01177525
     atom   33 type  2   force =     0.00000000    0.00000000   -0.01999639
     atom   34 type  1   force =    -0.00000000    0.02099739   -0.00305764
     atom   35 type  1   force =    -0.00000000   -0.02099739   -0.00305764
     atom   36 type  1   force =     0.00000000    0.00000000    0.02876539
     atom   37 type  1   force =     0.00000000    0.00000000    0.00085426
     atom   38 type  2   force =    -0.00000000    0.00000000    0.00049237
     atom   39 type  2   force =     0.00000000    0.00000000   -0.00040679
     atom   40 type  1   force =    -0.00000000    0.00044042    0.00078071
     atom   41 type  1   force =    -0.00000000   -0.00044042    0.00078071
     atom   42 type  1   force =     0.00000000    0.00000000   -0.00009794
     atom   43 type  1   force =     0.00000000    0.00000000   -0.00010805
     atom   44 type  2   force =     0.00000000    0.00000000    0.00017867
     atom   45 type  2   force =     0.00000000    0.00000000    0.00001380
     atom   46 type  1   force =     0.00000000   -0.00035371    0.00040372
     atom   47 type  1   force =     0.00000000    0.00035371    0.00040372
     atom   48 type  1   force =     0.00000000    0.00000000    0.00042128

     Total force =     0.002665     Total SCF correction =     0.000379
     SCF correction compared to forces is large: reduce conv_thr to get better values

     bfgs converged in  12 scf cycles and  11 bfgs steps
     (criteria: energy < 0.10E-03, force < 0.10E-02)

     End of BFGS Geometry Optimization

     Final energy   =   -3758.1310245353 Ry
Begin final coordinates

ATOMIC_POSITIONS (crystal)
O0       0.000000000   0.500000000   0.332440000    0   0   0
Rh1      0.250000000   0.500000000   0.366310000    0   0   0
Rh1      0.000000000   0.000000000   0.366310000    0   0   0
O0       0.250000000   0.810000000   0.366310000    0   0   0
O0       0.250000000   0.190000000   0.366310000    0   0   0
O0       0.000000000   0.500000000   0.400170000    0   0   0
O0       0.000000000   0.000000000   0.421570000    0   0   0
Rh1      0.250000000   0.000000000   0.455440000    0   0   0
Rh1      0.000000000   0.500000000   0.455440000    0   0   0
O0       0.250000000   0.690000000   0.455440000    0   0   0
O0       0.250000000   0.310000000   0.455440000    0   0   0
O0       0.000000000   0.000000000   0.489300000    0   0   0
O0       0.000000000   0.500000000   0.509594560
Rh1      0.250000000   0.500000000   0.543863902
Rh1      0.000000000   0.000000000   0.544591617
O0       0.250000000   0.806672404   0.544452348
O0       0.250000000   0.193327596   0.544452348
O0       0.000000000   0.500000000   0.578140036
O0       0.000000000   0.000000000   0.599262650
Rh1      0.250000000  -0.000000000   0.634311545
Rh1      0.000000000   0.500000000   0.631225617
O0       0.250000001   0.690038175   0.636047621
O0       0.250000001   0.309961825   0.636047621
O0       0.000000000   0.000000000   0.667534975
O0       0.500000000   0.500000000   0.332440000    0   0   0
Rh1      0.750000000   0.500000000   0.366310000    0   0   0
Rh1      0.500000000   0.000000000   0.366310000    0   0   0
O0       0.750000000   0.810000000   0.366310000    0   0   0
O0       0.750000000   0.190000000   0.366310000    0   0   0
O0       0.500000000   0.500000000   0.400170000    0   0   0
O0       0.500000000   0.000000000   0.421570000    0   0   0
Rh1      0.750000000   0.000000000   0.455440000    0   0   0
Rh1      0.500000000   0.500000000   0.455440000    0   0   0
O0       0.750000000   0.690000000   0.455440000    0   0   0
O0       0.750000000   0.310000000   0.455440000    0   0   0
O0       0.500000000   0.000000000   0.489300000    0   0   0
O0       0.500000000   0.500000000   0.509594560
Rh1      0.750000000   0.500000000   0.543863902
Rh1      0.500000000   0.000000000   0.544591617
O0       0.750000000   0.806672404   0.544452348
O0       0.750000000   0.193327596   0.544452348
O0       0.500000000   0.500000000   0.578140036
O0       0.500000000   0.000000000   0.599262650
Rh1      0.750000000   0.000000000   0.634311545
Rh1      0.500000000   0.500000000   0.631225617
O0       0.749999999   0.690038175   0.636047621
O0       0.749999999   0.309961825   0.636047621
O0       0.500000000   0.000000000   0.667534975
End final coordinates



     init_run     :    129.69s CPU    172.24s WALL (       1 calls)
     electrons    : 119701.40s CPU 151497.14s WALL (      12 calls)
     update_pot   :     58.18s CPU     72.58s WALL (      11 calls)
     forces       :    798.40s CPU    864.46s WALL (      12 calls)

     Called by init_run:
     wfcinit      :     96.55s CPU    131.79s WALL (       1 calls)
     potinit      :      2.39s CPU      3.44s WALL (       1 calls)

     Called by electrons:
     c_bands      :  96835.21s CPU 121161.63s WALL (     293 calls)
     sum_band     :  13785.51s CPU  19560.09s WALL (     293 calls)
     v_of_rho     :    257.05s CPU    446.42s WALL (     303 calls)
     newd         :   9026.70s CPU  10397.30s WALL (     303 calls)
     mix_rho      :     51.31s CPU     91.71s WALL (     293 calls)

     Called by c_bands:
     init_us_2    :     67.44s CPU     68.33s WALL (    5391 calls)
     cegterg      :  96485.99s CPU 120809.54s WALL (    2637 calls)

     Called by *egterg:
     h_psi        :  35630.91s CPU  55848.78s WALL (    7054 calls)
     s_psi        :   3727.62s CPU   3747.80s WALL (    7054 calls)
     g_psi        :     41.43s CPU     41.45s WALL (    4408 calls)
     cdiaghg      :  38382.05s CPU  39143.84s WALL (    6928 calls)

     Called by h_psi:
     add_vuspsi   :   3742.96s CPU   3764.59s WALL (    7054 calls)

     General routines
     calbec       :   6103.40s CPU   6734.95s WALL (    9799 calls)
     fft          :    671.39s CPU   1267.02s WALL (    4951 calls)
     ffts         :      5.92s CPU     11.45s WALL (     596 calls)
     fftw         :  30194.13s CPU  55078.59s WALL ( 8773856 calls)
     interpolate  :     40.52s CPU     75.16s WALL (     596 calls)

     Parallel routines
     fft_scatter  :  24362.88s CPU  49773.17s WALL ( 8779403 calls)

     PWSCF        :     1d    9h36m CPU        1d   18h29m WALL


   This run was terminated on:  15:21:49   1Mar2014            

=------------------------------------------------------------------------------=
   JOB DONE.
=------------------------------------------------------------------------------=
