
     Program PWSCF v.5.0.2 (svn rev. 9656) starts on 28Apr2014 at  5: 5:33 

     This program is part of the open-source Quantum ESPRESSO suite
     for quantum simulation of materials; please cite
         "P. Giannozzi et al., J. Phys.:Condens. Matter 21 395502 (2009);
          URL http://www.quantum-espresso.org", 
     in publications or presentations arising from this work. More details at
     http://www.quantum-espresso.org/quote.php

     Parallel version (MPI), running on    16 processors
     K-points division:     npool     =       4
     R & G space division:  proc/nbgrp/npool/nimage =       4

     Current dimensions of program PWSCF are:
     Max number of different atomic species (ntypx) = 10
     Max number of k-points (npk) =  40000
     Max angular momentum in pseudopotentials (lmaxx) =  3
     Reading input from pwscf.in
Warning: card &CELL ignored
Warning: card / ignored

     Subspace diagonalization in iterative solution of the eigenvalue problem:
     a serial algorithm will be used


     Parallelization info
     --------------------
     sticks:   dense  smooth     PW     G-vecs:    dense   smooth      PW
     Min        1491     475    132               353925    64028    9441
     Max        1492     476    134               353934    64061    9444
     Sum        5965    1901    531              1415713   256153   37769



     bravais-lattice index     =            0
     lattice parameter (alat)  =      12.2076  a.u.
     unit-cell volume          =    7496.5096 (a.u.)^3
     number of atoms/cell      =           32
     number of atomic types    =            3
     number of electrons       =       247.00
     number of Kohn-Sham states=          370
     kinetic-energy cutoff     =      40.0000  Ry
     charge density cutoff     =     500.0000  Ry
     convergence threshold     =      1.0E-06
     mixing beta               =       0.7000
     number of iterations used =            8  plain     mixing
     Exchange-correlation      = SLA  PW   PBE  PBE ( 1 4 3 4 0)
     EXX-fraction              =        0.00
     nstep                     =           50


     celldm(1)=  12.207631  celldm(2)=   0.000000  celldm(3)=   0.000000
     celldm(4)=   0.000000  celldm(5)=   0.000000  celldm(6)=   0.000000

     crystal axes: (cart. coord. in units of alat)
               a(1) = (   1.000000   0.000000   0.000000 )  
               a(2) = (   0.000000   1.004836   0.000000 )  
               a(3) = (   0.000000   0.000000   4.100811 )  

     reciprocal axes: (cart. coord. in units 2 pi/alat)
               b(1) = (  1.000000  0.000000  0.000000 )  
               b(2) = (  0.000000  0.995187  0.000000 )  
               b(3) = (  0.000000  0.000000  0.243854 )  


     PseudoPot. # 1 for O  read from file:
     /home/camp/zhonxu/pseudo/o_pbe_v1.01.uspp.F.UPF
     MD5 check sum: 2bcb18d16ea4b960afae9ec6d52f22d2
     Pseudo is Ultrasoft + core correction, Zval =  6.0
     Generated by new atomic code, or converted to UPF format
     Using radial grid of  737 points,  5 beta functions with: 
                l(1) =   0
                l(2) =   0
                l(3) =   1
                l(4) =   1
                l(5) =   2
     Q(r) pseudized with  8 coefficients,  rinner =    0.900   0.900   0.900
                                                       0.900   0.900

     PseudoPot. # 2 for Pt read from file:
     /home/camp/zhonxu/pseudo/pt_pbe_v1.uspp.F.UPF
     MD5 check sum: 4c71d6ad5ef119f1eb26a4d0b7884226
     Pseudo is Ultrasoft + core correction, Zval = 16.0
     Generated by new atomic code, or converted to UPF format
     Using radial grid of  985 points,  6 beta functions with: 
                l(1) =   0
                l(2) =   0
                l(3) =   1
                l(4) =   1
                l(5) =   2
                l(6) =   2
     Q(r) pseudized with  8 coefficients,  rinner =    1.300   1.300   1.300
                                                       1.300   1.300

     PseudoPot. # 3 for H  read from file:
     /home/camp/zhonxu/pseudo/h_pbe_v1.uspp.F.UPF
     MD5 check sum: 3408e3ff4ec8b0a4e358431e7e038a48
     Pseudo is Ultrasoft, Zval =  1.0
     Generated by new atomic code, or converted to UPF format
     Using radial grid of  615 points,  2 beta functions with: 
                l(1) =   0
                l(2) =   0
     Q(r) pseudized with  8 coefficients,  rinner =    0.700

     atomic species   valence    mass     pseudopotential
        O0             6.00    15.99940     O ( 1.00)
        Pt1           16.00   195.08000     Pt( 1.00)
        H2             1.00     1.00794     H ( 1.00)


     Simplified LDA+U calculation (l_max = 2) with parameters (eV):
     atomic species    L          U    alpha       J0     beta
        Pt1            2     4.5000   0.0000   0.0000   0.0000



     No symmetry found



   Cartesian axes

     site n.     atom                  positions (alat units)
         1           O0  tau(   1) = (   0.0000000   0.0000000   1.5486303  )
         2           O0  tau(   2) = (   0.0000000   0.5024180   1.6456145  )
         3           Pt1 tau(   3) = (   0.2500000   0.5024180   1.8492198  )
         4           Pt1 tau(   4) = (   0.0000000   0.0000000   1.8561502  )
         5           O0  tau(   5) = (   0.2500000   0.8139171   1.8185047  )
         6           O0  tau(   6) = (   0.2500000   0.1909188   1.8850199  )
         7           O0  tau(   7) = (   0.0000000   0.5024180   2.0364218  )
         8           O0  tau(   8) = (   0.0000000   0.0000000   2.1712565  )
         9           Pt1 tau(   9) = (   0.2500000   0.0000000   2.3611651  )
        10           Pt1 tau(  10) = (   0.0000000   0.5024180   2.3568182  )
        11           O0  tau(  11) = (   0.2500000   0.6933368   2.3352889  )
        12           O0  tau(  12) = (   0.2500000   0.3114991   2.3978263  )
        13           O0  tau(  13) = (   0.0000000   0.0000000   2.5469728  )
        14           O0  tau(  14) = (   0.5000000   0.0000000   1.5487944  )
        15           O0  tau(  15) = (   0.5000000   0.5024180   1.6432360  )
        16           Pt1 tau(  16) = (   0.7500000   0.5024180   1.8492608  )
        17           Pt1 tau(  17) = (   0.5000000   0.0000000   1.8561092  )
        18           O0  tau(  18) = (   0.7500000   0.8139171   1.8183407  )
        19           O0  tau(  19) = (   0.7500000   0.1909188   1.8850199  )
        20           O0  tau(  20) = (   0.5000000   0.5024180   2.0398255  )
        21           O0  tau(  21) = (   0.5000000   0.0000000   2.1711335  )
        22           Pt1 tau(  22) = (   0.7500000   0.0000000   2.3611651  )
        23           Pt1 tau(  23) = (   0.5000000   0.5024180   2.3633795  )
        24           O0  tau(  24) = (   0.7500000   0.6933368   2.3343868  )
        25           O0  tau(  25) = (   0.7500000   0.3114991   2.3965141  )
        26           O0  tau(  26) = (   0.5000000   0.0000000   2.5473419  )
        27           H2  tau(  27) = (   0.0000800   0.6431151   1.5815188  )
        28           H2  tau(  28) = (   0.4999900   0.6432457   1.5795915  )
        29           H2  tau(  29) = (   0.1433600   0.0342348   1.5075812  )
        30           H2  tau(  30) = (   0.6432100   0.0348377   1.5077042  )
        31           O0  tau(  31) = (   0.5002800   0.5276996   2.6647891  )
        32           H2  tau(  32) = (   0.4897800   0.3840985   2.7162543  )

     number of k points=    10  Methfessel-Paxton smearing, width (Ry)=  0.0100
                       cart. coord. in units 2pi/alat
        k(    1) = (   0.0000000   0.0000000   0.0000000), wk =   0.1250000
        k(    2) = (   0.0000000   0.2487968   0.0000000), wk =   0.2500000
        k(    3) = (   0.0000000  -0.4975937   0.0000000), wk =   0.1250000
        k(    4) = (   0.2500000   0.0000000   0.0000000), wk =   0.2500000
        k(    5) = (   0.2500000   0.2487968   0.0000000), wk =   0.2500000
        k(    6) = (   0.2500000  -0.4975937   0.0000000), wk =   0.2500000
        k(    7) = (  -0.5000000   0.0000000   0.0000000), wk =   0.1250000
        k(    8) = (  -0.5000000   0.2487968   0.0000000), wk =   0.2500000
        k(    9) = (  -0.5000000  -0.4975937   0.0000000), wk =   0.1250000
        k(   10) = (  -0.2500000   0.2487968   0.0000000), wk =   0.2500000

     Dense  grid:  1415713 G-vectors     FFT dimensions: (  90,  90, 360)

     Smooth grid:   256153 G-vectors     FFT dimensions: (  50,  50, 216)

     Largest allocated arrays     est. size (Mb)     dimensions
        Kohn-Sham Wavefunctions        45.72 Mb     (   8098,  370)
        Atomic wavefunctions           21.87 Mb     (   8098,  177)
        NL pseudopotentials            49.55 Mb     (   8098,  401)
        Each V/rho on FFT grid         11.12 Mb     ( 729000)
        Each G-vector array             2.70 Mb     ( 353934)
        G-vector shells                 1.17 Mb     ( 153301)
     Largest temporary arrays     est. size (Mb)     dimensions
        Auxiliary wavefunctions       182.88 Mb     (   8098, 1480)
        Each subspace H/S matrix       33.42 Mb     (1480,1480)
        Each <psi_i|beta_j> matrix      2.26 Mb     (    401,  370)
        Arrays for rho mixing          88.99 Mb     ( 729000,   8)

     Check: negative/imaginary core charge=   -0.000003    0.000000

     Initial potential from superposition of free atoms
     Check: negative starting charge=   -1.535574

     starting charge  242.99984, renormalised to  247.00000

     negative rho (up, down):  0.156E+01 0.000E+00
     Number of +U iterations with fixed ns =  0
     Starting occupations:
 --- enter write_ns ---
 LDA+U parameters:
U( 2)     =  4.50000000
alpha( 2) =  0.00000000
atom    3   Tr[ns(na)] =   8.00000
    eigenvalues: 
  0.800  0.800  0.800  0.800  0.800
    eigenvectors:
  1.000  0.000  0.000  0.000  0.000
  0.000  1.000  0.000  0.000  0.000
  0.000  0.000  1.000  0.000  0.000
  0.000  0.000  0.000  1.000  0.000
  0.000  0.000  0.000  0.000  1.000
    occupations:
  0.800  0.000  0.000  0.000  0.000
  0.000  0.800  0.000  0.000  0.000
  0.000  0.000  0.800  0.000  0.000
  0.000  0.000  0.000  0.800  0.000
  0.000  0.000  0.000  0.000  0.800
atom    4   Tr[ns(na)] =   8.00000
    eigenvalues: 
  0.800  0.800  0.800  0.800  0.800
    eigenvectors:
  1.000  0.000  0.000  0.000  0.000
  0.000  1.000  0.000  0.000  0.000
  0.000  0.000  1.000  0.000  0.000
  0.000  0.000  0.000  1.000  0.000
  0.000  0.000  0.000  0.000  1.000
    occupations:
  0.800  0.000  0.000  0.000  0.000
  0.000  0.800  0.000  0.000  0.000
  0.000  0.000  0.800  0.000  0.000
  0.000  0.000  0.000  0.800  0.000
  0.000  0.000  0.000  0.000  0.800
atom    9   Tr[ns(na)] =   8.00000
    eigenvalues: 
  0.800  0.800  0.800  0.800  0.800
    eigenvectors:
  1.000  0.000  0.000  0.000  0.000
  0.000  1.000  0.000  0.000  0.000
  0.000  0.000  1.000  0.000  0.000
  0.000  0.000  0.000  1.000  0.000
  0.000  0.000  0.000  0.000  1.000
    occupations:
  0.800  0.000  0.000  0.000  0.000
  0.000  0.800  0.000  0.000  0.000
  0.000  0.000  0.800  0.000  0.000
  0.000  0.000  0.000  0.800  0.000
  0.000  0.000  0.000  0.000  0.800
atom   10   Tr[ns(na)] =   8.00000
    eigenvalues: 
  0.800  0.800  0.800  0.800  0.800
    eigenvectors:
  1.000  0.000  0.000  0.000  0.000
  0.000  1.000  0.000  0.000  0.000
  0.000  0.000  1.000  0.000  0.000
  0.000  0.000  0.000  1.000  0.000
  0.000  0.000  0.000  0.000  1.000
    occupations:
  0.800  0.000  0.000  0.000  0.000
  0.000  0.800  0.000  0.000  0.000
  0.000  0.000  0.800  0.000  0.000
  0.000  0.000  0.000  0.800  0.000
  0.000  0.000  0.000  0.000  0.800
atom   16   Tr[ns(na)] =   8.00000
    eigenvalues: 
  0.800  0.800  0.800  0.800  0.800
    eigenvectors:
  1.000  0.000  0.000  0.000  0.000
  0.000  1.000  0.000  0.000  0.000
  0.000  0.000  1.000  0.000  0.000
  0.000  0.000  0.000  1.000  0.000
  0.000  0.000  0.000  0.000  1.000
    occupations:
  0.800  0.000  0.000  0.000  0.000
  0.000  0.800  0.000  0.000  0.000
  0.000  0.000  0.800  0.000  0.000
  0.000  0.000  0.000  0.800  0.000
  0.000  0.000  0.000  0.000  0.800
atom   17   Tr[ns(na)] =   8.00000
    eigenvalues: 
  0.800  0.800  0.800  0.800  0.800
    eigenvectors:
  1.000  0.000  0.000  0.000  0.000
  0.000  1.000  0.000  0.000  0.000
  0.000  0.000  1.000  0.000  0.000
  0.000  0.000  0.000  1.000  0.000
  0.000  0.000  0.000  0.000  1.000
    occupations:
  0.800  0.000  0.000  0.000  0.000
  0.000  0.800  0.000  0.000  0.000
  0.000  0.000  0.800  0.000  0.000
  0.000  0.000  0.000  0.800  0.000
  0.000  0.000  0.000  0.000  0.800
atom   22   Tr[ns(na)] =   8.00000
    eigenvalues: 
  0.800  0.800  0.800  0.800  0.800
    eigenvectors:
  1.000  0.000  0.000  0.000  0.000
  0.000  1.000  0.000  0.000  0.000
  0.000  0.000  1.000  0.000  0.000
  0.000  0.000  0.000  1.000  0.000
  0.000  0.000  0.000  0.000  1.000
    occupations:
  0.800  0.000  0.000  0.000  0.000
  0.000  0.800  0.000  0.000  0.000
  0.000  0.000  0.800  0.000  0.000
  0.000  0.000  0.000  0.800  0.000
  0.000  0.000  0.000  0.000  0.800
atom   23   Tr[ns(na)] =   8.00000
    eigenvalues: 
  0.800  0.800  0.800  0.800  0.800
    eigenvectors:
  1.000  0.000  0.000  0.000  0.000
  0.000  1.000  0.000  0.000  0.000
  0.000  0.000  1.000  0.000  0.000
  0.000  0.000  0.000  1.000  0.000
  0.000  0.000  0.000  0.000  1.000
    occupations:
  0.800  0.000  0.000  0.000  0.000
  0.000  0.800  0.000  0.000  0.000
  0.000  0.000  0.800  0.000  0.000
  0.000  0.000  0.000  0.800  0.000
  0.000  0.000  0.000  0.000  0.800
N of occupied +U levels =  64.0000000
 --- exit write_ns ---
 Atomic wfc used for LDA+U Projector are NOT orthogonalized
     Starting wfc are  177 randomized atomic wfcs

     total cpu time spent up to now is      149.9 secs

     per-process dynamical memory:   424.9 Mb

     Self-consistent Calculation

     iteration #  1     ecut=    40.00 Ry     beta=0.70
     Davidson diagonalization with overlap
     ethr =  1.00E-02,  avg # of iterations =  5.1
 --- enter write_ns ---
 LDA+U parameters:
U( 2)     =  4.50000000
alpha( 2) =  0.00000000
atom    3   Tr[ns(na)] =   7.41970
    eigenvalues: 
  0.446  0.486  0.863  0.948  0.967
    eigenvectors:
  0.002  0.149  0.058  0.791  0.000
  0.987  0.013  0.000  0.000  0.000
  0.000  0.016  0.941  0.043  0.000
  0.010  0.822  0.001  0.166  0.000
  0.000  0.000  0.000  0.000  1.000
    occupations:
  0.873  0.003  0.003 -0.165  0.001
  0.003  0.447  0.000  0.004 -0.004
  0.003  0.000  0.860  0.051  0.001
 -0.165  0.004  0.051  0.563 -0.000
  0.001 -0.004  0.001 -0.000  0.967
atom    4   Tr[ns(na)] =   7.34494
    eigenvalues: 
  0.463  0.487  0.855  0.904  0.965
    eigenvectors:
  0.000  0.976  0.008  0.001  0.016
  0.029  0.000  0.038  0.933  0.000
  0.000  0.009  0.950  0.039  0.002
  0.000  0.015  0.003  0.000  0.982
  0.971  0.000  0.001  0.027  0.000
    occupations:
  0.497 -0.004 -0.036  0.058 -0.001
 -0.004  0.889  0.009  0.001  0.073
 -0.036  0.009  0.853 -0.000  0.001
  0.058  0.001 -0.000  0.957  0.000
 -0.001  0.073  0.001  0.000  0.475
atom    9   Tr[ns(na)] =   7.77091
    eigenvalues: 
  0.480  0.500  0.961  0.971  0.973
    eigenvectors:
  0.000  0.134  0.088  0.040  0.738
  1.000  0.000  0.000  0.000  0.000
  0.000  0.011  0.853  0.000  0.135
  0.000  0.855  0.050  0.006  0.089
  0.000  0.000  0.009  0.954  0.038
    occupations:
  0.909  0.000 -0.022 -0.159  0.000
  0.000  0.480 -0.000 -0.000 -0.000
 -0.022 -0.000  0.958 -0.044  0.001
 -0.159 -0.000 -0.044  0.568  0.001
  0.000 -0.000  0.001  0.001  0.971
atom   10   Tr[ns(na)] =   8.35417
    eigenvalues: 
  0.468  0.771  0.973  0.982  0.984
    eigenvectors:
  0.000  0.952  0.045  0.002  0.000
  0.021  0.000  0.000  0.000  0.979
  0.000  0.002  0.183  0.814  0.000
  0.000  0.045  0.771  0.183  0.000
  0.979  0.000  0.000  0.000  0.021
    occupations:
  0.780 -0.000  0.009  0.042  0.000
 -0.000  0.974  0.000  0.000 -0.074
  0.009  0.000  0.979 -0.006  0.001
  0.042  0.000 -0.006  0.965 -0.000
  0.000 -0.074  0.001 -0.000  0.478
atom   16   Tr[ns(na)] =   7.42126
    eigenvalues: 
  0.446  0.486  0.864  0.948  0.967
    eigenvectors:
  0.002  0.149  0.054  0.795  0.000
  0.987  0.013  0.000  0.000  0.000
  0.000  0.016  0.944  0.039  0.000
  0.010  0.822  0.001  0.166  0.000
  0.000  0.000  0.000  0.000  1.000
    occupations:
  0.874 -0.003  0.004 -0.165  0.000
 -0.003  0.447 -0.000 -0.003 -0.004
  0.004 -0.000  0.861  0.051  0.002
 -0.165 -0.003  0.051  0.563 -0.000
  0.000 -0.004  0.002 -0.000  0.967
atom   17   Tr[ns(na)] =   7.34525
    eigenvalues: 
  0.463  0.487  0.860  0.900  0.964
    eigenvectors:
  0.000  0.976  0.007  0.001  0.016
  0.029  0.000  0.060  0.911  0.000
  0.000  0.010  0.926  0.061  0.003
  0.000  0.015  0.004  0.000  0.981
  0.971  0.000  0.002  0.027  0.000
    occupations:
  0.497 -0.003 -0.037  0.057 -0.001
 -0.003  0.885  0.009  0.001  0.073
 -0.037  0.009  0.859 -0.001  0.001
  0.057  0.001 -0.001  0.956  0.000
 -0.001  0.073  0.001  0.000  0.475
atom   22   Tr[ns(na)] =   7.77115
    eigenvalues: 
  0.480  0.500  0.961  0.971  0.973
    eigenvectors:
  0.000  0.134  0.088  0.111  0.667
  0.999  0.001  0.000  0.000  0.000
  0.000  0.011  0.851  0.001  0.137
  0.001  0.854  0.050  0.016  0.079
  0.000  0.000  0.011  0.871  0.117
    occupations:
  0.909  0.000 -0.022 -0.159  0.000
  0.000  0.480  0.001  0.000 -0.000
 -0.022  0.001  0.958 -0.044 -0.001
 -0.159  0.000 -0.044  0.568 -0.000
  0.000 -0.000 -0.001 -0.000  0.971
atom   23   Tr[ns(na)] =   7.74258
    eigenvalues: 
  0.463  0.490  0.968  0.974  0.976
    eigenvectors:
  0.000  0.974  0.022  0.000  0.004
  0.021  0.000  0.001  0.951  0.026
  0.000  0.012  0.102  0.028  0.858
  0.000  0.014  0.874  0.000  0.111
  0.979  0.000  0.000  0.021  0.001
    occupations:
  0.503  0.001  0.052  0.056 -0.000
  0.001  0.963 -0.000 -0.000 -0.074
  0.052 -0.000  0.969 -0.008 -0.001
  0.056 -0.000 -0.008  0.962 -0.000
 -0.000 -0.074 -0.001 -0.000  0.474
N of occupied +U levels =  61.1699483
 --- exit write_ns ---

     negative rho (up, down):  0.151E+01 0.000E+00

     total cpu time spent up to now is      547.1 secs

     total energy              =   -2267.79444332 Ry
     Harris-Foulkes estimate   =   -2285.75098985 Ry
     estimated scf accuracy    <      22.49453838 Ry

     iteration #  2     ecut=    40.00 Ry     beta=0.70
     Davidson diagonalization with overlap
     ethr =  9.11E-03,  avg # of iterations =  5.0

     negative rho (up, down):  0.119E+01 0.000E+00

     total cpu time spent up to now is      880.4 secs

     total energy              =   -2220.75121072 Ry
     Harris-Foulkes estimate   =   -2324.34295490 Ry
     estimated scf accuracy    <     676.00329718 Ry

     iteration #  3     ecut=    40.00 Ry     beta=0.70
     Davidson diagonalization with overlap
     ethr =  9.11E-03,  avg # of iterations =  4.8

     negative rho (up, down):  0.771E+00 0.000E+00

     total cpu time spent up to now is     1228.5 secs

     total energy              =   -2240.73519202 Ry
     Harris-Foulkes estimate   =   -2311.97046380 Ry
     estimated scf accuracy    <     809.26233635 Ry

     iteration #  4     ecut=    40.00 Ry     beta=0.70
     Davidson diagonalization with overlap
     ethr =  9.11E-03,  avg # of iterations =  4.0

     negative rho (up, down):  0.889E+00 0.000E+00

     total cpu time spent up to now is     1499.8 secs

     total energy              =   -2279.49305058 Ry
     Harris-Foulkes estimate   =   -2282.40730814 Ry
     estimated scf accuracy    <       8.60032587 Ry

     iteration #  5     ecut=    40.00 Ry     beta=0.70
     Davidson diagonalization with overlap
     ethr =  3.48E-03,  avg # of iterations =  1.9

     negative rho (up, down):  0.103E+01 0.000E+00

     total cpu time spent up to now is     1714.9 secs

     total energy              =   -2280.75136474 Ry
     Harris-Foulkes estimate   =   -2282.06515808 Ry
     estimated scf accuracy    <       5.24869008 Ry

     iteration #  6     ecut=    40.00 Ry     beta=0.70
     Davidson diagonalization with overlap
     ethr =  2.12E-03,  avg # of iterations =  2.2

     negative rho (up, down):  0.108E+01 0.000E+00

     total cpu time spent up to now is     1933.1 secs

     total energy              =   -2281.01495018 Ry
     Harris-Foulkes estimate   =   -2281.40514905 Ry
     estimated scf accuracy    <       1.72903108 Ry

     iteration #  7     ecut=    40.00 Ry     beta=0.70
     Davidson diagonalization with overlap
     ethr =  7.00E-04,  avg # of iterations =  1.8

     negative rho (up, down):  0.116E+01 0.000E+00

     total cpu time spent up to now is     2146.0 secs

     total energy              =   -2281.02666746 Ry
     Harris-Foulkes estimate   =   -2281.21497016 Ry
     estimated scf accuracy    <       0.95737843 Ry

     iteration #  8     ecut=    40.00 Ry     beta=0.70
     Davidson diagonalization with overlap
     ethr =  3.88E-04,  avg # of iterations =  1.3

     negative rho (up, down):  0.123E+01 0.000E+00

     total cpu time spent up to now is     2356.0 secs

     total energy              =   -2280.87912802 Ry
     Harris-Foulkes estimate   =   -2281.16977506 Ry
     estimated scf accuracy    <       2.24285563 Ry

     iteration #  9     ecut=    40.00 Ry     beta=0.70
     Davidson diagonalization with overlap
     ethr =  3.88E-04,  avg # of iterations =  2.2

     negative rho (up, down):  0.127E+01 0.000E+00

     total cpu time spent up to now is     2563.6 secs

     total energy              =   -2280.93241725 Ry
     Harris-Foulkes estimate   =   -2281.05923873 Ry
     estimated scf accuracy    <       0.88659519 Ry

     iteration # 10     ecut=    40.00 Ry     beta=0.70
     Davidson diagonalization with overlap
     ethr =  3.59E-04,  avg # of iterations =  4.4

     negative rho (up, down):  0.142E+01 0.000E+00

     total cpu time spent up to now is     2825.0 secs

     total energy              =   -2280.93035706 Ry
     Harris-Foulkes estimate   =   -2281.02580121 Ry
     estimated scf accuracy    <       0.33656155 Ry

     iteration # 11     ecut=    40.00 Ry     beta=0.70
     Davidson diagonalization with overlap
     ethr =  1.36E-04,  avg # of iterations =  6.7

     negative rho (up, down):  0.154E+01 0.000E+00

     total cpu time spent up to now is     3118.2 secs

     total energy              =   -2280.89157141 Ry
     Harris-Foulkes estimate   =   -2280.97620902 Ry
     estimated scf accuracy    <       0.66162251 Ry

     iteration # 12     ecut=    40.00 Ry     beta=0.70
     Davidson diagonalization with overlap
     ethr =  1.36E-04,  avg # of iterations =  1.5

     negative rho (up, down):  0.156E+01 0.000E+00

     total cpu time spent up to now is     3330.2 secs

     total energy              =   -2280.88740168 Ry
     Harris-Foulkes estimate   =   -2280.96517454 Ry
     estimated scf accuracy    <       0.34243560 Ry

     iteration # 13     ecut=    40.00 Ry     beta=0.70
     Davidson diagonalization with overlap
     ethr =  1.36E-04,  avg # of iterations =  3.7

     negative rho (up, down):  0.153E+01 0.000E+00

     total cpu time spent up to now is     3570.5 secs

     total energy              =   -2280.83472301 Ry
     Harris-Foulkes estimate   =   -2280.96495634 Ry
     estimated scf accuracy    <       0.83871287 Ry

     iteration # 14     ecut=    40.00 Ry     beta=0.70
     Davidson diagonalization with overlap
     ethr =  1.36E-04,  avg # of iterations =  4.3

     negative rho (up, down):  0.156E+01 0.000E+00

     total cpu time spent up to now is     3809.1 secs

     total energy              =   -2280.86233769 Ry
     Harris-Foulkes estimate   =   -2280.97784852 Ry
     estimated scf accuracy    <       0.71891252 Ry

     iteration # 15     ecut=    40.00 Ry     beta=0.70
     Davidson diagonalization with overlap
     ethr =  1.36E-04,  avg # of iterations =  2.2

     negative rho (up, down):  0.157E+01 0.000E+00

     total cpu time spent up to now is     4023.2 secs

     total energy              =   -2280.90903617 Ry
     Harris-Foulkes estimate   =   -2280.94190072 Ry
     estimated scf accuracy    <       0.15952187 Ry

     iteration # 16     ecut=    40.00 Ry     beta=0.70
     Davidson diagonalization with overlap
     ethr =  6.46E-05,  avg # of iterations =  1.2

     negative rho (up, down):  0.157E+01 0.000E+00

     total cpu time spent up to now is     4242.5 secs

     total energy              =   -2280.92231824 Ry
     Harris-Foulkes estimate   =   -2280.92939917 Ry
     estimated scf accuracy    <       0.03835008 Ry

     iteration # 17     ecut=    40.00 Ry     beta=0.70
     Davidson diagonalization with overlap
     ethr =  1.55E-05,  avg # of iterations =  3.7

     negative rho (up, down):  0.158E+01 0.000E+00

     total cpu time spent up to now is     4485.5 secs

     total energy              =   -2280.92224960 Ry
     Harris-Foulkes estimate   =   -2280.92738540 Ry
     estimated scf accuracy    <       0.02513195 Ry

     iteration # 18     ecut=    40.00 Ry     beta=0.70
     Davidson diagonalization with overlap
     ethr =  1.02E-05,  avg # of iterations =  3.1

     negative rho (up, down):  0.158E+01 0.000E+00

     total cpu time spent up to now is     4711.9 secs

     total energy              =   -2280.92312618 Ry
     Harris-Foulkes estimate   =   -2280.92723727 Ry
     estimated scf accuracy    <       0.02632733 Ry

     iteration # 19     ecut=    40.00 Ry     beta=0.70
     Davidson diagonalization with overlap
     ethr =  1.02E-05,  avg # of iterations =  1.0

     negative rho (up, down):  0.157E+01 0.000E+00

     total cpu time spent up to now is     4923.0 secs

     total energy              =   -2280.92520784 Ry
     Harris-Foulkes estimate   =   -2280.92573200 Ry
     estimated scf accuracy    <       0.00591659 Ry

     iteration # 20     ecut=    40.00 Ry     beta=0.70
     Davidson diagonalization with overlap
     ethr =  2.40E-06,  avg # of iterations =  3.8

     negative rho (up, down):  0.158E+01 0.000E+00

     total cpu time spent up to now is     5148.8 secs

     total energy              =   -2280.92523842 Ry
     Harris-Foulkes estimate   =   -2280.92548057 Ry
     estimated scf accuracy    <       0.00131158 Ry

     iteration # 21     ecut=    40.00 Ry     beta=0.70
     Davidson diagonalization with overlap
     ethr =  5.31E-07,  avg # of iterations =  3.7

     negative rho (up, down):  0.158E+01 0.000E+00

     total cpu time spent up to now is     5383.4 secs

     total energy              =   -2280.92525354 Ry
     Harris-Foulkes estimate   =   -2280.92546326 Ry
     estimated scf accuracy    <       0.00100422 Ry

     iteration # 22     ecut=    40.00 Ry     beta=0.70
     Davidson diagonalization with overlap
     ethr =  4.07E-07,  avg # of iterations =  1.0

     negative rho (up, down):  0.158E+01 0.000E+00

     total cpu time spent up to now is     5597.9 secs

     total energy              =   -2280.92527899 Ry
     Harris-Foulkes estimate   =   -2280.92541737 Ry
     estimated scf accuracy    <       0.00047649 Ry

     iteration # 23     ecut=    40.00 Ry     beta=0.70
     Davidson diagonalization with overlap
     ethr =  1.93E-07,  avg # of iterations =  2.8

     negative rho (up, down):  0.158E+01 0.000E+00

     total cpu time spent up to now is     5811.7 secs

     total energy              =   -2280.92525483 Ry
     Harris-Foulkes estimate   =   -2280.92547528 Ry
     estimated scf accuracy    <       0.00168992 Ry

     iteration # 24     ecut=    40.00 Ry     beta=0.70
     Davidson diagonalization with overlap
     ethr =  1.93E-07,  avg # of iterations =  1.0

     negative rho (up, down):  0.158E+01 0.000E+00

     total cpu time spent up to now is     6029.3 secs

     total energy              =   -2280.92534054 Ry
     Harris-Foulkes estimate   =   -2280.92537729 Ry
     estimated scf accuracy    <       0.00015670 Ry

     iteration # 25     ecut=    40.00 Ry     beta=0.70
     Davidson diagonalization with overlap
     ethr =  6.34E-08,  avg # of iterations =  1.0

     negative rho (up, down):  0.158E+01 0.000E+00

     total cpu time spent up to now is     6248.5 secs

     total energy              =   -2280.92535643 Ry
     Harris-Foulkes estimate   =   -2280.92536346 Ry
     estimated scf accuracy    <       0.00002967 Ry

     iteration # 26     ecut=    40.00 Ry     beta=0.70
     Davidson diagonalization with overlap
     ethr =  1.20E-08,  avg # of iterations =  1.0

     negative rho (up, down):  0.158E+01 0.000E+00

     total cpu time spent up to now is     6466.8 secs

     total energy              =   -2280.92535437 Ry
     Harris-Foulkes estimate   =   -2280.92536789 Ry
     estimated scf accuracy    <       0.00006404 Ry

     iteration # 27     ecut=    40.00 Ry     beta=0.70
     Davidson diagonalization with overlap
     ethr =  1.20E-08,  avg # of iterations =  1.0

     negative rho (up, down):  0.158E+01 0.000E+00

     total cpu time spent up to now is     6676.8 secs

     total energy              =   -2280.92536079 Ry
     Harris-Foulkes estimate   =   -2280.92536141 Ry
     estimated scf accuracy    <       0.00000422 Ry

     iteration # 28     ecut=    40.00 Ry     beta=0.70
     Davidson diagonalization with overlap
     ethr =  1.71E-09,  avg # of iterations =  1.0

     negative rho (up, down):  0.158E+01 0.000E+00

     total cpu time spent up to now is     6879.7 secs

     total energy              =   -2280.92536026 Ry
     Harris-Foulkes estimate   =   -2280.92536170 Ry
     estimated scf accuracy    <       0.00000940 Ry

     iteration # 29     ecut=    40.00 Ry     beta=0.70
     Davidson diagonalization with overlap
     ethr =  1.71E-09,  avg # of iterations =  1.3

     negative rho (up, down):  0.158E+01 0.000E+00

     total cpu time spent up to now is     7088.2 secs

     total energy              =   -2280.92536007 Ry
     Harris-Foulkes estimate   =   -2280.92536223 Ry
     estimated scf accuracy    <       0.00001584 Ry

     iteration # 30     ecut=    40.00 Ry     beta=0.70
     Davidson diagonalization with overlap
     ethr =  1.71E-09,  avg # of iterations =  1.0

     negative rho (up, down):  0.158E+01 0.000E+00

     total cpu time spent up to now is     7306.9 secs

     total energy              =   -2280.92536096 Ry
     Harris-Foulkes estimate   =   -2280.92536134 Ry
     estimated scf accuracy    <       0.00000146 Ry

     iteration # 31     ecut=    40.00 Ry     beta=0.70
     Davidson diagonalization with overlap
     ethr =  5.93E-10,  avg # of iterations =  1.0

     negative rho (up, down):  0.158E+01 0.000E+00

     total cpu time spent up to now is     7524.3 secs

     total energy              =   -2280.92536104 Ry
     Harris-Foulkes estimate   =   -2280.92536130 Ry
     estimated scf accuracy    <       0.00000133 Ry

     iteration # 32     ecut=    40.00 Ry     beta=0.70
     Davidson diagonalization with overlap
     ethr =  5.37E-10,  avg # of iterations =  1.0

     negative rho (up, down):  0.158E+01 0.000E+00

     total cpu time spent up to now is     7738.2 secs

     End of self-consistent calculation
 --- enter write_ns ---
 LDA+U parameters:
U( 2)     =  4.50000000
alpha( 2) =  0.00000000
atom    3   Tr[ns(na)] =   8.73726
    eigenvalues: 
  0.694  0.709  0.987  0.988  0.991
    eigenvectors:
  0.014  0.158  0.807  0.006  0.015
  0.920  0.080  0.000  0.000  0.000
  0.000  0.003  0.025  0.001  0.971
  0.066  0.759  0.160  0.001  0.014
  0.000  0.000  0.007  0.993  0.000
    occupations:
  0.939  0.002  0.006 -0.105  0.000
  0.002  0.695  0.001  0.004 -0.002
  0.006  0.001  0.990  0.015 -0.000
 -0.105  0.004  0.015  0.757  0.001
  0.000 -0.002 -0.000  0.001  0.988
atom    4   Tr[ns(na)] =   8.73251
    eigenvalues: 
  0.694  0.716  0.983  0.986  0.987
    eigenvectors:
  0.000  0.986  0.006  0.003  0.005
  0.008  0.000  0.054  0.902  0.036
  0.000  0.004  0.882  0.029  0.084
  0.000  0.009  0.057  0.059  0.875
  0.992  0.000  0.000  0.007  0.000
    occupations:
  0.720 -0.005 -0.017  0.026 -0.001
 -0.005  0.984  0.000  0.000  0.026
 -0.017  0.000  0.982  0.003  0.000
  0.026  0.000  0.003  0.984  0.000
 -0.001  0.026  0.000  0.000  0.696
atom    9   Tr[ns(na)] =   8.71675
    eigenvalues: 
  0.717  0.727  0.961  0.966  0.987
    eigenvectors:
  0.000  0.138  0.000  0.009  0.854
  1.000  0.000  0.000  0.000  0.000
  0.000  0.006  0.015  0.974  0.005
  0.000  0.856  0.000  0.002  0.141
  0.000  0.000  0.985  0.015  0.000
    occupations:
  0.951  0.000 -0.005 -0.090  0.000
  0.000  0.717 -0.000  0.000 -0.002
 -0.005 -0.000  0.965 -0.017  0.001
 -0.090  0.000 -0.017  0.764  0.000
  0.000 -0.002  0.001  0.000  0.962
atom   10   Tr[ns(na)] =   8.77532
    eigenvalues: 
  0.667  0.764  0.984  0.985  0.988
    eigenvectors:
  0.000  0.980  0.000  0.007  0.013
  0.005  0.000  0.969  0.024  0.002
  0.000  0.001  0.019  0.472  0.509
  0.000  0.019  0.007  0.497  0.477
  0.995  0.000  0.005  0.000  0.000
    occupations:
  0.768 -0.001 -0.005  0.030  0.000
 -0.001  0.982 -0.000  0.000 -0.023
 -0.005 -0.000  0.986 -0.001  0.001
  0.030  0.000 -0.001  0.982 -0.000
  0.000 -0.023  0.001 -0.000  0.669
atom   16   Tr[ns(na)] =   8.73733
    eigenvalues: 
  0.694  0.709  0.987  0.988  0.991
    eigenvectors:
  0.014  0.158  0.817  0.000  0.011
  0.921  0.079  0.000  0.000  0.000
  0.000  0.003  0.020  0.000  0.976
  0.065  0.760  0.163  0.000  0.013
  0.000  0.000  0.000  1.000  0.000
    occupations:
  0.939 -0.002  0.006 -0.105 -0.000
 -0.002  0.695 -0.001 -0.004 -0.002
  0.006 -0.001  0.990  0.015  0.000
 -0.105 -0.004  0.015  0.757 -0.000
 -0.000 -0.002  0.000 -0.000  0.988
atom   17   Tr[ns(na)] =   8.73025
    eigenvalues: 
  0.694  0.716  0.982  0.986  0.987
    eigenvectors:
  0.000  0.986  0.006  0.003  0.005
  0.008  0.000  0.061  0.902  0.029
  0.000  0.004  0.886  0.039  0.071
  0.000  0.009  0.046  0.050  0.895
  0.992  0.000  0.000  0.007  0.000
    occupations:
  0.720 -0.005 -0.017  0.026 -0.001
 -0.005  0.983  0.001  0.000  0.026
 -0.017  0.001  0.982  0.003  0.000
  0.026  0.000  0.003  0.984  0.000
 -0.001  0.026  0.000  0.000  0.696
atom   22   Tr[ns(na)] =   8.71643
    eigenvalues: 
  0.717  0.727  0.961  0.966  0.987
    eigenvectors:
  0.001  0.137  0.000  0.009  0.853
  0.995  0.005  0.000  0.000  0.000
  0.000  0.005  0.033  0.956  0.005
  0.004  0.852  0.000  0.002  0.142
  0.000  0.000  0.966  0.033  0.000
    occupations:
  0.951  0.000 -0.005 -0.090 -0.000
  0.000  0.717  0.000  0.001 -0.002
 -0.005  0.000  0.964 -0.017 -0.001
 -0.090  0.001 -0.017  0.764 -0.001
 -0.000 -0.002 -0.001 -0.001  0.962
atom   23   Tr[ns(na)] =   8.71619
    eigenvalues: 
  0.692  0.720  0.972  0.986  0.988
    eigenvectors:
  0.000  0.982  0.000  0.000  0.018
  0.009  0.000  0.987  0.002  0.002
  0.000  0.010  0.004  0.306  0.680
  0.000  0.008  0.000  0.692  0.300
  0.991  0.000  0.009  0.000  0.000
    occupations:
  0.725  0.000  0.027  0.024 -0.000
  0.000  0.969  0.001 -0.000 -0.026
  0.027  0.001  0.984 -0.002 -0.000
  0.024 -0.000 -0.002  0.984 -0.000
 -0.000 -0.026 -0.000 -0.000  0.695
N of occupied +U levels =  69.8620305
 --- exit write_ns ---

          k = 0.0000 0.0000 0.0000 ( 32157 PWs)   bands (ev):

   -55.3214 -55.2978 -55.2660 -55.2400 -55.1988 -55.1454 -55.1430 -55.1404
   -55.1244 -55.1207 -55.1160 -54.9714 -54.9654 -54.9607 -54.9602 -54.9000
   -54.8813 -54.8757 -54.8721 -54.8691 -54.8020 -54.5806 -54.3372 -54.0488
   -22.0845 -21.7949 -21.3577 -21.2649 -20.7418 -20.5110 -20.4775 -20.4142
   -20.3981 -20.3653 -20.2178 -20.2044 -20.1375 -19.8982 -19.8116 -19.7180
   -19.5633 -19.1556 -18.8921 -11.2936 -11.1247 -10.8784 -10.2509 -10.0713
   -10.0187  -9.6413  -9.6140  -9.5763  -9.5405  -9.3675  -9.2344  -9.1932
    -9.1261  -9.1028  -8.9716  -8.9419  -8.7157  -8.5289  -8.4430  -8.1400
    -8.0840  -7.9377  -7.8792  -7.6489  -7.4595  -7.4280  -7.0709  -7.0286
    -6.9821  -6.9517  -6.7612  -6.7520  -6.5988  -6.5521  -6.3749  -6.1904
    -6.1375  -5.9534  -5.8361  -5.7901  -5.6900  -5.6676  -5.6443  -5.6214
    -5.5007  -5.4921  -5.3926  -5.3156  -5.2429  -5.2033  -5.1150  -5.0596
    -5.0254  -4.9192  -4.8784  -4.8122  -4.7176  -4.5861  -4.4926  -4.3881
    -4.1614  -4.0891  -3.9471  -3.7801  -3.5890  -3.3155  -3.1196  -3.0959
    -2.9536  -2.9502  -2.6569  -2.5347  -2.5115  -2.3573  -2.3471  -2.2356
    -2.1465  -1.9321  -1.8237  -1.5281  -1.5161  -0.9682  -0.5168  -0.4808
    -0.4714  -0.2208  -0.0175   0.1836   0.5859   0.9120   0.9971   1.4060
     1.4087   1.6614   1.9640   2.0803   2.5154   3.4354   4.1788   4.6536
     4.7014   5.5468   5.6077   5.8312   5.8725   6.2365   6.5690   6.7364
     6.9510   7.0334   7.0743   7.1219   7.2127   7.4010   7.6123   7.6427
     7.6910   7.7190   7.7317   7.7939   7.8704   7.9223   7.9296   8.0585
     8.1035   8.1456   8.2141   8.3770   8.4617   8.4961   8.5276   8.7176
     8.7868   8.9537   9.0192   9.1289   9.1372   9.2442   9.4524   9.5268
     9.6007   9.6770   9.8426   9.8931   9.9989  10.0929  10.2149  10.3020
    10.3324  10.6017  10.6409  10.7519  10.7990  10.7996  10.9084  10.9519
    10.9858  11.0098  11.2340  11.2673  11.3784  11.3895  11.4549  11.4862
    11.6037  11.6264  11.7244  11.8453  11.8643  11.9284  11.9868  12.0366
    12.1416  12.1853  12.2299  12.2723  12.3141  12.4548  12.4884  12.5787
    12.6738  12.7440  12.7771  12.8773  13.0310  13.2169  13.2593  13.3508
    13.3881  13.5969  13.6346  13.6898  13.7222  13.7385  13.9408  14.0144
    14.0961  14.1586  14.2654  14.3191  14.4285  14.5706  14.6711  14.7285
    14.8254  14.8647  14.9738  14.9900  15.0215  15.2487  15.3809  15.3965
    15.4364  15.5076  15.6213  15.7012  15.8084  15.8564  15.8926  15.9774
    16.0245  16.1040  16.1705  16.4839  16.5692  16.6174  16.6824  16.7081
    16.7696  16.8090  16.9155  17.0061  17.0561  17.0713  17.1252  17.1407
    17.1820  17.1953  17.2275  17.2435  17.2764  17.3205  17.3826  17.4016
    17.6114  17.6785  17.7823  17.8773  17.8959  17.9458  18.0501  18.1000
    18.1708  18.2122  18.2326  18.2560  18.4181  18.4442  18.4573  18.5783
    18.6055  18.6442  18.7051  18.7389  18.8017  18.8196  18.9082  18.9614
    19.0416  19.1010  19.1287  19.1795  19.2126  19.2627  19.3072  19.4019
    19.4727  19.5007  19.5271  19.6638  19.7436  19.7828  19.8017  19.9278
    19.9634  19.9780  20.0211  20.0703  20.0962  20.1456  20.1981  20.2822
    20.3643  20.5749  20.6516  20.6657  20.8311  20.8799  20.9163  21.0006
    21.0439  21.1167  21.1912  21.2550  21.2909  21.3151  21.3650  21.4964
    21.5845  21.6300  21.6481  21.7113  21.7844  21.8005  21.8169  21.8434
    21.8524  21.8876  21.9609  21.9889  22.0491  22.0585  22.0894  22.1395
    22.2130  22.2297

          k = 0.0000 0.2488 0.0000 ( 32033 PWs)   bands (ev):

   -55.3210 -55.2974 -55.2660 -55.2400 -55.1989 -55.1457 -55.1431 -55.1409
   -55.1235 -55.1208 -55.1155 -54.9708 -54.9661 -54.9606 -54.9601 -54.9000
   -54.8816 -54.8756 -54.8719 -54.8690 -54.8019 -54.5805 -54.3371 -54.0489
   -22.0692 -21.7936 -21.2589 -21.1263 -20.7471 -20.7153 -20.5601 -20.4725
   -20.4101 -20.2115 -20.1847 -20.1498 -20.0231 -19.9060 -19.8953 -19.8347
   -19.7048 -19.1537 -18.8962 -10.9631 -10.8099 -10.6380 -10.5760 -10.1006
   -10.0711 -10.0447  -9.6542  -9.4958  -9.4267  -9.2935  -9.2269  -9.1519
    -9.0770  -8.9694  -8.9165  -8.7383  -8.6400  -8.3715  -8.2109  -8.1074
    -8.0311  -7.9766  -7.7793  -7.6233  -7.5394  -7.2375  -7.1819  -6.9980
    -6.9571  -6.9254  -6.8829  -6.8015  -6.7798  -6.7581  -6.6512  -6.6197
    -6.5955  -6.4679  -6.2817  -6.2342  -5.8124  -5.6616  -5.6479  -5.5146
    -5.4874  -5.4134  -5.3495  -5.2866  -5.1389  -5.0866  -5.0092  -4.8433
    -4.8101  -4.7098  -4.6638  -4.6045  -4.4828  -4.4637  -4.3931  -4.2971
    -4.1363  -4.0565  -3.9414  -3.8325  -3.6431  -3.6232  -3.4023  -3.3492
    -3.1173  -2.9941  -2.7156  -2.5103  -2.3579  -2.3448  -2.2456  -2.2147
    -2.1973  -1.8601  -1.8539  -1.6208  -1.5505  -1.2511  -1.0122  -0.7565
    -0.4593  -0.1459   0.3706   0.9057   0.9236   1.1155   1.2138   1.4221
     1.4662   1.5329   1.9298   1.9647   2.8853   3.6689   4.3953   4.8392
     4.8960   5.0423   5.5874   5.8253   6.0044   6.0385   6.1977   6.3752
     6.6041   6.6876   6.7719   7.0378   7.1388   7.3241   7.3529   7.4778
     7.5332   7.6871   7.7596   7.7949   7.8550   7.9486   8.0317   8.1323
     8.1965   8.2648   8.3244   8.4990   8.5814   8.6342   8.7499   8.8197
     8.8728   8.9455   9.1555   9.2038   9.2440   9.3309   9.5160   9.5626
     9.6641   9.8390   9.8972   9.9252   9.9827  10.0203  10.0876  10.1657
    10.2691  10.3556  10.4076  10.4573  10.5835  10.6047  10.7778  10.8954
    10.9580  11.0069  11.0746  11.1885  11.3327  11.4269  11.4539  11.5180
    11.6428  11.8001  11.8113  12.0182  12.1374  12.1834  12.2284  12.2920
    12.3075  12.4818  12.5109  12.5431  12.6238  12.7360  12.7492  12.9166
    12.9819  13.1841  13.2223  13.3735  13.4287  13.4739  13.5048  13.5979
    13.6765  13.6953  13.7230  13.7570  13.8764  14.0296  14.0501  14.2194
    14.2342  14.3118  14.4039  14.4724  14.5289  14.5864  14.6539  14.8765
    14.9293  14.9823  15.0515  15.1382  15.1902  15.2219  15.2770  15.3464
    15.4566  15.5548  15.5897  15.6780  15.7963  15.8566  15.9067  15.9383
    15.9908  16.0145  16.0402  16.2244  16.2494  16.3175  16.3593  16.4832
    16.5870  16.6081  16.6743  16.7278  16.8345  16.8746  16.9437  16.9774
    17.0463  17.0619  17.0943  17.1103  17.1446  17.1798  17.2054  17.2381
    17.2662  17.3147  17.3907  17.4910  17.6196  17.6435  17.8942  17.9369
    17.9770  18.0599  18.1310  18.1667  18.2190  18.2927  18.3138  18.3661
    18.4661  18.4994  18.5636  18.6190  18.6557  18.7751  18.8075  18.8491
    18.8801  18.9912  19.0075  19.0204  19.0433  19.1251  19.1508  19.2015
    19.2724  19.2778  19.3611  19.3963  19.4839  19.5091  19.5309  19.6205
    19.6603  19.7128  19.7641  19.8200  19.8392  19.9283  20.0530  20.0797
    20.1628  20.2700  20.3306  20.3373  20.3911  20.4290  20.4527  20.5088
    20.5509  20.6433  20.7250  20.7629  20.8313  20.8507  20.9312  20.9877
    21.0424  21.0642  21.1672  21.2265  21.2817  21.3112  21.3354  21.3959
    21.4778  21.4864  21.5245  21.5931  21.7033  21.7632  21.8512  21.8690
    21.9627  22.0729

          k = 0.0000-0.4976 0.0000 ( 31948 PWs)   bands (ev):

   -55.3206 -55.2970 -55.2660 -55.2400 -55.1989 -55.1460 -55.1432 -55.1413
   -55.1226 -55.1209 -55.1150 -54.9698 -54.9672 -54.9605 -54.9600 -54.9000
   -54.8819 -54.8756 -54.8717 -54.8690 -54.8018 -54.5804 -54.3369 -54.0489
   -22.0553 -21.7924 -21.1285 -20.9026 -20.8172 -20.7887 -20.6584 -20.4619
   -20.4201 -20.2600 -20.1686 -20.0793 -20.0752 -19.9881 -19.9154 -19.8907
   -19.7582 -19.1516 -18.9002 -10.9008 -10.7966 -10.3249 -10.2500 -10.1657
   -10.0776  -9.9902  -9.7272  -9.3495  -9.3141  -9.1364  -9.0992  -9.0864
    -9.0437  -8.9278  -8.8366  -8.6790  -8.6540  -8.5838  -8.2702  -8.0863
    -8.0803  -8.0365  -7.8910  -7.7504  -7.5324  -7.4453  -7.3710  -7.2357
    -7.2101  -7.1088  -7.0231  -6.7729  -6.7285  -6.6841  -6.6614  -6.5590
    -6.4556  -6.2833  -6.2387  -6.1833  -6.0249  -5.8416  -5.7572  -5.6432
    -5.6316  -5.4952  -5.4014  -5.3486  -5.2775  -5.1734  -4.9149  -4.8878
    -4.8025  -4.6335  -4.5681  -4.5059  -4.4853  -4.3579  -4.2107  -4.0226
    -3.9640  -3.9032  -3.8911  -3.8140  -3.7551  -3.6247  -3.5581  -3.3886
    -3.1153  -2.9578  -2.7773  -2.5644  -2.4782  -2.4159  -2.3571  -2.3354
    -2.2966  -2.0115  -1.9134  -1.6789  -1.5753  -1.3933  -1.1846  -0.6427
    -0.4419   0.3970   0.4973   0.8888   1.0208   1.2696   1.3535   1.3810
     1.5226   1.6071   1.9644   1.9962   3.6685   4.0580   4.2279   4.8708
     5.0183   5.1302   5.4205   5.4546   5.6228   5.6755   6.1575   6.2389
     6.3326   6.4887   6.6930   6.9258   6.9447   7.1357   7.3732   7.4989
     7.6524   7.7422   7.8355   7.9035   7.9111   8.0993   8.1401   8.2288
     8.2654   8.4859   8.5137   8.5435   8.7439   8.7526   8.7719   8.7965
     8.8227   8.8602   8.9057   8.9387   9.0531   9.0656   9.1261   9.3500
     9.4235   9.5093   9.5298   9.7864   9.8729   9.9092   9.9761   9.9837
    10.0583  10.7018  10.7363  10.7722  10.8898  10.9224  10.9943  11.1445
    11.2453  11.2543  11.3606  11.4684  11.4914  11.6000  11.6502  11.7928
    11.9318  12.0411  12.1505  12.2153  12.2528  12.3436  12.4201  12.4274
    12.5313  12.5659  12.5686  12.7806  12.8010  12.8667  12.8826  12.9359
    12.9693  12.9957  13.1539  13.2547  13.2592  13.3050  13.6098  13.6282
    13.6698  13.7836  13.9315  13.9495  14.1125  14.1719  14.2014  14.4118
    14.4416  14.4958  14.5493  14.5788  14.8752  14.9233  14.9850  15.0319
    15.0663  15.1010  15.1940  15.2685  15.3592  15.4061  15.4627  15.5034
    15.5920  15.6563  15.6616  15.7856  15.8403  15.8664  15.9262  15.9536
    16.0016  16.0528  16.1870  16.2061  16.2362  16.2789  16.3228  16.3577
    16.4054  16.4170  16.5509  16.6211  16.6555  16.6802  16.7293  16.8312
    16.8673  16.9150  17.0265  17.0505  17.0867  17.0941  17.1269  17.1757
    17.2376  17.2445  17.2582  17.2966  17.3358  17.3461  17.4291  17.4698
    17.5164  17.6256  17.6800  17.6971  17.7935  17.8296  17.9063  17.9381
    18.0516  18.0662  18.0922  18.1362  18.2033  18.2729  18.3225  18.4745
    18.5437  18.6205  18.7012  18.7712  18.8851  18.8945  19.0067  19.0617
    19.1482  19.1685  19.1857  19.2559  19.2949  19.4029  19.4631  19.5183
    19.5655  19.5948  19.6648  19.7324  19.7463  19.7759  19.8299  19.9464
    19.9869  20.0084  20.1123  20.1634  20.1820  20.2082  20.2491  20.3217
    20.3489  20.3876  20.4251  20.4685  20.5343  20.5995  20.6250  20.6514
    20.7015  20.7383  20.8314  20.8588  20.8922  20.9077  21.0754  21.1182
    21.2190  21.2829  21.3054  21.4161  21.4234  21.5180  21.6023  21.7666
    21.8024  21.8882

          k = 0.2500 0.0000 0.0000 ( 32013 PWs)   bands (ev):

   -55.3147 -55.2908 -55.2755 -55.2499 -55.1921 -55.1526 -55.1453 -55.1408
   -55.1251 -55.1202 -55.1169 -54.9707 -54.9655 -54.9621 -54.9600 -54.9001
   -54.8807 -54.8758 -54.8726 -54.8694 -54.8020 -54.5828 -54.3373 -54.0490
   -22.0134 -21.7951 -21.2434 -21.1347 -20.6701 -20.6409 -20.5153 -20.4694
   -20.3834 -20.3281 -20.2037 -20.1423 -20.1200 -19.9126 -19.8352 -19.8155
   -19.6540 -19.2105 -18.9984 -11.0503 -10.8761 -10.6659 -10.2063  -9.9482
    -9.8020  -9.5955  -9.5643  -9.5290  -9.4696  -9.4140  -9.3194  -9.2744
    -9.1461  -9.0309  -8.8976  -8.7961  -8.7122  -8.6331  -8.4148  -8.2235
    -8.0453  -7.9517  -7.8220  -7.7329  -7.6352  -7.5341  -7.2501  -7.2053
    -7.0865  -7.0386  -6.9523  -6.9052  -6.8141  -6.6160  -6.5488  -6.4506
    -6.4161  -6.3761  -6.2348  -6.1983  -6.0925  -6.0428  -5.9321  -5.8113
    -5.4527  -5.4194  -5.2945  -5.2358  -5.1413  -5.0724  -5.0178  -4.9546
    -4.8999  -4.7716  -4.6029  -4.5607  -4.4064  -4.3678  -4.2676  -4.1474
    -3.8537  -3.8282  -3.6878  -3.6237  -3.4144  -3.3679  -2.9242  -2.9202
    -2.8026  -2.7656  -2.6909  -2.5987  -2.5484  -2.4274  -2.3058  -2.2805
    -2.1773  -2.0719  -1.7897  -1.7182  -1.5918  -0.8112  -0.3973  -0.2982
    -0.2418  -0.0221   0.0616   0.1834   0.4831   0.6072   1.0390   1.0775
     1.3055   1.3913   1.4847   1.9662   2.9174   3.7533   4.4070   4.8705
     4.9248   4.9916   5.5052   5.8234   6.0028   6.1280   6.1546   6.4974
     6.6488   6.8487   6.9143   7.0696   7.1849   7.3111   7.3395   7.3826
     7.5613   7.6352   7.7291   7.8817   7.9571   7.9806   8.1082   8.1256
     8.3034   8.3976   8.4338   8.5750   8.6384   8.6681   8.8351   8.9007
     8.9457   9.0068   9.1869   9.2415   9.3013   9.3451   9.6863   9.7196
     9.7504   9.8065   9.8572   9.9507  10.0082  10.0885  10.1111  10.1682
    10.2284  10.2799  10.3924  10.4165  10.6121  10.7058  10.7595  10.8228
    10.9018  10.9250  10.9685  11.0583  11.1345  11.2336  11.2949  11.5569
    11.5943  11.6141  11.6861  11.8300  11.9282  12.0867  12.1648  12.2427
    12.2909  12.3528  12.3844  12.5289  12.7375  12.8446  12.8916  12.9639
    13.0735  13.0816  13.2608  13.3307  13.4838  13.5090  13.5759  13.6067
    13.6648  13.7037  13.7652  13.8168  13.8573  13.8953  13.9431  14.0008
    14.0466  14.1154  14.2196  14.2918  14.3686  14.4020  14.5924  14.6522
    14.6800  14.8166  14.8551  15.0294  15.1181  15.1463  15.2208  15.3267
    15.3476  15.4611  15.5240  15.5740  15.6268  15.7433  15.8150  15.8853
    15.9316  15.9702  16.0664  16.1318  16.2133  16.3379  16.4282  16.5360
    16.6035  16.6828  16.8678  16.8961  16.9165  17.0526  17.0695  17.0838
    17.0938  17.1411  17.1735  17.2146  17.2311  17.2408  17.2758  17.3284
    17.4135  17.4907  17.5868  17.6488  17.7352  17.8073  17.8873  17.9600
    17.9933  18.0270  18.2070  18.2265  18.3330  18.4120  18.4959  18.5531
    18.6087  18.6566  18.7329  18.7732  18.7834  18.8720  18.8945  18.9330
    18.9514  18.9708  19.0103  19.0354  19.0835  19.1316  19.2292  19.2762
    19.3041  19.3896  19.4221  19.4596  19.5040  19.5440  19.6126  19.6366
    19.6841  19.7380  19.8187  19.8525  19.8883  19.9841  20.0535  20.0822
    20.1198  20.1784  20.2302  20.3058  20.4033  20.4254  20.4765  20.5317
    20.5645  20.6455  20.7004  20.7824  20.8104  20.8801  20.9557  20.9817
    21.0673  21.1263  21.1654  21.2258  21.2514  21.2653  21.3920  21.4465
    21.4903  21.5362  21.5925  21.6239  21.7115  21.8203  21.8805  21.9217
    21.9519  22.0075

          k = 0.2500 0.2488 0.0000 ( 32025 PWs)   bands (ev):

   -55.3144 -55.2905 -55.2755 -55.2498 -55.1922 -55.1527 -55.1456 -55.1412
   -55.1244 -55.1202 -55.1164 -54.9702 -54.9657 -54.9620 -54.9602 -54.9001
   -54.8809 -54.8757 -54.8726 -54.8694 -54.8020 -54.5827 -54.3372 -54.0490
   -22.0026 -21.7936 -21.1421 -21.0008 -20.7046 -20.6451 -20.5618 -20.4871
   -20.4292 -20.2411 -20.2176 -20.1490 -20.0796 -19.9723 -19.9137 -19.8926
   -19.7493 -19.2096 -19.0013 -10.7486 -10.5702 -10.4182 -10.3939  -9.9496
    -9.9038  -9.8023  -9.5260  -9.4608  -9.3978  -9.3411  -9.2390  -9.1349
    -9.0546  -8.9805  -8.8927  -8.8336  -8.6437  -8.4503  -8.2579  -8.1404
    -8.0638  -7.8624  -7.8371  -7.7330  -7.6888  -7.4918  -7.4434  -7.2839
    -7.2059  -7.1619  -7.1181  -7.0481  -6.9039  -6.8453  -6.7697  -6.7495
    -6.6542  -6.5681  -6.4713  -6.3817  -6.1405  -6.0547  -5.8278  -5.6710
    -5.5557  -5.4810  -5.3166  -5.2591  -5.2112  -5.1566  -4.9042  -4.8496
    -4.8092  -4.6594  -4.4425  -4.3148  -4.3023  -4.1554  -4.0452  -3.9054
    -3.8069  -3.7579  -3.7323  -3.5842  -3.4951  -3.4240  -3.3460  -3.1026
    -3.0729  -2.7788  -2.6609  -2.5534  -2.4041  -2.3731  -2.2951  -2.2838
    -2.2114  -1.9950  -1.8186  -1.7583  -1.6313  -1.0325  -0.8000  -0.6122
    -0.2505  -0.0878   0.3265   0.5338   0.8142   0.8909   1.0379   1.1343
     1.3581   1.4808   1.5265   1.9060   3.2631   3.9772   4.6270   5.0562
     5.1202   5.1806   5.2621   5.5884   6.0233   6.2094   6.3009   6.3508
     6.4728   6.6494   6.7099   6.8040   6.8775   6.9572   7.1684   7.2545
     7.4333   7.5340   7.5517   7.6833   7.7398   7.8522   7.9654   8.0808
     8.2558   8.3208   8.3881   8.4596   8.5318   8.6230   8.7079   8.7988
     8.9413   9.0160   9.0751   9.2135   9.3456   9.4246   9.5693   9.6828
     9.7696   9.8281   9.9493  10.0702  10.1092  10.1887  10.2557  10.3676
    10.5190  10.5629  10.6613  10.6968  10.7578  10.9278  10.9811  11.0918
    11.2029  11.2190  11.3448  11.4384  11.5170  11.6466  11.7428  11.7828
    11.8599  11.9284  11.9885  12.0243  12.0892  12.2051  12.2987  12.3559
    12.4315  12.4579  12.5123  12.5627  12.6421  12.7322  12.7798  12.8974
    12.9406  13.0071  13.1200  13.1801  13.2656  13.4820  13.5307  13.5895
    13.6415  13.7136  13.7243  13.7852  13.9366  14.0150  14.0656  14.1085
    14.2147  14.3261  14.4129  14.5360  14.5791  14.6436  14.7095  14.8030
    14.8971  15.0158  15.1114  15.2011  15.2740  15.3055  15.3527  15.4186
    15.4691  15.5065  15.5921  15.6246  15.6915  15.7136  15.7738  15.8773
    15.9172  15.9582  16.0207  16.0625  16.1351  16.2589  16.2993  16.3561
    16.4825  16.5601  16.6392  16.7062  16.7771  16.8121  16.9235  16.9546
    16.9832  17.0378  17.0548  17.0714  17.0904  17.1242  17.1406  17.1836
    17.2211  17.2342  17.2428  17.2711  17.3280  17.3559  17.3735  17.4521
    17.5147  17.5277  17.6073  17.6866  17.7431  17.9191  17.9315  17.9719
    18.0208  18.0540  18.1356  18.1941  18.2520  18.3341  18.4152  18.4657
    18.5511  18.6119  18.6392  18.6922  18.7713  18.8231  18.8774  18.9398
    18.9927  19.1288  19.1938  19.2649  19.3144  19.4171  19.4308  19.5652
    19.6205  19.7028  19.8154  19.9279  19.9465  19.9802  20.0311  20.1127
    20.1497  20.1864  20.2873  20.3422  20.3925  20.4278  20.4800  20.5372
    20.5753  20.6934  20.7615  20.8353  20.9193  20.9292  21.0185  21.0495
    21.1589  21.1674  21.2720  21.2956  21.3343  21.3852  21.4775  21.5053
    21.5682  21.6256  21.7326  21.7634  21.8666  21.9484  22.0434  22.0829
    22.1106  22.2078

          k = 0.2500-0.4976 0.0000 ( 32026 PWs)   bands (ev):

   -55.3140 -55.2901 -55.2754 -55.2498 -55.1923 -55.1528 -55.1459 -55.1416
   -55.1236 -55.1202 -55.1160 -54.9694 -54.9664 -54.9613 -54.9610 -54.9001
   -54.8812 -54.8756 -54.8725 -54.8694 -54.8019 -54.5826 -54.3370 -54.0491
   -21.9926 -21.7920 -21.0007 -20.7803 -20.7422 -20.6777 -20.5969 -20.4985
   -20.4415 -20.3136 -20.1963 -20.1757 -20.1307 -20.0325 -20.0279 -19.9090
   -19.7751 -19.2087 -19.0043 -10.6838 -10.5384 -10.0165 -10.0030  -9.9632
    -9.9459  -9.7485  -9.5522  -9.4169  -9.2890  -9.2147  -9.0941  -8.9965
    -8.9812  -8.9538  -8.8033  -8.7283  -8.6502  -8.5696  -8.3812  -8.1750
    -8.0806  -8.0189  -7.8630  -7.8161  -7.6619  -7.6316  -7.6172  -7.5567
    -7.4864  -7.4427  -7.2297  -7.0673  -6.9844  -6.9198  -6.8490  -6.7769
    -6.6712  -6.5863  -6.4561  -6.3786  -6.1324  -6.0995  -5.9718  -5.8310
    -5.6847  -5.6111  -5.3690  -5.2517  -5.1803  -5.1481  -4.7807  -4.6989
    -4.6533  -4.5534  -4.4197  -4.3275  -4.2323  -3.9777  -3.9070  -3.8196
    -3.8014  -3.7537  -3.6555  -3.4851  -3.4564  -3.3949  -3.3093  -3.1886
    -3.0881  -2.9021  -2.6482  -2.5695  -2.4966  -2.4559  -2.4079  -2.2740
    -2.2315  -2.0131  -1.9102  -1.7975  -1.6175  -1.3318  -1.1261  -0.5440
    -0.2411   0.2071   0.3974   0.5473   0.7367   0.7769   1.3394   1.3914
     1.4268   1.5271   1.6287   1.8928   3.9635   4.3323   4.4650   5.1524
     5.2732   5.3527   5.5370   5.6299   5.6692   5.8623   5.9206   6.1121
     6.1886   6.5521   6.7070   6.7702   6.9274   6.9648   7.0501   7.1616
     7.3259   7.4360   7.4853   7.5810   7.6524   7.7032   7.8690   7.9373
     8.0440   8.0935   8.2848   8.3439   8.3619   8.5341   8.6966   8.8330
     8.9036   8.9317   9.0408   9.0928   9.1476   9.1744   9.3936   9.6190
     9.6480   9.9072   9.9711  10.0552  10.1431  10.3215  10.6581  10.7494
    10.8564  10.9031  11.0836  11.1237  11.1620  11.2008  11.3095  11.3563
    11.4318  11.4695  11.5588  11.6144  11.6883  11.7546  11.9273  11.9747
    12.0081  12.2000  12.2693  12.2959  12.3654  12.4356  12.4985  12.5518
    12.6094  12.6666  12.7775  12.8504  12.9037  12.9186  13.0315  13.0748
    13.1058  13.1458  13.2597  13.4155  13.4408  13.4685  13.5376  13.6777
    13.7364  13.8415  13.9535  13.9798  14.0515  14.1077  14.1325  14.1623
    14.2231  14.2690  14.3096  14.3526  14.4973  14.5206  14.6030  14.6412
    14.7002  14.7311  14.8423  14.8507  14.8631  15.0527  15.0972  15.1459
    15.2247  15.3709  15.4234  15.4968  15.5679  15.5957  15.7099  15.7745
    15.8859  15.9337  15.9875  16.0521  16.0798  16.1624  16.1902  16.2279
    16.3159  16.3958  16.4348  16.4781  16.5099  16.5600  16.6315  16.6688
    16.7208  16.8865  16.9185  16.9594  17.0320  17.0709  17.0828  17.1100
    17.1193  17.1438  17.1614  17.1935  17.2184  17.2389  17.2866  17.3148
    17.3637  17.3970  17.4620  17.6185  17.7266  17.7775  17.8150  17.8697
    17.9709  18.0223  18.0631  18.1061  18.1496  18.1958  18.2607  18.3155
    18.3523  18.3923  18.4456  18.5183  18.5808  18.6186  18.6503  18.7867
    18.8460  18.8963  18.9793  19.0135  19.0994  19.1328  19.1968  19.2363
    19.3043  19.3450  19.4327  19.4858  19.5190  19.6256  19.6634  19.7653
    20.0048  20.0690  20.1058  20.1648  20.2321  20.3295  20.3748  20.4337
    20.4935  20.5899  20.6234  20.6571  20.7070  20.7871  20.8357  20.8910
    20.9314  21.0992  21.1240  21.2093  21.2745  21.3342  21.4301  21.5103
    21.5748  21.6552  21.6945  21.7309  21.9084  21.9581  22.0271  22.0907
    22.1992  22.2837

          k =-0.5000 0.0000 0.0000 ( 31984 PWs)   bands (ev):

   -55.2976 -55.2955 -55.2729 -55.2706 -55.1758 -55.1718 -55.1451 -55.1413
   -55.1259 -55.1191 -55.1184 -54.9698 -54.9659 -54.9628 -54.9602 -54.9002
   -54.8799 -54.8764 -54.8728 -54.8699 -54.8021 -54.5850 -54.3374 -54.0491
   -21.9161 -21.8181 -20.9706 -20.9623 -20.8267 -20.8130 -20.5304 -20.4495
   -20.4426 -20.2212 -20.1294 -20.1173 -19.9839 -19.9760 -19.9365 -19.9294
   -19.7650 -19.2031 -19.1720 -10.4407 -10.4187 -10.2480 -10.2388 -10.1593
   -10.1489  -9.6373  -9.6326  -9.5385  -9.4798  -9.3493  -9.3064  -9.1981
    -9.1928  -8.9400  -8.8322  -8.7993  -8.7263  -8.4059  -8.2607  -8.0719
    -7.9179  -7.8652  -7.8084  -7.7076  -7.6706  -7.5639  -7.5397  -7.4822
    -7.3970  -7.2745  -7.2181  -7.1258  -6.9982  -6.9143  -6.8971  -6.7100
    -6.6868  -6.6409  -6.4747  -6.4569  -6.3012  -6.1195  -6.0736  -6.0092
    -5.4022  -5.2601  -5.2493  -5.0615  -5.0449  -5.0037  -4.8917  -4.8838
    -4.7959  -4.7136  -4.6817  -4.6198  -4.1719  -4.0588  -4.0002  -3.9301
    -3.7535  -3.5153  -3.4508  -3.4203  -3.2307  -3.1322  -2.9438  -2.7644
    -2.7565  -2.7053  -2.6516  -2.5783  -2.5228  -2.4804  -2.3660  -2.2405
    -2.1602  -2.1436  -1.9802  -1.9349  -1.5959  -0.4515  -0.1785  -0.1577
    -0.0690   0.2439   0.3120   0.3223   0.3974   0.4334   0.5337   0.6014
     0.7290   1.2926   1.4947   1.6846   3.8628   3.8644   4.4510   4.7186
     5.0734   5.0778   5.4831   5.5096   5.6324   5.6733   6.2550   6.3546
     6.4042   6.6036   6.7117   6.7304   7.2304   7.3542   7.4442   7.5303
     7.6719   7.7759   7.8841   7.9223   7.9888   8.2685   8.3067   8.3549
     8.4760   8.5442   8.6219   8.6579   8.7661   8.8548   8.8745   8.8805
     8.9618   8.9689   9.1211   9.1583   9.2286   9.2959   9.3756   9.3863
     9.4686   9.5077   9.6528   9.7002   9.8568   9.8805   9.9657  10.0872
    10.2695  10.3360  10.4630  10.6965  10.7503  10.7593  10.8586  10.9000
    11.1096  11.3590  11.3654  11.4562  11.5153  11.5288  11.6517  11.6767
    11.7918  11.8873  11.9463  12.0594  12.1079  12.1305  12.3557  12.4176
    12.4671  12.4886  12.5262  12.5452  12.6742  12.7097  12.8205  12.8917
    12.9657  12.9671  13.0772  13.1000  13.1334  13.1738  13.2517  13.3563
    13.5322  13.6348  13.6682  13.7628  13.8651  13.8860  13.9529  14.0394
    14.1971  14.2560  14.3502  14.4198  14.5139  14.5689  14.6463  14.7271
    14.9263  15.0074  15.1318  15.1425  15.3119  15.3687  15.5291  15.5799
    15.6169  15.7316  15.7632  15.7923  15.8681  15.9411  15.9790  16.0156
    16.0580  16.1169  16.1512  16.2175  16.2401  16.2688  16.3052  16.3575
    16.4443  16.4834  16.5601  16.6184  16.7123  16.7638  16.8816  16.8962
    17.0285  17.0424  17.0738  17.1022  17.1249  17.1447  17.1696  17.1756
    17.2192  17.2306  17.2464  17.3414  17.4528  17.5830  17.5963  17.7107
    17.8072  17.9148  17.9392  17.9556  17.9929  18.0493  18.1152  18.1848
    18.2247  18.3298  18.3330  18.3691  18.3787  18.5049  18.6369  18.6545
    18.7320  18.7508  18.8274  18.8629  18.9401  18.9632  19.0777  19.1127
    19.2552  19.2897  19.3926  19.4267  19.4717  19.4939  19.5303  19.5511
    19.5914  19.6631  19.7220  19.7442  19.8119  19.8150  19.8502  19.8989
    19.9920  20.0323  20.0908  20.1343  20.1634  20.2249  20.3202  20.3964
    20.4306  20.4543  20.4843  20.5153  20.5805  20.6064  20.6096  20.6657
    20.7365  20.7654  20.7891  20.8856  20.9540  20.9946  21.1019  21.2057
    21.2781  21.3015  21.4557  21.4986  21.6135  21.6620  21.7382  21.7641
    21.8369  21.8827

          k =-0.5000 0.2488 0.0000 ( 32052 PWs)   bands (ev):

   -55.2974 -55.2953 -55.2727 -55.2704 -55.1758 -55.1719 -55.1454 -55.1416
   -55.1252 -55.1189 -55.1181 -54.9693 -54.9654 -54.9631 -54.9609 -54.9002
   -54.8799 -54.8764 -54.8728 -54.8699 -54.8021 -54.5849 -54.3373 -54.0492
   -21.9123 -21.8143 -20.8828 -20.8715 -20.7212 -20.7122 -20.5490 -20.4631
   -20.4407 -20.2719 -20.2206 -20.1743 -20.0782 -20.0574 -19.9746 -19.9693
   -19.7824 -19.2028 -19.1734 -10.3320 -10.2472 -10.0122  -9.9931  -9.8785
    -9.8303  -9.6557  -9.6340  -9.5246  -9.4702  -9.3163  -9.2959  -9.2070
    -9.1922  -8.9638  -8.9220  -8.6967  -8.5665  -8.4190  -8.3380  -8.1880
    -8.1161  -7.9721  -7.9368  -7.8256  -7.7844  -7.7157  -7.6233  -7.5414
    -7.4192  -7.3331  -7.2795  -7.2345  -7.1278  -6.9603  -6.8498  -6.7893
    -6.6778  -6.6323  -6.5510  -6.5211  -6.2799  -6.2234  -6.0574  -6.0183
    -5.7422  -5.6662  -5.5400  -5.4303  -5.1440  -5.0795  -4.9981  -4.8846
    -4.2944  -4.2612  -4.1698  -4.0685  -4.0512  -3.9778  -3.9378  -3.8807
    -3.7432  -3.5460  -3.4586  -3.4298  -3.3205  -3.1176  -3.0059  -2.9015
    -2.8447  -2.7317  -2.6180  -2.5866  -2.4576  -2.4443  -2.3657  -2.2720
    -2.2299  -2.1863  -2.0364  -2.0210  -1.5309  -0.4995  -0.3874  -0.2252
    -0.2210  -0.0591   0.0263   0.2879   0.3267   0.6192   0.7361   1.0179
     1.1134   1.2592   1.5669   1.7883   4.1236   4.1352   4.5837   4.9418
     5.2963   5.3026   5.6798   5.7053   5.8139   5.8238   5.9028   5.9774
     6.3562   6.5870   6.7273   6.8316   6.8541   6.9629   7.1137   7.1627
     7.2790   7.3586   7.5518   7.6179   7.6878   7.7841   7.9026   7.9557
     8.1669   8.2020   8.2799   8.4271   8.5086   8.5597   8.7129   8.8475
     8.9518   9.0981   9.2281   9.2669   9.3794   9.4213   9.5961   9.6023
     9.7698   9.7778  10.0599  10.1357  10.2389  10.3808  10.5008  10.6335
    10.6474  10.7464  10.8609  10.9659  11.0423  11.0739  11.1845  11.2179
    11.3608  11.3865  11.5468  11.5960  11.7098  11.8161  11.8581  11.8843
    11.9894  12.1418  12.1730  12.2529  12.2846  12.4378  12.5001  12.5177
    12.6576  12.6818  12.7653  12.7737  12.8749  12.8889  13.0216  13.0761
    13.1163  13.1858  13.2245  13.2532  13.3309  13.3913  13.4630  13.5444
    13.6004  13.6429  13.8349  13.9043  13.9311  13.9759  14.0642  14.1083
    14.1700  14.1855  14.2570  14.3279  14.3749  14.4301  14.5073  14.5321
    14.5762  14.6300  14.7082  14.7890  14.8515  14.8702  15.0310  15.1111
    15.2475  15.3258  15.4128  15.5137  15.6459  15.6795  15.7368  15.7845
    15.9250  15.9637  15.9991  16.0258  16.0892  16.1522  16.2318  16.2677
    16.2817  16.3388  16.4230  16.5151  16.5725  16.6243  16.7212  16.7521
    16.8536  16.8896  17.0058  17.0456  17.0682  17.0762  17.1147  17.1225
    17.1745  17.2159  17.2400  17.2550  17.2664  17.2962  17.3239  17.3895
    17.4569  17.5061  17.5793  17.6477  17.7546  17.8467  17.9108  17.9670
    17.9817  18.0356  18.0405  18.0848  18.1514  18.1817  18.2347  18.2766
    18.3805  18.4208  18.5042  18.6380  18.6729  18.7608  18.7800  18.8229
    18.8704  18.9236  19.0415  19.0631  19.2091  19.2276  19.2824  19.3180
    19.4404  19.4614  19.5596  19.5970  19.6947  19.7158  19.8001  19.8856
    19.9149  19.9663  20.0143  20.1833  20.2481  20.3254  20.4060  20.4568
    20.5409  20.5967  20.7015  20.7729  20.8285  20.8759  20.9539  21.0435
    21.0992  21.1436  21.1759  21.2621  21.3745  21.4292  21.5096  21.5755
    21.6557  21.6957  21.7359  21.7850  21.8612  21.9249  21.9987  22.0603
    22.0834  22.2181

          k =-0.5000-0.4976 0.0000 ( 31956 PWs)   bands (ev):

   -55.2972 -55.2951 -55.2725 -55.2702 -55.1759 -55.1720 -55.1457 -55.1418
   -55.1246 -55.1186 -55.1178 -54.9688 -54.9649 -54.9629 -54.9620 -54.9002
   -54.8799 -54.8765 -54.8728 -54.8699 -54.8020 -54.5848 -54.3371 -54.0492
   -21.9085 -21.8107 -20.7127 -20.7013 -20.6422 -20.5689 -20.5125 -20.4745
   -20.4488 -20.4477 -20.3476 -20.2700 -20.2651 -20.1290 -19.9891 -19.9827
   -19.7899 -19.2027 -19.1750 -10.3105 -10.2114  -9.7147  -9.7089  -9.5566
    -9.4835  -9.4040  -9.3813  -9.3270  -9.3005  -9.2830  -9.2561  -9.1254
    -9.0422  -8.9401  -8.9328  -8.8275  -8.8201  -8.7535  -8.6145  -8.4107
    -8.3841  -8.2310  -7.9612  -7.9227  -7.8438  -7.8321  -7.7106  -7.6122
    -7.4530  -7.4390  -7.2156  -7.1796  -7.0620  -7.0315  -6.9313  -6.9130
    -6.8890  -6.8046  -6.7509  -6.6004  -6.3166  -6.2139  -6.0916  -5.9391
    -5.8861  -5.8275  -5.6768  -5.5898  -5.1235  -5.0101  -4.9687  -4.8585
    -4.1790  -4.0398  -4.0129  -3.9544  -3.8007  -3.7924  -3.7677  -3.6720
    -3.6008  -3.5068  -3.4941  -3.3996  -3.3203  -3.2270  -3.2218  -2.8953
    -2.8591  -2.7287  -2.6307  -2.5786  -2.4566  -2.3978  -2.3357  -2.3219
    -2.2730  -2.2112  -2.1530  -2.0794  -1.4821  -0.7292  -0.7071  -0.5523
    -0.3612  -0.2567   0.0246   0.3574   0.3621   0.8530   1.0985   1.1161
     1.1976   1.4852   1.6806   1.7242   4.6417   4.6554   4.7820   5.0981
     5.1156   5.3310   5.9228   5.9452   5.9564   6.0231   6.0794   6.1225
     6.3340   6.3410   6.4163   6.5165   6.5550   6.5686   6.6306   6.6773
     7.0797   7.1925   7.2046   7.4074   7.4124   7.4559   7.6028   7.6347
     8.0102   8.0852   8.2143   8.3502   8.4737   8.5741   8.6188   8.8532
     8.9241   8.9554   9.1938   9.4116   9.4925   9.5101   9.5401   9.6192
     9.6319   9.7952   9.9991  10.1912  10.4239  10.4940  10.6367  10.7414
    10.7547  10.9199  10.9378  11.3213  11.4422  11.5371  11.7925  11.8124
    12.0070  12.0255  12.0612  12.0754  12.2188  12.2583  12.4441  12.4709
    12.5777  12.6211  12.6917  12.6969  12.7995  12.8344  12.9509  12.9670
    12.9914  13.0984  13.1213  13.1291  13.1395  13.2213  13.2391  13.2687
    13.2803  13.3008  13.4129  13.4820  13.5242  13.5397  13.5436  13.5828
    13.5859  13.6325  13.6704  13.7142  13.7715  13.7978  13.8490  13.8592
    13.9085  13.9371  13.9984  14.0382  14.2345  14.2598  14.3156  14.3323
    14.4655  14.4718  14.6561  14.7008  14.7633  14.7961  14.8332  14.8644
    14.8730  14.9271  14.9374  14.9730  15.0452  15.0619  15.1390  15.2310
    15.3045  15.3172  15.3958  15.4691  15.4921  15.5921  15.6015  15.7327
    15.7555  15.8211  15.9585  16.0762  16.2705  16.3370  16.3777  16.4661
    16.4949  16.5216  16.5574  16.5941  16.6355  16.6948  16.9071  17.0314
    17.0623  17.0898  17.1219  17.1437  17.1784  17.2185  17.2333  17.2429
    17.2757  17.3964  17.4235  17.5494  17.6704  17.7175  17.7609  17.7996
    17.8801  17.9345  17.9608  18.0519  18.0721  18.2000  18.3950  18.4168
    18.4624  18.5800  18.6566  18.6787  18.8307  18.8867  18.9825  19.0753
    19.1445  19.2314  19.2833  19.4146  19.4657  19.6157  19.6371  19.7113
    19.7345  19.7679  19.8793  19.9843  19.9894  20.0682  20.0853  20.1343
    20.3162  20.3816  20.4572  20.4862  20.5132  20.5369  20.5757  20.6066
    20.6683  20.6884  20.7415  20.7906  20.9034  20.9249  20.9813  21.0013
    21.0406  21.0479  21.1721  21.2305  21.2379  21.2583  21.2886  21.3435
    21.3727  21.4389  21.4675  21.4746  21.5313  21.5770  21.6666  21.7110
    21.7524  21.8041

          k =-0.2500 0.2488 0.0000 ( 32025 PWs)   bands (ev):

   -55.3144 -55.2905 -55.2755 -55.2498 -55.1922 -55.1527 -55.1456 -55.1413
   -55.1244 -55.1202 -55.1164 -54.9702 -54.9657 -54.9619 -54.9604 -54.9001
   -54.8809 -54.8757 -54.8726 -54.8694 -54.8020 -54.5827 -54.3372 -54.0490
   -22.0026 -21.7936 -21.1418 -21.0007 -20.7078 -20.6468 -20.5589 -20.4860
   -20.4202 -20.2524 -20.2194 -20.1465 -20.0786 -19.9744 -19.9098 -19.8930
   -19.7493 -19.2096 -19.0014 -10.7472 -10.5713 -10.4183 -10.3926  -9.9499
    -9.9062  -9.8102  -9.4991  -9.4678  -9.3993  -9.3214  -9.2464  -9.1572
    -9.0679  -9.0148  -8.8762  -8.8076  -8.6538  -8.4484  -8.2383  -8.0901
    -8.0615  -7.9146  -7.8552  -7.7279  -7.6091  -7.5798  -7.4632  -7.2775
    -7.2449  -7.1508  -7.0746  -7.0011  -6.9097  -6.8255  -6.7846  -6.7348
    -6.6655  -6.5869  -6.4762  -6.3911  -6.1707  -6.0575  -5.8123  -5.7110
    -5.5135  -5.4182  -5.3720  -5.2744  -5.2000  -5.1328  -4.9392  -4.9016
    -4.7084  -4.6571  -4.4686  -4.3291  -4.2997  -4.1821  -3.9722  -3.9124
    -3.8287  -3.7484  -3.7175  -3.5999  -3.5142  -3.4121  -3.3813  -3.0882
    -3.0659  -2.7854  -2.6592  -2.5527  -2.4021  -2.3711  -2.3207  -2.2634
    -2.1992  -1.9937  -1.8171  -1.7559  -1.6346  -1.0439  -0.7981  -0.6130
    -0.2525  -0.0853   0.3262   0.5330   0.8110   0.8940   1.0409   1.1367
     1.3571   1.4795   1.5262   1.9062   3.2610   3.9759   4.6281   5.0583
     5.1191   5.2037   5.2865   5.5841   6.0314   6.2082   6.2982   6.3351
     6.4809   6.6082   6.6794   6.7919   6.8826   6.9657   7.1507   7.2481
     7.4112   7.5410   7.5628   7.7048   7.7545   7.8615   7.9662   8.0764
     8.2622   8.3389   8.3850   8.4725   8.5326   8.6267   8.6965   8.7854
     8.9502   9.0008   9.0693   9.2120   9.3383   9.4336   9.6022   9.6473
     9.7709   9.8149   9.9271  10.0752  10.1282  10.1916  10.2536  10.3719
    10.5219  10.5599  10.6222  10.7023  10.7488  10.9572  10.9895  11.0991
    11.2033  11.2284  11.3675  11.4397  11.5016  11.6417  11.7460  11.7936
    11.8711  11.9250  12.0133  12.0362  12.1068  12.2318  12.2974  12.3520
    12.3967  12.4763  12.5320  12.5740  12.6508  12.7229  12.7949  12.9278
    12.9702  13.0257  13.0883  13.2039  13.2416  13.4680  13.5351  13.5851
    13.6187  13.6860  13.7355  13.8229  13.9432  13.9859  14.0611  14.0988
    14.2039  14.2953  14.3665  14.4955  14.5540  14.6441  14.7300  14.8506
    14.9010  14.9960  15.0743  15.1799  15.2413  15.2943  15.3283  15.3956
    15.4584  15.4999  15.5669  15.6224  15.6888  15.7321  15.7603  15.8586
    15.9012  15.9816  16.0052  16.0585  16.1287  16.2336  16.3083  16.3771
    16.4549  16.5279  16.6260  16.7244  16.7803  16.8132  16.9061  16.9507
    17.0001  17.0472  17.0560  17.0757  17.1099  17.1270  17.1404  17.1839
    17.2178  17.2305  17.2466  17.2652  17.3170  17.3529  17.3982  17.4905
    17.5357  17.5526  17.6278  17.6475  17.7643  17.9017  17.9350  17.9766
    18.0275  18.0712  18.1510  18.1920  18.2554  18.3420  18.4755  18.5095
    18.6018  18.6122  18.6407  18.7229  18.8003  18.8518  18.8994  18.9784
    19.0196  19.1374  19.1924  19.2517  19.3176  19.3640  19.4521  19.5624
    19.6592  19.6988  19.8368  19.8760  19.9544  20.0059  20.0608  20.0851
    20.1313  20.1827  20.2778  20.3385  20.3645  20.4143  20.4978  20.5842
    20.6511  20.6961  20.7436  20.8202  20.8983  20.9584  20.9924  21.0330
    21.0918  21.2143  21.2654  21.3112  21.3499  21.3656  21.4753  21.5085
    21.5789  21.6346  21.7114  21.7642  21.8014  21.9075  22.0081  22.0866
    22.1473  22.1914

     the Fermi energy is    -1.7411 ev

!    total energy              =   -2280.92536099 Ry
     Harris-Foulkes estimate   =   -2280.92536118 Ry
     estimated scf accuracy    <       0.00000023 Ry

     The total energy is the sum of the following terms:

     one-electron contribution =  -23701.12808618 Ry
     hartree contribution      =   11894.85069994 Ry
     xc contribution           =    -573.06777791 Ry
     ewald contribution        =   10097.19420028 Ry
     Hubbard energy            =       1.22547413 Ry
     smearing contrib. (-TS)   =       0.00012874 Ry

     convergence has been achieved in  32 iterations

     Forces acting on atoms (Ry/au):


     negative rho (up, down):  0.158E+01 0.000E+00
     atom    1 type  1   force =    -0.00852875   -0.00500201   -0.00130208
     atom    2 type  1   force =     0.00032735    0.00255371    0.00077041
     atom    3 type  2   force =     0.01357270    0.00901231   -0.00060292
     atom    4 type  2   force =     0.01092039    0.00332786   -0.00237683
     atom    5 type  1   force =     0.00113887   -0.00330584   -0.00193123
     atom    6 type  1   force =     0.00005628   -0.00233260    0.00239814
     atom    7 type  1   force =     0.00048000   -0.00069190    0.00264258
     atom    8 type  1   force =    -0.00425122   -0.00159798    0.00364167
     atom    9 type  2   force =     0.00350485    0.00330664   -0.00519615
     atom   10 type  2   force =    -0.00063398   -0.02099527   -0.00471911
     atom   11 type  1   force =     0.00307455    0.00293908   -0.00232655
     atom   12 type  1   force =    -0.01092277    0.00371627    0.00267663
     atom   13 type  1   force =    -0.00118110   -0.00478452    0.00261698
     atom   14 type  1   force =    -0.00849859   -0.00468703   -0.00156450
     atom   15 type  1   force =     0.00017444    0.00044201    0.00316132
     atom   16 type  2   force =    -0.01478946    0.00919344   -0.00095421
     atom   17 type  2   force =     0.01072713    0.00458122   -0.00136055
     atom   18 type  1   force =     0.00105095   -0.00340531   -0.00166660
     atom   19 type  1   force =    -0.00013949   -0.00230833    0.00235572
     atom   20 type  1   force =    -0.00005569   -0.00153077   -0.00121507
     atom   21 type  1   force =    -0.00411882    0.00086654    0.00381252
     atom   22 type  2   force =     0.00060579    0.00354369   -0.00575577
     atom   23 type  2   force =     0.00006613   -0.00154760   -0.00312395
     atom   24 type  1   force =    -0.00296596    0.00388733   -0.00204053
     atom   25 type  1   force =     0.01085865    0.00426584    0.00294538
     atom   26 type  1   force =    -0.00116384   -0.00304829    0.00195176
     atom   27 type  3   force =    -0.00005186    0.00041279    0.00149941
     atom   28 type  3   force =     0.00005493    0.00106220    0.00157322
     atom   29 type  3   force =     0.00021177    0.00014537    0.00091725
     atom   30 type  3   force =     0.00031988    0.00006892    0.00084256
     atom   31 type  1   force =    -0.00023495    0.00199605    0.00275379
     atom   32 type  3   force =     0.00039180   -0.00008383   -0.00042327

     Total force =     0.015017     Total SCF correction =     0.001198

     BFGS Geometry Optimization

     number of scf cycles    =   1
     number of bfgs steps    =   0

     energy   new            =   -2280.9253609907 Ry

     new trust radius        =       0.0057557736 bohr
     new conv_thr            =       0.0000010000 Ry


ATOMIC_POSITIONS (crystal)
O0       0.000000000   0.000000000   0.377613990    0   0   1
O0       0.000000000   0.500000000   0.401305389    0   0   1
Pt1      0.250000000   0.500000000   0.450927956    0   0   1
Pt1      0.000000000   0.000000000   0.452582521    0   0   1
O0       0.250000000   0.810000000   0.443411423    0   0   1
O0       0.250000000   0.190000000   0.459717904    0   0   1
O0       0.000000000   0.500000000   0.496642787    0   0   1
O0       0.000000000   0.000000000   0.529542744    0   0   1
Pt1      0.250000000   0.000000000   0.575676204    0   0   1
Pt1      0.000000000   0.500000000   0.574625733    0   0   1
O0       0.250000000   0.690000000   0.569423526    0   0   1
O0       0.250000000   0.310000000   0.584773467    0   0   1
O0       0.000000000   0.000000000   0.621142276    0   0   1
O0       0.500000000   0.000000000   0.377648748    0   0   1
O0       0.500000000   0.500000000   0.400773149    0   0   1
Pt1      0.750000000   0.500000000   0.450930939    0   0   1
Pt1      0.500000000   0.000000000   0.452592822    0   0   1
O0       0.750000000   0.810000000   0.443376709    0   0   1
O0       0.750000000   0.190000000   0.459717057    0   0   1
O0       0.500000000   0.500000000   0.497395728    0   0   1
O0       0.500000000   0.000000000   0.529516157    0   0   1
Pt1      0.750000000   0.000000000   0.575665025    0   0   1
Pt1      0.500000000   0.500000000   0.576257597    0   0   1
O0       0.750000000   0.690000000   0.569209239    0   0   1
O0       0.750000000   0.310000000   0.584458836    0   0   1
O0       0.500000000   0.000000000   0.621218988    0   0   1
H2       0.000075752   0.640053651   0.385689952
H2       0.499994500   0.640236593   0.385221426
H2       0.143377348   0.034081851   0.367648323
H2       0.643236204   0.034675618   0.367676831
O0       0.500260754   0.525322721   0.649875008
H2       0.489812095   0.382243166   0.662361545


     Check: negative starting charge=   -1.535574
     NEW-OLD atomic charge density approx. for the potential

     Check: negative/imaginary core charge=   -0.000003    0.000000
     Check: negative starting charge=   -1.535557

     negative rho (up, down):  0.158E+01 0.000E+00
 Atomic wfc used for LDA+U Projector are NOT orthogonalized

     total cpu time spent up to now is     7999.2 secs

     per-process dynamical memory:   439.6 Mb

     Self-consistent Calculation

     iteration #  1     ecut=    40.00 Ry     beta=0.70
     Davidson diagonalization with overlap
     ethr =  1.00E-06,  avg # of iterations =  3.1
 --- enter write_ns ---
 LDA+U parameters:
U( 2)     =  4.50000000
alpha( 2) =  0.00000000
atom    3   Tr[ns(na)] =   8.73845
    eigenvalues: 
  0.694  0.709  0.987  0.988  0.991
    eigenvectors:
  0.014  0.158  0.807  0.006  0.015
  0.918  0.082  0.000  0.000  0.000
  0.000  0.003  0.025  0.001  0.971
  0.068  0.757  0.160  0.001  0.014
  0.000  0.000  0.008  0.992  0.000
    occupations:
  0.939  0.002  0.006 -0.105  0.000
  0.002  0.696  0.001  0.004 -0.002
  0.006  0.001  0.990  0.015 -0.000
 -0.105  0.004  0.015  0.757  0.001
  0.000 -0.002 -0.000  0.001  0.988
atom    4   Tr[ns(na)] =   8.73378
    eigenvalues: 
  0.694  0.716  0.984  0.986  0.987
    eigenvectors:
  0.000  0.986  0.007  0.003  0.004
  0.008  0.000  0.062  0.884  0.045
  0.000  0.004  0.858  0.029  0.109
  0.000  0.009  0.073  0.077  0.841
  0.992  0.000  0.000  0.007  0.000
    occupations:
  0.720 -0.005 -0.017  0.026 -0.001
 -0.005  0.984  0.000  0.000  0.026
 -0.017  0.000  0.983  0.003  0.000
  0.026  0.000  0.003  0.984  0.000
 -0.001  0.026  0.000  0.000  0.696
atom    9   Tr[ns(na)] =   8.71734
    eigenvalues: 
  0.717  0.727  0.961  0.966  0.987
    eigenvectors:
  0.000  0.138  0.000  0.009  0.853
  0.999  0.000  0.000  0.000  0.000
  0.000  0.006  0.013  0.976  0.005
  0.000  0.856  0.000  0.002  0.142
  0.000  0.000  0.987  0.013  0.000
    occupations:
  0.951  0.000 -0.005 -0.090  0.000
  0.000  0.717 -0.000  0.000 -0.002
 -0.005 -0.000  0.965 -0.017  0.001
 -0.090  0.000 -0.017  0.764  0.000
  0.000 -0.002  0.001  0.000  0.961
atom   10   Tr[ns(na)] =   8.77268
    eigenvalues: 
  0.667  0.762  0.984  0.985  0.988
    eigenvectors:
  0.000  0.981  0.000  0.007  0.012
  0.006  0.000  0.976  0.017  0.001
  0.000  0.000  0.014  0.472  0.513
  0.000  0.019  0.005  0.503  0.473
  0.994  0.000  0.005  0.000  0.000
    occupations:
  0.767 -0.001 -0.005  0.031  0.000
 -0.001  0.982 -0.000  0.000 -0.023
 -0.005 -0.000  0.986 -0.001  0.001
  0.031  0.000 -0.001  0.982 -0.000
  0.000 -0.023  0.001 -0.000  0.669
atom   16   Tr[ns(na)] =   8.73853
    eigenvalues: 
  0.695  0.709  0.987  0.988  0.991
    eigenvectors:
  0.014  0.158  0.816  0.000  0.011
  0.919  0.081  0.000  0.000  0.000
  0.000  0.003  0.021  0.000  0.976
  0.067  0.758  0.163  0.000  0.013
  0.000  0.000  0.000  1.000  0.000
    occupations:
  0.939 -0.002  0.006 -0.105 -0.000
 -0.002  0.696 -0.001 -0.004 -0.002
  0.006 -0.001  0.990  0.015  0.000
 -0.105 -0.004  0.015  0.757 -0.000
 -0.000 -0.002  0.000 -0.000  0.988
atom   17   Tr[ns(na)] =   8.73191
    eigenvalues: 
  0.694  0.716  0.983  0.986  0.987
    eigenvectors:
  0.000  0.986  0.006  0.003  0.005
  0.008  0.000  0.068  0.889  0.035
  0.000  0.004  0.868  0.039  0.089
  0.000  0.009  0.057  0.062  0.871
  0.992  0.000  0.001  0.007  0.000
    occupations:
  0.720 -0.005 -0.017  0.026 -0.001
 -0.005  0.983  0.001  0.000  0.026
 -0.017  0.001  0.982  0.003  0.000
  0.026  0.000  0.003  0.984  0.000
 -0.001  0.026  0.000  0.000  0.696
atom   22   Tr[ns(na)] =   8.71711
    eigenvalues: 
  0.718  0.727  0.961  0.966  0.987
    eigenvectors:
  0.001  0.137  0.000  0.009  0.853
  0.995  0.005  0.000  0.000  0.000
  0.000  0.005  0.028  0.961  0.005
  0.004  0.852  0.000  0.002  0.142
  0.000  0.000  0.971  0.029  0.000
    occupations:
  0.951  0.000 -0.005 -0.090 -0.000
[...]
    12.9610  12.9679  13.0766  13.0940  13.1387  13.1715  13.2343  13.3411
    13.5523  13.6286  13.6749  13.7605  13.8677  13.8951  13.9690  14.0512
    14.1768  14.2465  14.3754  14.4351  14.5722  14.5778  14.6500  14.7469
    14.9233  15.0360  15.1430  15.1594  15.3210  15.3410  15.5018  15.5848
    15.6276  15.7536  15.7807  15.8133  15.8814  15.9520  15.9884  16.0157
    16.0716  16.1169  16.1662  16.2280  16.2501  16.2789  16.3031  16.3651
    16.4334  16.4724  16.5677  16.6286  16.7139  16.7849  16.8922  16.8970
    17.0282  17.0580  17.0823  17.0882  17.1174  17.1481  17.1646  17.1765
    17.2277  17.2370  17.2999  17.3266  17.4468  17.5776  17.6012  17.6997
    17.7781  17.8782  17.9153  17.9598  17.9882  18.0232  18.1056  18.1766
    18.2192  18.3045  18.3176  18.3505  18.3609  18.4769  18.6404  18.6491
    18.7314  18.7463  18.8399  18.8683  18.9404  18.9625  19.0811  19.1201
    19.2517  19.2764  19.3850  19.4273  19.4620  19.4841  19.5234  19.5464
    19.5673  19.6552  19.7265  19.7495  19.8055  19.8107  19.8512  19.8936
    19.9708  20.0264  20.0925  20.1428  20.1659  20.2211  20.3341  20.3953
    20.4275  20.4432  20.4785  20.5253  20.5845  20.5995  20.6108  20.6659
    20.7087  20.7423  20.7843  20.8900  20.9416  20.9908  21.1207  21.2430
    21.2916  21.3362  21.4490  21.4998  21.6017  21.6764  21.7211  21.7721
    21.8366  21.8754

          k =-0.5000 0.2488 0.0000 ( 32052 PWs)   bands (ev):

   -55.3262 -55.3237 -55.2609 -55.2575 -55.1684 -55.1649 -55.1455 -55.1443
   -55.1211 -55.1157 -55.0645 -54.9827 -54.9807 -54.9699 -54.9635 -54.8593
   -54.8590 -54.8545 -54.8444 -54.8393 -54.7400 -54.6330 -54.4046 -54.1277
   -21.9426 -21.8731 -20.8950 -20.8774 -20.7072 -20.7023 -20.5950 -20.4650
   -20.4403 -20.2913 -20.2337 -20.1859 -20.0639 -20.0491 -19.9682 -19.9634
   -19.7619 -19.1882 -19.1688 -10.3650 -10.2841 -10.0088  -9.9894  -9.8250
    -9.7925  -9.6546  -9.6276  -9.5496  -9.4866  -9.3081  -9.2755  -9.2368
    -9.2085  -8.9577  -8.9173  -8.6808  -8.5728  -8.4282  -8.3531  -8.2013
    -8.1178  -7.9735  -7.9261  -7.8174  -7.7835  -7.7013  -7.6351  -7.5482
    -7.4245  -7.3270  -7.2671  -7.2203  -7.1290  -6.9722  -6.8595  -6.7803
    -6.6853  -6.6385  -6.5528  -6.5174  -6.2599  -6.2060  -6.0344  -5.9954
    -5.7427  -5.6756  -5.5489  -5.4200  -5.1647  -5.0762  -5.0051  -4.8787
    -4.3069  -4.2722  -4.1769  -4.0733  -4.0557  -3.9663  -3.9428  -3.9008
    -3.7460  -3.5575  -3.4631  -3.4535  -3.3367  -3.1179  -3.0125  -2.9097
    -2.8510  -2.7471  -2.6418  -2.6133  -2.4897  -2.4610  -2.3852  -2.2728
    -2.2363  -2.1861  -2.0510  -2.0392  -1.5328  -0.5092  -0.4104  -0.2382
    -0.2350  -0.0852   0.0396   0.2775   0.3292   0.6093   0.7230   0.9855
     1.0876   1.2379   1.5310   1.7505   4.1277   4.1410   4.5182   4.9287
     5.2980   5.3049   5.6759   5.7056   5.8124   5.8260   5.8991   5.9725
     6.3371   6.5804   6.7236   6.8153   6.8404   6.9484   7.1074   7.1548
     7.2675   7.3470   7.5411   7.6074   7.6789   7.7731   7.8799   7.9261
     8.1443   8.1756   8.2592   8.4219   8.4995   8.5460   8.6758   8.8254
     8.9310   9.0680   9.2076   9.2834   9.3960   9.4224   9.5910   9.6104
     9.7672   9.7924  10.0684  10.1445  10.2463  10.3908  10.4895  10.6366
    10.6532  10.7415  10.8683  10.9698  11.0390  11.0732  11.1882  11.2133
    11.3678  11.3935  11.5526  11.5946  11.7087  11.8105  11.8493  11.8758
    11.9934  12.1411  12.1759  12.2582  12.2926  12.4309  12.4904  12.5044
    12.6583  12.6768  12.7675  12.7759  12.8760  12.8860  13.0273  13.0824
    13.1134  13.1773  13.2199  13.2497  13.3302  13.3986  13.4319  13.5612
    13.6186  13.6828  13.8469  13.9185  13.9382  13.9972  14.0866  14.1290
    14.1756  14.1993  14.2685  14.3390  14.3826  14.4336  14.5211  14.5331
    14.5682  14.6276  14.7205  14.7890  14.8589  14.8823  15.0447  15.1225
    15.2576  15.3359  15.4292  15.5205  15.6420  15.6850  15.7399  15.7805
    15.9303  15.9620  16.0011  16.0237  16.1017  16.1626  16.2415  16.2762
    16.2875  16.3458  16.4276  16.5156  16.5792  16.6288  16.7272  16.7778
    16.8596  16.8938  17.0131  17.0588  17.0844  17.0952  17.1053  17.1131
    17.1849  17.2273  17.2541  17.2639  17.2940  17.3046  17.3269  17.3820
    17.4592  17.5069  17.5800  17.6475  17.7415  17.8466  17.8851  17.9435
    17.9728  18.0369  18.0394  18.0753  18.1426  18.1802  18.2277  18.2654
    18.3816  18.4221  18.4971  18.6302  18.6741  18.7446  18.7828  18.8295
    18.8670  18.9212  19.0296  19.0607  19.2061  19.2304  19.2786  19.3170
    19.4284  19.4469  19.5392  19.5821  19.6785  19.6884  19.7930  19.8798
    19.9251  19.9570  20.0040  20.1642  20.2521  20.3249  20.4083  20.4605
    20.5479  20.6052  20.6931  20.7515  20.8182  20.8605  20.9529  21.0433
    21.1038  21.1415  21.1819  21.2604  21.3592  21.4219  21.5055  21.5839
    21.6519  21.7025  21.7445  21.7952  21.8678  21.9263  22.0027  22.0488
    22.0904  22.2039

          k =-0.5000-0.4976 0.0000 ( 31956 PWs)   bands (ev):

   -55.3260 -55.3235 -55.2607 -55.2573 -55.1687 -55.1652 -55.1450 -55.1439
   -55.1211 -55.1157 -55.0643 -54.9825 -54.9804 -54.9702 -54.9637 -54.8593
   -54.8590 -54.8545 -54.8444 -54.8394 -54.7399 -54.6328 -54.4045 -54.1277
   -21.9388 -21.8696 -20.7283 -20.7082 -20.6908 -20.5782 -20.5269 -20.4689
   -20.4523 -20.4353 -20.3513 -20.2651 -20.2417 -20.1252 -19.9839 -19.9792
   -19.7712 -19.1883 -19.1706 -10.3453 -10.2529  -9.7195  -9.7128  -9.5965
    -9.5080  -9.4011  -9.3924  -9.3204  -9.3019  -9.2781  -9.2640  -9.1139
    -9.0360  -8.9287  -8.9098  -8.8247  -8.8217  -8.6953  -8.5852  -8.4305
    -8.3865  -8.2205  -7.9552  -7.9126  -7.8474  -7.8342  -7.7138  -7.6108
    -7.4525  -7.4397  -7.2060  -7.1600  -7.0685  -7.0356  -6.9513  -6.9077
    -6.8952  -6.8055  -6.7632  -6.5922  -6.3087  -6.2150  -6.0512  -5.9525
    -5.8522  -5.8162  -5.6769  -5.5820  -5.1451  -5.0079  -4.9741  -4.8525
    -4.1837  -4.0371  -4.0109  -3.9678  -3.8062  -3.7972  -3.7686  -3.6674
    -3.6165  -3.5295  -3.5104  -3.4284  -3.3255  -3.2256  -3.2202  -2.9052
    -2.8627  -2.7429  -2.6642  -2.5998  -2.4828  -2.4350  -2.3560  -2.3225
    -2.2925  -2.2130  -2.1325  -2.1082  -1.5009  -0.7401  -0.7204  -0.5496
    -0.3990  -0.2495   0.0430   0.3618   0.3638   0.8293   1.0819   1.0997
     1.1650   1.4616   1.6312   1.6663   4.6371   4.6752   4.7182   5.0865
     5.1026   5.3131   5.9223   5.9304   5.9573   6.0159   6.0786   6.1194
     6.3243   6.3383   6.4097   6.5114   6.5509   6.5635   6.6214   6.6727
     7.0657   7.1707   7.1835   7.3924   7.4067   7.4550   7.5813   7.6119
     7.9904   8.0513   8.2077   8.3369   8.4532   8.5594   8.5974   8.8446
     8.9125   8.9391   9.1538   9.3642   9.4772   9.5061   9.5322   9.6068
     9.6183   9.7895  10.0071  10.2216  10.4277  10.4876  10.6386  10.7334
    10.7470  10.9080  10.9293  11.3206  11.4450  11.5491  11.8007  11.8221
    12.0099  12.0235  12.0814  12.0959  12.2079  12.2471  12.4314  12.4690
    12.6049  12.6175  12.6944  12.7402  12.7982  12.8168  12.9581  12.9801
    13.0239  13.0896  13.1266  13.1399  13.1470  13.2155  13.2309  13.2658
    13.2782  13.2947  13.4105  13.4913  13.5199  13.5442  13.5443  13.5810
    13.5945  13.6318  13.6732  13.7177  13.7859  13.7961  13.8467  13.8605
    13.8915  13.9220  13.9953  14.0474  14.2495  14.2722  14.3352  14.3527
    14.4608  14.4772  14.6589  14.7082  14.7601  14.7990  14.8262  14.8720
    14.8770  14.9265  14.9353  14.9863  15.0647  15.0717  15.1704  15.2425
    15.3054  15.3192  15.4008  15.4865  15.5265  15.6176  15.6416  15.7549
    15.7818  15.8284  15.9697  16.0852  16.2688  16.3443  16.4061  16.4762
    16.5006  16.5524  16.5742  16.6117  16.6225  16.6809  16.9259  17.0495
    17.0874  17.0946  17.1039  17.1484  17.1705  17.2086  17.2403  17.2535
    17.3157  17.3824  17.4201  17.5568  17.6563  17.6998  17.7836  17.8086
    17.8597  17.9542  17.9824  18.0163  18.0859  18.2066  18.3924  18.4255
    18.4696  18.5697  18.6571  18.6756  18.8203  18.8696  18.9803  19.0669
    19.1469  19.2269  19.2904  19.4174  19.4451  19.5970  19.6259  19.7007
    19.7368  19.7577  19.9010  19.9672  19.9716  20.0579  20.0881  20.1322
    20.3171  20.3844  20.4415  20.4798  20.5013  20.5180  20.5662  20.5947
    20.6612  20.6856  20.7259  20.7908  20.8798  20.9098  20.9763  20.9993
    21.0365  21.0577  21.1725  21.2179  21.2388  21.2522  21.2924  21.3425
    21.3749  21.4202  21.4614  21.4680  21.5223  21.5667  21.6644  21.7078
    21.7433  21.7753

          k =-0.2500 0.2488 0.0000 ( 32025 PWs)   bands (ev):

   -55.3431 -55.3039 -55.2781 -55.2373 -55.1848 -55.1475 -55.1448 -55.1428
   -55.1212 -55.1152 -55.0639 -54.9842 -54.9789 -54.9702 -54.9629 -54.8596
   -54.8592 -54.8537 -54.8452 -54.8384 -54.7399 -54.6306 -54.4045 -54.1275
   -22.0469 -21.8403 -21.1461 -20.9796 -20.7218 -20.6497 -20.5644 -20.5214
   -20.4170 -20.2656 -20.2333 -20.1514 -20.0655 -19.9731 -19.9073 -19.8895
   -19.7291 -19.2015 -18.9899 -10.7798 -10.5733 -10.4297 -10.3611  -9.9498
    -9.9092  -9.7851  -9.5269  -9.4786  -9.4292  -9.3291  -9.2532  -9.1184
    -9.0420  -9.0004  -8.8695  -8.8031  -8.6578  -8.4667  -8.2544  -8.0954
    -8.0565  -7.9390  -7.8488  -7.7369  -7.6015  -7.5668  -7.4565  -7.2918
    -7.2261  -7.1690  -7.0655  -6.9840  -6.9037  -6.8313  -6.7805  -6.7502
    -6.6395  -6.5667  -6.4711  -6.3887  -6.1645  -6.0545  -5.8120  -5.7172
    -5.5150  -5.4289  -5.3743  -5.2641  -5.1925  -5.1411  -4.9503  -4.8998
    -4.7089  -4.6592  -4.4810  -4.3280  -4.3007  -4.1932  -3.9802  -3.9157
    -3.8369  -3.7470  -3.7260  -3.5959  -3.5308  -3.4168  -3.3728  -3.1038
    -3.0761  -2.8075  -2.6629  -2.5699  -2.4296  -2.4033  -2.3597  -2.2991
    -2.2195  -2.0267  -1.8412  -1.7551  -1.6364  -1.0437  -0.7881  -0.5982
    -0.2398  -0.1015   0.3013   0.5441   0.7791   0.8644   1.0138   1.0850
     1.3255   1.4614   1.5233   1.8736   3.2582   3.9448   4.6291   5.0501
     5.1131   5.2130   5.2840   5.5502   6.0272   6.1980   6.2885   6.3353
     6.4746   6.6004   6.6791   6.7808   6.8733   6.9512   7.1430   7.2301
     7.3974   7.5136   7.5444   7.6906   7.7492   7.8550   7.9609   8.0599
     8.2339   8.3282   8.3691   8.4607   8.5239   8.6172   8.6887   8.7911
     8.9286   8.9845   9.0595   9.1951   9.3468   9.4353   9.5982   9.6467
     9.7573   9.8164   9.9264  10.0794  10.1315  10.1927  10.2468  10.3753
    10.5172  10.5567  10.6143  10.7086  10.7483  10.9552  11.0055  11.0965
    11.1892  11.2086  11.3712  11.4333  11.4990  11.6486  11.7453  11.7973
    11.8732  11.9288  12.0198  12.0358  12.1011  12.2344  12.2985  12.3560
    12.3987  12.4624  12.5274  12.5805  12.6570  12.7303  12.7947  12.9409
    12.9939  13.0354  13.1180  13.2169  13.2602  13.4742  13.5447  13.5830
    13.6227  13.6779  13.7376  13.8338  13.9456  13.9942  14.0709  14.0916
    14.1905  14.2999  14.3688  14.5061  14.5675  14.6514  14.7322  14.8511
    14.9064  15.0041  15.0824  15.1898  15.2511  15.3000  15.3259  15.4066
    15.4608  15.5122  15.5823  15.6275  15.7038  15.7350  15.7766  15.8525
    15.8904  15.9891  16.0138  16.0600  16.1278  16.2400  16.3228  16.3903
    16.4765  16.5260  16.6371  16.7271  16.7910  16.8237  16.9142  16.9540
    17.0005  17.0519  17.0728  17.0827  17.1034  17.1235  17.1499  17.1903
    17.2272  17.2509  17.2554  17.3022  17.3170  17.3521  17.3999  17.4881
    17.5270  17.5540  17.6254  17.6502  17.7662  17.8915  17.9258  17.9563
    18.0126  18.0563  18.1443  18.1837  18.2527  18.3493  18.4742  18.5087
    18.5868  18.6092  18.6356  18.7269  18.7999  18.8649  18.9011  18.9766
    19.0228  19.1341  19.1832  19.2448  19.2980  19.3631  19.4528  19.5501
    19.6559  19.6925  19.8229  19.8786  19.9448  19.9999  20.0481  20.0797
    20.1295  20.1643  20.2721  20.3492  20.3618  20.4181  20.5198  20.5652
    20.6602  20.6945  20.7363  20.8129  20.9082  20.9613  20.9910  21.0300
    21.0907  21.2137  21.2633  21.3053  21.3401  21.3657  21.4657  21.5078
    21.5800  21.6314  21.7057  21.7587  21.8010  21.9058  21.9992  22.0782
    22.1462  22.1888

     the Fermi energy is    -1.7455 ev

!    total energy              =   -2280.92638000 Ry
     Harris-Foulkes estimate   =   -2280.92638000 Ry
     estimated scf accuracy    <          7.6E-09 Ry

     The total energy is the sum of the following terms:

     one-electron contribution =  -23731.73745740 Ry
     hartree contribution      =   11910.11951095 Ry
     xc contribution           =    -573.04866903 Ry
     ewald contribution        =   10112.51590450 Ry
     Hubbard energy            =       1.22420181 Ry
     smearing contrib. (-TS)   =       0.00012917 Ry

     convergence has been achieved in  12 iterations

     Forces acting on atoms (Ry/au):


     negative rho (up, down):  0.158E+01 0.000E+00
     atom    1 type  1   force =    -0.00844856   -0.00391226    0.00007253
     atom    2 type  1   force =     0.00038502    0.00271431   -0.00093738
     atom    3 type  2   force =     0.01446267    0.00790754   -0.00019378
     atom    4 type  2   force =     0.01074743    0.00419206   -0.00021165
     atom    5 type  1   force =     0.00135510   -0.00339596   -0.00067783
     atom    6 type  1   force =    -0.00001789   -0.00309337   -0.00010659
     atom    7 type  1   force =     0.00024199   -0.00085646   -0.00016880
     atom    8 type  1   force =    -0.00425617   -0.00074091   -0.00006101
     atom    9 type  2   force =     0.00312988    0.00275038   -0.00035215
     atom   10 type  2   force =    -0.00042137   -0.02393008    0.00091275
     atom   11 type  1   force =     0.00373336    0.00198135    0.00055815
     atom   12 type  1   force =    -0.01287349    0.00749841   -0.00009541
     atom   13 type  1   force =    -0.00107731   -0.00657551   -0.00015418
     atom   14 type  1   force =    -0.00818805   -0.00366862    0.00008623
     atom   15 type  1   force =     0.00011707    0.00188353    0.00041963
     atom   16 type  2   force =    -0.01568160    0.00789336   -0.00022518
     atom   17 type  2   force =     0.01044720    0.00545601   -0.00011625
     atom   18 type  1   force =     0.00098124   -0.00347897   -0.00051377
     atom   19 type  1   force =     0.00005784   -0.00299801   -0.00018038
     atom   20 type  1   force =     0.00035763   -0.00203244    0.00036939
     atom   21 type  1   force =    -0.00395190    0.00166072    0.00015534
     atom   22 type  2   force =     0.00078682    0.00302424   -0.00042969
     atom   23 type  2   force =    -0.00059749    0.00065265    0.00000626
     atom   24 type  1   force =    -0.00364617    0.00250513    0.00038875
     atom   25 type  1   force =     0.01299538    0.00774711   -0.00001084
     atom   26 type  1   force =    -0.00119013   -0.00498528    0.00022909
     atom   27 type  3   force =    -0.00002291    0.00044034   -0.00015903
     atom   28 type  3   force =     0.00002777   -0.00018252   -0.00006041
     atom   29 type  3   force =     0.00010248   -0.00001370    0.00060418
     atom   30 type  3   force =     0.00009112   -0.00006544    0.00051400
     atom   31 type  1   force =     0.00011790    0.00077502    0.00025056
     atom   32 type  3   force =     0.00023514    0.00084737    0.00008745

     Total force =     0.002496     Total SCF correction =     0.000283
     SCF correction compared to forces is large: reduce conv_thr to get better values

     bfgs converged in  16 scf cycles and  15 bfgs steps
     (criteria: energy < 0.10E-03, force < 0.10E-02)

     End of BFGS Geometry Optimization

     Final energy   =   -2280.9263799975 Ry
Begin final coordinates

ATOMIC_POSITIONS (crystal)
O0       0.000000000   0.000000000   0.377510717    0   0   1
O0       0.000000000   0.500000000   0.401684620    0   0   1
Pt1      0.250000000   0.500000000   0.451152467    0   0   1
Pt1      0.000000000   0.000000000   0.452589800    0   0   1
O0       0.250000000   0.810000000   0.442774380    0   0   1
O0       0.250000000   0.190000000   0.460762619    0   0   1
O0       0.000000000   0.500000000   0.496770281    0   0   1
O0       0.000000000   0.000000000   0.529606939    0   0   1
Pt1      0.250000000   0.000000000   0.575714154    0   0   1
Pt1      0.000000000   0.500000000   0.574284544    0   0   1
O0       0.250000000   0.690000000   0.566718485    0   0   1
O0       0.250000000   0.310000000   0.585742509    0   0   1
O0       0.000000000   0.000000000   0.621140751    0   0   1
O0       0.500000000   0.000000000   0.377566524    0   0   1
O0       0.500000000   0.500000000   0.401148835    0   0   1
Pt1      0.750000000   0.500000000   0.451152560    0   0   1
Pt1      0.500000000   0.000000000   0.452624634    0   0   1
O0       0.750000000   0.810000000   0.442756775    0   0   1
O0       0.750000000   0.190000000   0.460768892    0   0   1
O0       0.500000000   0.500000000   0.497319109    0   0   1
O0       0.500000000   0.000000000   0.529567827    0   0   1
Pt1      0.750000000   0.000000000   0.575719291    0   0   1
Pt1      0.500000000   0.500000000   0.576011445    0   0   1
O0       0.750000000   0.690000000   0.566832057    0   0   1
O0       0.750000000   0.310000000   0.585630507    0   0   1
O0       0.500000000   0.000000000   0.621136764    0   0   1
H2       0.000081416   0.640620308   0.386392222
H2       0.499992125   0.641307830   0.386184254
H2       0.143437641   0.034045301   0.367558113
H2       0.643455726   0.034093914   0.367620438
O0       0.499252573   0.531156000   0.649544611
H2       0.492487731   0.388807287   0.662632876
End final coordinates



     init_run     :    144.21s CPU    147.00s WALL (       1 calls)
     electrons    :  54058.98s CPU  55648.51s WALL (      16 calls)
     update_pot   :    321.29s CPU    328.04s WALL (      15 calls)
     forces       :   2378.85s CPU   2418.60s WALL (      16 calls)

     Called by init_run:
     wfcinit      :     43.78s CPU     44.93s WALL (       1 calls)
     potinit      :      8.33s CPU      9.04s WALL (       1 calls)

     Called by electrons:
     c_bands      :  27813.78s CPU  28690.21s WALL (     255 calls)
     sum_band     :  11156.43s CPU  11411.25s WALL (     255 calls)
     v_of_rho     :    324.24s CPU    353.06s WALL (     259 calls)
     newd         :  15656.75s CPU  15858.62s WALL (     259 calls)
     mix_rho      :     59.36s CPU     60.85s WALL (     255 calls)

     Called by c_bands:
     init_us_2    :     76.25s CPU     76.95s WALL (    1677 calls)
     cegterg      :  27445.59s CPU  28208.74s WALL (     765 calls)

     Called by *egterg:
     h_psi        :  16706.70s CPU  17126.61s WALL (    1927 calls)
     s_psi        :   1518.48s CPU   1536.83s WALL (    2023 calls)
     g_psi        :     32.59s CPU     32.63s WALL (    1159 calls)
     cdiaghg      :   1960.96s CPU   1967.40s WALL (    1843 calls)

     Called by h_psi:
     add_vuspsi   :   1469.75s CPU   1490.70s WALL (    1927 calls)
     vhpsi        :   1673.76s CPU   1689.90s WALL (    1927 calls)

     General routines
     calbec       :   3730.58s CPU   3766.36s WALL (   19400 calls)
     fft          :    426.45s CPU    516.87s WALL (    4319 calls)
     ffts         :      5.29s CPU      5.53s WALL (     514 calls)
     fftw         :   9473.27s CPU   9932.67s WALL ( 1464552 calls)
     interpolate  :     52.49s CPU     53.39s WALL (     514 calls)
     davcio       :      0.14s CPU     37.01s WALL (    1725 calls)

     Parallel routines
     fft_scatter  :   3938.91s CPU   4467.53s WALL ( 1469385 calls)
     Hubbard U routines
     new_ns       :    349.11s CPU    370.55s WALL (     255 calls)
     vhpsi        :   1673.76s CPU   1689.90s WALL (    1927 calls)
     force_hub    :    649.87s CPU    667.18s WALL (      16 calls)

     PWSCF        :    16h 6m CPU       16h33m WALL


   This run was terminated on:  21:39:24  28Apr2014            

=------------------------------------------------------------------------------=
   JOB DONE.
=------------------------------------------------------------------------------=
