
     Program PWSCF v.5.0.2 (svn rev. 9656) starts on  1Apr2014 at 13:45:34 

     This program is part of the open-source Quantum ESPRESSO suite
     for quantum simulation of materials; please cite
         "P. Giannozzi et al., J. Phys.:Condens. Matter 21 395502 (2009);
          URL http://www.quantum-espresso.org", 
     in publications or presentations arising from this work. More details at
     http://www.quantum-espresso.org/quote.php

     Parallel version (MPI), running on    16 processors
     R & G space division:  proc/nbgrp/npool/nimage =      16

     Current dimensions of program PWSCF are:
     Max number of different atomic species (ntypx) = 10
     Max number of k-points (npk) =  40000
     Max angular momentum in pseudopotentials (lmaxx) =  3
     Reading input from pwscf.in
Warning: card &CELL ignored
Warning: card / ignored

     Subspace diagonalization in iterative solution of the eigenvalue problem:
     a serial algorithm will be used


     Parallelization info
     --------------------
     sticks:   dense  smooth     PW     G-vecs:    dense   smooth      PW
     Min         311      99     28                72961    13185    1980
     Max         312     100     29                72973    13229    1986
     Sum        4979    1589    451              1167509   211387   31747



     bravais-lattice index     =            0
     lattice parameter (alat)  =      10.7336  a.u.
     unit-cell volume          =    6184.1966 (a.u.)^3
     number of atoms/cell      =           31
     number of atomic types    =            3
     number of electrons       =       238.00
     number of Kohn-Sham states=          345
     kinetic-energy cutoff     =      40.0000  Ry
     charge density cutoff     =     500.0000  Ry
     convergence threshold     =      1.0E-06
     mixing beta               =       0.7000
     number of iterations used =            8  plain     mixing
     Exchange-correlation      = SLA  PW   PBE  PBE ( 1 4 3 4 0)
     EXX-fraction              =        0.00
     nstep                     =           50


     celldm(1)=  10.733644  celldm(2)=   0.000000  celldm(3)=   0.000000
     celldm(4)=   0.000000  celldm(5)=   0.000000  celldm(6)=   0.000000

     crystal axes: (cart. coord. in units of alat)
               a(1) = (   1.000000   0.000000   0.000000 )  
               a(2) = (   0.000000   1.085558   0.000000 )  
               a(3) = (   0.000000   0.000000   4.606685 )  

     reciprocal axes: (cart. coord. in units 2 pi/alat)
               b(1) = (  1.000000  0.000000  0.000000 )  
               b(2) = (  0.000000  0.921185  0.000000 )  
               b(3) = (  0.000000  0.000000  0.217076 )  


     PseudoPot. # 1 for O  read from file:
     /home/camp/zhonxu/pseudo/o_pbe_v1.01.uspp.F.UPF
     MD5 check sum: 2bcb18d16ea4b960afae9ec6d52f22d2
     Pseudo is Ultrasoft + core correction, Zval =  6.0
     Generated by new atomic code, or converted to UPF format
     Using radial grid of  737 points,  5 beta functions with: 
                l(1) =   0
                l(2) =   0
                l(3) =   1
                l(4) =   1
                l(5) =   2
     Q(r) pseudized with  8 coefficients,  rinner =    0.900   0.900   0.900
                                                       0.900   0.900

     PseudoPot. # 2 for Mn read from file:
     /home/camp/zhonxu/pseudo/mn_pbe_v1.uspp.F.UPF
     MD5 check sum: 5fd7c7b5c956fd19902447332617373a
     Pseudo is Ultrasoft + core correction, Zval = 15.0
     Generated by new atomic code, or converted to UPF format
     Using radial grid of  859 points,  6 beta functions with: 
                l(1) =   0
                l(2) =   0
                l(3) =   1
                l(4) =   1
                l(5) =   2
                l(6) =   2
     Q(r) pseudized with  6 coefficients,  rinner =    1.150   1.150   1.150
                                                       1.150   1.150

     PseudoPot. # 3 for H  read from file:
     /home/camp/zhonxu/pseudo/h_pbe_v1.uspp.F.UPF
     MD5 check sum: 3408e3ff4ec8b0a4e358431e7e038a48
     Pseudo is Ultrasoft, Zval =  1.0
     Generated by new atomic code, or converted to UPF format
     Using radial grid of  615 points,  2 beta functions with: 
                l(1) =   0
                l(2) =   0
     Q(r) pseudized with  8 coefficients,  rinner =    0.700

     atomic species   valence    mass     pseudopotential
        O0             6.00    15.99940     O ( 1.00)
        Mn1           15.00    54.93800     Mn( 1.00)
        H2             1.00     1.00794     H ( 1.00)

     Starting magnetic structure 
     atomic species   magnetization
        O0           0.000
        Mn1          0.600
        H2           0.000

     No symmetry found



   Cartesian axes

     site n.     atom                  positions (alat units)
         1           O0  tau(   1) = (   0.0000000   0.0000000   1.7440910  )
         2           O0  tau(   2) = (   0.0000000   0.5427791   1.8348887  )
         3           Mn1 tau(   3) = (   0.2500000   0.5427791   2.0695072  )
         4           Mn1 tau(   4) = (   0.0000000   0.0000000   2.0719487  )
         5           O0  tau(   5) = (   0.2500000   0.8684466   2.0695533  )
         6           O0  tau(   6) = (   0.2500000   0.2171117   2.0770161  )
         7           O0  tau(   7) = (   0.0000000   0.5427791   2.2881405  )
         8           O0  tau(   8) = (   0.0000000   0.0000000   2.4167130  )
         9           Mn1 tau(   9) = (   0.2500000   0.0000000   2.6452046  )
        10           Mn1 tau(  10) = (   0.0000000   0.5427791   2.6189465  )
        11           O0  tau(  11) = (   0.2500000   0.7598908   2.6694358  )
        12           O0  tau(  12) = (   0.2500000   0.3256675   2.6696661  )
        13           O0  tau(  13) = (   0.0000000   0.0000000   2.8462864  )
        14           O0  tau(  14) = (   0.5000000   0.0000000   1.7440910  )
        15           O0  tau(  15) = (   0.5000000   0.5427791   1.8348887  )
        16           Mn1 tau(  16) = (   0.7500000   0.5427791   2.0695072  )
        17           Mn1 tau(  17) = (   0.5000000   0.0000000   2.0719487  )
        18           O0  tau(  18) = (   0.7500000   0.8684466   2.0695533  )
        19           O0  tau(  19) = (   0.7500000   0.2171117   2.0770161  )
        20           O0  tau(  20) = (   0.5000000   0.5427791   2.2881405  )
        21           O0  tau(  21) = (   0.5000000   0.0000000   2.4167130  )
        22           Mn1 tau(  22) = (   0.7500000   0.0000000   2.6452046  )
        23           Mn1 tau(  23) = (   0.5000000   0.5427791   2.6189465  )
        24           O0  tau(  24) = (   0.7500000   0.7598908   2.6694358  )
        25           O0  tau(  25) = (   0.7500000   0.3256675   2.6696661  )
        26           O0  tau(  26) = (   0.5000000   0.0000000   2.8462864  )
        27           H2  tau(  27) = (  -0.0000900   0.7018026   1.7591088  )
        28           H2  tau(  28) = (   0.4999100   0.7018026   1.7591088  )
        29           H2  tau(  29) = (   0.1616900   0.0388738   1.6898703  )
        30           H2  tau(  30) = (   0.6616900   0.0388738   1.6898703  )
        31           O0  tau(  31) = (   0.5000100   0.5426489   2.9297135  )

     number of k points=    20  Methfessel-Paxton smearing, width (Ry)=  0.0100
                       cart. coord. in units 2pi/alat
        k(    1) = (   0.0000000   0.0000000   0.0000000), wk =   0.0625000
        k(    2) = (   0.0000000   0.2302962   0.0000000), wk =   0.1250000
        k(    3) = (   0.0000000  -0.4605925   0.0000000), wk =   0.0625000
        k(    4) = (   0.2500000   0.0000000   0.0000000), wk =   0.1250000
        k(    5) = (   0.2500000   0.2302962   0.0000000), wk =   0.1250000
        k(    6) = (   0.2500000  -0.4605925   0.0000000), wk =   0.1250000
        k(    7) = (  -0.5000000   0.0000000   0.0000000), wk =   0.0625000
        k(    8) = (  -0.5000000   0.2302962   0.0000000), wk =   0.1250000
        k(    9) = (  -0.5000000  -0.4605925   0.0000000), wk =   0.0625000
        k(   10) = (  -0.2500000   0.2302962   0.0000000), wk =   0.1250000
        k(   11) = (   0.0000000   0.0000000   0.0000000), wk =   0.0625000
        k(   12) = (   0.0000000   0.2302962   0.0000000), wk =   0.1250000
        k(   13) = (   0.0000000  -0.4605925   0.0000000), wk =   0.0625000
        k(   14) = (   0.2500000   0.0000000   0.0000000), wk =   0.1250000
        k(   15) = (   0.2500000   0.2302962   0.0000000), wk =   0.1250000
        k(   16) = (   0.2500000  -0.4605925   0.0000000), wk =   0.1250000
        k(   17) = (  -0.5000000   0.0000000   0.0000000), wk =   0.0625000
        k(   18) = (  -0.5000000   0.2302962   0.0000000), wk =   0.1250000
        k(   19) = (  -0.5000000  -0.4605925   0.0000000), wk =   0.0625000
        k(   20) = (  -0.2500000   0.2302962   0.0000000), wk =   0.1250000

     Dense  grid:  1167509 G-vectors     FFT dimensions: (  80,  90, 360)

     Smooth grid:   211387 G-vectors     FFT dimensions: (  45,  48, 200)

     Largest allocated arrays     est. size (Mb)     dimensions
        Kohn-Sham Wavefunctions         8.93 Mb     (   1696,  345)
        NL pseudopotentials            10.33 Mb     (   1696,  399)
        Each V/rho on FFT grid          5.05 Mb     ( 165600,   2)
        Each G-vector array             0.56 Mb     (  72972)
        G-vector shells                 0.27 Mb     (  35785)
     Largest temporary arrays     est. size (Mb)     dimensions
        Auxiliary wavefunctions        35.71 Mb     (   1696, 1380)
        Each subspace H/S matrix       29.06 Mb     (1380,1380)
        Each <psi_i|beta_j> matrix      2.10 Mb     (    399,  345)
        Arrays for rho mixing          20.21 Mb     ( 165600,   8)

     Check: negative/imaginary core charge=   -0.000022    0.000000

     Initial potential from superposition of free atoms
     Check: negative starting charge=(component1):   -0.000754
     Check: negative starting charge=(component2):   -0.000371

     starting charge  229.99987, renormalised to  238.00000

     negative rho (up, down):  0.780E-03 0.384E-03
     Starting wfc are  184 randomized atomic wfcs

     total cpu time spent up to now is      114.3 secs

     per-process dynamical memory:   254.3 Mb

     Self-consistent Calculation

     iteration #  1     ecut=    40.00 Ry     beta=0.70
     Davidson diagonalization with overlap
     ethr =  1.00E-02,  avg # of iterations =  5.7

     negative rho (up, down):  0.144E-02 0.104E-02

     total cpu time spent up to now is      990.8 secs

     total energy              =   -2297.24067942 Ry
     Harris-Foulkes estimate   =   -2318.56233186 Ry
     estimated scf accuracy    <      34.39842395 Ry

     total magnetization       =    27.01 Bohr mag/cell
     absolute magnetization    =    32.35 Bohr mag/cell

     iteration #  2     ecut=    40.00 Ry     beta=0.70
     Davidson diagonalization with overlap
     ethr =  1.00E-02,  avg # of iterations =  7.0

     negative rho (up, down):  0.124E-01 0.305E-02

     total cpu time spent up to now is     1794.2 secs

     total energy              =   -2168.96215493 Ry
     Harris-Foulkes estimate   =   -2601.77072962 Ry
     estimated scf accuracy    <    5163.71530160 Ry

     total magnetization       =     1.97 Bohr mag/cell
     absolute magnetization    =     3.15 Bohr mag/cell

     iteration #  3     ecut=    40.00 Ry     beta=0.70
     Davidson diagonalization with overlap
     ethr =  1.00E-02,  avg # of iterations =  6.0

     negative rho (up, down):  0.122E-01 0.608E-02

     total cpu time spent up to now is     2661.9 secs

     total energy              =   -2307.55924114 Ry
     Harris-Foulkes estimate   =   -2332.55237462 Ry
     estimated scf accuracy    <     123.41920903 Ry

     total magnetization       =    13.44 Bohr mag/cell
     absolute magnetization    =    16.50 Bohr mag/cell

     iteration #  4     ecut=    40.00 Ry     beta=0.70
     Davidson diagonalization with overlap
     ethr =  1.00E-02,  avg # of iterations =  2.9

     negative rho (up, down):  0.921E-02 0.435E-02

     total cpu time spent up to now is     3017.5 secs

     total energy              =   -2316.49128291 Ry
     Harris-Foulkes estimate   =   -2324.25425117 Ry
     estimated scf accuracy    <      39.35964691 Ry

     total magnetization       =    18.85 Bohr mag/cell
     absolute magnetization    =    22.37 Bohr mag/cell

     iteration #  5     ecut=    40.00 Ry     beta=0.70
     Davidson diagonalization with overlap
     ethr =  1.00E-02,  avg # of iterations =  1.0

     negative rho (up, down):  0.108E-01 0.103E-01

     total cpu time spent up to now is     3320.1 secs

     total energy              =   -2317.26979131 Ry
     Harris-Foulkes estimate   =   -2324.13365611 Ry
     estimated scf accuracy    <      67.39924499 Ry

     total magnetization       =    10.00 Bohr mag/cell
     absolute magnetization    =    14.88 Bohr mag/cell

     iteration #  6     ecut=    40.00 Ry     beta=0.70
     Davidson diagonalization with overlap
     ethr =  1.00E-02,  avg # of iterations =  1.0

     negative rho (up, down):  0.554E-02 0.258E-02

     total cpu time spent up to now is     3622.6 secs

     total energy              =   -2318.96701295 Ry
     Harris-Foulkes estimate   =   -2321.36562517 Ry
     estimated scf accuracy    <       7.44612848 Ry

     total magnetization       =    23.39 Bohr mag/cell
     absolute magnetization    =    26.56 Bohr mag/cell

     iteration #  7     ecut=    40.00 Ry     beta=0.70
     Davidson diagonalization with overlap
     ethr =  3.13E-03,  avg # of iterations =  4.5

     negative rho (up, down):  0.435E-02 0.225E-02

     total cpu time spent up to now is     4050.7 secs

     total energy              =   -2319.71480504 Ry
     Harris-Foulkes estimate   =   -2322.44282974 Ry
     estimated scf accuracy    <      19.66213284 Ry

     total magnetization       =    21.77 Bohr mag/cell
     absolute magnetization    =    24.55 Bohr mag/cell

     iteration #  8     ecut=    40.00 Ry     beta=0.70
     Davidson diagonalization with overlap
     ethr =  3.13E-03,  avg # of iterations =  3.1

     negative rho (up, down):  0.578E-02 0.249E-02

     total cpu time spent up to now is     4408.1 secs

     total energy              =   -2320.68089809 Ry
     Harris-Foulkes estimate   =   -2321.46637256 Ry
     estimated scf accuracy    <       5.01552903 Ry

     total magnetization       =    21.91 Bohr mag/cell
     absolute magnetization    =    23.98 Bohr mag/cell

     iteration #  9     ecut=    40.00 Ry     beta=0.70
     Davidson diagonalization with overlap
     ethr =  2.11E-03,  avg # of iterations =  1.4

     negative rho (up, down):  0.601E-02 0.233E-02

     total cpu time spent up to now is     4720.6 secs

     total energy              =   -2320.78561955 Ry
     Harris-Foulkes estimate   =   -2321.05700825 Ry
     estimated scf accuracy    <       2.12917250 Ry

     total magnetization       =    21.04 Bohr mag/cell
     absolute magnetization    =    23.12 Bohr mag/cell

     iteration # 10     ecut=    40.00 Ry     beta=0.70
     Davidson diagonalization with overlap
     ethr =  8.95E-04,  avg # of iterations =  1.9

     negative rho (up, down):  0.353E-02 0.161E-02

     total cpu time spent up to now is     5043.0 secs

     total energy              =   -2320.77097310 Ry
     Harris-Foulkes estimate   =   -2320.99542036 Ry
     estimated scf accuracy    <       1.83083292 Ry

     total magnetization       =    21.49 Bohr mag/cell
     absolute magnetization    =    23.38 Bohr mag/cell

     iteration # 11     ecut=    40.00 Ry     beta=0.70
     Davidson diagonalization with overlap
     ethr =  7.69E-04,  avg # of iterations =  2.0

     negative rho (up, down):  0.258E-02 0.121E-02

     total cpu time spent up to now is     5368.7 secs

     total energy              =   -2320.80393129 Ry
     Harris-Foulkes estimate   =   -2320.95548180 Ry
     estimated scf accuracy    <       0.73601449 Ry

     total magnetization       =    21.89 Bohr mag/cell
     absolute magnetization    =    24.62 Bohr mag/cell

     iteration # 12     ecut=    40.00 Ry     beta=0.70
     Davidson diagonalization with overlap
     ethr =  3.09E-04,  avg # of iterations =  6.2

     negative rho (up, down):  0.391E-02 0.384E-02

     total cpu time spent up to now is     5853.0 secs

     total energy              =   -2320.53658510 Ry
     Harris-Foulkes estimate   =   -2321.09874087 Ry
     estimated scf accuracy    <       8.10124411 Ry

     total magnetization       =    17.79 Bohr mag/cell
     absolute magnetization    =    22.44 Bohr mag/cell

     iteration # 13     ecut=    40.00 Ry     beta=0.70
     Davidson diagonalization with overlap
     ethr =  3.09E-04,  avg # of iterations =  4.2

     negative rho (up, down):  0.373E-02 0.121E-02

     total cpu time spent up to now is     6244.9 secs

     total energy              =   -2320.79826165 Ry
     Harris-Foulkes estimate   =   -2321.01634968 Ry
     estimated scf accuracy    <       1.58198901 Ry

     total magnetization       =    21.80 Bohr mag/cell
     absolute magnetization    =    24.52 Bohr mag/cell

     iteration # 14     ecut=    40.00 Ry     beta=0.70
     Davidson diagonalization with overlap
     ethr =  3.09E-04,  avg # of iterations =  1.3

     negative rho (up, down):  0.298E-02 0.119E-02

     total cpu time spent up to now is     6553.5 secs

     total energy              =   -2320.86737704 Ry
     Harris-Foulkes estimate   =   -2320.92661368 Ry
     estimated scf accuracy    <       0.28758379 Ry

     total magnetization       =    21.86 Bohr mag/cell
     absolute magnetization    =    24.73 Bohr mag/cell

     iteration # 15     ecut=    40.00 Ry     beta=0.70
     Davidson diagonalization with overlap
     ethr =  1.21E-04,  avg # of iterations =  2.0

     negative rho (up, down):  0.225E-02 0.122E-02

     total cpu time spent up to now is     6879.0 secs

     total energy              =   -2320.85290772 Ry
     Harris-Foulkes estimate   =   -2320.94015219 Ry
     estimated scf accuracy    <       0.78596263 Ry

     total magnetization       =    21.76 Bohr mag/cell
     absolute magnetization    =    23.69 Bohr mag/cell

     iteration # 16     ecut=    40.00 Ry     beta=0.70
     Davidson diagonalization with overlap
     ethr =  1.21E-04,  avg # of iterations =  1.0

     negative rho (up, down):  0.267E-02 0.120E-02

     total cpu time spent up to now is     7180.8 secs

     total energy              =   -2320.89429880 Ry
     Harris-Foulkes estimate   =   -2320.91519875 Ry
     estimated scf accuracy    <       0.16261399 Ry

     total magnetization       =    21.94 Bohr mag/cell
     absolute magnetization    =    24.27 Bohr mag/cell

     iteration # 17     ecut=    40.00 Ry     beta=0.70
     Davidson diagonalization with overlap
     ethr =  6.83E-05,  avg # of iterations =  5.8

     negative rho (up, down):  0.249E-02 0.134E-02

     total cpu time spent up to now is     7615.7 secs

     total energy              =   -2320.88603508 Ry
     Harris-Foulkes estimate   =   -2320.92528607 Ry
     estimated scf accuracy    <       0.20856178 Ry

     total magnetization       =    21.97 Bohr mag/cell
     absolute magnetization    =    24.42 Bohr mag/cell

     iteration # 18     ecut=    40.00 Ry     beta=0.70
     Davidson diagonalization with overlap
     ethr =  6.83E-05,  avg # of iterations =  4.0

     negative rho (up, down):  0.266E-02 0.125E-02

     total cpu time spent up to now is     8005.7 secs

     total energy              =   -2320.90451363 Ry
     Harris-Foulkes estimate   =   -2320.91175814 Ry
     estimated scf accuracy    <       0.13525069 Ry

     total magnetization       =    21.92 Bohr mag/cell
     absolute magnetization    =    24.98 Bohr mag/cell

     iteration # 19     ecut=    40.00 Ry     beta=0.70
     Davidson diagonalization with overlap
     ethr =  5.68E-05,  avg # of iterations =  1.0

     negative rho (up, down):  0.243E-02 0.128E-02

     total cpu time spent up to now is     8314.7 secs

     total energy              =   -2320.90173992 Ry
     Harris-Foulkes estimate   =   -2320.91663187 Ry
     estimated scf accuracy    <       0.11222235 Ry

     total magnetization       =    21.99 Bohr mag/cell
     absolute magnetization    =    24.69 Bohr mag/cell

     iteration # 20     ecut=    40.00 Ry     beta=0.70
     Davidson diagonalization with overlap
     ethr =  4.72E-05,  avg # of iterations =  1.0

     negative rho (up, down):  0.226E-02 0.120E-02

     total cpu time spent up to now is     8623.3 secs

     total energy              =   -2320.90627451 Ry
     Harris-Foulkes estimate   =   -2320.91377063 Ry
     estimated scf accuracy    <       0.04026133 Ry

     total magnetization       =    21.94 Bohr mag/cell
     absolute magnetization    =    24.61 Bohr mag/cell

     iteration # 21     ecut=    40.00 Ry     beta=0.70
     Davidson diagonalization with overlap
     ethr =  1.69E-05,  avg # of iterations =  2.6

     negative rho (up, down):  0.258E-02 0.127E-02

     total cpu time spent up to now is     8969.2 secs

     total energy              =   -2320.90518467 Ry
     Harris-Foulkes estimate   =   -2320.91499899 Ry
     estimated scf accuracy    <       0.06640124 Ry

     total magnetization       =    21.98 Bohr mag/cell
     absolute magnetization    =    24.75 Bohr mag/cell

     iteration # 22     ecut=    40.00 Ry     beta=0.70
     Davidson diagonalization with overlap
     ethr =  1.69E-05,  avg # of iterations =  5.0

     negative rho (up, down):  0.253E-02 0.127E-02

     total cpu time spent up to now is     9391.0 secs

     total energy              =   -2320.89810560 Ry
     Harris-Foulkes estimate   =   -2320.92212290 Ry
     estimated scf accuracy    <       0.25687636 Ry

     total magnetization       =    21.48 Bohr mag/cell
     absolute magnetization    =    24.66 Bohr mag/cell

     iteration # 23     ecut=    40.00 Ry     beta=0.70
     Davidson diagonalization with overlap
     ethr =  1.69E-05,  avg # of iterations =  4.0

     negative rho (up, down):  0.227E-02 0.117E-02

     total cpu time spent up to now is     9780.5 secs

     total energy              =   -2320.90479861 Ry
     Harris-Foulkes estimate   =   -2320.91654360 Ry
     estimated scf accuracy    <       0.08855634 Ry

     total magnetization       =    21.89 Bohr mag/cell
     absolute magnetization    =    24.72 Bohr mag/cell

     iteration # 24     ecut=    40.00 Ry     beta=0.70
     Davidson diagonalization with overlap
     ethr =  1.69E-05,  avg # of iterations =  1.0

     negative rho (up, down):  0.241E-02 0.137E-02

     total cpu time spent up to now is    10089.3 secs

     total energy              =   -2320.90978583 Ry
     Harris-Foulkes estimate   =   -2320.91191200 Ry
     estimated scf accuracy    <       0.01921584 Ry

     total magnetization       =    21.98 Bohr mag/cell
     absolute magnetization    =    24.82 Bohr mag/cell

     iteration # 25     ecut=    40.00 Ry     beta=0.70
     Davidson diagonalization with overlap
     ethr =  8.07E-06,  avg # of iterations =  5.5

     negative rho (up, down):  0.243E-02 0.133E-02

     total cpu time spent up to now is    10522.8 secs

     total energy              =   -2320.90396321 Ry
     Harris-Foulkes estimate   =   -2320.92053605 Ry
     estimated scf accuracy    <       0.11721524 Ry

     total magnetization       =    22.01 Bohr mag/cell
     absolute magnetization    =    24.61 Bohr mag/cell

     iteration # 26     ecut=    40.00 Ry     beta=0.70
     Davidson diagonalization with overlap
     ethr =  8.07E-06,  avg # of iterations =  3.8

     negative rho (up, down):  0.237E-02 0.135E-02

     total cpu time spent up to now is    10896.6 secs

     total energy              =   -2320.91223321 Ry
     Harris-Foulkes estimate   =   -2320.91281425 Ry
     estimated scf accuracy    <       0.00928004 Ry

     total magnetization       =    21.99 Bohr mag/cell
     absolute magnetization    =    24.87 Bohr mag/cell

     iteration # 27     ecut=    40.00 Ry     beta=0.70
     Davidson diagonalization with overlap
     ethr =  3.90E-06,  avg # of iterations =  1.2

     negative rho (up, down):  0.232E-02 0.131E-02

     total cpu time spent up to now is    11210.6 secs

     total energy              =   -2320.91060398 Ry
     Harris-Foulkes estimate   =   -2320.91301277 Ry
     estimated scf accuracy    <       0.00583110 Ry

     total magnetization       =    21.99 Bohr mag/cell
     absolute magnetization    =    24.83 Bohr mag/cell

     iteration # 28     ecut=    40.00 Ry     beta=0.70
     Davidson diagonalization with overlap
     ethr =  2.45E-06,  avg # of iterations =  4.3

     negative rho (up, down):  0.267E-02 0.133E-02

     total cpu time spent up to now is    11633.4 secs

     total energy              =   -2320.90187461 Ry
     Harris-Foulkes estimate   =   -2320.92415774 Ry
     estimated scf accuracy    <       0.18898072 Ry

     total magnetization       =    22.01 Bohr mag/cell
     absolute magnetization    =    24.44 Bohr mag/cell

     iteration # 29     ecut=    40.00 Ry     beta=0.70
     Davidson diagonalization with overlap
     ethr =  2.45E-06,  avg # of iterations =  3.9

     negative rho (up, down):  0.234E-02 0.133E-02

     total cpu time spent up to now is    12030.2 secs

     total energy              =   -2320.91241676 Ry
     Harris-Foulkes estimate   =   -2320.91320229 Ry
     estimated scf accuracy    <       0.00563603 Ry

     total magnetization       =    21.99 Bohr mag/cell
     absolute magnetization    =    24.82 Bohr mag/cell

     iteration # 30     ecut=    40.00 Ry     beta=0.70
     Davidson diagonalization with overlap
     ethr =  2.37E-06,  avg # of iterations =  1.0

     negative rho (up, down):  0.233E-02 0.133E-02

     total cpu time spent up to now is    12340.1 secs

     total energy              =   -2320.91280264 Ry
     Harris-Foulkes estimate   =   -2320.91292765 Ry
     estimated scf accuracy    <       0.00175538 Ry

     total magnetization       =    22.00 Bohr mag/cell
     absolute magnetization    =    24.85 Bohr mag/cell

     iteration # 31     ecut=    40.00 Ry     beta=0.70
     Davidson diagonalization with overlap
     ethr =  7.38E-07,  avg # of iterations =  1.0

     negative rho (up, down):  0.234E-02 0.134E-02

     total cpu time spent up to now is    12650.1 secs

     total energy              =   -2320.91282203 Ry
     Harris-Foulkes estimate   =   -2320.91308089 Ry
     estimated scf accuracy    <       0.00239013 Ry

     total magnetization       =    22.00 Bohr mag/cell
     absolute magnetization    =    24.84 Bohr mag/cell

     iteration # 32     ecut=    40.00 Ry     beta=0.70
     Davidson diagonalization with overlap
     ethr =  7.38E-07,  avg # of iterations =  1.0

     negative rho (up, down):  0.233E-02 0.133E-02

     total cpu time spent up to now is    12959.7 secs

     total energy              =   -2320.91297003 Ry
     Harris-Foulkes estimate   =   -2320.91301810 Ry
     estimated scf accuracy    <       0.00032518 Ry

     total magnetization       =    22.00 Bohr mag/cell
     absolute magnetization    =    24.84 Bohr mag/cell

     iteration # 33     ecut=    40.00 Ry     beta=0.70
     Davidson diagonalization with overlap
     ethr =  1.37E-07,  avg # of iterations =  1.0

     negative rho (up, down):  0.232E-02 0.132E-02

     total cpu time spent up to now is    13269.3 secs

     total energy              =   -2320.91291151 Ry
     Harris-Foulkes estimate   =   -2320.91304176 Ry
     estimated scf accuracy    <       0.00059760 Ry

     total magnetization       =    22.00 Bohr mag/cell
     absolute magnetization    =    24.85 Bohr mag/cell

     iteration # 34     ecut=    40.00 Ry     beta=0.70
     Davidson diagonalization with overlap
     ethr =  1.37E-07,  avg # of iterations =  2.3

     negative rho (up, down):  0.238E-02 0.133E-02

     total cpu time spent up to now is    13616.1 secs

     total energy              =   -2320.91242439 Ry
     Harris-Foulkes estimate   =   -2320.91365390 Ry
     estimated scf accuracy    <       0.01205685 Ry

     total magnetization       =    21.98 Bohr mag/cell
     absolute magnetization    =    24.81 Bohr mag/cell

     iteration # 35     ecut=    40.00 Ry     beta=0.70
     Davidson diagonalization with overlap
     ethr =  1.37E-07,  avg # of iterations =  2.3

     negative rho (up, down):  0.232E-02 0.132E-02

     total cpu time spent up to now is    13959.5 secs

     total energy              =   -2320.91300229 Ry
     Harris-Foulkes estimate   =   -2320.91304591 Ry
     estimated scf accuracy    <       0.00014814 Ry

     total magnetization       =    22.00 Bohr mag/cell
     absolute magnetization    =    24.84 Bohr mag/cell

     iteration # 36     ecut=    40.00 Ry     beta=0.70
     Davidson diagonalization with overlap
     ethr =  6.22E-08,  avg # of iterations =  1.3

     negative rho (up, down):  0.232E-02 0.132E-02

     total cpu time spent up to now is    14274.7 secs

     total energy              =   -2320.91300350 Ry
     Harris-Foulkes estimate   =   -2320.91306331 Ry
     estimated scf accuracy    <       0.00043993 Ry

     total magnetization       =    22.00 Bohr mag/cell
     absolute magnetization    =    24.83 Bohr mag/cell

     iteration # 37     ecut=    40.00 Ry     beta=0.70
     Davidson diagonalization with overlap
     ethr =  6.22E-08,  avg # of iterations =  1.4

     negative rho (up, down):  0.232E-02 0.132E-02

     total cpu time spent up to now is    14593.1 secs

     total energy              =   -2320.91303448 Ry
     Harris-Foulkes estimate   =   -2320.91304958 Ry
     estimated scf accuracy    <       0.00015029 Ry

     total magnetization       =    22.00 Bohr mag/cell
     absolute magnetization    =    24.85 Bohr mag/cell

     iteration # 38     ecut=    40.00 Ry     beta=0.70
     Davidson diagonalization with overlap
     ethr =  6.22E-08,  avg # of iterations =  1.5

     negative rho (up, down):  0.232E-02 0.132E-02

     total cpu time spent up to now is    14913.5 secs

     total energy              =   -2320.91302741 Ry
     Harris-Foulkes estimate   =   -2320.91307707 Ry
     estimated scf accuracy    <       0.00040666 Ry

     total magnetization       =    22.00 Bohr mag/cell
     absolute magnetization    =    24.83 Bohr mag/cell

     iteration # 39     ecut=    40.00 Ry     beta=0.70
     Davidson diagonalization with overlap
     ethr =  6.22E-08,  avg # of iterations =  1.0

     negative rho (up, down):  0.232E-02 0.132E-02

     total cpu time spent up to now is    15223.2 secs

     total energy              =   -2320.91303245 Ry
     Harris-Foulkes estimate   =   -2320.91307348 Ry
     estimated scf accuracy    <       0.00021363 Ry

     total magnetization       =    22.00 Bohr mag/cell
     absolute magnetization    =    24.85 Bohr mag/cell

     iteration # 40     ecut=    40.00 Ry     beta=0.70
     Davidson diagonalization with overlap
     ethr =  6.22E-08,  avg # of iterations =  1.0

     negative rho (up, down):  0.232E-02 0.132E-02

     total cpu time spent up to now is    15529.7 secs

     total energy              =   -2320.91304516 Ry
     Harris-Foulkes estimate   =   -2320.91306719 Ry
     estimated scf accuracy    <       0.00022257 Ry

     total magnetization       =    22.00 Bohr mag/cell
     absolute magnetization    =    24.83 Bohr mag/cell

     iteration # 41     ecut=    40.00 Ry     beta=0.70
     Davidson diagonalization with overlap
     ethr =  6.22E-08,  avg # of iterations =  1.0

     negative rho (up, down):  0.232E-02 0.132E-02

     total cpu time spent up to now is    15834.9 secs

     total energy              =   -2320.91304263 Ry
     Harris-Foulkes estimate   =   -2320.91306770 Ry
     estimated scf accuracy    <       0.00016590 Ry

     total magnetization       =    22.00 Bohr mag/cell
     absolute magnetization    =    24.84 Bohr mag/cell

     iteration # 42     ecut=    40.00 Ry     beta=0.70
     Davidson diagonalization with overlap
     ethr =  6.22E-08,  avg # of iterations =  1.0

     negative rho (up, down):  0.232E-02 0.132E-02

     total cpu time spent up to now is    16140.0 secs

     total energy              =   -2320.91305428 Ry
     Harris-Foulkes estimate   =   -2320.91305754 Ry
     estimated scf accuracy    <       0.00002079 Ry

     total magnetization       =    22.00 Bohr mag/cell
     absolute magnetization    =    24.84 Bohr mag/cell

     iteration # 43     ecut=    40.00 Ry     beta=0.70
     Davidson diagonalization with overlap
     ethr =  8.74E-09,  avg # of iterations =  1.0

     negative rho (up, down):  0.231E-02 0.132E-02

     total cpu time spent up to now is    16445.3 secs

     total energy              =   -2320.91305800 Ry
     Harris-Foulkes estimate   =   -2320.91305891 Ry
     estimated scf accuracy    <       0.00003245 Ry

     total magnetization       =    22.00 Bohr mag/cell
     absolute magnetization    =    24.84 Bohr mag/cell

     iteration # 44     ecut=    40.00 Ry     beta=0.70
     Davidson diagonalization with overlap
     ethr =  8.74E-09,  avg # of iterations =  2.0

     negative rho (up, down):  0.232E-02 0.132E-02

     total cpu time spent up to now is    16773.4 secs

     total energy              =   -2320.91305313 Ry
     Harris-Foulkes estimate   =   -2320.91306599 Ry
     estimated scf accuracy    <       0.00008301 Ry

     total magnetization       =    22.00 Bohr mag/cell
     absolute magnetization    =    24.84 Bohr mag/cell

     iteration # 45     ecut=    40.00 Ry     beta=0.70
     Davidson diagonalization with overlap
     ethr =  8.74E-09,  avg # of iterations =  1.0

     negative rho (up, down):  0.231E-02 0.132E-02

     total cpu time spent up to now is    17076.3 secs

     total energy              =   -2320.91305982 Ry
     Harris-Foulkes estimate   =   -2320.91306105 Ry
     estimated scf accuracy    <       0.00002461 Ry

     total magnetization       =    22.00 Bohr mag/cell
     absolute magnetization    =    24.83 Bohr mag/cell

     iteration # 46     ecut=    40.00 Ry     beta=0.70
     Davidson diagonalization with overlap
     ethr =  8.74E-09,  avg # of iterations =  1.0

     negative rho (up, down):  0.231E-02 0.132E-02

     total cpu time spent up to now is    17381.9 secs

     total energy              =   -2320.91306037 Ry
     Harris-Foulkes estimate   =   -2320.91306272 Ry
     estimated scf accuracy    <       0.00002314 Ry

     total magnetization       =    22.00 Bohr mag/cell
     absolute magnetization    =    24.84 Bohr mag/cell

     iteration # 47     ecut=    40.00 Ry     beta=0.70
     Davidson diagonalization with overlap
     ethr =  8.74E-09,  avg # of iterations =  1.0

     negative rho (up, down):  0.231E-02 0.132E-02

     total cpu time spent up to now is    17687.5 secs

     total energy              =   -2320.91306020 Ry
     Harris-Foulkes estimate   =   -2320.91306279 Ry
     estimated scf accuracy    <       0.00002067 Ry

     total magnetization       =    22.00 Bohr mag/cell
     absolute magnetization    =    24.83 Bohr mag/cell

     iteration # 48     ecut=    40.00 Ry     beta=0.70
     Davidson diagonalization with overlap
     ethr =  8.68E-09,  avg # of iterations =  1.0

     negative rho (up, down):  0.231E-02 0.132E-02

     total cpu time spent up to now is    17993.1 secs

     total energy              =   -2320.91305804 Ry
     Harris-Foulkes estimate   =   -2320.91306578 Ry
     estimated scf accuracy    <       0.00006846 Ry

     total magnetization       =    22.00 Bohr mag/cell
     absolute magnetization    =    24.84 Bohr mag/cell

     iteration # 49     ecut=    40.00 Ry     beta=0.70
     Davidson diagonalization with overlap
     ethr =  8.68E-09,  avg # of iterations =  2.0

     negative rho (up, down):  0.231E-02 0.132E-02

     total cpu time spent up to now is    18332.7 secs

     total energy              =   -2320.91305887 Ry
     Harris-Foulkes estimate   =   -2320.91306408 Ry
     estimated scf accuracy    <       0.00001554 Ry

     total magnetization       =    22.00 Bohr mag/cell
     absolute magnetization    =    24.83 Bohr mag/cell

     iteration # 50     ecut=    40.00 Ry     beta=0.70
     Davidson diagonalization with overlap
     ethr =  6.53E-09,  avg # of iterations =  2.0

     negative rho (up, down):  0.231E-02 0.132E-02

     total cpu time spent up to now is    18674.5 secs

     total energy              =   -2320.91305049 Ry
     Harris-Foulkes estimate   =   -2320.91307352 Ry
     estimated scf accuracy    <       0.00019896 Ry

     total magnetization       =    22.00 Bohr mag/cell
     absolute magnetization    =    24.85 Bohr mag/cell

     iteration # 51     ecut=    40.00 Ry     beta=0.70
     Davidson diagonalization with overlap
     ethr =  6.53E-09,  avg # of iterations =  2.0

     negative rho (up, down):  0.231E-02 0.132E-02

     total cpu time spent up to now is    19015.0 secs

     total energy              =   -2320.91306292 Ry
     Harris-Foulkes estimate   =   -2320.91306385 Ry
     estimated scf accuracy    <       0.00000943 Ry

     total magnetization       =    22.00 Bohr mag/cell
     absolute magnetization    =    24.83 Bohr mag/cell

     iteration # 52     ecut=    40.00 Ry     beta=0.70
     Davidson diagonalization with overlap
     ethr =  3.96E-09,  avg # of iterations =  1.0

     negative rho (up, down):  0.231E-02 0.132E-02

     total cpu time spent up to now is    19329.6 secs

     total energy              =   -2320.91306284 Ry
     Harris-Foulkes estimate   =   -2320.91306407 Ry
     estimated scf accuracy    <       0.00001537 Ry

     total magnetization       =    22.00 Bohr mag/cell
     absolute magnetization    =    24.83 Bohr mag/cell

     iteration # 53     ecut=    40.00 Ry     beta=0.70
     Davidson diagonalization with overlap
     ethr =  3.96E-09,  avg # of iterations =  1.0

     negative rho (up, down):  0.231E-02 0.132E-02

     total cpu time spent up to now is    19643.1 secs

     total energy              =   -2320.91306327 Ry
     Harris-Foulkes estimate   =   -2320.91306381 Ry
     estimated scf accuracy    <       0.00000737 Ry

     total magnetization       =    22.00 Bohr mag/cell
     absolute magnetization    =    24.83 Bohr mag/cell

     iteration # 54     ecut=    40.00 Ry     beta=0.70
     Davidson diagonalization with overlap
     ethr =  3.10E-09,  avg # of iterations =  2.0

     negative rho (up, down):  0.231E-02 0.132E-02

     total cpu time spent up to now is    19979.2 secs

     total energy              =   -2320.91306275 Ry
     Harris-Foulkes estimate   =   -2320.91306449 Ry
     estimated scf accuracy    <       0.00000735 Ry

     total magnetization       =    22.00 Bohr mag/cell
     absolute magnetization    =    24.83 Bohr mag/cell

     iteration # 55     ecut=    40.00 Ry     beta=0.70
     Davidson diagonalization with overlap
     ethr =  3.09E-09,  avg # of iterations =  1.1

     negative rho (up, down):  0.232E-02 0.132E-02

     total cpu time spent up to now is    20295.8 secs

     total energy              =   -2320.91306003 Ry
     Harris-Foulkes estimate   =   -2320.91306757 Ry
     estimated scf accuracy    <       0.00007340 Ry

     total magnetization       =    22.00 Bohr mag/cell
     absolute magnetization    =    24.84 Bohr mag/cell

     iteration # 56     ecut=    40.00 Ry     beta=0.70
     Davidson diagonalization with overlap
     ethr =  3.09E-09,  avg # of iterations =  1.1

     negative rho (up, down):  0.232E-02 0.132E-02

     total cpu time spent up to now is    20610.4 secs

     total energy              =   -2320.91306362 Ry
     Harris-Foulkes estimate   =   -2320.91306394 Ry
     estimated scf accuracy    <       0.00000466 Ry

     total magnetization       =    22.00 Bohr mag/cell
     absolute magnetization    =    24.83 Bohr mag/cell

     iteration # 57     ecut=    40.00 Ry     beta=0.70
     Davidson diagonalization with overlap
     ethr =  1.96E-09,  avg # of iterations =  1.0

     negative rho (up, down):  0.231E-02 0.132E-02

     total cpu time spent up to now is    20923.6 secs

     total energy              =   -2320.91306354 Ry
     Harris-Foulkes estimate   =   -2320.91306388 Ry
     estimated scf accuracy    <       0.00000308 Ry

     total magnetization       =    22.00 Bohr mag/cell
     absolute magnetization    =    24.83 Bohr mag/cell

     iteration # 58     ecut=    40.00 Ry     beta=0.70
     Davidson diagonalization with overlap
     ethr =  1.30E-09,  avg # of iterations =  2.0

     negative rho (up, down):  0.231E-02 0.132E-02

     total cpu time spent up to now is    21261.9 secs

     total energy              =   -2320.91306253 Ry
     Harris-Foulkes estimate   =   -2320.91306552 Ry
     estimated scf accuracy    <       0.00002113 Ry

     total magnetization       =    22.00 Bohr mag/cell
     absolute magnetization    =    24.83 Bohr mag/cell

     iteration # 59     ecut=    40.00 Ry     beta=0.70
     Davidson diagonalization with overlap
     ethr =  1.30E-09,  avg # of iterations =  1.1

     negative rho (up, down):  0.231E-02 0.132E-02

     total cpu time spent up to now is    21576.6 secs

     total energy              =   -2320.91306386 Ry
     Harris-Foulkes estimate   =   -2320.91306410 Ry
     estimated scf accuracy    <       0.00000228 Ry

     total magnetization       =    22.00 Bohr mag/cell
     absolute magnetization    =    24.83 Bohr mag/cell

     iteration # 60     ecut=    40.00 Ry     beta=0.70
     Davidson diagonalization with overlap
     ethr =  9.56E-10,  avg # of iterations =  2.0

     negative rho (up, down):  0.231E-02 0.132E-02

     total cpu time spent up to now is    21905.1 secs

     total energy              =   -2320.91306358 Ry
     Harris-Foulkes estimate   =   -2320.91306468 Ry
     estimated scf accuracy    <       0.00000485 Ry

     total magnetization       =    22.00 Bohr mag/cell
     absolute magnetization    =    24.83 Bohr mag/cell

     iteration # 61     ecut=    40.00 Ry     beta=0.70
     Davidson diagonalization with overlap
     ethr =  9.56E-10,  avg # of iterations =  2.0

     negative rho (up, down):  0.231E-02 0.132E-02

     total cpu time spent up to now is    22238.5 secs

     total energy              =   -2320.91306344 Ry
     Harris-Foulkes estimate   =   -2320.91306484 Ry
     estimated scf accuracy    <       0.00000727 Ry

     total magnetization       =    22.00 Bohr mag/cell
     absolute magnetization    =    24.83 Bohr mag/cell

     iteration # 62     ecut=    40.00 Ry     beta=0.70
     Davidson diagonalization with overlap
     ethr =  9.56E-10,  avg # of iterations =  1.5

     negative rho (up, down):  0.231E-02 0.132E-02

     total cpu time spent up to now is    22563.9 secs

     total energy              =   -2320.91306366 Ry
     Harris-Foulkes estimate   =   -2320.91306468 Ry
     estimated scf accuracy    <       0.00000729 Ry

     total magnetization       =    22.00 Bohr mag/cell
     absolute magnetization    =    24.83 Bohr mag/cell

     iteration # 63     ecut=    40.00 Ry     beta=0.70
     Davidson diagonalization with overlap
     ethr =  9.56E-10,  avg # of iterations =  1.0

     negative rho (up, down):  0.231E-02 0.132E-02

     total cpu time spent up to now is    22881.4 secs

     total energy              =   -2320.91306415 Ry
     Harris-Foulkes estimate   =   -2320.91306426 Ry
     estimated scf accuracy    <       0.00000168 Ry

     total magnetization       =    22.00 Bohr mag/cell
     absolute magnetization    =    24.83 Bohr mag/cell

     iteration # 64     ecut=    40.00 Ry     beta=0.70
     Davidson diagonalization with overlap
     ethr =  7.06E-10,  avg # of iterations =  1.2

     negative rho (up, down):  0.231E-02 0.132E-02

     total cpu time spent up to now is    23210.4 secs

     total energy              =   -2320.91306408 Ry
     Harris-Foulkes estimate   =   -2320.91306442 Ry
     estimated scf accuracy    <       0.00000279 Ry

     total magnetization       =    22.00 Bohr mag/cell
     absolute magnetization    =    24.83 Bohr mag/cell

     iteration # 65     ecut=    40.00 Ry     beta=0.70
     Davidson diagonalization with overlap
     ethr =  7.06E-10,  avg # of iterations =  1.0

     negative rho (up, down):  0.232E-02 0.132E-02

     total cpu time spent up to now is    23536.5 secs

     total energy              =   -2320.91306410 Ry
     Harris-Foulkes estimate   =   -2320.91306435 Ry
     estimated scf accuracy    <       0.00000225 Ry

     total magnetization       =    22.00 Bohr mag/cell
     absolute magnetization    =    24.83 Bohr mag/cell

     iteration # 66     ecut=    40.00 Ry     beta=0.70
     Davidson diagonalization with overlap
     ethr =  7.06E-10,  avg # of iterations =  1.2

     negative rho (up, down):  0.231E-02 0.132E-02

     total cpu time spent up to now is    23870.2 secs

     total energy              =   -2320.91306388 Ry
     Harris-Foulkes estimate   =   -2320.91306452 Ry
     estimated scf accuracy    <       0.00000421 Ry

     total magnetization       =    22.00 Bohr mag/cell
     absolute magnetization    =    24.83 Bohr mag/cell

     iteration # 67     ecut=    40.00 Ry     beta=0.70
     Davidson diagonalization with overlap
     ethr =  7.06E-10,  avg # of iterations =  1.0

     negative rho (up, down):  0.231E-02 0.132E-02

     total cpu time spent up to now is    24196.4 secs

     total energy              =   -2320.91306420 Ry
     Harris-Foulkes estimate   =   -2320.91306429 Ry
     estimated scf accuracy    <       0.00000104 Ry

     total magnetization       =    22.00 Bohr mag/cell
     absolute magnetization    =    24.83 Bohr mag/cell

     iteration # 68     ecut=    40.00 Ry     beta=0.70
     Davidson diagonalization with overlap
     ethr =  4.36E-10,  avg # of iterations =  1.0

     negative rho (up, down):  0.231E-02 0.132E-02

     total cpu time spent up to now is    24523.5 secs

     total energy              =   -2320.91306412 Ry
     Harris-Foulkes estimate   =   -2320.91306439 Ry
     estimated scf accuracy    <       0.00000210 Ry

     total magnetization       =    22.00 Bohr mag/cell
     absolute magnetization    =    24.83 Bohr mag/cell

     iteration # 69     ecut=    40.00 Ry     beta=0.70
     Davidson diagonalization with overlap
     ethr =  4.36E-10,  avg # of iterations =  1.0

     negative rho (up, down):  0.231E-02 0.132E-02

     total cpu time spent up to now is    24847.6 secs

     End of self-consistent calculation

 ------ SPIN UP ------------


          k = 0.0000 0.0000 0.0000 ( 26393 PWs)   bands (ev):

   -84.5025 -84.4926 -84.1666 -84.1165 -84.0983 -84.0979 -83.8067 -83.7963
   -53.3489 -53.2342 -53.1336 -53.1156 -53.1053 -53.0952 -52.9901 -52.9363
   -52.8696 -52.8535 -52.8158 -52.7963 -52.7928 -52.7794 -52.7663 -52.7447
   -52.6098 -52.5887 -52.5503 -52.5425 -52.5345 -52.4268 -52.3930 -52.3727
   -22.4565 -21.7931 -21.6039 -21.3807 -20.8438 -20.6854 -20.6499 -20.4915
   -20.4066 -20.3943 -20.2752 -20.1353 -20.0832 -20.0690 -20.0105 -19.5850
   -19.2837 -19.1420 -18.1643 -10.3258 -10.0997  -9.7733  -9.7399  -9.4481
    -8.8747  -8.8468  -8.8440  -8.7898  -8.6192  -8.4415  -8.4319  -8.2104
    -8.1928  -8.1796  -8.0478  -7.9900  -7.7877  -7.7489  -7.7463  -7.4919
    -7.4869  -7.3894  -7.1029  -7.0820  -7.0394  -7.0087  -6.4409  -6.4063
    -6.3761  -6.1988  -6.1716  -6.1543  -6.0738  -5.8189  -5.7406  -5.6969
    -5.5164  -5.4438  -5.4398  -5.4172  -5.2517  -5.1447  -5.1281  -4.9826
    -4.9417  -4.9217  -4.9153  -4.8378  -4.7738  -4.7068  -4.5598  -4.4833
    -4.3884  -4.3750  -4.3435  -4.2582  -4.1056  -4.0940  -4.0296  -3.9025
    -3.7686  -3.6290  -3.5993  -3.3958  -3.2817  -3.2731  -3.0743  -3.0351
    -2.9389  -2.8769  -2.8369  -2.7931  -2.6823  -2.5578  -2.3282  -2.2608
    -2.2060  -2.1905  -2.0461  -1.8324  -1.3559  -1.2936  -0.8774  -0.6724
    -0.6188  -0.3938  -0.3656  -0.3474  -0.2061   0.2545   0.2759   0.3980
     0.4618   0.8494   1.1914   1.2068   2.7210   3.7070   4.1037   4.4834
     4.8510   5.5892   5.9445   6.0145   6.2008   6.7819   6.9031   7.0458
     7.2613   7.5215   7.7305   7.9219   7.9633   8.0728   8.0821   8.2551
     8.3565   8.3623   8.4800   8.6592   8.7388   8.8398   8.8871   8.9791
     9.0543   9.0820   9.0890   9.1245   9.2297   9.3835   9.5567   9.7012
     9.7368   9.9168   9.9484   9.9885  10.0931  10.2613  10.3842  10.4545
    10.5788  10.7759  10.7904  10.9218  11.0357  11.1928  11.2507  11.3252
    11.4824  11.6781  11.7158  11.9409  11.9808  12.1141  12.1282  12.2272
    12.2342  12.2632  12.2749  12.3376  12.4493  12.4688  12.5679  12.6512
    12.6606  12.7105  12.8096  12.8368  12.8770  12.8842  12.9616  13.0196
    13.1629  13.2245  13.2516  13.2784  13.3718  13.4394  13.4897  13.5917
    13.6942  13.7905  13.8493  13.8660  13.9468  14.0193  14.1095  14.1201
    14.2565  14.3187  14.4106  14.4891  14.5655  14.6062  14.7385  14.8260
    14.9365  15.0667  15.1402  15.2936  15.3179  15.3879  15.4258  15.5592
    15.6249  15.7435  15.7877  15.9296  15.9522  16.0106  16.1646  16.3911
    16.4503  16.4792  16.5723  16.6652  16.7715  16.7882  16.9099  17.1825
    17.2020  17.2938  17.3530  17.5034  17.5494  17.6528  17.6840  17.8497
    17.9836  18.0431  18.1959  18.2360  18.3658  18.3785  18.6038  18.6522
    18.7482  18.7583  18.9397  19.0288  19.1023  19.2153  19.2324  19.3392
    19.3712  19.4501  19.5037  19.5830  19.6026  19.6145  19.7566  19.8135
    19.9185  19.9266  20.0064  20.0589  20.1456  20.1943  20.3395  20.4086
    20.6088  20.6378  20.6513  20.7270  20.8199  21.0433  21.2070  21.2307
    21.2313  21.3236  21.3719  21.3974  21.4460  21.4975  21.6438  21.7677
    21.9645  21.9751  22.0769  22.2648  22.2872  22.2967  22.3140  22.4036
    22.4185  22.4615  22.4651  22.5397  22.5688  22.6376  22.8407  22.8641
    22.8895

          k = 0.0000 0.2303 0.0000 ( 26455 PWs)   bands (ev):

   -84.5025 -84.4926 -84.1666 -84.1165 -84.0983 -84.0979 -83.8067 -83.7963
   -53.3489 -53.2343 -53.1335 -53.1157 -53.1050 -53.0955 -52.9896 -52.9365
   -52.8697 -52.8533 -52.8162 -52.7964 -52.7928 -52.7794 -52.7664 -52.7444
   -52.6097 -52.5887 -52.5503 -52.5431 -52.5342 -52.4269 -52.3930 -52.3727
   -22.4004 -21.7907 -21.5540 -21.3273 -20.9002 -20.6843 -20.6497 -20.5353
   -20.4094 -20.4014 -20.3697 -20.2735 -20.1350 -20.1058 -19.8305 -19.5876
   -19.2818 -19.1243 -18.1613 -10.2902  -9.8976  -9.7834  -9.4547  -9.3993
    -8.8816  -8.8572  -8.7585  -8.7515  -8.7478  -8.4605  -8.4331  -8.2422
    -8.1182  -7.9852  -7.9480  -7.9170  -7.6906  -7.6449  -7.5545  -7.4983
    -7.3845  -7.3795  -7.1095  -7.0969  -7.0632  -6.9546  -6.8355  -6.7446
    -6.6565  -6.4829  -6.2407  -6.0722  -5.9466  -5.9158  -5.9016  -5.8103
    -5.7324  -5.5757  -5.4870  -5.4804  -5.3252  -5.2076  -5.1679  -5.1442
    -5.0142  -4.9827  -4.8491  -4.6768  -4.5804  -4.5176  -4.4273  -4.3798
    -4.3406  -4.3120  -4.2651  -4.1933  -4.0772  -3.9732  -3.9284  -3.8162
    -3.7648  -3.6801  -3.6412  -3.5880  -3.5430  -3.4778  -3.2974  -3.0982
    -3.0064  -2.9506  -2.8165  -2.7469  -2.5357  -2.5291  -2.4532  -2.3336
    -2.1003  -2.0131  -1.9507  -1.8288  -1.5749  -1.3973  -1.1186  -1.0481
    -0.7145  -0.6040  -0.3496   0.0806   0.1325   0.3229   0.3465   0.5430
     0.8824   0.9789   1.1256   1.1959   2.9965   3.9572   4.3612   4.6853
     4.9434   5.1774   5.8446   5.9924   6.2495   6.3877   6.3906   6.6965
     7.0475   7.0660   7.3418   7.4619   7.8003   7.9352   8.0463   8.2912
     8.3429   8.5664   8.5890   8.8478   8.8878   8.9518   9.0840   9.2684
     9.2938   9.3737   9.4783   9.5565   9.6428   9.6725   9.7721   9.9157
     9.9410  10.0535  10.0700  10.1913  10.2985  10.4302  10.5538  10.5795
    10.6697  10.7022  10.8199  10.8489  10.9322  10.9605  11.0695  11.1359
    11.1626  11.2704  11.3803  11.4630  11.5727  11.6485  11.7963  11.8751
    11.9579  12.0108  12.1718  12.2927  12.3549  12.4663  12.5938  12.6790
    12.7075  12.7590  12.9482  12.9625  12.9891  13.1429  13.1875  13.3579
    13.3681  13.4317  13.5577  13.5676  13.6208  13.7883  13.8149  13.8786
    13.9662  14.0727  14.1375  14.2150  14.2326  14.3369  14.3647  14.4691
    14.5579  14.6314  14.6747  14.7098  14.7886  14.8589  14.9093  15.1112
    15.1236  15.1437  15.2400  15.2912  15.3071  15.4397  15.5019  15.5709
    15.6853  15.7026  15.8803  15.9444  15.9825  16.0325  16.1727  16.2426
    16.3634  16.4178  16.4480  16.5608  16.6364  16.7574  16.7834  16.9074
    16.9620  17.1372  17.3180  17.3651  17.4308  17.5030  17.5406  17.6342
    17.6869  17.7813  17.7901  17.8934  18.0999  18.1751  18.2612  18.3230
    18.5650  18.6062  18.8344  18.8719  18.8962  18.9752  18.9920  19.0832
    19.1590  19.2234  19.2674  19.3071  19.4127  19.4524  19.5273  19.5512
    19.7993  19.9680  20.0188  20.0668  20.1495  20.2864  20.3646  20.3781
    20.4699  20.5052  20.5909  20.6368  20.6722  20.7418  20.7931  20.9654
    20.9946  21.1193  21.1978  21.2151  21.2364  21.3225  21.3864  21.4580
    21.5714  21.7340  21.7899  21.9540  21.9762  22.0527  22.1128  22.1893
    22.2153  22.2986  22.3559  22.3970  22.4492  22.5912  22.6282  22.6503
    22.6762

          k = 0.0000-0.4606 0.0000 ( 26364 PWs)   bands (ev):

   -84.5025 -84.4926 -84.1666 -84.1165 -84.0983 -84.0979 -83.8067 -83.7963
   -53.3488 -53.2342 -53.1335 -53.1156 -53.1046 -53.0957 -52.9891 -52.9364
   -52.8695 -52.8530 -52.8166 -52.7963 -52.7927 -52.7794 -52.7663 -52.7442
   -52.6097 -52.5887 -52.5501 -52.5436 -52.5339 -52.4268 -52.3929 -52.3726
   -22.3369 -21.7882 -21.5214 -21.2337 -20.8408 -20.8227 -20.6832 -20.6426
   -20.5036 -20.4171 -20.3283 -20.2764 -20.1548 -20.1347 -19.7684 -19.5901
   -19.2798 -19.1082 -18.1587 -10.2625  -9.9951  -9.3617  -9.3476  -9.0660
    -9.0368  -8.8925  -8.7429  -8.6253  -8.6192  -8.4194  -8.2584  -8.2213
    -8.0770  -8.0433  -7.9663  -7.6874  -7.6445  -7.6285  -7.5845  -7.5399
    -7.4663  -7.3667  -7.3167  -7.1996  -7.0687  -6.9612  -6.9214  -6.7854
    -6.7320  -6.5858  -6.2992  -6.2503  -6.2001  -6.1656  -5.9945  -5.7944
    -5.7732  -5.7439  -5.6452  -5.4926  -5.2606  -5.2502  -5.2055  -5.0117
    -4.9740  -4.8991  -4.6839  -4.6396  -4.6055  -4.4730  -4.4530  -4.3773
    -4.3404  -4.3226  -4.0980  -4.0597  -4.0587  -4.0530  -4.0032  -3.9369
    -3.8366  -3.7758  -3.6437  -3.5708  -3.5059  -3.4285  -3.2948  -3.1278
    -2.9870  -2.9049  -2.8292  -2.8196  -2.8154  -2.6247  -2.4668  -2.1824
    -2.0693  -2.0076  -1.8522  -1.8430  -1.8037  -1.5802  -1.5192  -0.8921
    -0.5771  -0.3510  -0.2221  -0.1403  -0.0266   0.1740   0.7852   0.8135
     0.9180   0.9813   1.1999   1.3799   3.5276   4.0046   4.6641   4.7981
     5.0346   5.1831   5.3795   5.6045   5.8662   6.1714   6.5452   6.6034
     6.8239   7.0121   7.2793   7.3814   7.4738   7.5313   7.9947   8.0868
     8.5086   8.7679   8.9444   9.0166   9.1381   9.1579   9.2159   9.2390
     9.2888   9.4647   9.5084   9.6159   9.6816   9.6934   9.8015   9.8338
     9.9524   9.9862  10.0258  10.0431  10.2403  10.3593  10.5077  10.5469
    10.6313  10.6675  10.7237  10.8703  10.9981  11.1096  11.1724  11.2704
    11.3631  11.4894  11.6565  11.8008  11.8169  11.8435  11.9770  12.1404
    12.2243  12.2925  12.4725  12.4927  12.5287  12.5944  12.6250  12.7463
    12.7757  12.8523  12.9063  13.0242  13.0586  13.2055  13.2468  13.3292
    13.3353  13.3466  13.4591  13.4928  13.5867  13.6116  13.7351  13.7948
    13.8895  13.9055  14.0345  14.1167  14.1734  14.2411  14.2455  14.3324
    14.3431  14.3636  14.4753  14.5231  14.7413  14.7682  14.9089  15.0649
    15.1332  15.2145  15.2473  15.3877  15.4824  15.6734  15.7460  15.8134
    15.9078  15.9703  16.1227  16.2109  16.2665  16.3056  16.4936  16.5391
    16.5613  16.7606  16.8645  16.9081  17.0086  17.0442  17.0508  17.2091
    17.2546  17.3311  17.4402  17.5408  17.5455  17.5865  17.7511  17.7568
    17.8203  17.8821  17.9257  17.9793  18.0161  18.0584  18.1342  18.1595
    18.2080  18.3226  18.3644  18.4428  18.5771  18.6238  18.6448  18.6939
    18.7124  18.7564  18.8369  18.8557  18.9355  19.1521  19.1724  19.2057
    19.3233  19.4019  19.5388  19.5857  19.6401  19.9711  20.0190  20.0462
    20.0941  20.1539  20.1973  20.2719  20.3195  20.4086  20.4608  20.5488
    20.6299  20.7442  20.7821  20.8517  20.9301  21.0412  21.1301  21.2085
    21.2202  21.2769  21.4915  21.5480  21.6367  21.6680  21.6820  21.7702
    21.9377  21.9848  22.2544  22.2602  22.4937  22.5144  22.5373  22.6632
    22.7267

          k = 0.2500 0.0000 0.0000 ( 26392 PWs)   bands (ev):

   -84.5010 -84.4941 -84.1665 -84.1158 -84.0986 -84.0984 -83.8052 -83.7979
   -53.3321 -53.2512 -53.1308 -53.1182 -53.1038 -53.0967 -52.9725 -52.9229
   -52.8868 -52.8530 -52.8144 -52.8100 -52.7947 -52.7784 -52.7672 -52.7451
   -52.6092 -52.5891 -52.5413 -52.5357 -52.5323 -52.4450 -52.3900 -52.3758
   -22.3483 -21.8697 -21.5093 -21.2724 -20.9561 -20.7913 -20.6487 -20.5172
   -20.4349 -20.3797 -20.2904 -20.1777 -20.0595 -20.0183 -20.0018 -19.6345
   -19.2784 -19.1696 -18.1568 -10.1733  -9.9619  -9.8127  -9.5859  -9.2803
    -8.9353  -8.8229  -8.8023  -8.7610  -8.5988  -8.5298  -8.4395  -8.3761
    -8.2604  -8.1413  -8.0728  -8.0096  -7.8455  -7.6323  -7.6195  -7.5131
    -7.3557  -7.3246  -7.0958  -7.0132  -6.8018  -6.7608  -6.6330  -6.6172
    -6.3789  -6.2138  -6.1824  -6.1522  -6.0808  -6.0077  -5.8281  -5.7558
    -5.7144  -5.6234  -5.5313  -5.4115  -5.4050  -5.3505  -5.3170  -5.2926
    -5.0745  -4.9729  -4.9281  -4.8735  -4.8138  -4.6431  -4.5727  -4.4846
    -4.4434  -4.3023  -4.1988  -4.1347  -4.0455  -4.0251  -3.9410  -3.8721
    -3.7066  -3.5384  -3.5171  -3.3900  -3.1435  -3.1231  -3.0969  -2.9820
    -2.9640  -2.8276  -2.7102  -2.7004  -2.6592  -2.4715  -2.4347  -2.3627
    -2.2485  -2.1324  -2.0866  -1.9884  -1.3250  -1.2188  -0.8987  -0.6948
    -0.6247  -0.4507  -0.3958  -0.3275  -0.1191   0.1067   0.1907   0.2396
     0.3985   0.7996   0.8299   1.2242   3.0478   4.0083   4.4137   4.7795
     5.1097   5.1737   5.8557   6.2328   6.2577   6.3693   6.6729   6.9002
     7.0949   7.2106   7.4588   7.5686   7.8390   7.9792   8.0292   8.2489
     8.3162   8.3409   8.3711   8.5650   8.6319   8.8032   8.8577   9.1601
     9.2597   9.2942   9.3562   9.4086   9.5238   9.6274   9.6751   9.7765
     9.9709  10.1471  10.1862  10.2556  10.3130  10.4134  10.5188  10.6135
    10.6485  10.7340  10.7876  10.8292  10.9445  11.0879  11.1762  11.2355
    11.2853  11.3388  11.4146  11.4584  11.4739  11.5928  11.7391  11.8054
    12.0595  12.1678  12.2205  12.2652  12.3530  12.4167  12.4549  12.5980
    12.6096  12.6865  12.7131  12.8601  13.0420  13.0665  13.1647  13.2397
    13.3754  13.4362  13.4848  13.5365  13.6173  13.7171  13.8664  13.9758
    14.0587  14.1368  14.1789  14.1936  14.2966  14.3658  14.3828  14.5425
    14.6051  14.7410  14.7958  14.8698  15.0058  15.0613  15.0846  15.2397
    15.2667  15.3443  15.5062  15.5413  15.6117  15.7599  15.7672  15.7981
    15.8822  15.9378  15.9626  16.0463  16.1547  16.2113  16.2963  16.3521
    16.5092  16.6038  16.6424  16.6967  16.8593  16.9325  17.0183  17.1283
    17.1739  17.2943  17.3557  17.4273  17.5549  17.7216  17.8159  17.8453
    17.9555  18.0480  18.0591  18.1115  18.1885  18.2779  18.3735  18.4934
    18.5154  18.6376  18.7855  18.8498  18.9432  19.0295  19.1377  19.1656
    19.2755  19.3706  19.4430  19.5263  19.6576  19.6791  19.7325  19.8256
    19.8501  19.9391  20.0032  20.0170  20.1203  20.1683  20.2176  20.3239
    20.3733  20.3941  20.5482  20.5668  20.7145  20.7684  20.8099  20.8425
    20.8836  20.9337  21.0696  21.1552  21.1930  21.2301  21.3086  21.4302
    21.4580  21.5672  21.6907  21.7684  21.8293  21.8925  21.9714  21.9854
    22.0470  22.0742  22.1090  22.1169  22.1884  22.2245  22.2768  22.3757
    22.4027

          k = 0.2500 0.2303 0.0000 ( 26396 PWs)   bands (ev):

   -84.5010 -84.4941 -84.1665 -84.1158 -84.0986 -84.0984 -83.8052 -83.7979
   -53.3321 -53.2512 -53.1309 -53.1182 -53.1036 -53.0968 -52.9722 -52.9230
   -52.8868 -52.8528 -52.8147 -52.8100 -52.7947 -52.7785 -52.7673 -52.7448
   -52.6092 -52.5892 -52.5417 -52.5355 -52.5322 -52.4450 -52.3900 -52.3758
   -22.3016 -21.8643 -21.4564 -21.2111 -20.9168 -20.8481 -20.6288 -20.5061
   -20.4631 -20.4295 -20.3484 -20.2907 -20.1623 -20.1388 -19.8135 -19.6290
   -19.2764 -19.1543 -18.1507 -10.1561  -9.8361  -9.6203  -9.2911  -9.1986
    -8.8984  -8.7795  -8.7649  -8.6369  -8.5675  -8.5422  -8.4601  -8.3586
    -8.2607  -8.0879  -7.9954  -7.9028  -7.7467  -7.6605  -7.5719  -7.4864
    -7.3486  -7.3209  -7.2540  -6.9816  -6.9114  -6.7653  -6.6842  -6.5936
    -6.5521  -6.4450  -6.4179  -6.3742  -6.3131  -6.2052  -6.0408  -5.9800
    -5.7895  -5.6579  -5.6149  -5.5478  -5.4754  -5.4031  -5.1916  -5.1503
    -5.0405  -5.0232  -4.9181  -4.8337  -4.8009  -4.6714  -4.5645  -4.4576
    -4.3278  -4.2012  -4.0331  -3.9996  -3.9325  -3.8826  -3.7833  -3.7355
    -3.6891  -3.6341  -3.5909  -3.4382  -3.3041  -3.2411  -3.1180  -3.0916
    -2.9444  -2.9099  -2.7570  -2.7098  -2.5813  -2.5277  -2.4552  -2.4037
    -2.1842  -2.1270  -1.9943  -1.8846  -1.4662  -1.4020  -1.0422  -0.9663
    -0.7168  -0.6128  -0.5249  -0.1687  -0.0477   0.3047   0.3358   0.4617
     0.7599   0.8263   0.9805   1.1877   3.3079   4.2536   4.6576   4.9613
     5.2275   5.2969   5.5126   6.1078   6.2889   6.4302   6.5583   6.6894
     6.8338   6.9610   7.1164   7.2884   7.4952   7.6386   7.7520   7.9101
     8.2488   8.3364   8.4103   8.5191   8.5484   8.6277   8.8401   8.8880
     9.0495   9.2149   9.3303   9.3876   9.4681   9.7440   9.8464   9.9481
     9.9913  10.2544  10.3048  10.3807  10.4452  10.5198  10.6513  10.7166
    10.8197  10.8813  11.0553  11.0950  11.2406  11.2687  11.3447  11.4927
    11.5609  11.6391  11.7163  11.8106  11.9068  11.9591  12.0831  12.2910
    12.3523  12.3996  12.4238  12.4416  12.5705  12.6608  12.7478  12.8207
    12.8735  12.9259  13.0189  13.0460  13.1354  13.1810  13.2581  13.3484
    13.4642  13.4899  13.5450  13.6217  13.6582  13.6929  13.7585  13.8636
    13.9378  14.0116  14.0555  14.0882  14.2176  14.2735  14.3375  14.4177
    14.5087  14.5850  14.7055  14.8548  14.8907  15.0025  15.0229  15.1408
    15.2012  15.2889  15.3754  15.5048  15.5345  15.6101  15.6709  15.7758
    15.8750  15.9677  16.0602  16.1625  16.2209  16.3431  16.3842  16.4657
    16.5405  16.5927  16.6488  16.7165  16.8186  16.8355  16.9555  17.0671
    17.1581  17.1801  17.3439  17.3943  17.4886  17.5459  17.5932  17.6526
    17.7166  17.7898  17.8744  17.9421  18.0861  18.1324  18.1984  18.2409
    18.2911  18.4308  18.4741  18.5924  18.6507  18.6674  18.7218  18.8409
    18.9577  18.9765  19.0059  19.0970  19.1484  19.2413  19.3154  19.3464
    19.4637  19.5020  19.5678  19.6135  19.7043  19.8043  19.8596  19.9666
    20.0718  20.1058  20.1657  20.2166  20.2734  20.3700  20.4204  20.5830
    20.7002  20.7647  20.8354  20.8589  20.9294  21.0051  21.0292  21.1076
    21.1523  21.2639  21.3504  21.3917  21.4754  21.6216  21.6830  21.7341
    21.8316  21.8796  21.9293  22.0531  22.1464  22.1768  22.3370  22.4206
    22.4792

          k = 0.2500-0.4606 0.0000 ( 26462 PWs)   bands (ev):

   -84.5010 -84.4941 -84.1665 -84.1158 -84.0986 -84.0984 -83.8052 -83.7979
   -53.3322 -53.2512 -53.1309 -53.1183 -53.1032 -53.0971 -52.9719 -52.9231
   -52.8868 -52.8527 -52.8151 -52.8101 -52.7948 -52.7784 -52.7673 -52.7446
   -52.6092 -52.5892 -52.5421 -52.5354 -52.5322 -52.4450 -52.3900 -52.3759
   -22.2510 -21.8586 -21.3923 -21.1606 -20.8495 -20.7563 -20.7482 -20.6497
   -20.5191 -20.4386 -20.3791 -20.3015 -20.2717 -20.1475 -19.7567 -19.6245
   -19.2745 -19.1405 -18.1450 -10.1315  -9.8661  -9.1633  -9.1360  -8.8734
    -8.8035  -8.7749  -8.6789  -8.6728  -8.5580  -8.4081  -8.3585  -8.2939
    -8.2732  -8.0315  -7.9518  -7.9490  -7.6647  -7.6107  -7.5285  -7.4149
    -7.4099  -7.3326  -7.2903  -7.2109  -7.0857  -6.9840  -6.9109  -6.7856
    -6.6972  -6.6198  -6.5724  -6.4346  -6.4151  -6.1667  -6.1299  -6.0846
    -6.0591  -5.9679  -5.7379  -5.6834  -5.4741  -5.1955  -5.1348  -5.0629
    -5.0065  -4.9315  -4.9143  -4.7195  -4.6946  -4.6307  -4.5336  -4.5103
    -4.3442  -4.2255  -4.0111  -3.9732  -3.9130  -3.8552  -3.7390  -3.7317
    -3.6545  -3.5405  -3.4799  -3.3836  -3.3006  -3.2141  -3.1526  -3.0286
    -2.9700  -2.9480  -2.8729  -2.8062  -2.7957  -2.4659  -2.4227  -2.3135
    -2.1657  -2.0558  -1.9515  -1.8635  -1.7558  -1.6405  -1.3605  -0.9626
    -0.5935  -0.5036  -0.4833  -0.3617  -0.1474   0.2103   0.7260   0.7767
     0.7795   0.9273   1.0343   1.3105   3.8040   4.3037   4.9546   5.0968
     5.2943   5.4760   5.6025   5.6523   5.9030   6.1472   6.4032   6.4792
     6.8165   7.1462   7.1544   7.3307   7.3704   7.6041   7.6196   7.7040
     7.8255   8.0329   8.1887   8.2562   8.4286   8.4870   8.6830   8.7475
     8.9274   8.9966   9.2539   9.2645   9.4716   9.5516   9.5704   9.6670
    10.1026  10.1528  10.4314  10.5243  10.5923  10.7279  11.0002  11.1634
    11.2730  11.3239  11.3973  11.5233  11.6227  11.7131  11.8245  11.9224
    12.0277  12.0651  12.1453  12.2378  12.2439  12.2935  12.3403  12.4013
    12.4649  12.5465  12.6110  12.7458  12.7529  12.8151  12.9316  12.9779
    13.0506  13.0654  13.1006  13.1973  13.2594  13.2988  13.3593  13.4307
    13.4433  13.5328  13.5674  13.7347  13.7698  13.8201  13.8697  13.9621
    14.0416  14.1225  14.1471  14.2044  14.2676  14.3122  14.3984  14.5151
    14.5540  14.6086  14.6378  14.7447  14.8054  14.8899  14.9928  15.0579
    15.0767  15.1191  15.1630  15.1972  15.3214  15.4765  15.4972  15.5607
    15.6306  15.7513  15.7848  15.8640  15.8842  15.9939  16.0392  16.1119
    16.3285  16.3576  16.4192  16.4942  16.5558  16.5893  16.7601  16.8001
    16.8558  16.9737  17.0235  17.1398  17.2283  17.3214  17.4118  17.4512
    17.4969  17.6182  17.7118  17.8633  17.8752  17.9229  18.0088  18.1969
    18.3231  18.3406  18.4254  18.4839  18.5087  18.5419  18.7296  18.8027
    18.8347  18.9933  19.1003  19.1124  19.1540  19.1924  19.2483  19.3136
    19.3560  19.5630  19.6118  19.6987  19.7215  19.8132  19.8335  19.8718
    19.9625  20.0365  20.0595  20.1010  20.1287  20.1786  20.1963  20.3169
    20.4246  20.5489  20.6039  20.6737  20.7325  20.8020  20.9336  20.9783
    21.0361  21.1001  21.1654  21.1970  21.2245  21.2752  21.3270  21.4414
    21.4584  21.5464  21.6052  21.6879  22.0004  22.1068  22.1272  22.1820
    22.3707

          k =-0.5000 0.0000 0.0000 ( 26466 PWs)   bands (ev):

   -84.4976 -84.4975 -84.1663 -84.1150 -84.0995 -84.0986 -83.8016 -83.8015
   -53.2919 -53.2916 -53.1246 -53.1244 -53.1004 -53.1003 -52.9353 -52.9240
   -52.9052 -52.8527 -52.8280 -52.8126 -52.7970 -52.7773 -52.7683 -52.7455
   -52.6086 -52.5897 -52.5387 -52.5384 -52.4892 -52.4883 -52.3834 -52.3825
   -22.0958 -22.0914 -21.2779 -21.2677 -21.0038 -20.9442 -20.6905 -20.6340
   -20.3436 -20.3427 -20.2921 -20.2901 -20.0408 -20.0346 -19.8297 -19.7810
   -19.2413 -19.2251 -18.1490  -9.9212  -9.9200  -9.5755  -9.5746  -9.2232
    -9.1603  -8.8644  -8.8391  -8.6426  -8.6355  -8.4933  -8.4840  -8.4262
    -8.3693  -7.9505  -7.9323  -7.8668  -7.8601  -7.6562  -7.5829  -7.2986
    -7.2782  -7.0997  -7.0558  -6.9453  -6.9383  -6.7365  -6.7294  -6.6094
    -6.5780  -6.3766  -6.3673  -6.1282  -6.1036  -6.0186  -6.0021  -5.8718
    -5.8493  -5.7975  -5.7873  -5.5567  -5.5393  -5.4633  -5.4359  -5.3172
    -5.2762  -5.0820  -4.9787  -4.9661  -4.7734  -4.6379  -4.3392  -4.2415
    -4.2370  -4.1450  -4.0922  -4.0796  -4.0681  -4.0170  -3.9787  -3.7808
    -3.6801  -3.6615  -3.4806  -3.3399  -3.2207  -3.0346  -3.0023  -2.9555
    -2.8530  -2.7592  -2.6635  -2.6537  -2.5134  -2.4674  -2.3955  -2.3503
    -2.3162  -2.2874  -2.2352  -1.9964  -1.3583  -1.1416  -0.8993  -0.8707
    -0.6641  -0.2643  -0.2342  -0.2097  -0.1241  -0.0971  -0.0707  -0.0186
     0.2578   0.6892   0.8366   1.1092   3.8935   3.8959   4.8734   4.8737
     5.1840   5.3380   5.4912   5.7478   5.9737   6.2104   6.5494   6.8069
     7.0447   7.2587   7.2829   7.3711   7.8348   7.9675   8.0044   8.2310
     8.2660   8.7014   8.7212   8.8652   8.9003   8.9048   9.0007   9.1201
     9.2201   9.3487   9.4068   9.4356   9.5106   9.6334   9.6829   9.6912
     9.7284  10.0127  10.0991  10.1276  10.1965  10.3334  10.3564  10.3670
    10.3880  10.4392  10.5489  10.6635  10.7082  10.8512  11.1068  11.1442
    11.1732  11.1927  11.2527  11.8184  11.8720  11.9508  11.9636  12.0573
    12.0977  12.1414  12.2452  12.3671  12.4050  12.6663  12.7317  12.7475
    12.8309  12.9499  13.0380  13.1032  13.2982  13.3914  13.4819  13.5380
    13.5616  13.6198  13.6554  13.6701  13.9191  13.9905  14.0192  14.0597
    14.1291  14.1857  14.2767  14.3196  14.4904  14.5124  14.5516  14.5710
    14.6070  14.8574  14.9500  14.9579  15.0322  15.0585  15.1878  15.3286
    15.3655  15.4119  15.5703  15.6431  15.7132  15.7838  15.9211  15.9534
    16.0169  16.1605  16.2336  16.3179  16.3326  16.5805  16.6261  16.6409
    16.7298  16.8161  16.8539  16.9650  17.0003  17.1337  17.3426  17.3799
    17.5200  17.6180  17.6631  17.7851  17.7926  17.8827  17.9417  17.9467
    18.1337  18.2653  18.3723  18.3875  18.4100  18.4625  18.5883  18.6303
    18.6582  18.6953  18.7191  18.7409  18.7687  18.8662  18.8856  18.9659
    19.0248  19.0606  19.1333  19.1886  19.2267  19.2636  19.3371  19.3926
    19.5958  19.6858  19.7525  19.7907  19.8396  19.9380  19.9940  20.1957
    20.2451  20.2968  20.3745  20.4094  20.4737  20.5321  20.5836  20.6396
    20.6727  20.6948  20.7413  20.8422  20.8847  20.9296  20.9876  20.9973
    21.0568  21.0707  21.0931  21.1504  21.1551  21.2193  21.2954  21.3667
    21.4054  21.4315  21.4445  21.6483  21.6762  21.7414  21.7555  21.8178
    21.8343

          k =-0.5000 0.2303 0.0000 ( 26450 PWs)   bands (ev):

   -84.4976 -84.4975 -84.1663 -84.1150 -84.0994 -84.0986 -83.8016 -83.8015
   -53.2920 -53.2917 -53.1246 -53.1245 -53.1003 -53.1001 -52.9351 -52.9239
   -52.9052 -52.8525 -52.8281 -52.8127 -52.7971 -52.7774 -52.7683 -52.7452
   -52.6087 -52.5897 -52.5387 -52.5386 -52.4891 -52.4883 -52.3835 -52.3825
   -22.0732 -22.0683 -21.2100 -21.2052 -20.9387 -20.8964 -20.7293 -20.7075
   -20.3786 -20.3630 -20.2951 -20.2847 -20.2287 -20.2100 -19.7588 -19.7209
   -19.2321 -19.2167 -18.1402  -9.9031  -9.8963  -9.2741  -9.2613  -8.9244
    -8.8902  -8.8422  -8.8010  -8.6639  -8.6318  -8.4595  -8.4353  -8.3331
    -8.3092  -7.9995  -7.9828  -7.8246  -7.7333  -7.6363  -7.5798  -7.4178
    -7.3959  -7.1892  -7.1731  -7.0531  -7.0057  -6.8374  -6.8171  -6.6996
    -6.6477  -6.5197  -6.4538  -6.3414  -6.3137  -6.2540  -6.2355  -6.0328
    -6.0135  -5.8813  -5.8463  -5.7550  -5.7096  -5.4999  -5.4287  -5.1305
    -5.1056  -5.0402  -4.9703  -4.8506  -4.7234  -4.5678  -4.4174  -4.3918
    -4.2682  -4.1931  -4.0920  -3.8930  -3.8216  -3.7817  -3.7339  -3.6557
    -3.5469  -3.4998  -3.4149  -3.3686  -3.2641  -3.2169  -3.1219  -3.0561
    -2.8739  -2.6897  -2.6457  -2.6289  -2.5200  -2.4942  -2.4772  -2.4289
    -2.3738  -2.3336  -2.1648  -1.8436  -1.4974  -1.1637  -0.9807  -0.9698
    -0.8199  -0.6680  -0.5613  -0.3463  -0.2879   0.1668   0.2512   0.5146
     0.5701   0.6698   0.9617   1.1658   4.1172   4.1261   5.1032   5.1037
     5.3825   5.5467   5.6472   5.8606   5.9889   6.1776   6.3597   6.5965
     6.8597   7.0711   7.1364   7.3523   7.3674   7.5063   7.5159   7.6236
     7.7614   7.9372   8.0583   8.3185   8.3989   8.5769   8.5984   9.0236
     9.0828   9.1316   9.1575   9.3927   9.4549   9.6112   9.7176  10.1504
    10.2048  10.2667  10.3110  10.4893  10.5411  10.7046  10.7635  10.9225
    11.0295  11.0869  11.1512  11.2456  11.2821  11.3966  11.4115  11.5725
    11.5791  11.6897  11.7404  12.0507  12.0700  12.1210  12.1906  12.2769
    12.3005  12.4739  12.5329  12.5716  12.6749  12.7521  12.8005  12.8896
    12.9718  13.0729  13.2093  13.3468  13.4144  13.4626  13.5320  13.6351
    13.6779  13.7485  13.7786  13.8622  14.1029  14.1193  14.1696  14.2280
    14.3417  14.3641  14.4039  14.5284  14.5544  14.6152  14.6510  14.7174
    14.7564  14.8859  14.9332  15.0464  15.1076  15.1371  15.1914  15.2154
    15.2547  15.3383  15.5179  15.6462  15.7107  15.7379  15.8387  15.9335
    15.9991  16.0434  16.0782  16.1163  16.2516  16.3552  16.4426  16.5454
    16.5651  16.6215  16.6542  16.6784  16.7776  16.8306  16.8439  16.8803
    17.0082  17.0917  17.1013  17.1944  17.2542  17.3389  17.3588  17.4092
    17.4943  17.5484  17.6438  17.6655  17.6868  17.7096  17.7260  17.8380
    17.9084  17.9404  18.0202  18.1157  18.1763  18.1846  18.5017  18.5220
    18.5455  18.7016  18.7941  18.8665  18.9968  19.0478  19.2116  19.3001
    19.3305  19.4093  19.4425  19.4768  19.5607  19.6327  19.7790  19.8421
    19.9087  19.9582  20.0241  20.0617  20.1105  20.1543  20.1994  20.2925
    20.3978  20.4089  20.5394  20.6279  20.6767  20.7750  20.8388  21.0918
    21.1651  21.2907  21.3190  21.3771  21.4260  21.5059  21.5301  21.5857
    21.6215  21.7439  21.7696  21.8378  21.8634  22.0335  22.0556  22.1073
    22.1866

          k =-0.5000-0.4606 0.0000 ( 26416 PWs)   bands (ev):

   -84.4976 -84.4975 -84.1663 -84.1150 -84.0994 -84.0986 -83.8016 -83.8015
   -53.2919 -53.2916 -53.1246 -53.1245 -53.1001 -53.1000 -52.9350 -52.9237
   -52.9053 -52.8522 -52.8282 -52.8129 -52.7973 -52.7773 -52.7683 -52.7449
   -52.6086 -52.5897 -52.5387 -52.5387 -52.4890 -52.4882 -52.3835 -52.3825
   -22.0501 -22.0449 -21.0561 -21.0539 -21.0129 -21.0011 -20.6174 -20.5518
   -20.5487 -20.5362 -20.3811 -20.3539 -20.2802 -20.2735 -19.7239 -19.6881
   -19.2239 -19.2092 -18.1321  -9.8771  -9.8757  -8.9336  -8.9178  -8.7175
    -8.7126  -8.6028  -8.5915  -8.4467  -8.4214  -8.4131  -8.3783  -8.2375
    -8.2328  -8.0327  -8.0241  -7.9285  -7.9133  -7.7922  -7.7640  -7.4040
    -7.3663  -7.3288  -7.3087  -7.1049  -7.0697  -7.0129  -6.9508  -6.8909
    -6.7533  -6.7186  -6.6838  -6.6365  -6.6138  -6.5251  -6.3883  -6.2237
    -6.2182  -5.9012  -5.8893  -5.6250  -5.5665  -5.3439  -5.2940  -5.1799
    -5.0700  -4.9371  -4.9079  -4.8874  -4.7307  -4.6599  -4.5334  -4.4248
    -4.2266  -4.1975  -4.0645  -3.8053  -3.6916  -3.6794  -3.5718  -3.5706
    -3.3855  -3.3791  -3.3280  -3.3221  -3.2730  -3.2113  -3.0699  -3.0384
    -2.9902  -2.6375  -2.6242  -2.6183  -2.5868  -2.4958  -2.4885  -2.4859
    -2.4188  -2.3045  -2.1138  -1.7507  -1.6682  -1.3512  -1.2976  -1.0783
    -1.0642  -0.8312  -0.7383  -0.2545  -0.2460   0.4143   0.5427   0.5442
     0.6014   0.9144   1.1484   1.1514   4.5340   4.5377   5.1383   5.1395
     5.7230   5.7992   5.8017   5.9676   5.9702   6.2882   6.3061   6.4154
     6.4442   6.6906   6.7231   6.8765   6.9408   7.1967   7.3047   7.4778
     7.6221   7.9064   7.9414   8.0109   8.1684   8.3227   8.4383   8.4957
     8.5706   8.9343   9.0835   9.3201   9.3414   9.8262   9.8487   9.9126
    10.0334  10.1536  10.3516  10.4883  10.5241  10.8925  10.9367  11.2825
    11.3567  11.4614  11.5324  11.7174  11.8417  11.8438  11.9758  12.1873
    12.2506  12.2788  12.3917  12.4091  12.5105  12.5543  12.7173  12.8322
    12.8727  12.9682  12.9897  13.0766  13.1726  13.3010  13.4082  13.4428
    13.4644  13.5343  13.5449  13.5838  13.6150  13.7501  13.7554  13.8131
    13.8351  13.9379  13.9394  14.0833  14.1546  14.2520  14.3141  14.3590
    14.4256  14.4599  14.4859  14.5194  14.6355  14.6926  14.7118  14.7836
    14.9020  14.9159  14.9617  14.9810  15.0133  15.1071  15.1513  15.2608
    15.2811  15.3340  15.3423  15.3497  15.4146  15.4571  15.5313  15.5595
    15.5752  15.6257  15.6652  15.7675  15.7831  15.8010  15.8140  15.8732
    15.8944  15.9845  15.9971  16.1284  16.1724  16.2836  16.3022  16.4091
    16.4550  16.5346  16.5893  16.6187  16.7240  16.7911  16.8452  16.9123
    16.9565  17.0420  17.1326  17.1414  17.2443  17.2825  17.3653  17.3881
    17.5563  17.6970  17.8284  17.9079  18.0229  18.0773  18.1486  18.1706
    18.1940  18.2293  18.2999  18.3402  18.3605  18.3695  18.4232  18.6786
    18.8525  18.9646  19.2524  19.2653  19.3320  19.3832  19.5041  19.6303
    19.9481  19.9839  20.0927  20.1178  20.3369  20.3445  20.5061  20.5290
    20.5554  20.6218  20.6278  20.6469  20.6800  20.8937  21.0827  21.3556
    21.4005  21.5939  21.7164  21.7604  21.8296  21.8363  21.8968  21.9989
    22.0304  22.2226  22.2618  22.3144  22.3795  22.4897  22.5541  22.5959
    22.6325

          k =-0.2500 0.2303 0.0000 ( 26396 PWs)   bands (ev):

   -84.5010 -84.4941 -84.1665 -84.1158 -84.0986 -84.0984 -83.8052 -83.7979
   -53.3321 -53.2512 -53.1309 -53.1182 -53.1036 -53.0968 -52.9722 -52.9230
   -52.8867 -52.8528 -52.8148 -52.8100 -52.7947 -52.7785 -52.7673 -52.7448
   -52.6092 -52.5892 -52.5417 -52.5354 -52.5322 -52.4450 -52.3900 -52.3758
   -22.3019 -21.8640 -21.4558 -21.2110 -20.9166 -20.8480 -20.6278 -20.5085
   -20.4631 -20.4321 -20.3483 -20.2912 -20.1589 -20.1388 -19.8135 -19.6290
   -19.2764 -19.1543 -18.1507 -10.1526  -9.8473  -9.6252  -9.2909  -9.1687
    -8.9031  -8.7891  -8.7744  -8.6356  -8.5695  -8.5380  -8.4693  -8.3439
    -8.2643  -8.1047  -7.9942  -7.9234  -7.7487  -7.6109  -7.5461  -7.4598
    -7.3695  -7.3421  -7.2030  -7.0095  -6.9294  -6.7571  -6.7335  -6.6570
    -6.5404  -6.4453  -6.4027  -6.3442  -6.2880  -6.2269  -6.0018  -5.9711
    -5.8029  -5.6552  -5.6042  -5.5606  -5.4988  -5.4399  -5.1961  -5.1255
    -5.0250  -5.0104  -4.9314  -4.8750  -4.7984  -4.6459  -4.5481  -4.4538
    -4.3276  -4.2054  -4.0358  -3.9964  -3.9255  -3.8763  -3.7869  -3.7083
    -3.6656  -3.6297  -3.5952  -3.4505  -3.3181  -3.2987  -3.1041  -3.0734
    -2.9500  -2.9117  -2.7648  -2.6989  -2.5825  -2.5234  -2.4491  -2.4097
    -2.1844  -2.1276  -1.9942  -1.8851  -1.4685  -1.4051  -1.0419  -0.9665
    -0.7180  -0.6124  -0.5253  -0.1686  -0.0420   0.3029   0.3351   0.4608
     0.7614   0.8266   0.9807   1.1875   3.3045   4.2533   4.6590   4.9697
     5.2424   5.3133   5.5032   6.1106   6.2891   6.4080   6.5542   6.6930
     6.7989   6.9588   7.1090   7.2909   7.5036   7.6526   7.7390   7.9229
     8.2476   8.3420   8.4072   8.5168   8.5511   8.6153   8.8351   8.9101
     9.0604   9.2150   9.3081   9.3912   9.4640   9.7829   9.8502   9.9530
    10.0021  10.2371  10.2939  10.3787  10.4451  10.5091  10.6528  10.7080
    10.8366  10.8750  11.0336  11.0856  11.2165  11.3037  11.3501  11.4882
    11.5499  11.6422  11.7189  11.8112  11.9081  11.9548  12.1199  12.2858
    12.3546  12.4014  12.4240  12.4498  12.5834  12.6521  12.7410  12.8101
    12.8988  12.9512  13.0263  13.0594  13.1319  13.1824  13.2516  13.3530
    13.4489  13.5156  13.5517  13.6242  13.6552  13.6769  13.7538  13.8868
    13.9313  14.0152  14.0600  14.0822  14.2178  14.2624  14.2793  14.4456
    14.5040  14.5993  14.6909  14.8631  14.8881  14.9811  15.0113  15.0776
    15.1846  15.2944  15.4049  15.5037  15.5382  15.5592  15.6779  15.7832
    15.8832  15.9809  16.0819  16.1155  16.1994  16.3566  16.3913  16.4504
    16.5335  16.5831  16.6438  16.7385  16.8211  16.8381  16.9386  17.1014
    17.1537  17.1623  17.3228  17.3949  17.5035  17.5465  17.5955  17.6581
    17.7072  17.7794  17.8608  17.9316  18.0871  18.1302  18.2066  18.2748
    18.2937  18.4327  18.4852  18.5717  18.6609  18.6741  18.7306  18.8321
    18.9518  18.9643  19.0472  19.1137  19.1665  19.2290  19.3039  19.3573
    19.4359  19.4839  19.5493  19.6542  19.7390  19.8007  19.8764  19.9864
    20.0825  20.0941  20.1767  20.2343  20.2806  20.3688  20.4601  20.5801
    20.6839  20.7628  20.8011  20.8512  20.9356  21.0035  21.0613  21.0895
    21.1464  21.2622  21.3279  21.3851  21.4580  21.6175  21.6453  21.7234
    21.8831  21.8995  21.9769  22.0629  22.1265  22.1679  22.3383  22.4236
    22.5067

 ------ SPIN DOWN ----------


          k = 0.0000 0.0000 0.0000 ( 26393 PWs)   bands (ev):

[...]
     Harris-Foulkes estimate   =   -2320.97526042 Ry
     estimated scf accuracy    <       0.00006485 Ry

     total magnetization       =    20.83 Bohr mag/cell
     absolute magnetization    =    21.76 Bohr mag/cell

     iteration # 70     ecut=    40.00 Ry     beta=0.70
     Davidson diagonalization with overlap
     ethr =  1.08E-08,  avg # of iterations =  2.0

     negative rho (up, down):  0.225E-02 0.130E-02

     total cpu time spent up to now is    78265.1 secs

     total energy              =   -2320.97524471 Ry
     Harris-Foulkes estimate   =   -2320.97526846 Ry
     estimated scf accuracy    <       0.00017724 Ry

     total magnetization       =    20.83 Bohr mag/cell
     absolute magnetization    =    21.76 Bohr mag/cell

     iteration # 71     ecut=    40.00 Ry     beta=0.70
     Davidson diagonalization with overlap
     ethr =  1.08E-08,  avg # of iterations =  1.6

     negative rho (up, down):  0.225E-02 0.130E-02

     total cpu time spent up to now is    78582.6 secs

     total energy              =   -2320.97524870 Ry
     Harris-Foulkes estimate   =   -2320.97526617 Ry
     estimated scf accuracy    <       0.00018869 Ry

     total magnetization       =    20.82 Bohr mag/cell
     absolute magnetization    =    21.75 Bohr mag/cell

     iteration # 72     ecut=    40.00 Ry     beta=0.70
     Davidson diagonalization with overlap
     ethr =  1.08E-08,  avg # of iterations =  1.0

     negative rho (up, down):  0.225E-02 0.130E-02

     total cpu time spent up to now is    78884.8 secs

     total energy              =   -2320.97525612 Ry
     Harris-Foulkes estimate   =   -2320.97525872 Ry
     estimated scf accuracy    <       0.00002675 Ry

     total magnetization       =    20.82 Bohr mag/cell
     absolute magnetization    =    21.75 Bohr mag/cell

     iteration # 73     ecut=    40.00 Ry     beta=0.70
     Davidson diagonalization with overlap
     ethr =  1.08E-08,  avg # of iterations =  1.0

     negative rho (up, down):  0.225E-02 0.130E-02

     total cpu time spent up to now is    79186.8 secs

     total energy              =   -2320.97525401 Ry
     Harris-Foulkes estimate   =   -2320.97526121 Ry
     estimated scf accuracy    <       0.00004498 Ry

     total magnetization       =    20.83 Bohr mag/cell
     absolute magnetization    =    21.75 Bohr mag/cell

     iteration # 74     ecut=    40.00 Ry     beta=0.70
     Davidson diagonalization with overlap
     ethr =  1.08E-08,  avg # of iterations =  1.0

     negative rho (up, down):  0.225E-02 0.130E-02

     total cpu time spent up to now is    79489.0 secs

     total energy              =   -2320.97525765 Ry
     Harris-Foulkes estimate   =   -2320.97525918 Ry
     estimated scf accuracy    <       0.00004280 Ry

     total magnetization       =    20.82 Bohr mag/cell
     absolute magnetization    =    21.74 Bohr mag/cell

     iteration # 75     ecut=    40.00 Ry     beta=0.70
     Davidson diagonalization with overlap
     ethr =  1.08E-08,  avg # of iterations =  1.0

     negative rho (up, down):  0.225E-02 0.130E-02

     total cpu time spent up to now is    79790.9 secs

     total energy              =   -2320.97525474 Ry
     Harris-Foulkes estimate   =   -2320.97525853 Ry
     estimated scf accuracy    <       0.00001674 Ry

     total magnetization       =    20.82 Bohr mag/cell
     absolute magnetization    =    21.74 Bohr mag/cell

     iteration # 76     ecut=    40.00 Ry     beta=0.70
     Davidson diagonalization with overlap
     ethr =  7.03E-09,  avg # of iterations =  2.0

     negative rho (up, down):  0.225E-02 0.130E-02

     total cpu time spent up to now is    80119.8 secs

     total energy              =   -2320.97522901 Ry
     Harris-Foulkes estimate   =   -2320.97528599 Ry
     estimated scf accuracy    <       0.00060809 Ry

     total magnetization       =    20.85 Bohr mag/cell
     absolute magnetization    =    21.77 Bohr mag/cell

     iteration # 77     ecut=    40.00 Ry     beta=0.70
     Davidson diagonalization with overlap
     ethr =  7.03E-09,  avg # of iterations =  2.0

     negative rho (up, down):  0.225E-02 0.130E-02

     total cpu time spent up to now is    80447.1 secs

     total energy              =   -2320.97525838 Ry
     Harris-Foulkes estimate   =   -2320.97525911 Ry
     estimated scf accuracy    <       0.00003069 Ry

     total magnetization       =    20.81 Bohr mag/cell
     absolute magnetization    =    21.74 Bohr mag/cell

     iteration # 78     ecut=    40.00 Ry     beta=0.70
     Davidson diagonalization with overlap
     ethr =  7.03E-09,  avg # of iterations =  1.0

     negative rho (up, down):  0.225E-02 0.130E-02

     total cpu time spent up to now is    80749.3 secs

     total energy              =   -2320.97525780 Ry
     Harris-Foulkes estimate   =   -2320.97525871 Ry
     estimated scf accuracy    <       0.00001766 Ry

     total magnetization       =    20.82 Bohr mag/cell
     absolute magnetization    =    21.74 Bohr mag/cell

     iteration # 79     ecut=    40.00 Ry     beta=0.70
     Davidson diagonalization with overlap
     ethr =  7.03E-09,  avg # of iterations =  1.1

     negative rho (up, down):  0.225E-02 0.130E-02

     total cpu time spent up to now is    81052.2 secs

     total energy              =   -2320.97525322 Ry
     Harris-Foulkes estimate   =   -2320.97526341 Ry
     estimated scf accuracy    <       0.00008142 Ry

     total magnetization       =    20.82 Bohr mag/cell
     absolute magnetization    =    21.75 Bohr mag/cell

     iteration # 80     ecut=    40.00 Ry     beta=0.70
     Davidson diagonalization with overlap
     ethr =  7.03E-09,  avg # of iterations =  2.0

     negative rho (up, down):  0.225E-02 0.130E-02

     total cpu time spent up to now is    81377.8 secs

     total energy              =   -2320.97525385 Ry
     Harris-Foulkes estimate   =   -2320.97526334 Ry
     estimated scf accuracy    <       0.00006927 Ry

     total magnetization       =    20.82 Bohr mag/cell
     absolute magnetization    =    21.74 Bohr mag/cell

     iteration # 81     ecut=    40.00 Ry     beta=0.70
     Davidson diagonalization with overlap
     ethr =  7.03E-09,  avg # of iterations =  1.5

     negative rho (up, down):  0.225E-02 0.130E-02

     total cpu time spent up to now is    81691.4 secs

     total energy              =   -2320.97525590 Ry
     Harris-Foulkes estimate   =   -2320.97526225 Ry
     estimated scf accuracy    <       0.00008741 Ry

     total magnetization       =    20.81 Bohr mag/cell
     absolute magnetization    =    21.74 Bohr mag/cell

     iteration # 82     ecut=    40.00 Ry     beta=0.70
     Davidson diagonalization with overlap
     ethr =  7.03E-09,  avg # of iterations =  1.0

     negative rho (up, down):  0.225E-02 0.130E-02

     total cpu time spent up to now is    81993.1 secs

     total energy              =   -2320.97525833 Ry
     Harris-Foulkes estimate   =   -2320.97525979 Ry
     estimated scf accuracy    <       0.00003144 Ry

     total magnetization       =    20.81 Bohr mag/cell
     absolute magnetization    =    21.74 Bohr mag/cell

     iteration # 83     ecut=    40.00 Ry     beta=0.70
     Davidson diagonalization with overlap
     ethr =  7.03E-09,  avg # of iterations =  1.0

     negative rho (up, down):  0.225E-02 0.130E-02

     total cpu time spent up to now is    82295.3 secs

     total energy              =   -2320.97525630 Ry
     Harris-Foulkes estimate   =   -2320.97526194 Ry
     estimated scf accuracy    <       0.00003769 Ry

     total magnetization       =    20.82 Bohr mag/cell
     absolute magnetization    =    21.74 Bohr mag/cell

     iteration # 84     ecut=    40.00 Ry     beta=0.70
     Davidson diagonalization with overlap
     ethr =  7.03E-09,  avg # of iterations =  1.0

     negative rho (up, down):  0.225E-02 0.130E-02

     total cpu time spent up to now is    82599.0 secs

     total energy              =   -2320.97525827 Ry
     Harris-Foulkes estimate   =   -2320.97526013 Ry
     estimated scf accuracy    <       0.00001442 Ry

     total magnetization       =    20.82 Bohr mag/cell
     absolute magnetization    =    21.74 Bohr mag/cell

     iteration # 85     ecut=    40.00 Ry     beta=0.70
     Davidson diagonalization with overlap
     ethr =  6.06E-09,  avg # of iterations =  1.0

     negative rho (up, down):  0.225E-02 0.130E-02

     total cpu time spent up to now is    82897.8 secs

     total energy              =   -2320.97525718 Ry
     Harris-Foulkes estimate   =   -2320.97525983 Ry
     estimated scf accuracy    <       0.00002146 Ry

     total magnetization       =    20.81 Bohr mag/cell
     absolute magnetization    =    21.74 Bohr mag/cell

     iteration # 86     ecut=    40.00 Ry     beta=0.70
     Davidson diagonalization with overlap
     ethr =  6.06E-09,  avg # of iterations =  2.0

     negative rho (up, down):  0.225E-02 0.130E-02

     total cpu time spent up to now is    83220.2 secs

     total energy              =   -2320.97524147 Ry
     Harris-Foulkes estimate   =   -2320.97527554 Ry
     estimated scf accuracy    <       0.00032603 Ry

     total magnetization       =    20.83 Bohr mag/cell
     absolute magnetization    =    21.76 Bohr mag/cell

     iteration # 87     ecut=    40.00 Ry     beta=0.70
     Davidson diagonalization with overlap
     ethr =  6.06E-09,  avg # of iterations =  2.0

     negative rho (up, down):  0.225E-02 0.130E-02

     total cpu time spent up to now is    83544.5 secs

     total energy              =   -2320.97525315 Ry
     Harris-Foulkes estimate   =   -2320.97526399 Ry
     estimated scf accuracy    <       0.00008379 Ry

     total magnetization       =    20.83 Bohr mag/cell
     absolute magnetization    =    21.75 Bohr mag/cell

     iteration # 88     ecut=    40.00 Ry     beta=0.70
     Davidson diagonalization with overlap
     ethr =  6.06E-09,  avg # of iterations =  1.4

     negative rho (up, down):  0.225E-02 0.130E-02

     total cpu time spent up to now is    83856.4 secs

     total energy              =   -2320.97525702 Ry
     Harris-Foulkes estimate   =   -2320.97526247 Ry
     estimated scf accuracy    <       0.00006060 Ry

     total magnetization       =    20.81 Bohr mag/cell
     absolute magnetization    =    21.73 Bohr mag/cell

     iteration # 89     ecut=    40.00 Ry     beta=0.70
     Davidson diagonalization with overlap
     ethr =  6.06E-09,  avg # of iterations =  1.1

     negative rho (up, down):  0.225E-02 0.130E-02

     total cpu time spent up to now is    84159.4 secs

     total energy              =   -2320.97525694 Ry
     Harris-Foulkes estimate   =   -2320.97526251 Ry
     estimated scf accuracy    <       0.00005039 Ry

     total magnetization       =    20.81 Bohr mag/cell
     absolute magnetization    =    21.74 Bohr mag/cell

     iteration # 90     ecut=    40.00 Ry     beta=0.70
     Davidson diagonalization with overlap
     ethr =  6.06E-09,  avg # of iterations =  1.3

     negative rho (up, down):  0.225E-02 0.130E-02

     total cpu time spent up to now is    84468.3 secs

     total energy              =   -2320.97525738 Ry
     Harris-Foulkes estimate   =   -2320.97526267 Ry
     estimated scf accuracy    <       0.00004586 Ry

     total magnetization       =    20.81 Bohr mag/cell
     absolute magnetization    =    21.74 Bohr mag/cell

     iteration # 91     ecut=    40.00 Ry     beta=0.70
     Davidson diagonalization with overlap
     ethr =  6.06E-09,  avg # of iterations =  1.0

     negative rho (up, down):  0.225E-02 0.130E-02

     total cpu time spent up to now is    84772.7 secs

     total energy              =   -2320.97525918 Ry
     Harris-Foulkes estimate   =   -2320.97526133 Ry
     estimated scf accuracy    <       0.00004656 Ry

     total magnetization       =    20.81 Bohr mag/cell
     absolute magnetization    =    21.73 Bohr mag/cell

     iteration # 92     ecut=    40.00 Ry     beta=0.70
     Davidson diagonalization with overlap
     ethr =  6.06E-09,  avg # of iterations =  1.0

     negative rho (up, down):  0.225E-02 0.130E-02

     total cpu time spent up to now is    85082.4 secs

     total energy              =   -2320.97526026 Ry
     Harris-Foulkes estimate   =   -2320.97526026 Ry
     estimated scf accuracy    <       0.00001401 Ry

     total magnetization       =    20.81 Bohr mag/cell
     absolute magnetization    =    21.73 Bohr mag/cell

     iteration # 93     ecut=    40.00 Ry     beta=0.70
     Davidson diagonalization with overlap
     ethr =  5.89E-09,  avg # of iterations =  1.0

     negative rho (up, down):  0.225E-02 0.130E-02

     total cpu time spent up to now is    85397.5 secs

     total energy              =   -2320.97525979 Ry
     Harris-Foulkes estimate   =   -2320.97526174 Ry
     estimated scf accuracy    <       0.00003210 Ry

     total magnetization       =    20.81 Bohr mag/cell
     absolute magnetization    =    21.73 Bohr mag/cell

     iteration # 94     ecut=    40.00 Ry     beta=0.70
     Davidson diagonalization with overlap
     ethr =  5.89E-09,  avg # of iterations =  1.0

     negative rho (up, down):  0.225E-02 0.130E-02

     total cpu time spent up to now is    85706.0 secs

     total energy              =   -2320.97525879 Ry
     Harris-Foulkes estimate   =   -2320.97526175 Ry
     estimated scf accuracy    <       0.00002239 Ry

     total magnetization       =    20.80 Bohr mag/cell
     absolute magnetization    =    21.73 Bohr mag/cell

     iteration # 95     ecut=    40.00 Ry     beta=0.70
     Davidson diagonalization with overlap
     ethr =  5.89E-09,  avg # of iterations =  1.0

     negative rho (up, down):  0.225E-02 0.130E-02

     total cpu time spent up to now is    86014.4 secs

     total energy              =   -2320.97525485 Ry
     Harris-Foulkes estimate   =   -2320.97526370 Ry
     estimated scf accuracy    <       0.00005184 Ry

     total magnetization       =    20.82 Bohr mag/cell
     absolute magnetization    =    21.74 Bohr mag/cell

     iteration # 96     ecut=    40.00 Ry     beta=0.70
     Davidson diagonalization with overlap
     ethr =  5.89E-09,  avg # of iterations =  2.0

     negative rho (up, down):  0.225E-02 0.130E-02

     total cpu time spent up to now is    86349.6 secs

     total energy              =   -2320.97524757 Ry
     Harris-Foulkes estimate   =   -2320.97527126 Ry
     estimated scf accuracy    <       0.00020449 Ry

     total magnetization       =    20.82 Bohr mag/cell
     absolute magnetization    =    21.75 Bohr mag/cell

     iteration # 97     ecut=    40.00 Ry     beta=0.70
     Davidson diagonalization with overlap
     ethr =  5.89E-09,  avg # of iterations =  2.0

     negative rho (up, down):  0.225E-02 0.130E-02

     total cpu time spent up to now is    86685.5 secs

     total energy              =   -2320.97525078 Ry
     Harris-Foulkes estimate   =   -2320.97526935 Ry
     estimated scf accuracy    <       0.00015665 Ry

     total magnetization       =    20.82 Bohr mag/cell
     absolute magnetization    =    21.74 Bohr mag/cell

     iteration # 98     ecut=    40.00 Ry     beta=0.70
     Davidson diagonalization with overlap
     ethr =  5.89E-09,  avg # of iterations =  1.8

     negative rho (up, down):  0.225E-02 0.130E-02

     total cpu time spent up to now is    87010.9 secs

     total energy              =   -2320.97526060 Ry
     Harris-Foulkes estimate   =   -2320.97526123 Ry
     estimated scf accuracy    <       0.00002492 Ry

     total magnetization       =    20.80 Bohr mag/cell
     absolute magnetization    =    21.73 Bohr mag/cell

     iteration # 99     ecut=    40.00 Ry     beta=0.70
     Davidson diagonalization with overlap
     ethr =  5.89E-09,  avg # of iterations =  1.0

     negative rho (up, down):  0.225E-02 0.130E-02

     total cpu time spent up to now is    87319.2 secs

     total energy              =   -2320.97526040 Ry
     Harris-Foulkes estimate   =   -2320.97526155 Ry
     estimated scf accuracy    <       0.00002070 Ry

     total magnetization       =    20.80 Bohr mag/cell
     absolute magnetization    =    21.73 Bohr mag/cell

     iteration #100     ecut=    40.00 Ry     beta=0.70
     Davidson diagonalization with overlap
     ethr =  5.89E-09,  avg # of iterations =  1.0

     negative rho (up, down):  0.225E-02 0.130E-02

     total cpu time spent up to now is    87628.0 secs

     total energy              =   -2320.97526043 Ry
     Harris-Foulkes estimate   =   -2320.97526176 Ry
     estimated scf accuracy    <       0.00002147 Ry

     total magnetization       =    20.80 Bohr mag/cell
     absolute magnetization    =    21.73 Bohr mag/cell

     End of self-consistent calculation

     convergence NOT achieved after 100 iterations: stopping

     init_run     :     85.75s CPU    113.92s WALL (       1 calls)
     electrons    :  66686.01s CPU  87259.97s WALL (       4 calls)
     update_pot   :     16.92s CPU     20.11s WALL (       3 calls)
     forces       :    170.02s CPU    183.46s WALL (       3 calls)

     Called by init_run:
     wfcinit      :     69.75s CPU     96.45s WALL (       1 calls)
     potinit      :      2.70s CPU      3.48s WALL (       1 calls)

     Called by electrons:
     c_bands      :  52271.55s CPU  68569.97s WALL (     253 calls)
     sum_band     :  10378.06s CPU  14058.18s WALL (     253 calls)
     v_of_rho     :    256.42s CPU    404.55s WALL (     257 calls)
     newd         :   3691.58s CPU   3926.48s WALL (     257 calls)
     mix_rho      :     52.04s CPU     87.59s WALL (     253 calls)

     Called by c_bands:
     init_us_2    :     63.38s CPU     63.89s WALL (   10200 calls)
     cegterg      :  51974.29s CPU  68270.85s WALL (    5060 calls)

     Called by *egterg:
     h_psi        :  27057.17s CPU  41275.81s WALL (   14415 calls)
     s_psi        :   1911.54s CPU   1912.93s WALL (   14415 calls)
     g_psi        :     41.07s CPU     41.14s WALL (    9335 calls)
     cdiaghg      :  12618.92s CPU  13043.04s WALL (   14335 calls)

     Called by h_psi:
     add_vuspsi   :   1924.73s CPU   1934.88s WALL (   14415 calls)

     General routines
     calbec       :   3118.23s CPU   3438.96s WALL (   19535 calls)
     fft          :    479.92s CPU    869.12s WALL (    7988 calls)
     ffts         :      6.74s CPU     12.90s WALL (    1020 calls)
     fftw         :  23972.59s CPU  41295.54s WALL ( 9032370 calls)
     interpolate  :     54.22s CPU     95.84s WALL (    1020 calls)
     davcio       :      0.00s CPU      0.10s WALL (      20 calls)

     Parallel routines
     fft_scatter  :  17713.05s CPU  35329.67s WALL ( 9041378 calls)

     PWSCF        :     0d   18h36m CPU        1d    0h20m WALL


   This run was terminated on:  14: 6:22   2Apr2014            

=------------------------------------------------------------------------------=
   JOB DONE.
=------------------------------------------------------------------------------=
STOP 1
STOP 1
STOP 1
STOP 1
STOP 1
STOP 1
STOP 1
STOP 1
STOP 1
STOP 1
STOP 1
STOP 1
STOP 1
STOP 1
STOP 1
STOP 1
--------------------------------------------------------------------------
mpirun noticed that the job aborted, but has no info as to the process
that caused that situation.
--------------------------------------------------------------------------
---------------------------------------
Running PBS batch system epilogue script
Job id: 320675.audhumbla.fysik.dtu.dk
Username: zhonxu
Groupname: campgst
Jobname: MnO2/Eads-2-layers/O-relax-surf
Sessionid: 12124
Resources limits: neednodes=2:ppn=8:xeon8,nodes=2:ppn=8:xeon8,walltime=48:00:00
Resources used: cput=389:13:12,mem=8840484kb,vmem=12236580kb,walltime=24:20:50
Queuename: verylong
Accounting:
This job has allocated the following 16 nodes:
b056 b056 b056 b056 b056 b056 b056 b056 b047 b047 b047 b047 b047 b047 b047 b047
Finished epilogue job 320675.audhumbla.fysik.dtu.dk for zhonxu
