
     Program PWSCF v.5.0.2 (svn rev. 9656) starts on 30Apr2014 at  3:17:32 

     This program is part of the open-source Quantum ESPRESSO suite
     for quantum simulation of materials; please cite
         "P. Giannozzi et al., J. Phys.:Condens. Matter 21 395502 (2009);
          URL http://www.quantum-espresso.org", 
     in publications or presentations arising from this work. More details at
     http://www.quantum-espresso.org/quote.php

     Parallel version (MPI), running on    16 processors
     K-points division:     npool     =       4
     R & G space division:  proc/nbgrp/npool/nimage =       4

     Current dimensions of program PWSCF are:
     Max number of different atomic species (ntypx) = 10
     Max number of k-points (npk) =  40000
     Max angular momentum in pseudopotentials (lmaxx) =  3
     Reading input from pwscf.in
Warning: card &CELL ignored
Warning: card / ignored

     Subspace diagonalization in iterative solution of the eigenvalue problem:
     a serial algorithm will be used


     Parallelization info
     --------------------
     sticks:   dense  smooth     PW     G-vecs:    dense   smooth      PW
     Min        1386     442    124               330660    59845    8892
     Max        1388     443    125               330662    59871    8899
     Sum        5547    1771    497              1322643   239441   35575



     bravais-lattice index     =            0
     lattice parameter (alat)  =      11.2250  a.u.
     unit-cell volume          =    7005.5484 (a.u.)^3
     number of atoms/cell      =           32
     number of atomic types    =            3
     number of electrons       =       215.00
     number of Kohn-Sham states=          310
     kinetic-energy cutoff     =      40.0000  Ry
     charge density cutoff     =     500.0000  Ry
     convergence threshold     =      1.0E-06
     mixing beta               =       0.7000
     number of iterations used =            8  plain     mixing
     Exchange-correlation      = SLA  PW   PBE  PBE ( 1 4 3 4 0)
     EXX-fraction              =        0.00
     nstep                     =           50


     celldm(1)=  11.224973  celldm(2)=   0.000000  celldm(3)=   0.000000
     celldm(4)=   0.000000  celldm(5)=   0.000000  celldm(6)=   0.000000

     crystal axes: (cart. coord. in units of alat)
               a(1) = (   1.000000   0.000000   0.000000 )  
               a(2) = (   0.000000   1.107086   0.000000 )  
               a(3) = (   0.000000   0.000000   4.474090 )  

     reciprocal axes: (cart. coord. in units 2 pi/alat)
               b(1) = (  1.000000  0.000000  0.000000 )  
               b(2) = (  0.000000  0.903272  0.000000 )  
               b(3) = (  0.000000  0.000000  0.223509 )  


     PseudoPot. # 1 for O  read from file:
     /home/camp/zhonxu/pseudo/o_pbe_v1.01.uspp.F.UPF
     MD5 check sum: 2bcb18d16ea4b960afae9ec6d52f22d2
     Pseudo is Ultrasoft + core correction, Zval =  6.0
     Generated by new atomic code, or converted to UPF format
     Using radial grid of  737 points,  5 beta functions with: 
                l(1) =   0
                l(2) =   0
                l(3) =   1
                l(4) =   1
                l(5) =   2
     Q(r) pseudized with  8 coefficients,  rinner =    0.900   0.900   0.900
                                                       0.900   0.900

     PseudoPot. # 2 for Ti read from file:
     /home/camp/zhonxu/pseudo/ti_pbe_v1.uspp.F.UPF
     MD5 check sum: bcc8f6961b3b91f0cac3ca967d22d0fb
     Pseudo is Ultrasoft + core correction, Zval = 12.0
     Generated by new atomic code, or converted to UPF format
     Using radial grid of  851 points,  6 beta functions with: 
                l(1) =   0
                l(2) =   0
                l(3) =   1
                l(4) =   1
                l(5) =   2
                l(6) =   2
     Q(r) pseudized with  6 coefficients,  rinner =    1.000   1.000   1.000
                                                       1.000   1.000

     PseudoPot. # 3 for H  read from file:
     /home/camp/zhonxu/pseudo/h_pbe_v1.uspp.F.UPF
     MD5 check sum: 3408e3ff4ec8b0a4e358431e7e038a48
     Pseudo is Ultrasoft, Zval =  1.0
     Generated by new atomic code, or converted to UPF format
     Using radial grid of  615 points,  2 beta functions with: 
                l(1) =   0
                l(2) =   0
     Q(r) pseudized with  8 coefficients,  rinner =    0.700

     atomic species   valence    mass     pseudopotential
        O0             6.00    15.99940     O ( 1.00)
        Ti1           12.00    47.88000     Ti( 1.00)
        H2             1.00     1.00794     H ( 1.00)


     Simplified LDA+U calculation (l_max = 2) with parameters (eV):
     atomic species    L          U    alpha       J0     beta
        Ti1            2     5.0000   0.0000   0.0000   0.0000



     No symmetry found



   Cartesian axes

     site n.     atom                  positions (alat units)
         1           O0  tau(   1) = (   0.0000000   0.0000000   1.6864186  )
         2           O0  tau(   2) = (   0.0000000   0.5535432   1.7740213  )
         3           Ti1 tau(   3) = (   0.2500000   0.5535432   2.0074793  )
         4           Ti1 tau(   4) = (   0.0000000   0.0000000   2.0324447  )
         5           O0  tau(   5) = (   0.2500000   0.8967400   2.0044817  )
         6           O0  tau(   6) = (   0.2500000   0.2103464   2.0092242  )
         7           O0  tau(   7) = (   0.0000000   0.5535432   2.2196854  )
         8           O0  tau(   8) = (   0.0000000   0.0000000   2.3507315  )
         9           Ti1 tau(   9) = (   0.2500000   0.0000000   2.6021753  )
        10           Ti1 tau(  10) = (   0.0000000   0.5535432   2.5345718  )
        11           O0  tau(  11) = (   0.2500000   0.7638896   2.5931377  )
        12           O0  tau(  12) = (   0.2500000   0.3431968   2.5930482  )
        13           O0  tau(  13) = (   0.0000000   0.0000000   2.7844945  )
        14           O0  tau(  14) = (   0.5000000   0.0000000   1.6873582  )
        15           O0  tau(  15) = (   0.5000000   0.5535432   1.7709789  )
        16           Ti1 tau(  16) = (   0.7500000   0.5535432   2.0079715  )
        17           Ti1 tau(  17) = (   0.5000000   0.0000000   2.0352187  )
        18           O0  tau(  18) = (   0.7500000   0.8967400   2.0040790  )
        19           O0  tau(  19) = (   0.7500000   0.2103464   2.0094479  )
        20           O0  tau(  20) = (   0.5000000   0.5535432   2.1971360  )
        21           O0  tau(  21) = (   0.5000000   0.0000000   2.3514026  )
        22           Ti1 tau(  22) = (   0.7500000   0.0000000   2.6024885  )
        23           Ti1 tau(  23) = (   0.5000000   0.5535432   2.6568935  )
        24           O0  tau(  24) = (   0.7500000   0.7638896   2.5904532  )
        25           O0  tau(  25) = (   0.7500000   0.3431968   2.5901848  )
        26           O0  tau(  26) = (   0.5000000   0.0000000   2.7844945  )
        27           H2  tau(  27) = (  -0.0007700   0.6889399   1.6773810  )
        28           H2  tau(  28) = (   0.4993300   0.6850208   1.6695513  )
        29           H2  tau(  29) = (   0.1496500   0.0435638   1.6275396  )
        30           H2  tau(  30) = (   0.6495100   0.0435638   1.6281213  )
        31           O0  tau(  31) = (   0.5047900   0.5534214   2.9586261  )
        32           H2  tau(  32) = (   0.3766100   0.5530007   3.0621118  )

     number of k points=    10  Methfessel-Paxton smearing, width (Ry)=  0.0100
                       cart. coord. in units 2pi/alat
        k(    1) = (   0.0000000   0.0000000   0.0000000), wk =   0.1250000
        k(    2) = (   0.0000000   0.2258180   0.0000000), wk =   0.2500000
        k(    3) = (   0.0000000  -0.4516359   0.0000000), wk =   0.1250000
        k(    4) = (   0.2500000   0.0000000   0.0000000), wk =   0.2500000
        k(    5) = (   0.2500000   0.2258180   0.0000000), wk =   0.2500000
        k(    6) = (   0.2500000  -0.4516359   0.0000000), wk =   0.2500000
        k(    7) = (  -0.5000000   0.0000000   0.0000000), wk =   0.1250000
        k(    8) = (  -0.5000000   0.2258180   0.0000000), wk =   0.2500000
        k(    9) = (  -0.5000000  -0.4516359   0.0000000), wk =   0.1250000
        k(   10) = (  -0.2500000   0.2258180   0.0000000), wk =   0.2500000

     Dense  grid:  1322643 G-vectors     FFT dimensions: (  80,  90, 360)

     Smooth grid:   239441 G-vectors     FFT dimensions: (  45,  54, 216)

     Largest allocated arrays     est. size (Mb)     dimensions
        Kohn-Sham Wavefunctions        35.79 Mb     (   7566,  310)
        Atomic wavefunctions           18.59 Mb     (   7566,  161)
        NL pseudopotentials            46.29 Mb     (   7566,  401)
        Each V/rho on FFT grid          9.89 Mb     ( 648000)
        Each G-vector array             2.52 Mb     ( 330661)
        G-vector shells                 1.08 Mb     ( 141764)
     Largest temporary arrays     est. size (Mb)     dimensions
        Auxiliary wavefunctions       143.16 Mb     (   7566, 1240)
        Each subspace H/S matrix       23.46 Mb     (1240,1240)
        Each <psi_i|beta_j> matrix      1.90 Mb     (    401,  310)
        Arrays for rho mixing          79.10 Mb     ( 648000,   8)

     Check: negative/imaginary core charge=   -0.000006    0.000000

     Initial potential from superposition of free atoms
     Check: negative starting charge=   -0.102331

     starting charge  206.99957, renormalised to  215.00000

     negative rho (up, down):  0.106E+00 0.000E+00
     Number of +U iterations with fixed ns =  0
     Starting occupations:
 --- enter write_ns ---
 LDA+U parameters:
U( 2)     =  5.00000000
alpha( 2) =  0.00000000
atom    3   Tr[ns(na)] =   2.00000
    eigenvalues: 
  0.200  0.200  0.200  0.200  0.200
    eigenvectors:
  1.000  0.000  0.000  0.000  0.000
  0.000  1.000  0.000  0.000  0.000
  0.000  0.000  1.000  0.000  0.000
  0.000  0.000  0.000  1.000  0.000
  0.000  0.000  0.000  0.000  1.000
    occupations:
  0.200  0.000  0.000  0.000  0.000
  0.000  0.200  0.000  0.000  0.000
  0.000  0.000  0.200  0.000  0.000
  0.000  0.000  0.000  0.200  0.000
  0.000  0.000  0.000  0.000  0.200
atom    4   Tr[ns(na)] =   2.00000
    eigenvalues: 
  0.200  0.200  0.200  0.200  0.200
    eigenvectors:
  1.000  0.000  0.000  0.000  0.000
  0.000  1.000  0.000  0.000  0.000
  0.000  0.000  1.000  0.000  0.000
  0.000  0.000  0.000  1.000  0.000
  0.000  0.000  0.000  0.000  1.000
    occupations:
  0.200  0.000  0.000  0.000  0.000
  0.000  0.200  0.000  0.000  0.000
  0.000  0.000  0.200  0.000  0.000
  0.000  0.000  0.000  0.200  0.000
  0.000  0.000  0.000  0.000  0.200
atom    9   Tr[ns(na)] =   2.00000
    eigenvalues: 
  0.200  0.200  0.200  0.200  0.200
    eigenvectors:
  1.000  0.000  0.000  0.000  0.000
  0.000  1.000  0.000  0.000  0.000
  0.000  0.000  1.000  0.000  0.000
  0.000  0.000  0.000  1.000  0.000
  0.000  0.000  0.000  0.000  1.000
    occupations:
  0.200  0.000  0.000  0.000  0.000
  0.000  0.200  0.000  0.000  0.000
  0.000  0.000  0.200  0.000  0.000
  0.000  0.000  0.000  0.200  0.000
  0.000  0.000  0.000  0.000  0.200
atom   10   Tr[ns(na)] =   2.00000
    eigenvalues: 
  0.200  0.200  0.200  0.200  0.200
    eigenvectors:
  1.000  0.000  0.000  0.000  0.000
  0.000  1.000  0.000  0.000  0.000
  0.000  0.000  1.000  0.000  0.000
  0.000  0.000  0.000  1.000  0.000
  0.000  0.000  0.000  0.000  1.000
    occupations:
  0.200  0.000  0.000  0.000  0.000
  0.000  0.200  0.000  0.000  0.000
  0.000  0.000  0.200  0.000  0.000
  0.000  0.000  0.000  0.200  0.000
  0.000  0.000  0.000  0.000  0.200
atom   16   Tr[ns(na)] =   2.00000
    eigenvalues: 
  0.200  0.200  0.200  0.200  0.200
    eigenvectors:
  1.000  0.000  0.000  0.000  0.000
  0.000  1.000  0.000  0.000  0.000
  0.000  0.000  1.000  0.000  0.000
  0.000  0.000  0.000  1.000  0.000
  0.000  0.000  0.000  0.000  1.000
    occupations:
  0.200  0.000  0.000  0.000  0.000
  0.000  0.200  0.000  0.000  0.000
  0.000  0.000  0.200  0.000  0.000
  0.000  0.000  0.000  0.200  0.000
  0.000  0.000  0.000  0.000  0.200
atom   17   Tr[ns(na)] =   2.00000
    eigenvalues: 
  0.200  0.200  0.200  0.200  0.200
    eigenvectors:
  1.000  0.000  0.000  0.000  0.000
  0.000  1.000  0.000  0.000  0.000
  0.000  0.000  1.000  0.000  0.000
  0.000  0.000  0.000  1.000  0.000
  0.000  0.000  0.000  0.000  1.000
    occupations:
  0.200  0.000  0.000  0.000  0.000
  0.000  0.200  0.000  0.000  0.000
  0.000  0.000  0.200  0.000  0.000
  0.000  0.000  0.000  0.200  0.000
  0.000  0.000  0.000  0.000  0.200
atom   22   Tr[ns(na)] =   2.00000
    eigenvalues: 
  0.200  0.200  0.200  0.200  0.200
    eigenvectors:
  1.000  0.000  0.000  0.000  0.000
  0.000  1.000  0.000  0.000  0.000
  0.000  0.000  1.000  0.000  0.000
  0.000  0.000  0.000  1.000  0.000
  0.000  0.000  0.000  0.000  1.000
    occupations:
  0.200  0.000  0.000  0.000  0.000
  0.000  0.200  0.000  0.000  0.000
  0.000  0.000  0.200  0.000  0.000
  0.000  0.000  0.000  0.200  0.000
  0.000  0.000  0.000  0.000  0.200
atom   23   Tr[ns(na)] =   2.00000
    eigenvalues: 
  0.200  0.200  0.200  0.200  0.200
    eigenvectors:
  1.000  0.000  0.000  0.000  0.000
  0.000  1.000  0.000  0.000  0.000
  0.000  0.000  1.000  0.000  0.000
  0.000  0.000  0.000  1.000  0.000
  0.000  0.000  0.000  0.000  1.000
    occupations:
  0.200  0.000  0.000  0.000  0.000
  0.000  0.200  0.000  0.000  0.000
  0.000  0.000  0.200  0.000  0.000
  0.000  0.000  0.000  0.200  0.000
  0.000  0.000  0.000  0.000  0.200
N of occupied +U levels =  16.0000000
 --- exit write_ns ---
 Atomic wfc used for LDA+U Projector are NOT orthogonalized
     Starting wfc are  161 randomized atomic wfcs

     total cpu time spent up to now is       95.9 secs

     per-process dynamical memory:   377.4 Mb

     Self-consistent Calculation

     iteration #  1     ecut=    40.00 Ry     beta=0.70
     Davidson diagonalization with overlap
     ethr =  1.00E-02,  avg # of iterations =  6.0
 --- enter write_ns ---
 LDA+U parameters:
U( 2)     =  5.00000000
alpha( 2) =  0.00000000
atom    3   Tr[ns(na)] =   1.75534
    eigenvalues: 
  0.091  0.109  0.121  0.257  0.299
    eigenvectors:
  0.069  0.082  0.698  0.148  0.003
  0.001  0.001  0.002  0.062  0.934
  0.826  0.040  0.133  0.001  0.000
  0.018  0.016  0.116  0.790  0.060
  0.086  0.862  0.050  0.000  0.002
    occupations:
  0.139  0.003 -0.007  0.051  0.001
  0.003  0.296  0.001 -0.012  0.009
 -0.007  0.001  0.096  0.007 -0.006
  0.051 -0.012  0.007  0.239 -0.001
  0.001  0.009 -0.006 -0.001  0.109
atom    4   Tr[ns(na)] =   2.01191
    eigenvalues: 
  0.112  0.131  0.143  0.294  0.326
    eigenvectors:
  0.012  0.004  0.000  0.000  0.984
  0.006  0.787  0.203  0.000  0.004
  0.001  0.202  0.797  0.000  0.001
  0.981  0.008  0.000  0.000  0.011
  0.000  0.000  0.000  1.000  0.000
    occupations:
  0.322  0.013  0.006 -0.022  0.000
  0.013  0.134 -0.005  0.000 -0.002
  0.006 -0.005  0.141 -0.000  0.000
 -0.022  0.000 -0.000  0.115  0.000
  0.000 -0.002  0.000  0.000  0.294
atom    9   Tr[ns(na)] =   1.97289
    eigenvalues: 
  0.118  0.141  0.145  0.278  0.304
    eigenvectors:
  0.000  0.000  0.928  0.072  0.000
  0.000  0.000  0.000  0.000  1.000
  0.931  0.069  0.000  0.000  0.000
  0.000  0.000  0.072  0.927  0.000
  0.069  0.931  0.000  0.000  0.000
    occupations:
  0.155 -0.000 -0.000  0.035  0.000
 -0.000  0.304  0.000 -0.000  0.000
 -0.000  0.000  0.120  0.000  0.006
  0.035 -0.000  0.000  0.269  0.000
  0.000  0.000  0.006  0.000  0.140
atom   10   Tr[ns(na)] =   2.18958
    eigenvalues: 
  0.122  0.154  0.227  0.276  0.315
    eigenvectors:
  0.000  0.000  0.970  0.000  0.030
  0.000  0.997  0.000  0.000  0.003
  1.000  0.000  0.000  0.000  0.000
  0.000  0.003  0.030  0.000  0.967
  0.000  0.000  0.000  1.000  0.000
    occupations:
  0.230  0.002 -0.000  0.015 -0.000
  0.002  0.155 -0.000  0.008  0.000
 -0.000 -0.000  0.122  0.001 -0.001
  0.015  0.008  0.001  0.312  0.000
 -0.000  0.000 -0.001  0.000  0.276
atom   16   Tr[ns(na)] =   1.75559
    eigenvalues: 
  0.091  0.109  0.121  0.257  0.299
    eigenvectors:
  0.068  0.085  0.696  0.147  0.004
  0.001  0.001  0.002  0.064  0.932
  0.828  0.039  0.133  0.001  0.000
  0.018  0.016  0.116  0.788  0.062
  0.085  0.859  0.053  0.000  0.002
    occupations:
  0.139 -0.003 -0.007  0.051 -0.001
 -0.003  0.296 -0.001  0.012  0.009
 -0.007 -0.001  0.096  0.007  0.006
  0.051  0.012  0.007  0.239  0.001
 -0.001  0.009  0.006  0.001  0.109
atom   17   Tr[ns(na)] =   1.97575
    eigenvalues: 
  0.111  0.128  0.132  0.292  0.325
    eigenvectors:
  0.012  0.002  0.002  0.000  0.984
  0.004  0.050  0.942  0.000  0.004
  0.002  0.945  0.052  0.000  0.001
  0.982  0.003  0.004  0.000  0.011
  0.000  0.000  0.000  1.000  0.000
    occupations:
  0.321  0.012  0.006 -0.023  0.000
  0.012  0.133 -0.000  0.000 -0.002
  0.006 -0.000  0.129 -0.000  0.000
 -0.023  0.000 -0.000  0.113 -0.000
  0.000 -0.002  0.000 -0.000  0.292
atom   22   Tr[ns(na)] =   1.97506
    eigenvalues: 
  0.118  0.142  0.145  0.278  0.304
    eigenvectors:
  0.000  0.013  0.916  0.071  0.000
  0.000  0.000  0.000  0.000  1.000
  0.919  0.079  0.002  0.000  0.000
  0.000  0.001  0.070  0.929  0.000
  0.081  0.907  0.012  0.000  0.000
    occupations:
  0.155 -0.000 -0.000  0.034  0.000
 -0.000  0.304 -0.000  0.000  0.000
 -0.000 -0.000  0.120  0.000 -0.007
  0.034  0.000  0.000  0.269 -0.000
  0.000  0.000 -0.007 -0.000  0.140
atom   23   Tr[ns(na)] =   2.00226
    eigenvalues: 
  0.144  0.154  0.169  0.258  0.275
    eigenvectors:
  0.015  0.000  0.000  0.000  0.984
  0.950  0.000  0.035  0.000  0.015
  0.000  1.000  0.000  0.000  0.000
  0.035  0.000  0.965  0.000  0.000
  0.000  0.000  0.000  1.000  0.000
    occupations:
  0.273  0.016  0.000  0.001 -0.000
  0.016  0.147 -0.000 -0.004 -0.000
  0.000 -0.000  0.154 -0.000  0.000
  0.001 -0.004 -0.000  0.168 -0.000
 -0.000 -0.000  0.000 -0.000  0.258
N of occupied +U levels =  15.6383866
 --- exit write_ns ---

     negative rho (up, down):  0.120E+00 0.000E+00

     total cpu time spent up to now is      394.9 secs

     total energy              =   -1559.50866247 Ry
     Harris-Foulkes estimate   =   -1567.42891730 Ry
     estimated scf accuracy    <       9.72922401 Ry

     iteration #  2     ecut=    40.00 Ry     beta=0.70
     Davidson diagonalization with overlap
     ethr =  4.53E-03,  avg # of iterations =  5.6

     negative rho (up, down):  0.114E+00 0.000E+00

     total cpu time spent up to now is      656.5 secs

     total energy              =   -1495.85036814 Ry
     Harris-Foulkes estimate   =   -1609.00749994 Ry
     estimated scf accuracy    <    1488.06680296 Ry

     iteration #  3     ecut=    40.00 Ry     beta=0.70
     Davidson diagonalization with overlap
     ethr =  4.53E-03,  avg # of iterations =  5.0

     negative rho (up, down):  0.933E-01 0.000E+00

     total cpu time spent up to now is      917.6 secs

     total energy              =   -1544.50505912 Ry
     Harris-Foulkes estimate   =   -1587.55531071 Ry
     estimated scf accuracy    <     873.32476027 Ry

     iteration #  4     ecut=    40.00 Ry     beta=0.70
     Davidson diagonalization with overlap
     ethr =  4.53E-03,  avg # of iterations =  3.0

     negative rho (up, down):  0.935E-01 0.000E+00

     total cpu time spent up to now is     1094.9 secs

     total energy              =   -1565.78482064 Ry
     Harris-Foulkes estimate   =   -1566.37249562 Ry
     estimated scf accuracy    <       3.01447624 Ry

     iteration #  5     ecut=    40.00 Ry     beta=0.70
     Davidson diagonalization with overlap
     ethr =  1.40E-03,  avg # of iterations =  2.2

     negative rho (up, down):  0.944E-01 0.000E+00

     total cpu time spent up to now is     1247.2 secs

     total energy              =   -1565.71175631 Ry
     Harris-Foulkes estimate   =   -1566.05727322 Ry
     estimated scf accuracy    <       3.03967954 Ry

     iteration #  6     ecut=    40.00 Ry     beta=0.70
     Davidson diagonalization with overlap
     ethr =  1.40E-03,  avg # of iterations =  1.0

     negative rho (up, down):  0.954E-01 0.000E+00

     total cpu time spent up to now is     1394.1 secs

     total energy              =   -1565.72745710 Ry
     Harris-Foulkes estimate   =   -1565.96109219 Ry
     estimated scf accuracy    <       1.94888970 Ry

     iteration #  7     ecut=    40.00 Ry     beta=0.70
     Davidson diagonalization with overlap
     ethr =  9.06E-04,  avg # of iterations =  4.7

     negative rho (up, down):  0.978E-01 0.000E+00

     total cpu time spent up to now is     1557.1 secs

     total energy              =   -1565.63803103 Ry
     Harris-Foulkes estimate   =   -1565.77583090 Ry
     estimated scf accuracy    <       1.05491588 Ry

     iteration #  8     ecut=    40.00 Ry     beta=0.70
     Davidson diagonalization with overlap
     ethr =  4.91E-04,  avg # of iterations =  1.6

     negative rho (up, down):  0.998E-01 0.000E+00

     total cpu time spent up to now is     1705.9 secs

     total energy              =   -1565.57252462 Ry
     Harris-Foulkes estimate   =   -1565.68613085 Ry
     estimated scf accuracy    <       0.94464988 Ry

     iteration #  9     ecut=    40.00 Ry     beta=0.70
     Davidson diagonalization with overlap
     ethr =  4.39E-04,  avg # of iterations =  5.1

     negative rho (up, down):  0.102E+00 0.000E+00

     total cpu time spent up to now is     1874.2 secs

     total energy              =   -1565.54324109 Ry
     Harris-Foulkes estimate   =   -1565.60180283 Ry
     estimated scf accuracy    <       0.40093033 Ry

     iteration # 10     ecut=    40.00 Ry     beta=0.70
     Davidson diagonalization with overlap
     ethr =  1.86E-04,  avg # of iterations =  4.8

     negative rho (up, down):  0.104E+00 0.000E+00

     total cpu time spent up to now is     2046.4 secs

     total energy              =   -1565.52245561 Ry
     Harris-Foulkes estimate   =   -1565.55808593 Ry
     estimated scf accuracy    <       0.30513345 Ry

     iteration # 11     ecut=    40.00 Ry     beta=0.70
     Davidson diagonalization with overlap
     ethr =  1.42E-04,  avg # of iterations =  5.0

     negative rho (up, down):  0.108E+00 0.000E+00

     total cpu time spent up to now is     2216.4 secs

     total energy              =   -1565.51613408 Ry
     Harris-Foulkes estimate   =   -1565.53213020 Ry
     estimated scf accuracy    <       0.12331902 Ry

     iteration # 12     ecut=    40.00 Ry     beta=0.70
     Davidson diagonalization with overlap
     ethr =  5.74E-05,  avg # of iterations =  5.5

     negative rho (up, down):  0.106E+00 0.000E+00

     total cpu time spent up to now is     2388.2 secs

     total energy              =   -1565.45531404 Ry
     Harris-Foulkes estimate   =   -1565.52323721 Ry
     estimated scf accuracy    <       0.08779623 Ry

     iteration # 13     ecut=    40.00 Ry     beta=0.70
     Davidson diagonalization with overlap
     ethr =  4.08E-05,  avg # of iterations =  5.7

     negative rho (up, down):  0.106E+00 0.000E+00

     total cpu time spent up to now is     2592.9 secs

     total energy              =   -1565.37047127 Ry
     Harris-Foulkes estimate   =   -1565.70335946 Ry
     estimated scf accuracy    <       1.68044142 Ry

     iteration # 14     ecut=    40.00 Ry     beta=0.70
     Davidson diagonalization with overlap
     ethr =  4.08E-05,  avg # of iterations =  5.7

     negative rho (up, down):  0.106E+00 0.000E+00

     total cpu time spent up to now is     2790.0 secs

     total energy              =   -1565.50224702 Ry
     Harris-Foulkes estimate   =   -1565.51609272 Ry
     estimated scf accuracy    <       0.10521813 Ry

     iteration # 15     ecut=    40.00 Ry     beta=0.70
     Davidson diagonalization with overlap
     ethr =  4.08E-05,  avg # of iterations =  1.0

     negative rho (up, down):  0.106E+00 0.000E+00

     total cpu time spent up to now is     2944.8 secs

     total energy              =   -1565.50586731 Ry
     Harris-Foulkes estimate   =   -1565.50882315 Ry
     estimated scf accuracy    <       0.02480295 Ry

     iteration # 16     ecut=    40.00 Ry     beta=0.70
     Davidson diagonalization with overlap
     ethr =  1.15E-05,  avg # of iterations =  1.0

     negative rho (up, down):  0.106E+00 0.000E+00

     total cpu time spent up to now is     3095.3 secs

     total energy              =   -1565.50667537 Ry
     Harris-Foulkes estimate   =   -1565.50797257 Ry
     estimated scf accuracy    <       0.00807104 Ry

     iteration # 17     ecut=    40.00 Ry     beta=0.70
     Davidson diagonalization with overlap
     ethr =  3.75E-06,  avg # of iterations =  4.3

     negative rho (up, down):  0.107E+00 0.000E+00

     total cpu time spent up to now is     3255.0 secs

     total energy              =   -1565.50681517 Ry
     Harris-Foulkes estimate   =   -1565.50722005 Ry
     estimated scf accuracy    <       0.00260523 Ry

     iteration # 18     ecut=    40.00 Ry     beta=0.70
     Davidson diagonalization with overlap
     ethr =  1.21E-06,  avg # of iterations =  4.3

     negative rho (up, down):  0.107E+00 0.000E+00

     total cpu time spent up to now is     3413.6 secs

     total energy              =   -1565.50667546 Ry
     Harris-Foulkes estimate   =   -1565.50708897 Ry
     estimated scf accuracy    <       0.00293184 Ry

     iteration # 19     ecut=    40.00 Ry     beta=0.70
     Davidson diagonalization with overlap
     ethr =  1.21E-06,  avg # of iterations =  5.4

     negative rho (up, down):  0.107E+00 0.000E+00

     total cpu time spent up to now is     3576.2 secs

     total energy              =   -1565.50678224 Ry
     Harris-Foulkes estimate   =   -1565.50691967 Ry
     estimated scf accuracy    <       0.00088249 Ry

     iteration # 20     ecut=    40.00 Ry     beta=0.70
     Davidson diagonalization with overlap
     ethr =  4.10E-07,  avg # of iterations =  1.0

     negative rho (up, down):  0.107E+00 0.000E+00

     total cpu time spent up to now is     3724.6 secs

     total energy              =   -1565.50682746 Ry
     Harris-Foulkes estimate   =   -1565.50688538 Ry
     estimated scf accuracy    <       0.00022668 Ry

     iteration # 21     ecut=    40.00 Ry     beta=0.70
     Davidson diagonalization with overlap
     ethr =  1.05E-07,  avg # of iterations =  1.0

     negative rho (up, down):  0.107E+00 0.000E+00

     total cpu time spent up to now is     3871.6 secs

     total energy              =   -1565.50684956 Ry
     Harris-Foulkes estimate   =   -1565.50686432 Ry
     estimated scf accuracy    <       0.00005564 Ry

     iteration # 22     ecut=    40.00 Ry     beta=0.70
     Davidson diagonalization with overlap
     ethr =  2.59E-08,  avg # of iterations =  1.0

     negative rho (up, down):  0.107E+00 0.000E+00

     total cpu time spent up to now is     4020.0 secs

     total energy              =   -1565.50685500 Ry
     Harris-Foulkes estimate   =   -1565.50685937 Ry
     estimated scf accuracy    <       0.00002180 Ry

     iteration # 23     ecut=    40.00 Ry     beta=0.70
     Davidson diagonalization with overlap
     ethr =  1.01E-08,  avg # of iterations =  1.0

     negative rho (up, down):  0.107E+00 0.000E+00

     total cpu time spent up to now is     4164.6 secs

     total energy              =   -1565.50685675 Ry
     Harris-Foulkes estimate   =   -1565.50685813 Ry
     estimated scf accuracy    <       0.00000635 Ry

     iteration # 24     ecut=    40.00 Ry     beta=0.70
     Davidson diagonalization with overlap
     ethr =  2.95E-09,  avg # of iterations =  1.0

     negative rho (up, down):  0.107E+00 0.000E+00

     total cpu time spent up to now is     4313.1 secs

     End of self-consistent calculation
 --- enter write_ns ---
 LDA+U parameters:
U( 2)     =  5.00000000
alpha( 2) =  0.00000000
atom    3   Tr[ns(na)] =   2.67909
    eigenvalues: 
  0.146  0.162  0.185  0.399  0.447
    eigenvectors:
  0.065  0.708  0.051  0.161  0.016
  0.003  0.003  0.003  0.216  0.774
  0.608  0.006  0.385  0.000  0.000
  0.017  0.144  0.008  0.623  0.208
  0.307  0.138  0.553  0.001  0.002
    occupations:
  0.205  0.013 -0.004  0.091  0.002
  0.013  0.434  0.003 -0.028  0.013
 -0.004  0.003  0.161  0.007 -0.017
  0.091 -0.028  0.007  0.369 -0.002
  0.002  0.013 -0.017 -0.002  0.170
atom    4   Tr[ns(na)] =   2.77110
    eigenvalues: 
  0.138  0.185  0.195  0.425  0.442
    eigenvectors:
  0.006  0.001  0.000  0.000  0.992
  0.000  0.858  0.140  0.000  0.001
  0.000  0.140  0.860  0.000  0.000
  0.994  0.000  0.000  0.000  0.006
  0.000  0.000  0.000  1.000  0.000
    occupations:
  0.440  0.009  0.004 -0.024 -0.000
  0.009  0.187 -0.003 -0.000 -0.002
  0.004 -0.003  0.194  0.000 -0.000
 -0.024 -0.000  0.000  0.140 -0.000
 -0.000 -0.002 -0.000 -0.000  0.425
atom    9   Tr[ns(na)] =   2.76042
    eigenvalues: 
  0.145  0.192  0.210  0.391  0.442
    eigenvectors:
  0.000  0.000  0.931  0.069  0.000
  0.000  0.000  0.000  0.000  1.000
  0.998  0.002  0.000  0.000  0.000
  0.000  0.000  0.069  0.931  0.000
  0.002  0.998  0.000  0.000  0.000
    occupations:
  0.222  0.000 -0.000  0.046  0.000
  0.000  0.442 -0.000  0.000 -0.000
 -0.000 -0.000  0.145 -0.000  0.002
  0.046  0.000 -0.000  0.379 -0.000
  0.000 -0.000  0.002 -0.000  0.192
atom   10   Tr[ns(na)] =   2.68274
    eigenvalues: 
  0.142  0.205  0.212  0.334  0.448
    eigenvectors:
  0.018  0.000  0.000  0.982  0.000
  0.000  0.000  1.000  0.000  0.000
  0.000  1.000  0.000  0.000  0.000
  0.982  0.000  0.000  0.018  0.000
  0.000  0.000  0.000  0.000  1.000
    occupations:
  0.331  0.001 -0.000 -0.026 -0.000
  0.001  0.212 -0.000  0.000 -0.000
 -0.000 -0.000  0.205 -0.000 -0.001
 -0.026  0.000 -0.000  0.146  0.000
 -0.000 -0.000 -0.001  0.000  0.448
atom   16   Tr[ns(na)] =   2.67993
    eigenvalues: 
  0.146  0.162  0.185  0.399  0.447
    eigenvectors:
  0.059  0.714  0.051  0.159  0.016
  0.003  0.004  0.003  0.220  0.771
  0.616  0.005  0.379  0.000  0.000
  0.016  0.144  0.008  0.620  0.212
  0.306  0.133  0.558  0.001  0.002
    occupations:
  0.205 -0.013 -0.004  0.091 -0.003
 -0.013  0.434 -0.003  0.028  0.013
 -0.004 -0.003  0.161  0.007  0.017
  0.091  0.028  0.007  0.369  0.001
 -0.003  0.013  0.017  0.001  0.171
atom   17   Tr[ns(na)] =   2.76444
    eigenvalues: 
  0.137  0.186  0.196  0.421  0.443
    eigenvectors:
  0.006  0.001  0.000  0.000  0.992
  0.000  0.894  0.105  0.000  0.001
  0.000  0.104  0.895  0.000  0.000
  0.994  0.000  0.000  0.000  0.006
  0.000  0.000  0.000  1.000  0.000
    occupations:
  0.441  0.009  0.004 -0.024 -0.000
  0.009  0.187 -0.003 -0.000 -0.002
  0.004 -0.003  0.195  0.000 -0.000
 -0.024 -0.000  0.000  0.139 -0.000
 -0.000 -0.002 -0.000 -0.000  0.421
atom   22   Tr[ns(na)] =   2.75960
    eigenvalues: 
  0.145  0.192  0.210  0.391  0.442
    eigenvectors:
  0.000  0.000  0.932  0.068  0.000
  0.000  0.000  0.000  0.000  1.000
  0.998  0.002  0.000  0.000  0.000
  0.000  0.000  0.068  0.932  0.000
  0.002  0.998  0.000  0.000  0.000
    occupations:
  0.222 -0.000 -0.000  0.046  0.000
 -0.000  0.442 -0.000 -0.000 -0.000
 -0.000 -0.000  0.145 -0.000 -0.002
  0.046 -0.000 -0.000  0.379 -0.000
  0.000 -0.000 -0.002 -0.000  0.192
atom   23   Tr[ns(na)] =   2.72735
    eigenvalues: 
  0.125  0.202  0.236  0.387  0.414
    eigenvectors:
  0.012  0.035  0.000  0.953  0.000
  0.002  0.961  0.000  0.037  0.000
  0.000  0.000  1.000  0.000  0.000
  0.986  0.004  0.000  0.010  0.000
  0.000  0.000  0.000  0.000  1.000
    occupations:
  0.377  0.035  0.000 -0.026 -0.000
  0.035  0.209 -0.000 -0.001 -0.000
  0.000 -0.000  0.236 -0.000 -0.000
 -0.026 -0.001 -0.000  0.127 -0.000
 -0.000 -0.000 -0.000 -0.000  0.414
N of occupied +U levels =  21.8246843
 --- exit write_ns ---

          k = 0.0000 0.0000 0.0000 ( 29975 PWs)   bands (ev):

   -61.0281 -60.9910 -60.8137 -60.3176 -60.0052 -59.9670 -59.7099 -59.6694
   -37.5013 -37.2620 -37.1853 -37.1574 -37.1496 -37.1217 -37.0638 -37.0105
   -36.9439 -36.6012 -36.5509 -36.4960 -36.4845 -36.3013 -36.2084 -36.1348
   -36.1270 -36.1032 -36.0607 -35.9707 -35.9454 -35.9397 -35.8603 -35.6817
   -21.5188 -21.1660 -20.5530 -20.3784 -20.2031 -19.9145 -19.5085 -19.3918
   -19.3239 -19.2874 -19.1860 -19.1356 -19.1284 -18.9883 -18.9548 -18.8264
   -18.5676 -18.1570 -18.0833  -9.2375  -8.8843  -8.2942  -7.8931  -7.7891
    -7.4683  -7.4064  -7.3675  -6.9226  -6.7943  -6.7281  -6.6494  -6.5954
    -6.5569  -6.5231  -6.3919  -6.3514  -6.3434  -6.1906  -6.1082  -6.0470
    -5.9465  -5.8050  -5.6765  -5.5783  -5.3983  -5.2795  -5.1600  -5.0771
    -4.9961  -4.8679  -4.7644  -4.7443  -4.6751  -4.5413  -4.4571  -4.3085
    -4.2076  -4.1540  -4.0889  -4.0540  -4.0185  -3.9104  -3.8030  -3.7437
    -3.6790  -3.6311  -3.4997  -3.4146  -3.2557  -3.1838  -3.1560  -3.0643
    -2.8042  -2.7700  -2.7502  -2.4863  -0.2197   0.0871   0.1346   0.1667
     0.2911   0.3170   0.4587   0.6020   0.8424   0.9041   0.9928   1.0420
     1.1891   1.1946   1.2259   1.4426   1.4475   1.4767   1.4960   1.5581
     1.6572   1.7166   1.8111   1.8953   2.0421   2.0900   2.2731   2.2784
     2.3034   2.4769   2.5064   2.6975   2.8435   3.0997   3.1593   3.2261
     3.2419   3.4367   3.6818   3.7564   3.8500   3.9759   4.1938   4.3613
     4.6269   5.3903   5.6065   5.8623   6.2108   6.4287   6.6884   6.7881
     6.8154   6.8730   7.0228   7.1740   7.2146   7.4648   7.6605   7.7210
     7.8119   7.8885   7.8996   7.9798   8.0934   8.2217   8.3217   8.4137
     8.4596   8.5279   8.6816   8.7620   8.9008   8.9217   8.9852   9.0126
     9.1908   9.2407   9.3366   9.4071   9.4897   9.8196   9.8465   9.9987
    10.0304  10.1436  10.2831  10.4211  10.4606  10.4664  10.7485  10.8207
    10.8610  10.8708  11.0046  11.0651  11.1167  11.2090  11.3251  11.3561
    11.3735  11.4139  11.4201  11.5495  11.5810  11.6319  11.6567  11.7136
    11.8149  11.8365  11.8708  11.9586  12.0303  12.1222  12.2158  12.2437
    12.3150  12.3588  12.4530  12.4639  12.5174  12.5614  12.7605  12.8569
    12.8937  12.9729  13.1036  13.1651  13.3416  13.3791  13.4391  13.6049
    13.6375  13.7463  13.7792  13.7902  13.8444  13.9729  14.1035  14.1284
    14.2374  14.3711  14.3864  14.5455  14.5914  14.6593  14.7674  14.8698
    14.9047  15.0233  15.1252  15.1750  15.3403  15.4206  15.4850  15.5477
    15.6000  15.7291  15.8249  16.0279  16.1209  16.1435  16.3591  16.3960
    16.4427  16.5193  16.6492  16.6955  16.7653  16.8520  17.0207  17.1013
    17.1390  17.1724  17.1961  17.3540  17.5106  17.5692  17.5716  17.6132
    17.6915  17.7613  17.7841  17.8784  18.0150  18.0405  18.0966  18.1035
    18.1544  18.2514  18.3880  18.4177  18.4739  18.5082  18.5296  18.6842
    18.7826  18.8591  18.9568  19.0146  19.0624  19.0876

          k = 0.0000 0.2258 0.0000 ( 29933 PWs)   bands (ev):

   -61.0282 -60.9910 -60.8136 -60.3176 -60.0053 -59.9668 -59.7101 -59.6694
   -37.5015 -37.2619 -37.1853 -37.1551 -37.1496 -37.1237 -37.0637 -37.0112
   -36.9430 -36.6012 -36.5488 -36.4963 -36.4834 -36.3038 -36.2085 -36.1346
   -36.1271 -36.1031 -36.0607 -35.9729 -35.9454 -35.9388 -35.8604 -35.6818
   -21.5085 -21.1650 -20.5339 -20.3742 -20.1825 -19.8326 -19.5040 -19.4957
   -19.3553 -19.2601 -19.2455 -19.1441 -19.1062 -19.0337 -19.0100 -18.7536
   -18.5681 -18.1543 -18.0834  -9.2383  -8.8838  -8.2947  -7.7652  -7.6507
    -7.3649  -7.3487  -7.2102  -7.0259  -6.9166  -6.7887  -6.6594  -6.6469
    -6.4042  -6.3937  -6.3698  -6.3306  -6.1869  -6.1448  -5.9854  -5.9622
    -5.8950  -5.8415  -5.6755  -5.5022  -5.4360  -5.3225  -5.2257  -5.1416
    -5.0877  -4.9567  -4.8640  -4.8254  -4.7069  -4.5946  -4.5334  -4.4742
    -4.2139  -4.1503  -4.1382  -4.1108  -3.9856  -3.9400  -3.9010  -3.8342
    -3.7392  -3.5903  -3.4803  -3.4026  -3.3041  -3.2859  -3.2631  -3.1753
    -2.9440  -2.7903  -2.7480  -2.5353  -0.1694   0.0849   0.1079   0.2775
     0.4113   0.4437   0.6040   0.6045   0.8197   0.8653   0.9859   1.0085
     1.1782   1.2534   1.2886   1.4135   1.4538   1.5343   1.5724   1.6709
     1.6763   1.7278   1.7367   1.8415   1.8816   2.0546   2.1364   2.1998
     2.3458   2.4855   2.5830   2.6710   3.0775   3.1655   3.2466   3.3764
     3.4899   3.6277   3.6612   3.8200   3.9030   4.0180   4.3567   4.3670
     4.8009   5.0385   5.3626   5.6220   5.7081   5.9205   6.2163   6.3144
     6.6634   6.9388   6.9988   7.0693   7.3502   7.5339   7.6901   7.7412
     7.9365   7.9928   8.0930   8.1546   8.3260   8.4702   8.5249   8.5697
     8.6758   8.7372   8.8398   8.9642   9.0767   9.1301   9.1793   9.2496
     9.2992   9.4161   9.4638   9.5556   9.5867   9.6678   9.7745   9.8429
     9.8863  10.0298  10.0550  10.1635  10.2030  10.2739  10.4325  10.5997
    10.6549  10.6931  10.7897  10.8232  10.8828  11.0038  11.0523  11.1252
    11.1724  11.2535  11.4084  11.5311  11.6481  11.7330  11.8199  11.8623
    11.9647  12.0245  12.1265  12.2016  12.2607  12.4360  12.5470  12.5970
    12.6879  12.7149  12.7773  12.8951  12.9625  13.0642  13.1557  13.1951
    13.2348  13.2907  13.3528  13.4162  13.6011  13.6302  13.6792  13.7105
    13.7791  13.8303  13.8990  13.9777  14.0064  14.0560  14.1335  14.1957
    14.2565  14.3466  14.3960  14.4955  14.5501  14.5853  14.6539  14.7769
    14.8105  14.9017  14.9898  15.0786  15.1279  15.2220  15.2875  15.3492
    15.3992  15.4767  15.5619  15.6371  15.7455  15.8485  15.9774  16.0593
    16.0899  16.1560  16.3094  16.3670  16.4582  16.5649  16.6593  16.7743
    16.8803  16.9471  17.0212  17.1010  17.1856  17.3001  17.3086  17.4782
    17.6071  17.6692  17.7138  17.9337  18.0102  18.0757  18.0997  18.1610
    18.2561  18.2757  18.3625  18.3965  18.5151  18.5377  18.5970  18.6638
    18.7534  18.8120  18.8385  18.8889  18.9349  19.0465

          k = 0.0000-0.4516 0.0000 ( 29906 PWs)   bands (ev):

   -61.0284 -60.9909 -60.8136 -60.3175 -60.0054 -59.9667 -59.7102 -59.6693
   -37.5018 -37.2619 -37.1853 -37.1528 -37.1496 -37.1256 -37.0637 -37.0119
   -36.9422 -36.6012 -36.5467 -36.4966 -36.4824 -36.3063 -36.2087 -36.1344
   -36.1271 -36.1031 -36.0607 -35.9752 -35.9453 -35.9377 -35.8604 -35.6818
   -21.4982 -21.1639 -20.5150 -20.3704 -20.1572 -19.7047 -19.5687 -19.4515
   -19.4107 -19.3518 -19.3023 -19.2438 -19.0799 -19.0437 -18.9608 -18.7216
   -18.5687 -18.1519 -18.0834  -9.2375  -8.8834  -8.2951  -7.7394  -7.4857
    -7.3617  -7.1853  -7.0985  -6.9139  -6.9093  -6.8644  -6.6578  -6.5229
    -6.3506  -6.3488  -6.3199  -6.2840  -6.0485  -6.0277  -5.9851  -5.8876
    -5.8363  -5.6735  -5.6536  -5.5979  -5.5597  -5.4850  -5.3317  -5.2806
    -5.1900  -5.0521  -4.9906  -4.9614  -4.7420  -4.7356  -4.5887  -4.4249
    -4.3643  -4.2720  -4.1742  -4.1016  -4.0364  -3.9995  -3.9013  -3.7485
    -3.7347  -3.5452  -3.5260  -3.4158  -3.4035  -3.3668  -3.3228  -3.1801
    -3.0764  -2.7869  -2.7381  -2.5660  -0.1513  -0.0498   0.0773   0.3323
     0.4400   0.5942   0.6071   0.8037   0.8427   0.9321   0.9547   1.0174
     1.1714   1.3767   1.3904   1.4269   1.4636   1.4999   1.5559   1.5850
     1.5869   1.6847   1.7336   1.8709   1.9546   2.0335   2.0843   2.2594
     2.3818   2.5286   2.6473   2.6666   2.9948   3.0127   3.4827   3.5393
     3.6848   3.7615   3.7953   3.9741   4.0604   4.2303   4.3704   4.4983
     4.5579   4.7713   4.9735   5.2691   5.4720   5.8309   6.1237   6.3371
     6.4525   6.6518   6.7893   7.1877   7.2634   7.3569   7.4394   7.8108
     7.9268   8.1919   8.4139   8.4670   8.5304   8.5929   8.6589   8.7046
     8.7673   8.8052   8.8201   8.9388   9.0341   9.0896   9.1806   9.2163
     9.2431   9.3112   9.3394   9.4804   9.5900   9.6892   9.7910   9.8157
     9.9289  10.0098  10.0250  10.3209  10.4450  10.5039  10.5736  10.6744
    10.6988  10.7579  10.8522  10.9717  11.1143  11.1929  11.2287  11.3291
    11.4024  11.4579  11.5012  11.5256  11.6183  11.6698  11.8115  11.8766
    11.9643  12.0531  12.1250  12.1886  12.2731  12.3123  12.4593  12.5381
    12.6425  12.7454  12.8089  12.9389  12.9532  12.9913  13.0268  13.1837
    13.2053  13.2669  13.2927  13.4034  13.5046  13.5659  13.6019  13.6986
    13.7510  13.8156  13.9412  14.0698  14.1907  14.2700  14.3488  14.4043
    14.4527  14.5518  14.6368  14.7333  14.7702  14.8520  14.9028  15.0011
    15.0899  15.1955  15.2478  15.2945  15.3598  15.3829  15.4724  15.5262
    15.6288  15.6515  15.6840  15.7178  15.7959  15.8020  15.8565  15.8845
    15.9862  16.0635  16.1836  16.2191  16.2582  16.2959  16.3943  16.4196
    16.4639  16.6717  16.7631  16.8898  16.9177  17.0395  17.1199  17.2344
    17.2968  17.3593  17.4729  17.5340  17.5827  17.6536  17.6905  17.7619
    17.7808  17.7977  17.8986  17.9244  17.9556  18.0356  18.0830  18.2329
    18.3751  18.4327  18.5482  18.6470  18.7124  18.8464

          k = 0.2500 0.0000 0.0000 ( 29937 PWs)   bands (ev):

   -61.0237 -60.9972 -60.8140 -60.3183 -60.0006 -59.9735 -59.7053 -59.6755
   -37.4443 -37.2503 -37.2087 -37.1522 -37.1473 -37.1267 -37.1128 -36.9884
   -36.9424 -36.6033 -36.5149 -36.4889 -36.4861 -36.2880 -36.2220 -36.1885
   -36.0983 -36.0865 -36.0524 -35.9673 -35.9428 -35.9363 -35.8700 -35.7446
   -21.4460 -21.1822 -20.5625 -20.3753 -20.1042 -19.8196 -19.5301 -19.4379
   -19.3323 -19.3242 -19.2426 -19.1795 -19.0918 -19.0438 -18.8695 -18.8572
   -18.5554 -18.1962 -18.1569  -9.2077  -8.9540  -8.2971  -7.7551  -7.6028
    -7.5176  -7.3596  -7.2143  -6.9314  -6.8903  -6.7673  -6.7392  -6.6641
    -6.6364  -6.4890  -6.3985  -6.3351  -6.2882  -6.1959  -6.1574  -6.0053
    -5.8478  -5.7425  -5.5614  -5.4849  -5.2771  -5.1469  -5.0943  -5.0441
    -4.9275  -4.8776  -4.8088  -4.6945  -4.6273  -4.5660  -4.4599  -4.3968
    -4.3760  -4.2647  -4.2096  -4.1564  -4.1288  -3.8989  -3.8884  -3.8445
    -3.7405  -3.6984  -3.5427  -3.4490  -3.4032  -3.2028  -3.1688  -3.0671
    -2.8756  -2.7897  -2.7814  -2.5669  -0.0775   0.0494   0.2297   0.2906
     0.3108   0.3950   0.4344   0.6548   0.7923   0.9145   1.0051   1.0659
     1.1125   1.1327   1.1816   1.2508   1.3116   1.3737   1.4542   1.6972
     1.7601   1.8123   1.8454   1.9098   2.1134   2.1763   2.2410   2.3293
     2.3784   2.4597   2.5108   2.7438   3.1280   3.1645   3.1919   3.2237
     3.2367   3.4368   3.5333   3.7537   3.9468   3.9585   4.1454   4.4512
     4.9083   5.1645   5.5424   5.7024   6.0002   6.0952   6.1807   6.4862
     6.8301   6.9519   6.9702   7.0236   7.1959   7.3179   7.4364   7.4864
     7.5575   7.8382   7.9036   8.0012   8.0673   8.3034   8.3584   8.5178
     8.6152   8.7361   8.8460   8.9212   9.0361   9.0922   9.1656   9.2124
     9.3025   9.3625   9.4287   9.5436   9.5803   9.6014   9.6951   9.8485
     9.8991  10.0810  10.1759  10.2838  10.3363  10.3676  10.4962  10.6168
    10.6771  10.7091  10.8072  10.8564  10.9951  11.0494  11.0951  11.2533
    11.3065  11.3699  11.5393  11.6183  11.6654  11.7126  11.8344  11.8440
    11.8703  11.9677  12.1101  12.1907  12.2491  12.3858  12.4253  12.5826
    12.6772  12.7021  12.7885  12.8758  13.0417  13.1281  13.1418  13.2674
    13.3923  13.5183  13.5678  13.6160  13.7189  13.7589  13.8164  13.8641
    13.9139  13.9734  14.0396  14.1200  14.1360  14.3575  14.4246  14.4553
    14.4820  14.5849  14.6897  14.7342  14.7964  14.8523  14.9270  15.0030
    15.0881  15.1994  15.2752  15.3667  15.4748  15.5486  15.5634  15.6452
    15.7037  15.8143  15.8360  15.8965  16.0925  16.1495  16.1885  16.2121
    16.3617  16.4027  16.4784  16.5112  16.6357  16.7187  16.7921  16.8785
    16.9411  16.9971  17.0304  17.1398  17.1760  17.3309  17.3719  17.4077
    17.4600  17.5799  17.6126  17.7112  17.7787  17.8529  17.8996  18.0001
    18.0704  18.0931  18.1914  18.2538  18.2647  18.3299  18.3826  18.4508
    18.5355  18.6209  18.6908  18.7568  18.8422  18.9304

          k = 0.2500 0.2258 0.0000 ( 29912 PWs)   bands (ev):

   -61.0238 -60.9972 -60.8140 -60.3183 -60.0007 -59.9734 -59.7054 -59.6755
   -37.4445 -37.2503 -37.2087 -37.1505 -37.1473 -37.1279 -37.1128 -36.9890
   -36.9416 -36.6034 -36.5154 -36.4872 -36.4849 -36.2901 -36.2225 -36.1882
   -36.0983 -36.0865 -36.0523 -35.9689 -35.9423 -35.9363 -35.8700 -35.7446
   -21.4385 -21.1810 -20.5506 -20.3721 -20.0721 -19.7421 -19.5391 -19.4376
   -19.3689 -19.3405 -19.2602 -19.1364 -19.1098 -19.0832 -19.0655 -18.7435
   -18.5555 -18.1950 -18.1563  -9.2051  -8.9472  -8.2975  -7.5991  -7.5444
    -7.4306  -7.1954  -7.1110  -6.9792  -6.7760  -6.7364  -6.6592  -6.6168
    -6.6101  -6.4702  -6.4022  -6.3636  -6.1975  -6.1812  -6.1479  -5.9682
    -5.8621  -5.7432  -5.6814  -5.4907  -5.2593  -5.1331  -5.0845  -5.0340
    -4.9747  -4.9365  -4.8719  -4.8205  -4.7006  -4.6538  -4.5831  -4.5400
    -4.5131  -4.4154  -4.2657  -4.1881  -4.1406  -4.0314  -3.9274  -3.8352
    -3.7916  -3.6313  -3.5625  -3.4712  -3.3861  -3.2514  -3.1926  -3.1269
    -2.9616  -2.7796  -2.7671  -2.5728  -0.0598   0.0820   0.1736   0.2873
     0.3581   0.5979   0.6036   0.7043   0.7811   0.8801   0.9816   1.0542
     1.1842   1.2301   1.2697   1.3502   1.3967   1.4235   1.4688   1.6630
     1.7680   1.7838   1.8695   1.8826   1.9480   2.0618   2.1915   2.2462
     2.3187   2.4279   2.5428   2.7869   2.9228   3.1712   3.2937   3.3801
     3.5277   3.5770   3.6133   3.7755   4.0077   4.1409   4.1778   4.6157
     5.0516   5.2942   5.3178   5.5642   5.7963   5.9774   6.0648   6.2346
     6.3246   6.4977   6.6347   6.9202   6.9966   7.2519   7.3819   7.5307
     7.6264   7.8533   7.9132   7.9678   8.0470   8.1001   8.2815   8.4334
     8.4835   8.5837   8.7144   8.8421   9.0059   9.0713   9.2664   9.3494
     9.3754   9.4790   9.5792   9.7108   9.7626   9.8274  10.0127  10.0973
    10.1553  10.2893  10.3869  10.4581  10.5557  10.6469  10.7857  10.8226
    10.9063  10.9513  11.0525  11.1076  11.2409  11.2865  11.4126  11.4791
    11.5089  11.5494  11.6611  11.7152  11.8148  11.8987  11.9572  12.0098
    12.0814  12.1758  12.2280  12.2830  12.3523  12.4034  12.4985  12.5943
    12.6310  12.7423  12.8251  12.8974  12.9344  13.0109  13.0998  13.1565
    13.3039  13.3532  13.4496  13.5294  13.6481  13.7417  13.7939  13.8715
    13.9217  13.9766  14.0314  14.1407  14.1817  14.2802  14.3463  14.4075
    14.4915  14.5889  14.6229  14.6787  14.7297  14.7899  14.8482  14.9272
    15.0318  15.1526  15.2220  15.2509  15.3095  15.3776  15.4542  15.5479
    15.6017  15.6556  15.7332  15.8202  15.8872  15.9491  15.9974  16.0631
    16.1706  16.2335  16.3222  16.3806  16.4933  16.5516  16.6462  16.6884
    16.7584  16.7833  16.8313  16.8741  16.9169  17.0436  17.0809  17.1249
    17.1729  17.2885  17.3241  17.3778  17.4798  17.5020  17.5869  17.6182
    17.7109  17.8065  17.8838  17.9599  18.0307  18.1107  18.2386  18.2563
    18.3501  18.4619  18.5087  18.5218  18.6096  18.7004

          k = 0.2500-0.4516 0.0000 ( 29882 PWs)   bands (ev):

   -61.0239 -60.9972 -60.8140 -60.3182 -60.0007 -59.9733 -59.7056 -59.6755
   -37.4447 -37.2503 -37.2087 -37.1489 -37.1471 -37.1290 -37.1129 -36.9897
   -36.9409 -36.6035 -36.5159 -36.4856 -36.4837 -36.2922 -36.2230 -36.1880
   -36.0983 -36.0864 -36.0522 -35.9705 -35.9418 -35.9363 -35.8700 -35.7446
   -21.4311 -21.1797 -20.5390 -20.3691 -20.0327 -19.6382 -19.5283 -19.4077
   -19.4019 -19.3786 -19.3018 -19.2626 -19.1370 -19.0991 -19.0663 -18.7096
   -18.5555 -18.1942 -18.1557  -9.2015  -8.9418  -8.2980  -7.5649  -7.5269
    -7.2056  -7.0889  -6.8998  -6.7862  -6.7485  -6.6827  -6.6501  -6.6101
    -6.5987  -6.4858  -6.3710  -6.3102  -6.1205  -6.0919  -6.0185  -5.9482
    -5.8283  -5.7877  -5.6710  -5.4818  -5.4015  -5.3397  -5.1921  -5.1419
    -5.1123  -5.0579  -5.0257  -4.8642  -4.8218  -4.7830  -4.7302  -4.6344
    -4.5549  -4.5197  -4.2741  -4.2162  -4.1627  -4.0665  -4.0231  -3.8503
    -3.6973  -3.5710  -3.4873  -3.4708  -3.3786  -3.3227  -3.1755  -3.1492
    -3.0713  -2.7956  -2.7486  -2.5883  -0.0521   0.0424   0.1145   0.3010
     0.3981   0.6262   0.7039   0.7671   0.8746   0.8868   1.0912   1.1025
     1.2628   1.3452   1.3536   1.4328   1.4735   1.5034   1.5400   1.5703
     1.6021   1.6533   1.8665   1.9318   1.9345   2.0505   2.0613   2.1979
     2.3038   2.4618   2.6059   2.6315   2.8268   3.0671   3.2143   3.5794
     3.7341   3.7802   3.9002   3.9151   4.0843   4.1223   4.4827   4.7620
     4.8227   5.0419   5.2394   5.5018   5.5399   5.7259   6.0738   6.1758
     6.3991   6.5363   6.7704   6.8137   6.9258   6.9729   7.0830   7.1505
     7.3074   7.5596   7.6179   7.7407   7.9412   8.1423   8.1525   8.3195
     8.4274   8.5558   8.6958   8.8753   8.9676   9.0140   9.1713   9.4956
     9.5565   9.6645   9.7288   9.8756   9.9321  10.0623  10.0896  10.3774
    10.5306  10.7568  10.8161  10.8514  10.9896  11.0287  11.1039  11.1480
    11.1985  11.2429  11.3533  11.4438  11.5134  11.5638  11.5964  11.6522
    11.6978  11.7446  11.8085  11.8424  11.9627  12.0209  12.0556  12.1250
    12.1863  12.2725  12.2984  12.3610  12.4142  12.5129  12.5897  12.6271
    12.6618  12.7357  12.8533  12.9685  12.9949  13.0324  13.1358  13.2028
    13.2804  13.3767  13.4484  13.4904  13.5523  13.6130  13.6789  13.7237
    13.8001  13.8386  13.8482  13.8832  13.9194  13.9849  14.1290  14.2023
    14.2925  14.4011  14.4290  14.5194  14.5757  14.6716  14.7432  14.8201
    14.8443  14.9033  14.9487  15.0283  15.0517  15.1321  15.2085  15.2410
    15.2995  15.3750  15.4988  15.5783  15.6535  15.6771  15.7585  15.8324
    15.8496  15.9529  16.1134  16.2061  16.3971  16.4896  16.5836  16.6426
    16.7135  16.8539  16.8948  16.9035  17.0282  17.1073  17.1782  17.2115
    17.2477  17.3185  17.3888  17.4195  17.5227  17.5416  17.6380  17.6691
    17.6924  17.7706  17.8929  17.9633  18.0053  18.0383  18.1077  18.1807
    18.2463  18.2896  18.3675  18.4202  18.4930  18.5360

          k =-0.5000 0.0000 0.0000 ( 29982 PWs)   bands (ev):

   -61.0137 -61.0090 -60.8144 -60.3190 -59.9891 -59.9869 -59.6969 -59.6854
   -37.3238 -37.3039 -37.2050 -37.1880 -37.1444 -37.1414 -37.1366 -36.9645
   -36.9408 -36.6071 -36.5344 -36.4878 -36.3420 -36.3361 -36.2573 -36.2524
   -36.0854 -36.0852 -35.9627 -35.9470 -35.9451 -35.9328 -35.8763 -35.8645
   -21.3359 -21.2327 -20.5807 -20.3715 -19.8732 -19.7972 -19.5789 -19.5426
   -19.3889 -19.3146 -19.2410 -19.1805 -19.1766 -19.0083 -18.9519 -18.6570
   -18.6303 -18.2546 -18.2257  -9.1703  -9.0270  -8.3000  -7.5937  -7.4393
    -7.4180  -7.1740  -7.1315  -7.0650  -7.0077  -6.9991  -6.9632  -6.7924
    -6.5788  -6.4970  -6.3083  -6.2747  -6.1832  -6.0552  -5.9013  -5.8314
    -5.7522  -5.5190  -5.4599  -5.3998  -5.3852  -5.2869  -5.2709  -5.2241
    -5.0152  -4.9128  -4.8017  -4.7562  -4.6670  -4.5506  -4.4725  -4.2872
    -4.2790  -4.2544  -4.1957  -4.1849  -4.1646  -4.1243  -4.0426  -4.0144
    -3.8491  -3.6667  -3.5552  -3.5409  -3.4834  -3.4764  -2.9632  -2.9493
    -2.9033  -2.8516  -2.7680  -2.7303  -0.0378   0.1009   0.2486   0.3327
     0.3451   0.5874   0.6341   0.6600   0.7402   0.8427   0.9281   0.9823
     1.0046   1.0654   1.1288   1.1683   1.2299   1.2979   1.5007   1.7865
     1.8117   1.8476   1.9186   1.9469   2.0433   2.2132   2.2288   2.2406
     2.5106   2.5299   2.6663   2.8308   3.1635   3.1930   3.2061   3.2244
     3.2708   3.3022   3.7568   3.8639   4.0226   4.1088   4.1910   4.6459
     4.7497   4.8663   5.1827   5.3307   5.6797   5.8225   6.2889   6.4416
     6.6290   6.8537   6.9002   7.0252   7.3956   7.4121   7.5631   7.7253
     7.7319   7.9599   7.9767   8.0265   8.1828   8.2044   8.2359   8.2841
     8.4010   8.4223   8.6166   8.7153   8.7936   8.8925   8.9216   8.9845
     9.1082   9.2813   9.4382   9.4817   9.6718   9.7452   9.8156   9.8704
     9.9177   9.9986  10.0394  10.1456  10.2428  10.2863  10.4641  10.5118
    10.7070  10.8427  10.9217  10.9800  11.0469  11.1280  11.2390  11.5309
    11.5657  11.6618  11.7725  11.8621  11.9333  11.9722  12.0187  12.1442
    12.2532  12.2667  12.3778  12.5594  12.7018  12.7421  12.8449  12.8724
    12.9382  13.0322  13.0400  13.1907  13.2396  13.2763  13.3503  13.4298
    13.4928  13.5672  13.6604  13.7488  13.8759  13.9071  13.9339  14.0311
    14.0832  14.1910  14.2490  14.2859  14.3680  14.3987  14.4432  14.5641
    14.6344  14.7385  14.7922  14.9656  15.0866  15.2082  15.2846  15.3286
    15.3965  15.4286  15.4970  15.5357  15.5975  15.6939  15.7758  15.8195
    15.8985  15.9134  15.9745  16.1176  16.1875  16.2301  16.3321  16.3742
    16.4363  16.5634  16.5970  16.6051  16.6511  16.6675  16.6803  16.7410
    16.7843  16.8439  16.8695  16.9164  17.0034  17.0446  17.0702  17.1994
    17.2739  17.3320  17.4375  17.5700  17.6151  17.6487  17.7340  17.8238
    17.8744  17.9546  17.9964  18.0501  18.0856  18.1457  18.2765  18.2903
    18.4019  18.4321  18.4877  18.5005  18.5456  18.5838

          k =-0.5000 0.2258 0.0000 ( 29954 PWs)   bands (ev):

   -61.0137 -61.0091 -60.8143 -60.3190 -59.9891 -59.9869 -59.6970 -59.6854
   -37.3240 -37.3040 -37.2051 -37.1880 -37.1444 -37.1411 -37.1362 -36.9650
   -36.9402 -36.6074 -36.5351 -36.4864 -36.3412 -36.3353 -36.2586 -36.2537
   -36.0854 -36.0852 -35.9632 -35.9476 -35.9450 -35.9328 -35.8763 -35.8645
   -21.3331 -21.2298 -20.5738 -20.3692 -19.8159 -19.7675 -19.5384 -19.4862
   -19.4078 -19.3249 -19.2439 -19.2187 -19.1937 -19.0978 -19.0504 -18.6403
   -18.6169 -18.2535 -18.2228  -9.1622  -9.0187  -8.3005  -7.5939  -7.2538
    -7.2204  -7.1552  -7.0472  -6.9906  -6.8927  -6.8512  -6.8089  -6.6904
    -6.4971  -6.4372  -6.3389  -6.2630  -6.1373  -6.0690  -6.0230  -5.8885
    -5.7183  -5.6879  -5.6205  -5.5404  -5.4497  -5.3341  -5.2730  -5.1539
    -5.0135  -5.0033  -4.8762  -4.7490  -4.6825  -4.6085  -4.5896  -4.5250
    -4.4924  -4.3774  -4.3458  -4.3257  -4.1915  -4.1704  -4.0776  -3.9622
    -3.8732  -3.7048  -3.5125  -3.4941  -3.3950  -3.3216  -3.0238  -2.9767
    -2.9502  -2.8986  -2.7412  -2.6926  -0.0154   0.1168   0.2381   0.2905
     0.3218   0.6575   0.6919   0.7141   0.8479   0.9465   1.0428   1.0529
     1.0825   1.1186   1.1685   1.3192   1.3389   1.4258   1.4849   1.7066
     1.7530   1.7620   1.9629   1.9678   1.9807   2.1089   2.2783   2.3123
     2.3286   2.4452   2.4713   2.5010   3.0500   3.0817   3.2864   3.3163
     3.4816   3.4915   3.8828   3.9565   4.1670   4.2492   4.2690   4.8476
     4.9549   5.0585   5.3518   5.4902   5.7568   5.8493   6.0809   6.1634
     6.3074   6.5196   6.6583   6.7311   6.8219   6.8936   6.9758   7.1223
     7.2407   7.3392   7.6216   7.7703   7.9231   8.0900   8.1939   8.4094
     8.4949   8.5862   8.6633   8.7729   8.9148   9.0256   9.1338   9.3774
     9.6638   9.7201   9.8302   9.8946   9.9807  10.0079  10.0655  10.1383
    10.1879  10.2483  10.4028  10.4512  10.5965  10.7491  10.8430  10.9103
    10.9640  11.0166  11.1091  11.2409  11.3497  11.3994  11.5605  11.6047
    11.6346  11.8823  11.9377  11.9661  12.0654  12.1121  12.2342  12.2883
    12.3689  12.4719  12.5498  12.7593  12.7769  12.8842  12.9103  13.0562
    13.1416  13.2132  13.2485  13.3087  13.3727  13.4460  13.4659  13.5023
    13.5367  13.5533  13.6093  13.6832  13.7234  13.8841  13.9788  14.0337
    14.0882  14.1513  14.1952  14.2733  14.2888  14.3422  14.3997  14.4567
    14.5216  14.6087  14.7018  14.8878  14.9083  14.9667  15.0577  15.1003
    15.1236  15.1984  15.2479  15.2591  15.3231  15.3589  15.4044  15.4135
    15.4450  15.4964  15.5523  15.5994  15.6722  15.7092  15.7381  15.7946
    15.8528  15.8971  15.9760  16.0749  16.1555  16.2354  16.2467  16.3143
    16.3557  16.4620  16.5222  16.6560  16.6944  16.7253  16.7856  16.8132
    16.8804  16.9243  17.1273  17.1843  17.2372  17.2548  17.3418  17.4156
    17.5117  17.5577  17.6753  17.7466  17.8058  17.8950  17.9752  18.1608
    18.2061  18.3545  18.4083  18.4408  18.5385  18.5908

          k =-0.5000-0.4516 0.0000 ( 29868 PWs)   bands (ev):

   -61.0138 -61.0091 -60.8143 -60.3189 -59.9890 -59.9869 -59.6970 -59.6855
   -37.3241 -37.3041 -37.2051 -37.1880 -37.1444 -37.1407 -37.1359 -36.9655
   -36.9395 -36.6076 -36.5357 -36.4850 -36.3403 -36.3344 -36.2599 -36.2549
   -36.0854 -36.0851 -35.9637 -35.9480 -35.9450 -35.9328 -35.8762 -35.8644
   -21.3304 -21.2270 -20.5669 -20.3670 -19.7311 -19.7152 -19.5938 -19.3620
   -19.3476 -19.3182 -19.2684 -19.2494 -19.2388 -19.2115 -19.1925 -18.6286
   -18.6065 -18.2525 -18.2201  -9.1541  -9.0105  -8.3010  -7.5959  -7.1791
    -7.1229  -7.1082  -6.8075  -6.7838  -6.7276  -6.6057  -6.5601  -6.4651
    -6.4454  -6.3532  -6.3375  -6.2557  -6.2023  -6.1591  -6.0632  -6.0250
    -5.8276  -5.8009  -5.7467  -5.7195  -5.4985  -5.3884  -5.2903  -5.1071
    -5.0833  -5.0722  -5.0416  -4.9289  -4.8844  -4.8175  -4.7272  -4.6633
    -4.5491  -4.5200  -4.4853  -4.2835  -4.2200  -4.1815  -4.0093  -3.9739
    -3.9105  -3.6775  -3.4614  -3.3383  -3.3131  -3.2540  -3.1087  -3.0769
    -2.9480  -2.9029  -2.7031  -2.6847   0.0070   0.1501   0.2416   0.2474
     0.2924   0.6497   0.7160   0.7446   0.8906   0.9727   1.1536   1.2457
     1.2576   1.2721   1.3027   1.3816   1.4344   1.6034   1.6061   1.6227
     1.7586   1.8238   1.8386   1.8633   1.9507   2.0587   2.0664   2.0765
     2.1275   2.1753   2.4446   2.5485   3.1282   3.1555   3.2068   3.2920
     3.5720   3.6010   4.0030   4.0575   4.2709   4.5349   4.5447   5.2272
     5.2294   5.3320   5.4950   5.5674   5.5960   5.6513   5.7711   5.8650
     5.9952   6.1057   6.2715   6.3701   6.4781   6.6484   6.8695   7.0062
     7.1422   7.3679   7.4103   7.6098   7.7105   7.8414   7.8912   7.9885
     8.1912   8.4500   8.6577   8.8495   8.9288   9.0802   9.3309   9.3870
     9.5376   9.6475   9.8250  10.1339  10.2041  10.2777  10.3583  10.5544
    10.5727  10.6423  10.6572  11.1276  11.1703  11.3775  11.5207  11.5345
    11.5858  11.6049  11.7333  11.7719  11.8660  11.9367  12.1331  12.1477
    12.2612  12.3172  12.3440  12.3714  12.4922  12.5015  12.5399  12.5518
    12.5877  12.6000  12.6526  12.7117  12.8165  12.8424  12.9070  12.9781
    12.9895  13.0214  13.0790  13.2677  13.3177  13.3284  13.3946  13.4241
    13.4887  13.5095  13.5621  13.6471  13.6729  13.7274  13.7440  13.7853
    13.8173  13.9450  14.0175  14.0528  14.0649  14.1256  14.1822  14.2220
    14.2888  14.3412  14.3612  14.3769  14.4135  14.4490  14.4923  14.5279
    14.5795  14.6470  14.7973  14.8136  14.8859  14.9333  14.9629  15.0450
    15.1090  15.1690  15.1843  15.1925  15.3515  15.4838  15.5659  15.6128
    15.6414  15.6952  15.7438  15.7950  15.8814  15.9568  15.9931  16.0297
    16.0714  16.2023  16.2995  16.3781  16.4059  16.4518  16.5061  16.6104
    16.6458  16.9077  16.9711  17.0161  17.0628  17.1135  17.2348  17.2701
    17.3793  17.4471  17.5108  17.5392  17.5888  17.7933  17.8631  17.9287
    17.9546  18.0319  18.0809  18.1153  18.2118  18.2860

          k =-0.2500 0.2258 0.0000 ( 29912 PWs)   bands (ev):

   -61.0238 -60.9972 -60.8140 -60.3183 -60.0007 -59.9734 -59.7054 -59.6755
   -37.4445 -37.2503 -37.2087 -37.1505 -37.1473 -37.1278 -37.1129 -36.9890
   -36.9416 -36.6034 -36.5154 -36.4873 -36.4849 -36.2900 -36.2225 -36.1883
   -36.0983 -36.0865 -36.0523 -35.9689 -35.9423 -35.9363 -35.8700 -35.7446
   -21.4386 -21.1809 -20.5506 -20.3721 -20.0723 -19.7420 -19.5360 -19.4355
   -19.3760 -19.3412 -19.2601 -19.1344 -19.1052 -19.0902 -19.0623 -18.7435
   -18.5555 -18.1950 -18.1563  -9.2050  -8.9488  -8.2975  -7.5843  -7.5475
    -7.4342  -7.2025  -7.1111  -6.9836  -6.7684  -6.7558  -6.6740  -6.6211
    -6.5900  -6.4486  -6.4299  -6.3488  -6.2474  -6.1700  -6.0919  -5.9270
    -5.8769  -5.7436  -5.6656  -5.4893  -5.2517  -5.1931  -5.1096  -5.0380
    -4.9803  -4.9390  -4.8660  -4.8065  -4.7283  -4.6885  -4.5782  -4.5534
    -4.4960  -4.3854  -4.2541  -4.1751  -4.1123  -4.0830  -3.9410  -3.8212
    -3.7354  -3.6292  -3.5484  -3.4705  -3.3810  -3.2603  -3.1787  -3.1392
    -2.9642  -2.8039  -2.7571  -2.5914  -0.0598   0.0853   0.1766   0.2871
     0.3587   0.5967   0.6043   0.7021   0.7798   0.8774   0.9833   1.0525
     1.1846   1.2302   1.2691   1.3517   1.3974   1.4231   1.4673   1.6648
     1.7686   1.7824   1.8689   1.8822   1.9462   2.0638   2.1925   2.2469
     2.3178   2.4274   2.5438   2.7869   2.9228   3.1734   3.2936   3.3796
     3.5247   3.5770   3.6126   3.7770   4.0088   4.1420   4.1767   4.6160
     5.0597   5.3059   5.3237   5.5590   5.8261   5.9155   6.1195   6.2294
     6.3091   6.4983   6.6003   6.9019   6.9933   7.2995   7.3535   7.5022
     7.6681   7.8027   7.9425   7.9688   8.0285   8.1341   8.2287   8.4256
     8.4987   8.6053   8.7874   8.8301   8.9541   9.0603   9.2747   9.3575
     9.4222   9.5028   9.5824   9.6342   9.7838   9.8678   9.9867  10.0995
    10.1332  10.2681  10.4088  10.4576  10.5497  10.6342  10.7638  10.8232
    10.8988  10.9812  11.0365  11.1441  11.2449  11.2730  11.4293  11.4754
    11.5123  11.5474  11.6502  11.7171  11.8301  11.8931  11.9607  11.9978
    12.1017  12.1743  12.2125  12.3050  12.3801  12.4505  12.4806  12.5724
    12.6594  12.7989  12.8412  12.8746  12.9542  13.0138  13.0396  13.1246
    13.3092  13.3477  13.4558  13.5882  13.6178  13.6744  13.7812  13.8599
    13.8754  13.9466  14.0454  14.1247  14.2116  14.2637  14.3680  14.4286
    14.5062  14.5817  14.6134  14.6406  14.6840  14.8003  14.9130  14.9615
    14.9986  15.1667  15.2458  15.2603  15.3471  15.3898  15.4598  15.5307
    15.5675  15.6754  15.7719  15.8083  15.8403  15.9295  15.9766  16.0661
    16.1541  16.2403  16.3209  16.3478  16.4365  16.5308  16.6525  16.6801
    16.7472  16.7819  16.8130  16.8418  16.9081  17.0124  17.0714  17.1064
    17.2041  17.2744  17.3567  17.3813  17.4643  17.5355  17.6045  17.6302
    17.7513  17.8171  17.9088  17.9373  18.0578  18.1067  18.2104  18.2711
    18.3732  18.4513  18.4982  18.5380  18.6328  18.7077

     the Fermi energy is    -2.6051 ev

!    total energy              =   -1565.50685685 Ry
     Harris-Foulkes estimate   =   -1565.50685765 Ry
     estimated scf accuracy    <       0.00000100 Ry

     The total energy is the sum of the following terms:

     one-electron contribution =  -18631.83062780 Ry
     hartree contribution      =    9333.19931237 Ry
     xc contribution           =    -277.55535062 Ry
     ewald contribution        =    8007.98017506 Ry
     Hubbard energy            =       2.69890572 Ry
     smearing contrib. (-TS)   =       0.00072841 Ry

     convergence has been achieved in  24 iterations

     Forces acting on atoms (Ry/au):


     negative rho (up, down):  0.107E+00 0.000E+00
     atom    1 type  1   force =    -0.00150770   -0.01330112    0.00193755
     atom    2 type  1   force =    -0.00014463    0.01187516   -0.00823327
     atom    3 type  2   force =     0.05575233   -0.00602094   -0.01985664
     atom    4 type  2   force =    -0.00046353    0.00659055   -0.03794019
     atom    5 type  1   force =    -0.00423981   -0.07036996    0.00333420
     atom    6 type  1   force =    -0.00377559    0.07128689    0.00299034
     atom    7 type  1   force =     0.00140963    0.00054378   -0.00307371
     atom    8 type  1   force =     0.00149984   -0.00180121    0.02389624
     atom    9 type  2   force =    -0.00080396   -0.00001687   -0.01882606
     atom   10 type  2   force =    -0.00455573   -0.00017164    0.02185666
     atom   11 type  1   force =    -0.01778428   -0.02046917   -0.00163709
     atom   12 type  1   force =    -0.01793119    0.02030747   -0.00151552
     atom   13 type  1   force =     0.00126075    0.00008216    0.02403347
     atom   14 type  1   force =    -0.00169229   -0.01257256    0.00173874
     atom   15 type  1   force =     0.00003268    0.00686061   -0.00727949
     atom   16 type  2   force =    -0.05562162   -0.00647183   -0.02027142
     atom   17 type  2   force =     0.00006261    0.00585481   -0.03742856
     atom   18 type  1   force =     0.00559952   -0.06967235    0.00347246
     atom   19 type  1   force =     0.00688656    0.07170630    0.00299139
     atom   20 type  1   force =    -0.00086196   -0.00013668    0.02882683
     atom   21 type  1   force =     0.00030375   -0.00159904    0.02351148
     atom   22 type  2   force =     0.00074326    0.00002087   -0.01897416
     atom   23 type  2   force =    -0.00284053   -0.00007737   -0.02115030
     atom   24 type  1   force =     0.01962375   -0.01858404   -0.00113309
     atom   25 type  1   force =     0.01942886    0.01848676   -0.00103563
     atom   26 type  1   force =    -0.00108234    0.00007401    0.02388023
     atom   27 type  3   force =     0.00005751    0.00256519    0.00125795
     atom   28 type  3   force =     0.00011531    0.00372169    0.00197776
     atom   29 type  3   force =    -0.00117145    0.00054458    0.00212085
     atom   30 type  3   force =    -0.00154040    0.00076806    0.00227417
     atom   31 type  1   force =     0.00265438    0.00001297    0.03091763
     atom   32 type  3   force =     0.00058626   -0.00003707   -0.00266283

     Total force =     0.097897     Total SCF correction =     0.002575

     BFGS Geometry Optimization

     number of scf cycles    =   1
     number of bfgs steps    =   0

     energy   new            =   -1565.5068568528 Ry

     new trust radius        =       0.0379401942 bohr
     new conv_thr            =       0.0000010000 Ry


ATOMIC_POSITIONS (crystal)
O0       0.000000000   0.000000000   0.376968580    0   0   1
O0       0.000000000   0.500000000   0.396346061    0   0   1
Ti1      0.250000000   0.500000000   0.448294619    0   0   1
Ti1      0.000000000   0.000000000   0.453514543    0   0   1
O0       0.250000000   0.810000000   0.448086390    0   0   1
O0       0.250000000   0.190000000   0.449139543    0   0   1
O0       0.000000000   0.500000000   0.496058797    0   0   1
O0       0.000000000   0.000000000   0.525885817    0   0   1
Ti1      0.250000000   0.000000000   0.581235140    0   0   1
Ti1      0.000000000   0.500000000   0.566935205    0   0   1
O0       0.250000000   0.690000000   0.579557403    0   0   1
O0       0.250000000   0.310000000   0.579539823    0   0   1
O0       0.000000000   0.000000000   0.622838549    0   0   1
O0       0.500000000   0.000000000   0.377174621    0   0   1
O0       0.500000000   0.500000000   0.395685052    0   0   1
Ti1      0.750000000   0.500000000   0.448396360    0   0   1
Ti1      0.500000000   0.000000000   0.454144731    0   0   1
O0       0.750000000   0.810000000   0.447999143    0   0   1
O0       0.750000000   0.190000000   0.449189564    0   0   1
O0       0.500000000   0.500000000   0.491653993    0   0   1
O0       0.500000000   0.000000000   0.526028155    0   0   1
Ti1      0.750000000   0.000000000   0.581302191    0   0   1
Ti1      0.500000000   0.500000000   0.593418860    0   0   1
O0       0.750000000   0.690000000   0.578967438    0   0   1
O0       0.750000000   0.310000000   0.578909379    0   0   1
O0       0.500000000   0.000000000   0.622835498    0   0   1
H2      -0.000764877   0.622506420   0.374935048
H2       0.499340273   0.619059484   0.373199381
H2       0.149545639   0.039393822   0.363812230
H2       0.649372770   0.039411806   0.363945283
O0       0.505026471   0.499891044   0.661895625
H2       0.376662228   0.499507017   0.684356978


     Check: negative starting charge=   -0.102331
     NEW-OLD atomic charge density approx. for the potential

     Check: negative/imaginary core charge=   -0.000006    0.000000
     Check: negative starting charge=   -0.102019

     negative rho (up, down):  0.106E+00 0.000E+00
 Atomic wfc used for LDA+U Projector are NOT orthogonalized

     total cpu time spent up to now is     4495.8 secs

     per-process dynamical memory:   399.1 Mb

     Self-consistent Calculation

     iteration #  1     ecut=    40.00 Ry     beta=0.70
     Davidson diagonalization with overlap
     ethr =  1.00E-06,  avg # of iterations =  5.2
 --- enter write_ns ---
 LDA+U parameters:
U( 2)     =  5.00000000
alpha( 2) =  0.00000000
atom    3   Tr[ns(na)] =   2.67203
    eigenvalues: 
  0.146  0.160  0.184  0.399  0.447
    eigenvectors:
  0.091  0.683  0.048  0.162  0.016
  0.003  0.003  0.003  0.206  0.786
  0.589  0.015  0.395  0.000  0.000
  0.024  0.141  0.008  0.631  0.197
  0.293  0.158  0.547  0.000  0.002
    occupations:
  0.203  0.012 -0.005  0.092  0.002
  0.012  0.434  0.003 -0.027  0.013
 -0.005  0.003  0.161  0.007 -0.017
  0.092 -0.027  0.007  0.367 -0.002
  0.002  0.013 -0.017 -0.002  0.170
atom    4   Tr[ns(na)] =   2.74850
    eigenvalues: 
  0.139  0.181  0.190  0.425  0.439
    eigenvectors:
  0.006  0.001  0.000  0.000  0.992
  0.000  0.822  0.176  0.000  0.001
  0.000  0.176  0.824  0.000  0.000
  0.993  0.000  0.000  0.000  0.006
  0.000  0.000  0.000  1.000  0.000
    occupations:
  0.437  0.009  0.004 -0.024 -0.000
  0.009  0.183 -0.003 -0.000 -0.002
  0.004 -0.003  0.189  0.000 -0.000
 -0.024 -0.000  0.000  0.141 -0.000
 -0.000 -0.002 -0.000 -0.000  0.425
atom    9   Tr[ns(na)] =   2.75636
    eigenvalues: 
  0.143  0.191  0.208  0.390  0.446
    eigenvectors:
  0.000  0.000  0.923  0.077  0.000
  0.000  0.000  0.000  0.000  1.000
  0.999  0.001  0.000  0.000  0.000
  0.000  0.000  0.077  0.923  0.000
  0.001  0.999  0.000  0.000  0.000
    occupations:
  0.222  0.000 -0.000  0.048  0.000
  0.000  0.446  0.000  0.000 -0.000
 -0.000  0.000  0.143 -0.000  0.001
  0.048  0.000 -0.000  0.376  0.000
  0.000 -0.000  0.001  0.000  0.191
atom   10   Tr[ns(na)] =   2.66851
    eigenvalues: 
  0.143  0.200  0.210  0.331  0.450
    eigenvectors:
  0.019  0.000  0.000  0.981  0.000
  0.000  0.000  1.000  0.000  0.000
  0.000  1.000  0.000  0.000  0.000
  0.981  0.000  0.000  0.019  0.000
  0.000  0.000  0.000  0.000  1.000
    occupations:
  0.328  0.001 -0.001 -0.025 -0.000
  0.001  0.210 -0.000  0.000 -0.000
 -0.001 -0.000  0.200 -0.000 -0.001
 -0.025  0.000 -0.000  0.147  0.000
 -0.000 -0.000 -0.001  0.000  0.450
atom   16   Tr[ns(na)] =   2.67252
    eigenvalues: 
  0.147  0.161  0.184  0.399  0.446
    eigenvectors:
  0.085  0.690  0.048  0.161  0.016
  0.003  0.003  0.003  0.209  0.782
  0.598  0.013  0.388  0.000  0.000
  0.022  0.141  0.008  0.629  0.201
  0.292  0.153  0.553  0.001  0.002
    occupations:
  0.203 -0.012 -0.004  0.092 -0.002
 -0.012  0.434 -0.003  0.027  0.013
 -0.004 -0.003  0.161  0.007  0.017
  0.092  0.027  0.007  0.367  0.001
 -0.002  0.013  0.017  0.001  0.170
atom   17   Tr[ns(na)] =   2.74162
    eigenvalues: 
  0.137  0.182  0.191  0.421  0.440
    eigenvectors:
  0.006  0.001  0.000  0.000  0.992
  0.000  0.864  0.134  0.000  0.001
  0.000  0.134  0.866  0.000  0.000
  0.993  0.000  0.000  0.000  0.006
  0.000  0.000  0.000  1.000  0.000
    occupations:
  0.438  0.009  0.004 -0.024 -0.000
  0.009  0.183 -0.003 -0.000 -0.002
  0.004 -0.003  0.190  0.000 -0.000
 -0.024 -0.000  0.000  0.139 -0.000
 -0.000 -0.002 -0.000 -0.000  0.421
atom   22   Tr[ns(na)] =   2.75538
    eigenvalues: 
  0.143  0.191  0.208  0.390  0.445
    eigenvectors:
  0.000  0.000  0.924  0.076  0.000
  0.000  0.000  0.000  0.000  1.000
  0.999  0.001  0.000  0.000  0.000
  0.000  0.000  0.076  0.924  0.000
  0.001  0.999  0.000  0.000  0.000
    occupations:
  0.222 -0.000 -0.000  0.048  0.000
 -0.000  0.445 -0.000 -0.000 -0.000
 -0.000 -0.000  0.143 -0.000 -0.001
  0.048 -0.000 -0.000  0.376  0.000
  0.000 -0.000 -0.001  0.000  0.191
atom   23   Tr[ns(na)] =   2.68980
    eigenvalues: 
  0.125  0.197  0.227  0.381  0.415
    eigenvectors:
  0.013  0.033  0.000  0.954  0.000
  0.002  0.963  0.000  0.035  0.000
  0.000  0.000  1.000  0.000  0.000
  0.986  0.004  0.000  0.011  0.000
  0.000  0.000  0.000  0.000  1.000
    occupations:
  0.371  0.034  0.000 -0.026 -0.000
  0.034  0.203 -0.000 -0.001 -0.000
  0.000 -0.000  0.227 -0.000 -0.000
 -0.026 -0.001 -0.000  0.128 -0.000
 -0.000 -0.000 -0.000 -0.000  0.415
N of occupied +U levels =  21.7047178
 --- exit write_ns ---

     negative rho (up, down):  0.106E+00 0.000E+00

     total cpu time spent up to now is     4767.0 secs

     total energy              =   -1565.44465864 Ry
     Harris-Foulkes estimate   =   -1565.51643131 Ry
     estimated scf accuracy    <       0.08320894 Ry

     iteration #  2     ecut=    40.00 Ry     beta=0.70
     Davidson diagonalization with overlap
     ethr =  3.87E-05,  avg # of iterations =  5.3

     negative rho (up, down):  0.116E+00 0.000E+00

     total cpu time spent up to now is     4968.6 secs

     total energy              =   -1564.38408175 Ry
     Harris-Foulkes estimate   =   -1565.91258607 Ry
     estimated scf accuracy    <      22.34293290 Ry

     iteration #  3     ecut=    40.00 Ry     beta=0.70
     Davidson diagonalization with overlap
     ethr =  3.87E-05,  avg # of iterations =  6.4

     negative rho (up, down):  0.108E+00 0.000E+00

     total cpu time spent up to now is     5167.4 secs

     total energy              =   -1565.49901959 Ry
     Harris-Foulkes estimate   =   -1565.54638537 Ry
     estimated scf accuracy    <       0.22215628 Ry

     iteration #  4     ecut=    40.00 Ry     beta=0.70
     Davidson diagonalization with overlap
     ethr =  3.87E-05,  avg # of iterations =  4.4

     negative rho (up, down):  0.107E+00 0.000E+00

     total cpu time spent up to now is     5327.5 secs

     total energy              =   -1565.51274594 Ry
     Harris-Foulkes estimate   =   -1565.51491653 Ry
     estimated scf accuracy    <       0.01206254 Ry

     iteration #  5     ecut=    40.00 Ry     beta=0.70
     Davidson diagonalization with overlap
     ethr =  5.61E-06,  avg # of iterations =  7.7

     negative rho (up, down):  0.106E+00 0.000E+00

     total cpu time spent up to now is     5508.7 secs

     total energy              =   -1565.51259085 Ry
     Harris-Foulkes estimate   =   -1565.51396337 Ry
     estimated scf accuracy    <       0.00905173 Ry

     iteration #  6     ecut=    40.00 Ry     beta=0.70
     Davidson diagonalization with overlap
     ethr =  4.21E-06,  avg # of iterations =  1.0

     negative rho (up, down):  0.106E+00 0.000E+00

     total cpu time spent up to now is     5667.8 secs

     total energy              =   -1565.51229287 Ry
     Harris-Foulkes estimate   =   -1565.51419797 Ry
     estimated scf accuracy    <       0.02327953 Ry

     iteration #  7     ecut=    40.00 Ry     beta=0.70
     Davidson diagonalization with overlap
     ethr =  4.21E-06,  avg # of iterations =  1.0

     negative rho (up, down):  0.106E+00 0.000E+00

     total cpu time spent up to now is     5825.5 secs

     total energy              =   -1565.51311545 Ry
     Harris-Foulkes estimate   =   -1565.51335716 Ry
     estimated scf accuracy    <       0.00173118 Ry

     iteration #  8     ecut=    40.00 Ry     beta=0.70
     Davidson diagonalization with overlap
     ethr =  8.05E-07,  avg # of iterations =  1.0

     negative rho (up, down):  0.106E+00 0.000E+00

     total cpu time spent up to now is     5979.1 secs

     total energy              =   -1565.51319174 Ry
     Harris-Foulkes estimate   =   -1565.51325090 Ry
     estimated scf accuracy    <       0.00068915 Ry

     iteration #  9     ecut=    40.00 Ry     beta=0.70
     Davidson diagonalization with overlap
     ethr =  3.21E-07,  avg # of iterations =  1.0

     negative rho (up, down):  0.106E+00 0.000E+00

     total cpu time spent up to now is     6133.6 secs

     total energy              =   -1565.51319419 Ry
     Harris-Foulkes estimate   =   -1565.51322781 Ry
     estimated scf accuracy    <       0.00023518 Ry

     iteration # 10     ecut=    40.00 Ry     beta=0.70
     Davidson diagonalization with overlap
     ethr =  1.09E-07,  avg # of iterations =  1.0

     negative rho (up, down):  0.106E+00 0.000E+00

     total cpu time spent up to now is     6287.0 secs

     total energy              =   -1565.51319846 Ry
     Harris-Foulkes estimate   =   -1565.51320788 Ry
     estimated scf accuracy    <       0.00011571 Ry

     iteration # 11     ecut=    40.00 Ry     beta=0.70
     Davidson diagonalization with overlap
     ethr =  5.38E-08,  avg # of iterations =  1.0

     negative rho (up, down):  0.106E+00 0.000E+00

     total cpu time spent up to now is     6440.3 secs

     total energy              =   -1565.51317860 Ry
     Harris-Foulkes estimate   =   -1565.51320245 Ry
     estimated scf accuracy    <       0.00007638 Ry

     iteration # 12     ecut=    40.00 Ry     beta=0.70
     Davidson diagonalization with overlap
     ethr =  3.55E-08,  avg # of iterations =  2.0

     negative rho (up, down):  0.106E+00 0.000E+00

     total cpu time spent up to now is     6598.6 secs

     total energy              =   -1565.51319023 Ry
     Harris-Foulkes estimate   =   -1565.51319354 Ry
     estimated scf accuracy    <       0.00000962 Ry

     iteration # 13     ecut=    40.00 Ry     beta=0.70
     Davidson diagonalization with overlap
     ethr =  4.47E-09,  avg # of iterations =  2.0

     negative rho (up, down):  0.106E+00 0.000E+00

     total cpu time spent up to now is     6749.9 secs

     total energy              =   -1565.51319139 Ry
     Harris-Foulkes estimate   =   -1565.51319316 Ry
     estimated scf accuracy    <       0.00000578 Ry

     iteration # 14     ecut=    40.00 Ry     beta=0.70
     Davidson diagonalization with overlap
     ethr =  2.69E-09,  avg # of iterations =  1.0

     negative rho (up, down):  0.106E+00 0.000E+00

     total cpu time spent up to now is     6897.1 secs

     End of self-consistent calculation
 --- enter write_ns ---
 LDA+U parameters:
U( 2)     =  5.00000000
alpha( 2) =  0.00000000
atom    3   Tr[ns(na)] =   2.67165
    eigenvalues: 
  0.146  0.160  0.184  0.400  0.446
    eigenvectors:
  0.104  0.667  0.050  0.163  0.016
  0.004  0.002  0.003  0.204  0.787
  0.578  0.019  0.403  0.000  0.000
  0.027  0.138  0.008  0.632  0.195
  0.287  0.174  0.537  0.001  0.002
    occupations:
  0.203  0.012 -0.005  0.093  0.002
  0.012  0.434  0.003 -0.026  0.013
 -0.005  0.003  0.162  0.007 -0.017
  0.093 -0.026  0.007  0.367 -0.002
  0.002  0.013 -0.017 -0.002  0.169
atom    4   Tr[ns(na)] =   2.76069
    eigenvalues: 
  0.139  0.181  0.191  0.427  0.441
    eigenvectors:
  0.006  0.002  0.000  0.000  0.992
  0.000  0.833  0.166  0.000  0.001
  0.000  0.165  0.834  0.000  0.000
  0.993  0.001  0.000  0.000  0.006
  0.000  0.000  0.000  1.000  0.000
    occupations:
  0.439  0.010  0.005 -0.024 -0.000
  0.010  0.183 -0.004 -0.000 -0.002
  0.005 -0.004  0.190  0.000 -0.000
 -0.024 -0.000  0.000  0.141 -0.000
 -0.000 -0.002 -0.000 -0.000  0.427
atom    9   Tr[ns(na)] =   2.75268
    eigenvalues: 
  0.145  0.191  0.207  0.389  0.446
    eigenvectors:
  0.000  0.000  0.922  0.078  0.000
  0.000  0.000  0.000  0.000  1.000
  0.998  0.002  0.000  0.000  0.000
  0.000  0.000  0.078  0.922  0.000
  0.002  0.998  0.000  0.000  0.000
    occupations:
  0.221  0.000 -0.000  0.049  0.000
  0.000  0.446  0.000  0.000 -0.000
 -0.000  0.000  0.145  0.000  0.002
  0.049  0.000  0.000  0.375  0.000
  0.000 -0.000  0.002  0.000  0.191
atom   10   Tr[ns(na)] =   2.67622
    eigenvalues: 
  0.144  0.202  0.211  0.331  0.451
    eigenvectors:
  0.019  0.000  0.000  0.981  0.000
  0.000  0.000  1.000  0.000  0.000
  0.000  1.000  0.000  0.000  0.000
  0.981  0.000  0.000  0.019  0.000
  0.000  0.000  0.000  0.000  1.000
    occupations:
  0.328  0.001 -0.001 -0.025 -0.000
  0.001  0.211 -0.000  0.000 -0.000
 -0.001 -0.000  0.202 -0.000 -0.001
 -0.025  0.000 -0.000  0.147  0.000
 -0.000 -0.000 -0.001  0.000  0.451
atom   16   Tr[ns(na)] =   2.67235
    eigenvalues: 
  0.147  0.160  0.184  0.399  0.446
    eigenvectors:
  0.097  0.675  0.050  0.162  0.016
  0.003  0.002  0.003  0.208  0.784
  0.586  0.016  0.397  0.000  0.000
  0.025  0.139  0.008  0.629  0.198
  0.288  0.168  0.542  0.001  0.002
    occupations:
  0.203 -0.011 -0.005  0.093 -0.002
 -0.011  0.434 -0.003  0.026  0.013
 -0.005 -0.003  0.162  0.007  0.016
  0.093  0.026  0.007  0.367  0.001
 -0.002  0.013  0.016  0.001  0.170
atom   17   Tr[ns(na)] =   2.75346
    eigenvalues: 
  0.138  0.182  0.192  0.423  0.442
    eigenvectors:
  0.006  0.002  0.000  0.000  0.992
  0.000  0.865  0.133  0.000  0.001
[...]
    17.2490  17.2892  17.3897  17.4304  17.5013  17.5503  17.6336  17.6594
    17.7083  17.7968  17.8516  17.9684  17.9927  18.0683  18.1304  18.1969
    18.2532  18.2824  18.4051  18.4123  18.4857  18.5425

          k =-0.5000 0.0000 0.0000 ( 29982 PWs)   bands (ev):

   -61.1545 -61.1521 -60.9711 -60.4875 -60.1948 -60.1858 -59.7307 -59.7222
   -37.4481 -37.4274 -37.3219 -37.3109 -37.2916 -37.2889 -37.2796 -37.1158
   -37.0990 -36.7489 -36.6888 -36.6547 -36.5436 -36.5395 -36.4632 -36.4502
   -36.2612 -36.2479 -36.0167 -36.0038 -35.9411 -35.9320 -35.8873 -35.8796
   -21.4307 -21.3589 -20.5556 -20.3415 -19.9997 -19.9385 -19.7053 -19.6667
   -19.5239 -19.5142 -19.3519 -19.3413 -19.2714 -19.1523 -19.0895 -18.5635
   -18.5458 -18.1376 -18.1276  -9.1956  -9.0427  -8.1577  -7.6390  -7.5990
    -7.5495  -7.2591  -7.2190  -7.2037  -7.1522  -7.1279  -7.0877  -6.9085
    -6.6871  -6.5569  -6.2891  -6.1928  -6.1625  -6.1098  -6.0320  -5.9146
    -5.7758  -5.5995  -5.5001  -5.4737  -5.4620  -5.3616  -5.3099  -5.2730
    -5.0657  -4.9713  -4.8601  -4.7663  -4.6610  -4.5938  -4.5025  -4.4219
    -4.3965  -4.3278  -4.2580  -4.2361  -4.2157  -4.1915  -4.1685  -4.1014
    -3.8296  -3.7876  -3.5348  -3.5076  -3.4548  -3.3872  -3.0527  -3.0482
    -2.9526  -2.9359  -2.8576  -2.7810  -0.1562  -0.0248   0.1178   0.1931
     0.2107   0.4401   0.4793   0.4896   0.5644   0.6520   0.7517   0.8506
     0.8696   0.9643   1.0197   1.1180   1.1454   1.1890   1.3750   1.5919
     1.6318   1.6819   1.8112   1.8274   1.9633   2.0095   2.0120   2.1224
     2.2780   2.2866   2.5503   2.6546   3.0049   3.0205   3.0507   3.0670
     3.1524   3.2224   3.6513   3.7285   3.9858   4.0408   4.1196   4.7043
     4.7709   4.8911   5.1953   5.3433   5.6662   5.8002   6.2656   6.4120
     6.5993   6.8218   6.8733   6.9951   7.4462   7.4664   7.5231   7.6825
     7.6951   7.9498   8.0160   8.0706   8.2263   8.2295   8.2598   8.3122
     8.3658   8.4445   8.6456   8.7470   8.8198   8.8317   8.9268   8.9517
     9.0762   9.2565   9.4244   9.4708   9.6685   9.7364   9.7474   9.8286
     9.8453   9.9693   9.9993  10.1172  10.1546  10.2547  10.4148  10.4819
    10.6824  10.7436  10.8374  10.9280  11.0308  11.1132  11.2271  11.4777
    11.5077  11.6201  11.7519  11.7760  11.8694  11.9265  11.9646  12.1241
    12.2047  12.2551  12.3423  12.4924  12.6444  12.6987  12.8209  12.8353
    12.9022  13.0046  13.0188  13.1686  13.2141  13.2428  13.2802  13.4127
    13.4338  13.5283  13.6337  13.7338  13.8404  13.8523  13.9065  14.0069
    14.0474  14.1382  14.1808  14.3028  14.3240  14.3755  14.3988  14.5068
    14.5836  14.6720  14.7450  14.9202  15.0417  15.1352  15.1803  15.2394
    15.3005  15.3544  15.4104  15.4863  15.5231  15.6536  15.7377  15.7937
    15.8518  15.9028  15.9345  16.0676  16.1345  16.2364  16.3057  16.3181
    16.4765  16.5798  16.5945  16.6124  16.6481  16.6819  16.6875  16.7546
    16.8078  16.8711  16.8951  16.9437  17.0078  17.0506  17.0733  17.2298
    17.3038  17.3615  17.4210  17.5789  17.6188  17.6672  17.7675  17.8198
    17.8666  17.9500  18.0031  18.0317  18.0957  18.1572  18.2727  18.3126
    18.4023  18.4297  18.5180  18.5366  18.5659  18.5951

          k =-0.5000 0.2258 0.0000 ( 29954 PWs)   bands (ev):

   -61.1546 -61.1521 -60.9711 -60.4875 -60.1948 -60.1858 -59.7308 -59.7222
   -37.4482 -37.4275 -37.3219 -37.3110 -37.2912 -37.2885 -37.2796 -37.1163
   -37.0984 -36.7493 -36.6890 -36.6536 -36.5427 -36.5387 -36.4645 -36.4515
   -36.2612 -36.2479 -36.0171 -36.0042 -35.9411 -35.9320 -35.8873 -35.8796
   -21.4277 -21.3559 -20.5460 -20.3385 -19.9476 -19.9135 -19.6471 -19.6117
   -19.5371 -19.5176 -19.4026 -19.3894 -19.2671 -19.2226 -19.1791 -18.5543
   -18.5385 -18.1370 -18.1253  -9.1859  -9.0314  -8.1582  -7.6087  -7.4190
    -7.3969  -7.2169  -7.1719  -7.1384  -7.0002  -6.9635  -6.9331  -6.8160
    -6.5978  -6.5061  -6.3268  -6.2101  -6.1697  -6.1418  -6.0450  -6.0001
    -5.7761  -5.7497  -5.7070  -5.6088  -5.5291  -5.3816  -5.2954  -5.1693
    -5.0458  -5.0207  -4.8803  -4.8476  -4.7639  -4.7211  -4.6942  -4.5766
    -4.5664  -4.4472  -4.4252  -4.3825  -4.2436  -4.2107  -4.1461  -4.0546
    -3.9300  -3.7164  -3.5047  -3.4596  -3.3687  -3.2708  -3.0546  -3.0390
    -2.9733  -2.9400  -2.8601  -2.8281  -0.1347  -0.0115   0.0936   0.1530
     0.1916   0.4964   0.5328   0.5468   0.6928   0.7792   0.9041   0.9428
     0.9600   1.0082   1.0950   1.2004   1.2409   1.2894   1.3694   1.5263
     1.5877   1.6047   1.8333   1.8439   1.8610   1.9295   2.0685   2.1337
     2.1784   2.1990   2.3243   2.3336   2.8579   2.8984   3.1370   3.1642
     3.3766   3.3884   3.7511   3.8015   4.1529   4.1895   4.2175   4.9092
     4.9771   5.0820   5.3610   5.4945   5.7425   5.8373   6.0758   6.1669
     6.3474   6.5465   6.6812   6.7513   6.8384   6.8797   6.9570   7.0895
     7.2616   7.3667   7.5962   7.7524   7.9128   8.0722   8.1703   8.3817
     8.4552   8.5587   8.6314   8.7441   8.8983   9.0119   9.1327   9.3377
     9.6036   9.6975   9.7340   9.8198   9.9672   9.9771  10.0562  10.1254
    10.1875  10.2420  10.3862  10.4332  10.5822  10.7455  10.7822  10.8463
    10.9083  10.9984  11.0783  11.1906  11.2742  11.3816  11.5227  11.5753
    11.6119  11.8315  11.8815  11.9124  12.0483  12.0947  12.1874  12.2500
    12.3709  12.4523  12.5227  12.6739  12.7189  12.8326  12.8739  13.0237
    13.0892  13.1532  13.1864  13.2584  13.3187  13.4034  13.4300  13.4631
    13.5218  13.5476  13.5645  13.6209  13.6821  13.8453  13.9668  14.0190
    14.0501  14.0996  14.1257  14.1638  14.2203  14.2784  14.3534  14.4432
    14.4851  14.5751  14.6695  14.8548  14.8963  14.9277  15.0453  15.0952
    15.1141  15.1738  15.2436  15.2782  15.3077  15.3444  15.3796  15.4125
    15.4503  15.4796  15.5192  15.5802  15.6443  15.6890  15.7226  15.7665
    15.8572  15.9020  15.9443  16.0549  16.1580  16.2254  16.2458  16.3226
    16.3536  16.4276  16.4922  16.6190  16.6765  16.7258  16.7676  16.8100
    16.8821  16.9196  17.1146  17.1650  17.2462  17.2682  17.3231  17.4442
    17.4841  17.5644  17.6857  17.7331  17.8206  17.9153  17.9876  18.1602
    18.1852  18.3294  18.3778  18.4362  18.5296  18.5811

          k =-0.5000-0.4516 0.0000 ( 29868 PWs)   bands (ev):

   -61.1546 -61.1522 -60.9711 -60.4874 -60.1947 -60.1857 -59.7308 -59.7223
   -37.4483 -37.4276 -37.3219 -37.3110 -37.2908 -37.2881 -37.2796 -37.1168
   -37.0978 -36.7498 -36.6893 -36.6525 -36.5418 -36.5378 -36.4659 -36.4528
   -36.2612 -36.2479 -36.0175 -36.0046 -35.9410 -35.9320 -35.8873 -35.8796
   -21.4248 -21.3529 -20.5364 -20.3356 -19.8834 -19.8694 -19.6543 -19.5145
   -19.5021 -19.4639 -19.4524 -19.4277 -19.3837 -19.3289 -19.2324 -18.5466
   -18.5321 -18.1365 -18.1230  -9.1761  -9.0200  -8.1587  -7.6076  -7.3121
    -7.3068  -7.1439  -7.0015  -6.9666  -6.8027  -6.7132  -6.6690  -6.5644
    -6.5318  -6.4453  -6.4120  -6.3292  -6.2632  -6.1835  -6.1089  -5.9905
    -5.9127  -5.8664  -5.8120  -5.7675  -5.5490  -5.4111  -5.3037  -5.2049
    -5.1860  -5.1252  -5.0899  -4.9806  -4.9184  -4.8847  -4.8221  -4.7410
    -4.6939  -4.5552  -4.4632  -4.3614  -4.2603  -4.2194  -4.0964  -4.0272
    -3.9630  -3.6522  -3.4723  -3.3539  -3.2983  -3.2724  -3.0514  -3.0398
    -3.0015  -2.9578  -2.8446  -2.8234  -0.1090   0.0252   0.0940   0.0968
     0.1622   0.4924   0.5522   0.5895   0.7363   0.8075   1.0851   1.1166
     1.1675   1.2493   1.2565   1.2774   1.2905   1.4264   1.4438   1.4503
     1.6102   1.6696   1.6731   1.7046   1.8054   1.8353   1.8687   1.8790
     1.9449   2.0172   2.2654   2.3807   2.9308   2.9717   3.0563   3.1285
     3.4636   3.4927   3.8500   3.8921   4.2717   4.4898   4.5130   5.1894
     5.1942   5.3906   5.5642   5.6111   5.6296   5.6837   5.8051   5.9088
     6.0192   6.1248   6.2975   6.3998   6.4846   6.6378   6.8728   7.0168
     7.1348   7.3292   7.3772   7.5697   7.7077   7.8025   7.8828   7.9438
     8.1472   8.3983   8.6415   8.8545   8.9335   9.0464   9.2519   9.3082
     9.4753   9.5601   9.7733  10.0515  10.1855  10.2035  10.3224  10.4957
    10.5242  10.6226  10.6730  11.0358  11.1008  11.3360  11.4285  11.4593
    11.5421  11.5878  11.7179  11.7230  11.8258  11.8926  12.0775  12.1819
    12.2068  12.2965  12.3238  12.3898  12.4867  12.5123  12.5510  12.5681
    12.6002  12.6164  12.6489  12.6925  12.8333  12.8494  12.8670  12.9036
    12.9593  12.9936  13.0452  13.1603  13.2023  13.2365  13.3138  13.3779
    13.4075  13.4575  13.4829  13.5764  13.6498  13.6917  13.7136  13.7790
    13.8098  13.9203  13.9732  14.0358  14.0481  14.1476  14.1763  14.2235
    14.2769  14.3402  14.3496  14.3814  14.4240  14.4529  14.4756  14.5327
    14.5585  14.6123  14.7451  14.7917  14.8740  14.9454  14.9846  15.0392
    15.1095  15.1745  15.1974  15.2092  15.3536  15.4490  15.5359  15.5883
    15.6376  15.6575  15.7286  15.7710  15.8566  15.9109  15.9456  15.9662
    16.0595  16.1721  16.2458  16.3451  16.3583  16.3776  16.4753  16.5681
    16.5752  16.8977  16.9261  17.0037  17.0631  17.0997  17.2141  17.2635
    17.3754  17.4600  17.5084  17.5359  17.5945  17.7649  17.8712  17.9172
    17.9508  18.0232  18.0623  18.1275  18.2395  18.2708

          k =-0.2500 0.2258 0.0000 ( 29912 PWs)   bands (ev):

   -61.1652 -61.1397 -60.9708 -60.4868 -60.2037 -60.1750 -59.7397 -59.7117
   -37.5616 -37.3675 -37.3385 -37.3010 -37.2860 -37.2794 -37.2334 -37.1409
   -37.0998 -36.7358 -36.6907 -36.6785 -36.6521 -36.4932 -36.4236 -36.3893
   -36.2678 -36.2420 -36.0597 -36.0232 -35.9985 -35.9433 -35.8777 -35.7577
   -21.5321 -21.2965 -20.5375 -20.3430 -20.2106 -19.8565 -19.6742 -19.6245
   -19.5467 -19.4206 -19.3663 -19.3087 -19.2323 -19.1923 -19.1633 -18.7106
   -18.4678 -18.0761 -18.0591  -9.2247  -8.9749  -8.1551  -7.7885  -7.6750
    -7.5009  -7.2286  -7.2007  -7.0747  -6.8902  -6.8670  -6.7650  -6.7402
    -6.6668  -6.5568  -6.5063  -6.4015  -6.3584  -6.2097  -6.1354  -5.9634
    -5.9178  -5.7450  -5.6416  -5.4093  -5.3003  -5.2797  -5.1774  -5.1003
    -5.0453  -4.9848  -4.9366  -4.8908  -4.8358  -4.7227  -4.7005  -4.6505
    -4.5799  -4.4764  -4.3292  -4.2750  -4.2209  -4.1658  -3.9797  -3.8493
    -3.7311  -3.6197  -3.5103  -3.4448  -3.4087  -3.2956  -3.1843  -3.0987
    -2.9731  -2.9312  -2.8530  -2.7138  -0.1998  -0.0445   0.0415   0.1454
     0.2319   0.4455   0.4691   0.5584   0.6125   0.7020   0.8379   0.9242
     1.0526   1.0958   1.1303   1.2014   1.2100   1.2927   1.4662   1.5260
     1.6349   1.6887   1.7113   1.7373   1.7779   1.8817   1.9767   2.0629
     2.1623   2.2093   2.3952   2.7144   2.7735   2.9904   3.1842   3.2302
     3.4481   3.4710   3.5997   3.6342   3.8588   3.9965   4.1915   4.6252
     5.0474   5.2497   5.2983   5.6150   5.8474   5.9392   6.1493   6.2266
     6.2970   6.5232   6.5819   6.8977   6.9878   7.2925   7.3316   7.4787
     7.6957   7.7739   7.8846   7.9690   8.0032   8.1076   8.1955   8.4086
     8.4863   8.5904   8.7719   8.8053   8.9218   8.9715   9.2587   9.3642
     9.4164   9.4522   9.5632   9.6279   9.7115   9.8610   9.9980  10.0687
    10.1226  10.2546  10.3522  10.4493  10.5258  10.6332  10.7662  10.8046
    10.8592  10.9605  11.0300  11.1507  11.2054  11.2451  11.3523  11.4536
    11.4992  11.5258  11.5814  11.7060  11.7854  11.8318  11.9214  11.9616
    12.0578  12.1191  12.2003  12.2963  12.3729  12.4277  12.4737  12.5665
    12.6243  12.7456  12.8345  12.8664  12.9023  12.9732  13.0303  13.0723
    13.2732  13.3471  13.4100  13.5218  13.5720  13.6154  13.7350  13.8000
    13.8237  13.9025  13.9797  14.0505  14.1518  14.2004  14.3020  14.3665
    14.4381  14.5200  14.5823  14.6035  14.6684  14.7421  14.8592  14.9516
    14.9701  15.1176  15.2139  15.2375  15.3331  15.3892  15.4258  15.4870
    15.5384  15.6798  15.7528  15.7901  15.8341  15.8914  15.9468  16.0600
    16.1257  16.2153  16.3062  16.3316  16.4133  16.5455  16.6519  16.6740
    16.7431  16.7796  16.8045  16.8809  16.8950  17.0069  17.0827  17.0950
    17.1935  17.2495  17.3593  17.3847  17.4739  17.5211  17.5595  17.6006
    17.7307  17.7921  17.9091  17.9347  18.0522  18.1145  18.2046  18.2687
    18.3854  18.4762  18.4980  18.5564  18.6354  18.7111

     the Fermi energy is    -2.7265 ev

!    total energy              =   -1565.51792426 Ry
     Harris-Foulkes estimate   =   -1565.51792426 Ry
     estimated scf accuracy    <          1.7E-09 Ry

     The total energy is the sum of the following terms:

     one-electron contribution =  -18483.13835871 Ry
     hartree contribution      =    9258.11087627 Ry
     xc contribution           =    -277.36390645 Ry
     ewald contribution        =    7934.19532497 Ry
     Hubbard energy            =       2.67732612 Ry
     smearing contrib. (-TS)   =       0.00081355 Ry

     convergence has been achieved in  12 iterations

     Forces acting on atoms (Ry/au):


     negative rho (up, down):  0.106E+00 0.000E+00
     atom    1 type  1   force =    -0.00206899   -0.01246998    0.00044418
     atom    2 type  1   force =    -0.00004990    0.01526730    0.00010070
     atom    3 type  2   force =     0.05974004   -0.00744074    0.00021031
     atom    4 type  2   force =    -0.00004511    0.00742683   -0.00042953
     atom    5 type  1   force =    -0.00331578   -0.07317462    0.00023712
     atom    6 type  1   force =    -0.00525290    0.07264472   -0.00034728
     atom    7 type  1   force =     0.00151345    0.00046461    0.00002106
     atom    8 type  1   force =     0.00168982   -0.00165890    0.00000899
     atom    9 type  2   force =     0.00101233   -0.00000781   -0.00021428
     atom   10 type  2   force =    -0.00445099   -0.00002161   -0.00044906
     atom   11 type  1   force =    -0.01650046   -0.02401420   -0.00018961
     atom   12 type  1   force =    -0.01669048    0.02395765   -0.00014443
     atom   13 type  1   force =     0.00060958    0.00008049   -0.00015217
     atom   14 type  1   force =    -0.00371209   -0.01248688    0.00008491
     atom   15 type  1   force =     0.00021282    0.01415622    0.00004677
     atom   16 type  2   force =    -0.05967063   -0.00798548    0.00016939
     atom   17 type  2   force =     0.00028439    0.00695556   -0.00015490
     atom   18 type  1   force =     0.00657084   -0.07281250    0.00029151
     atom   19 type  1   force =     0.00591170    0.07297001   -0.00038697
     atom   20 type  1   force =    -0.00085192    0.00011712   -0.00000676
     atom   21 type  1   force =     0.00020990   -0.00147935    0.00008034
     atom   22 type  2   force =    -0.00106089    0.00014215    0.00004226
     atom   23 type  2   force =    -0.00004199   -0.00003781    0.00025735
     atom   24 type  1   force =     0.01825091   -0.02161593    0.00051521
     atom   25 type  1   force =     0.01786503    0.02159235    0.00051230
     atom   26 type  1   force =    -0.00037863    0.00000712   -0.00004248
     atom   27 type  3   force =    -0.00002998   -0.00014477   -0.00011729
     atom   28 type  3   force =    -0.00001724   -0.00027359   -0.00037683
     atom   29 type  3   force =    -0.00022699   -0.00003234    0.00007657
     atom   30 type  3   force =    -0.00006875   -0.00007399   -0.00003564
     atom   31 type  1   force =     0.00032881    0.00000302   -0.00011985
     atom   32 type  3   force =     0.00023408   -0.00005465    0.00006811

     Total force =     0.001533     Total SCF correction =     0.000110

     bfgs converged in  20 scf cycles and  19 bfgs steps
     (criteria: energy < 0.10E-03, force < 0.10E-02)

     End of BFGS Geometry Optimization

     Final energy   =   -1565.5179242561 Ry
Begin final coordinates

ATOMIC_POSITIONS (crystal)
O0       0.000000000   0.000000000   0.375602262    0   0   1
O0       0.000000000   0.500000000   0.395483240    0   0   1
Ti1      0.250000000   0.500000000   0.448209421    0   0   1
Ti1      0.000000000   0.000000000   0.450542218    0   0   1
O0       0.250000000   0.810000000   0.447730382    0   0   1
O0       0.250000000   0.190000000   0.448777405    0   0   1
O0       0.000000000   0.500000000   0.496372305    0   0   1
O0       0.000000000   0.000000000   0.525589604    0   0   1
Ti1      0.250000000   0.000000000   0.580630249    0   0   1
Ti1      0.000000000   0.500000000   0.567738730    0   0   1
O0       0.250000000   0.690000000   0.580887232    0   0   1
O0       0.250000000   0.310000000   0.580897305    0   0   1
O0       0.000000000   0.000000000   0.623301465    0   0   1
O0       0.500000000   0.000000000   0.376218272    0   0   1
O0       0.500000000   0.500000000   0.394961051    0   0   1
Ti1      0.750000000   0.500000000   0.448289391    0   0   1
Ti1      0.500000000   0.000000000   0.451805694    0   0   1
O0       0.750000000   0.810000000   0.447669500    0   0   1
O0       0.750000000   0.190000000   0.448830926    0   0   1
O0       0.500000000   0.500000000   0.492119556    0   0   1
O0       0.500000000   0.000000000   0.525660688    0   0   1
Ti1      0.750000000   0.000000000   0.580636502    0   0   1
Ti1      0.500000000   0.500000000   0.595665464    0   0   1
O0       0.750000000   0.690000000   0.579974918    0   0   1
O0       0.750000000   0.310000000   0.579930032    0   0   1
O0       0.500000000   0.000000000   0.623076671    0   0   1
H2      -0.000429230   0.626703764   0.375349152
H2       0.499768795   0.627783515   0.375242552
H2       0.150668278   0.035429023   0.362416674
H2       0.649738902   0.036850448   0.362815149
O0       0.509954007   0.500039325   0.664225088
H2       0.375737406   0.499151968   0.685600902
End final coordinates



     init_run     :     92.95s CPU     94.73s WALL (       1 calls)
     electrons    :  45463.57s CPU  46769.48s WALL (      20 calls)
     update_pot   :    344.71s CPU    354.32s WALL (      19 calls)
     forces       :   2298.69s CPU   2340.93s WALL (      20 calls)

     Called by init_run:
     wfcinit      :     30.97s CPU     31.74s WALL (       1 calls)
     potinit      :      6.86s CPU      7.12s WALL (       1 calls)

     Called by electrons:
     c_bands      :  23243.05s CPU  23890.28s WALL (     290 calls)
     sum_band     :   9122.59s CPU   9394.14s WALL (     290 calls)
     v_of_rho     :    309.11s CPU    340.98s WALL (     307 calls)
     newd         :  13417.94s CPU  13508.04s WALL (     307 calls)
     mix_rho      :     52.51s CPU     53.73s WALL (     290 calls)

     Called by c_bands:
     init_us_2    :     69.67s CPU     70.09s WALL (    1923 calls)
     cegterg      :  22909.41s CPU  23468.42s WALL (     870 calls)

     Called by *egterg:
     h_psi        :  13664.75s CPU  13966.68s WALL (    2753 calls)
     s_psi        :   1402.81s CPU   1421.93s WALL (    2873 calls)
     g_psi        :     30.20s CPU     30.22s WALL (    1880 calls)
     cdiaghg      :   2121.52s CPU   2128.76s WALL (    2684 calls)

     Called by h_psi:
     add_vuspsi   :   1345.10s CPU   1365.52s WALL (    2753 calls)
     vhpsi        :   1421.38s CPU   1435.54s WALL (    2753 calls)

     General routines
     calbec       :   3341.94s CPU   3382.24s WALL (   24766 calls)
     fft          :    398.04s CPU    498.90s WALL (    5083 calls)
     ffts         :      5.28s CPU      5.48s WALL (     597 calls)
     fftw         :   7911.23s CPU   8232.85s WALL ( 1427688 calls)
     interpolate  :     45.01s CPU     45.71s WALL (     597 calls)
     davcio       :      0.13s CPU     28.45s WALL (    1983 calls)

     Parallel routines
     fft_scatter  :   2873.66s CPU   3277.58s WALL ( 1433368 calls)
     Hubbard U routines
     new_ns       :    280.08s CPU    296.65s WALL (     290 calls)
     vhpsi        :   1421.38s CPU   1435.54s WALL (    2753 calls)
     force_hub    :    618.41s CPU    633.40s WALL (      20 calls)

     PWSCF        :    13h38m CPU       14h 1m WALL


   This run was terminated on:  17:18:56  30Apr2014            

=------------------------------------------------------------------------------=
   JOB DONE.
=------------------------------------------------------------------------------=
