
     Program PWSCF v.5.0.2 (svn rev. 9656) starts on 27Mar2014 at 10:48: 7 

     This program is part of the open-source Quantum ESPRESSO suite
     for quantum simulation of materials; please cite
         "P. Giannozzi et al., J. Phys.:Condens. Matter 21 395502 (2009);
          URL http://www.quantum-espresso.org", 
     in publications or presentations arising from this work. More details at
     http://www.quantum-espresso.org/quote.php

     Parallel version (MPI), running on    32 processors
     R & G space division:  proc/nbgrp/npool/nimage =      32

     Current dimensions of program PWSCF are:
     Max number of different atomic species (ntypx) = 10
     Max number of k-points (npk) =  40000
     Max angular momentum in pseudopotentials (lmaxx) =  3
     Reading input from pwscf.in
Warning: card &CELL ignored
Warning: card / ignored

     Subspace diagonalization in iterative solution of the eigenvalue problem:
     a serial algorithm will be used


     Parallelization info
     --------------------
     sticks:   dense  smooth     PW     G-vecs:    dense   smooth      PW
     Min         169      54     15                57189    10336    1529
     Max         170      55     16                57202    10371    1547
     Sum        5431    1737    483              1830247   331341   49301



     bravais-lattice index     =            0
     lattice parameter (alat)  =      10.3179  a.u.
     unit-cell volume          =    9693.3575 (a.u.)^3
     number of atoms/cell      =           49
     number of atomic types    =            2
     number of electrons       =       422.00
     number of Kohn-Sham states=          633
     kinetic-energy cutoff     =      40.0000  Ry
     charge density cutoff     =     500.0000  Ry
     convergence threshold     =      1.0E-06
     mixing beta               =       0.3000
     number of iterations used =            8  plain     mixing
     Exchange-correlation      = SLA  PW   PBE  PBE ( 1 4 3 4 0)
     EXX-fraction              =        0.00
     nstep                     =           50


     celldm(1)=  10.317905  celldm(2)=   0.000000  celldm(3)=   0.000000
     celldm(4)=   0.000000  celldm(5)=   0.000000  celldm(6)=   0.000000

     crystal axes: (cart. coord. in units of alat)
               a(1) = (   1.000000   0.000000   0.000000 )  
               a(2) = (   0.000000   1.282117   0.000000 )  
               a(3) = (   0.000000   0.000000   6.882911 )  

     reciprocal axes: (cart. coord. in units 2 pi/alat)
               b(1) = (  1.000000  0.000000  0.000000 )  
               b(2) = (  0.000000  0.779960  0.000000 )  
               b(3) = (  0.000000  0.000000  0.145287 )  


     PseudoPot. # 1 for O  read from file:
     /home/camp/zhonxu/pseudo/o_pbe_v1.01.uspp.F.UPF
     MD5 check sum: 2bcb18d16ea4b960afae9ec6d52f22d2
     Pseudo is Ultrasoft + core correction, Zval =  6.0
     Generated by new atomic code, or converted to UPF format
     Using radial grid of  737 points,  5 beta functions with: 
                l(1) =   0
                l(2) =   0
                l(3) =   1
                l(4) =   1
                l(5) =   2
     Q(r) pseudized with  8 coefficients,  rinner =    0.900   0.900   0.900
                                                       0.900   0.900

     PseudoPot. # 2 for Mo read from file:
     /home/camp/zhonxu/pseudo/mo_pbe_v1.uspp.F.UPF
     MD5 check sum: 30c4dcd161f5d35cd49bb5239c51a633
     Pseudo is Ultrasoft + core correction, Zval = 14.0
     Generated by new atomic code, or converted to UPF format
     Using radial grid of  889 points,  6 beta functions with: 
                l(1) =   0
                l(2) =   0
                l(3) =   1
                l(4) =   1
                l(5) =   2
                l(6) =   2
     Q(r) pseudized with  6 coefficients,  rinner =    1.000   1.000   1.000
                                                       1.000   1.000

     atomic species   valence    mass     pseudopotential
        O0             6.00    15.99940     O ( 1.00)
        Mo1           14.00    95.94000     Mo( 1.00)

      4 Sym. Ops. (no inversion) found



   Cartesian axes

     site n.     atom                  positions (alat units)
         1           O0  tau(   1) = (   0.0000000   0.6410583   2.1977822  )
         2           Mo1 tau(   2) = (   0.2500000   0.6410583   2.4798439  )
         3           Mo1 tau(   3) = (   0.0000000   0.0000000   2.4798439  )
         4           O0  tau(   4) = (   0.2500000   1.0000510   2.4798439  )
         5           O0  tau(   5) = (   0.2500000   0.2820657   2.4798439  )
         6           O0  tau(   6) = (   0.0000000   0.6410583   2.7619056  )
         7           O0  tau(   7) = (   0.0000000   0.0000000   2.8388565  )
         8           Mo1 tau(   8) = (   0.2500000   0.0000000   3.1209182  )
         9           Mo1 tau(   9) = (   0.0000000   0.6410583   3.1209182  )
        10           O0  tau(  10) = (   0.2500000   0.9231240   3.1209182  )
        11           O0  tau(  11) = (   0.2500000   0.3589927   3.1209182  )
        12           O0  tau(  12) = (   0.0000000   0.0000000   3.4029799  )
        13           O0  tau(  13) = (   0.0000000   0.6410583   3.4705701  )
        14           Mo1 tau(  14) = (   0.2286600   0.6410583   3.7488462  )
        15           Mo1 tau(  15) = (   0.0000000   0.0000000   3.7864269  )
        16           O0  tau(  16) = (   0.2460200   1.0042564   3.7683248  )
        17           O0  tau(  17) = (   0.2460200   0.2778603   3.7683248  )
        18           O0  tau(  18) = (   0.0000000   0.6410583   4.0400621  )
        19           O0  tau(  19) = (   0.0000000   0.0000000   4.1500511  )
        20           Mo1 tau(  20) = (   0.2719400   0.0000000   4.4350036  )
        21           Mo1 tau(  21) = (   0.0000000   0.6410583   4.3760858  )
        22           O0  tau(  22) = (   0.2568700   0.9035974   4.4329387  )
        23           O0  tau(  23) = (   0.2568700   0.3785193   4.4329387  )
        24           O0  tau(  24) = (   0.0000000   0.0000000   4.6642045  )
        25           O0  tau(  25) = (   0.5000000   0.6410583   2.1977822  )
        26           Mo1 tau(  26) = (   0.7500000   0.6410583   2.4798439  )
        27           Mo1 tau(  27) = (   0.5000000   0.0000000   2.4798439  )
        28           O0  tau(  28) = (   0.7500000   1.0000510   2.4798439  )
        29           O0  tau(  29) = (   0.7500000   0.2820657   2.4798439  )
        30           O0  tau(  30) = (   0.5000000   0.6410583   2.7619056  )
        31           O0  tau(  31) = (   0.5000000   0.0000000   2.8388565  )
        32           Mo1 tau(  32) = (   0.7500000   0.0000000   3.1209182  )
        33           Mo1 tau(  33) = (   0.5000000   0.6410583   3.1209182  )
        34           O0  tau(  34) = (   0.7500000   0.9231240   3.1209182  )
        35           O0  tau(  35) = (   0.7500000   0.3589927   3.1209182  )
        36           O0  tau(  36) = (   0.5000000   0.0000000   3.4029799  )
        37           O0  tau(  37) = (   0.5000000   0.6410583   3.4927331  )
        38           Mo1 tau(  38) = (   0.7713400   0.6410583   3.7488462  )
        39           Mo1 tau(  39) = (   0.5000000   0.0000000   3.7719728  )
        40           O0  tau(  40) = (   0.7539800   1.0042564   3.7683248  )
        41           O0  tau(  41) = (   0.7539800   0.2778603   3.7683248  )
        42           O0  tau(  42) = (   0.5000000   0.6410583   4.0184498  )
        43           O0  tau(  43) = (   0.5000000   0.0000000   4.1341515  )
        44           Mo1 tau(  44) = (   0.7280600   0.0000000   4.4350036  )
        45           Mo1 tau(  45) = (   0.5000000   0.6410583   4.3550241  )
        46           O0  tau(  46) = (   0.7431300   0.9035974   4.4329387  )
        47           O0  tau(  47) = (   0.7431300   0.3785193   4.4329387  )
        48           O0  tau(  48) = (   0.5000000   0.0000000   4.7053643  )
        49           O0  tau(  49) = (   0.5000000   0.6410583   4.6687472  )

     number of k points=     9  Methfessel-Paxton smearing, width (Ry)=  0.0100
                       cart. coord. in units 2pi/alat
        k(    1) = (   0.0000000   0.0000000   0.0000000), wk =   0.1250000
        k(    2) = (   0.0000000   0.1949901   0.0000000), wk =   0.2500000
        k(    3) = (   0.0000000  -0.3899801   0.0000000), wk =   0.1250000
        k(    4) = (   0.2500000   0.0000000   0.0000000), wk =   0.2500000
        k(    5) = (   0.2500000   0.1949901   0.0000000), wk =   0.5000000
        k(    6) = (   0.2500000  -0.3899801   0.0000000), wk =   0.2500000
        k(    7) = (  -0.5000000   0.0000000   0.0000000), wk =   0.1250000
        k(    8) = (  -0.5000000   0.1949901   0.0000000), wk =   0.2500000
        k(    9) = (  -0.5000000  -0.3899801   0.0000000), wk =   0.1250000

     Dense  grid:  1830247 G-vectors     FFT dimensions: (  75,  96, 512)

     Smooth grid:   331341 G-vectors     FFT dimensions: (  45,  54, 288)

     Largest allocated arrays     est. size (Mb)     dimensions
        Kohn-Sham Wavefunctions        13.00 Mb     (   1346,  633)
        NL pseudopotentials            14.73 Mb     (   1346,  717)
        Each V/rho on FFT grid          1.76 Mb     ( 115200)
        Each G-vector array             0.44 Mb     (  57198)
        G-vector shells                 0.21 Mb     (  27921)
     Largest temporary arrays     est. size (Mb)     dimensions
        Auxiliary wavefunctions        52.00 Mb     (   1346, 2532)
        Each subspace H/S matrix       97.82 Mb     (2532,2532)
        Each <psi_i|beta_j> matrix      6.93 Mb     (    717,  633)
        Arrays for rho mixing          14.06 Mb     ( 115200,   8)

     Check: negative/imaginary core charge=   -0.000004    0.000000

     Initial potential from superposition of free atoms
     Check: negative starting charge=   -0.003565

     starting charge  421.98294, renormalised to  422.00000

     negative rho (up, down):  0.356E-02 0.000E+00
     Starting wfc are  340 randomized atomic wfcs

     total cpu time spent up to now is       78.2 secs

     Self-consistent Calculation

     iteration #  1     ecut=    40.00 Ry     beta=0.30
     Davidson diagonalization with overlap
     ethr =  1.00E-02,  avg # of iterations =  6.2

     negative rho (up, down):  0.361E-02 0.000E+00

     total cpu time spent up to now is     1560.8 secs

     total energy              =   -3290.02552331 Ry
     Harris-Foulkes estimate   =   -3297.69449904 Ry
     estimated scf accuracy    <      17.32675611 Ry

     iteration #  2     ecut=    40.00 Ry     beta=0.30
     Davidson diagonalization with overlap
     ethr =  4.11E-03,  avg # of iterations =  4.0

     negative rho (up, down):  0.847E-02 0.000E+00

     total cpu time spent up to now is     1971.4 secs

     total energy              =   -3271.92950394 Ry
     Harris-Foulkes estimate   =   -3303.38414170 Ry
     estimated scf accuracy    <    1016.46564730 Ry

     iteration #  3     ecut=    40.00 Ry     beta=0.30
     Davidson diagonalization with overlap
     ethr =  4.11E-03,  avg # of iterations =  4.1

     negative rho (up, down):  0.102E-01 0.000E+00

     total cpu time spent up to now is     2449.8 secs

     total energy              =   -3281.95017689 Ry
     Harris-Foulkes estimate   =   -3302.38270996 Ry
     estimated scf accuracy    <     901.60190237 Ry

     iteration #  4     ecut=    40.00 Ry     beta=0.30
     Davidson diagonalization with overlap
     ethr =  4.11E-03,  avg # of iterations =  3.7

     negative rho (up, down):  0.124E-01 0.000E+00

     total cpu time spent up to now is     2846.4 secs

     total energy              =   -3290.44684285 Ry
     Harris-Foulkes estimate   =   -3298.19710314 Ry
     estimated scf accuracy    <     112.94832714 Ry

     iteration #  5     ecut=    40.00 Ry     beta=0.30
     Davidson diagonalization with overlap
     ethr =  4.11E-03,  avg # of iterations =  3.0

     negative rho (up, down):  0.119E-01 0.000E+00

     total cpu time spent up to now is     3182.5 secs

     total energy              =   -3293.32777923 Ry
     Harris-Foulkes estimate   =   -3295.50608163 Ry
     estimated scf accuracy    <      23.80226425 Ry

     iteration #  6     ecut=    40.00 Ry     beta=0.30
     Davidson diagonalization with overlap
     ethr =  4.11E-03,  avg # of iterations =  1.1

     negative rho (up, down):  0.120E-01 0.000E+00

     total cpu time spent up to now is     3397.6 secs

     total energy              =   -3294.14252895 Ry
     Harris-Foulkes estimate   =   -3294.75170489 Ry
     estimated scf accuracy    <       7.64171545 Ry

     iteration #  7     ecut=    40.00 Ry     beta=0.30
     Davidson diagonalization with overlap
     ethr =  1.81E-03,  avg # of iterations =  1.0

     negative rho (up, down):  0.118E-01 0.000E+00

     total cpu time spent up to now is     3606.9 secs

     total energy              =   -3294.25928987 Ry
     Harris-Foulkes estimate   =   -3294.36999841 Ry
     estimated scf accuracy    <       2.60218498 Ry

     iteration #  8     ecut=    40.00 Ry     beta=0.30
     Davidson diagonalization with overlap
     ethr =  6.17E-04,  avg # of iterations =  1.0

     negative rho (up, down):  0.958E-02 0.000E+00

     total cpu time spent up to now is     3816.3 secs

     total energy              =   -3294.17147511 Ry
     Harris-Foulkes estimate   =   -3294.30433725 Ry
     estimated scf accuracy    <       1.47511288 Ry

     iteration #  9     ecut=    40.00 Ry     beta=0.30
     Davidson diagonalization with overlap
     ethr =  3.50E-04,  avg # of iterations =  1.2

     negative rho (up, down):  0.867E-02 0.000E+00

     total cpu time spent up to now is     4037.6 secs

     total energy              =   -3294.17569792 Ry
     Harris-Foulkes estimate   =   -3294.21744343 Ry
     estimated scf accuracy    <       0.56982866 Ry

     iteration # 10     ecut=    40.00 Ry     beta=0.30
     Davidson diagonalization with overlap
     ethr =  1.35E-04,  avg # of iterations =  6.8

     negative rho (up, down):  0.619E-02 0.000E+00

     total cpu time spent up to now is     4579.9 secs

     total energy              =   -3294.15790863 Ry
     Harris-Foulkes estimate   =   -3294.19499657 Ry
     estimated scf accuracy    <       0.51716427 Ry

     iteration # 11     ecut=    40.00 Ry     beta=0.30
     Davidson diagonalization with overlap
     ethr =  1.23E-04,  avg # of iterations =  2.2

     negative rho (up, down):  0.552E-02 0.000E+00

     total cpu time spent up to now is     4859.7 secs

     total energy              =   -3294.16517236 Ry
     Harris-Foulkes estimate   =   -3294.17849013 Ry
     estimated scf accuracy    <       0.08192390 Ry

     iteration # 12     ecut=    40.00 Ry     beta=0.30
     Davidson diagonalization with overlap
     ethr =  1.94E-05,  avg # of iterations =  6.9

     negative rho (up, down):  0.499E-02 0.000E+00

     total cpu time spent up to now is     5424.4 secs

     total energy              =   -3294.16791260 Ry
     Harris-Foulkes estimate   =   -3294.17519058 Ry
     estimated scf accuracy    <       0.07006411 Ry

     iteration # 13     ecut=    40.00 Ry     beta=0.30
     Davidson diagonalization with overlap
     ethr =  1.66E-05,  avg # of iterations =  1.3

     negative rho (up, down):  0.491E-02 0.000E+00

     total cpu time spent up to now is     5651.5 secs

     total energy              =   -3294.16842181 Ry
     Harris-Foulkes estimate   =   -3294.17487219 Ry
     estimated scf accuracy    <       0.05786517 Ry

     iteration # 14     ecut=    40.00 Ry     beta=0.30
     Davidson diagonalization with overlap
     ethr =  1.37E-05,  avg # of iterations =  1.0

     negative rho (up, down):  0.480E-02 0.000E+00

     total cpu time spent up to now is     5862.0 secs

     total energy              =   -3294.16946484 Ry
     Harris-Foulkes estimate   =   -3294.17394843 Ry
     estimated scf accuracy    <       0.13725984 Ry

     iteration # 15     ecut=    40.00 Ry     beta=0.30
     Davidson diagonalization with overlap
     ethr =  1.37E-05,  avg # of iterations =  5.2

     negative rho (up, down):  0.480E-02 0.000E+00

     total cpu time spent up to now is     6310.5 secs

     total energy              =   -3294.17035252 Ry
     Harris-Foulkes estimate   =   -3294.17409950 Ry
     estimated scf accuracy    <       0.17332786 Ry

     iteration # 16     ecut=    40.00 Ry     beta=0.30
     Davidson diagonalization with overlap
     ethr =  1.37E-05,  avg # of iterations =  1.0

     negative rho (up, down):  0.480E-02 0.000E+00

     total cpu time spent up to now is     6519.9 secs

     total energy              =   -3294.17208653 Ry
     Harris-Foulkes estimate   =   -3294.17256572 Ry
     estimated scf accuracy    <       0.00581415 Ry

     iteration # 17     ecut=    40.00 Ry     beta=0.30
     Davidson diagonalization with overlap
     ethr =  1.38E-06,  avg # of iterations =  4.9

     negative rho (up, down):  0.480E-02 0.000E+00

     total cpu time spent up to now is     6942.1 secs

     total energy              =   -3294.17219627 Ry
     Harris-Foulkes estimate   =   -3294.17251809 Ry
     estimated scf accuracy    <       0.00510409 Ry

     iteration # 18     ecut=    40.00 Ry     beta=0.30
     Davidson diagonalization with overlap
     ethr =  1.21E-06,  avg # of iterations =  1.0

     negative rho (up, down):  0.480E-02 0.000E+00

     total cpu time spent up to now is     7152.6 secs

     total energy              =   -3294.17235690 Ry
     Harris-Foulkes estimate   =   -3294.17243051 Ry
     estimated scf accuracy    <       0.00099208 Ry

     iteration # 19     ecut=    40.00 Ry     beta=0.30
     Davidson diagonalization with overlap
     ethr =  2.35E-07,  avg # of iterations =  1.0

     negative rho (up, down):  0.480E-02 0.000E+00

     total cpu time spent up to now is     7362.4 secs

     total energy              =   -3294.17234095 Ry
     Harris-Foulkes estimate   =   -3294.17245346 Ry
     estimated scf accuracy    <       0.00118663 Ry

     iteration # 20     ecut=    40.00 Ry     beta=0.30
     Davidson diagonalization with overlap
     ethr =  2.35E-07,  avg # of iterations =  1.0

     negative rho (up, down):  0.480E-02 0.000E+00

     total cpu time spent up to now is     7573.9 secs

     total energy              =   -3294.17240011 Ry
     Harris-Foulkes estimate   =   -3294.17241962 Ry
     estimated scf accuracy    <       0.00025000 Ry

     iteration # 21     ecut=    40.00 Ry     beta=0.30
     Davidson diagonalization with overlap
     ethr =  5.92E-08,  avg # of iterations =  1.0

     negative rho (up, down):  0.480E-02 0.000E+00

     total cpu time spent up to now is     7784.8 secs

     total energy              =   -3294.17240609 Ry
     Harris-Foulkes estimate   =   -3294.17242362 Ry
     estimated scf accuracy    <       0.00022767 Ry

     iteration # 22     ecut=    40.00 Ry     beta=0.30
     Davidson diagonalization with overlap
     ethr =  5.40E-08,  avg # of iterations =  1.0

     negative rho (up, down):  0.480E-02 0.000E+00

     total cpu time spent up to now is     7994.2 secs

     total energy              =   -3294.17240953 Ry
     Harris-Foulkes estimate   =   -3294.17242212 Ry
     estimated scf accuracy    <       0.00020672 Ry

     iteration # 23     ecut=    40.00 Ry     beta=0.30
     Davidson diagonalization with overlap
     ethr =  4.90E-08,  avg # of iterations =  1.0

     negative rho (up, down):  0.480E-02 0.000E+00

     total cpu time spent up to now is     8205.2 secs

     total energy              =   -3294.17241488 Ry
     Harris-Foulkes estimate   =   -3294.17241810 Ry
     estimated scf accuracy    <       0.00002807 Ry

     iteration # 24     ecut=    40.00 Ry     beta=0.30
     Davidson diagonalization with overlap
     ethr =  6.65E-09,  avg # of iterations =  1.0

     negative rho (up, down):  0.480E-02 0.000E+00

     total cpu time spent up to now is     8414.9 secs

     total energy              =   -3294.17241580 Ry
     Harris-Foulkes estimate   =   -3294.17241697 Ry
     estimated scf accuracy    <       0.00000892 Ry

     iteration # 25     ecut=    40.00 Ry     beta=0.30
     Davidson diagonalization with overlap
     ethr =  2.11E-09,  avg # of iterations =  1.0

     negative rho (up, down):  0.480E-02 0.000E+00

     total cpu time spent up to now is     8626.0 secs

     total energy              =   -3294.17241510 Ry
     Harris-Foulkes estimate   =   -3294.17241724 Ry
     estimated scf accuracy    <       0.00004381 Ry

     iteration # 26     ecut=    40.00 Ry     beta=0.30
     Davidson diagonalization with overlap
     ethr =  2.11E-09,  avg # of iterations =  1.0

     negative rho (up, down):  0.480E-02 0.000E+00

     total cpu time spent up to now is     8838.0 secs

     total energy              =   -3294.17241580 Ry
     Harris-Foulkes estimate   =   -3294.17241675 Ry
     estimated scf accuracy    <       0.00001300 Ry

     iteration # 27     ecut=    40.00 Ry     beta=0.30
     Davidson diagonalization with overlap
     ethr =  2.11E-09,  avg # of iterations =  1.0

     negative rho (up, down):  0.480E-02 0.000E+00

     total cpu time spent up to now is     9049.7 secs

     total energy              =   -3294.17241561 Ry
     Harris-Foulkes estimate   =   -3294.17241696 Ry
     estimated scf accuracy    <       0.00004533 Ry

     iteration # 28     ecut=    40.00 Ry     beta=0.30
     Davidson diagonalization with overlap
     ethr =  2.11E-09,  avg # of iterations =  1.0

     negative rho (up, down):  0.480E-02 0.000E+00

     total cpu time spent up to now is     9260.1 secs

     total energy              =   -3294.17241608 Ry
     Harris-Foulkes estimate   =   -3294.17241642 Ry
     estimated scf accuracy    <       0.00000274 Ry

     iteration # 29     ecut=    40.00 Ry     beta=0.30
     Davidson diagonalization with overlap
     ethr =  6.49E-10,  avg # of iterations =  1.0

     negative rho (up, down):  0.480E-02 0.000E+00

     total cpu time spent up to now is     9470.3 secs

     total energy              =   -3294.17241614 Ry
     Harris-Foulkes estimate   =   -3294.17241634 Ry
     estimated scf accuracy    <       0.00000172 Ry

     iteration # 30     ecut=    40.00 Ry     beta=0.30
     Davidson diagonalization with overlap
     ethr =  4.07E-10,  avg # of iterations =  1.0

     negative rho (up, down):  0.480E-02 0.000E+00

     total cpu time spent up to now is     9680.1 secs

     total energy              =   -3294.17241619 Ry
     Harris-Foulkes estimate   =   -3294.17241632 Ry
     estimated scf accuracy    <       0.00000124 Ry

     iteration # 31     ecut=    40.00 Ry     beta=0.30
     Davidson diagonalization with overlap
     ethr =  2.94E-10,  avg # of iterations =  1.0

     negative rho (up, down):  0.480E-02 0.000E+00

     total cpu time spent up to now is     9889.8 secs

     End of self-consistent calculation

          k = 0.0000 0.0000 0.0000 ( 41461 PWs)   bands (ev):

   -61.5878 -61.5792 -61.5276 -61.4631 -61.4208 -61.3757 -61.3449 -61.3368
   -61.3039 -61.2869 -61.2797 -61.2576 -61.2187 -61.2118 -61.1670 -61.0987
   -36.1653 -36.0914 -36.0869 -36.0679 -36.0367 -36.0030 -35.9812 -35.9476
   -35.8993 -35.8879 -35.8533 -35.7796 -35.7272 -35.7005 -35.6929 -35.6504
   -35.6438 -35.6319 -35.5944 -35.5365 -35.5349 -35.5222 -35.5110 -35.5082
   -35.4855 -35.4805 -35.4683 -35.4386 -35.4079 -35.3912 -35.3876 -35.2928
   -35.2822 -35.2817 -35.2794 -35.2653 -35.2528 -35.2157 -35.2110 -35.1435
   -35.0173 -35.0064 -34.9986 -34.9442 -34.9069 -34.8428 -34.7334 -34.6294
   -19.4336 -19.1791 -19.0638 -18.9508 -18.8841 -18.7014 -18.6142 -18.4343
   -18.4205 -18.2684 -18.2382 -18.1886 -18.1663 -18.1253 -18.1057 -18.0439
   -18.0229 -17.9127 -17.8381 -17.8364 -17.8260 -17.7701 -17.7307 -17.7279
   -17.6947 -17.5171 -17.5119 -17.4045 -16.7572 -16.5677 -16.3948 -16.1150
   -15.6938  -7.4356  -7.4007  -7.3399  -7.2531  -7.1288  -7.1021  -7.0075
    -6.8250  -6.5688  -6.5137  -6.3834  -6.3784  -6.3034  -6.1841  -6.1550
    -6.1170  -5.9923  -5.9867  -5.9555  -5.8708  -5.8100  -5.7834  -5.7105
    -5.7002  -5.6583  -5.6245  -5.5412  -5.4097  -5.3782  -5.3629  -5.3360
    -5.2991  -5.2971  -5.2583  -5.0903  -4.9362  -4.8356  -4.7416  -4.6901
    -4.5781  -4.5751  -4.4584  -4.3373  -4.3093  -4.2984  -4.2509  -4.2398
    -4.2280  -4.1227  -4.0777  -4.0510  -3.8476  -3.8271  -3.7651  -3.6737
    -3.6618  -3.6469  -3.6455  -3.5768  -3.4926  -3.4223  -3.4125  -3.3103
    -3.2499  -3.2476  -3.2284  -3.1868  -3.1708  -3.1634  -3.0624  -2.9965
    -2.9019  -2.7674  -2.7359  -2.6967  -2.6862  -2.5591  -2.5373  -2.4960
    -2.3939  -2.3541  -2.2601  -2.2473  -2.1654  -2.1605  -2.1259  -2.0619
    -2.0171  -1.9866  -1.8925  -1.6391  -1.5406  -1.5322  -1.5277  -1.4933
    -1.4733  -1.4557  -1.3950  -1.2735  -1.1185  -1.0569  -1.0401  -0.6314
    -0.3723  -0.3200  -0.1764   0.3029   0.5239   0.6055   0.7003   0.8187
     0.8979   0.9473   1.0652   1.2806   1.3367   1.3972   1.4871   1.5026
     1.5153   1.5776   1.6412   1.6927   1.7319   1.7623   1.8651   1.9793
     1.9958   2.0321   2.0377   2.1537   2.1940   2.3194   2.5174   2.6883
     2.8691   3.0125   3.0200   3.0682   3.2903   3.5638   3.7894   3.8790
     3.9165   3.9920   4.0545   4.0740   4.0795   4.1349   4.2923   4.4192
     4.5099   4.5275   4.7456   4.8719   5.0196   5.1243   5.3121   5.3618
     5.4533   5.4557   5.4926   5.5496   5.6261   5.6409   5.6678   5.8530
     5.8576   5.8913   5.9331   5.9907   6.0729   6.1129   6.1511   6.1639
     6.2287   6.3931   6.4227   6.4743   6.8525   7.0082   7.1228   7.2211
     7.4259   7.7114   7.9713   8.2662   8.3815   8.5538   9.0109   9.0531
     9.1561   9.1936   9.3758   9.5382   9.6054   9.7720   9.8386   9.8652
     9.8936   9.9122  10.0126  10.1219  10.2609  10.2948  10.3762  10.4094
    10.4661  10.5440  10.5845  10.6159  10.7336  10.8061  10.8314  10.8316
    10.8624  11.0243  11.0848  11.1585  11.2122  11.2726  11.2750  11.4114
    11.4969  11.5479  11.6929  11.7133  11.7493  11.7601  11.9128  11.9245
    11.9366  12.0504  12.1883  12.2556  12.2990  12.3909  12.5374  12.6352
    12.6541  12.6953  12.7116  12.7334  12.8219  12.8561  12.8896  12.9175
    12.9604  13.1347  13.1950  13.2147  13.4242  13.4914  13.5243  13.5928
    13.7120  13.7822  13.8426  13.8695  13.9221  14.0345  14.0967  14.1290
    14.1346  14.2030  14.2657  14.2768  14.3287  14.3624  14.4734  14.5247
    14.5593  14.6146  14.6725  14.6817  14.7214  14.7461  14.8675  14.8862
    14.9870  15.0329  15.0417  15.0880  15.1900  15.2019  15.3397  15.4370
    15.4533  15.5212  15.5487  15.5828  15.5899  15.6205  15.6685  15.7321
    15.7851  15.7957  15.7962  15.9656  16.0382  16.0755  16.1050  16.1770
    16.1860  16.1982  16.2417  16.2481  16.2770  16.3475  16.3638  16.3953
    16.4785  16.5091  16.5709  16.5943  16.6530  16.6707  16.7180  16.7520
    16.7581  16.7962  16.8168  16.9307  16.9850  17.0171  17.0298  17.1141
    17.1394  17.2812  17.3514  17.3697  17.4009  17.4297  17.5222  17.5659
    17.7656  17.8149  17.8441  17.9744  18.0671  18.1121  18.1298  18.1544
    18.1868  18.3780  18.4154  18.4184  18.5118  18.5922  18.6528  18.6900
    18.7703  18.8641  18.9202  18.9736  19.0508  19.0736  19.0879  19.1410
    19.1914  19.2180  19.2705  19.3035  19.3368  19.3775  19.4710  19.4784
    19.5400  19.5864  19.6100  19.6355  19.6956  19.7372  19.7476  19.7715
    19.8560  19.8659  19.8768  19.9644  20.0099  20.0854  20.0951  20.1550
    20.1639  20.1918  20.2565  20.2677  20.2927  20.3276  20.4776  20.5135
    20.5771  20.5948  20.6335  20.6934  20.7211  20.7241  20.7754  20.8175
    20.8515  20.9235  21.0188  21.0732  21.1032  21.2756  21.3058  21.4239
    21.4417  21.5577  21.6111  21.6638  21.6699  21.6937  21.8234  21.8894
    21.9222  21.9444  22.0453  22.0700  22.1191  22.2367  22.3145  22.3429
    22.3688  22.4102  22.5587  22.5849  22.6064  22.6951  22.7065  22.8125
    22.8231  22.8781  22.9278  22.9378  23.0870  23.1222  23.1323  23.1475
    23.1504  23.2192  23.2481  23.2565  23.2888  23.4160  23.4234  23.4775
    23.5890  23.6082  23.6114  23.6268  23.6863  23.7539  23.7886  23.8068
    23.8122  23.8490  23.8745  23.8863  23.9078  23.9115  24.0050  24.0274
    24.0554  24.0784  24.1217  24.1408  24.1961  24.2471  24.2982  24.3050
    24.3116  24.4206  24.4317  24.4604  24.5176  24.5213  24.5537  24.5624
    24.5994  24.6049  24.6628  24.7292  24.8574  24.8611  24.8689  24.9400
    24.9468  25.0552  25.1225  25.1277  25.1539  25.2007  25.2304  25.2354
    25.2544  25.3142  25.3290  25.4097  25.5822  25.6480  25.6567  25.6630
    25.7046  25.7638  25.8068  25.8228  25.8881  25.9845  26.0402  26.0578
    26.0752  26.0872  26.1119  26.1814  26.2166  26.2735  26.2886  26.3240
    26.3404  26.4337  26.4480  26.4832  26.5657  26.5760  26.5763  26.7534
    26.7714  26.8005  26.8686  26.8898  26.9922  26.9980  27.0067  27.0996
    27.1377

          k = 0.0000 0.1950 0.0000 ( 41423 PWs)   bands (ev):

   -61.5878 -61.5792 -61.5276 -61.4631 -61.4208 -61.3757 -61.3449 -61.3368
   -61.3039 -61.2869 -61.2796 -61.2576 -61.2187 -61.2118 -61.1670 -61.0987
   -36.1654 -36.0916 -36.0880 -36.0695 -36.0368 -36.0032 -35.9814 -35.9508
   -35.8979 -35.8925 -35.8535 -35.7692 -35.7150 -35.7003 -35.6931 -35.6327
   -35.6318 -35.6268 -35.5908 -35.5366 -35.5349 -35.5222 -35.5194 -35.5110
   -35.5058 -35.4804 -35.4686 -35.4516 -35.4156 -35.3893 -35.3862 -35.2928
   -35.2822 -35.2818 -35.2796 -35.2665 -35.2526 -35.2181 -35.2108 -35.1434
   -35.0173 -35.0063 -34.9985 -34.9437 -34.9074 -34.8429 -34.7335 -34.6294
   -19.4005 -19.1156 -19.0000 -18.8364 -18.7771 -18.6339 -18.5639 -18.5251
   -18.4341 -18.4197 -18.4158 -18.4044 -18.2721 -18.1866 -18.1714 -18.1168
   -17.9941 -17.9162 -17.8747 -17.8255 -17.7625 -17.7522 -17.6919 -17.6152
   -17.5832 -17.5677 -17.4033 -17.3503 -16.7558 -16.5668 -16.3938 -16.1149
   -15.6917  -7.3295  -7.0994  -7.0961  -7.0188  -6.9699  -6.9431  -6.7956
    -6.7562  -6.6510  -6.6504  -6.6240  -6.5779  -6.5476  -6.4109  -6.3939
    -6.3581  -6.3389  -6.3312  -6.2248  -6.1460  -6.0032  -5.9450  -5.8810
    -5.8248  -5.8122  -5.5450  -5.4379  -5.2527  -5.1686  -5.1242  -5.0221
    -4.9876  -4.8976  -4.8745  -4.8118  -4.7797  -4.7638  -4.5979  -4.5726
    -4.5706  -4.4364  -4.4047  -4.3552  -4.2760  -4.2548  -4.2320  -4.2141
    -4.2118  -4.1430  -4.1336  -4.1198  -4.0453  -4.0128  -4.0003  -3.8806
    -3.8041  -3.7629  -3.7495  -3.6998  -3.6422  -3.4347  -3.3495  -3.3457
    -3.2721  -3.1799  -3.1716  -3.0417  -3.0204  -2.9986  -2.9557  -2.9006
    -2.8809  -2.8646  -2.8042  -2.7480  -2.6665  -2.6251  -2.4874  -2.4609
    -2.3988  -2.3724  -2.3209  -2.2876  -2.2490  -2.2434  -2.1960  -2.1788
    -2.1376  -2.0610  -2.0411  -1.9092  -1.6572  -1.5455  -1.4863  -1.4644
    -1.3750  -1.1250  -1.0717  -1.0118  -0.9793  -0.9302  -0.6288  -0.5484
    -0.5195  -0.4002  -0.1742  -0.0360   0.1607   0.2966   0.3892   0.4998
     0.8172   0.8809   0.9585   1.0229   1.1269   1.4401   1.5822   1.7583
     1.9091   1.9625   1.9842   2.0073   2.0285   2.0360   2.0471   2.0721
     2.1259   2.1627   2.2119   2.2392   2.2579   2.2737   2.4624   2.6564
     2.7431   2.8092   3.0443   3.0538   3.2815   3.3678   3.7375   3.8532
     3.9842   4.0163   4.0794   4.1118   4.2128   4.2246   4.2865   4.3202
     4.4619   4.5717   4.6641   4.7080   4.7331   4.8512   4.8782   5.0915
     5.1240   5.1720   5.1981   5.3122   5.3172   5.3740   5.3765   5.5434
     5.6737   5.8279   6.0627   6.0994   6.1493   6.3431   6.4238   6.6239
     6.9651   7.0253   7.0268   7.1125   7.2297   7.2417   7.3049   7.3064
     7.5874   7.6139   7.7345   8.0338   8.2799   8.4302   8.5673   8.6377
     8.7177   8.8962   8.9633   9.1037   9.2988   9.3099   9.3383   9.4606
     9.6512   9.8248  10.1466  10.2499  10.4097  10.4647  10.5740  10.6558
    10.6938  10.7901  10.8123  10.8741  10.9690  11.0243  11.0350  11.1238
    11.2832  11.3007  11.3325  11.4321  11.4871  11.5578  11.6421  11.6549
    11.7399  11.7945  11.8520  11.9009  11.9213  11.9332  12.0705  12.0852
    12.2736  12.3214  12.3446  12.3730  12.4132  12.5183  12.6053  12.6922
    12.7595  12.7906  12.8062  12.8678  12.8935  12.9594  13.0172  13.0449
    13.1582  13.1855  13.2325  13.2641  13.2796  13.3365  13.3552  13.4752
    13.4778  13.5413  13.5492  13.6056  13.6237  13.6936  13.7567  13.7855
    13.8440  13.8672  13.9637  14.0334  14.0544  14.0718  14.1463  14.1572
    14.1895  14.2000  14.2395  14.5479  14.6057  14.7013  14.7434  14.7860
    14.8296  14.9350  15.0256  15.0634  15.2112  15.2347  15.2540  15.4454
    15.5197  15.5880  15.6663  15.6875  15.7077  15.7968  15.8776  15.9180
    15.9623  16.0193  16.0432  16.0440  16.0646  16.0832  16.0871  16.1085
    16.2183  16.2257  16.2531  16.2842  16.3097  16.3556  16.4028  16.4385
    16.5129  16.5381  16.5516  16.6120  16.6264  16.6610  16.7468  16.7644
    16.8075  16.8429  16.8781  16.9391  16.9637  17.0299  17.0837  17.1101
    17.1555  17.1646  17.2410  17.3278  17.3710  17.4292  17.6316  17.6407
    17.6590  17.6975  17.7320  17.8143  17.8323  17.9094  17.9610  18.0308
    18.0700  18.1912  18.2176  18.2968  18.3367  18.3710  18.4431  18.5584
    18.5805  18.6012  18.6551  18.7032  18.7648  18.8229  18.8943  18.9255
    18.9982  19.0274  19.1358  19.1870  19.2583  19.3309  19.3327  19.3486
    19.5072  19.5111  19.5819  19.6206  19.7212  19.7832  19.8017  19.8185
    19.8694  19.9287  19.9867  20.0605  20.0687  20.1270  20.1679  20.2427
    20.2903  20.4278  20.4349  20.4602  20.5162  20.5499  20.6292  20.6966
    20.7558  20.7986  20.8311  20.8791  20.9310  21.0112  21.0563  21.1122
    21.1882  21.2002  21.2208  21.2439  21.3336  21.3822  21.3900  21.4680
    21.5592  21.5678  21.6183  21.6262  21.6290  21.7254  21.7713  21.8505
    21.9132  21.9230  21.9293  21.9933  22.0176  22.0810  22.1161  22.1392
    22.1762  22.2182  22.2455  22.3042  22.3115  22.3996  22.4464  22.5328
    22.5592  22.5657  22.6069  22.6213  22.6779  22.7814  22.8212  22.8284
    22.8928  22.9294  22.9501  22.9780  23.0666  23.0730  23.1177  23.1973
    23.2517  23.2799  23.3834  23.3861  23.4242  23.4663  23.5263  23.5478
    23.5995  23.6810  23.6969  23.7067  23.8243  23.8630  23.8859  23.9152
    24.0376  24.0773  24.0965  24.1268  24.1671  24.2092  24.2291  24.2514
    24.2994  24.4031  24.4382  24.4568  24.5183  24.5473  24.5568  24.6321
    24.6460  24.8050  24.8632  24.9376  24.9568  25.0176  25.0652  25.0927
    25.1101  25.1680  25.2305  25.3539  25.3989  25.4164  25.4371  25.4869
    25.5305  25.5383  25.7151  25.7186  25.7621  25.8306  25.8790  25.9206
    26.0297  26.1144  26.1986  26.2209  26.2304  26.3034  26.3335  26.4148
    26.4635  26.5247  26.5550  26.5700  26.6402  26.7121  26.7667  26.8175
    26.8176  26.8300  26.8415  26.8911  26.9159  26.9719  26.9739  27.0720
    27.1031  27.1308  27.1613  27.1896  27.2414  27.2849  27.3224  27.3620
    27.3867

          k = 0.0000-0.3900 0.0000 ( 41482 PWs)   bands (ev):

   -61.5878 -61.5792 -61.5276 -61.4631 -61.4207 -61.3758 -61.3449 -61.3368
   -61.3039 -61.2869 -61.2796 -61.2576 -61.2188 -61.2118 -61.1670 -61.0987
   -36.1656 -36.0918 -36.0892 -36.0710 -36.0369 -36.0034 -35.9816 -35.9539
   -35.9065 -35.8855 -35.8536 -35.7601 -35.7016 -35.7000 -35.6934 -35.6318
   -35.6140 -35.5943 -35.5873 -35.5395 -35.5371 -35.5351 -35.5333 -35.5223
   -35.5110 -35.4802 -35.4688 -35.4658 -35.4235 -35.3874 -35.3849 -35.2928
   -35.2822 -35.2818 -35.2798 -35.2676 -35.2524 -35.2206 -35.2107 -35.1434
   -35.0173 -35.0062 -34.9984 -34.9432 -34.9078 -34.8429 -34.7336 -34.6295
   -19.3723 -19.0891 -18.8798 -18.6740 -18.6694 -18.5897 -18.5618 -18.5513
   -18.4881 -18.4404 -18.4295 -18.3964 -18.2862 -18.2549 -18.2416 -18.2147
   -18.2010 -18.1322 -18.0801 -17.8589 -17.8291 -17.7590 -17.6763 -17.5056
   -17.4031 -17.3972 -17.3957 -17.2253 -16.7547 -16.5660 -16.3929 -16.1147
   -15.6899  -7.3085  -7.0988  -7.0843  -7.0177  -6.9426  -6.8752  -6.8516
    -6.8330  -6.7916  -6.7862  -6.4592  -6.3934  -6.3724  -6.3396  -6.3152
    -6.3124  -6.2764  -6.1929  -6.1748  -6.1004  -5.9641  -5.9136  -5.9133
    -5.8025  -5.6736  -5.5325  -5.5231  -5.5201  -5.4912  -5.4680  -5.3948
    -5.1975  -5.1245  -5.0337  -4.8415  -4.7663  -4.6982  -4.6781  -4.6302
    -4.5542  -4.4808  -4.4768  -4.4304  -4.3639  -4.1696  -4.1554  -4.1284
    -4.0965  -4.0507  -4.0366  -4.0184  -3.9119  -3.8700  -3.8188  -3.8167
    -3.7588  -3.6727  -3.6642  -3.6076  -3.5912  -3.5293  -3.4019  -3.3808
    -3.2612  -3.2051  -3.0923  -3.0422  -3.0117  -2.9600  -2.9526  -2.9010
    -2.8222  -2.8054  -2.7215  -2.6872  -2.5963  -2.5673  -2.5559  -2.5518
    -2.4821  -2.3692  -2.3424  -2.3094  -2.2582  -2.2375  -2.2021  -2.1951
    -2.1601  -2.1179  -2.0068  -1.9870  -1.8519  -1.7012  -1.5607  -1.4438
    -1.3294  -1.1179  -1.0808  -0.7141  -0.7001  -0.6756  -0.6452  -0.6162
    -0.4654  -0.4485  -0.1943  -0.1703  -0.0088   0.0297   0.0462   0.1621
     0.7891   0.8193   0.9018   0.9695   1.4254   1.5637   1.7368   1.7586
     1.7780   2.0145   2.0576   2.0674   2.0721   2.1818   2.2763   2.2768
     2.3231   2.3509   2.3818   2.4121   2.4790   2.5041   2.6032   2.6298
     2.6692   2.7771   2.9523   3.0608   3.1255   3.4069   3.5610   3.7071
     3.7974   3.9094   3.9216   3.9238   4.0258   4.1788   4.1870   4.2813
     4.3491   4.4465   4.6341   4.7229   4.7325   4.8053   4.8243   4.8322
     4.8938   5.0349   5.1256   5.3160   5.3208   5.3254   5.4935   5.6686
     5.6726   5.9274   5.9746   6.1209   6.1532   6.3490   6.6577   6.9451
     7.1156   7.2507   7.2793   7.4346   7.4364   7.5555   7.6146   7.6949
     7.7011   7.7147   7.8190   7.8256   7.8671   8.0092   8.1710   8.2716
     8.3418   8.6181   8.7551   8.7583   8.9816   9.0803   9.3203   9.4697
     9.5888   9.7135   9.9112  10.0284  10.4019  10.4986  10.6720  10.6835
    10.7058  10.8020  10.8482  10.9829  11.0216  11.0921  11.1962  11.5502
    11.5674  11.7125  11.7191  11.7469  11.8644  11.9347  12.0057  12.1419
    12.1423  12.1858  12.2073  12.3096  12.3265  12.3760  12.3915  12.4357
    12.4727  12.4857  12.4986  12.5156  12.5606  12.5850  12.6314  12.6602
    12.7199  12.7583  12.7837  12.8350  12.8805  12.9000  13.0084  13.0262
    13.1077  13.1793  13.2091  13.2317  13.2610  13.2782  13.2928  13.3201
    13.3686  13.4647  13.4766  13.4815  13.4955  13.5249  13.6368  13.6492
    13.7539  13.7753  13.7908  13.8881  13.8938  13.9467  13.9475  13.9932
    14.0533  14.1379  14.2069  14.2370  14.4631  14.5528  14.5620  14.5744
    14.6297  14.6477  14.7357  14.8580  15.0225  15.1378  15.1482  15.1843
    15.2555  15.2763  15.2902  15.3340  15.5164  15.5718  15.5964  15.6411
    15.6686  15.6689  15.8191  15.8260  15.8517  15.8562  15.9575  15.9780
    16.0493  16.0813  16.0890  16.1883  16.1953  16.3472  16.3612  16.3795
    16.4511  16.4936  16.5355  16.5782  16.6104  16.7299  16.7470  16.7674
    16.8397  16.9301  16.9303  17.0062  17.0182  17.1455  17.2524  17.3353
    17.3784  17.5178  17.7113  17.7300  17.7578  17.7666  17.9303  18.0336
    18.0583  18.1714  18.1855  18.1918  18.2057  18.2205  18.2344  18.3379
    18.3891  18.3904  18.4009  18.4209  18.4645  18.5369  18.5835  18.5882
    18.6174  18.6774  18.7048  18.7121  18.7707  18.8410  18.8800  18.9369
    18.9808  19.0232  19.0876  19.2043  19.2138  19.2252  19.2643  19.2645
    19.3016  19.3106  19.4969  19.5575  19.5766  19.5787  19.6162  19.6179
    19.6183  19.6233  19.7190  19.7367  19.7736  19.8778  19.9095  19.9480
    19.9662  19.9819  20.1056  20.1644  20.1744  20.3180  20.3548  20.3766
    20.4499  20.5001  20.5814  20.6149  20.6984  20.7485  20.7734  20.9469
    20.9773  21.1050  21.1496  21.2073  21.2852  21.2885  21.3186  21.3424
    21.3639  21.3898  21.4351  21.4729  21.5157  21.5799  21.6019  21.6080
    21.6450  21.7186  21.7430  21.8099  21.8183  21.8473  21.8940  21.9036
    21.9998  22.0125  22.0189  22.1734  22.2419  22.2434  22.3462  22.3575
    22.4125  22.6132  22.6234  22.6793  22.7209  22.7300  22.7824  22.9301
    22.9708  22.9792  22.9841  23.0125  23.0765  23.1861  23.1871  23.2263
    23.2338  23.3107  23.4216  23.5162  23.5722  23.7441  23.7716  23.8063
    23.8175  23.8237  23.8552  23.9080  23.9482  24.1180  24.1289  24.1686
    24.2115  24.2133  24.2137  24.2312  24.3179  24.3657  24.4014  24.4168
    24.4221  24.6252  24.6990  24.7217  24.8132  24.9663  24.9889  24.9956
    25.1248  25.1293  25.1580  25.2191  25.2481  25.2484  25.2955  25.4361
    25.4929  25.5359  25.5875  25.5991  25.6547  25.6676  25.6910  25.7349
    25.8075  25.9273  25.9899  26.0331  26.0440  26.0756  26.1014  26.1568
    26.1769  26.1884  26.2074  26.2617  26.3032  26.3529  26.3562  26.3832
    26.3974  26.4098  26.4307  26.4631  26.6818  26.7594  26.7750  26.8180
    26.8273  26.8703  26.8778  26.8894  26.9381  27.0096  27.0317  27.0689
    27.0869  27.1200  27.1428  27.1921  27.2666  27.2748  27.3012  27.3405
    27.4710

          k = 0.2500 0.0000 0.0000 ( 41449 PWs)   bands (ev):

   -61.5832 -61.5624 -61.5205 -61.4803 -61.4039 -61.3589 -61.3343 -61.3212
   -61.3199 -61.2944 -61.2747 -61.2691 -61.2360 -61.2168 -61.1780 -61.1098
   -36.0321 -36.0236 -35.9805 -35.9433 -35.9275 -35.8914 -35.8817 -35.8580
   -35.8383 -35.8035 -35.7971 -35.7431 -35.7072 -35.6903 -35.6756 -35.6291
   -35.6220 -35.6145 -35.6133 -35.5490 -35.5303 -35.5266 -35.5141 -35.5109
   -35.4772 -35.4556 -35.4441 -35.4142 -35.4112 -35.3949 -35.3802 -35.3221
   -35.3110 -35.3060 -35.3007 -35.2800 -35.2765 -35.2529 -35.2406 -35.2296
   -35.1638 -35.1610 -35.1040 -35.0679 -35.0425 -35.0047 -34.8641 -34.7638
   -19.2988 -19.0882 -18.9633 -18.8147 -18.7546 -18.5779 -18.5128 -18.4202
   -18.3656 -18.3292 -18.1803 -18.1717 -18.1323 -18.1134 -18.0978 -18.0579
   -18.0416 -17.9982 -17.9597 -17.8801 -17.8632 -17.7863 -17.7678 -17.7541
   -17.7253 -17.6715 -17.5825 -17.4432 -16.8248 -16.6339 -16.3859 -16.1934
   -15.6909  -7.2471  -7.1483  -7.1162  -7.0449  -6.9648  -6.8239  -6.6326
    -6.5553  -6.4308  -6.3758  -6.2793  -6.2259  -6.1923  -6.1482  -6.1432
    -6.0017  -6.0015  -5.9591  -5.9575  -5.8735  -5.8432  -5.8131  -5.7595
    -5.6916  -5.5433  -5.5110  -5.4805  -5.4556  -5.4375  -5.3318  -5.2487
    -5.1402  -5.1226  -5.0987  -5.0350  -5.0279  -4.9775  -4.8884  -4.8509
    -4.7576  -4.7452  -4.6043  -4.5012  -4.4794  -4.4793  -4.4232  -4.3330
    -4.3174  -4.2107  -4.1352  -4.0394  -3.9361  -3.9165  -3.8123  -3.6764
    -3.6459  -3.4981  -3.4914  -3.3839  -3.3322  -3.3081  -3.2626  -3.2409
    -3.1988  -3.1567  -3.1467  -3.1328  -3.0861  -3.0855  -3.0133  -3.0031
    -2.9874  -2.9870  -2.9239  -2.7982  -2.7781  -2.7687  -2.7314  -2.7036
    -2.6980  -2.5856  -2.5134  -2.4956  -2.4359  -2.4129  -2.2071  -2.1948
    -2.1687  -1.9875  -1.8817  -1.7849  -1.7452  -1.5968  -1.4992  -1.4654
    -1.3278  -1.2871  -0.7824  -0.7719  -0.7172  -0.6791  -0.5075  -0.4627
    -0.2752  -0.2470   0.2610   0.3888   0.4435   0.5590   0.5870   0.6543
     0.8247   0.9161   0.9582   1.0564   1.1525   1.3410   1.4026   1.4375
     1.4554   1.5905   1.6492   1.6974   1.7300   1.7496   1.7956   1.8287
     1.9002   2.1215   2.2047   2.2672   2.3200   2.3742   2.5361   2.5845
     2.5883   2.7251   2.7501   2.7617   2.7809   2.8097   2.9608   3.0028
     3.1284   3.2144   3.3085   3.5188   3.5414   3.7193   3.8144   4.2682
     4.6306   4.7619   4.8718   5.0236   5.1077   5.2121   5.3426   5.3578
     5.3952   5.4288   5.4672   5.5009   5.5823   5.6778   5.6915   5.7122
     5.8197   5.9351   5.9390   5.9618   6.0393   6.0746   6.1668   6.2089
     6.3433   6.5444   6.7742   6.8367   7.0160   7.1942   7.2147   7.4435
     7.7286   7.7936   7.9137   8.2159   8.5750   8.6746   8.7596   9.2389
     9.3098   9.3799   9.5391   9.6706   9.6751   9.7366   9.8406   9.8870
     9.9197  10.0523  10.1317  10.1420  10.1830  10.2395  10.2950  10.3901
    10.4689  10.4938  10.5807  10.6577  10.6712  10.7597  10.7971  10.8739
    11.0265  11.0762  11.1227  11.1361  11.1738  11.1962  11.2946  11.3529
    11.4721  11.4867  11.6279  11.6652  11.7290  11.7952  11.8301  12.0185
    12.0866  12.1847  12.1968  12.2387  12.3365  12.4180  12.4526  12.4975
    12.5986  12.6668  12.7511  12.9063  12.9246  12.9939  13.0396  13.0546
    13.1173  13.1585  13.2123  13.2954  13.3479  13.4468  13.4512  13.5512
    13.5520  13.7486  13.7651  13.7716  13.9277  13.9407  13.9817  14.0607
    14.1024  14.1412  14.1701  14.3160  14.3423  14.4089  14.4517  14.4783
    14.5802  14.5848  14.6078  14.7350  14.7498  14.7533  14.8056  14.8342
    14.8365  14.9641  15.0116  15.1611  15.2927  15.3558  15.4492  15.4501
    15.5468  15.5701  15.6138  15.6616  15.7219  15.8760  15.9049  15.9125
    16.0199  16.1642  16.1926  16.1984  16.2583  16.3063  16.3464  16.4279
    16.4796  16.5161  16.5814  16.6143  16.6154  16.6748  16.7428  16.7608
    16.8145  16.8267  16.9305  17.0090  17.0185  17.0925  17.1084  17.1154
    17.1653  17.1679  17.3049  17.3125  17.4752  17.4851  17.5967  17.6253
    17.6764  17.6940  17.7778  17.7999  17.8754  17.9151  17.9725  18.0171
    18.0460  18.0706  18.1689  18.1981  18.2196  18.2543  18.3049  18.4116
    18.4358  18.4971  18.5320  18.5633  18.6961  18.8670  18.9179  18.9537
    18.9843  19.0000  19.0124  19.0376  19.1114  19.1729  19.2259  19.2747
    19.2904  19.3460  19.3827  19.4495  19.4649  19.5412  19.5888  19.5960
    19.6079  19.6619  19.6630  19.7146  19.7178  19.7944  19.8347  19.8796
    19.8940  20.0054  20.0352  20.0705  20.0728  20.1704  20.1996  20.2607
    20.3902  20.4019  20.4479  20.4520  20.4915  20.5689  20.5828  20.6484
    20.7318  20.7378  20.7915  20.8230  20.8599  20.8794  20.9255  21.0060
    21.0673  21.0846  21.1098  21.1833  21.2304  21.3056  21.3658  21.3730
    21.4093  21.5488  21.6034  21.6936  21.7232  21.7524  21.8273  21.8506
    21.8770  21.8990  21.9348  21.9454  22.0181  22.0592  22.0663  22.1515
    22.1517  22.1997  22.2510  22.2735  22.3100  22.3402  22.4232  22.4349
    22.4672  22.4988  22.6289  22.6317  22.6612  22.6736  22.8519  22.8859
    22.8995  22.9043  22.9888  23.0318  23.0547  23.0859  23.1257  23.2374
    23.2646  23.2841  23.2901  23.3261  23.4069  23.4149  23.4161  23.4886
    23.5160  23.5234  23.5750  23.5854  23.6053  23.6763  23.7159  23.7664
    23.7688  23.8213  23.8441  23.9491  23.9631  24.0096  24.0967  24.1053
    24.1400  24.1654  24.1772  24.2831  24.3055  24.3851  24.4367  24.4392
    24.5723  24.5878  24.6095  24.6509  24.6998  24.7249  24.7356  24.7934
    24.8322  24.8794  24.9489  24.9629  24.9877  25.0352  25.0728  25.1698
    25.1952  25.2170  25.3033  25.3155  25.3652  25.3996  25.4219  25.4234
    25.4484  25.5241  25.5679  25.6170  25.6263  25.7266  25.7405  25.7746
    25.8083  25.8498  25.9225  25.9523  25.9646  26.0294  26.0596  26.0676
    26.1056  26.1172  26.2059  26.2241  26.2842  26.2892  26.3209  26.4101
    26.4146  26.5450  26.5816  26.6012  26.6147  26.6791  26.7201  26.7325
    26.7469

          k = 0.2500 0.1950 0.0000 ( 41402 PWs)   bands (ev):

   -61.5832 -61.5624 -61.5205 -61.4803 -61.4038 -61.3589 -61.3343 -61.3212
   -61.3199 -61.2944 -61.2747 -61.2691 -61.2360 -61.2168 -61.1780 -61.1098
   -36.0321 -36.0238 -35.9807 -35.9445 -35.9293 -35.8915 -35.8762 -35.8582
   -35.8386 -35.8114 -35.8086 -35.7274 -35.6973 -35.6903 -35.6757 -35.6145
   -35.6131 -35.6075 -35.6062 -35.5490 -35.5303 -35.5266 -35.5168 -35.5137
   -35.4965 -35.4555 -35.4443 -35.4251 -35.4051 -35.3957 -35.3871 -35.3221
   -35.3111 -35.3061 -35.3003 -35.2816 -35.2815 -35.2536 -35.2414 -35.2330
   -35.1632 -35.1604 -35.1035 -35.0679 -35.0425 -35.0045 -34.8640 -34.7638
   -19.2762 -19.0629 -18.8784 -18.7114 -18.6576 -18.5352 -18.5055 -18.4774
   -18.4243 -18.3829 -18.3685 -18.3313 -18.2836 -18.1283 -18.1155 -18.1077
   -18.0186 -17.9431 -17.9058 -17.8729 -17.8213 -17.7801 -17.7675 -17.7071
   -17.6915 -17.6464 -17.5078 -17.4404 -16.8243 -16.6340 -16.3853 -16.1937
   -15.6881  -7.2306  -7.0870  -6.8031  -6.7640  -6.7207  -6.7071  -6.6958
    -6.6465  -6.5838  -6.5428  -6.4497  -6.4288  -6.2889  -6.2188  -6.1804
    -6.1431  -6.1189  -6.0819  -6.0716  -6.0040  -5.9559  -5.8744  -5.8403
    -5.7115  -5.5968  -5.5219  -5.4633  -5.4042  -5.2426  -5.2081  -5.1701
    -5.1546  -5.1347  -5.0896  -5.0610  -4.9742  -4.8795  -4.7934  -4.7527
    -4.6894  -4.6527  -4.5577  -4.4158  -4.3843  -4.3010  -4.1846  -4.1608
    -4.1264  -4.1077  -4.0621  -4.0454  -3.9282  -3.8949  -3.7948  -3.7185
    -3.6588  -3.5931  -3.5662  -3.5316  -3.5143  -3.4841  -3.4630  -3.4333
    -3.3818  -3.3428  -3.2588  -3.2209  -3.1452  -3.1310  -3.1075  -3.0797
    -3.0670  -2.9974  -2.9609  -2.8706  -2.7490  -2.7361  -2.7011  -2.6521
    -2.6451  -2.5242  -2.4934  -2.4492  -2.4007  -2.3676  -2.2232  -2.1745
    -2.1075  -2.0427  -1.8759  -1.8427  -1.7386  -1.6595  -1.4797  -1.4536
    -1.4295  -1.2861  -0.7141  -0.5382  -0.5005  -0.3923  -0.3584  -0.3128
    -0.3010   0.0024   0.0662   0.2545   0.2842   0.3590   0.4869   0.6213
     0.6703   0.7929   0.8885   1.0129   1.2447   1.3347   1.4307   1.4700
     1.6345   1.7126   1.7336   1.8013   1.8479   1.9374   1.9789   2.0396
     2.1169   2.1659   2.2757   2.3045   2.3282   2.3810   2.5285   2.5460
     2.6485   2.6934   2.7886   2.8543   2.8803   2.9175   2.9580   3.0488
     3.0830   3.2031   3.3533   3.4268   3.5797   3.7016   3.7416   4.4419
     4.5799   4.6434   4.6589   4.7192   4.7431   4.8396   4.8888   4.9222
     4.9595   5.0700   5.0959   5.2640   5.4008   5.4710   5.6007   5.7389
     5.7513   5.9347   6.0071   6.1578   6.2494   6.5501   6.6506   6.7284
     6.8192   6.8800   6.9667   6.9933   7.0696   7.3725   7.4191   7.5974
     7.8151   7.8830   7.9017   8.0616   8.3106   8.6026   8.7456   8.8515
     8.9614   9.0632   9.2711   9.3857   9.4210   9.5594   9.6038   9.6886
     9.7548   9.8208   9.9179   9.9977  10.1020  10.2264  10.2958  10.3383
    10.3776  10.4926  10.5838  10.7302  10.8462  10.9107  11.0280  11.0580
    11.1100  11.2121  11.2964  11.4377  11.4837  11.5184  11.5346  11.6518
    11.6584  11.6827  11.7177  11.7678  11.8154  11.8916  11.9548  12.0222
    12.0545  12.1267  12.1789  12.2560  12.2786  12.3713  12.4277  12.5954
    12.6580  12.6742  12.8201  12.8690  13.0242  13.0873  13.1495  13.2303
    13.2635  13.3705  13.4681  13.5401  13.5657  13.5746  13.6690  13.6750
    13.7715  13.8140  13.8934  13.9111  13.9864  14.0261  14.1064  14.1331
    14.2067  14.2222  14.2634  14.3086  14.3695  14.4421  14.4549  14.4865
    14.5387  14.6222  14.6772  14.7784  14.8915  14.9648  14.9822  15.0075
    15.1075  15.1574  15.1761  15.2143  15.3298  15.3717  15.4320  15.4700
    15.4949  15.5958  15.6607  15.7788  15.8263  15.8786  15.8972  15.9336
    15.9807  16.0439  16.0997  16.1257  16.1756  16.1950  16.2384  16.3395
    16.3566  16.3650  16.3937  16.4652  16.4894  16.4991  16.5457  16.6595
    16.6950  16.7242  16.7529  16.7695  16.8318  16.8685  16.9153  16.9769
    17.0367  17.0860  17.1457  17.1540  17.2387  17.2972  17.3302  17.3632
    17.4083  17.4822  17.4979  17.5364  17.6068  17.6191  17.6999  17.7409
    17.7819  17.8239  17.8764  17.9221  18.0638  18.0776  18.1689  18.2256
    18.3037  18.3396  18.3835  18.4193  18.4613  18.4982  18.5724  18.6326
    18.7159  18.7750  18.8149  18.8378  18.9449  18.9633  19.0129  19.0610
    19.0881  19.1265  19.1558  19.2603  19.2888  19.3725  19.4193  19.4565
    19.5291  19.5812  19.6231  19.7326  19.7514  19.7981  19.8443  19.8702
    19.9281  19.9769  20.0306  20.0502  20.0823  20.1036  20.1406  20.1709
    20.2542  20.3530  20.3920  20.4182  20.5125  20.5284  20.5812  20.6256
    20.6890  20.7507  20.7988  20.8756  20.9069  20.9444  20.9515  21.0122
    21.0360  21.2004  21.2493  21.3124  21.3782  21.4532  21.5048  21.5457
    21.5752  21.6157  21.6515  21.7260  21.8119  21.8507  21.8865  21.9063
    21.9905  22.0342  22.0518  22.0884  22.1434  22.1889  22.2260  22.2570
    22.3304  22.3690  22.3825  22.4197  22.5096  22.5572  22.5870  22.6352
    22.6613  22.7002  22.7360  22.7735  22.8270  22.8455  22.9197  23.0064
    23.0308  23.0567  23.1005  23.1137  23.1678  23.2150  23.2593  23.2663
    23.3125  23.4057  23.4087  23.4503  23.4821  23.5094  23.5446  23.5745
    23.6149  23.6967  23.7036  23.7496  23.7533  23.8387  23.8545  23.8694
    23.9489  23.9937  24.0237  24.0582  24.1147  24.1307  24.1568  24.1588
    24.1873  24.2080  24.2427  24.2898  24.3283  24.3456  24.3550  24.4327
    24.5011  24.5347  24.5688  24.5987  24.6250  24.6868  24.7150  24.7756
    24.8303  24.8591  24.8778  24.9221  24.9436  24.9653  24.9967  25.0500
    25.1500  25.1739  25.2078  25.2843  25.3208  25.3509  25.3726  25.3823
    25.4176  25.5223  25.5412  25.5917  25.6387  25.6584  25.7233  25.7672
    25.8107  25.8606  25.8802  25.9190  25.9769  26.0078  26.0208  26.0880
    26.1664  26.2561  26.2864  26.3021  26.3458  26.3807  26.4227  26.4566
    26.5122  26.5276  26.5467  26.5927  26.6063  26.6489  26.6757  26.7309
    26.7886

          k = 0.2500-0.3900 0.0000 ( 41418 PWs)   bands (ev):

   -61.5832 -61.5624 -61.5204 -61.4803 -61.4038 -61.3590 -61.3343 -61.3212
   -61.3200 -61.2944 -61.2747 -61.2690 -61.2360 -61.2168 -61.1780 -61.1098
   -36.0322 -36.0240 -35.9810 -35.9457 -35.9311 -35.8916 -35.8706 -35.8584
   -35.8388 -35.8218 -35.8136 -35.7158 -35.6902 -35.6867 -35.6758 -35.6144
   -35.5995 -35.5986 -35.5762 -35.5490 -35.5305 -35.5291 -35.5265 -35.5245
   -35.5136 -35.4554 -35.4445 -35.4368 -35.3984 -35.3961 -35.3940 -35.3221
   -35.3111 -35.3063 -35.2999 -35.2871 -35.2829 -35.2547 -35.2422 -35.2362
   -35.1626 -35.1598 -35.1030 -35.0679 -35.0425 -35.0043 -34.8639 -34.7638
   -19.2570 -19.0481 -18.7522 -18.6234 -18.5999 -18.5220 -18.5186 -18.4524
   -18.4252 -18.3933 -18.3577 -18.3482 -18.2329 -18.2205 -18.2186 -18.1946
   -18.1310 -18.1295 -18.0747 -17.9088 -17.8738 -17.7626 -17.7070 -17.6610
   -17.5509 -17.5448 -17.4411 -17.3936 -16.8240 -16.6343 -16.3848 -16.1941
   -15.6854  -7.2259  -7.0741  -6.9779  -6.8973  -6.8126  -6.6702  -6.6173
    -6.4813  -6.4323  -6.3914  -6.3641  -6.3367  -6.2070  -6.1704  -6.0886
    -6.0880  -6.0614  -6.0596  -5.9895  -5.9542  -5.9436  -5.8631  -5.8484
    -5.7951  -5.7294  -5.7150  -5.6760  -5.6325  -5.5924  -5.4816  -5.3066
    -5.3008  -5.1904  -5.0594  -5.0500  -4.9193  -4.7736  -4.7572  -4.6105
    -4.5898  -4.5634  -4.3351  -4.2580  -4.2237  -4.1553  -4.1468  -4.0816
    -4.0568  -3.9704  -3.9374  -3.9237  -3.9032  -3.8205  -3.8149  -3.7727
    -3.7688  -3.7436  -3.7207  -3.6361  -3.6053  -3.5623  -3.5588  -3.5140
    -3.4882  -3.4696  -3.4163  -3.4126  -3.2398  -3.2395  -3.1553  -3.1534
    -3.1162  -3.0343  -2.9330  -2.8202  -2.7624  -2.6894  -2.6547  -2.6338
    -2.4891  -2.4457  -2.4334  -2.3887  -2.3104  -2.2639  -2.1795  -2.1326
    -2.0809  -2.0363  -1.8888  -1.8687  -1.8327  -1.7158  -1.6180  -1.4204
    -1.4145  -1.2776  -0.7278  -0.5311  -0.5056  -0.3432  -0.1737  -0.1652
    -0.1642  -0.0975   0.0915   0.1921   0.2132   0.2520   0.3104   0.3415
     0.6661   0.6885   0.9592   1.1599   1.2816   1.4279   1.4496   1.4528
     1.7644   1.8261   1.9039   1.9099   2.0333   2.1065   2.1559   2.2074
     2.2525   2.2787   2.3151   2.4041   2.4508   2.4700   2.4899   2.5402
     2.6853   2.7026   2.8332   2.9256   2.9782   3.0170   3.0475   3.1998
     3.2177   3.2335   3.3768   3.5172   3.5725   3.6711   3.6967   3.9049
     3.9216   4.0319   4.0751   4.3961   4.3992   4.5737   4.6636   4.7860
     4.8367   4.9849   4.9884   5.2974   5.3804   5.4754   5.7939   5.9320
     5.9565   5.9794   6.0065   6.2093   6.3543   6.3683   6.8772   6.9508
     7.0940   7.1959   7.2928   7.3673   7.4350   7.4548   7.5895   7.7628
     7.7718   7.8961   7.9512   8.0628   8.1660   8.2273   8.3763   8.5463
     8.6210   8.7519   8.9058   9.1480   9.3271   9.4640   9.4696   9.6328
     9.8916   9.9115   9.9642  10.0234  10.0427  10.1399  10.2663  10.2743
    10.3743  10.4572  10.5402  10.5834  10.7164  10.8391  10.8687  10.9215
    11.0655  11.1476  11.1873  11.2908  11.3017  11.3882  11.6039  11.6727
    11.7110  11.9529  11.9889  12.0093  12.1215  12.2112  12.3064  12.3094
    12.4506  12.4864  12.5416  12.5972  12.6567  12.6806  12.7151  12.7390
    12.8029  12.8165  12.9111  12.9458  13.1522  13.1789  13.2885  13.3154
    13.4191  13.4313  13.5304  13.5941  13.6426  13.7113  13.7450  13.7619
    13.7914  13.7998  13.8574  13.9359  13.9735  14.0036  14.0825  14.0830
    14.2076  14.3077  14.3730  14.4120  14.4970  14.5044  14.5066  14.5198
    14.7755  14.7962  14.8642  14.9383  14.9548  15.0250  15.1142  15.1598
    15.1981  15.2501  15.3140  15.4099  15.4224  15.4429  15.4587  15.5318
    15.6076  15.6345  15.6482  15.6835  15.6869  15.7368  15.8316  15.8694
    15.9197  15.9358  15.9572  15.9902  16.0308  16.0947  16.1543  16.1728
    16.1867  16.2328  16.2413  16.2895  16.2990  16.3546  16.4086  16.4821
    16.5651  16.5819  16.6072  16.6472  16.7909  16.8146  16.8381  16.9178
    16.9423  16.9839  16.9941  17.0461  17.0556  17.1158  17.1249  17.1620
    17.1781  17.2148  17.3489  17.3849  17.4043  17.4263  17.4586  17.5090
    17.5473  17.5937  17.6787  17.7866  17.8096  17.8363  17.8796  17.9024
    18.0085  18.0686  18.0725  18.2245  18.2380  18.2579  18.2689  18.3986
    18.4286  18.4974  18.5050  18.5431  18.6315  18.6653  18.7487  18.9003
    18.9129  19.0140  19.0619  19.1780  19.2379  19.2738  19.2878  19.3430
    19.3962  19.4436  19.4852  19.5840  19.6677  19.7327  19.7352  19.7848
    19.8079  19.9220  19.9788  20.0299  20.1676  20.1858  20.2883  20.3306
    20.4707  20.4842  20.5439  20.5612  20.6428  20.7221  20.7844  20.7918
    20.8838  20.9234  20.9766  21.1539  21.1673  21.1934  21.2247  21.3007
    21.3402  21.3884  21.4285  21.4377  21.5107  21.5243  21.5534  21.6222
    21.6238  21.6784  21.6821  21.8485  21.8492  21.8917  21.9074  21.9449
    21.9613  22.0076  22.0732  22.1055  22.1852  22.2201  22.2497  22.2731
    22.2917  22.3382  22.3931  22.4294  22.4603  22.4892  22.5022  22.5871
    22.6079  22.6106  22.6828  22.7130  22.7137  22.8143  22.8280  22.8396
    22.8509  22.9552  22.9607  22.9661  23.0254  23.0628  23.1640  23.2315
    23.2421  23.3029  23.3119  23.3448  23.3851  23.3991  23.4505  23.5023
    23.5675  23.5914  23.6047  23.6686  23.6935  23.7208  23.7428  23.7807
    23.8281  23.9119  23.9286  23.9911  23.9918  24.0519  24.1093  24.1465
    24.2563  24.3045  24.3210  24.4079  24.4276  24.4405  24.4541  24.5306
    24.5532  24.6352  24.6769  24.7030  24.7692  24.8095  24.8989  24.9503
    24.9687  25.0015  25.0813  25.1089  25.1601  25.1956  25.2271  25.2284
    25.2655  25.3766  25.4252  25.5403  25.5409  25.6125  25.6414  25.6485
    25.7184  25.8448  25.8569  25.8923  25.9356  25.9537  25.9716  26.0133
    26.0164  26.0566  26.0785  26.0869  26.1322  26.2030  26.2247  26.2814
    26.2980  26.3813  26.4066  26.4540  26.5056  26.5079  26.5818  26.6233
    26.6482  26.6958  26.7560  26.7638  26.8500  26.8605  26.9039  26.9819
    27.0325

          k =-0.5000 0.0000 0.0000 ( 41396 PWs)   bands (ev):

   -61.5785 -61.5216 -61.5215 -61.5128 -61.3628 -61.3627 -61.3243 -61.3221
   -61.3094 -61.3025 -61.2848 -61.2715 -61.2568 -61.2219 -61.1907 -61.1225
   -36.0169 -35.8924 -35.8394 -35.8391 -35.8300 -35.7465 -35.6829 -35.6795
   -35.6734 -35.6605 -35.6590 -35.6542 -35.6461 -35.6379 -35.6025 -35.5916
   -35.5811 -35.5692 -35.5681 -35.5417 -35.5235 -35.4896 -35.4732 -35.4720
   -35.4673 -35.4633 -35.4538 -35.4527 -35.4371 -35.4361 -35.4001 -35.3910
   -35.3898 -35.3894 -35.3851 -35.3756 -35.3717 -35.3673 -35.3349 -35.3296
   -35.3192 -35.3036 -35.2883 -35.2446 -35.2121 -35.0744 -35.0295 -34.9382
   -19.1275 -18.9913 -18.6840 -18.6315 -18.6201 -18.4938 -18.4612 -18.4256
   -18.3867 -18.3142 -18.3120 -18.2452 -18.1514 -18.0660 -18.0440 -18.0197
   -18.0196 -18.0185 -17.9496 -17.9338 -17.9164 -17.9034 -17.8999 -17.7797
   -17.7684 -17.7488 -17.7204 -17.4257 -16.9328 -16.6913 -16.3300 -16.3205
   -15.6884  -7.2965  -6.7935  -6.5381  -6.4781  -6.4626  -6.4048  -6.4003
    -6.3488  -6.3221  -6.2780  -6.2266  -6.2245  -6.1759  -6.1085  -6.0811
    -6.0421  -6.0045  -5.9930  -5.9815  -5.9278  -5.8775  -5.8477  -5.8134
    -5.8027  -5.7280  -5.6707  -5.6434  -5.5915  -5.5800  -5.3681  -5.2798
    -5.1802  -5.1732  -5.1573  -4.9073  -4.9045  -4.6439  -4.6092  -4.5822
    -4.5433  -4.4711  -4.4334  -4.3737  -4.3296  -4.3120  -4.2542  -4.1091
    -4.1048  -4.0738  -4.0561  -4.0501  -4.0056  -3.9446  -3.8757  -3.8242
    -3.7913  -3.7447  -3.6902  -3.6817  -3.6730  -3.6066  -3.5898  -3.5490
    -3.4735  -3.4558  -3.3886  -3.3791  -3.3179  -3.2941  -3.2765  -3.2387
    -3.1461  -3.1063  -3.0679  -3.0613  -2.9687  -2.9022  -2.8901  -2.7162
    -2.6662  -2.6501  -2.6356  -2.5485  -2.2912  -2.2866  -2.2268  -2.1306
    -1.9949  -1.8288  -1.7750  -1.6494  -1.6216  -1.5717  -1.5706  -1.3940
    -1.3840  -1.3391  -0.6811  -0.3764  -0.1968   0.3238   0.3393   0.4267
     0.4507   0.5317   0.5585   0.5619   0.6043   0.6311   0.6988   0.6992
     0.7163   0.7722   0.7896   0.8104   0.8477   0.9547   0.9805   1.0717
     1.1258   1.1262   1.3309   1.3423   1.3731   1.4563   1.5150   1.5430
     1.6324   1.6467   1.7097   1.7625   1.8918   1.9909   2.1862   2.1930
     2.3435   2.4631   2.5089   2.5384   2.5880   2.6245   2.7561   2.7772
     2.7927   2.9436   3.1494   3.2115   3.2618   3.6190   3.7297   4.4251
     4.5875   4.6026   4.8164   5.1906   5.3315   5.3318   5.3790   5.3827
     5.3857   5.4079   5.4203   5.4207   5.5198   5.5585   5.6538   5.6846
     5.7220   5.7302   5.8230   5.8565   5.9284   6.0582   6.0975   6.4516
     6.4981   6.8084   7.0083   7.3490   7.4215   7.7440   7.7576   7.7707
     7.8344   8.1313   8.1600   8.2315   8.2829   8.4026   8.5842   8.7412
     8.7867   9.0030   9.2037   9.4161   9.4363   9.4765   9.4791   9.6826
     9.8549  10.0642  10.1897  10.2350  10.4025  10.5562  10.5624  10.6002
    10.6381  10.7927  10.8448  10.8635  11.0236  11.0456  11.0618  11.0846
    11.1734  11.1967  11.2663  11.3740  11.3918  11.3919  11.4501  11.4657
    11.4978  11.5957  11.6073  11.6112  11.6677  11.6873  11.7672  11.9091
    11.9161  12.0881  12.1078  12.1144  12.2575  12.3240  12.3832  12.4007
    12.4008  12.4485  12.4494  12.5709  12.6084  12.8597  12.9630  12.9865
    12.9999  13.0651  13.1271  13.1470  13.2769  13.3585  13.4191  13.4447
    13.5844  13.8245  13.8988  13.9532  13.9643  13.9834  13.9913  14.0784
    14.1518  14.2325  14.4970  14.5461  14.6042  14.6187  14.6642  14.6854
    14.7896  14.8758  14.9227  14.9380  14.9860  14.9971  15.0328  15.0490
    15.1002  15.1234  15.1856  15.1868  15.3986  15.4496  15.5132  15.5250
    15.5848  15.6580  15.7249  15.8227  15.8431  15.8524  15.9164  16.0104
    16.0320  16.0593  16.1096  16.1780  16.1946  16.2162  16.2513  16.3646
    16.3743  16.6666  16.6780  16.7474  16.7960  16.8144  16.9227  16.9770
    17.0225  17.1985  17.2942  17.3076  17.4292  17.4890  17.4890  17.5433
    17.6401  17.6594  17.7555  17.8137  17.8193  17.8502  17.8743  17.8899
    17.9718  17.9795  18.0482  18.0967  18.1253  18.1645  18.1733  18.2300
    18.2403  18.2515  18.3327  18.4361  18.4400  18.4518  18.5058  18.5728
    18.6622  18.7454  18.8359  18.8792  18.9707  19.0002  19.0061  19.0189
    19.1111  19.1584  19.2964  19.3899  19.5437  19.5805  19.6149  19.6857
    19.7624  19.8004  19.8792  19.8868  19.9001  19.9057  20.0083  20.0258
    20.0714  20.0778  20.1214  20.1501  20.1733  20.2074  20.2258  20.2264
    20.2315  20.3579  20.4009  20.4876  20.5308  20.5492  20.5559  20.5930
    20.6331  20.6419  20.6718  20.7259  20.7539  20.7576  20.7594  20.8050
    20.9101  20.9253  20.9332  20.9880  21.0058  21.0381  21.1336  21.1359
    21.1375  21.2076  21.3047  21.3121  21.3179  21.3337  21.3476  21.3819
    21.4237  21.4512  21.4818  21.4884  21.5016  21.5153  21.5245  21.6055
    21.6094  21.6478  21.6487  21.7517  21.7883  21.8059  21.8389  21.8504
    21.9186  21.9893  22.0126  22.0696  22.1197  22.1427  22.1529  22.2669
    22.2876  22.3117  22.4209  22.4436  22.4840  22.5216  22.5292  22.5541
    22.5635  22.6008  22.6234  22.6484  22.6810  22.6959  22.6962  22.7422
    22.8809  22.9334  22.9500  22.9789  23.0639  23.1339  23.1706  23.1801
    23.2001  23.3456  23.3834  23.3993  23.4626  23.4766  23.5256  23.5887
    23.6304  23.6524  23.6598  23.6687  23.6898  23.7201  23.7630  23.7690
    23.8260  23.8910  23.9648  23.9951  24.0049  24.0611  24.0784  24.1432
    24.1661  24.2201  24.2585  24.2956  24.3463  24.4089  24.4163  24.4335
    24.4796  24.4843  24.5491  24.5789  24.5802  24.5871  24.6324  24.6599
    24.7351  24.7791  24.7989  24.8115  24.9982  25.0170  25.0334  25.0689
    25.0786  25.0854  25.1000  25.2183  25.2812  25.2881  25.3091  25.3213
    25.3633  25.3683  25.3872  25.4551  25.4835  25.5782  25.5823  25.6571
    25.6741  25.7185  25.7710  25.7810  25.7856  25.8234  25.8297  25.8967
    25.9430  25.9687  25.9882  26.0348  26.0976  26.1324  26.1820  26.3283
    26.3285

          k =-0.5000 0.1950 0.0000 ( 41404 PWs)   bands (ev):

   -61.5785 -61.5216 -61.5215 -61.5128 -61.3628 -61.3626 -61.3244 -61.3221
   -61.3095 -61.3025 -61.2848 -61.2715 -61.2568 -61.2220 -61.1907 -61.1225
   -36.0169 -35.8927 -35.8375 -35.8374 -35.8302 -35.7465 -35.6830 -35.6797
   -35.6737 -35.6576 -35.6569 -35.6566 -35.6489 -35.6380 -35.5885 -35.5843
   -35.5811 -35.5692 -35.5681 -35.5419 -35.5147 -35.4955 -35.4897 -35.4734
   -35.4723 -35.4694 -35.4502 -35.4434 -35.4336 -35.4246 -35.3975 -35.3902
   -35.3895 -35.3894 -35.3845 -35.3752 -35.3725 -35.3709 -35.3351 -35.3344
   -35.3225 -35.3068 -35.2982 -35.2510 -35.2116 -35.0744 -35.0291 -34.9381
   -19.1242 -18.9835 -18.6494 -18.6120 -18.5908 -18.4815 -18.4722 -18.4070
   -18.3892 -18.3226 -18.3048 -18.2806 -18.1760 -18.0796 -18.0546 -18.0525
   -18.0202 -18.0197 -17.9838 -17.9264 -17.9023 -17.9023 -17.8789 -17.7999
   -17.7507 -17.7414 -17.7209 -17.4270 -16.9329 -16.6919 -16.3303 -16.3209
   -15.6848  -7.2948  -6.7792  -6.6352  -6.6293  -6.5673  -6.5504  -6.4948
    -6.4764  -6.4026  -6.3769  -6.2690  -6.2453  -6.1586  -6.1455  -6.1103
    -5.9638  -5.8604  -5.8426  -5.8095  -5.7577  -5.7385  -5.6613  -5.6374
    -5.6250  -5.5914  -5.5244  -5.4822  -5.4452  -5.4275  -5.2193  -5.1935
    -5.1769  -5.1093  -5.0245  -4.9212  -4.8846  -4.7998  -4.7957  -4.7552
    -4.7306  -4.6589  -4.5743  -4.5534  -4.5154  -4.3560  -4.3531  -4.3126
    -4.2137  -4.1747  -4.1189  -4.0638  -4.0548  -3.9789  -3.9742  -3.9025
    -3.8756  -3.7792  -3.7199  -3.7054  -3.6659  -3.6525  -3.6119  -3.5679
    -3.5225  -3.5031  -3.4296  -3.3917  -3.3234  -3.3088  -3.2391  -3.2309
    -3.1853  -3.1230  -3.0463  -3.0357  -3.0016  -2.9145  -2.7895  -2.6469
    -2.5886  -2.5161  -2.4326  -2.3806  -2.3074  -2.2916  -2.0985  -2.0784
    -2.0375  -1.9110  -1.8179  -1.7513  -1.5768  -1.5553  -1.5509  -1.4396
    -1.4303  -1.3297  -0.6691  -0.3696  -0.1801   0.2529   0.2815   0.3535
     0.4486   0.4612   0.5289   0.5655   0.6696   0.6792   0.8011   0.8174
     0.8311   0.9083   0.9278   0.9650   0.9671   1.0236   1.0573   1.1400
     1.1551   1.2009   1.3189   1.3610   1.4369   1.4745   1.6102   1.6139
     1.7342   1.7924   1.8498   1.9401   1.9732   2.0887   2.2975   2.3298
     2.3475   2.3923   2.5035   2.5623   2.6331   2.6489   2.7292   2.7527
     2.8350   2.8930   3.0464   3.1195   3.2534   3.6588   3.7222   4.4337
     4.4825   4.5757   4.5985   4.6002   4.6362   4.6480   4.7448   4.7945
     4.8476   4.9554   5.0462   5.2956   5.6493   5.6754   5.6895   5.9204
     5.9686   6.1467   6.1594   6.2676   6.3133   6.4042   6.4410   6.5391
     6.5643   6.8613   6.9949   7.3311   7.3952   7.7561   7.9028   7.9034
     7.9385   8.3055   8.3218   8.4597   8.4672   8.6122   8.6833   8.7777
     8.8921   9.0120   9.0365   9.2001   9.3915   9.5080   9.5101   9.6037
     9.6798   9.7293   9.8656   9.9042   9.9411   9.9850  10.0008  10.1147
    10.1715  10.3094  10.3344  10.4972  10.5386  10.5915  10.6000  10.7815
    10.9972  11.1007  11.1690  11.2113  11.3008  11.5314  11.6440  11.6637
    11.7265  11.7998  11.8845  11.9391  12.0548  12.0758  12.0918  12.2544
    12.2791  12.4165  12.4466  12.6157  12.6509  12.6726  12.7093  12.7932
    12.8281  12.8653  12.9081  12.9569  12.9707  13.0855  13.1544  13.2074
    13.2105  13.2786  13.4589  13.5747  13.6558  13.6658  13.6678  13.7074
    13.7657  13.8915  13.9447  14.0418  14.0616  14.1944  14.2385  14.3218
    14.3715  14.4292  14.4536  14.5666  14.5901  14.6217  14.8001  14.8085
    14.9295  14.9964  14.9964  15.0273  15.0561  15.0876  15.1350  15.1801
    15.1900  15.2090  15.2202  15.2538  15.2987  15.3847  15.4274  15.4653
    15.4882  15.5957  15.6119  15.6423  15.6713  15.7086  15.7259  15.7722
    15.8575  15.8987  15.9313  16.0513  16.1046  16.1988  16.3139  16.3445
    16.4064  16.6067  16.6846  16.7281  16.7827  16.8815  16.8900  16.9016
    17.1284  17.1869  17.1987  17.2119  17.2446  17.2699  17.3648  17.3831
    17.4217  17.5128  17.5357  17.6125  17.6209  17.6427  17.7230  17.7243
    17.8031  17.8101  17.8784  17.8870  17.9698  18.0424  18.0550  18.1280
    18.1288  18.1988  18.2207  18.2525  18.3015  18.3813  18.3837  18.4331
    18.4870  18.4943  18.5001  18.5695  18.6556  18.6940  18.6964  18.7620
    18.7754  18.7762  18.8868  18.9317  18.9952  19.0330  19.0804  19.0829
    19.1738  19.2170  19.3181  19.3849  19.3927  19.4320  19.4460  19.4926
    19.5732  19.6485  19.7051  19.7588  19.7816  19.8718  19.9103  19.9938
    19.9986  20.0367  20.0927  20.1475  20.2263  20.2708  20.3016  20.3329
    20.3860  20.4138  20.4200  20.4716  20.4931  20.5262  20.5902  20.6628
    20.6823  20.7296  20.7506  20.8803  20.9003  20.9653  20.9839  21.0537
    21.0580  21.1196  21.1520  21.2033  21.2131  21.2909  21.3262  21.4008
    21.4705  21.5919  21.6299  21.6909  21.7030  21.7520  21.8016  21.8213
    21.9020  21.9276  22.0040  22.0091  22.0501  22.2063  22.2541  22.2672
    22.3991  22.4385  22.4402  22.4405  22.4935  22.5146  22.5619  22.6012
    22.6017  22.6524  22.7058  22.8012  22.8412  22.8905  22.9331  22.9396
    22.9827  23.0295  23.0310  23.0770  23.1159  23.1694  23.2017  23.2608
    23.2651  23.2796  23.2876  23.3598  23.3817  23.4079  23.4623  23.5199
    23.5267  23.5467  23.5502  23.5672  23.6473  23.6760  23.6922  23.7493
    23.7722  23.8578  23.9009  23.9140  23.9165  23.9930  24.0062  24.0476
    24.0725  24.0737  24.1088  24.1400  24.1402  24.1897  24.2057  24.2455
    24.2521  24.2989  24.3025  24.3170  24.3936  24.4228  24.4774  24.5235
    24.5818  24.6326  24.6818  24.6858  24.7505  24.7721  24.8745  24.9017
    24.9467  24.9692  24.9884  25.0350  25.0615  25.0926  25.1331  25.2099
    25.2254  25.2335  25.2958  25.3127  25.3676  25.3794  25.4556  25.5019
    25.5504  25.5970  25.6071  25.6672  25.6913  25.7370  25.7435  25.7980
    25.8320  25.9166  25.9604  25.9874  25.9974  26.1109  26.1159  26.1674
    26.2038  26.2424  26.2674  26.3093  26.3678  26.3868  26.3912  26.4584
    26.5029

          k =-0.5000-0.3900 0.0000 ( 41316 PWs)   bands (ev):

   -61.5785 -61.5216 -61.5215 -61.5128 -61.3627 -61.3626 -61.3244 -61.3221
   -61.3095 -61.3025 -61.2848 -61.2715 -61.2567 -61.2220 -61.1908 -61.1225
   -36.0169 -35.8930 -35.8356 -35.8356 -35.8303 -35.7464 -35.6831 -35.6799
   -35.6739 -35.6596 -35.6547 -35.6542 -35.6515 -35.6381 -35.5818 -35.5810
   -35.5692 -35.5681 -35.5549 -35.5420 -35.5294 -35.5058 -35.4929 -35.4747
   -35.4741 -35.4732 -35.4467 -35.4393 -35.4304 -35.4100 -35.3952 -35.3899
   -35.3893 -35.3887 -35.3838 -35.3782 -35.3746 -35.3699 -35.3397 -35.3355
   -35.3260 -35.3102 -35.3101 -35.2576 -35.2112 -35.0744 -35.0287 -34.9380
   -19.1210 -18.9755 -18.6142 -18.5503 -18.5302 -18.5245 -18.5235 -18.3853
   -18.3437 -18.3357 -18.3330 -18.2818 -18.2150 -18.0925 -18.0916 -18.0572
   -18.0209 -18.0204 -18.0188 -17.9305 -17.9000 -17.8856 -17.8516 -17.8224
   -17.7452 -17.7293 -17.7214 -17.4284 -16.9330 -16.6925 -16.3307 -16.3212
   -15.6814  -7.2933  -6.7530  -6.6972  -6.6964  -6.6144  -6.6130  -6.5714
    -6.5433  -6.4106  -6.3766  -6.2621  -6.2541  -6.1750  -6.1655  -6.0806
    -5.9618  -5.8696  -5.8187  -5.7504  -5.7447  -5.6796  -5.6475  -5.6422
    -5.4532  -5.3662  -5.3620  -5.3332  -5.3311  -5.2376  -5.1717  -5.1149
    -5.0476  -4.9519  -4.9514  -4.9295  -4.8983  -4.8554  -4.8277  -4.8132
    -4.7999  -4.7834  -4.7787  -4.5986  -4.5272  -4.4369  -4.3956  -4.3521
    -4.2926  -4.2045  -4.1726  -4.1628  -4.0856  -4.0078  -4.0054  -3.9830
    -3.8887  -3.8220  -3.8055  -3.7885  -3.7852  -3.7782  -3.7533  -3.5858
    -3.5217  -3.5191  -3.5168  -3.5116  -3.4738  -3.4600  -3.4445  -3.3102
    -3.1322  -3.1185  -3.0695  -3.0641  -2.8442  -2.6523  -2.5588  -2.5469
    -2.4891  -2.4011  -2.3979  -2.3346  -2.3138  -2.1854  -2.1801  -2.0903
    -1.9840  -1.9435  -1.9177  -1.8486  -1.5649  -1.5121  -1.5031  -1.5007
    -1.4931  -1.3188  -0.6567  -0.3659  -0.1485   0.2237   0.2648   0.3705
     0.3961   0.4056   0.5492   0.5624   0.5675   0.6450   0.6526   0.7026
     0.8221   0.8267   0.8678   0.9552   0.9836   1.1028   1.1082   1.3628
     1.4033   1.4650   1.5611   1.6266   1.6899   1.6939   1.7546   1.8646
     1.9459   1.9889   2.0614   2.1573   2.2741   2.2913   2.3330   2.3977
     2.4636   2.4637   2.4760   2.5501   2.6283   2.6735   2.7074   2.7876
     2.8802   2.9094   3.0391   3.0411   3.2774   3.5989   3.6527   3.8770
     3.9589   3.9623   3.9683   3.9709   4.0141   4.2839   4.4095   4.5635
     4.7534   4.8594   4.8823   5.3089   5.6791   5.7250   5.8072   6.0371
     6.1073   6.3826   6.3852   6.5189   6.5307   6.6792   6.6960   6.7591
     6.8461   6.9682   6.9696   7.0883   7.1635   7.7263   8.1527   8.2046
     8.2050   8.4046   8.4062   8.7129   8.7159   8.8400   8.8486   8.9638
     8.9689   9.0383   9.0762   9.0808   9.1641   9.1665   9.1974   9.2625
     9.4682   9.5097   9.5212   9.5660   9.6658   9.6921   9.7157   9.8847
    10.0577  10.0886  10.1480  10.2490  10.3549  10.4368  10.4416  10.5723
    10.7868  10.8322  10.8382  11.1090  11.1584  11.1718  11.2529  11.5618
    11.8668  11.8863  11.9231  12.1895  12.2182  12.2901  12.3771  12.4538
    12.6878  12.7612  12.7805  12.8415  12.8626  12.9019  12.9846  13.1066
    13.1389  13.1495  13.1797  13.3518  13.3732  13.4099  13.4701  13.4847
    13.6584  13.7985  13.9361  14.0281  14.0566  14.1055  14.1686  14.3249
    14.3826  14.4003  14.4689  14.4778  14.5422  14.5487  14.6137  14.6285
    14.7001  14.7198  14.7410  14.7757  14.7911  14.8178  14.8710  14.9059
    14.9382  14.9663  14.9801  14.9992  15.0196  15.0757  15.0895  15.1581
    15.2264  15.2603  15.2771  15.2838  15.3119  15.3453  15.3536  15.3698
    15.4146  15.4438  15.4574  15.4598  15.5236  15.5567  15.5739  15.6022
    15.6118  15.6200  15.9103  15.9208  15.9397  16.0158  16.0859  16.1260
    16.1355  16.1534  16.2626  16.2809  16.2910  16.3006  16.3308  16.4422
    16.4756  16.5197  16.6962  16.7082  16.8872  16.9689  16.9704  17.0045
    17.0744  17.0796  17.1095  17.1308  17.2978  17.4400  17.4859  17.4910
    17.5380  17.6625  17.8475  17.8614  17.8952  17.9221  17.9464  17.9523
    18.1142  18.1214  18.1237  18.2668  18.3449  18.3633  18.3697  18.4617
    18.5096  18.5429  18.6159  18.6983  18.7368  18.7490  18.7818  18.8021
    18.8688  18.8871  18.9144  18.9938  19.0104  19.0368  19.0387  19.1137
    19.1767  19.1934  19.2195  19.2715  19.2887  19.3243  19.4104  19.4139
    19.4393  19.5197  19.5820  19.5928  19.6147  19.6243  19.6827  19.7035
    19.7428  19.8108  19.8586  19.8696  19.9309  19.9755  20.0100  20.0416
    20.0668  20.1023  20.1272  20.1315  20.1520  20.3253  20.4464  20.4805
    20.5038  20.5526  20.6057  20.6143  20.6258  20.6824  20.7630  20.8148
    20.9380  20.9455  21.1046  21.1320  21.1377  21.2490  21.2571  21.2912
    21.4083  21.4600  21.5552  21.5946  21.6224  21.6388  21.6618  21.6628
    21.7218  21.8652  22.0383  22.1194  22.1535  22.1742  22.2474  22.2538
    22.3309  22.3644  22.4076  22.4407  22.4678  22.5315  22.5443  22.5596
    22.5938  22.6648  22.6866  22.7255  22.7422  22.9400  22.9897  23.0643
    23.1018  23.1740  23.1864  23.2085  23.2501  23.2969  23.3028  23.3286
    23.3604  23.3689  23.4012  23.4449  23.4621  23.5238  23.5362  23.5776
    23.5810  23.6025  23.6493  23.6973  23.7111  23.7946  23.9693  24.0065
    24.0337  24.0574  24.1802  24.2525  24.2644  24.3826  24.4863  24.4920
    24.5441  24.5807  24.6425  24.6439  24.6598  24.6696  24.6879  24.7268
    24.7398  24.7507  24.8227  24.8491  24.8575  24.9567  24.9941  25.0031
    25.0308  25.0892  25.1160  25.1223  25.1750  25.2210  25.2903  25.2904
    25.3040  25.3423  25.3467  25.4025  25.4284  25.5185  25.5202  25.5372
    25.5599  25.7179  25.7298  25.7405  25.7530  25.7631  25.8159  25.8504
    25.8742  25.8893  25.9098  25.9248  26.0058  26.0671  26.0840  26.1593
    26.2182  26.2416  26.3128  26.3299  26.4407  26.4417  26.4467  26.5095
    26.5699  26.5749  26.5967  26.6006  26.6393  26.6907  26.7076  26.7114
    26.7134

     the Fermi energy is     0.9553 ev

!    total energy              =   -3294.17241604 Ry
     Harris-Foulkes estimate   =   -3294.17241626 Ry
     estimated scf accuracy    <       0.00000027 Ry

     The total energy is the sum of the following terms:

     one-electron contribution =  -76907.08464225 Ry
     hartree contribution      =   38503.32785394 Ry
     xc contribution           =    -545.79105472 Ry
     ewald contribution        =   35655.37696435 Ry
     smearing contrib. (-TS)   =      -0.00153736 Ry

     convergence has been achieved in  31 iterations

     Forces acting on atoms (Ry/au):


     negative rho (up, down):  0.480E-02 0.000E+00
     atom    1 type  1   force =     0.00000000    0.00000000    0.13015188
     atom    2 type  2   force =    -0.00274425    0.00000000   -0.15189538
     atom    3 type  2   force =     0.00000000    0.00000000    0.09230426
     atom    4 type  1   force =     0.00062479    0.02440696   -0.01298336
     atom    5 type  1   force =     0.00062479   -0.02440696   -0.01298336
     atom    6 type  1   force =     0.00000000    0.00000000   -0.01154229
     atom    7 type  1   force =     0.00000000    0.00000000   -0.03549491
     atom    8 type  2   force =    -0.00249543    0.00000000    0.02593007
     atom    9 type  2   force =     0.00000000    0.00000000   -0.04819723
     atom   10 type  1   force =     0.00317180   -0.01699809   -0.00148498
     atom   11 type  1   force =     0.00317180    0.01699809   -0.00148498
     atom   12 type  1   force =     0.00000000    0.00000000    0.00197142
     atom   13 type  1   force =     0.00000000    0.00000000    0.00528224
     atom   14 type  2   force =     0.00603331    0.00000000    0.00436901
     atom   15 type  2   force =     0.00000000    0.00000000    0.00550554
     atom   16 type  1   force =    -0.00195541    0.00186335   -0.00200863
     atom   17 type  1   force =    -0.00195541   -0.00186335   -0.00200863
     atom   18 type  1   force =     0.00000000    0.00000000    0.01032278
     atom   19 type  1   force =     0.00000000    0.00000000   -0.01676151
     atom   20 type  2   force =    -0.02647726    0.00000000    0.01728645
     atom   21 type  2   force =     0.00000000    0.00000000    0.04499395
     atom   22 type  1   force =    -0.07642339    0.06585153   -0.06231264
     atom   23 type  1   force =    -0.07642339   -0.06585153   -0.06231264
     atom   24 type  1   force =     0.00000000    0.00000000   -0.01312604
     atom   25 type  1   force =     0.00000000    0.00000000    0.13132055
     atom   26 type  2   force =     0.00274425    0.00000000   -0.15189538
     atom   27 type  2   force =     0.00000000    0.00000000    0.09394013
     atom   28 type  1   force =    -0.00062479    0.02440696   -0.01298336
     atom   29 type  1   force =    -0.00062479   -0.02440696   -0.01298336
[...]
     7.9292   8.3125   8.3328   8.4004   8.4544   8.6230   8.6851   8.7554
     8.8779   9.0106   9.0333   9.1595   9.3836   9.5008   9.5103   9.5994
     9.6639   9.7104   9.8407   9.8946   9.9433   9.9784  10.0024  10.1315
    10.1638  10.2968  10.3401  10.4880  10.5193  10.5752  10.6075  10.7937
    10.9971  11.1012  11.1577  11.2123  11.2895  11.5213  11.6245  11.6397
    11.7206  11.7811  11.8633  11.9258  12.0316  12.0323  12.0837  12.2354
    12.2726  12.3974  12.4307  12.6020  12.6329  12.6676  12.6982  12.7926
    12.8043  12.8591  12.9311  12.9574  12.9620  13.0768  13.1261  13.2130
    13.2203  13.2733  13.4280  13.5639  13.6441  13.6617  13.6686  13.7142
    13.7648  13.8813  13.9272  14.0224  14.0369  14.1837  14.2204  14.2939
    14.3703  14.4253  14.4453  14.5490  14.5640  14.6015  14.7580  14.7786
    14.9147  14.9579  14.9810  15.0007  15.0207  15.0531  15.0999  15.1409
    15.1738  15.1999  15.2040  15.2463  15.2658  15.3648  15.4023  15.4394
    15.4585  15.5590  15.5736  15.5923  15.6335  15.6806  15.6918  15.7390
    15.8238  15.8955  15.8992  16.0540  16.0920  16.1941  16.3066  16.3378
    16.4101  16.5672  16.6559  16.7013  16.7788  16.8678  16.8822  16.8976
    17.1214  17.1726  17.1843  17.2109  17.2375  17.2592  17.3539  17.3561
    17.4100  17.5184  17.5223  17.6192  17.6321  17.6472  17.7059  17.7139
    17.7909  17.7957  17.8499  17.8538  17.9609  18.0257  18.0562  18.1202
    18.1229  18.1903  18.1916  18.2508  18.3053  18.3827  18.3839  18.4277
    18.4723  18.4925  18.5006  18.5490  18.6614  18.6923  18.6954  18.7459
    18.7785  18.7843  18.8683  18.9111  18.9959  19.0148  19.0751  19.0755
    19.1822  19.2251  19.3227  19.3760  19.3869  19.4309  19.4470  19.4850
    19.5704  19.6476  19.6926  19.7630  19.7835  19.8650  19.8907  20.0095
    20.0309  20.0390  20.0854  20.1498  20.2313  20.2723  20.2822  20.3400
    20.3530  20.3774  20.4116  20.4739  20.4802  20.5137  20.5603  20.6517
    20.6821  20.7111  20.7375  20.8813  20.8889  20.9523  20.9587  21.0328
    21.0545  21.1044  21.1437  21.2026  21.2078  21.2857  21.3383  21.3962
    21.4299  21.5936  21.6155  21.6703  21.6910  21.7628  21.7781  21.8067
    21.8902  21.9295  22.0057  22.0080  22.0470  22.1614  22.2523  22.2604
    22.3894  22.4294  22.4362  22.4486  22.4934  22.5034  22.5556  22.5908
    22.6004  22.6431  22.6932  22.8005  22.8358  22.8778  22.9124  22.9241
    22.9907  23.0294  23.0530  23.0615  23.1167  23.1501  23.1901  23.2454
    23.2528  23.2688  23.2783  23.3458  23.3790  23.4102  23.4695  23.5120
    23.5202  23.5453  23.5485  23.5641  23.6321  23.6767  23.6889  23.7505
    23.7656  23.8655  23.8808  23.9046  23.9220  23.9615  23.9726  24.0510
    24.0638  24.0795  24.1035  24.1329  24.1349  24.1891  24.2023  24.2299
    24.2814  24.2895  24.3218  24.3277  24.3657  24.4176  24.4594  24.4713
    24.5820  24.6375  24.6688  24.6806  24.7376  24.7405  24.8804  24.8947
    24.9330  24.9513  24.9839  25.0199  25.0590  25.0897  25.1291  25.1987
    25.2259  25.2352  25.2762  25.3005  25.3538  25.3550  25.4413  25.5243
    25.5438  25.5910  25.5999  25.6507  25.6719  25.7150  25.7269  25.7817
    25.8152  25.9097  25.9524  25.9707  25.9765  26.1033  26.1192  26.1546
    26.1841  26.2213  26.2521  26.2944  26.3505  26.3622  26.3698  26.4668
    26.4883

          k =-0.5000-0.3900 0.0000 ( 41316 PWs)   bands (ev):

   -61.6215 -61.5631 -61.5631 -61.5526 -61.4039 -61.4038 -61.3663 -61.3660
   -61.3510 -61.3435 -61.3268 -61.3140 -61.2919 -61.2895 -61.2350 -61.1577
   -36.0617 -35.8773 -35.8772 -35.8771 -35.8196 -35.7819 -35.7226 -35.7216
   -35.7155 -35.6997 -35.6959 -35.6954 -35.6841 -35.6801 -35.6233 -35.6223
   -35.6119 -35.6098 -35.5953 -35.5836 -35.5715 -35.5546 -35.5416 -35.5257
   -35.5153 -35.5144 -35.4878 -35.4799 -35.4720 -35.4525 -35.4358 -35.4313
   -35.4307 -35.4300 -35.4253 -35.4198 -35.4160 -35.4115 -35.3815 -35.3791
   -35.3683 -35.3529 -35.3516 -35.3346 -35.2473 -35.1072 -35.0757 -34.9762
   -19.1666 -19.0192 -18.6532 -18.5917 -18.5719 -18.5662 -18.5650 -18.4268
   -18.3854 -18.3790 -18.3746 -18.3224 -18.2587 -18.1367 -18.1344 -18.1054
   -18.0660 -18.0624 -18.0619 -17.9737 -17.9414 -17.9281 -17.8949 -17.8726
   -17.7947 -17.7710 -17.7642 -17.4693 -16.9578 -16.7285 -16.3716 -16.3620
   -15.4659  -7.3400  -6.7969  -6.7387  -6.7379  -6.6558  -6.6544  -6.6142
    -6.5868  -6.4522  -6.4200  -6.3065  -6.2959  -6.2234  -6.2070  -6.1294
    -6.0069  -5.9112  -5.8280  -5.7938  -5.7888  -5.7223  -5.6730  -5.6367
    -5.4942  -5.4035  -5.4032  -5.3739  -5.3729  -5.2804  -5.2131  -5.1559
    -5.1006  -4.9939  -4.9921  -4.9400  -4.9390  -4.8972  -4.8584  -4.8456
    -4.8249  -4.8219  -4.8207  -4.6399  -4.5301  -4.4795  -4.4402  -4.3938
    -4.3282  -4.2422  -4.2119  -4.2107  -4.1209  -4.0480  -4.0397  -4.0192
    -3.9101  -3.8686  -3.8538  -3.8251  -3.8204  -3.8203  -3.7907  -3.6283
    -3.5620  -3.5600  -3.5586  -3.5533  -3.5132  -3.5023  -3.4873  -3.3517
    -3.1708  -3.1617  -3.1098  -3.1054  -2.8914  -2.6953  -2.6009  -2.5938
    -2.5208  -2.4448  -2.4399  -2.3573  -2.3463  -2.2272  -2.2096  -2.1340
    -2.0231  -1.9917  -1.9586  -1.8550  -1.5967  -1.5520  -1.5439  -1.5419
    -1.5338  -1.1579  -0.5359  -0.3816   0.0294   0.1803   0.2370   0.3295
     0.3541   0.3636   0.5074   0.5205   0.5258   0.6049   0.6098   0.6619
     0.7775   0.7812   0.8261   0.9137   0.9423   1.0581   1.0681   1.3209
     1.3566   1.4230   1.4984   1.5846   1.6473   1.6482   1.7129   1.8218
     1.9037   1.9400   2.0190   2.1100   2.2320   2.2407   2.2817   2.3370
     2.4219   2.4227   2.4339   2.5000   2.5840   2.6187   2.6654   2.7424
     2.8382   2.8675   2.9862   2.9937   3.2389   3.4176   3.6071   3.8378
     3.9168   3.9205   3.9268   3.9291   3.9412   4.2410   4.3571   4.5120
     4.7122   4.8157   4.8410   5.2605   5.6405   5.6772   5.7669   5.9903
     6.0702   6.3412   6.3500   6.4782   6.4868   6.6359   6.6425   6.7152
     6.8064   6.9213   6.9278   7.0480   7.1190   7.4843   8.1528   8.1789
     8.1797   8.3897   8.3912   8.7136   8.7158   8.8515   8.8597   8.9625
     8.9761   9.0250   9.0567   9.0860   9.1716   9.1837   9.1901   9.2520
     9.4756   9.5287   9.5308   9.5517   9.6544   9.6680   9.7304   9.8239
    10.0630  10.0834  10.1433  10.2420  10.3514  10.4100  10.4348  10.5316
    10.7755  10.8142  10.8324  11.0868  11.1577  11.1803  11.2671  11.5732
    11.8677  11.8870  11.9207  12.1721  12.2001  12.2748  12.3816  12.4051
    12.6646  12.7373  12.7692  12.7992  12.8216  12.8647  12.9558  13.0655
    13.1121  13.1242  13.1772  13.3419  13.3764  13.3823  13.4410  13.4649
    13.6375  13.7261  13.9315  14.0042  14.0367  14.0804  14.1572  14.2959
    14.3666  14.3680  14.4493  14.4545  14.5257  14.5349  14.6026  14.6039
    14.6849  14.6899  14.7203  14.7572  14.7723  14.7948  14.8518  14.8879
    14.9240  14.9401  14.9699  14.9880  15.0220  15.0381  15.0875  15.1709
    15.1949  15.2480  15.2580  15.2745  15.2807  15.3415  15.3484  15.3572
    15.4153  15.4233  15.4252  15.4547  15.4939  15.5487  15.5713  15.5792
    15.5913  15.5986  15.9125  15.9253  15.9429  16.0245  16.0719  16.1233
    16.1387  16.1557  16.2553  16.2729  16.2836  16.2936  16.3136  16.4292
    16.4540  16.5192  16.6782  16.7013  16.8755  16.9580  16.9729  16.9932
    17.0448  17.0716  17.1028  17.1457  17.2997  17.4391  17.4813  17.4983
    17.5288  17.6491  17.8438  17.8597  17.8901  17.9161  17.9337  17.9469
    18.1134  18.1147  18.1212  18.2368  18.3261  18.3443  18.3630  18.4541
    18.4923  18.5483  18.6001  18.7052  18.7318  18.7335  18.7721  18.7925
    18.8596  18.8913  18.9200  18.9777  18.9945  19.0391  19.0525  19.1184
    19.1664  19.1888  19.2148  19.2716  19.3019  19.3378  19.4069  19.4154
    19.4283  19.5143  19.5815  19.5878  19.6117  19.6242  19.6799  19.6921
    19.7393  19.8055  19.8521  19.8569  19.9010  19.9763  20.0096  20.0247
    20.0424  20.0951  20.1324  20.1344  20.1347  20.3192  20.3980  20.4048
    20.5017  20.5495  20.6044  20.6111  20.6131  20.6870  20.7495  20.8118
    20.9266  20.9272  21.0906  21.1052  21.1156  21.2538  21.2789  21.2809
    21.3977  21.4608  21.5656  21.5917  21.6130  21.6352  21.6498  21.6608
    21.7295  21.8696  21.9951  22.0926  22.1464  22.1626  22.2442  22.2491
    22.2910  22.3581  22.4218  22.4447  22.4568  22.4963  22.5339  22.5400
    22.5475  22.6387  22.6517  22.7047  22.7236  22.9123  22.9484  23.0442
    23.0820  23.1473  23.1508  23.1992  23.2412  23.2728  23.2798  23.3007
    23.3599  23.3668  23.3832  23.4243  23.4334  23.5102  23.5133  23.5514
    23.5746  23.5883  23.6223  23.7001  23.7042  23.7927  23.9613  23.9887
    24.0070  24.0367  24.1772  24.2264  24.2562  24.3621  24.4665  24.4908
    24.5301  24.5436  24.5659  24.6339  24.6439  24.6557  24.6777  24.7058
    24.7204  24.7380  24.8169  24.8368  24.8483  24.9298  24.9743  25.0006
    25.0303  25.0930  25.1267  25.1384  25.1954  25.2042  25.3014  25.3111
    25.3225  25.3405  25.3549  25.3945  25.4123  25.5115  25.5130  25.5294
    25.5460  25.7026  25.7213  25.7552  25.7703  25.7730  25.8268  25.8407
    25.8679  25.8914  25.9189  25.9229  26.0013  26.0484  26.0806  26.1701
    26.2230  26.2465  26.2957  26.3318  26.4275  26.4365  26.4370  26.5283
    26.5633  26.5685  26.5872  26.5946  26.6302  26.6530  26.7018  26.7052
    26.7147

     the Fermi energy is     0.9141 ev

!    total energy              =   -3294.17764086 Ry
     Harris-Foulkes estimate   =   -3294.17764088 Ry
     estimated scf accuracy    <       0.00000002 Ry

     The total energy is the sum of the following terms:

     one-electron contribution =  -76870.50856454 Ry
     hartree contribution      =   38484.42378379 Ry
     xc contribution           =    -545.70535443 Ry
     ewald contribution        =   35637.61412448 Ry
     smearing contrib. (-TS)   =      -0.00163017 Ry

     convergence has been achieved in  11 iterations

     Forces acting on atoms (Ry/au):


     negative rho (up, down):  0.479E-02 0.000E+00
     atom    1 type  1   force =     0.00000000    0.00000000    0.13014605
     atom    2 type  2   force =    -0.00271549    0.00000000   -0.15198607
     atom    3 type  2   force =     0.00000000    0.00000000    0.09235761
     atom    4 type  1   force =     0.00063653    0.02438276   -0.01297306
     atom    5 type  1   force =     0.00063653   -0.02438276   -0.01297306
     atom    6 type  1   force =     0.00000000    0.00000000   -0.01151769
     atom    7 type  1   force =     0.00000000    0.00000000   -0.03560771
     atom    8 type  2   force =    -0.00243933    0.00000000    0.02596427
     atom    9 type  2   force =     0.00000000    0.00000000   -0.04819231
     atom   10 type  1   force =     0.00317004   -0.01691892   -0.00145247
     atom   11 type  1   force =     0.00317004    0.01691892   -0.00145247
     atom   12 type  1   force =     0.00000000    0.00000000    0.00194752
     atom   13 type  1   force =     0.00000000    0.00000000    0.00553496
     atom   14 type  2   force =     0.00504162   -0.00000000    0.00293556
     atom   15 type  2   force =     0.00000000    0.00000000    0.00609106
     atom   16 type  1   force =    -0.00178718    0.00168816   -0.00177985
     atom   17 type  1   force =    -0.00178718   -0.00168816   -0.00177985
     atom   18 type  1   force =     0.00000000    0.00000000    0.01021668
     atom   19 type  1   force =     0.00000000    0.00000000   -0.01770472
     atom   20 type  2   force =    -0.02615574   -0.00000000    0.01877326
     atom   21 type  2   force =     0.00000000    0.00000000    0.04630024
     atom   22 type  1   force =    -0.07052465    0.06036514   -0.06051286
     atom   23 type  1   force =    -0.07052465   -0.06036514   -0.06051286
     atom   24 type  1   force =     0.00000000    0.00000000   -0.01416912
     atom   25 type  1   force =     0.00000000    0.00000000    0.13134401
     atom   26 type  2   force =     0.00271549    0.00000000   -0.15198607
     atom   27 type  2   force =     0.00000000    0.00000000    0.09394353
     atom   28 type  1   force =    -0.00063653    0.02438276   -0.01297306
     atom   29 type  1   force =    -0.00063653   -0.02438276   -0.01297306
     atom   30 type  1   force =     0.00000000    0.00000000    0.00601815
     atom   31 type  1   force =     0.00000000    0.00000000   -0.04001308
     atom   32 type  2   force =     0.00243933    0.00000000    0.02596427
     atom   33 type  2   force =     0.00000000    0.00000000   -0.00023457
     atom   34 type  1   force =    -0.00317004   -0.01691892   -0.00145247
     atom   35 type  1   force =    -0.00317004    0.01691892   -0.00145247
     atom   36 type  1   force =     0.00000000    0.00000000   -0.00449601
     atom   37 type  1   force =     0.00000000    0.00000000   -0.00796190
     atom   38 type  2   force =    -0.00504162    0.00000000    0.00293556
     atom   39 type  2   force =     0.00000000    0.00000000    0.00486146
     atom   40 type  1   force =     0.00178718    0.00168816   -0.00177985
     atom   41 type  1   force =     0.00178718   -0.00168816   -0.00177985
     atom   42 type  1   force =     0.00000000    0.00000000   -0.13722921
     atom   43 type  1   force =     0.00000000    0.00000000    0.00275953
     atom   44 type  2   force =     0.02615574    0.00000000    0.01877326
     atom   45 type  2   force =     0.00000000    0.00000000    0.32024290
     atom   46 type  1   force =     0.07052465    0.06036514   -0.06051286
     atom   47 type  1   force =     0.07052465   -0.06036514   -0.06051286
     atom   48 type  1   force =     0.00000000    0.00000000   -0.01935794
     atom   49 type  1   force =     0.00000000    0.00000000    0.00021947

     Total force =     0.000219     Total SCF correction =     0.000032
     SCF correction compared to forces is large: reduce conv_thr to get better values

     bfgs converged in   4 scf cycles and   3 bfgs steps
     (criteria: energy < 0.10E-03, force < 0.10E-02)

     End of BFGS Geometry Optimization

     Final energy   =   -3294.1776408626 Ry
Begin final coordinates

ATOMIC_POSITIONS (crystal)
O0       0.000000000   0.500000000   0.319310000    0   0   0
Mo1      0.250000000   0.500000000   0.360290000    0   0   0
Mo1      0.000000000   0.000000000   0.360290000    0   0   0
O0       0.250000000   0.780000000   0.360290000    0   0   0
O0       0.250000000   0.220000000   0.360290000    0   0   0
O0       0.000000000   0.500000000   0.401270000    0   0   0
O0       0.000000000   0.000000000   0.412450000    0   0   0
Mo1      0.250000000   0.000000000   0.453430000    0   0   0
Mo1      0.000000000   0.500000000   0.453430000    0   0   0
O0       0.250000000   0.720000000   0.453430000    0   0   0
O0       0.250000000   0.280000000   0.453430000    0   0   0
O0       0.000000000   0.000000000   0.494410000    0   0   0
O0       0.000000000   0.500000000   0.504230000    0   0   0
Mo1      0.228660000   0.500000000   0.544660000    0   0   0
Mo1      0.000000000   0.000000000   0.550120000    0   0   0
O0       0.246020000   0.783280000   0.547490000    0   0   0
O0       0.246020000   0.216720000   0.547490000    0   0   0
O0       0.000000000   0.500000000   0.586970000    0   0   0
O0       0.000000000   0.000000000   0.602950000    0   0   0
Mo1      0.271940000   0.000000000   0.644350000    0   0   0
Mo1      0.000000000   0.500000000   0.635790000    0   0   0
O0       0.256870000   0.704770000   0.644050000    0   0   0
O0       0.256870000   0.295230000   0.644050000    0   0   0
O0       0.000000000   0.000000000   0.677650000    0   0   0
O0       0.500000000   0.500000000   0.319310000    0   0   0
Mo1      0.750000000   0.500000000   0.360290000    0   0   0
Mo1      0.500000000   0.000000000   0.360290000    0   0   0
O0       0.750000000   0.780000000   0.360290000    0   0   0
O0       0.750000000   0.220000000   0.360290000    0   0   0
O0       0.500000000   0.500000000   0.401270000    0   0   0
O0       0.500000000   0.000000000   0.412450000    0   0   0
Mo1      0.750000000   0.000000000   0.453430000    0   0   0
Mo1      0.500000000   0.500000000   0.453430000    0   0   0
O0       0.750000000   0.720000000   0.453430000    0   0   0
O0       0.750000000   0.280000000   0.453430000    0   0   0
O0       0.500000000   0.000000000   0.494410000    0   0   0
O0       0.500000000   0.500000000   0.507450000    0   0   0
Mo1      0.771340000   0.500000000   0.544660000    0   0   0
Mo1      0.500000000   0.000000000   0.548020000    0   0   0
O0       0.753980000   0.783280000   0.547490000    0   0   0
O0       0.753980000   0.216720000   0.547490000    0   0   0
O0       0.500000000   0.500000000   0.583830000    0   0   0
O0       0.500000000   0.000000000   0.600640000    0   0   0
Mo1      0.728060000   0.000000000   0.644350000    0   0   0
Mo1      0.500000000   0.500000000   0.632730000    0   0   0
O0       0.743130000   0.704770000   0.644050000    0   0   0
O0       0.743130000   0.295230000   0.644050000    0   0   0
O0       0.500000000   0.000000000   0.683630000    0   0   0
O0       0.500000000   0.500000000   0.680067250
End final coordinates



     init_run     :     70.87s CPU     77.67s WALL (       1 calls)
     electrons    :  22238.15s CPU  23186.53s WALL (       4 calls)
     update_pot   :     14.80s CPU     16.84s WALL (       3 calls)
     forces       :    167.34s CPU    170.54s WALL (       4 calls)

     Called by init_run:
     wfcinit      :     56.88s CPU     58.77s WALL (       1 calls)
     potinit      :      2.63s CPU      3.06s WALL (       1 calls)

     Called by electrons:
     c_bands      :  20136.85s CPU  20625.37s WALL (      78 calls)
     sum_band     :   1294.76s CPU   1377.29s WALL (      78 calls)
     v_of_rho     :    122.92s CPU    146.25s WALL (      81 calls)
     newd         :    624.35s CPU    959.72s WALL (      81 calls)
     mix_rho      :     38.59s CPU     41.61s WALL (      78 calls)

     Called by c_bands:
     init_us_2    :      8.05s CPU      8.57s WALL (    1449 calls)
     cegterg      :  20092.06s CPU  20578.39s WALL (     702 calls)

     Called by *egterg:
     h_psi        :   3683.66s CPU   3928.79s WALL (    2170 calls)
     s_psi        :    858.92s CPU    870.84s WALL (    2170 calls)
     g_psi        :      6.81s CPU      6.82s WALL (    1459 calls)
     cdiaghg      :  11376.28s CPU  11494.05s WALL (    2125 calls)

     Called by h_psi:
     add_vuspsi   :    859.67s CPU    873.26s WALL (    2170 calls)

     General routines
     calbec       :   1345.62s CPU   1360.16s WALL (    2908 calls)
     fft          :    227.77s CPU    265.00s WALL (    1331 calls)
     ffts         :     12.51s CPU     14.16s WALL (     159 calls)
     fftw         :   1895.54s CPU   2175.83s WALL ( 2294192 calls)
     interpolate  :     36.33s CPU     42.44s WALL (     159 calls)

     Parallel routines
     fft_scatter  :   1021.13s CPU   1232.16s WALL ( 2295682 calls)

     PWSCF        :     6h15m CPU        6h31m WALL


   This run was terminated on:  17:19:37  27Mar2014            

=------------------------------------------------------------------------------=
   JOB DONE.
=------------------------------------------------------------------------------=
---------------------------------------
Running PBS batch system epilogue script
Job id: 314578.audhumbla.fysik.dtu.dk
Username: zhonxu
Groupname: campgst
Jobname: MoO2/Eads-4-layers/O
Sessionid: 58587
Resources limits: neednodes=2:ppn=16:xeon16,nodes=2:ppn=16:xeon16,walltime=48:00:00
Resources used: cput=207:49:45,mem=23563784kb,vmem=31108180kb,walltime=06:31:32
Queuename: verylong
Accounting:
This job has allocated the following 32 nodes:
g034 g034 g034 g034 g034 g034 g034 g034 g034 g034 g034 g034 g034 g034 g034 g034 g009 g009 g009 g009 g009 g009 g009 g009 g009 g009 g009 g009 g009 g009 g009 g009
Finished epilogue job 314578.audhumbla.fysik.dtu.dk for zhonxu
