
     Program PWSCF v.5.0.2 (svn rev. 9656) starts on  2May2014 at  0:29:53 

     This program is part of the open-source Quantum ESPRESSO suite
     for quantum simulation of materials; please cite
         "P. Giannozzi et al., J. Phys.:Condens. Matter 21 395502 (2009);
          URL http://www.quantum-espresso.org", 
     in publications or presentations arising from this work. More details at
     http://www.quantum-espresso.org/quote.php

     Parallel version (MPI), running on    16 processors
     K-points division:     npool     =       4
     R & G space division:  proc/nbgrp/npool/nimage =       4

     Current dimensions of program PWSCF are:
     Max number of different atomic species (ntypx) = 10
     Max number of k-points (npk) =  40000
     Max angular momentum in pseudopotentials (lmaxx) =  3
     Reading input from pwscf.in
Warning: card &CELL ignored
Warning: card / ignored

     Subspace diagonalization in iterative solution of the eigenvalue problem:
     a serial algorithm will be used


     Parallelization info
     --------------------
     sticks:   dense  smooth     PW     G-vecs:    dense   smooth      PW
     Min        1333     428    119               322637    58444    8739
     Max        1334     429    120               322642    58462    8748
     Sum        5335    1713    477              1290557   233813   34969



     bravais-lattice index     =            0
     lattice parameter (alat)  =      10.1289  a.u.
     unit-cell volume          =    6836.7721 (a.u.)^3
     number of atoms/cell      =           32
     number of atomic types    =            3
     number of electrons       =       239.00
     number of Kohn-Sham states=          358
     kinetic-energy cutoff     =      40.0000  Ry
     charge density cutoff     =     500.0000  Ry
     convergence threshold     =      1.0E-06
     mixing beta               =       0.7000
     number of iterations used =            8  plain     mixing
     Exchange-correlation      = SLA  PW   PBE  PBE ( 1 4 3 4 0)
     EXX-fraction              =        0.00
     nstep                     =           50


     celldm(1)=  10.128932  celldm(2)=   0.000000  celldm(3)=   0.000000
     celldm(4)=   0.000000  celldm(5)=   0.000000  celldm(6)=   0.000000

     crystal axes: (cart. coord. in units of alat)
               a(1) = (   1.000000   0.000000   0.000000 )  
               a(2) = (   0.000000   1.306037   0.000000 )  
               a(3) = (   0.000000   0.000000   5.037380 )  

     reciprocal axes: (cart. coord. in units 2 pi/alat)
               b(1) = (  1.000000  0.000000  0.000000 )  
               b(2) = (  0.000000  0.765675  0.000000 )  
               b(3) = (  0.000000  0.000000  0.198516 )  


     PseudoPot. # 1 for O  read from file:
     /home/camp/zhonxu/pseudo/o_pbe_v1.01.uspp.F.UPF
     MD5 check sum: 2bcb18d16ea4b960afae9ec6d52f22d2
     Pseudo is Ultrasoft + core correction, Zval =  6.0
     Generated by new atomic code, or converted to UPF format
     Using radial grid of  737 points,  5 beta functions with: 
                l(1) =   0
                l(2) =   0
                l(3) =   1
                l(4) =   1
                l(5) =   2
     Q(r) pseudized with  8 coefficients,  rinner =    0.900   0.900   0.900
                                                       0.900   0.900

     PseudoPot. # 2 for Re read from file:
     /home/camp/zhonxu/pseudo/re_pbe_v1.uspp.F.UPF
     MD5 check sum: 6f5a5dcaf9c96c20d0ffdde0de57afc6
     Pseudo is Ultrasoft + core correction, Zval = 15.0
     Generated by new atomic code, or converted to UPF format
     Using radial grid of  981 points,  8 beta functions with: 
                l(1) =   0
                l(2) =   0
                l(3) =   1
                l(4) =   1
                l(5) =   2
                l(6) =   2
                l(7) =   3
                l(8) =   3
     Q(r) pseudized with  8 coefficients,  rinner =    1.000   1.000   1.000
                                                       1.000   1.000   1.000
                                                       1.000

     PseudoPot. # 3 for H  read from file:
     /home/camp/zhonxu/pseudo/h_pbe_v1.uspp.F.UPF
     MD5 check sum: 3408e3ff4ec8b0a4e358431e7e038a48
     Pseudo is Ultrasoft, Zval =  1.0
     Generated by new atomic code, or converted to UPF format
     Using radial grid of  615 points,  2 beta functions with: 
                l(1) =   0
                l(2) =   0
     Q(r) pseudized with  8 coefficients,  rinner =    0.700

     atomic species   valence    mass     pseudopotential
        O0             6.00    15.99940     O ( 1.00)
        Re1           15.00   186.20700     Re( 1.00)
        H2             1.00     1.00794     H ( 1.00)


     Simplified LDA+U calculation (l_max = 2) with parameters (eV):
     atomic species    L          U    alpha       J0     beta
        Re1            2     4.0000   0.0000   0.0000   0.0000



     No symmetry found



   Cartesian axes

     site n.     atom                  positions (alat units)
         1           O0  tau(   1) = (   0.0000000   0.0000000   1.8669538  )
         2           O0  tau(   2) = (   0.0000000   0.6530184   1.9246318  )
         3           Re1 tau(   3) = (   0.2500000   0.6530184   2.2252626  )
         4           Re1 tau(   4) = (   0.0000000   0.0000000   2.2335239  )
         5           O0  tau(   5) = (   0.2500000   1.0187087   2.2252626  )
         6           O0  tau(   6) = (   0.2500000   0.2873281   2.2245574  )
         7           O0  tau(   7) = (   0.0000000   0.6530184   2.5039809  )
         8           O0  tau(   8) = (   0.0000000   0.0000000   2.5944019  )
         9           Re1 tau(   9) = (   0.2500000   0.0000000   2.8956372  )
        10           Re1 tau(  10) = (   0.0000000   0.6530184   2.8532728  )
        11           O0  tau(  11) = (   0.2500000   0.9403465   2.8863684  )
        12           O0  tau(  12) = (   0.2500000   0.3656903   2.8866706  )
        13           O0  tau(  13) = (   0.0000000   0.0000000   3.1589410  )
        14           O0  tau(  14) = (   0.5000000   0.0000000   1.8671553  )
        15           O0  tau(  15) = (   0.5000000   0.6530184   1.9260926  )
        16           Re1 tau(  16) = (   0.7500000   0.6530184   2.2254138  )
        17           Re1 tau(  17) = (   0.5000000   0.0000000   2.2327683  )
        18           O0  tau(  18) = (   0.7500000   1.0187087   2.2250108  )
        19           O0  tau(  19) = (   0.7500000   0.2873281   2.2249100  )
        20           O0  tau(  20) = (   0.5000000   0.6530184   2.5136527  )
        21           O0  tau(  21) = (   0.5000000   0.0000000   2.5937470  )
        22           Re1 tau(  22) = (   0.7500000   0.0000000   2.8949319  )
        23           Re1 tau(  23) = (   0.5000000   0.6530184   2.8846557  )
        24           O0  tau(  24) = (   0.7500000   0.9403465   2.8822881  )
        25           O0  tau(  25) = (   0.7500000   0.3656903   2.8822881  )
        26           O0  tau(  26) = (   0.5000000   0.0000000   3.1556667  )
        27           H2  tau(  27) = (  -0.0003600   0.8163644   1.8395505  )
        28           H2  tau(  28) = (   0.4996200   0.8138568   1.8363769  )
        29           H2  tau(  29) = (   0.1695000   0.0302217   1.7958260  )
        30           H2  tau(  30) = (   0.6704500   0.0285761   1.7967327  )
        31           O0  tau(  31) = (   0.5277600   0.6525874   3.2436194  )
        32           H2  tau(  32) = (   0.3788200   0.6519344   3.3501096  )

     number of k points=    10  Methfessel-Paxton smearing, width (Ry)=  0.0100
                       cart. coord. in units 2pi/alat
        k(    1) = (   0.0000000   0.0000000   0.0000000), wk =   0.1250000
        k(    2) = (   0.0000000   0.1914188   0.0000000), wk =   0.2500000
        k(    3) = (   0.0000000  -0.3828376   0.0000000), wk =   0.1250000
        k(    4) = (   0.2500000   0.0000000   0.0000000), wk =   0.2500000
        k(    5) = (   0.2500000   0.1914188   0.0000000), wk =   0.2500000
        k(    6) = (   0.2500000  -0.3828376   0.0000000), wk =   0.2500000
        k(    7) = (  -0.5000000   0.0000000   0.0000000), wk =   0.1250000
        k(    8) = (  -0.5000000   0.1914188   0.0000000), wk =   0.2500000
        k(    9) = (  -0.5000000  -0.3828376   0.0000000), wk =   0.1250000
        k(   10) = (  -0.2500000   0.1914188   0.0000000), wk =   0.2500000

     Dense  grid:  1290557 G-vectors     FFT dimensions: (  75,  96, 375)

     Smooth grid:   233813 G-vectors     FFT dimensions: (  45,  54, 216)

     Largest allocated arrays     est. size (Mb)     dimensions
        Kohn-Sham Wavefunctions        40.23 Mb     (   7365,  358)
        Atomic wavefunctions           20.79 Mb     (   7365,  185)
        NL pseudopotentials            57.65 Mb     (   7365,  513)
        Each V/rho on FFT grid         10.33 Mb     ( 676800)
        Each G-vector array             2.46 Mb     ( 322642)
        G-vector shells                 1.07 Mb     ( 139625)
     Largest temporary arrays     est. size (Mb)     dimensions
        Auxiliary wavefunctions       160.93 Mb     (   7365, 1432)
        Each subspace H/S matrix       31.29 Mb     (1432,1432)
        Each <psi_i|beta_j> matrix      2.80 Mb     (    513,  358)
        Arrays for rho mixing          82.62 Mb     ( 676800,   8)

     Check: negative/imaginary core charge=   -0.000003    0.000000

     Initial potential from superposition of free atoms
     Check: negative starting charge=   -0.237247

     starting charge  234.99957, renormalised to  239.00000

     negative rho (up, down):  0.241E+00 0.000E+00
     Number of +U iterations with fixed ns =  0
     Starting occupations:
 --- enter write_ns ---
 LDA+U parameters:
U( 2)     =  4.00000000
alpha( 2) =  0.00000000
atom    3   Tr[ns(na)] =   5.00000
    eigenvalues: 
  0.500  0.500  0.500  0.500  0.500
    eigenvectors:
  1.000  0.000  0.000  0.000  0.000
  0.000  1.000  0.000  0.000  0.000
  0.000  0.000  1.000  0.000  0.000
  0.000  0.000  0.000  1.000  0.000
  0.000  0.000  0.000  0.000  1.000
    occupations:
  0.500  0.000  0.000  0.000  0.000
  0.000  0.500  0.000  0.000  0.000
  0.000  0.000  0.500  0.000  0.000
  0.000  0.000  0.000  0.500  0.000
  0.000  0.000  0.000  0.000  0.500
atom    4   Tr[ns(na)] =   5.00000
    eigenvalues: 
  0.500  0.500  0.500  0.500  0.500
    eigenvectors:
  1.000  0.000  0.000  0.000  0.000
  0.000  1.000  0.000  0.000  0.000
  0.000  0.000  1.000  0.000  0.000
  0.000  0.000  0.000  1.000  0.000
  0.000  0.000  0.000  0.000  1.000
    occupations:
  0.500  0.000  0.000  0.000  0.000
  0.000  0.500  0.000  0.000  0.000
  0.000  0.000  0.500  0.000  0.000
  0.000  0.000  0.000  0.500  0.000
  0.000  0.000  0.000  0.000  0.500
atom    9   Tr[ns(na)] =   5.00000
    eigenvalues: 
  0.500  0.500  0.500  0.500  0.500
    eigenvectors:
  1.000  0.000  0.000  0.000  0.000
  0.000  1.000  0.000  0.000  0.000
  0.000  0.000  1.000  0.000  0.000
  0.000  0.000  0.000  1.000  0.000
  0.000  0.000  0.000  0.000  1.000
    occupations:
  0.500  0.000  0.000  0.000  0.000
  0.000  0.500  0.000  0.000  0.000
  0.000  0.000  0.500  0.000  0.000
  0.000  0.000  0.000  0.500  0.000
  0.000  0.000  0.000  0.000  0.500
atom   10   Tr[ns(na)] =   5.00000
    eigenvalues: 
  0.500  0.500  0.500  0.500  0.500
    eigenvectors:
  1.000  0.000  0.000  0.000  0.000
  0.000  1.000  0.000  0.000  0.000
  0.000  0.000  1.000  0.000  0.000
  0.000  0.000  0.000  1.000  0.000
  0.000  0.000  0.000  0.000  1.000
    occupations:
  0.500  0.000  0.000  0.000  0.000
  0.000  0.500  0.000  0.000  0.000
  0.000  0.000  0.500  0.000  0.000
  0.000  0.000  0.000  0.500  0.000
  0.000  0.000  0.000  0.000  0.500
atom   16   Tr[ns(na)] =   5.00000
    eigenvalues: 
  0.500  0.500  0.500  0.500  0.500
    eigenvectors:
  1.000  0.000  0.000  0.000  0.000
  0.000  1.000  0.000  0.000  0.000
  0.000  0.000  1.000  0.000  0.000
  0.000  0.000  0.000  1.000  0.000
  0.000  0.000  0.000  0.000  1.000
    occupations:
  0.500  0.000  0.000  0.000  0.000
  0.000  0.500  0.000  0.000  0.000
  0.000  0.000  0.500  0.000  0.000
  0.000  0.000  0.000  0.500  0.000
  0.000  0.000  0.000  0.000  0.500
atom   17   Tr[ns(na)] =   5.00000
    eigenvalues: 
  0.500  0.500  0.500  0.500  0.500
    eigenvectors:
  1.000  0.000  0.000  0.000  0.000
  0.000  1.000  0.000  0.000  0.000
  0.000  0.000  1.000  0.000  0.000
  0.000  0.000  0.000  1.000  0.000
  0.000  0.000  0.000  0.000  1.000
    occupations:
  0.500  0.000  0.000  0.000  0.000
  0.000  0.500  0.000  0.000  0.000
  0.000  0.000  0.500  0.000  0.000
  0.000  0.000  0.000  0.500  0.000
  0.000  0.000  0.000  0.000  0.500
atom   22   Tr[ns(na)] =   5.00000
    eigenvalues: 
  0.500  0.500  0.500  0.500  0.500
    eigenvectors:
  1.000  0.000  0.000  0.000  0.000
  0.000  1.000  0.000  0.000  0.000
  0.000  0.000  1.000  0.000  0.000
  0.000  0.000  0.000  1.000  0.000
  0.000  0.000  0.000  0.000  1.000
    occupations:
  0.500  0.000  0.000  0.000  0.000
  0.000  0.500  0.000  0.000  0.000
  0.000  0.000  0.500  0.000  0.000
  0.000  0.000  0.000  0.500  0.000
  0.000  0.000  0.000  0.000  0.500
atom   23   Tr[ns(na)] =   5.00000
    eigenvalues: 
  0.500  0.500  0.500  0.500  0.500
    eigenvectors:
  1.000  0.000  0.000  0.000  0.000
  0.000  1.000  0.000  0.000  0.000
  0.000  0.000  1.000  0.000  0.000
  0.000  0.000  0.000  1.000  0.000
  0.000  0.000  0.000  0.000  1.000
    occupations:
  0.500  0.000  0.000  0.000  0.000
  0.000  0.500  0.000  0.000  0.000
  0.000  0.000  0.500  0.000  0.000
  0.000  0.000  0.000  0.500  0.000
  0.000  0.000  0.000  0.000  0.500
N of occupied +U levels =  40.0000000
 --- exit write_ns ---
 Atomic wfc used for LDA+U Projector are NOT orthogonalized
     Starting wfc are  185 randomized atomic wfcs

     total cpu time spent up to now is      178.4 secs

     per-process dynamical memory:   420.5 Mb

     Self-consistent Calculation

     iteration #  1     ecut=    40.00 Ry     beta=0.70
     Davidson diagonalization with overlap
     ethr =  1.00E-02,  avg # of iterations =  5.7
 --- enter write_ns ---
 LDA+U parameters:
U( 2)     =  4.00000000
alpha( 2) =  0.00000000
atom    3   Tr[ns(na)] =   5.29603
    eigenvalues: 
  0.377  0.461  0.495  0.599  0.716
    eigenvectors:
  0.005  0.001  0.464  0.000  0.529
  0.000  0.996  0.003  0.000  0.000
  0.993  0.000  0.001  0.002  0.003
  0.000  0.002  0.531  0.000  0.467
  0.002  0.000  0.000  0.997  0.000
    occupations:
  0.611  0.001  0.017 -0.110  0.003
  0.001  0.461  0.000  0.002 -0.002
  0.017  0.000  0.379 -0.010 -0.010
 -0.110  0.002 -0.010  0.598 -0.002
  0.003 -0.002 -0.010 -0.002  0.598
atom    4   Tr[ns(na)] =   5.18308
    eigenvalues: 
  0.360  0.458  0.512  0.555  0.706
    eigenvectors:
  0.000  0.000  0.948  0.008  0.044
  0.000  0.000  0.008  0.992  0.000
  1.000  0.000  0.000  0.000  0.000
  0.000  0.000  0.044  0.000  0.956
  0.000  1.000  0.000  0.000  0.000
    occupations:
  0.521  0.004  0.001 -0.040 -0.000
  0.004  0.555  0.003  0.000 -0.000
  0.001  0.003  0.360 -0.000  0.000
 -0.040  0.000 -0.000  0.698  0.000
 -0.000 -0.000  0.000  0.000  0.458
atom    9   Tr[ns(na)] =   6.09056
    eigenvalues: 
  0.509  0.512  0.567  0.727  0.730
    eigenvectors:
  0.287  0.083  0.000  0.018  0.612
  0.233  0.767  0.000  0.000  0.000
  0.000  0.000  0.996  0.004  0.000
  0.481  0.149  0.000  0.010  0.359
  0.000  0.000  0.004  0.968  0.028
    occupations:
  0.649 -0.002 -0.000 -0.107  0.000
 -0.002  0.511 -0.000 -0.000  0.000
 -0.000 -0.000  0.567 -0.000 -0.010
 -0.107 -0.000 -0.000  0.591 -0.000
  0.000  0.000 -0.010 -0.000  0.727
atom   10   Tr[ns(na)] =   6.45600
    eigenvalues: 
  0.439  0.467  0.746  0.775  0.800
    eigenvectors:
  0.977  0.000  0.023  0.000  0.000
  0.000  0.000  0.000  0.000  1.000
  0.000  0.000  0.000  1.000  0.000
  0.023  0.000  0.977  0.000  0.000
  0.000  1.000  0.000  0.000  0.000
    occupations:
  0.446 -0.004  0.000 -0.046  0.000
 -0.004  0.800  0.000 -0.001  0.000
  0.000  0.000  0.775 -0.000  0.003
 -0.046 -0.001 -0.000  0.739 -0.000
  0.000  0.000  0.003 -0.000  0.467
atom   16   Tr[ns(na)] =   5.29706
    eigenvalues: 
  0.378  0.461  0.495  0.599  0.716
    eigenvectors:
  0.005  0.001  0.466  0.000  0.528
  0.000  0.996  0.004  0.000  0.000
  0.993  0.000  0.001  0.002  0.003
  0.000  0.002  0.529  0.000  0.468
  0.002  0.000  0.000  0.997  0.000
    occupations:
  0.611 -0.000  0.017 -0.110 -0.002
 -0.000  0.461 -0.000 -0.002 -0.002
  0.017 -0.000  0.380 -0.010  0.010
 -0.110 -0.002 -0.010  0.598  0.002
 -0.002 -0.002  0.010  0.002  0.599
atom   17   Tr[ns(na)] =   5.14714
    eigenvalues: 
  0.355  0.457  0.513  0.542  0.707
    eigenvectors:
  0.000  0.000  0.936  0.019  0.044
  0.000  0.000  0.020  0.979  0.000
  1.000  0.000  0.000  0.000  0.000
  0.000  0.000  0.043  0.001  0.956
  0.000  1.000  0.000  0.000  0.000
    occupations:
  0.522  0.004  0.001 -0.040 -0.000
  0.004  0.541  0.002  0.000 -0.000
  0.001  0.002  0.355 -0.001  0.001
 -0.040  0.000 -0.001  0.698  0.000
 -0.000 -0.000  0.001  0.000  0.457
atom   22   Tr[ns(na)] =   6.08420
    eigenvalues: 
  0.508  0.512  0.564  0.728  0.731
    eigenvectors:
  0.276  0.094  0.000  0.013  0.618
  0.261  0.739  0.000  0.000  0.000
  0.000  0.000  0.997  0.003  0.000
  0.463  0.168  0.000  0.008  0.362
  0.000  0.000  0.003  0.977  0.020
    occupations:
  0.649  0.002  0.000 -0.107  0.000
  0.002  0.511 -0.000  0.000 -0.000
  0.000 -0.000  0.564 -0.000  0.009
 -0.107  0.000 -0.000  0.591 -0.000
  0.000 -0.000  0.009 -0.000  0.727
atom   23   Tr[ns(na)] =   6.19079
    eigenvalues: 
  0.471  0.509  0.601  0.741  0.773
    eigenvectors:
  0.000  0.960  0.000  0.039  0.000
  0.000  0.001  0.000  0.000  0.999
  0.000  0.000  1.000  0.000  0.000
  0.000  0.039  0.000  0.961  0.000
  1.000  0.000  0.000  0.000  0.000
    occupations:
  0.518  0.006 -0.001 -0.045  0.000
  0.006  0.773  0.000  0.001  0.000
 -0.001  0.000  0.601  0.000 -0.001
 -0.045  0.001  0.000  0.732  0.000
  0.000  0.000 -0.001  0.000  0.471
N of occupied +U levels =  45.7448720
 --- exit write_ns ---

     negative rho (up, down):  0.287E+00 0.000E+00

     total cpu time spent up to now is      650.7 secs

     total energy              =   -2166.51174427 Ry
     Harris-Foulkes estimate   =   -2175.27917955 Ry
     estimated scf accuracy    <      10.86107951 Ry

     iteration #  2     ecut=    40.00 Ry     beta=0.70
     Davidson diagonalization with overlap
     ethr =  4.54E-03,  avg # of iterations =  5.1

     negative rho (up, down):  0.284E+00 0.000E+00

     total cpu time spent up to now is     1062.3 secs

     total energy              =   -2105.19379647 Ry
     Harris-Foulkes estimate   =   -2247.15577384 Ry
     estimated scf accuracy    <    1999.81460171 Ry

     iteration #  3     ecut=    40.00 Ry     beta=0.70
     Davidson diagonalization with overlap
     ethr =  4.54E-03,  avg # of iterations =  5.0

     negative rho (up, down):  0.241E+00 0.000E+00

     total cpu time spent up to now is     1507.2 secs

     total energy              =   -2164.62235322 Ry
     Harris-Foulkes estimate   =   -2181.87264353 Ry
     estimated scf accuracy    <     157.54151392 Ry

     iteration #  4     ecut=    40.00 Ry     beta=0.70
     Davidson diagonalization with overlap
     ethr =  4.54E-03,  avg # of iterations =  3.1

     negative rho (up, down):  0.235E+00 0.000E+00

     total cpu time spent up to now is     1801.2 secs

     total energy              =   -2173.04019649 Ry
     Harris-Foulkes estimate   =   -2174.95222877 Ry
     estimated scf accuracy    <      10.42291820 Ry

     iteration #  5     ecut=    40.00 Ry     beta=0.70
     Davidson diagonalization with overlap
     ethr =  4.36E-03,  avg # of iterations =  1.0

     negative rho (up, down):  0.236E+00 0.000E+00

     total cpu time spent up to now is     2076.3 secs

     total energy              =   -2173.91329762 Ry
     Harris-Foulkes estimate   =   -2174.12870263 Ry
     estimated scf accuracy    <       1.74895716 Ry

     iteration #  6     ecut=    40.00 Ry     beta=0.70
     Davidson diagonalization with overlap
     ethr =  7.32E-04,  avg # of iterations =  3.6

     negative rho (up, down):  0.236E+00 0.000E+00

     total cpu time spent up to now is     2370.6 secs

     total energy              =   -2173.93025652 Ry
     Harris-Foulkes estimate   =   -2174.06595333 Ry
     estimated scf accuracy    <       0.86212198 Ry

     iteration #  7     ecut=    40.00 Ry     beta=0.70
     Davidson diagonalization with overlap
     ethr =  3.61E-04,  avg # of iterations =  3.0

     negative rho (up, down):  0.238E+00 0.000E+00

     total cpu time spent up to now is     2660.7 secs

     total energy              =   -2173.94366809 Ry
     Harris-Foulkes estimate   =   -2174.02532680 Ry
     estimated scf accuracy    <       0.60233221 Ry

     iteration #  8     ecut=    40.00 Ry     beta=0.70
     Davidson diagonalization with overlap
     ethr =  2.52E-04,  avg # of iterations =  4.2

     negative rho (up, down):  0.239E+00 0.000E+00

     total cpu time spent up to now is     2964.3 secs

     total energy              =   -2173.91666610 Ry
     Harris-Foulkes estimate   =   -2174.05069194 Ry
     estimated scf accuracy    <       0.95558706 Ry

     iteration #  9     ecut=    40.00 Ry     beta=0.70
     Davidson diagonalization with overlap
     ethr =  2.52E-04,  avg # of iterations =  1.9

     negative rho (up, down):  0.240E+00 0.000E+00

     total cpu time spent up to now is     3248.5 secs

     total energy              =   -2173.96340945 Ry
     Harris-Foulkes estimate   =   -2174.02180636 Ry
     estimated scf accuracy    <       0.54425592 Ry

     iteration # 10     ecut=    40.00 Ry     beta=0.70
     Davidson diagonalization with overlap
     ethr =  2.28E-04,  avg # of iterations =  4.2

     negative rho (up, down):  0.240E+00 0.000E+00

     total cpu time spent up to now is     3538.7 secs

     total energy              =   -2173.97566353 Ry
     Harris-Foulkes estimate   =   -2173.99880518 Ry
     estimated scf accuracy    <       0.15697940 Ry

     iteration # 11     ecut=    40.00 Ry     beta=0.70
     Davidson diagonalization with overlap
     ethr =  6.57E-05,  avg # of iterations =  5.0

     negative rho (up, down):  0.240E+00 0.000E+00

     total cpu time spent up to now is     3842.8 secs

     total energy              =   -2173.98447409 Ry
     Harris-Foulkes estimate   =   -2173.99112879 Ry
     estimated scf accuracy    <       0.03017561 Ry

     iteration # 12     ecut=    40.00 Ry     beta=0.70
     Davidson diagonalization with overlap
     ethr =  1.26E-05,  avg # of iterations =  3.2

     negative rho (up, down):  0.240E+00 0.000E+00

     total cpu time spent up to now is     4129.3 secs

     total energy              =   -2173.98779436 Ry
     Harris-Foulkes estimate   =   -2173.98948618 Ry
     estimated scf accuracy    <       0.01992601 Ry

     iteration # 13     ecut=    40.00 Ry     beta=0.70
     Davidson diagonalization with overlap
     ethr =  8.34E-06,  avg # of iterations =  5.8

     negative rho (up, down):  0.240E+00 0.000E+00

     total cpu time spent up to now is     4437.6 secs

     total energy              =   -2173.98666216 Ry
     Harris-Foulkes estimate   =   -2173.99001527 Ry
     estimated scf accuracy    <       0.04121783 Ry

     iteration # 14     ecut=    40.00 Ry     beta=0.70
     Davidson diagonalization with overlap
     ethr =  8.34E-06,  avg # of iterations =  5.4

     negative rho (up, down):  0.241E+00 0.000E+00

     total cpu time spent up to now is     4745.6 secs

     total energy              =   -2173.98600038 Ry
     Harris-Foulkes estimate   =   -2173.99127227 Ry
     estimated scf accuracy    <       0.04198523 Ry

     iteration # 15     ecut=    40.00 Ry     beta=0.70
     Davidson diagonalization with overlap
     ethr =  8.34E-06,  avg # of iterations =  4.0

     negative rho (up, down):  0.240E+00 0.000E+00

     total cpu time spent up to now is     5035.4 secs

     total energy              =   -2173.98792199 Ry
     Harris-Foulkes estimate   =   -2173.99012915 Ry
     estimated scf accuracy    <       0.00971180 Ry

     iteration # 16     ecut=    40.00 Ry     beta=0.70
     Davidson diagonalization with overlap
     ethr =  4.06E-06,  avg # of iterations =  3.1

     negative rho (up, down):  0.241E+00 0.000E+00

     total cpu time spent up to now is     5328.5 secs

     total energy              =   -2173.98898123 Ry
     Harris-Foulkes estimate   =   -2173.98964944 Ry
     estimated scf accuracy    <       0.01389324 Ry

     iteration # 17     ecut=    40.00 Ry     beta=0.70
     Davidson diagonalization with overlap
     ethr =  4.06E-06,  avg # of iterations =  1.0

     negative rho (up, down):  0.241E+00 0.000E+00

     total cpu time spent up to now is     5611.4 secs

     total energy              =   -2173.98896156 Ry
     Harris-Foulkes estimate   =   -2173.98971450 Ry
     estimated scf accuracy    <       0.00574895 Ry

     iteration # 18     ecut=    40.00 Ry     beta=0.70
     Davidson diagonalization with overlap
     ethr =  2.41E-06,  avg # of iterations =  1.0

     negative rho (up, down):  0.241E+00 0.000E+00

     total cpu time spent up to now is     5894.4 secs

     total energy              =   -2173.98921808 Ry
     Harris-Foulkes estimate   =   -2173.98948133 Ry
     estimated scf accuracy    <       0.00181262 Ry

     iteration # 19     ecut=    40.00 Ry     beta=0.70
     Davidson diagonalization with overlap
     ethr =  7.58E-07,  avg # of iterations =  1.0

     negative rho (up, down):  0.241E+00 0.000E+00

     total cpu time spent up to now is     6181.7 secs

     total energy              =   -2173.98935612 Ry
     Harris-Foulkes estimate   =   -2173.98941944 Ry
     estimated scf accuracy    <       0.00067177 Ry

     iteration # 20     ecut=    40.00 Ry     beta=0.70
     Davidson diagonalization with overlap
     ethr =  2.81E-07,  avg # of iterations =  1.0

     negative rho (up, down):  0.241E+00 0.000E+00

     total cpu time spent up to now is     6460.2 secs

     total energy              =   -2173.98938902 Ry
     Harris-Foulkes estimate   =   -2173.98942029 Ry
     estimated scf accuracy    <       0.00020231 Ry

     iteration # 21     ecut=    40.00 Ry     beta=0.70
     Davidson diagonalization with overlap
     ethr =  8.46E-08,  avg # of iterations =  1.0

     negative rho (up, down):  0.241E+00 0.000E+00

     total cpu time spent up to now is     6740.9 secs

     total energy              =   -2173.98939886 Ry
     Harris-Foulkes estimate   =   -2173.98941421 Ry
     estimated scf accuracy    <       0.00010174 Ry

     iteration # 22     ecut=    40.00 Ry     beta=0.70
     Davidson diagonalization with overlap
     ethr =  4.26E-08,  avg # of iterations =  1.7

     negative rho (up, down):  0.240E+00 0.000E+00

     total cpu time spent up to now is     7021.6 secs

     total energy              =   -2173.98940220 Ry
     Harris-Foulkes estimate   =   -2173.98942887 Ry
     estimated scf accuracy    <       0.00011734 Ry

     iteration # 23     ecut=    40.00 Ry     beta=0.70
     Davidson diagonalization with overlap
     ethr =  4.26E-08,  avg # of iterations =  1.0

     negative rho (up, down):  0.240E+00 0.000E+00

     total cpu time spent up to now is     7297.0 secs

     total energy              =   -2173.98941462 Ry
     Harris-Foulkes estimate   =   -2173.98941759 Ry
     estimated scf accuracy    <       0.00002125 Ry

     iteration # 24     ecut=    40.00 Ry     beta=0.70
     Davidson diagonalization with overlap
     ethr =  8.89E-09,  avg # of iterations =  1.1

     negative rho (up, down):  0.240E+00 0.000E+00

     total cpu time spent up to now is     7569.7 secs

     total energy              =   -2173.98941211 Ry
     Harris-Foulkes estimate   =   -2173.98942236 Ry
     estimated scf accuracy    <       0.00006341 Ry

     iteration # 25     ecut=    40.00 Ry     beta=0.70
     Davidson diagonalization with overlap
     ethr =  8.89E-09,  avg # of iterations =  1.1

     negative rho (up, down):  0.240E+00 0.000E+00

     total cpu time spent up to now is     7842.5 secs

     total energy              =   -2173.98941569 Ry
     Harris-Foulkes estimate   =   -2173.98941825 Ry
     estimated scf accuracy    <       0.00001074 Ry

     iteration # 26     ecut=    40.00 Ry     beta=0.70
     Davidson diagonalization with overlap
     ethr =  4.49E-09,  avg # of iterations =  1.0

     negative rho (up, down):  0.240E+00 0.000E+00

     total cpu time spent up to now is     8119.3 secs

     total energy              =   -2173.98941141 Ry
     Harris-Foulkes estimate   =   -2173.98942227 Ry
     estimated scf accuracy    <       0.00016849 Ry

     iteration # 27     ecut=    40.00 Ry     beta=0.70
     Davidson diagonalization with overlap
     ethr =  4.49E-09,  avg # of iterations =  1.0

     negative rho (up, down):  0.240E+00 0.000E+00

     total cpu time spent up to now is     8399.3 secs

     total energy              =   -2173.98941730 Ry
     Harris-Foulkes estimate   =   -2173.98941874 Ry
     estimated scf accuracy    <       0.00001199 Ry

     iteration # 28     ecut=    40.00 Ry     beta=0.70
     Davidson diagonalization with overlap
     ethr =  4.49E-09,  avg # of iterations =  1.0

     negative rho (up, down):  0.240E+00 0.000E+00

     total cpu time spent up to now is     8674.7 secs

     total energy              =   -2173.98941799 Ry
     Harris-Foulkes estimate   =   -2173.98941807 Ry
     estimated scf accuracy    <       0.00000170 Ry

     iteration # 29     ecut=    40.00 Ry     beta=0.70
     Davidson diagonalization with overlap
     ethr =  7.09E-10,  avg # of iterations =  1.0

     negative rho (up, down):  0.240E+00 0.000E+00

     total cpu time spent up to now is     8953.4 secs

     total energy              =   -2173.98941798 Ry
     Harris-Foulkes estimate   =   -2173.98941811 Ry
     estimated scf accuracy    <       0.00000103 Ry

     iteration # 30     ecut=    40.00 Ry     beta=0.70
     Davidson diagonalization with overlap
     ethr =  4.31E-10,  avg # of iterations =  1.0

     negative rho (up, down):  0.240E+00 0.000E+00

     total cpu time spent up to now is     9228.1 secs

     total energy              =   -2173.98941798 Ry
     Harris-Foulkes estimate   =   -2173.98941814 Ry
     estimated scf accuracy    <       0.00000100 Ry

     iteration # 31     ecut=    40.00 Ry     beta=0.70
     Davidson diagonalization with overlap
     ethr =  4.20E-10,  avg # of iterations =  1.0

     negative rho (up, down):  0.240E+00 0.000E+00

     total cpu time spent up to now is     9505.2 secs

     End of self-consistent calculation
 --- enter write_ns ---
 LDA+U parameters:
U( 2)     =  4.00000000
alpha( 2) =  0.00000000
atom    3   Tr[ns(na)] =   6.58657
    eigenvalues: 
  0.538  0.569  0.584  0.772  0.831
    eigenvectors:
  0.001  0.338  0.000  0.661  0.000
  0.998  0.001  0.001  0.000  0.001
  0.001  0.016  0.975  0.008  0.000
  0.000  0.645  0.024  0.331  0.000
  0.001  0.000  0.000  0.000  0.999
    occupations:
  0.703 -0.004  0.015 -0.095  0.001
 -0.004  0.538  0.001  0.002 -0.008
  0.015  0.001  0.585 -0.008 -0.005
 -0.095  0.002 -0.008  0.636 -0.000
  0.001 -0.008 -0.005 -0.000  0.831
atom    4   Tr[ns(na)] =   6.56810
    eigenvalues: 
  0.569  0.603  0.610  0.721  0.781
    eigenvectors:
  0.000  0.986  0.001  0.001  0.012
  0.000  0.001  0.009  0.990  0.000
  0.000  0.001  0.990  0.009  0.000
  0.000  0.012  0.000  0.000  0.988
  0.999  0.000  0.000  0.000  0.000
    occupations:
  0.605  0.003  0.000 -0.019  0.001
  0.003  0.720  0.010 -0.000 -0.002
  0.000  0.010  0.611  0.001 -0.000
 -0.019 -0.000  0.001  0.779 -0.000
  0.001 -0.002 -0.000 -0.000  0.569
atom    9   Tr[ns(na)] =   6.57109
    eigenvalues: 
  0.594  0.600  0.607  0.726  0.758
    eigenvectors:
  0.246  0.000  0.000  0.004  0.750
  0.000  0.000  1.000  0.000  0.000
  0.000  0.997  0.000  0.003  0.000
  0.754  0.000  0.000  0.001  0.245
  0.000  0.003  0.000  0.992  0.005
    occupations:
  0.717  0.000 -0.001 -0.070  0.002
  0.000  0.607  0.000  0.000  0.000
 -0.001  0.000  0.600  0.001 -0.007
 -0.070  0.000  0.001  0.634 -0.002
  0.002  0.000 -0.007 -0.002  0.726
atom   10   Tr[ns(na)] =   6.52801
    eigenvalues: 
  0.477  0.536  0.639  0.761  0.851
    eigenvectors:
  0.999  0.000  0.000  0.001  0.000
  0.001  0.000  0.000  0.000  0.999
  0.000  0.000  1.000  0.000  0.000
  0.001  0.000  0.000  0.999  0.000
  0.000  1.000  0.000  0.000  0.000
    occupations:
  0.478 -0.008 -0.000 -0.008  0.000
 -0.008  0.851  0.001 -0.001  0.001
 -0.000  0.001  0.639 -0.000  0.000
 -0.008 -0.001 -0.000  0.761 -0.000
  0.000  0.001  0.000 -0.000  0.536
atom   16   Tr[ns(na)] =   6.58770
    eigenvalues: 
  0.537  0.568  0.587  0.772  0.830
    eigenvectors:
  0.001  0.339  0.000  0.660  0.000
  0.998  0.001  0.000  0.000  0.001
  0.000  0.012  0.979  0.007  0.001
  0.000  0.648  0.020  0.333  0.000
  0.001  0.000  0.001  0.000  0.999
    occupations:
  0.703  0.004  0.014 -0.095 -0.001
  0.004  0.537 -0.001 -0.002 -0.008
  0.014 -0.001  0.588 -0.007  0.006
 -0.095 -0.002 -0.007  0.636  0.001
 -0.001 -0.008  0.006  0.001  0.830
atom   17   Tr[ns(na)] =   6.55995
    eigenvalues: 
  0.571  0.601  0.606  0.716  0.786
    eigenvectors:
  0.000  0.004  0.984  0.001  0.011
  0.000  0.005  0.001  0.993  0.000
  0.000  0.990  0.004  0.006  0.000
  0.000  0.000  0.011  0.000  0.989
  0.999  0.000  0.000  0.000  0.000
    occupations:
  0.608  0.003  0.000 -0.019  0.001
  0.003  0.715  0.009 -0.000 -0.002
  0.000  0.009  0.602  0.001 -0.000
 -0.019 -0.000  0.001  0.784 -0.000
  0.001 -0.002 -0.000 -0.000  0.571
atom   22   Tr[ns(na)] =   6.56847
    eigenvalues: 
  0.594  0.597  0.606  0.725  0.761
    eigenvectors:
  0.248  0.000  0.000  0.008  0.744
  0.000  0.001  0.999  0.000  0.000
  0.000  0.997  0.001  0.002  0.000
  0.752  0.000  0.000  0.002  0.246
  0.000  0.001  0.000  0.988  0.010
    occupations:
  0.719  0.000 -0.001 -0.072  0.003
  0.000  0.606  0.000  0.000  0.000
 -0.001  0.000  0.598  0.000  0.005
 -0.072  0.000  0.000  0.635 -0.002
  0.003  0.000  0.005 -0.002  0.726
atom   23   Tr[ns(na)] =   6.55226
    eigenvalues: 
  0.521  0.553  0.594  0.792  0.815
    eigenvectors:
  0.000  0.000  0.996  0.003  0.001
  0.000  0.000  0.001  0.003  0.996
  0.999  0.001  0.000  0.000  0.000
  0.000  0.000  0.003  0.994  0.004
  0.001  0.999  0.000  0.000  0.000
    occupations:
  0.595  0.007 -0.001 -0.011  0.000
  0.007  0.815  0.000  0.002  0.002
 -0.001  0.000  0.521  0.001 -0.001
 -0.011  0.002  0.001  0.792 -0.000
  0.000  0.002 -0.001 -0.000  0.553
N of occupied +U levels =  52.5221406
 --- exit write_ns ---

          k = 0.0000 0.0000 0.0000 ( 29221 PWs)   bands (ev):

   -81.1038 -81.0023 -80.9252 -80.8678 -80.8462 -80.5329 -80.5148 -80.4776
   -43.2682 -43.1632 -43.0425 -43.0285 -42.9756 -42.9093 -42.9086 -42.8666
   -42.8506 -42.8080 -42.7960 -42.7495 -42.6963 -42.6456 -42.6079 -42.5283
   -42.5216 -42.5132 -42.4511 -42.3873 -42.3664 -42.2617 -41.9114 -41.7551
   -20.9668 -20.5323 -20.4826 -20.2923 -20.0501 -19.9481 -19.5959 -19.5807
   -19.5572 -19.5225 -19.4705 -19.2809 -19.2505 -19.1524 -19.1091 -19.0449
   -18.8556 -18.3420 -17.9897  -9.6956  -9.5284  -9.2505  -8.9843  -8.6662
    -8.5827  -8.4483  -8.0793  -8.0121  -7.9907  -7.9069  -7.8067  -7.7751
    -7.4656  -7.2566  -7.2317  -7.0227  -6.9296  -6.8171  -6.8084  -6.6587
    -6.5239  -6.2783  -6.0392  -5.6547  -5.6009  -5.5848  -5.4807  -5.3277
    -5.2325  -5.1728  -5.0654  -4.9859  -4.7833  -4.7255  -4.5889  -4.4787
    -4.4159  -4.3865  -4.2022  -4.1610  -4.0830  -3.9986  -3.8379  -3.8230
    -3.7096  -3.6556  -3.3686  -3.3036  -3.2798  -3.2552  -3.2198  -3.0724
    -3.0237  -2.9288  -2.9014  -2.8193  -2.6792  -2.5461  -2.3748  -1.3468
    -0.9756  -0.8305  -0.3986  -0.2281   0.0255   0.1803   0.2952   0.3968
     0.5494   0.5597   0.7133   0.9830   1.0164   1.3426   1.8121   1.9704
     2.7179   2.7792   2.9340   3.1916   3.2090   3.2544   3.5273   3.7368
     4.1203   4.2936   4.3634   4.5811   4.6884   4.7787   4.8079   5.0014
     5.0404   5.0633   5.1447   5.2353   5.3046   5.4577   5.5679   6.0243
     6.2064   6.4617   6.6089   6.9032   7.4234   7.6128   7.7340   7.7775
     7.8372   8.0069   8.0946   8.1534   8.3185   8.3430   8.5606   8.7698
     8.8612   8.9853   9.0368   9.1001   9.1641   9.3024   9.3505   9.4506
     9.4805   9.6737   9.7998   9.8213   9.9179   9.9626  10.0278  10.0730
    10.1957  10.2170  10.4253  10.5616  10.5892  10.6560  10.7740  10.9241
    11.0382  11.1698  11.2586  11.3442  11.4492  11.5229  11.5565  11.8397
    11.8850  11.9342  11.9812  12.0072  12.1306  12.2657  12.2965  12.4720
    12.6258  12.6957  12.8971  12.9491  12.9934  13.0385  13.0563  13.0904
    13.1110  13.1831  13.2374  13.3129  13.3349  13.3613  13.4497  13.5489
    13.6455  13.6613  13.6963  13.8756  13.9376  14.0196  14.0343  14.0697
    14.0947  14.1077  14.1395  14.2277  14.2942  14.3211  14.4123  14.5571
    14.6746  14.8093  14.8919  14.9456  15.0299  15.0640  15.0984  15.1474
    15.2759  15.4482  15.4909  15.5585  15.6410  15.7279  15.7713  15.9200
    15.9589  16.0349  16.0732  16.1423  16.2621  16.3253  16.5135  16.5584
    16.6224  16.6891  16.7788  16.8613  16.9897  17.0105  17.0977  17.1611
    17.2251  17.2520  17.3023  17.4388  17.4974  17.5265  17.5948  17.6570
    17.7415  17.8919  17.9533  18.1133  18.1329  18.3324  18.3457  18.4158
    18.5998  18.7046  18.7397  18.7970  18.8572  18.9295  18.9713  19.0358
    19.1994  19.2835  19.3833  19.4385  19.5457  19.6299  19.6554  19.7523
    19.8354  19.8582  20.0382  20.0829  20.1179  20.1642  20.2231  20.2518
    20.4305  20.4391  20.5329  20.6012  20.6498  20.7543  20.8085  20.9807
    21.0094  21.0616  21.2110  21.3613  21.3947  21.4908  21.5125  21.6259
    21.6508  21.7296  21.8062  21.8410  21.8977  21.9858  22.0990  22.1218
    22.1771  22.2319  22.2383  22.2943  22.3232  22.3454  22.3791  22.4217
    22.5106  22.5239  22.5462  22.6412  22.7345  22.8040  22.8454  22.8816
    22.9607  23.0020  23.0179  23.0384  23.1541  23.1731

          k = 0.0000 0.1914 0.0000 ( 29141 PWs)   bands (ev):

   -81.1038 -81.0025 -80.9249 -80.8678 -80.8462 -80.5325 -80.5148 -80.4776
   -43.2683 -43.1631 -43.0425 -43.0275 -42.9660 -42.9188 -42.9086 -42.8661
   -42.8552 -42.8032 -42.7960 -42.7494 -42.6961 -42.6455 -42.6076 -42.5283
   -42.5220 -42.5132 -42.4533 -42.3873 -42.3658 -42.2616 -41.9114 -41.7551
   -20.9148 -20.4399 -20.3849 -20.2675 -20.0473 -19.9229 -19.8642 -19.7820
   -19.6069 -19.5706 -19.5215 -19.3409 -19.2977 -19.0429 -18.9440 -18.9007
   -18.8480 -18.3400 -17.9890  -9.3935  -9.1833  -9.0590  -9.0143  -8.9386
    -8.6462  -8.6363  -8.4466  -8.2391  -8.1950  -8.1538  -7.8790  -7.8223
    -7.5262  -7.2890  -7.2705  -6.8845  -6.6685  -6.6025  -6.4154  -6.2892
    -6.2122  -6.1052  -5.9950  -5.7975  -5.7256  -5.6492  -5.5568  -5.4885
    -5.3632  -5.3230  -5.2365  -5.1671  -4.8155  -4.7495  -4.6446  -4.4787
    -4.4235  -4.3523  -4.2644  -4.0576  -3.9476  -3.8727  -3.7001  -3.6319
    -3.5345  -3.5142  -3.4781  -3.3634  -3.2964  -3.2400  -3.1927  -3.0755
    -2.9766  -2.9409  -2.8955  -2.8300  -2.7030  -2.5671  -2.4448  -1.4291
    -1.3528  -1.3091  -1.0401  -0.2421   0.1160   0.5110   0.6469   0.7103
     0.7767   0.8841   0.9095   1.0122   1.0247   1.3929   1.5600   1.8939
     2.5022   2.9505   3.1385   3.1470   3.2435   3.4453   3.6476   3.8405
     3.8536   4.1158   4.2876   4.3513   4.3602   4.3829   4.5067   4.5607
     4.9138   5.1018   5.1488   5.3671   5.5306   5.7876   6.1375   6.4807
     6.5115   6.5878   6.6893   6.7758   6.8043   7.0233   7.1774   7.5285
     7.7772   7.9300   8.0205   8.1825   8.2482   8.4343   8.6593   8.9042
     8.9389   9.1088   9.2560   9.3135   9.4619   9.5157   9.6576   9.7126
     9.7717   9.8709  10.0006  10.0278  10.0698  10.1550  10.2248  10.2981
    10.4006  10.4614  10.5753  10.6759  10.7786  10.8078  10.9299  11.0246
    11.1370  11.2206  11.2645  11.3634  11.4274  11.5377  11.6219  11.6542
    11.6948  11.8465  11.8664  11.9312  12.0615  12.1159  12.2173  12.2672
    12.3180  12.3608  12.4162  12.5499  12.6087  12.6284  12.7380  12.8366
    12.9472  13.0173  13.1329  13.2217  13.3035  13.4201  13.4853  13.5579
    13.6372  13.7043  13.8585  13.8850  13.9126  14.0021  14.0418  14.0850
    14.1559  14.2447  14.3306  14.4194  14.4508  14.5626  14.6002  14.6753
    14.7289  14.7983  14.8525  14.8823  14.9497  15.0058  15.1011  15.1387
    15.2817  15.3129  15.3721  15.4242  15.5867  15.6420  15.6779  15.7456
    15.7941  15.8292  15.8727  15.9390  15.9524  16.1763  16.3119  16.3725
    16.5154  16.6178  16.6690  16.8061  16.8671  16.9522  17.0711  17.1551
    17.2140  17.3203  17.3480  17.3950  17.4430  17.6585  17.7385  17.8428
    17.9472  18.0644  18.1188  18.2922  18.3390  18.4400  18.5755  18.6555
    18.6775  18.7882  18.8433  18.9735  19.0437  19.0713  19.0830  19.1488
    19.1749  19.3080  19.4043  19.4879  19.5136  19.5454  19.5765  19.5981
    19.6807  19.7051  19.8097  19.9078  19.9749  20.0237  20.0862  20.1777
    20.2787  20.3191  20.3592  20.4459  20.4636  20.4906  20.5209  20.6917
    20.8018  20.8182  20.9227  20.9619  21.0251  21.0642  21.1573  21.2031
    21.4484  21.4924  21.5413  21.6066  21.6685  21.6868  21.7665  21.8029
    21.8973  21.9526  22.0196  22.1858  22.2328  22.2848  22.3247  22.4173
    22.5049  22.5493  22.6259  22.6599  22.7121  22.7907  22.8247  22.8869
    22.9693  22.9915  23.0446  23.0904  23.3071  23.3435

          k = 0.0000-0.3828 0.0000 ( 29262 PWs)   bands (ev):

   -81.1037 -81.0027 -80.9246 -80.8678 -80.8462 -80.5322 -80.5148 -80.4777
   -43.2684 -43.1630 -43.0425 -43.0265 -42.9458 -42.9392 -42.9087 -42.8657
   -42.8591 -42.7993 -42.7960 -42.7492 -42.6960 -42.6456 -42.6073 -42.5283
   -42.5224 -42.5133 -42.4556 -42.3874 -42.3653 -42.2616 -41.9115 -41.7551
   -20.8687 -20.3521 -20.3091 -20.1243 -20.0159 -19.9420 -19.9247 -19.8871
   -19.7278 -19.6532 -19.5831 -19.5016 -19.4748 -19.0427 -18.8659 -18.7228
   -18.6989 -18.3386 -17.9885  -9.3285  -9.2184  -8.9659  -8.9189  -8.7137
    -8.6154  -8.6030  -8.5852  -8.4524  -8.3238  -8.2370  -7.8552  -7.7449
    -7.4283  -7.2572  -7.1478  -7.0768  -7.0383  -6.8447  -6.6806  -6.5397
    -6.1557  -5.8980  -5.8126  -5.6568  -5.6338  -5.5114  -5.3569  -5.2870
    -5.2568  -5.1982  -5.1914  -5.0632  -4.9773  -4.8502  -4.8260  -4.5709
    -4.4259  -4.4135  -4.0668  -4.0233  -3.9143  -3.8117  -3.7869  -3.7347
    -3.6305  -3.5394  -3.5082  -3.4061  -3.3044  -3.1660  -2.9892  -2.9598
    -2.8773  -2.8322  -2.8236  -2.7582  -2.7251  -2.6806  -2.4966  -1.7487
    -1.6762  -1.6355  -1.3355  -0.3230   0.4695   0.5598   0.7999   0.8398
     0.8723   1.0157   1.1326   1.2638   1.2745   1.3198   1.6319   1.7095
     2.3160   2.8619   2.9650   3.0754   3.2479   3.2872   3.3999   3.7162
     3.9644   4.0481   4.1475   4.3004   4.3699   4.4262   4.7957   4.9328
     4.9731   5.1500   5.2224   5.3952   5.5636   5.6882   5.9339   6.0925
     6.3263   6.5517   6.7322   6.7519   7.0407   7.1935   7.2172   7.3162
     7.3665   7.6164   7.8158   8.1355   8.3447   8.6479   8.6655   8.8055
     8.8375   9.0881   9.2357   9.4572   9.5211   9.7564   9.9170   9.9922
    10.0425  10.0762  10.3736  10.3864  10.4351  10.5100  10.6010  10.6348
    10.7251  10.7460  10.7981  10.9304  10.9952  11.0330  11.1148  11.1952
    11.2759  11.3407  11.4535  11.4826  11.5328  11.5581  11.5922  11.6253
    11.6659  11.7082  11.7558  11.7722  11.8625  11.9557  12.0463  12.0599
    12.1098  12.2060  12.3106  12.3447  12.3594  12.3716  12.4579  12.5585
    12.6106  12.7355  12.9282  12.9608  12.9809  13.0375  13.1778  13.4161
    13.5219  13.5466  13.5935  13.6416  13.6898  13.7557  13.8035  13.8905
    13.9436  14.1031  14.1549  14.2439  14.2837  14.3408  14.3949  14.4270
    14.5276  14.7227  14.7473  14.8951  14.9547  15.0881  15.1349  15.3721
    15.4289  15.5482  15.6011  15.6744  15.8004  15.8947  15.9627  16.1436
    16.1693  16.2938  16.4620  16.4685  16.5425  16.5985  16.7145  16.7727
    16.8011  16.8834  16.9295  16.9989  17.0349  17.0656  17.0806  17.1435
    17.3094  17.3373  17.3948  17.4847  17.5240  17.5627  17.5780  17.5945
    17.6654  17.7607  17.7858  17.9173  17.9205  18.0192  18.0850  18.2175
    18.2754  18.3512  18.3932  18.5355  18.5750  18.6770  18.6996  18.7297
    18.7754  18.8696  18.9947  19.1001  19.1468  19.1754  19.2166  19.2987
    19.4813  19.6790  19.7870  19.8383  19.8636  19.9009  19.9513  20.0240
    20.0452  20.2109  20.2749  20.2853  20.4467  20.5698  20.6145  20.7696
    20.8619  20.9020  20.9398  20.9968  21.0511  21.2322  21.2891  21.3207
    21.3852  21.4574  21.4858  21.5529  21.6724  21.8002  22.0125  22.0856
    22.1272  22.2482  22.3120  22.3790  22.3991  22.4154  22.6147  22.6725
    22.7021  22.7374  22.7592  22.8823  23.0040  23.0694  23.1199  23.1925
    23.2385  23.3244  23.3289  23.3733  23.4672  23.5383

          k = 0.2500 0.0000 0.0000 ( 29190 PWs)   bands (ev):

   -81.0932 -80.9998 -80.9111 -80.8707 -80.8403 -80.5186 -80.5097 -80.4797
   -43.1567 -43.0479 -43.0348 -43.0118 -42.9655 -42.9179 -42.9050 -42.8857
   -42.8636 -42.7759 -42.7594 -42.6891 -42.6685 -42.6613 -42.5539 -42.5326
   -42.5272 -42.5177 -42.5069 -42.4408 -42.4095 -42.3809 -42.0478 -41.9002
   -20.8063 -20.3911 -20.3500 -20.2457 -20.1035 -19.8669 -19.6732 -19.5629
   -19.5189 -19.4410 -19.4324 -19.4159 -19.3874 -19.2094 -19.1583 -19.0820
   -18.9476 -18.3884 -18.1105  -9.2444  -9.1334  -8.9263  -8.6522  -8.5775
    -8.2167  -8.2107  -8.0111  -7.8736  -7.7965  -7.7392  -7.6802  -7.5581
    -7.4654  -7.4038  -7.2266  -7.0722  -6.7940  -6.6997  -6.5952  -6.5315
    -6.4767  -6.4050  -6.2553  -6.1725  -5.9227  -5.8344  -5.7100  -5.4210
    -5.3460  -5.1897  -4.9990  -4.8857  -4.8624  -4.7160  -4.6024  -4.5384
    -4.4954  -4.4778  -4.4555  -4.2740  -4.2226  -4.0832  -3.8887  -3.8403
    -3.7212  -3.6499  -3.5637  -3.4316  -3.3787  -3.3312  -3.1629  -3.1148
    -2.9438  -2.7908  -2.7597  -2.6734  -2.5688  -2.4670  -2.0946  -1.0638
    -0.9655  -0.7904  -0.4361  -0.4055  -0.2492  -0.0881   0.1629   0.2240
     0.4778   0.5391   0.6959   1.1133   1.2011   1.2115   1.4421   1.5086
     1.6357   1.7203   1.8590   2.1585   2.5815   3.5237   3.7896   4.0893
     4.2037   4.3585   4.4820   4.5808   4.7078   4.8657   4.8854   4.9579
     5.0527   5.0611   5.1745   5.3099   5.3782   5.7126   5.8112   6.2664
     6.3703   6.5324   6.7511   6.9737   7.1112   7.5242   7.6408   7.7220
     7.9700   8.0379   8.0769   8.1821   8.2809   8.3344   8.4442   8.5035
     8.6485   8.7223   8.8693   8.9522   9.1119   9.1849   9.3452   9.4176
     9.5092   9.5774   9.6939   9.7840   9.8762   9.9520  10.0123  10.0641
    10.1314  10.1833  10.4350  10.4489  10.5535  10.6507  10.7883  10.8303
    10.9427  11.0152  11.0630  11.1636  11.2484  11.3066  11.3694  11.5412
    11.5751  11.7386  11.8538  11.9170  12.0910  12.2557  12.3602  12.4208
    12.5000  12.6237  12.6650  12.7586  12.8693  12.9897  13.1163  13.2339
    13.2804  13.3385  13.4074  13.4846  13.5535  13.6655  13.7295  13.7836
    13.8899  13.9527  14.0704  14.1925  14.2612  14.3939  14.4739  14.5365
    14.5673  14.6058  14.6563  14.8065  14.8953  14.9572  15.0515  15.1279
    15.1971  15.2887  15.3333  15.4275  15.5519  15.6741  15.7270  15.8207
    15.8367  15.9029  15.9381  16.0839  16.0992  16.1564  16.2904  16.3330
    16.4039  16.4697  16.5666  16.6293  16.6906  16.7416  16.8259  16.8813
    16.9248  17.0433  17.1608  17.2256  17.3168  17.3472  17.3968  17.4309
    17.5213  17.5621  17.6312  17.6521  17.7303  17.7875  17.8471  18.0058
    18.0671  18.1111  18.1629  18.2409  18.2822  18.3699  18.3872  18.5490
    18.6047  18.6409  18.7508  18.8475  18.8943  18.9918  19.0935  19.1860
    19.2387  19.3066  19.3476  19.4121  19.4729  19.5279  19.5527  19.6455
    19.6985  19.8864  19.9130  19.9546  19.9934  20.0867  20.1356  20.1781
    20.2084  20.2862  20.3630  20.4430  20.4760  20.4959  20.5261  20.5636
    20.6172  20.7664  20.8424  20.8606  20.8821  20.9570  20.9682  21.0163
    21.0450  21.1607  21.2383  21.3139  21.3800  21.4790  21.5922  21.7373
    21.7686  21.8604  21.9202  21.9964  22.0547  22.1079  22.1744  22.2288
    22.3151  22.3318  22.3882  22.4370  22.4761  22.5077  22.5868  22.6933
    22.7187  22.7928  22.8953  22.9165  22.9920  23.0606

          k = 0.2500 0.1914 0.0000 ( 29229 PWs)   bands (ev):

   -81.0933 -80.9999 -80.9108 -80.8707 -80.8403 -80.5184 -80.5097 -80.4797
   -43.1568 -43.0479 -43.0348 -43.0107 -42.9566 -42.9179 -42.9126 -42.8849
   -42.8654 -42.7758 -42.7594 -42.6880 -42.6685 -42.6613 -42.5539 -42.5327
   -42.5279 -42.5177 -42.5067 -42.4427 -42.4094 -42.3808 -42.0478 -41.9002
   -20.7658 -20.3298 -20.2952 -20.1798 -20.0895 -19.8620 -19.8142 -19.7781
   -19.5964 -19.5655 -19.4569 -19.3674 -19.3090 -19.1201 -19.0770 -19.0561
   -18.9384 -18.3873 -18.1109  -9.0116  -8.8205  -8.7401  -8.7063  -8.6002
    -8.4040  -8.3558  -8.2115  -8.1285  -7.9688  -7.9405  -7.8321  -7.6300
    -7.4400  -7.3176  -7.0958  -6.9018  -6.8126  -6.6975  -6.6043  -6.5535
    -6.4485  -6.1277  -6.0575  -5.9000  -5.7735  -5.6860  -5.5418  -5.4799
    -5.3906  -5.2821  -5.0259  -5.0044  -4.8716  -4.8531  -4.7768  -4.7361
    -4.6636  -4.6246  -4.5813  -4.4238  -4.1554  -3.9874  -3.9635  -3.8353
    -3.7309  -3.6544  -3.5581  -3.4687  -3.3974  -3.3073  -3.2279  -3.0486
    -2.8825  -2.7602  -2.6895  -2.5554  -2.3206  -2.1577  -2.0619  -1.3598
    -1.1253  -1.0668  -0.9900  -0.2060  -0.1538   0.2030   0.2932   0.4736
     0.5843   0.7403   0.7915   1.0882   1.2927   1.3776   1.4527   1.5579
     1.6692   1.7612   1.7898   2.1428   2.4352   3.7004   3.7553   3.8473
     3.8901   4.0549   4.1300   4.3675   4.5718   4.5835   4.7894   4.9143
     4.9615   5.2226   5.3383   5.6260   5.8606   5.9300   6.1122   6.3009
     6.4672   6.5453   6.7209   6.8662   7.0059   7.0727   7.2971   7.5057
     7.7491   7.7733   7.8786   8.1176   8.2024   8.3888   8.4833   8.6034
     8.6638   8.6894   8.9064   9.0797   9.1259   9.3762   9.4063   9.5352
     9.6271   9.7068   9.8262   9.8493   9.9395  10.0042  10.0836  10.1991
    10.2775  10.3512  10.3970  10.4656  10.5176  10.7099  10.7744  10.8650
    10.9773  11.0562  11.1994  11.3851  11.4648  11.5078  11.6643  11.7353
    11.8294  11.9204  12.0654  12.2185  12.2888  12.5150  12.5702  12.6542
    12.6960  12.7305  12.7933  12.9167  12.9255  13.0372  13.0988  13.2213
    13.2831  13.4281  13.4688  13.6227  13.6758  13.7554  13.8357  13.8878
    13.9322  13.9785  14.0400  14.0981  14.1827  14.2564  14.3419  14.3725
    14.4734  14.5633  14.5925  14.6480  14.7000  14.7778  14.8544  14.8955
    14.9248  14.9760  15.0153  15.1073  15.1421  15.2042  15.3150  15.4310
    15.4966  15.5645  15.6430  15.7819  15.8410  15.9370  16.0753  16.1220
    16.1776  16.3017  16.3478  16.4221  16.5345  16.5879  16.6115  16.6939
    16.7958  16.8704  16.9737  17.0030  17.1201  17.1935  17.2394  17.3203
    17.3920  17.4642  17.5542  17.6574  17.7174  17.7909  17.8888  17.9228
    18.0201  18.0424  18.0945  18.2338  18.2821  18.3052  18.3695  18.4551
    18.5356  18.6042  18.6336  18.6912  18.7939  18.8670  18.9355  19.0313
    19.1083  19.2068  19.3302  19.3798  19.4962  19.5795  19.6265  19.6980
    19.7660  19.8177  19.9688  20.0822  20.1091  20.2083  20.2619  20.3551
    20.4489  20.5387  20.5667  20.6092  20.7048  20.7433  20.8069  20.8298
    20.8838  20.9507  21.0173  21.0912  21.1630  21.2043  21.2686  21.3305
    21.3823  21.4590  21.4938  21.5724  21.6349  21.6804  21.7887  21.8514
    21.9485  21.9771  22.0742  22.1322  22.1797  22.2734  22.2989  22.3554
    22.4028  22.4482  22.4818  22.5469  22.6018  22.6626  22.7050  22.7689
    22.8208  22.8353  22.8871  22.9007  22.9853  23.0661

          k = 0.2500-0.3828 0.0000 ( 29202 PWs)   bands (ev):

   -81.0933 -81.0001 -80.9106 -80.8707 -80.8403 -80.5181 -80.5097 -80.4797
   -43.1569 -43.0479 -43.0348 -43.0095 -42.9402 -42.9279 -42.9179 -42.8841
   -42.8671 -42.7757 -42.7593 -42.6870 -42.6685 -42.6613 -42.5539 -42.5331
   -42.5287 -42.5177 -42.5065 -42.4443 -42.4094 -42.3808 -42.0477 -41.9002
   -20.7300 -20.3109 -20.1882 -20.1579 -19.9584 -19.9053 -19.8205 -19.8044
   -19.7065 -19.6482 -19.5990 -19.5118 -19.3979 -19.0837 -18.9979 -18.8968
   -18.8890 -18.3866 -18.1117  -8.9759  -8.8014  -8.6050  -8.5953  -8.5503
    -8.3895  -8.3481  -8.2293  -8.1310  -8.0200  -7.8545  -7.7445  -7.6575
    -7.5942  -7.5802  -7.3981  -7.0970  -6.9970  -6.8112  -6.6718  -6.4589
    -6.0205  -5.9153  -5.7878  -5.7487  -5.6232  -5.5626  -5.5391  -5.4049
    -5.3489  -5.2225  -5.1642  -5.0841  -4.9922  -4.9495  -4.9220  -4.9010
    -4.7904  -4.6865  -4.6422  -4.4870  -4.1509  -4.0056  -3.9089  -3.8192
    -3.7688  -3.6429  -3.5880  -3.5091  -3.3732  -3.3209  -3.1435  -2.9351
    -2.8506  -2.7343  -2.6004  -2.5957  -2.2679  -2.0427  -1.9597  -1.5446
    -1.4761  -1.4114  -1.0767  -0.2555   0.0129   0.3135   0.6384   0.7445
     0.8159   0.8982   1.0605   1.1256   1.2398   1.2740   1.6403   1.7061
     1.7449   1.8439   1.8867   2.0566   2.4112   2.9443   3.0153   3.5097
     3.6506   3.9214   4.0510   4.3740   4.6432   4.6707   4.9496   5.1591
     5.3118   5.3918   5.4530   5.5853   5.8985   6.0219   6.2572   6.2921
     6.3742   6.5212   6.7051   6.8368   6.9086   7.0132   7.1401   7.2612
     7.5293   7.8047   7.8141   7.9403   8.0176   8.3816   8.4252   8.5596
     8.6492   8.7182   8.8920   9.0558   9.0944   9.1379   9.2144   9.3033
     9.5000   9.6991   9.8538   9.8618  10.0847  10.2860  10.4229  10.4571
    10.5142  10.6165  10.6715  10.7093  10.7831  10.8313  10.9740  11.1731
    11.3003  11.3764  11.4431  11.5273  11.7890  11.8857  11.9503  12.0294
    12.1049  12.1420  12.2324  12.2578  12.3085  12.3755  12.4175  12.5560
    12.6257  12.7258  12.7653  12.8014  12.9964  13.1070  13.2132  13.2272
    13.3081  13.4505  13.5543  13.6671  13.6839  13.7098  13.7753  13.9131
    13.9261  14.0054  14.0359  14.0878  14.1424  14.2112  14.2946  14.3448
    14.4290  14.4503  14.4983  14.5400  14.6249  14.6642  14.6688  14.7059
    14.7497  14.7738  14.8221  14.8407  14.9627  15.1391  15.2597  15.3301
    15.3985  15.4371  15.4569  15.5068  15.5861  15.6801  15.7483  15.8586
    15.8944  15.9784  16.0563  16.1431  16.2525  16.2984  16.3798  16.4974
    16.5534  16.6225  16.6996  16.7758  16.8825  16.9148  16.9808  17.0234
    17.2084  17.3709  17.4429  17.4713  17.5177  17.6532  17.6888  17.7780
    17.8328  17.8851  18.0490  18.0902  18.1779  18.2194  18.3360  18.4252
    18.4917  18.5869  18.8359  18.8781  18.9179  18.9862  19.1434  19.3002
    19.3981  19.4166  19.5946  19.6490  19.6794  19.7625  19.7948  19.8420
    19.9330  19.9772  20.0814  20.1404  20.1570  20.2022  20.2337  20.2771
    20.3207  20.3892  20.5008  20.5474  20.6111  20.8225  20.9094  21.0149
    21.0538  21.0754  21.1313  21.2123  21.2479  21.2788  21.3384  21.3557
    21.4750  21.5088  21.5643  21.6216  21.6948  21.7271  21.7793  21.8483
    21.8905  21.9470  22.0083  22.0876  22.1323  22.1813  22.2052  22.3245
    22.3520  22.3962  22.5113  22.5542  22.6283  22.6572  22.7057  22.7515
    22.7954  22.8753  22.9210  22.9510  23.0865  23.1507

          k =-0.5000 0.0000 0.0000 ( 29180 PWs)   bands (ev):

   -81.0824 -80.9975 -80.8860 -80.8846 -80.8344 -80.5046 -80.4949 -80.4914
   -43.0288 -42.9892 -42.9520 -42.9296 -42.9189 -42.9001 -42.8910 -42.8808
   -42.8226 -42.7579 -42.7536 -42.7503 -42.7180 -42.7057 -42.6151 -42.5973
   -42.5404 -42.5319 -42.4704 -42.4159 -42.4100 -42.2800 -42.2283 -42.2197
   -20.4651 -20.4075 -20.2974 -20.0687 -19.9456 -19.9162 -19.8520 -19.6795
   -19.5906 -19.5244 -19.3574 -19.3524 -19.3080 -19.2588 -19.1908 -19.1406
   -19.1115 -18.4594 -18.2305  -8.4955  -8.3709  -8.3174  -8.3089  -8.2842
    -8.2737  -8.1367  -8.0789  -8.0547  -8.0509  -7.6249  -7.4848  -7.4059
    -7.3855  -7.2905  -7.0847  -7.0519  -6.8268  -6.7595  -6.5907  -6.2667
    -6.2437  -6.1284  -6.0763  -5.9917  -5.9669  -5.9104  -5.7170  -5.6779
    -5.4428  -5.3640  -5.3480  -5.2728  -5.1581  -5.0734  -4.9859  -4.9371
    -4.7711  -4.7208  -4.6836  -4.5750  -4.4686  -4.3344  -3.9489  -3.9239
    -3.5474  -3.5305  -3.4714  -3.4502  -3.3189  -3.1762  -3.1389  -3.0210
    -2.9040  -2.8412  -2.8148  -2.4831  -1.2757  -1.2536  -1.1107  -1.0979
    -0.8889  -0.8603  -0.7428  -0.7243  -0.6965  -0.6583  -0.4014  -0.3549
    -0.0779   0.1210   0.2417   0.4703   0.5061   0.5807   0.8119   1.0056
     1.4999   1.5304   2.1124   2.1257   2.1385   3.7226   4.0423   4.0632
     4.3496   4.5716   4.6057   4.7173   4.7248   4.7700   4.8816   4.9568
     4.9866   5.1504   5.3058   5.5612   5.7997   6.0317   6.1170   6.1312
     6.3535   6.5456   6.7003   6.8370   6.8980   7.0270   7.3465   7.4862
     7.6685   7.8319   8.0068   8.0984   8.4888   8.5553   8.5707   8.6432
     8.7265   9.0463   9.1125   9.1676   9.2129   9.2650   9.2701   9.3015
     9.3283   9.4609   9.6048   9.6835   9.7688   9.8068   9.8350   9.9193
     9.9766  10.0244  10.2715  10.3508  10.3916  10.4945  10.5752  10.6151
    10.6810  10.7178  10.8096  10.8779  10.9468  11.0352  11.3655  11.4870
    11.5497  11.7374  11.8854  11.9253  11.9687  12.1110  12.1569  12.2371
    12.3217  12.4155  12.7254  12.8083  13.0584  13.2521  13.3160  13.3855
    13.4629  13.4987  13.6345  13.6797  13.7872  13.8506  13.8968  14.1908
    14.4518  14.4757  14.5503  14.5582  14.6715  14.8217  14.9774  14.9922
    15.1161  15.1947  15.2193  15.3126  15.4046  15.5305  15.5448  15.5743
    15.6052  15.7387  15.7763  15.8502  15.9266  15.9775  16.1020  16.3007
    16.3639  16.4277  16.4730  16.4846  16.5525  16.5667  16.6383  16.6404
    16.7231  16.7601  16.9254  16.9880  17.0196  17.0733  17.0933  17.1089
    17.3556  17.4019  17.4456  17.4648  17.5294  17.5680  17.7593  17.8316
    17.9127  17.9887  18.0693  18.1083  18.1440  18.2671  18.2785  18.2900
    18.3955  18.4325  18.4644  18.6061  18.6561  18.6602  18.6799  18.7044
    18.8838  18.9525  18.9807  19.0034  19.0994  19.1762  19.2464  19.2704
    19.3212  19.3759  19.4256  19.4341  19.4527  19.4989  19.5497  19.5785
    19.6382  19.6439  19.7156  19.7450  19.7503  19.7781  19.8027  19.9207
    19.9981  20.0500  20.0663  20.1091  20.1588  20.1763  20.2573  20.3096
    20.3212  20.3915  20.4063  20.7049  20.7283  20.7689  20.8473  20.9041
    20.9129  20.9381  20.9931  21.0185  21.0545  21.0566  21.1245  21.1409
    21.2743  21.3017  21.3561  21.4572  21.4845  21.5364  21.5832  21.6931
    21.7303  21.7670  21.8124  22.0255  22.0695  22.1524  22.2606  22.3570
    22.3824  22.3965  22.4485  22.4690  22.5295  22.6732

          k =-0.5000 0.1914 0.0000 ( 29244 PWs)   bands (ev):

   -81.0826 -80.9976 -80.8859 -80.8845 -80.8345 -80.5046 -80.4947 -80.4913
   -43.0288 -42.9882 -42.9450 -42.9296 -42.9178 -42.8993 -42.8911 -42.8885
   -42.8227 -42.7578 -42.7533 -42.7504 -42.7180 -42.7057 -42.6151 -42.5973
   -42.5405 -42.5328 -42.4702 -42.4170 -42.4110 -42.2798 -42.2282 -42.2196
   -20.4501 -20.3996 -20.2942 -20.0172 -19.9257 -19.8671 -19.8377 -19.7329
   -19.6445 -19.5708 -19.3538 -19.3507 -19.3185 -19.2784 -19.1843 -19.1388
   -19.1146 -18.4598 -18.2307  -8.4941  -8.3999  -8.3108  -8.2912  -8.2655
    -8.2456  -8.1475  -8.1065  -8.0871  -8.0653  -7.4819  -7.4390  -7.2967
    -7.2131  -7.1854  -7.0630  -7.0023  -6.8112  -6.6254  -6.5115  -6.3814
    -6.3516  -6.3359  -6.3102  -6.1186  -6.0148  -5.8660  -5.7098  -5.6478
    -5.5995  -5.5383  -5.3691  -5.2705  -5.2126  -5.0974  -4.9473  -4.9031
    -4.8266  -4.7738  -4.7329  -4.6430  -4.4140  -4.2576  -3.9809  -3.9523
    -3.5742  -3.5252  -3.5133  -3.4094  -3.3752  -3.2008  -3.1555  -3.0741
    -2.8342  -2.7373  -2.6953  -2.4730  -1.3269  -1.2686  -1.1619  -1.0431
    -0.8810  -0.8518  -0.7126  -0.7008  -0.5118  -0.3788  -0.3208  -0.2328
     0.0504   0.1720   0.3532   0.3710   0.5672   0.7721   1.0050   1.1460
     1.4115   1.4321   1.8903   1.9831   2.2574   3.6809   3.7427   3.8227
     3.8501   3.8595   4.1793   4.4056   4.5022   4.8659   5.2333   5.3778
     5.4315   5.4575   5.5430   5.7235   5.8139   6.0810   6.2894   6.3077
     6.4860   6.5786   6.7410   6.8371   6.9844   7.0404   7.1875   7.3219
     7.5746   7.6996   7.8205   7.8978   8.0086   8.0801   8.1508   8.2547
     8.4012   8.5566   8.6347   8.8050   8.9657   9.1474   9.2453   9.4177
     9.4853   9.5312   9.5718   9.6804   9.8429   9.9939  10.1127  10.2106
    10.5285  10.5957  10.6778  10.7026  10.7700  10.7950  10.8328  10.9006
    10.9347  11.0162  11.0660  11.2101  11.3313  11.4080  11.5778  11.6479
    11.7867  11.8744  11.9725  12.1029  12.1809  12.2893  12.3879  12.4454
    12.5345  12.7447  12.8104  12.8667  12.9720  13.1282  13.2127  13.4552
    13.5431  13.6144  13.7369  13.8055  13.8661  13.9978  14.2198  14.2701
    14.4349  14.4517  14.5378  14.6359  14.6958  14.7403  14.8106  14.8634
    14.8993  14.9559  14.9881  15.0896  15.1200  15.2086  15.2525  15.3840
    15.4921  15.5163  15.5763  15.7093  15.8038  15.8404  15.8997  15.9323
    15.9550  16.1046  16.1976  16.2521  16.2847  16.3614  16.4310  16.4799
    16.5497  16.6182  16.6669  16.7055  16.7898  16.8173  16.8717  16.9668
    17.0005  17.0725  17.1101  17.2184  17.2352  17.2634  17.2783  17.3443
    17.4230  17.5742  17.6173  17.7073  17.7836  17.8946  17.9525  17.9620
    17.9803  18.0753  18.2150  18.2448  18.2901  18.3189  18.3358  18.4230
    18.5113  18.5738  18.6062  18.6863  18.7894  18.8909  18.9288  19.0752
    19.1372  19.2142  19.2644  19.3341  19.4191  19.4683  19.5820  19.6177
    19.6676  19.7427  19.7866  19.9140  19.9741  20.0089  20.1671  20.2012
    20.2271  20.3275  20.3665  20.5013  20.5725  20.6227  20.7382  20.8125
    20.8392  20.8838  20.9664  21.0017  21.0360  21.1506  21.2049  21.2684
    21.3585  21.3939  21.4348  21.5127  21.5871  21.6090  21.7121  21.7285
    21.7465  21.7890  21.8267  21.8523  21.9035  21.9333  21.9734  22.0110
    22.0791  22.1783  22.2971  22.3568  22.3922  22.4197  22.4619  22.5143
    22.5618  22.6174  22.6944  22.7135  22.8101  22.8482

          k =-0.5000-0.3828 0.0000 ( 29192 PWs)   bands (ev):

   -81.0827 -80.9977 -80.8857 -80.8844 -80.8345 -80.5046 -80.4946 -80.4911
   -43.0289 -42.9872 -42.9352 -42.9296 -42.9167 -42.8997 -42.8975 -42.8912
   -42.8227 -42.7578 -42.7530 -42.7506 -42.7180 -42.7057 -42.6151 -42.5973
   -42.5405 -42.5337 -42.4701 -42.4179 -42.4120 -42.2796 -42.2280 -42.2194
   -20.4348 -20.3921 -20.2912 -19.9187 -19.9044 -19.8594 -19.7904 -19.7439
   -19.7244 -19.6752 -19.3531 -19.3446 -19.3318 -19.2937 -19.1786 -19.1372
   -19.1182 -18.4601 -18.2310  -8.4641  -8.3447  -8.3013  -8.2876  -8.2755
    -8.2308  -8.1283  -8.0962  -8.0798  -8.0737  -7.4757  -7.3927  -7.2427
    -7.1719  -7.0927  -7.0397  -6.9343  -6.8318  -6.6573  -6.6454  -6.5585
    -6.4703  -6.2578  -6.1880  -6.0789  -5.9924  -5.7756  -5.7593  -5.7005
    -5.6159  -5.5279  -5.4280  -5.3706  -5.3173  -5.2307  -4.9988  -4.9234
    -4.8811  -4.8197  -4.7762  -4.7078  -4.1839  -4.1548  -4.0438  -3.9549
    -3.7416  -3.6555  -3.5585  -3.4299  -3.3143  -3.1978  -3.1861  -3.0930
    -2.8074  -2.6091  -2.5525  -2.4572  -1.4371  -1.4227  -1.3639  -1.0984
    -0.9667  -0.9230  -0.7927  -0.6800  -0.3360  -0.2468   0.0982   0.2107
     0.3146   0.3267   0.5316   0.6670   0.8153   1.0624   1.0789   1.1171
     1.5212   1.5466   1.6295   1.6381   2.3162   3.0079   3.0302   3.0831
     3.1537   3.8036   4.2408   4.5271   4.5708   4.9643   5.3644   5.4939
     5.5477   5.7221   5.8449   6.0249   6.1578   6.2904   6.3199   6.4473
     6.4475   6.7042   6.8442   6.8487   6.9697   6.9822   7.1567   7.1982
     7.2739   7.3646   7.4968   7.6394   7.7317   7.8689   7.9714   8.1541
     8.1813   8.4853   8.5591   8.7421   8.7610   8.8040   8.9089   9.1095
     9.2836   9.4655   9.6670   9.9545   9.9854  10.0678  10.0926  10.2394
    10.5160  10.6373  10.8169  11.0150  11.0737  11.1422  11.1686  11.2420
    11.3225  11.3778  11.4477  11.5298  11.6457  11.7524  11.8379  12.1809
    12.1972  12.4317  12.5678  12.6314  12.7857  12.8570  12.9074  13.0065
    13.0296  13.0565  13.0821  13.1525  13.1992  13.3081  13.3163  13.3859
    13.4243  13.4562  13.5592  13.6485  13.7346  13.7884  13.8322  13.8838
    13.9450  14.0010  14.0786  14.1915  14.2870  14.3376  14.4589  14.6140
    14.6570  14.6931  14.7001  14.7435  14.7770  14.9906  15.0460  15.1082
    15.1794  15.2824  15.3361  15.4329  15.4488  15.4782  15.5335  15.6782
    15.8558  15.8827  15.9638  16.0829  16.1470  16.1961  16.3013  16.3538
    16.3688  16.4348  16.5589  16.6269  16.7771  16.7817  16.8356  16.8592
    16.9332  17.0299  17.1011  17.2257  17.2576  17.2904  17.3145  17.3594
    17.4626  17.5807  17.6225  17.6435  17.6736  17.7057  17.7790  17.7892
    17.8625  17.9929  18.0962  18.1473  18.1732  18.2066  18.2581  18.2662
    18.3125  18.3537  18.4056  18.4573  18.5538  18.5979  18.6230  18.6654
    18.8163  18.8889  18.9060  18.9535  19.0571  19.0749  19.2632  19.3648
    19.4911  19.6111  19.6768  19.7310  19.8605  19.9738  20.0730  20.1207
    20.1946  20.2571  20.4188  20.5374  20.6527  20.6811  20.7173  20.8148
    20.8599  20.9345  21.0114  21.2606  21.3030  21.3125  21.3671  21.4174
    21.5017  21.5374  21.6826  21.7522  21.8417  21.8864  22.0227  22.1383
    22.1630  22.2159  22.2714  22.3159  22.3868  22.4150  22.4759  22.5603
    22.6188  22.7663  22.8101  22.8387  22.8982  22.9714  22.9781  23.0243
    23.0544  23.1523  23.2038  23.2657  23.3259  23.4050

          k =-0.2500 0.1914 0.0000 ( 29229 PWs)   bands (ev):

   -81.0933 -80.9999 -80.9108 -80.8707 -80.8403 -80.5184 -80.5097 -80.4797
   -43.1569 -43.0479 -43.0348 -43.0106 -42.9567 -42.9179 -42.9126 -42.8848
   -42.8654 -42.7758 -42.7594 -42.6880 -42.6685 -42.6613 -42.5539 -42.5330
   -42.5279 -42.5177 -42.5067 -42.4425 -42.4095 -42.3808 -42.0478 -41.9002
   -20.7659 -20.3303 -20.2946 -20.1796 -20.0896 -19.8607 -19.8141 -19.7784
   -19.5977 -19.5656 -19.4568 -19.3685 -19.3091 -19.1194 -19.0777 -19.0559
   -18.9373 -18.3872 -18.1109  -9.0105  -8.8215  -8.7427  -8.7073  -8.5917
    -8.4060  -8.3720  -8.2139  -8.1029  -7.9832  -7.9388  -7.8343  -7.6220
    -7.4253  -7.3624  -7.0986  -6.9094  -6.7780  -6.6759  -6.6023  -6.5508
    -6.4263  -6.1534  -6.0490  -5.8826  -5.7964  -5.7437  -5.5679  -5.4768
    -5.3779  -5.2054  -5.0279  -5.0020  -4.9009  -4.8380  -4.7947  -4.7618
    -4.6576  -4.6095  -4.5538  -4.4424  -4.1772  -4.0023  -3.9242  -3.8181
    -3.7493  -3.6740  -3.6057  -3.4115  -3.3740  -3.3075  -3.2258  -3.0882
    -2.8586  -2.7749  -2.6899  -2.5423  -2.3256  -2.1647  -2.0656  -1.3587
    -1.1214  -1.0684  -0.9489  -0.2221  -0.1730   0.1963   0.2837   0.4671
     0.5646   0.7643   0.8019   1.1021   1.2977   1.3805   1.4562   1.5480
     1.6658   1.7631   1.7889   2.1398   2.4344   3.7021   3.7525   3.8485
     3.8920   4.0590   4.1304   4.3646   4.5628   4.5868   4.7875   4.9071
     4.9744   5.2227   5.3377   5.6271   5.8613   5.9348   6.1199   6.3079
     6.4622   6.5347   6.7122   6.8649   6.9902   7.1030   7.2865   7.5213
     7.6860   7.7641   7.9294   8.0942   8.2621   8.3637   8.4866   8.5793
     8.6380   8.7174   8.9495   9.0263   9.1201   9.3803   9.4152   9.5872
     9.6299   9.6765   9.8146   9.8852   9.9252   9.9849  10.0947  10.2007
    10.2354  10.3564  10.3925  10.4642  10.5472  10.7282  10.7643  10.8647
    10.9974  11.1124  11.1851  11.2879  11.4567  11.5536  11.6811  11.7388
    11.8180  11.9313  12.0375  12.2109  12.3364  12.4834  12.5885  12.6109
    12.6632  12.7650  12.8019  12.8898  12.9437  13.0387  13.0983  13.2276
    13.2790  13.4171  13.5054  13.6339  13.6743  13.7441  13.8259  13.8708
    13.9449  13.9568  14.0517  14.1000  14.1316  14.2505  14.3476  14.4061
    14.4933  14.5240  14.5718  14.6788  14.7068  14.7726  14.8534  14.9013
    14.9545  14.9849  15.0127  15.0895  15.1399  15.2134  15.3119  15.4295
    15.5279  15.6116  15.6428  15.7336  15.8397  15.9449  16.0755  16.1452
    16.1810  16.2428  16.3122  16.4718  16.5363  16.5866  16.6080  16.7024
    16.7846  16.8731  16.9502  17.0235  17.1139  17.2047  17.2643  17.2792
    17.3577  17.4917  17.6066  17.6601  17.7283  17.7895  17.8314  17.9495
    17.9925  18.0290  18.1289  18.1900  18.2697  18.2923  18.4019  18.4745
    18.5457  18.5887  18.6465  18.7057  18.7654  18.8622  18.9237  19.0423
    19.0970  19.2343  19.3150  19.3711  19.4851  19.5627  19.6253  19.6854
    19.7561  19.8425  19.9523  20.0186  20.1560  20.2022  20.2610  20.3334
    20.4638  20.5231  20.5927  20.6352  20.6960  20.7663  20.8024  20.8427
    20.8896  20.9573  20.9767  21.1128  21.1555  21.1967  21.2530  21.3217
    21.4033  21.4671  21.5120  21.6169  21.6534  21.7105  21.7739  21.8412
    21.9340  21.9959  22.0823  22.1278  22.2205  22.2495  22.3227  22.3436
    22.3996  22.4445  22.4937  22.5449  22.6214  22.6612  22.7002  22.7296
    22.8015  22.8483  22.8784  22.9487  22.9802  23.0787

     the Fermi energy is     0.3770 ev

!    total energy              =   -2173.98941776 Ry
     Harris-Foulkes estimate   =   -2173.98941809 Ry
     estimated scf accuracy    <       0.00000039 Ry

     The total energy is the sum of the following terms:

     one-electron contribution =  -24248.98216381 Ry
     hartree contribution      =   12143.18317656 Ry
     xc contribution           =    -595.04420036 Ry
     ewald contribution        =   10524.32717492 Ry
     Hubbard energy            =       2.52557808 Ry
     smearing contrib. (-TS)   =       0.00101685 Ry

     convergence has been achieved in  31 iterations

     Forces acting on atoms (Ry/au):


     negative rho (up, down):  0.240E+00 0.000E+00
     atom    1 type  1   force =    -0.00611545   -0.00678444    0.01062332
     atom    2 type  1   force =     0.00002210    0.00681698    0.00222107
     atom    3 type  2   force =     0.02773907   -0.00335848   -0.00041050
     atom    4 type  2   force =     0.00167527    0.00667221    0.00360657
     atom    5 type  1   force =     0.00205742    0.00400126    0.00111265
     atom    6 type  1   force =     0.00075957   -0.00374054    0.00037907
     atom    7 type  1   force =     0.00355076   -0.00029397    0.00263579
     atom    8 type  1   force =     0.00334910   -0.00207478   -0.01169897
     atom    9 type  2   force =    -0.02513504    0.00187181    0.00372303
     atom   10 type  2   force =    -0.00825228   -0.00140126   -0.00993811
     atom   11 type  1   force =    -0.00802112    0.00036232   -0.00302485
     atom   12 type  1   force =    -0.00791609    0.00050383   -0.00277562
     atom   13 type  1   force =    -0.00032716   -0.00013117   -0.00089453
     atom   14 type  1   force =    -0.00345014   -0.00599221    0.01175015
     atom   15 type  1   force =     0.00028801    0.00579987    0.00491149
     atom   16 type  2   force =    -0.02824271   -0.00294324   -0.00093205
     atom   17 type  2   force =     0.00169179    0.00694535   -0.00003775
     atom   18 type  1   force =     0.00111572    0.00415235    0.00098534
     atom   19 type  1   force =    -0.00033061   -0.00418905    0.00053129
     atom   20 type  1   force =    -0.00279040   -0.00210269    0.00396891
     atom   21 type  1   force =     0.00155106   -0.00153735   -0.01064982
     atom   22 type  2   force =     0.02095032    0.00184897    0.00266798
     atom   23 type  2   force =     0.00176800   -0.00071838    0.01224743
     atom   24 type  1   force =     0.01093950    0.00254701   -0.00237241
     atom   25 type  1   force =     0.01110475   -0.00196556   -0.00260298
     atom   26 type  1   force =     0.00061650   -0.00103725   -0.00311127
     atom   27 type  3   force =     0.00001360   -0.00164900    0.00066168
     atom   28 type  3   force =    -0.00000052   -0.00182243    0.00036291
     atom   29 type  3   force =     0.00075788    0.00033658   -0.00095845
     atom   30 type  3   force =     0.00099091    0.00005500   -0.00081129
     atom   31 type  1   force =     0.00128235   -0.00009361   -0.01220396
     atom   32 type  3   force =    -0.00164216   -0.00007812    0.00003387

     Total force =     0.032284     Total SCF correction =     0.003023

     BFGS Geometry Optimization

     number of scf cycles    =   1
     number of bfgs steps    =   0

     energy   new            =   -2173.9894177577 Ry

     new trust radius        =       0.0122715016 bohr
     new conv_thr            =       0.0000010000 Ry


ATOMIC_POSITIONS (crystal)
O0       0.000000000   0.000000000   0.370828205    0   0   1
O0       0.000000000   0.500000000   0.382113531    0   0   1
Re1      0.250000000   0.500000000   0.441741955    0   0   1
Re1      0.000000000   0.000000000   0.443460685    0   0   1
O0       0.250000000   0.780000000   0.441771807    0   0   1
O0       0.250000000   0.220000000   0.441617429    0   0   1
O0       0.000000000   0.500000000   0.497131659    0   0   1
O0       0.000000000   0.000000000   0.514800713    0   0   1
Re1      0.250000000   0.000000000   0.574902967    0   0   1
Re1      0.000000000   0.500000000   0.566225224    0   0   1
O0       0.250000000   0.720000000   0.572930716    0   0   1
O0       0.250000000   0.280000000   0.572995601    0   0   1
O0       0.000000000   0.000000000   0.627082468    0   0   1
O0       0.500000000   0.000000000   0.370890290    0   0   1
O0       0.500000000   0.500000000   0.382456260    0   0   1
Re1      0.750000000   0.500000000   0.441761733    0   0   1
Re1      0.500000000   0.000000000   0.443239260    0   0   1
O0       0.750000000   0.780000000   0.441719311    0   0   1
O0       0.750000000   0.220000000   0.441690413    0   0   1
O0       0.500000000   0.500000000   0.499077786    0   0   1
O0       0.500000000   0.000000000   0.514691275    0   0   1
Re1      0.750000000   0.000000000   0.574742290    0   0   1
Re1      0.500000000   0.500000000   0.572890036    0   0   1
O0       0.750000000   0.720000000   0.572133503    0   0   1
O0       0.750000000   0.280000000   0.572128985    0   0   1
O0       0.500000000   0.000000000   0.626389023    0   0   1
H2      -0.000358658   0.624945347   0.365192968
H2       0.499619949   0.623012237   0.364557113
H2       0.169574824   0.023165443   0.356481215
H2       0.670547829   0.021884157   0.356664100
O0       0.527886603   0.499662924   0.643670816
H2       0.378657875   0.499164095   0.665050664


     Check: negative starting charge=   -0.237247
     NEW-OLD atomic charge density approx. for the potential

     Check: negative/imaginary core charge=   -0.000003    0.000000
     Check: negative starting charge=   -0.237407

     negative rho (up, down):  0.241E+00 0.000E+00
 Atomic wfc used for LDA+U Projector are NOT orthogonalized

     total cpu time spent up to now is     9877.6 secs

     per-process dynamical memory:   451.8 Mb

     Self-consistent Calculation

     iteration #  1     ecut=    40.00 Ry     beta=0.70
     Davidson diagonalization with overlap
     ethr =  1.00E-06,  avg # of iterations =  3.0
 --- enter write_ns ---
 LDA+U parameters:
U( 2)     =  4.00000000
alpha( 2) =  0.00000000
atom    3   Tr[ns(na)] =   6.59562
    eigenvalues: 
  0.538  0.569  0.585  0.773  0.834
    eigenvectors:
  0.001  0.338  0.000  0.661  0.000
  0.998  0.001  0.001  0.000  0.001
  0.001  0.013  0.978  0.008  0.000
  0.000  0.648  0.021  0.331  0.000
  0.001  0.000  0.000  0.000  0.999
    occupations:
  0.703 -0.004  0.015 -0.095  0.000
 -0.004  0.538  0.001  0.002 -0.008
  0.015  0.001  0.586 -0.008 -0.004
 -0.095  0.002 -0.008  0.637 -0.000
  0.000 -0.008 -0.004 -0.000  0.833
atom    4   Tr[ns(na)] =   6.56831
    eigenvalues: 
  0.569  0.604  0.609  0.720  0.781
    eigenvectors:
  0.000  0.984  0.003  0.001  0.012
  0.000  0.000  0.009  0.991  0.000
  0.000  0.003  0.988  0.008  0.000
  0.000  0.012  0.000  0.000  0.988
  0.999  0.000  0.000  0.000  0.000
    occupations:
  0.607  0.003  0.000 -0.019  0.001
  0.003  0.719  0.010 -0.000 -0.002
  0.000  0.010  0.610  0.001 -0.000
 -0.019 -0.000  0.001  0.779 -0.000
  0.001 -0.002 -0.000 -0.000  0.570
atom    9   Tr[ns(na)] =   6.57460
    eigenvalues: 
  0.594  0.601  0.607  0.728  0.758
    eigenvectors:
  0.246  0.000  0.000  0.004  0.749
  0.000  0.000  1.000  0.000  0.000
  0.000  0.996  0.000  0.003  0.000
  0.753  0.000  0.000  0.001  0.245
  0.000  0.003  0.000  0.991  0.005
    occupations:
  0.718  0.000 -0.001 -0.071  0.002
  0.000  0.607  0.000  0.000  0.000
 -0.001  0.000  0.601  0.001 -0.007
 -0.071  0.000  0.001  0.634 -0.002
  0.002  0.000 -0.007 -0.002  0.727
atom   10   Tr[ns(na)] =   6.52181
    eigenvalues: 
  0.479  0.535  0.636  0.761  0.850
    eigenvectors:
  0.999  0.000  0.000  0.001  0.000
  0.000  0.000  0.000  0.000  0.999
  0.000  0.000  1.000  0.000  0.000
  0.001  0.000  0.000  0.999  0.000
  0.000  1.000  0.000  0.000  0.000
    occupations:
  0.479 -0.008 -0.000 -0.008  0.000
 -0.008  0.850  0.001 -0.000  0.001
 -0.000  0.001  0.636 -0.000  0.000
 -0.008 -0.000 -0.000  0.761 -0.000
  0.000  0.001  0.000 -0.000  0.535
atom   16   Tr[ns(na)] =   6.59681
    eigenvalues: 
  0.537  0.568  0.588  0.772  0.833
    eigenvectors:
  0.001  0.339  0.000  0.660  0.000
  0.998  0.001  0.000  0.000  0.001
  0.000  0.011  0.981  0.007  0.000
  0.000  0.650  0.018  0.332  0.000
  0.001  0.000  0.000  0.000  0.999
    occupations:
  0.703  0.004  0.014 -0.095 -0.001
  0.004  0.537 -0.001 -0.002 -0.008
  0.014 -0.001  0.589 -0.008  0.005
 -0.095 -0.002 -0.008  0.636  0.001
 -0.001 -0.008  0.005  0.001  0.833
atom   17   Tr[ns(na)] =   6.56275
    eigenvalues: 
  0.571  0.600  0.608  0.716  0.787
    eigenvectors:
  0.000  0.002  0.986  0.001  0.011
  0.000  0.005  0.001  0.993  0.000
  0.000  0.993  0.002  0.005  0.000
  0.000  0.000  0.011  0.000  0.988
  0.999  0.000  0.000  0.000  0.000
    occupations:
  0.610  0.003  0.000 -0.019  0.001
  0.003  0.715  0.008 -0.000 -0.002
  0.000  0.008  0.601  0.001 -0.000
 -0.019 -0.000  0.001  0.785 -0.000
  0.001 -0.002 -0.000 -0.000  0.571
atom   22   Tr[ns(na)] =   6.57478
    eigenvalues: 
  0.594  0.598  0.606  0.728  0.762
    eigenvectors:
  0.249  0.000  0.000  0.008  0.743
  0.000  0.002  0.998  0.000  0.000
  0.000  0.996  0.002  0.002  0.000
  0.751  0.000  0.000  0.002  0.246
  0.000  0.002  0.000  0.987  0.011
    occupations:
  0.720  0.000 -0.001 -0.072  0.003
  0.000  0.606  0.000  0.000  0.000
 -0.001  0.000  0.598  0.000  0.006
 -0.072  0.000  0.000  0.636 -0.002
  0.003  0.000  0.006 -0.002  0.728
atom   23   Tr[ns(na)] =   6.55634
    eigenvalues: 
  0.522  0.554  0.596  0.793  0.814
    eigenvectors:
  0.000  0.000  0.996  0.003  0.001
  0.000  0.000  0.001  0.004  0.994
  0.998  0.002  0.000  0.000  0.000
  0.000  0.000  0.003  0.992  0.005
  0.002  0.998  0.000  0.000  0.000
    occupations:
  0.597  0.007 -0.001 -0.011  0.000
  0.007  0.814  0.000  0.002  0.002
 -0.001  0.000  0.522  0.001 -0.001
 -0.011  0.002  0.001  0.793 -0.000
  0.000  0.002 -0.001 -0.000  0.554
N of occupied +U levels =  52.5510264
 --- exit write_ns ---

     negative rho (up, down):  0.241E+00 0.000E+00

     total cpu time spent up to now is    10237.0 secs

     total energy              =   -2173.98959708 Ry
     Harris-Foulkes estimate   =   -2173.99014120 Ry
     estimated scf accuracy    <       0.00072436 Ry

     iteration #  2     ecut=    40.00 Ry     beta=0.70
     Davidson diagonalization with overlap
     ethr =  3.03E-07,  avg # of iterations =  5.1

     negative rho (up, down):  0.241E+00 0.000E+00

     total cpu time spent up to now is    10557.5 secs

     total energy              =   -2173.98573300 Ry
     Harris-Foulkes estimate   =   -2173.99328702 Ry
     estimated scf accuracy    <       0.11986655 Ry

     iteration #  3     ecut=    40.00 Ry     beta=0.70
[...]
    14.4778  14.4942  14.5937  14.6035  14.7133  14.8589  15.0117  15.0279
    15.1396  15.2025  15.2368  15.3247  15.4107  15.5375  15.5522  15.5838
    15.6438  15.7790  15.8202  15.8940  15.9508  15.9862  16.1174  16.3541
    16.3889  16.4422  16.4833  16.5113  16.5530  16.5829  16.6502  16.6975
    16.7215  16.7721  16.9361  17.0052  17.0238  17.0744  17.1100  17.1379
    17.3693  17.3977  17.4392  17.4631  17.5360  17.5743  17.7577  17.8308
    17.9218  17.9831  18.0674  18.1078  18.1384  18.2535  18.2629  18.2775
    18.3849  18.4251  18.4566  18.6001  18.6518  18.6668  18.6760  18.7151
    18.8699  18.9425  18.9767  18.9895  19.0742  19.1613  19.2355  19.2669
    19.3214  19.3687  19.4143  19.4192  19.4501  19.4881  19.5549  19.5769
    19.6295  19.6419  19.7148  19.7383  19.7456  19.7799  19.7997  19.9194
    19.9931  20.0425  20.0625  20.1003  20.1470  20.1706  20.2516  20.3032
    20.3082  20.3934  20.4072  20.7006  20.7342  20.7685  20.8568  20.9055
    20.9137  20.9544  20.9910  21.0252  21.0501  21.0603  21.1097  21.1451
    21.2807  21.3098  21.3565  21.4607  21.5022  21.5503  21.5847  21.6788
    21.7299  21.7641  21.8132  22.0284  22.0764  22.1645  22.2714  22.3569
    22.3767  22.3971  22.4491  22.4712  22.5331  22.6714

          k =-0.5000 0.1914 0.0000 ( 29244 PWs)   bands (ev):

   -81.0485 -80.9698 -80.8231 -80.8125 -80.7773 -80.4425 -80.4361 -80.4315
   -43.0169 -42.9541 -42.9262 -42.8883 -42.8869 -42.8557 -42.8310 -42.8197
   -42.7929 -42.7118 -42.6996 -42.6837 -42.6555 -42.6403 -42.5657 -42.5461
   -42.4890 -42.4738 -42.4107 -42.3597 -42.3526 -42.2161 -42.1729 -42.1634
   -20.4614 -20.4093 -20.2918 -19.9999 -19.9209 -19.8241 -19.7875 -19.7357
   -19.6383 -19.5623 -19.3128 -19.3099 -19.2678 -19.2284 -19.1770 -19.1359
   -19.0935 -18.4355 -18.1825  -8.5240  -8.3816  -8.2815  -8.2693  -8.2363
    -8.2111  -8.1509  -8.1265  -8.1187  -8.0852  -7.4766  -7.4381  -7.2720
    -7.1822  -7.1470  -7.0680  -6.9987  -6.7906  -6.6061  -6.4882  -6.3402
    -6.3170  -6.2975  -6.2685  -6.1153  -6.0159  -5.8439  -5.6806  -5.6137
    -5.5652  -5.4998  -5.3699  -5.2529  -5.1880  -5.0740  -4.9202  -4.8647
    -4.7847  -4.7435  -4.6828  -4.5957  -4.3812  -4.2282  -3.9583  -3.9254
    -3.5444  -3.4981  -3.4883  -3.3772  -3.3588  -3.1851  -3.1345  -3.0475
    -2.8074  -2.7235  -2.6850  -2.4878  -1.2988  -1.2285  -1.1192  -1.0024
    -0.8186  -0.8012  -0.6670  -0.6439  -0.4605  -0.3193  -0.2738  -0.1753
     0.1066   0.2286   0.4073   0.4331   0.6362   0.8480   1.0820   1.2231
     1.4736   1.4927   1.9637   2.0459   2.3331   3.7362   3.7853   3.8806
     3.9148   3.9172   4.2272   4.4787   4.5823   4.9154   5.2864   5.4268
     5.4568   5.4984   5.5772   5.7617   5.8693   6.1299   6.2813   6.3052
     6.4990   6.6058   6.7564   6.8567   6.9869   7.0346   7.1826   7.3293
     7.5895   7.7047   7.8137   7.8933   8.0200   8.0939   8.1718   8.2745
     8.4089   8.5560   8.6566   8.8050   8.9786   9.1625   9.2753   9.4287
     9.5181   9.5506   9.5915   9.6960   9.8440   9.9970  10.1213  10.2362
    10.5473  10.6182  10.7057  10.7262  10.7924  10.8267  10.8697  10.9103
    10.9534  11.0501  11.0816  11.2262  11.3298  11.4058  11.5988  11.6643
    11.7992  11.8799  11.9893  12.1174  12.1920  12.2915  12.3981  12.4476
    12.5333  12.7418  12.8163  12.8661  12.9733  13.1483  13.2224  13.4648
    13.5425  13.6225  13.7433  13.8187  13.8796  14.0205  14.2374  14.2793
    14.4555  14.4909  14.5870  14.6711  14.7390  14.7837  14.8407  14.8775
    14.9189  14.9807  15.0062  15.1133  15.1310  15.2169  15.2595  15.3878
    15.4902  15.5141  15.5925  15.7251  15.8082  15.8506  15.9108  15.9407
    15.9619  16.1270  16.2001  16.2541  16.3080  16.3664  16.4343  16.5014
    16.5559  16.6328  16.6880  16.7102  16.7872  16.8176  16.8976  16.9754
    17.0106  17.0787  17.1206  17.2206  17.2415  17.2749  17.2847  17.3578
    17.4390  17.5773  17.6370  17.7206  17.8015  17.9016  17.9371  17.9615
    17.9792  18.0734  18.2050  18.2539  18.2968  18.3161  18.3326  18.4285
    18.5055  18.5662  18.5961  18.6843  18.7879  18.8885  18.9283  19.0792
    19.1385  19.2241  19.2626  19.3299  19.4106  19.4623  19.5878  19.6144
    19.6664  19.7388  19.7905  19.9179  19.9659  20.0179  20.1603  20.2012
    20.2327  20.3241  20.3760  20.5130  20.5829  20.6227  20.7412  20.8080
    20.8464  20.8945  20.9663  20.9887  21.0247  21.1528  21.2137  21.2689
    21.3563  21.3882  21.4275  21.5137  21.5910  21.6198  21.7120  21.7329
    21.7545  21.7920  21.8248  21.8473  21.9005  21.9383  21.9748  22.0124
    22.0701  22.1747  22.2981  22.3587  22.3903  22.4208  22.4610  22.5171
    22.5722  22.6189  22.6915  22.7156  22.8151  22.8738

          k =-0.5000-0.3828 0.0000 ( 29192 PWs)   bands (ev):

   -81.0486 -80.9699 -80.8230 -80.8123 -80.7773 -80.4425 -80.4359 -80.4314
   -43.0169 -42.9531 -42.9262 -42.8872 -42.8790 -42.8558 -42.8329 -42.8253
   -42.7930 -42.7118 -42.6995 -42.6836 -42.6554 -42.6404 -42.5657 -42.5461
   -42.4889 -42.4749 -42.4106 -42.3606 -42.3535 -42.2159 -42.1728 -42.1633
   -20.4477 -20.4028 -20.2889 -19.9153 -19.8991 -19.8230 -19.7463 -19.7237
   -19.6951 -19.6646 -19.3161 -19.3120 -19.2847 -19.2476 -19.1722 -19.1339
   -19.0959 -18.4358 -18.1827  -8.5005  -8.3298  -8.2723  -8.2577  -8.2412
    -8.2181  -8.1304  -8.1096  -8.0963  -8.0941  -7.4740  -7.3913  -7.2300
    -7.1314  -7.0645  -7.0304  -6.9263  -6.8176  -6.6356  -6.6151  -6.5212
    -6.4328  -6.2404  -6.1781  -6.0725  -5.9805  -5.7489  -5.7278  -5.6774
    -5.5887  -5.5071  -5.3989  -5.3344  -5.2838  -5.1870  -4.9577  -4.8719
    -4.8561  -4.7822  -4.7388  -4.6790  -4.1623  -4.1318  -4.0167  -3.9205
    -3.7167  -3.6287  -3.5401  -3.4012  -3.2795  -3.1761  -3.1638  -3.0581
    -2.7840  -2.6052  -2.5418  -2.4797  -1.3937  -1.3854  -1.3302  -1.0524
    -0.9213  -0.8826  -0.7334  -0.6154  -0.2666  -0.1734   0.1412   0.2659
     0.3622   0.3796   0.5847   0.7196   0.8846   1.1364   1.1530   1.1907
     1.5905   1.6142   1.6917   1.7006   2.3907   3.0489   3.0682   3.1425
     3.2103   3.8853   4.2940   4.6061   4.6519   5.0085   5.3943   5.5488
     5.5990   5.7677   5.8850   6.0699   6.2097   6.3193   6.3601   6.4449
     6.4517   6.7339   6.8297   6.8338   6.9579   6.9676   7.1601   7.1984
     7.2743   7.3581   7.4955   7.6312   7.7266   7.8657   7.9849   8.1712
     8.2087   8.5023   8.5959   8.7736   8.8119   8.8549   8.9288   9.1144
     9.3166   9.4666   9.6728   9.9795   9.9994  10.1117  10.1376  10.2559
    10.5148  10.6472  10.8448  11.0332  11.1058  11.1859  11.1998  11.2867
    11.3354  11.3949  11.4674  11.5345  11.6535  11.7547  11.8513  12.1717
    12.2029  12.4437  12.5837  12.6512  12.7859  12.8487  12.8942  13.0026
    13.0270  13.0491  13.0896  13.1502  13.1924  13.3071  13.3232  13.3917
    13.4393  13.4769  13.5613  13.6557  13.7579  13.7972  13.8427  13.9034
    13.9601  14.0198  14.0893  14.2130  14.2901  14.3541  14.4670  14.6257
    14.6738  14.7135  14.7292  14.7827  14.8253  15.0116  15.0490  15.1151
    15.1840  15.2969  15.3580  15.4482  15.4731  15.4862  15.5506  15.6783
    15.8677  15.8948  15.9762  16.0945  16.1566  16.2106  16.2987  16.3557
    16.3760  16.4455  16.5733  16.6395  16.7854  16.7920  16.8506  16.8757
    16.9429  17.0212  17.0942  17.2365  17.2684  17.2968  17.3153  17.3583
    17.4593  17.5798  17.6319  17.6447  17.6721  17.7029  17.7821  17.7941
    17.8617  18.0153  18.1055  18.1622  18.1912  18.2163  18.2696  18.2879
    18.3265  18.3597  18.4188  18.4745  18.5595  18.5994  18.6182  18.6624
    18.8169  18.8857  18.9049  18.9587  19.0735  19.0785  19.2677  19.3671
    19.4922  19.6083  19.6788  19.7329  19.8540  19.9670  20.0626  20.1148
    20.1883  20.2418  20.4080  20.5589  20.6421  20.6823  20.7080  20.8190
    20.8648  20.9549  21.0154  21.2536  21.3032  21.3113  21.3641  21.4256
    21.5119  21.5556  21.6952  21.7551  21.8750  21.9270  22.0429  22.1449
    22.1734  22.2436  22.2888  22.3510  22.4043  22.4368  22.4827  22.5894
    22.6179  22.7676  22.8099  22.8547  22.9138  22.9775  22.9958  23.0367
    23.0689  23.1521  23.1997  23.2888  23.3262  23.4044

          k =-0.2500 0.1914 0.0000 ( 29229 PWs)   bands (ev):

   -81.0596 -80.9719 -80.8442 -80.8026 -80.7830 -80.4593 -80.4476 -80.4204
   -43.1236 -43.0252 -42.9818 -42.9778 -42.9136 -42.8965 -42.8545 -42.8471
   -42.7958 -42.7174 -42.7141 -42.6275 -42.6121 -42.6069 -42.5027 -42.5003
   -42.4700 -42.4650 -42.4524 -42.3848 -42.3436 -42.3228 -41.9863 -41.8436
   -20.7748 -20.3270 -20.2867 -20.1619 -20.0695 -19.8551 -19.7794 -19.7311
   -19.6131 -19.5743 -19.4424 -19.3238 -19.2613 -19.0820 -19.0488 -19.0014
   -18.9352 -18.3662 -18.0721  -9.0265  -8.7972  -8.7212  -8.6641  -8.6203
    -8.3836  -8.3351  -8.2335  -8.0984  -7.9705  -7.9058  -7.8294  -7.6385
    -7.4252  -7.3573  -7.0821  -6.8848  -6.7429  -6.6561  -6.5873  -6.5307
    -6.3884  -6.1255  -6.0314  -5.8613  -5.7651  -5.7284  -5.5326  -5.4555
    -5.3525  -5.1871  -5.0015  -4.9618  -4.8828  -4.8073  -4.7516  -4.7299
    -4.6210  -4.5826  -4.5159  -4.4102  -4.1471  -3.9759  -3.8934  -3.8058
    -3.7322  -3.6597  -3.5721  -3.3894  -3.3485  -3.2851  -3.1987  -3.0699
    -2.8435  -2.7642  -2.6848  -2.5389  -2.2874  -2.1198  -2.0181  -1.3072
    -1.0665  -1.0295  -0.8872  -0.1622  -0.1224   0.2486   0.3358   0.5237
     0.6370   0.8334   0.8736   1.1674   1.3644   1.4386   1.5086   1.6081
     1.7235   1.8094   1.8473   2.2123   2.5013   3.7405   3.7940   3.9055
     3.9481   4.1125   4.1894   4.4355   4.6110   4.6671   4.8361   4.9606
     5.0097   5.2572   5.3506   5.6548   5.8730   5.9851   6.1300   6.3418
     6.4818   6.5797   6.7463   6.8586   7.0007   7.1474   7.3077   7.5222
     7.6955   7.7500   7.9440   8.0840   8.2721   8.3952   8.4847   8.5908
     8.6676   8.7497   8.9812   9.0312   9.1360   9.3918   9.4131   9.5943
     9.6468   9.6956   9.8286   9.9126   9.9523   9.9922  10.1055  10.2248
    10.2403  10.3776  10.4200  10.5135  10.5927  10.7406  10.7799  10.8675
    11.0098  11.1221  11.2080  11.3092  11.4570  11.5926  11.6831  11.7400
    11.8190  11.9594  12.0499  12.2135  12.3428  12.4963  12.5892  12.6113
    12.6768  12.7761  12.8137  12.8980  12.9637  13.0351  13.1091  13.2312
    13.3034  13.4209  13.5173  13.6504  13.6790  13.7563  13.8208  13.8886
    13.9490  13.9738  14.0671  14.1212  14.1499  14.2605  14.3636  14.4034
    14.4952  14.5362  14.5873  14.6931  14.7106  14.8287  14.8617  14.9148
    14.9701  14.9923  15.0181  15.1015  15.1527  15.2207  15.3225  15.4271
    15.5420  15.6233  15.6472  15.7409  15.8509  15.9623  16.0741  16.1562
    16.1859  16.2441  16.3255  16.4718  16.5515  16.5834  16.6092  16.7126
    16.7854  16.8778  16.9535  17.0311  17.1186  17.2087  17.2737  17.2883
    17.3708  17.4997  17.6081  17.6598  17.7276  17.7993  17.8332  17.9556
    17.9973  18.0237  18.1345  18.2137  18.2743  18.3069  18.4106  18.4840
    18.5595  18.5991  18.6517  18.7045  18.7734  18.8642  18.9249  19.0546
    19.1094  19.2262  19.3171  19.3865  19.4797  19.5751  19.6327  19.6835
    19.7641  19.8440  19.9589  20.0260  20.1647  20.2200  20.2746  20.3547
    20.4711  20.5269  20.5908  20.6432  20.6997  20.7743  20.8172  20.8542
    20.9005  20.9534  20.9843  21.1050  21.1557  21.1926  21.2504  21.3307
    21.4040  21.4839  21.5223  21.6175  21.6690  21.7258  21.7823  21.8514
    21.9389  21.9954  22.0895  22.1477  22.2178  22.2636  22.3372  22.3420
    22.4017  22.4389  22.5035  22.5408  22.6253  22.6536  22.7036  22.7399
    22.8132  22.8570  22.8794  22.9621  22.9828  23.0878

     the Fermi energy is     0.4355 ev

!    total energy              =   -2173.99065729 Ry
     Harris-Foulkes estimate   =   -2173.99065729 Ry
     estimated scf accuracy    <          3.3E-09 Ry

     The total energy is the sum of the following terms:

     one-electron contribution =  -24316.11466982 Ry
     hartree contribution      =   12177.09282386 Ry
     xc contribution           =    -595.12949926 Ry
     ewald contribution        =   10557.63642212 Ry
     Hubbard energy            =       2.52316787 Ry
     smearing contrib. (-TS)   =       0.00109793 Ry

     convergence has been achieved in  16 iterations

     Forces acting on atoms (Ry/au):


     negative rho (up, down):  0.240E+00 0.000E+00
     atom    1 type  1   force =    -0.00625667   -0.00658463   -0.00026813
     atom    2 type  1   force =     0.00009779    0.00451708   -0.00032194
     atom    3 type  2   force =     0.02923183   -0.00282129    0.00000118
     atom    4 type  2   force =     0.00162510    0.00665509    0.00000957
     atom    5 type  1   force =     0.00216614    0.00448817    0.00032441
     atom    6 type  1   force =     0.00080908   -0.00436316    0.00039306
     atom    7 type  1   force =     0.00353327   -0.00045928    0.00046324
     atom    8 type  1   force =     0.00362835   -0.00194781   -0.00052262
     atom    9 type  2   force =    -0.02829960    0.00186895   -0.00000851
     atom   10 type  2   force =    -0.00846546   -0.00153937    0.00022004
     atom   11 type  1   force =    -0.00816492    0.00146528    0.00007488
     atom   12 type  1   force =    -0.00812375   -0.00035385    0.00006127
     atom   13 type  1   force =    -0.00006799   -0.00013168    0.00021724
     atom   14 type  1   force =    -0.00288016   -0.00566366   -0.00005295
     atom   15 type  1   force =     0.00025446    0.00303521   -0.00063005
     atom   16 type  2   force =    -0.02970838   -0.00239062    0.00000503
     atom   17 type  2   force =     0.00157639    0.00693258   -0.00008906
     atom   18 type  1   force =     0.00117295    0.00469671    0.00034954
     atom   19 type  1   force =    -0.00043311   -0.00482328    0.00042634
     atom   20 type  1   force =    -0.00276329   -0.00243887   -0.00003146
     atom   21 type  1   force =     0.00161048   -0.00141073   -0.00036858
     atom   22 type  2   force =     0.02367180    0.00191366    0.00017889
     atom   23 type  2   force =     0.00151468   -0.00079132    0.00012883
     atom   24 type  1   force =     0.01125093    0.00306890    0.00001159
     atom   25 type  1   force =     0.01139096   -0.00247147    0.00003892
     atom   26 type  1   force =     0.00048548   -0.00108793    0.00000008
     atom   27 type  3   force =     0.00000835    0.00035300    0.00011551
     atom   28 type  3   force =    -0.00001142    0.00031892   -0.00034634
     atom   29 type  3   force =     0.00063089    0.00018637    0.00040617
     atom   30 type  3   force =     0.00062150   -0.00008658    0.00051289
     atom   31 type  1   force =    -0.00001108   -0.00003841   -0.00074941
     atom   32 type  3   force =    -0.00009461   -0.00009599   -0.00054964

     Total force =     0.002104     Total SCF correction =     0.000181

     bfgs converged in   8 scf cycles and   7 bfgs steps
     (criteria: energy < 0.10E-03, force < 0.10E-02)

     End of BFGS Geometry Optimization

     Final energy   =   -2173.9906572906 Ry
Begin final coordinates

ATOMIC_POSITIONS (crystal)
O0       0.000000000   0.000000000   0.371375294    0   0   1
O0       0.000000000   0.500000000   0.382399389    0   0   1
Re1      0.250000000   0.500000000   0.441963163    0   0   1
Re1      0.000000000   0.000000000   0.443736680    0   0   1
O0       0.250000000   0.780000000   0.442079846    0   0   1
O0       0.250000000   0.220000000   0.441828106    0   0   1
O0       0.000000000   0.500000000   0.496953957    0   0   1
O0       0.000000000   0.000000000   0.514632144    0   0   1
Re1      0.250000000   0.000000000   0.574721679    0   0   1
Re1      0.000000000   0.500000000   0.565948662    0   0   1
O0       0.250000000   0.720000000   0.572346594    0   0   1
O0       0.250000000   0.280000000   0.572451136    0   0   1
O0       0.000000000   0.000000000   0.626897800    0   0   1
O0       0.500000000   0.000000000   0.371381489    0   0   1
O0       0.500000000   0.500000000   0.382931906    0   0   1
Re1      0.750000000   0.500000000   0.441964276    0   0   1
Re1      0.500000000   0.000000000   0.443486865    0   0   1
O0       0.750000000   0.780000000   0.442002525    0   0   1
O0       0.750000000   0.220000000   0.441916548    0   0   1
O0       0.500000000   0.500000000   0.499174186    0   0   1
O0       0.500000000   0.000000000   0.514528861    0   0   1
Re1      0.750000000   0.000000000   0.574428834    0   0   1
Re1      0.500000000   0.500000000   0.572712555    0   0   1
O0       0.750000000   0.720000000   0.571621909    0   0   1
O0       0.750000000   0.280000000   0.571580332    0   0   1
O0       0.500000000   0.000000000   0.626127633    0   0   1
H2      -0.000328909   0.624431070   0.365299653
H2       0.499599483   0.621793154   0.364617320
H2       0.168321262   0.023106331   0.356717225
H2       0.669650752   0.021464241   0.356948541
O0       0.527598426   0.499565951   0.643493389
H2       0.378882170   0.499070838   0.664761504
End final coordinates



     init_run     :    174.42s CPU    178.09s WALL (       1 calls)
     electrons    :  43939.82s CPU  45068.63s WALL (       8 calls)
     update_pot   :    136.54s CPU    139.41s WALL (       7 calls)
     forces       :   1720.14s CPU   1750.40s WALL (       8 calls)

     Called by init_run:
     wfcinit      :     42.68s CPU     44.94s WALL (       1 calls)
     potinit      :      7.20s CPU      7.33s WALL (       1 calls)

     Called by electrons:
     c_bands      :  16398.36s CPU  16868.94s WALL (     158 calls)
     sum_band     :   9991.00s CPU  10201.51s WALL (     158 calls)
     v_of_rho     :    177.99s CPU    187.86s WALL (     161 calls)
     newd         :  18211.66s CPU  18552.74s WALL (     161 calls)
     mix_rho      :     34.23s CPU     34.93s WALL (     158 calls)

     Called by c_bands:
     init_us_2    :     52.55s CPU     53.15s WALL (    1023 calls)
     cegterg      :  16083.50s CPU  16509.72s WALL (     474 calls)

     Called by *egterg:
     h_psi        :   9836.67s CPU  10088.59s WALL (    1269 calls)
     s_psi        :   1069.24s CPU   1081.95s WALL (    1317 calls)
     g_psi        :     18.04s CPU     18.06s WALL (     792 calls)
     cdiaghg      :   1281.54s CPU   1285.27s WALL (    1230 calls)

     Called by h_psi:
     add_vuspsi   :   1046.15s CPU   1060.87s WALL (    1269 calls)
     vhpsi        :    899.61s CPU    913.57s WALL (    1269 calls)

     General routines
     calbec       :   2380.94s CPU   2415.75s WALL (   10494 calls)
     fft          :    283.03s CPU    384.67s WALL (    2659 calls)
     ffts         :      3.35s CPU      3.51s WALL (     319 calls)
     fftw         :   5326.66s CPU   5589.52s WALL (  880840 calls)
     interpolate  :     29.07s CPU     29.60s WALL (     319 calls)
     davcio       :      0.08s CPU     18.63s WALL (    1047 calls)

     Parallel routines
     fft_scatter  :   2215.63s CPU   2568.81s WALL (  883818 calls)
     Hubbard U routines
     new_ns       :    198.43s CPU    208.00s WALL (     158 calls)
     vhpsi        :    899.61s CPU    913.57s WALL (    1269 calls)
     force_hub    :    334.64s CPU    339.28s WALL (       8 calls)

     PWSCF        :    13h 0m CPU       13h20m WALL


   This run was terminated on:  13:50:32   2May2014            

=------------------------------------------------------------------------------=
   JOB DONE.
=------------------------------------------------------------------------------=
---------------------------------------
Running PBS batch system epilogue script
Job id: 340628.audhumbla.fysik.dtu.dk
Username: zhonxu
Groupname: campgst
Jobname: ReO2/Eads-2-layers/OH-U-4.0
Sessionid: 19818
Resources limits: neednodes=2:ppn=8:xeon8,nodes=2:ppn=8:xeon8,walltime=48:00:00
Resources used: cput=213:21:17,mem=17038276kb,vmem=20721060kb,walltime=13:20:40
Queuename: verylong
Accounting:
This job has allocated the following 16 nodes:
b055 b055 b055 b055 b055 b055 b055 b055 b003 b003 b003 b003 b003 b003 b003 b003
Finished epilogue job 340628.audhumbla.fysik.dtu.dk for zhonxu
