ScientificPython/2.8-dl160g6-numpy-1.7.1-1(15):ERROR:151: Module 'ScientificPython/2.8-dl160g6-numpy-1.7.1-1' depends on one of the module(s) 'numpy/1.7.1-dl160g6-gfortran-internal-1'
ScientificPython/2.8-dl160g6-numpy-1.7.1-1(15):ERROR:102: Tcl command execution failed: prereq numpy/1.7.1-dl160g6-gfortran-internal-1


     Program PWSCF v.5.0.2 (svn rev. 9656) starts on 21May2014 at  6:18:19 

     This program is part of the open-source Quantum ESPRESSO suite
     for quantum simulation of materials; please cite
         "P. Giannozzi et al., J. Phys.:Condens. Matter 21 395502 (2009);
          URL http://www.quantum-espresso.org", 
     in publications or presentations arising from this work. More details at
     http://www.quantum-espresso.org/quote.php

     Parallel version (MPI), running on    16 processors
     K-points division:     npool     =       4
     R & G space division:  proc/nbgrp/npool/nimage =       4

     Current dimensions of program PWSCF are:
     Max number of different atomic species (ntypx) = 10
     Max number of k-points (npk) =  40000
     Max angular momentum in pseudopotentials (lmaxx) =  3
     Reading input from pwscf.in
Warning: card &CELL ignored
Warning: card / ignored

     Subspace diagonalization in iterative solution of the eigenvalue problem:
     a serial algorithm will be used


     Parallelization info
     --------------------
     sticks:   dense  smooth     PW     G-vecs:    dense   smooth      PW
     Min        1333     428    119               322637    58444    8739
     Max        1334     429    120               322642    58462    8748
     Sum        5335    1713    477              1290557   233813   34969



     bravais-lattice index     =            0
     lattice parameter (alat)  =      10.1289  a.u.
     unit-cell volume          =    6836.7721 (a.u.)^3
     number of atoms/cell      =           30
     number of atomic types    =            3
     number of electrons       =       232.00
     number of Kohn-Sham states=          348
     kinetic-energy cutoff     =      40.0000  Ry
     charge density cutoff     =     500.0000  Ry
     convergence threshold     =      1.0E-06
     mixing beta               =       0.1000
     number of iterations used =            8  plain     mixing
     Exchange-correlation      = SLA  PW   PBE  PBE ( 1 4 3 4 0)
     EXX-fraction              =        0.00
     nstep                     =           50


     celldm(1)=  10.128932  celldm(2)=   0.000000  celldm(3)=   0.000000
     celldm(4)=   0.000000  celldm(5)=   0.000000  celldm(6)=   0.000000

     crystal axes: (cart. coord. in units of alat)
               a(1) = (   1.000000   0.000000   0.000000 )  
               a(2) = (   0.000000   1.306037   0.000000 )  
               a(3) = (   0.000000   0.000000   5.037380 )  

     reciprocal axes: (cart. coord. in units 2 pi/alat)
               b(1) = (  1.000000  0.000000  0.000000 )  
               b(2) = (  0.000000  0.765675  0.000000 )  
               b(3) = (  0.000000  0.000000  0.198516 )  


     PseudoPot. # 1 for O  read from file:
     /home/camp/zhonxu/pseudo/o_pbe_v1.01.uspp.F.UPF
     MD5 check sum: 2bcb18d16ea4b960afae9ec6d52f22d2
     Pseudo is Ultrasoft + core correction, Zval =  6.0
     Generated by new atomic code, or converted to UPF format
     Using radial grid of  737 points,  5 beta functions with: 
                l(1) =   0
                l(2) =   0
                l(3) =   1
                l(4) =   1
                l(5) =   2
     Q(r) pseudized with  8 coefficients,  rinner =    0.900   0.900   0.900
                                                       0.900   0.900

     PseudoPot. # 2 for Re read from file:
     /home/camp/zhonxu/pseudo/re_pbe_v1.uspp.F.UPF
     MD5 check sum: 6f5a5dcaf9c96c20d0ffdde0de57afc6
     Pseudo is Ultrasoft + core correction, Zval = 15.0
     Generated by new atomic code, or converted to UPF format
     Using radial grid of  981 points,  8 beta functions with: 
                l(1) =   0
                l(2) =   0
                l(3) =   1
                l(4) =   1
                l(5) =   2
                l(6) =   2
                l(7) =   3
                l(8) =   3
     Q(r) pseudized with  8 coefficients,  rinner =    1.000   1.000   1.000
                                                       1.000   1.000   1.000
                                                       1.000

     PseudoPot. # 3 for H  read from file:
     /home/camp/zhonxu/pseudo/h_pbe_v1.uspp.F.UPF
     MD5 check sum: 3408e3ff4ec8b0a4e358431e7e038a48
     Pseudo is Ultrasoft, Zval =  1.0
     Generated by new atomic code, or converted to UPF format
     Using radial grid of  615 points,  2 beta functions with: 
                l(1) =   0
                l(2) =   0
     Q(r) pseudized with  8 coefficients,  rinner =    0.700

     atomic species   valence    mass     pseudopotential
        O0             6.00    15.99940     O ( 1.00)
        Re1           15.00   186.20700     Re( 1.00)
        H2             1.00     1.00794     H ( 1.00)


     Simplified LDA+U calculation (l_max = 2) with parameters (eV):
     atomic species    L          U    alpha       J0     beta
        Re1            2     7.5000   0.0000   0.0000   0.0000



     No symmetry found



   Cartesian axes

     site n.     atom                  positions (alat units)
         1           O0  tau(   1) = (   0.0000000   0.0000000   1.8688176  )
         2           O0  tau(   2) = (   0.0000000   0.6530184   1.9243296  )
         3           Re1 tau(   3) = (   0.2500000   0.6530184   2.2228951  )
         4           Re1 tau(   4) = (   0.0000000   0.0000000   2.2352367  )
         5           O0  tau(   5) = (   0.2500000   1.0187087   2.2249100  )
         6           O0  tau(   6) = (   0.2500000   0.2873281   2.2250611  )
         7           O0  tau(   7) = (   0.0000000   0.6530184   2.5071041  )
         8           O0  tau(   8) = (   0.0000000   0.0000000   2.5966183  )
         9           Re1 tau(   9) = (   0.2500000   0.0000000   2.8989619  )
        10           Re1 tau(  10) = (   0.0000000   0.6530184   2.8608793  )
        11           O0  tau(  11) = (   0.2500000   0.9403465   2.8908013  )
        12           O0  tau(  12) = (   0.2500000   0.3656903   2.8907005  )
        13           O0  tau(  13) = (   0.0000000   0.0000000   3.1620138  )
        14           O0  tau(  14) = (   0.5000000   0.0000000   1.8688176  )
        15           O0  tau(  15) = (   0.5000000   0.6530184   1.9243296  )
        16           Re1 tau(  16) = (   0.7500000   0.6530184   2.2228951  )
        17           Re1 tau(  17) = (   0.5000000   0.0000000   2.2352367  )
        18           O0  tau(  18) = (   0.7500000   1.0187087   2.2249604  )
        19           O0  tau(  19) = (   0.7500000   0.2873281   2.2250611  )
        20           O0  tau(  20) = (   0.5000000   0.6530184   2.5071041  )
        21           O0  tau(  21) = (   0.5000000   0.0000000   2.5966183  )
        22           Re1 tau(  22) = (   0.7500000   0.0000000   2.8989619  )
        23           Re1 tau(  23) = (   0.5000000   0.6530184   2.8609296  )
        24           O0  tau(  24) = (   0.7500000   0.9403465   2.8908013  )
        25           O0  tau(  25) = (   0.7500000   0.3656903   2.8907005  )
        26           O0  tau(  26) = (   0.5000000   0.0000000   3.1620138  )
        27           H2  tau(  27) = (  -0.0003800   0.8172395   1.8403061  )
        28           H2  tau(  28) = (   0.4996200   0.8172395   1.8403061  )
        29           H2  tau(  29) = (   0.1698700   0.0284977   1.7974380  )
        30           H2  tau(  30) = (   0.6698800   0.0284977   1.7974380  )

     number of k points=    10  Methfessel-Paxton smearing, width (Ry)=  0.0100
                       cart. coord. in units 2pi/alat
        k(    1) = (   0.0000000   0.0000000   0.0000000), wk =   0.1250000
        k(    2) = (   0.0000000   0.1914188   0.0000000), wk =   0.2500000
        k(    3) = (   0.0000000  -0.3828376   0.0000000), wk =   0.1250000
        k(    4) = (   0.2500000   0.0000000   0.0000000), wk =   0.2500000
        k(    5) = (   0.2500000   0.1914188   0.0000000), wk =   0.2500000
        k(    6) = (   0.2500000  -0.3828376   0.0000000), wk =   0.2500000
        k(    7) = (  -0.5000000   0.0000000   0.0000000), wk =   0.1250000
        k(    8) = (  -0.5000000   0.1914188   0.0000000), wk =   0.2500000
        k(    9) = (  -0.5000000  -0.3828376   0.0000000), wk =   0.1250000
        k(   10) = (  -0.2500000   0.1914188   0.0000000), wk =   0.2500000

     Dense  grid:  1290557 G-vectors     FFT dimensions: (  75,  96, 375)

     Smooth grid:   233813 G-vectors     FFT dimensions: (  45,  54, 216)

     Largest allocated arrays     est. size (Mb)     dimensions
        Kohn-Sham Wavefunctions        39.11 Mb     (   7365,  348)
        Atomic wavefunctions           20.23 Mb     (   7365,  180)
        NL pseudopotentials            55.97 Mb     (   7365,  498)
        Each V/rho on FFT grid         10.33 Mb     ( 676800)
        Each G-vector array             2.46 Mb     ( 322642)
        G-vector shells                 1.07 Mb     ( 139625)
     Largest temporary arrays     est. size (Mb)     dimensions
        Auxiliary wavefunctions       156.43 Mb     (   7365, 1392)
        Each subspace H/S matrix       29.57 Mb     (1392,1392)
        Each <psi_i|beta_j> matrix      2.64 Mb     (    498,  348)
        Arrays for rho mixing          82.62 Mb     ( 676800,   8)

     Check: negative/imaginary core charge=   -0.000003    0.000000

     Initial potential from superposition of free atoms
     Check: negative starting charge=   -0.237311

     starting charge  227.99958, renormalised to  232.00000

     negative rho (up, down):  0.241E+00 0.000E+00
     Number of +U iterations with fixed ns =  0
     Starting occupations:
 --- enter write_ns ---
 LDA+U parameters:
U( 2)     =  7.50000000
alpha( 2) =  0.00000000
atom    3   Tr[ns(na)] =   5.00000
    eigenvalues: 
  0.500  0.500  0.500  0.500  0.500
    eigenvectors:
  1.000  0.000  0.000  0.000  0.000
  0.000  1.000  0.000  0.000  0.000
  0.000  0.000  1.000  0.000  0.000
  0.000  0.000  0.000  1.000  0.000
  0.000  0.000  0.000  0.000  1.000
    occupations:
  0.500  0.000  0.000  0.000  0.000
  0.000  0.500  0.000  0.000  0.000
  0.000  0.000  0.500  0.000  0.000
  0.000  0.000  0.000  0.500  0.000
  0.000  0.000  0.000  0.000  0.500
atom    4   Tr[ns(na)] =   5.00000
    eigenvalues: 
  0.500  0.500  0.500  0.500  0.500
    eigenvectors:
  1.000  0.000  0.000  0.000  0.000
  0.000  1.000  0.000  0.000  0.000
  0.000  0.000  1.000  0.000  0.000
  0.000  0.000  0.000  1.000  0.000
  0.000  0.000  0.000  0.000  1.000
    occupations:
  0.500  0.000  0.000  0.000  0.000
  0.000  0.500  0.000  0.000  0.000
  0.000  0.000  0.500  0.000  0.000
  0.000  0.000  0.000  0.500  0.000
  0.000  0.000  0.000  0.000  0.500
atom    9   Tr[ns(na)] =   5.00000
    eigenvalues: 
  0.500  0.500  0.500  0.500  0.500
    eigenvectors:
  1.000  0.000  0.000  0.000  0.000
  0.000  1.000  0.000  0.000  0.000
  0.000  0.000  1.000  0.000  0.000
  0.000  0.000  0.000  1.000  0.000
  0.000  0.000  0.000  0.000  1.000
    occupations:
  0.500  0.000  0.000  0.000  0.000
  0.000  0.500  0.000  0.000  0.000
  0.000  0.000  0.500  0.000  0.000
  0.000  0.000  0.000  0.500  0.000
  0.000  0.000  0.000  0.000  0.500
atom   10   Tr[ns(na)] =   5.00000
    eigenvalues: 
  0.500  0.500  0.500  0.500  0.500
    eigenvectors:
  1.000  0.000  0.000  0.000  0.000
  0.000  1.000  0.000  0.000  0.000
  0.000  0.000  1.000  0.000  0.000
  0.000  0.000  0.000  1.000  0.000
  0.000  0.000  0.000  0.000  1.000
    occupations:
  0.500  0.000  0.000  0.000  0.000
  0.000  0.500  0.000  0.000  0.000
  0.000  0.000  0.500  0.000  0.000
  0.000  0.000  0.000  0.500  0.000
  0.000  0.000  0.000  0.000  0.500
atom   16   Tr[ns(na)] =   5.00000
    eigenvalues: 
  0.500  0.500  0.500  0.500  0.500
    eigenvectors:
  1.000  0.000  0.000  0.000  0.000
  0.000  1.000  0.000  0.000  0.000
  0.000  0.000  1.000  0.000  0.000
  0.000  0.000  0.000  1.000  0.000
  0.000  0.000  0.000  0.000  1.000
    occupations:
  0.500  0.000  0.000  0.000  0.000
  0.000  0.500  0.000  0.000  0.000
  0.000  0.000  0.500  0.000  0.000
  0.000  0.000  0.000  0.500  0.000
  0.000  0.000  0.000  0.000  0.500
atom   17   Tr[ns(na)] =   5.00000
    eigenvalues: 
  0.500  0.500  0.500  0.500  0.500
    eigenvectors:
  1.000  0.000  0.000  0.000  0.000
  0.000  1.000  0.000  0.000  0.000
  0.000  0.000  1.000  0.000  0.000
  0.000  0.000  0.000  1.000  0.000
  0.000  0.000  0.000  0.000  1.000
    occupations:
  0.500  0.000  0.000  0.000  0.000
  0.000  0.500  0.000  0.000  0.000
  0.000  0.000  0.500  0.000  0.000
  0.000  0.000  0.000  0.500  0.000
  0.000  0.000  0.000  0.000  0.500
atom   22   Tr[ns(na)] =   5.00000
    eigenvalues: 
  0.500  0.500  0.500  0.500  0.500
    eigenvectors:
  1.000  0.000  0.000  0.000  0.000
  0.000  1.000  0.000  0.000  0.000
  0.000  0.000  1.000  0.000  0.000
  0.000  0.000  0.000  1.000  0.000
  0.000  0.000  0.000  0.000  1.000
    occupations:
  0.500  0.000  0.000  0.000  0.000
  0.000  0.500  0.000  0.000  0.000
  0.000  0.000  0.500  0.000  0.000
  0.000  0.000  0.000  0.500  0.000
  0.000  0.000  0.000  0.000  0.500
atom   23   Tr[ns(na)] =   5.00000
    eigenvalues: 
  0.500  0.500  0.500  0.500  0.500
    eigenvectors:
  1.000  0.000  0.000  0.000  0.000
  0.000  1.000  0.000  0.000  0.000
  0.000  0.000  1.000  0.000  0.000
  0.000  0.000  0.000  1.000  0.000
  0.000  0.000  0.000  0.000  1.000
    occupations:
  0.500  0.000  0.000  0.000  0.000
  0.000  0.500  0.000  0.000  0.000
  0.000  0.000  0.500  0.000  0.000
  0.000  0.000  0.000  0.500  0.000
  0.000  0.000  0.000  0.000  0.500
N of occupied +U levels =  40.0000000
 --- exit write_ns ---
 Atomic wfc used for LDA+U Projector are NOT orthogonalized
     Starting wfc are  180 randomized atomic wfcs

     total cpu time spent up to now is      148.4 secs

     per-process dynamical memory:   413.0 Mb

     Self-consistent Calculation

     iteration #  1     ecut=    40.00 Ry     beta=0.10
     Davidson diagonalization with overlap
     ethr =  1.00E-02,  avg # of iterations =  5.7
 --- enter write_ns ---
 LDA+U parameters:
U( 2)     =  7.50000000
alpha( 2) =  0.00000000
atom    3   Tr[ns(na)] =   4.93051
    eigenvalues: 
  0.345  0.457  0.493  0.503  0.668
    eigenvectors:
  0.003  0.000  0.502  0.000  0.495
  0.000  0.996  0.000  0.004  0.000
  0.997  0.000  0.001  0.000  0.002
  0.000  0.000  0.497  0.000  0.503
  0.000  0.004  0.000  0.996  0.000
    occupations:
  0.579  0.000  0.013 -0.087  0.000
  0.000  0.457 -0.000 -0.000  0.003
  0.013 -0.000  0.345 -0.006 -0.000
 -0.087 -0.000 -0.006  0.581 -0.000
  0.000  0.003 -0.000 -0.000  0.503
atom    4   Tr[ns(na)] =   5.01473
    eigenvalues: 
  0.334  0.453  0.508  0.521  0.692
    eigenvectors:
  0.000  0.000  0.806  0.150  0.044
  0.000  0.000  0.158  0.842  0.000
  1.000  0.000  0.000  0.000  0.000
  0.000  0.000  0.036  0.008  0.956
  0.000  1.000  0.000  0.000  0.000
    occupations:
  0.518  0.005  0.002 -0.037  0.000
  0.005  0.519  0.000 -0.000 -0.000
  0.002  0.000  0.334 -0.001  0.000
 -0.037 -0.000 -0.001  0.684  0.000
  0.000 -0.000  0.000  0.000  0.453
atom    9   Tr[ns(na)] =   6.36076
    eigenvalues: 
  0.506  0.507  0.632  0.741  0.794
    eigenvectors:
  0.028  0.341  0.000  0.631  0.000
  0.924  0.076  0.000  0.000  0.000
  0.000  0.000  1.000  0.000  0.000
  0.048  0.584  0.000  0.369  0.000
  0.000  0.000  0.000  0.000  1.000
    occupations:
  0.654  0.000 -0.000 -0.113  0.000
  0.000  0.506 -0.000  0.000 -0.000
 -0.000 -0.000  0.632  0.000 -0.000
 -0.113  0.000  0.000  0.593 -0.000
  0.000 -0.000 -0.000 -0.000  0.794
atom   10   Tr[ns(na)] =   6.64020
    eigenvalues: 
  0.476  0.478  0.732  0.806  0.828
    eigenvectors:
  0.000  0.977  0.023  0.000  0.000
  0.000  0.000  0.000  1.000  0.000
  0.000  0.000  0.000  0.000  1.000
  0.000  0.023  0.977  0.000  0.000
  1.000  0.000  0.000  0.000  0.000
    occupations:
  0.484 -0.000  0.000 -0.038  0.000
 -0.000  0.806  0.000  0.000 -0.000
  0.000  0.000  0.828 -0.000  0.000
 -0.038  0.000 -0.000  0.726  0.000
  0.000 -0.000  0.000  0.000  0.476
atom   16   Tr[ns(na)] =   4.93049
    eigenvalues: 
  0.345  0.457  0.493  0.503  0.668
    eigenvectors:
  0.003  0.000  0.502  0.000  0.495
  0.000  0.996  0.000  0.004  0.000
  0.997  0.000  0.001  0.000  0.002
  0.000  0.000  0.497  0.000  0.503
  0.000  0.004  0.000  0.996  0.000
    occupations:
  0.579  0.000  0.013 -0.087  0.000
  0.000  0.457 -0.000  0.000  0.003
  0.013 -0.000  0.345 -0.006 -0.000
 -0.087  0.000 -0.006  0.581 -0.000
  0.000  0.003 -0.000 -0.000  0.503
atom   17   Tr[ns(na)] =   5.01478
    eigenvalues: 
  0.334  0.453  0.508  0.521  0.692
    eigenvectors:
  0.000  0.000  0.806  0.150  0.044
  0.000  0.000  0.158  0.842  0.000
  1.000  0.000  0.000  0.000  0.000
  0.000  0.000  0.036  0.008  0.956
  0.000  1.000  0.000  0.000  0.000
    occupations:
  0.518  0.005  0.002 -0.037  0.000
  0.005  0.519  0.001 -0.000 -0.000
  0.002  0.001  0.334 -0.001  0.000
 -0.037 -0.000 -0.001  0.684  0.000
  0.000 -0.000  0.000  0.000  0.453
atom   22   Tr[ns(na)] =   6.36076
    eigenvalues: 
  0.506  0.507  0.632  0.741  0.794
    eigenvectors:
  0.028  0.340  0.000  0.631  0.000
  0.924  0.076  0.000  0.000  0.000
  0.000  0.000  1.000  0.000  0.000
  0.048  0.583  0.000  0.369  0.000
  0.000  0.000  0.000  0.000  1.000
    occupations:
  0.654  0.000 -0.000 -0.113  0.000
  0.000  0.506 -0.000  0.000 -0.000
 -0.000 -0.000  0.632  0.000  0.000
 -0.113  0.000  0.000  0.593 -0.000
  0.000 -0.000  0.000 -0.000  0.794
atom   23   Tr[ns(na)] =   6.64060
    eigenvalues: 
  0.476  0.478  0.732  0.806  0.828
    eigenvectors:
  0.000  0.977  0.023  0.000  0.000
  0.000  0.000  0.000  1.000  0.000
  0.000  0.000  0.000  0.000  1.000
  0.000  0.023  0.977  0.000  0.000
  1.000  0.000  0.000  0.000  0.000
    occupations:
  0.484 -0.000  0.000 -0.038  0.000
 -0.000  0.806  0.000  0.000 -0.000
  0.000  0.000  0.828 -0.000  0.000
 -0.038  0.000 -0.000  0.726  0.000
  0.000 -0.000  0.000  0.000  0.476
N of occupied +U levels =  45.8928358
 --- exit write_ns ---

     negative rho (up, down):  0.247E+00 0.000E+00

     total cpu time spent up to now is      585.0 secs

     total energy              =   -2137.07788278 Ry
     Harris-Foulkes estimate   =   -2139.30319458 Ry
     estimated scf accuracy    <      15.76369147 Ry

     iteration #  2     ecut=    40.00 Ry     beta=0.10
     Davidson diagonalization with overlap
     ethr =  6.79E-03,  avg # of iterations =  2.5

     negative rho (up, down):  0.248E+00 0.000E+00

     total cpu time spent up to now is      826.2 secs

     total energy              =   -2137.08130483 Ry
     Harris-Foulkes estimate   =   -2139.17498463 Ry
     estimated scf accuracy    <      29.56808278 Ry

     iteration #  3     ecut=    40.00 Ry     beta=0.10
     Davidson diagonalization with overlap
     ethr =  6.79E-03,  avg # of iterations =  1.3

     negative rho (up, down):  0.251E+00 0.000E+00

     total cpu time spent up to now is     1069.6 secs

     total energy              =   -2137.51265784 Ry
     Harris-Foulkes estimate   =   -2138.56357157 Ry
     estimated scf accuracy    <       6.20119627 Ry

     iteration #  4     ecut=    40.00 Ry     beta=0.10
     Davidson diagonalization with overlap
     ethr =  2.67E-03,  avg # of iterations =  1.0

     negative rho (up, down):  0.251E+00 0.000E+00

     total cpu time spent up to now is     1317.2 secs

     total energy              =   -2138.06828521 Ry
     Harris-Foulkes estimate   =   -2138.28751322 Ry
     estimated scf accuracy    <       8.41945409 Ry

     iteration #  5     ecut=    40.00 Ry     beta=0.10
     Davidson diagonalization with overlap
     ethr =  2.67E-03,  avg # of iterations =  1.0

     negative rho (up, down):  0.249E+00 0.000E+00

     total cpu time spent up to now is     1547.5 secs

     total energy              =   -2138.10801720 Ry
     Harris-Foulkes estimate   =   -2138.15029336 Ry
     estimated scf accuracy    <       1.88388522 Ry

     iteration #  6     ecut=    40.00 Ry     beta=0.10
     Davidson diagonalization with overlap
     ethr =  8.12E-04,  avg # of iterations =  1.0

     negative rho (up, down):  0.247E+00 0.000E+00

     total cpu time spent up to now is     1784.4 secs

     total energy              =   -2138.20176143 Ry
     Harris-Foulkes estimate   =   -2138.14056647 Ry
     estimated scf accuracy    <       0.33168992 Ry

     iteration #  7     ecut=    40.00 Ry     beta=0.10
     Davidson diagonalization with overlap
     ethr =  1.43E-04,  avg # of iterations =  6.9

     negative rho (up, down):  0.247E+00 0.000E+00

     total cpu time spent up to now is     2050.4 secs

     total energy              =   -2138.25345305 Ry
     Harris-Foulkes estimate   =   -2138.21017000 Ry
     estimated scf accuracy    <       0.23021853 Ry

     iteration #  8     ecut=    40.00 Ry     beta=0.10
     Davidson diagonalization with overlap
     ethr =  9.92E-05,  avg # of iterations =  5.6

     negative rho (up, down):  0.247E+00 0.000E+00

     total cpu time spent up to now is     2321.4 secs

     total energy              =   -2138.28656651 Ry
     Harris-Foulkes estimate   =   -2138.29030948 Ry
     estimated scf accuracy    <       0.71775611 Ry

     iteration #  9     ecut=    40.00 Ry     beta=0.10
     Davidson diagonalization with overlap
     ethr =  9.92E-05,  avg # of iterations =  4.3

     negative rho (up, down):  0.245E+00 0.000E+00

     total cpu time spent up to now is     2596.6 secs

     total energy              =   -2138.31320213 Ry
     Harris-Foulkes estimate   =   -2138.31094142 Ry
     estimated scf accuracy    <       0.01984278 Ry

     iteration # 10     ecut=    40.00 Ry     beta=0.10
     Davidson diagonalization with overlap
     ethr =  8.55E-06,  avg # of iterations =  5.0

     negative rho (up, down):  0.243E+00 0.000E+00

     total cpu time spent up to now is     2852.0 secs

     total energy              =   -2138.31186108 Ry
     Harris-Foulkes estimate   =   -2138.31810803 Ry
     estimated scf accuracy    <       0.18468172 Ry

     iteration # 11     ecut=    40.00 Ry     beta=0.10
     Davidson diagonalization with overlap
     ethr =  8.55E-06,  avg # of iterations =  4.1

     negative rho (up, down):  0.241E+00 0.000E+00

     total cpu time spent up to now is     3102.4 secs

     total energy              =   -2138.31789378 Ry
     Harris-Foulkes estimate   =   -2138.31668333 Ry
     estimated scf accuracy    <       0.00657722 Ry

     iteration # 12     ecut=    40.00 Ry     beta=0.10
     Davidson diagonalization with overlap
     ethr =  2.84E-06,  avg # of iterations =  4.8

     negative rho (up, down):  0.239E+00 0.000E+00

     total cpu time spent up to now is     3360.1 secs

     total energy              =   -2138.31905182 Ry
     Harris-Foulkes estimate   =   -2138.31894162 Ry
     estimated scf accuracy    <       0.02141688 Ry

     iteration # 13     ecut=    40.00 Ry     beta=0.10
     Davidson diagonalization with overlap
     ethr =  2.84E-06,  avg # of iterations =  2.7

     negative rho (up, down):  0.238E+00 0.000E+00

     total cpu time spent up to now is     3599.6 secs

     total energy              =   -2138.32024813 Ry
     Harris-Foulkes estimate   =   -2138.31946063 Ry
     estimated scf accuracy    <       0.00350364 Ry

     iteration # 14     ecut=    40.00 Ry     beta=0.10
     Davidson diagonalization with overlap
     ethr =  1.51E-06,  avg # of iterations =  3.0

     negative rho (up, down):  0.237E+00 0.000E+00

     total cpu time spent up to now is     3836.7 secs

     total energy              =   -2138.32080344 Ry
     Harris-Foulkes estimate   =   -2138.32048091 Ry
     estimated scf accuracy    <       0.00420264 Ry

     iteration # 15     ecut=    40.00 Ry     beta=0.10
     Davidson diagonalization with overlap
     ethr =  1.51E-06,  avg # of iterations =  1.0

     negative rho (up, down):  0.236E+00 0.000E+00

     total cpu time spent up to now is     4066.7 secs

     total energy              =   -2138.32070735 Ry
     Harris-Foulkes estimate   =   -2138.32082639 Ry
     estimated scf accuracy    <       0.00413232 Ry

     iteration # 16     ecut=    40.00 Ry     beta=0.10
     Davidson diagonalization with overlap
     ethr =  1.51E-06,  avg # of iterations =  1.0

     negative rho (up, down):  0.235E+00 0.000E+00

     total cpu time spent up to now is     4298.8 secs

     total energy              =   -2138.31990785 Ry
     Harris-Foulkes estimate   =   -2138.32072101 Ry
     estimated scf accuracy    <       0.00312184 Ry

     iteration # 17     ecut=    40.00 Ry     beta=0.10
     Davidson diagonalization with overlap
     ethr =  1.35E-06,  avg # of iterations =  1.0

     negative rho (up, down):  0.235E+00 0.000E+00

     total cpu time spent up to now is     4529.5 secs

     total energy              =   -2138.31988954 Ry
     Harris-Foulkes estimate   =   -2138.32008628 Ry
     estimated scf accuracy    <       0.00163721 Ry

     iteration # 18     ecut=    40.00 Ry     beta=0.10
     Davidson diagonalization with overlap
     ethr =  7.06E-07,  avg # of iterations =  1.0

     negative rho (up, down):  0.234E+00 0.000E+00

     total cpu time spent up to now is     4760.4 secs

     total energy              =   -2138.31932732 Ry
     Harris-Foulkes estimate   =   -2138.31991263 Ry
     estimated scf accuracy    <       0.00171313 Ry

     iteration # 19     ecut=    40.00 Ry     beta=0.10
     Davidson diagonalization with overlap
     ethr =  7.06E-07,  avg # of iterations =  1.0

     negative rho (up, down):  0.234E+00 0.000E+00

     total cpu time spent up to now is     4990.9 secs

     total energy              =   -2138.31829026 Ry
     Harris-Foulkes estimate   =   -2138.31944071 Ry
     estimated scf accuracy    <       0.00160565 Ry

     iteration # 20     ecut=    40.00 Ry     beta=0.10
     Davidson diagonalization with overlap
     ethr =  6.92E-07,  avg # of iterations =  1.3

     negative rho (up, down):  0.233E+00 0.000E+00

     total cpu time spent up to now is     5232.5 secs

     total energy              =   -2138.31927021 Ry
     Harris-Foulkes estimate   =   -2138.31860752 Ry
     estimated scf accuracy    <       0.00161018 Ry

     iteration # 21     ecut=    40.00 Ry     beta=0.10
     Davidson diagonalization with overlap
     ethr =  6.92E-07,  avg # of iterations =  2.3

     negative rho (up, down):  0.233E+00 0.000E+00

     total cpu time spent up to now is     5475.3 secs

     total energy              =   -2138.31912143 Ry
     Harris-Foulkes estimate   =   -2138.31984631 Ry
     estimated scf accuracy    <       0.00157054 Ry

     iteration # 22     ecut=    40.00 Ry     beta=0.10
     Davidson diagonalization with overlap
     ethr =  6.77E-07,  avg # of iterations =  1.0

     negative rho (up, down):  0.232E+00 0.000E+00

     total cpu time spent up to now is     5718.9 secs

     total energy              =   -2138.31846128 Ry
     Harris-Foulkes estimate   =   -2138.31925901 Ry
     estimated scf accuracy    <       0.00154980 Ry

     iteration # 23     ecut=    40.00 Ry     beta=0.10
     Davidson diagonalization with overlap
     ethr =  6.68E-07,  avg # of iterations =  1.0

     negative rho (up, down):  0.232E+00 0.000E+00

     total cpu time spent up to now is     5951.1 secs

     total energy              =   -2138.31911274 Ry
     Harris-Foulkes estimate   =   -2138.31864692 Ry
     estimated scf accuracy    <       0.00155342 Ry

     iteration # 24     ecut=    40.00 Ry     beta=0.10
     Davidson diagonalization with overlap
     ethr =  6.68E-07,  avg # of iterations =  2.0

     negative rho (up, down):  0.232E+00 0.000E+00

     total cpu time spent up to now is     6189.2 secs

     total energy              =   -2138.32061270 Ry
     Harris-Foulkes estimate   =   -2138.32068353 Ry
     estimated scf accuracy    <       0.00183481 Ry

     iteration # 25     ecut=    40.00 Ry     beta=0.10
     Davidson diagonalization with overlap
     ethr =  6.68E-07,  avg # of iterations =  1.8

     negative rho (up, down):  0.231E+00 0.000E+00

     total cpu time spent up to now is     6431.3 secs

     total energy              =   -2138.32154144 Ry
     Harris-Foulkes estimate   =   -2138.32065458 Ry
     estimated scf accuracy    <       0.00215231 Ry

     iteration # 26     ecut=    40.00 Ry     beta=0.10
     Davidson diagonalization with overlap
     ethr =  6.68E-07,  avg # of iterations =  2.1

     negative rho (up, down):  0.231E+00 0.000E+00

     total cpu time spent up to now is     6679.2 secs

     total energy              =   -2138.32008522 Ry
     Harris-Foulkes estimate   =   -2138.32197583 Ry
     estimated scf accuracy    <       0.00270154 Ry

     iteration # 27     ecut=    40.00 Ry     beta=0.10
     Davidson diagonalization with overlap
     ethr =  6.68E-07,  avg # of iterations =  1.0

     negative rho (up, down):  0.231E+00 0.000E+00

     total cpu time spent up to now is     6916.1 secs

     total energy              =   -2138.31844954 Ry
     Harris-Foulkes estimate   =   -2138.32072427 Ry
     estimated scf accuracy    <       0.00175672 Ry

     iteration # 28     ecut=    40.00 Ry     beta=0.10
     Davidson diagonalization with overlap
     ethr =  6.68E-07,  avg # of iterations =  2.0

     negative rho (up, down):  0.232E+00 0.000E+00

     total cpu time spent up to now is     7160.7 secs

     total energy              =   -2138.31743598 Ry
     Harris-Foulkes estimate   =   -2138.31938428 Ry
     estimated scf accuracy    <       0.00127329 Ry

     iteration # 29     ecut=    40.00 Ry     beta=0.10
     Davidson diagonalization with overlap
     ethr =  5.49E-07,  avg # of iterations =  2.0

     negative rho (up, down):  0.232E+00 0.000E+00

     total cpu time spent up to now is     7405.8 secs

     total energy              =   -2138.31781751 Ry
     Harris-Foulkes estimate   =   -2138.31824898 Ry
     estimated scf accuracy    <       0.00124199 Ry

     iteration # 30     ecut=    40.00 Ry     beta=0.10
     Davidson diagonalization with overlap
     ethr =  5.35E-07,  avg # of iterations =  1.0

     negative rho (up, down):  0.232E+00 0.000E+00

     total cpu time spent up to now is     7643.8 secs

     total energy              =   -2138.31471208 Ry
     Harris-Foulkes estimate   =   -2138.31788259 Ry
     estimated scf accuracy    <       0.00132658 Ry

     iteration # 31     ecut=    40.00 Ry     beta=0.10
     Davidson diagonalization with overlap
     ethr =  5.35E-07,  avg # of iterations =  2.0

     negative rho (up, down):  0.232E+00 0.000E+00

     total cpu time spent up to now is     7888.1 secs

     total energy              =   -2138.31650839 Ry
     Harris-Foulkes estimate   =   -2138.31622362 Ry
     estimated scf accuracy    <       0.00541565 Ry

     iteration # 32     ecut=    40.00 Ry     beta=0.10
     Davidson diagonalization with overlap
     ethr =  5.35E-07,  avg # of iterations =  1.0

     negative rho (up, down):  0.232E+00 0.000E+00

     total cpu time spent up to now is     8130.8 secs

     total energy              =   -2138.31408808 Ry
     Harris-Foulkes estimate   =   -2138.31682138 Ry
     estimated scf accuracy    <       0.00232644 Ry

     iteration # 33     ecut=    40.00 Ry     beta=0.10
     Davidson diagonalization with overlap
     ethr =  5.35E-07,  avg # of iterations =  2.0

     negative rho (up, down):  0.232E+00 0.000E+00

     total cpu time spent up to now is     8377.3 secs

     total energy              =   -2138.31586074 Ry
     Harris-Foulkes estimate   =   -2138.31531235 Ry
     estimated scf accuracy    <       0.00891666 Ry

     iteration # 34     ecut=    40.00 Ry     beta=0.10
     Davidson diagonalization with overlap
     ethr =  5.35E-07,  avg # of iterations =  2.0

     negative rho (up, down):  0.232E+00 0.000E+00

     total cpu time spent up to now is     8624.5 secs

     total energy              =   -2138.31640838 Ry
     Harris-Foulkes estimate   =   -2138.31644033 Ry
     estimated scf accuracy    <       0.00426321 Ry

     iteration # 35     ecut=    40.00 Ry     beta=0.10
     Davidson diagonalization with overlap
     ethr =  5.35E-07,  avg # of iterations =  1.0

     negative rho (up, down):  0.232E+00 0.000E+00

     total cpu time spent up to now is     8870.4 secs

     total energy              =   -2138.31641714 Ry
     Harris-Foulkes estimate   =   -2138.31640931 Ry
     estimated scf accuracy    <       0.00441564 Ry

     iteration # 36     ecut=    40.00 Ry     beta=0.10
     Davidson diagonalization with overlap
     ethr =  5.35E-07,  avg # of iterations =  1.0

     negative rho (up, down):  0.231E+00 0.000E+00

     total cpu time spent up to now is     9111.1 secs

     total energy              =   -2138.31659940 Ry
     Harris-Foulkes estimate   =   -2138.31642687 Ry
     estimated scf accuracy    <       0.00437765 Ry

     iteration # 37     ecut=    40.00 Ry     beta=0.10
     Davidson diagonalization with overlap
     ethr =  5.35E-07,  avg # of iterations =  2.0

     negative rho (up, down):  0.231E+00 0.000E+00

     total cpu time spent up to now is     9355.3 secs

     total energy              =   -2138.31822666 Ry
     Harris-Foulkes estimate   =   -2138.31798005 Ry
     estimated scf accuracy    <       0.00144178 Ry

     iteration # 38     ecut=    40.00 Ry     beta=0.10
     Davidson diagonalization with overlap
     ethr =  5.35E-07,  avg # of iterations =  1.0

     negative rho (up, down):  0.231E+00 0.000E+00

     total cpu time spent up to now is     9592.3 secs

     total energy              =   -2138.31701210 Ry
     Harris-Foulkes estimate   =   -2138.31825760 Ry
     estimated scf accuracy    <       0.00120569 Ry

     iteration # 39     ecut=    40.00 Ry     beta=0.10
     Davidson diagonalization with overlap
     ethr =  5.20E-07,  avg # of iterations =  1.0

     negative rho (up, down):  0.231E+00 0.000E+00

     total cpu time spent up to now is     9834.2 secs

     total energy              =   -2138.31747827 Ry
     Harris-Foulkes estimate   =   -2138.31734390 Ry
     estimated scf accuracy    <       0.00214746 Ry

     iteration # 40     ecut=    40.00 Ry     beta=0.10
     Davidson diagonalization with overlap
     ethr =  5.20E-07,  avg # of iterations =  1.0

     negative rho (up, down):  0.231E+00 0.000E+00

     total cpu time spent up to now is    10070.4 secs

     total energy              =   -2138.31739745 Ry
     Harris-Foulkes estimate   =   -2138.31749762 Ry
     estimated scf accuracy    <       0.00259267 Ry

     iteration # 41     ecut=    40.00 Ry     beta=0.10
     Davidson diagonalization with overlap
     ethr =  5.20E-07,  avg # of iterations =  1.0

     negative rho (up, down):  0.231E+00 0.000E+00

     total cpu time spent up to now is    10302.8 secs

     total energy              =   -2138.31790637 Ry
     Harris-Foulkes estimate   =   -2138.31740300 Ry
     estimated scf accuracy    <       0.00237936 Ry

     iteration # 42     ecut=    40.00 Ry     beta=0.10
     Davidson diagonalization with overlap
     ethr =  5.20E-07,  avg # of iterations =  1.0

     negative rho (up, down):  0.231E+00 0.000E+00

     total cpu time spent up to now is    10536.4 secs

     total energy              =   -2138.31788341 Ry
     Harris-Foulkes estimate   =   -2138.31807872 Ry
     estimated scf accuracy    <       0.00156626 Ry

     iteration # 43     ecut=    40.00 Ry     beta=0.10
     Davidson diagonalization with overlap
     ethr =  5.20E-07,  avg # of iterations =  1.0

     negative rho (up, down):  0.231E+00 0.000E+00

     total cpu time spent up to now is    10768.6 secs

     total energy              =   -2138.31801609 Ry
     Harris-Foulkes estimate   =   -2138.31795153 Ry
     estimated scf accuracy    <       0.00095004 Ry

     iteration # 44     ecut=    40.00 Ry     beta=0.10
     Davidson diagonalization with overlap
     ethr =  4.09E-07,  avg # of iterations =  1.0

     negative rho (up, down):  0.231E+00 0.000E+00

     total cpu time spent up to now is    11001.9 secs

     total energy              =   -2138.31782245 Ry
     Harris-Foulkes estimate   =   -2138.31804202 Ry
     estimated scf accuracy    <       0.00090255 Ry

     iteration # 45     ecut=    40.00 Ry     beta=0.10
     Davidson diagonalization with overlap
     ethr =  3.89E-07,  avg # of iterations =  1.0

     negative rho (up, down):  0.231E+00 0.000E+00

     total cpu time spent up to now is    11234.9 secs

     total energy              =   -2138.31817578 Ry
     Harris-Foulkes estimate   =   -2138.31784731 Ry
     estimated scf accuracy    <       0.00088784 Ry

     iteration # 46     ecut=    40.00 Ry     beta=0.10
     Davidson diagonalization with overlap
     ethr =  3.83E-07,  avg # of iterations =  1.0

     negative rho (up, down):  0.231E+00 0.000E+00

     total cpu time spent up to now is    11474.8 secs

     total energy              =   -2138.31815645 Ry
     Harris-Foulkes estimate   =   -2138.31824762 Ry
     estimated scf accuracy    <       0.00087551 Ry

     iteration # 47     ecut=    40.00 Ry     beta=0.10
     Davidson diagonalization with overlap
     ethr =  3.77E-07,  avg # of iterations =  1.0

     negative rho (up, down):  0.231E+00 0.000E+00

     total cpu time spent up to now is    11712.6 secs

     total energy              =   -2138.31793853 Ry
     Harris-Foulkes estimate   =   -2138.31817970 Ry
     estimated scf accuracy    <       0.00084968 Ry

     iteration # 48     ecut=    40.00 Ry     beta=0.10
     Davidson diagonalization with overlap
     ethr =  3.66E-07,  avg # of iterations =  1.0

     negative rho (up, down):  0.231E+00 0.000E+00

     total cpu time spent up to now is    11950.0 secs

     total energy              =   -2138.31778571 Ry
     Harris-Foulkes estimate   =   -2138.31797107 Ry
     estimated scf accuracy    <       0.00084365 Ry

     iteration # 49     ecut=    40.00 Ry     beta=0.10
     Davidson diagonalization with overlap
     ethr =  3.64E-07,  avg # of iterations =  1.0

     negative rho (up, down):  0.231E+00 0.000E+00

     total cpu time spent up to now is    12191.7 secs

     total energy              =   -2138.31763099 Ry
     Harris-Foulkes estimate   =   -2138.31780376 Ry
     estimated scf accuracy    <       0.00084622 Ry

     iteration # 50     ecut=    40.00 Ry     beta=0.10
     Davidson diagonalization with overlap
     ethr =  3.64E-07,  avg # of iterations =  1.0

     negative rho (up, down):  0.231E+00 0.000E+00

     total cpu time spent up to now is    12431.3 secs

     total energy              =   -2138.31771997 Ry
     Harris-Foulkes estimate   =   -2138.31764933 Ry
     estimated scf accuracy    <       0.00084487 Ry

     iteration # 51     ecut=    40.00 Ry     beta=0.10
     Davidson diagonalization with overlap
     ethr =  3.64E-07,  avg # of iterations =  1.0

     negative rho (up, down):  0.231E+00 0.000E+00

     total cpu time spent up to now is    12671.1 secs

     total energy              =   -2138.31798600 Ry
     Harris-Foulkes estimate   =   -2138.31772314 Ry
     estimated scf accuracy    <       0.00084205 Ry

     iteration # 52     ecut=    40.00 Ry     beta=0.10
     Davidson diagonalization with overlap
     ethr =  3.63E-07,  avg # of iterations =  1.0

     negative rho (up, down):  0.231E+00 0.000E+00

     total cpu time spent up to now is    12913.1 secs

     total energy              =   -2138.31741618 Ry
     Harris-Foulkes estimate   =   -2138.31804105 Ry
     estimated scf accuracy    <       0.00084558 Ry

     iteration # 53     ecut=    40.00 Ry     beta=0.10
     Davidson diagonalization with overlap
     ethr =  3.63E-07,  avg # of iterations =  1.0

     negative rho (up, down):  0.231E+00 0.000E+00

     total cpu time spent up to now is    13147.3 secs

     total energy              =   -2138.31655936 Ry
     Harris-Foulkes estimate   =   -2138.31756893 Ry
     estimated scf accuracy    <       0.00084674 Ry

     iteration # 54     ecut=    40.00 Ry     beta=0.10
     Davidson diagonalization with overlap
     ethr =  3.63E-07,  avg # of iterations =  2.0

     negative rho (up, down):  0.231E+00 0.000E+00

     total cpu time spent up to now is    13391.6 secs

     total energy              =   -2138.31677726 Ry
     Harris-Foulkes estimate   =   -2138.31685969 Ry
     estimated scf accuracy    <       0.00090156 Ry

     iteration # 55     ecut=    40.00 Ry     beta=0.10
     Davidson diagonalization with overlap
     ethr =  3.63E-07,  avg # of iterations =  1.0

     negative rho (up, down):  0.231E+00 0.000E+00

     total cpu time spent up to now is    13638.0 secs

     total energy              =   -2138.31430928 Ry
     Harris-Foulkes estimate   =   -2138.31688322 Ry
     estimated scf accuracy    <       0.00150737 Ry

     iteration # 56     ecut=    40.00 Ry     beta=0.10
     Davidson diagonalization with overlap
     ethr =  3.63E-07,  avg # of iterations =  2.0

     negative rho (up, down):  0.231E+00 0.000E+00

     total cpu time spent up to now is    13887.2 secs

     total energy              =   -2138.31351984 Ry
     Harris-Foulkes estimate   =   -2138.31563211 Ry
     estimated scf accuracy    <       0.00222431 Ry

     iteration # 57     ecut=    40.00 Ry     beta=0.10
     Davidson diagonalization with overlap
     ethr =  3.63E-07,  avg # of iterations =  2.0

     negative rho (up, down):  0.231E+00 0.000E+00

     total cpu time spent up to now is    14137.7 secs

     total energy              =   -2138.31349196 Ry
     Harris-Foulkes estimate   =   -2138.31851609 Ry
     estimated scf accuracy    <       0.00136556 Ry

     iteration # 58     ecut=    40.00 Ry     beta=0.10
     Davidson diagonalization with overlap
     ethr =  3.63E-07,  avg # of iterations =  2.0

     negative rho (up, down):  0.231E+00 0.000E+00

     total cpu time spent up to now is    14380.5 secs

     total energy              =   -2138.31652779 Ry
     Harris-Foulkes estimate   =   -2138.31646965 Ry
     estimated scf accuracy    <       0.00142654 Ry

     iteration # 59     ecut=    40.00 Ry     beta=0.10
     Davidson diagonalization with overlap
     ethr =  3.63E-07,  avg # of iterations =  1.0

     negative rho (up, down):  0.231E+00 0.000E+00

     total cpu time spent up to now is    14618.5 secs

     total energy              =   -2138.31697065 Ry
     Harris-Foulkes estimate   =   -2138.31662797 Ry
     estimated scf accuracy    <       0.00146376 Ry

     iteration # 60     ecut=    40.00 Ry     beta=0.10
     Davidson diagonalization with overlap
     ethr =  3.63E-07,  avg # of iterations =  2.0

     negative rho (up, down):  0.231E+00 0.000E+00

     total cpu time spent up to now is    14872.7 secs

     total energy              =   -2138.31729069 Ry
     Harris-Foulkes estimate   =   -2138.31766084 Ry
     estimated scf accuracy    <       0.00100372 Ry

     iteration # 61     ecut=    40.00 Ry     beta=0.10
     Davidson diagonalization with overlap
     ethr =  3.63E-07,  avg # of iterations =  1.0

     negative rho (up, down):  0.231E+00 0.000E+00

     total cpu time spent up to now is    15108.9 secs

     total energy              =   -2138.31696232 Ry
     Harris-Foulkes estimate   =   -2138.31736175 Ry
     estimated scf accuracy    <       0.00101677 Ry

     iteration # 62     ecut=    40.00 Ry     beta=0.10
     Davidson diagonalization with overlap
     ethr =  3.63E-07,  avg # of iterations =  1.0

     negative rho (up, down):  0.231E+00 0.000E+00

     total cpu time spent up to now is    15348.6 secs

     total energy              =   -2138.31734452 Ry
     Harris-Foulkes estimate   =   -2138.31703051 Ry
     estimated scf accuracy    <       0.00105664 Ry

     iteration # 63     ecut=    40.00 Ry     beta=0.10
     Davidson diagonalization with overlap
     ethr =  3.63E-07,  avg # of iterations =  2.0

     negative rho (up, down):  0.231E+00 0.000E+00

     total cpu time spent up to now is    15589.7 secs

     total energy              =   -2138.31809886 Ry
     Harris-Foulkes estimate   =   -2138.31765525 Ry
     estimated scf accuracy    <       0.00116529 Ry

     iteration # 64     ecut=    40.00 Ry     beta=0.10
     Davidson diagonalization with overlap
     ethr =  3.63E-07,  avg # of iterations =  2.0

     negative rho (up, down):  0.231E+00 0.000E+00

     total cpu time spent up to now is    15845.8 secs

     total energy              =   -2138.31880422 Ry
     Harris-Foulkes estimate   =   -2138.31883451 Ry
     estimated scf accuracy    <       0.00131101 Ry

     iteration # 65     ecut=    40.00 Ry     beta=0.10
     Davidson diagonalization with overlap
     ethr =  3.63E-07,  avg # of iterations =  1.0

     negative rho (up, down):  0.231E+00 0.000E+00

     total cpu time spent up to now is    16093.3 secs

     total energy              =   -2138.31463425 Ry
     Harris-Foulkes estimate   =   -2138.31882312 Ry
     estimated scf accuracy    <       0.00103305 Ry

     iteration # 66     ecut=    40.00 Ry     beta=0.10
     Davidson diagonalization with overlap
     ethr =  3.63E-07,  avg # of iterations =  2.0

     negative rho (up, down):  0.231E+00 0.000E+00

     total cpu time spent up to now is    16339.9 secs

     total energy              =   -2138.31579944 Ry
     Harris-Foulkes estimate   =   -2138.31714830 Ry
     estimated scf accuracy    <       0.00069520 Ry

     iteration # 67     ecut=    40.00 Ry     beta=0.10
     Davidson diagonalization with overlap
     ethr =  3.00E-07,  avg # of iterations =  2.0

     negative rho (up, down):  0.231E+00 0.000E+00

     total cpu time spent up to now is    16590.2 secs

     total energy              =   -2138.31658267 Ry
     Harris-Foulkes estimate   =   -2138.31637046 Ry
     estimated scf accuracy    <       0.00081749 Ry

     iteration # 68     ecut=    40.00 Ry     beta=0.10
     Davidson diagonalization with overlap
     ethr =  3.00E-07,  avg # of iterations =  1.0

     negative rho (up, down):  0.232E+00 0.000E+00

     total cpu time spent up to now is    16836.7 secs

     total energy              =   -2138.31456647 Ry
     Harris-Foulkes estimate   =   -2138.31678602 Ry
     estimated scf accuracy    <       0.00093997 Ry

     iteration # 69     ecut=    40.00 Ry     beta=0.10
     Davidson diagonalization with overlap
     ethr =  3.00E-07,  avg # of iterations =  2.0

     negative rho (up, down):  0.231E+00 0.000E+00

     total cpu time spent up to now is    17090.9 secs

     total energy              =   -2138.31449073 Ry
     Harris-Foulkes estimate   =   -2138.31548468 Ry
     estimated scf accuracy    <       0.00154941 Ry

     iteration # 70     ecut=    40.00 Ry     beta=0.10
     Davidson diagonalization with overlap
     ethr =  3.00E-07,  avg # of iterations =  2.0

     negative rho (up, down):  0.231E+00 0.000E+00

     total cpu time spent up to now is    17337.2 secs

     total energy              =   -2138.31781473 Ry
     Harris-Foulkes estimate   =   -2138.31756025 Ry
     estimated scf accuracy    <       0.00102330 Ry

     iteration # 71     ecut=    40.00 Ry     beta=0.10
     Davidson diagonalization with overlap
     ethr =  3.00E-07,  avg # of iterations =  2.0

     negative rho (up, down):  0.231E+00 0.000E+00

     total cpu time spent up to now is    17575.5 secs

     total energy              =   -2138.31857395 Ry
     Harris-Foulkes estimate   =   -2138.31879742 Ry
     estimated scf accuracy    <       0.00115950 Ry

     iteration # 72     ecut=    40.00 Ry     beta=0.10
     Davidson diagonalization with overlap
     ethr =  3.00E-07,  avg # of iterations =  1.0

     negative rho (up, down):  0.231E+00 0.000E+00

     total cpu time spent up to now is    17806.4 secs

     total energy              =   -2138.31835821 Ry
     Harris-Foulkes estimate   =   -2138.31869131 Ry
     estimated scf accuracy    <       0.00198338 Ry

     iteration # 73     ecut=    40.00 Ry     beta=0.10
     Davidson diagonalization with overlap
     ethr =  3.00E-07,  avg # of iterations =  1.0

     negative rho (up, down):  0.231E+00 0.000E+00

     total cpu time spent up to now is    18042.1 secs

     total energy              =   -2138.31429925 Ry
     Harris-Foulkes estimate   =   -2138.31852754 Ry
     estimated scf accuracy    <       0.00230097 Ry

     iteration # 74     ecut=    40.00 Ry     beta=0.10
     Davidson diagonalization with overlap
     ethr =  3.00E-07,  avg # of iterations =  2.0

     negative rho (up, down):  0.231E+00 0.000E+00

     total cpu time spent up to now is    18283.5 secs

     total energy              =   -2138.31627558 Ry
     Harris-Foulkes estimate   =   -2138.31652861 Ry
     estimated scf accuracy    <       0.00270158 Ry

     iteration # 75     ecut=    40.00 Ry     beta=0.10
     Davidson diagonalization with overlap
     ethr =  3.00E-07,  avg # of iterations =  1.0

     negative rho (up, down):  0.232E+00 0.000E+00

     total cpu time spent up to now is    18522.7 secs

     total energy              =   -2138.31626872 Ry
     Harris-Foulkes estimate   =   -2138.31640726 Ry
     estimated scf accuracy    <       0.00334794 Ry

     iteration # 76     ecut=    40.00 Ry     beta=0.10
     Davidson diagonalization with overlap
     ethr =  3.00E-07,  avg # of iterations =  1.0

     negative rho (up, down):  0.231E+00 0.000E+00

     total cpu time spent up to now is    18765.1 secs

     total energy              =   -2138.31631752 Ry
     Harris-Foulkes estimate   =   -2138.31640822 Ry
     estimated scf accuracy    <       0.00184363 Ry

     iteration # 77     ecut=    40.00 Ry     beta=0.10
     Davidson diagonalization with overlap
     ethr =  3.00E-07,  avg # of iterations =  2.0

     negative rho (up, down):  0.231E+00 0.000E+00

     total cpu time spent up to now is    19004.4 secs

     total energy              =   -2138.31734145 Ry
     Harris-Foulkes estimate   =   -2138.31716994 Ry
     estimated scf accuracy    <       0.00273793 Ry

     iteration # 78     ecut=    40.00 Ry     beta=0.10
     Davidson diagonalization with overlap
     ethr =  3.00E-07,  avg # of iterations =  2.0

     negative rho (up, down):  0.231E+00 0.000E+00

     total cpu time spent up to now is    19244.8 secs

     total energy              =   -2138.31246344 Ry
     Harris-Foulkes estimate   =   -2138.31843324 Ry
     estimated scf accuracy    <       0.00148674 Ry

     iteration # 79     ecut=    40.00 Ry     beta=0.10
     Davidson diagonalization with overlap
     ethr =  3.00E-07,  avg # of iterations =  2.0

     negative rho (up, down):  0.231E+00 0.000E+00

     total cpu time spent up to now is    19487.0 secs

     total energy              =   -2138.31625994 Ry
     Harris-Foulkes estimate   =   -2138.31624035 Ry
     estimated scf accuracy    <       0.00242728 Ry

     iteration # 80     ecut=    40.00 Ry     beta=0.10
     Davidson diagonalization with overlap
     ethr =  3.00E-07,  avg # of iterations =  2.0

     negative rho (up, down):  0.231E+00 0.000E+00

     total cpu time spent up to now is    19734.9 secs

     total energy              =   -2138.31562643 Ry
     Harris-Foulkes estimate   =   -2138.31713217 Ry
     estimated scf accuracy    <       0.00085250 Ry

     iteration # 81     ecut=    40.00 Ry     beta=0.10
     Davidson diagonalization with overlap
     ethr =  3.00E-07,  avg # of iterations =  2.0

     negative rho (up, down):  0.231E+00 0.000E+00

     total cpu time spent up to now is    19970.9 secs

     total energy              =   -2138.31629331 Ry
     Harris-Foulkes estimate   =   -2138.31629920 Ry
     estimated scf accuracy    <       0.00054216 Ry

     iteration # 82     ecut=    40.00 Ry     beta=0.10
     Davidson diagonalization with overlap
     ethr =  2.34E-07,  avg # of iterations =  2.0

     negative rho (up, down):  0.231E+00 0.000E+00

     total cpu time spent up to now is    20208.7 secs

     total energy              =   -2138.31703713 Ry
     Harris-Foulkes estimate   =   -2138.31764057 Ry
     estimated scf accuracy    <       0.00058298 Ry

     iteration # 83     ecut=    40.00 Ry     beta=0.10
     Davidson diagonalization with overlap
     ethr =  2.34E-07,  avg # of iterations =  1.0

     negative rho (up, down):  0.232E+00 0.000E+00

     total cpu time spent up to now is    20442.7 secs

     total energy              =   -2138.31158085 Ry
     Harris-Foulkes estimate   =   -2138.31719370 Ry
     estimated scf accuracy    <       0.00056162 Ry

     iteration # 84     ecut=    40.00 Ry     beta=0.10
     Davidson diagonalization with overlap
     ethr =  2.34E-07,  avg # of iterations =  2.0

     negative rho (up, down):  0.232E+00 0.000E+00

     total cpu time spent up to now is    20688.0 secs

     total energy              =   -2138.31520517 Ry
     Harris-Foulkes estimate   =   -2138.31471419 Ry
     estimated scf accuracy    <       0.00176901 Ry

     iteration # 85     ecut=    40.00 Ry     beta=0.10
     Davidson diagonalization with overlap
     ethr =  2.34E-07,  avg # of iterations =  2.0

     negative rho (up, down):  0.231E+00 0.000E+00

     total cpu time spent up to now is    20933.7 secs

     total energy              =   -2138.31594958 Ry
     Harris-Foulkes estimate   =   -2138.31560199 Ry
     estimated scf accuracy    <       0.00159631 Ry

     iteration # 86     ecut=    40.00 Ry     beta=0.10
     Davidson diagonalization with overlap
     ethr =  2.34E-07,  avg # of iterations =  2.0

     negative rho (up, down):  0.231E+00 0.000E+00

     total cpu time spent up to now is    21183.3 secs

     total energy              =   -2138.31708311 Ry
     Harris-Foulkes estimate   =   -2138.31688508 Ry
     estimated scf accuracy    <       0.00158334 Ry

     iteration # 87     ecut=    40.00 Ry     beta=0.10
     Davidson diagonalization with overlap
     ethr =  2.34E-07,  avg # of iterations =  2.0

     negative rho (up, down):  0.231E+00 0.000E+00

     total cpu time spent up to now is    21438.2 secs

     total energy              =   -2138.31643362 Ry
     Harris-Foulkes estimate   =   -2138.31741877 Ry
     estimated scf accuracy    <       0.00120894 Ry

     iteration # 88     ecut=    40.00 Ry     beta=0.10
     Davidson diagonalization with overlap
     ethr =  2.34E-07,  avg # of iterations =  2.0

     negative rho (up, down):  0.231E+00 0.000E+00

     total cpu time spent up to now is    21678.3 secs

     total energy              =   -2138.31703758 Ry
     Harris-Foulkes estimate   =   -2138.31676716 Ry
     estimated scf accuracy    <       0.00099639 Ry

     iteration # 89     ecut=    40.00 Ry     beta=0.10
     Davidson diagonalization with overlap
     ethr =  2.34E-07,  avg # of iterations =  1.0

     negative rho (up, down):  0.231E+00 0.000E+00

     total cpu time spent up to now is    21910.1 secs

     total energy              =   -2138.31687143 Ry
     Harris-Foulkes estimate   =   -2138.31719006 Ry
     estimated scf accuracy    <       0.00111514 Ry

     iteration # 90     ecut=    40.00 Ry     beta=0.10
     Davidson diagonalization with overlap
     ethr =  2.34E-07,  avg # of iterations =  1.0

     negative rho (up, down):  0.231E+00 0.000E+00

     total cpu time spent up to now is    22142.3 secs

     total energy              =   -2138.31637948 Ry
     Harris-Foulkes estimate   =   -2138.31694140 Ry
     estimated scf accuracy    <       0.00105659 Ry

     iteration # 91     ecut=    40.00 Ry     beta=0.10
     Davidson diagonalization with overlap
     ethr =  2.34E-07,  avg # of iterations =  2.0

     negative rho (up, down):  0.231E+00 0.000E+00

     total cpu time spent up to now is    22379.3 secs

     total energy              =   -2138.31666669 Ry
     Harris-Foulkes estimate   =   -2138.31665304 Ry
     estimated scf accuracy    <       0.00096559 Ry

     iteration # 92     ecut=    40.00 Ry     beta=0.10
     Davidson diagonalization with overlap
     ethr =  2.34E-07,  avg # of iterations =  2.0

     negative rho (up, down):  0.231E+00 0.000E+00

     total cpu time spent up to now is    22621.6 secs

     total energy              =   -2138.31283205 Ry
     Harris-Foulkes estimate   =   -2138.31801209 Ry
     estimated scf accuracy    <       0.00104127 Ry

     iteration # 93     ecut=    40.00 Ry     beta=0.10
     Davidson diagonalization with overlap
     ethr =  2.34E-07,  avg # of iterations =  2.0

     negative rho (up, down):  0.231E+00 0.000E+00

     total cpu time spent up to now is    22871.3 secs

     total energy              =   -2138.31620938 Ry
     Harris-Foulkes estimate   =   -2138.31594914 Ry
     estimated scf accuracy    <       0.00155814 Ry

     iteration # 94     ecut=    40.00 Ry     beta=0.10
     Davidson diagonalization with overlap
     ethr =  2.34E-07,  avg # of iterations =  2.0

     negative rho (up, down):  0.232E+00 0.000E+00

     total cpu time spent up to now is    23115.8 secs

     total energy              =   -2138.31070086 Ry
     Harris-Foulkes estimate   =   -2138.31682003 Ry
     estimated scf accuracy    <       0.00110390 Ry

     iteration # 95     ecut=    40.00 Ry     beta=0.10
     Davidson diagonalization with overlap
     ethr =  2.34E-07,  avg # of iterations =  2.0

     negative rho (up, down):  0.231E+00 0.000E+00

     total cpu time spent up to now is    23366.0 secs

     total energy              =   -2138.30324570 Ry
     Harris-Foulkes estimate   =   -2138.31464725 Ry
     estimated scf accuracy    <       0.00187944 Ry

     iteration # 96     ecut=    40.00 Ry     beta=0.10
     Davidson diagonalization with overlap
     ethr =  2.34E-07,  avg # of iterations =  3.0

     negative rho (up, down):  0.231E+00 0.000E+00

     total cpu time spent up to now is    23644.9 secs

     total energy              =   -2138.31994228 Ry
     Harris-Foulkes estimate   =   -2138.31976058 Ry
     estimated scf accuracy    <       0.00182129 Ry

     iteration # 97     ecut=    40.00 Ry     beta=0.10
     Davidson diagonalization with overlap
     ethr =  2.34E-07,  avg # of iterations =  1.0

     negative rho (up, down):  0.231E+00 0.000E+00

     total cpu time spent up to now is    23886.7 secs

     total energy              =   -2138.32015125 Ry
     Harris-Foulkes estimate   =   -2138.32008683 Ry
     estimated scf accuracy    <       0.00385808 Ry

     iteration # 98     ecut=    40.00 Ry     beta=0.10
     Davidson diagonalization with overlap
     ethr =  2.34E-07,  avg # of iterations =  1.0

     negative rho (up, down):  0.231E+00 0.000E+00

     total cpu time spent up to now is    24129.5 secs

     total energy              =   -2138.32049629 Ry
     Harris-Foulkes estimate   =   -2138.32016465 Ry
     estimated scf accuracy    <       0.00368527 Ry

     iteration # 99     ecut=    40.00 Ry     beta=0.10
     Davidson diagonalization with overlap
     ethr =  2.34E-07,  avg # of iterations =  2.0

     negative rho (up, down):  0.231E+00 0.000E+00

     total cpu time spent up to now is    24378.2 secs

     total energy              =   -2138.32002951 Ry
     Harris-Foulkes estimate   =   -2138.32074200 Ry
     estimated scf accuracy    <       0.00768514 Ry

     iteration #100     ecut=    40.00 Ry     beta=0.10
     Davidson diagonalization with overlap
     ethr =  2.34E-07,  avg # of iterations =  2.0

     negative rho (up, down):  0.231E+00 0.000E+00

     total cpu time spent up to now is    24623.9 secs

     total energy              =   -2138.32037055 Ry
     Harris-Foulkes estimate   =   -2138.32031632 Ry
     estimated scf accuracy    <       0.00738792 Ry

     End of self-consistent calculation

     convergence NOT achieved after 100 iterations: stopping

     init_run     :    143.67s CPU    146.84s WALL (       1 calls)
     electrons    :  23786.96s CPU  24475.50s WALL (       1 calls)

     Called by init_run:
     wfcinit      :     38.77s CPU     40.47s WALL (       1 calls)
     potinit      :      7.60s CPU      7.67s WALL (       1 calls)

     Called by electrons:
     c_bands      :   9804.25s CPU  10148.38s WALL (     100 calls)
     sum_band     :   5311.05s CPU   5467.16s WALL (     100 calls)
     v_of_rho     :     97.88s CPU    105.86s WALL (     101 calls)
     newd         :   8553.62s CPU   8636.03s WALL (     101 calls)
     mix_rho      :     21.43s CPU     22.17s WALL (     100 calls)

     Called by c_bands:
     init_us_2    :     22.84s CPU     23.01s WALL (     606 calls)
     cegterg      :   9563.11s CPU   9821.83s WALL (     300 calls)

     Called by *egterg:
     h_psi        :   5705.20s CPU   5874.21s WALL (     849 calls)
     s_psi        :    654.71s CPU    663.51s WALL (     852 calls)
     g_psi        :     11.54s CPU     11.55s WALL (     546 calls)
     cdiaghg      :    790.33s CPU    792.03s WALL (     846 calls)

     Called by h_psi:
     add_vuspsi   :    656.12s CPU    666.23s WALL (     849 calls)
     vhpsi        :    510.17s CPU    521.09s WALL (     849 calls)

     General routines
     calbec       :   1341.46s CPU   1367.02s WALL (    2301 calls)
     fft          :    147.14s CPU    201.12s WALL (    1614 calls)
     ffts         :      1.70s CPU      1.73s WALL (     201 calls)
     fftw         :   3323.95s CPU   3512.14s WALL (  534854 calls)
     interpolate  :     14.86s CPU     15.00s WALL (     201 calls)
     davcio       :      0.04s CPU     12.33s WALL (     612 calls)

     Parallel routines
     fft_scatter  :   1241.06s CPU   1477.94s WALL (  536669 calls)
     Hubbard U routines
     new_ns       :    128.05s CPU    137.14s WALL (     100 calls)
     vhpsi        :    510.17s CPU    521.09s WALL (     849 calls)

     PWSCF        :     6h38m CPU        6h50m WALL


   This run was terminated on:  13: 8:52  21May2014            

=------------------------------------------------------------------------------=
   JOB DONE.
=------------------------------------------------------------------------------=
STOP 1
STOP 1
STOP 1
STOP 1
STOP 1
STOP 1
STOP 1
STOP 1
STOP 1
STOP 1
STOP 1
STOP 1
STOP 1
STOP 1
STOP 1
STOP 1
--------------------------------------------------------------------------
mpirun noticed that the job aborted, but has no info as to the process
that caused that situation.
--------------------------------------------------------------------------
---------------------------------------
Running PBS batch system epilogue script
Job id: 363700.audhumbla.fysik.dtu.dk
Username: zhonxu
Groupname: campgst
Jobname: ReO2/Eads-2-layers/bare-U-7.5
Sessionid: 23124
Resources limits: neednodes=2:ppn=8:xeon8,nodes=2:ppn=8:xeon8,walltime=48:00:00
Resources used: cput=109:12:17,mem=16687740kb,vmem=20336076kb,walltime=06:50:35
Queuename: verylong
Accounting:
This job has allocated the following 16 nodes:
d041 d041 d041 d041 d041 d041 d041 d041 d040 d040 d040 d040 d040 d040 d040 d040
Finished epilogue job 363700.audhumbla.fysik.dtu.dk for zhonxu
