
     Program PWSCF v.5.0.2 (svn rev. 9656) starts on 26Apr2014 at 23:23: 1 

     This program is part of the open-source Quantum ESPRESSO suite
     for quantum simulation of materials; please cite
         "P. Giannozzi et al., J. Phys.:Condens. Matter 21 395502 (2009);
          URL http://www.quantum-espresso.org", 
     in publications or presentations arising from this work. More details at
     http://www.quantum-espresso.org/quote.php

     Parallel version (MPI), running on    16 processors
     K-points division:     npool     =       4
     R & G space division:  proc/nbgrp/npool/nimage =       4

     Current dimensions of program PWSCF are:
     Max number of different atomic species (ntypx) = 10
     Max number of k-points (npk) =  40000
     Max angular momentum in pseudopotentials (lmaxx) =  3
     Reading input from pwscf.in
Warning: card &CELL ignored
Warning: card / ignored

     Subspace diagonalization in iterative solution of the eigenvalue problem:
     a serial algorithm will be used


     Parallelization info
     --------------------
     sticks:   dense  smooth     PW     G-vecs:    dense   smooth      PW
     Min        1419     456    126               336167    60843    9016
     Max        1420     457    127               336172    60875    9024
     Sum        5677    1827    505              1344679   243423   36075



     bravais-lattice index     =            0
     lattice parameter (alat)  =      11.7919  a.u.
     unit-cell volume          =    7123.6633 (a.u.)^3
     number of atoms/cell      =           31
     number of atomic types    =            3
     number of electrons       =       246.00
     number of Kohn-Sham states=          357
     kinetic-energy cutoff     =      40.0000  Ry
     charge density cutoff     =     500.0000  Ry
     convergence threshold     =      1.0E-06
     mixing beta               =       0.7000
     number of iterations used =            8  plain     mixing
     Exchange-correlation      = SLA  PW   PBE  PBE ( 1 4 3 4 0)
     EXX-fraction              =        0.00
     nstep                     =           50


     celldm(1)=  11.791891  celldm(2)=   0.000000  celldm(3)=   0.000000
     celldm(4)=   0.000000  celldm(5)=   0.000000  celldm(6)=   0.000000

     crystal axes: (cart. coord. in units of alat)
               a(1) = (   1.000000   0.000000   0.000000 )  
               a(2) = (   0.000000   1.026665   0.000000 )  
               a(3) = (   0.000000   0.000000   4.231793 )  

     reciprocal axes: (cart. coord. in units 2 pi/alat)
               b(1) = (  1.000000  0.000000  0.000000 )  
               b(2) = (  0.000000  0.974028  0.000000 )  
               b(3) = (  0.000000  0.000000  0.236306 )  


     PseudoPot. # 1 for O  read from file:
     /home/camp/zhonxu/pseudo/o_pbe_v1.01.uspp.F.UPF
     MD5 check sum: 2bcb18d16ea4b960afae9ec6d52f22d2
     Pseudo is Ultrasoft + core correction, Zval =  6.0
     Generated by new atomic code, or converted to UPF format
     Using radial grid of  737 points,  5 beta functions with: 
                l(1) =   0
                l(2) =   0
                l(3) =   1
                l(4) =   1
                l(5) =   2
     Q(r) pseudized with  8 coefficients,  rinner =    0.900   0.900   0.900
                                                       0.900   0.900

     PseudoPot. # 2 for Ru read from file:
     /home/camp/zhonxu/pseudo/ru_pbe_v1.uspp.F.UPF
     MD5 check sum: df00be1c11b23341d9806d8f1dfa10cf
     Pseudo is Ultrasoft + core correction, Zval = 16.0
     Generated by new atomic code, or converted to UPF format
     Using radial grid of  967 points,  6 beta functions with: 
                l(1) =   0
                l(2) =   0
                l(3) =   1
                l(4) =   1
                l(5) =   2
                l(6) =   2
     Q(r) pseudized with  8 coefficients,  rinner =    1.300   1.300   1.300
                                                       1.300   1.300

     PseudoPot. # 3 for H  read from file:
     /home/camp/zhonxu/pseudo/h_pbe_v1.uspp.F.UPF
     MD5 check sum: 3408e3ff4ec8b0a4e358431e7e038a48
     Pseudo is Ultrasoft, Zval =  1.0
     Generated by new atomic code, or converted to UPF format
     Using radial grid of  615 points,  2 beta functions with: 
                l(1) =   0
                l(2) =   0
     Q(r) pseudized with  8 coefficients,  rinner =    0.700

     atomic species   valence    mass     pseudopotential
        O0             6.00    15.99940     O ( 1.00)
        Ru1           16.00   101.07000     Ru( 1.00)
        H2             1.00     1.00794     H ( 1.00)


     Simplified LDA+U calculation (l_max = 2) with parameters (eV):
     atomic species    L          U    alpha       J0     beta
        Ru1            2     4.5000   0.0000   0.0000   0.0000



     No symmetry found



   Cartesian axes

     site n.     atom                  positions (alat units)
         1           O0  tau(   1) = (   0.0000000   0.0000000   1.6006333  )
         2           O0  tau(   2) = (   0.0000000   0.5133323   1.7090519  )
         3           Ru1 tau(   3) = (   0.2500000   0.5133323   1.9249579  )
         4           Ru1 tau(   4) = (   0.0000000   0.0000000   1.9138706  )
         5           O0  tau(   5) = (   0.2500000   0.8315984   1.9151825  )
         6           O0  tau(   6) = (   0.2500000   0.1950663   1.9148016  )
         7           O0  tau(   7) = (   0.0000000   0.5133323   2.1086177  )
         8           O0  tau(   8) = (   0.0000000   0.0000000   2.2256691  )
         9           Ru1 tau(   9) = (   0.2500000   0.0000000   2.4381898  )
        10           Ru1 tau(  10) = (   0.0000000   0.5133323   2.4080594  )
        11           O0  tau(  11) = (   0.2500000   0.7083986   2.4344235  )
        12           O0  tau(  12) = (   0.2500000   0.3182660   2.4336618  )
        13           O0  tau(  13) = (   0.0000000   0.0000000   2.6157981  )
        14           O0  tau(  14) = (   0.5000000   0.0000000   1.6005064  )
        15           O0  tau(  15) = (   0.5000000   0.5133323   1.7116333  )
        16           Ru1 tau(  16) = (   0.7500000   0.5133323   1.9249156  )
        17           Ru1 tau(  17) = (   0.5000000   0.0000000   1.9130666  )
        18           O0  tau(  18) = (   0.7500000   0.8315984   1.9150979  )
        19           O0  tau(  19) = (   0.7500000   0.1950663   1.9148440  )
        20           O0  tau(  20) = (   0.5000000   0.5133323   2.1279570  )
        21           O0  tau(  21) = (   0.5000000   0.0000000   2.2254152  )
        22           Ru1 tau(  22) = (   0.7500000   0.0000000   2.4382321  )
        23           Ru1 tau(  23) = (   0.5000000   0.5133323   2.4678123  )
        24           O0  tau(  24) = (   0.7500000   0.7083986   2.4345927  )
        25           O0  tau(  25) = (   0.7500000   0.3182660   2.4334925  )
        26           O0  tau(  26) = (   0.5000000   0.0000000   2.6078847  )
        27           H2  tau(  27) = (  -0.0002600   0.6438727   1.6192532  )
        28           H2  tau(  28) = (   0.4995800   0.6393041   1.6156985  )
        29           H2  tau(  29) = (   0.1450800   0.0331921   1.5470588  )
        30           H2  tau(  30) = (   0.6459600   0.0301326   1.5471435  )
        31           O0  tau(  31) = (   0.5000500   0.5106527   2.7413977  )

     number of k points=    10  Methfessel-Paxton smearing, width (Ry)=  0.0100
                       cart. coord. in units 2pi/alat
        k(    1) = (   0.0000000   0.0000000   0.0000000), wk =   0.1250000
        k(    2) = (   0.0000000   0.2435070   0.0000000), wk =   0.2500000
        k(    3) = (   0.0000000  -0.4870139   0.0000000), wk =   0.1250000
        k(    4) = (   0.2500000   0.0000000   0.0000000), wk =   0.2500000
        k(    5) = (   0.2500000   0.2435070   0.0000000), wk =   0.2500000
        k(    6) = (   0.2500000  -0.4870139   0.0000000), wk =   0.2500000
        k(    7) = (  -0.5000000   0.0000000   0.0000000), wk =   0.1250000
        k(    8) = (  -0.5000000   0.2435070   0.0000000), wk =   0.2500000
        k(    9) = (  -0.5000000  -0.4870139   0.0000000), wk =   0.1250000
        k(   10) = (  -0.2500000   0.2435070   0.0000000), wk =   0.2500000

     Dense  grid:  1344679 G-vectors     FFT dimensions: (  90,  90, 360)

     Smooth grid:   243423 G-vectors     FFT dimensions: (  48,  50, 216)

     Largest allocated arrays     est. size (Mb)     dimensions
        Kohn-Sham Wavefunctions        41.57 Mb     (   7632,  357)
        Atomic wavefunctions           21.43 Mb     (   7632,  184)
        NL pseudopotentials            46.47 Mb     (   7632,  399)
        Each V/rho on FFT grid         11.12 Mb     ( 729000)
        Each G-vector array             2.56 Mb     ( 336169)
        G-vector shells                 1.12 Mb     ( 146910)
     Largest temporary arrays     est. size (Mb)     dimensions
        Auxiliary wavefunctions       166.30 Mb     (   7632, 1428)
        Each subspace H/S matrix       31.12 Mb     (1428,1428)
        Each <psi_i|beta_j> matrix      2.17 Mb     (    399,  357)
        Arrays for rho mixing          88.99 Mb     ( 729000,   8)

     Check: negative/imaginary core charge=   -0.000003    0.000000

     Initial potential from superposition of free atoms
     Check: negative starting charge=   -0.520948

     starting charge  237.99981, renormalised to  246.00000

     negative rho (up, down):  0.538E+00 0.000E+00
     Number of +U iterations with fixed ns =  0
     Starting occupations:
 --- enter write_ns ---
 LDA+U parameters:
U( 2)     =  4.50000000
alpha( 2) =  0.00000000
atom    3   Tr[ns(na)] =   6.00000
    eigenvalues: 
  0.600  0.600  0.600  0.600  0.600
    eigenvectors:
  1.000  0.000  0.000  0.000  0.000
  0.000  1.000  0.000  0.000  0.000
  0.000  0.000  1.000  0.000  0.000
  0.000  0.000  0.000  1.000  0.000
  0.000  0.000  0.000  0.000  1.000
    occupations:
  0.600  0.000  0.000  0.000  0.000
  0.000  0.600  0.000  0.000  0.000
  0.000  0.000  0.600  0.000  0.000
  0.000  0.000  0.000  0.600  0.000
  0.000  0.000  0.000  0.000  0.600
atom    4   Tr[ns(na)] =   6.00000
    eigenvalues: 
  0.600  0.600  0.600  0.600  0.600
    eigenvectors:
  1.000  0.000  0.000  0.000  0.000
  0.000  1.000  0.000  0.000  0.000
  0.000  0.000  1.000  0.000  0.000
  0.000  0.000  0.000  1.000  0.000
  0.000  0.000  0.000  0.000  1.000
    occupations:
  0.600  0.000  0.000  0.000  0.000
  0.000  0.600  0.000  0.000  0.000
  0.000  0.000  0.600  0.000  0.000
  0.000  0.000  0.000  0.600  0.000
  0.000  0.000  0.000  0.000  0.600
atom    9   Tr[ns(na)] =   6.00000
    eigenvalues: 
  0.600  0.600  0.600  0.600  0.600
    eigenvectors:
  1.000  0.000  0.000  0.000  0.000
  0.000  1.000  0.000  0.000  0.000
  0.000  0.000  1.000  0.000  0.000
  0.000  0.000  0.000  1.000  0.000
  0.000  0.000  0.000  0.000  1.000
    occupations:
  0.600  0.000  0.000  0.000  0.000
  0.000  0.600  0.000  0.000  0.000
  0.000  0.000  0.600  0.000  0.000
  0.000  0.000  0.000  0.600  0.000
  0.000  0.000  0.000  0.000  0.600
atom   10   Tr[ns(na)] =   6.00000
    eigenvalues: 
  0.600  0.600  0.600  0.600  0.600
    eigenvectors:
  1.000  0.000  0.000  0.000  0.000
  0.000  1.000  0.000  0.000  0.000
  0.000  0.000  1.000  0.000  0.000
  0.000  0.000  0.000  1.000  0.000
  0.000  0.000  0.000  0.000  1.000
    occupations:
  0.600  0.000  0.000  0.000  0.000
  0.000  0.600  0.000  0.000  0.000
  0.000  0.000  0.600  0.000  0.000
  0.000  0.000  0.000  0.600  0.000
  0.000  0.000  0.000  0.000  0.600
atom   16   Tr[ns(na)] =   6.00000
    eigenvalues: 
  0.600  0.600  0.600  0.600  0.600
    eigenvectors:
  1.000  0.000  0.000  0.000  0.000
  0.000  1.000  0.000  0.000  0.000
  0.000  0.000  1.000  0.000  0.000
  0.000  0.000  0.000  1.000  0.000
  0.000  0.000  0.000  0.000  1.000
    occupations:
  0.600  0.000  0.000  0.000  0.000
  0.000  0.600  0.000  0.000  0.000
  0.000  0.000  0.600  0.000  0.000
  0.000  0.000  0.000  0.600  0.000
  0.000  0.000  0.000  0.000  0.600
atom   17   Tr[ns(na)] =   6.00000
    eigenvalues: 
  0.600  0.600  0.600  0.600  0.600
    eigenvectors:
  1.000  0.000  0.000  0.000  0.000
  0.000  1.000  0.000  0.000  0.000
  0.000  0.000  1.000  0.000  0.000
  0.000  0.000  0.000  1.000  0.000
  0.000  0.000  0.000  0.000  1.000
    occupations:
  0.600  0.000  0.000  0.000  0.000
  0.000  0.600  0.000  0.000  0.000
  0.000  0.000  0.600  0.000  0.000
  0.000  0.000  0.000  0.600  0.000
  0.000  0.000  0.000  0.000  0.600
atom   22   Tr[ns(na)] =   6.00000
    eigenvalues: 
  0.600  0.600  0.600  0.600  0.600
    eigenvectors:
  1.000  0.000  0.000  0.000  0.000
  0.000  1.000  0.000  0.000  0.000
  0.000  0.000  1.000  0.000  0.000
  0.000  0.000  0.000  1.000  0.000
  0.000  0.000  0.000  0.000  1.000
    occupations:
  0.600  0.000  0.000  0.000  0.000
  0.000  0.600  0.000  0.000  0.000
  0.000  0.000  0.600  0.000  0.000
  0.000  0.000  0.000  0.600  0.000
  0.000  0.000  0.000  0.000  0.600
atom   23   Tr[ns(na)] =   6.00000
    eigenvalues: 
  0.600  0.600  0.600  0.600  0.600
    eigenvectors:
  1.000  0.000  0.000  0.000  0.000
  0.000  1.000  0.000  0.000  0.000
  0.000  0.000  1.000  0.000  0.000
  0.000  0.000  0.000  1.000  0.000
  0.000  0.000  0.000  0.000  1.000
    occupations:
  0.600  0.000  0.000  0.000  0.000
  0.000  0.600  0.000  0.000  0.000
  0.000  0.000  0.600  0.000  0.000
  0.000  0.000  0.000  0.600  0.000
  0.000  0.000  0.000  0.000  0.600
N of occupied +U levels =  48.0000000
 --- exit write_ns ---
 Atomic wfc used for LDA+U Projector are NOT orthogonalized
     Starting wfc are  184 randomized atomic wfcs

     total cpu time spent up to now is      110.0 secs

     per-process dynamical memory:   399.8 Mb

     Self-consistent Calculation

     iteration #  1     ecut=    40.00 Ry     beta=0.70
     Davidson diagonalization with overlap
     ethr =  1.00E-02,  avg # of iterations =  6.0
 --- enter write_ns ---
 LDA+U parameters:
U( 2)     =  4.50000000
alpha( 2) =  0.00000000
atom    3   Tr[ns(na)] =   4.49686
    eigenvalues: 
  0.391  0.414  0.423  0.457  0.564
    eigenvectors:
  0.069  0.090  0.146  0.403  0.292
  0.446  0.502  0.048  0.004  0.000
  0.024  0.011  0.000  0.328  0.636
  0.135  0.003  0.785  0.029  0.048
  0.326  0.393  0.020  0.236  0.024
    occupations:
  0.475 -0.006  0.050 -0.017  0.029
 -0.006  0.404  0.002  0.008  0.007
  0.050  0.002  0.523 -0.023  0.005
 -0.017  0.008 -0.023  0.427 -0.015
  0.029  0.007  0.005 -0.015  0.420
atom    4   Tr[ns(na)] =   3.73637
    eigenvalues: 
  0.308  0.322  0.368  0.413  0.457
    eigenvectors:
  0.003  0.007  0.007  0.000  0.983
  0.110  0.849  0.034  0.000  0.007
  0.887  0.111  0.002  0.000  0.001
  0.000  0.032  0.957  0.000  0.010
  0.000  0.000  0.000  1.000  0.000
    occupations:
  0.455  0.012  0.004  0.010  0.000
  0.012  0.323 -0.004 -0.007 -0.001
  0.004 -0.004  0.309  0.002  0.001
  0.010 -0.007  0.002  0.368  0.000
  0.000 -0.001  0.001  0.000  0.413
atom    9   Tr[ns(na)] =   7.52115
    eigenvalues: 
  0.434  0.459  0.944  0.959  0.964
    eigenvectors:
  0.004  0.129  0.000  0.867  0.001
  0.985  0.014  0.000  0.000  0.000
  0.000  0.000  0.010  0.001  0.989
  0.011  0.857  0.000  0.132  0.000
  0.000  0.000  0.990  0.000  0.010
    occupations:
  0.893 -0.010  0.000 -0.169  0.000
 -0.010  0.435  0.000  0.001 -0.000
  0.000  0.000  0.964  0.001  0.002
 -0.169  0.001  0.001  0.525 -0.000
  0.000 -0.000  0.002 -0.000  0.944
atom   10   Tr[ns(na)] =   7.87321
    eigenvalues: 
  0.434  0.626  0.946  0.963  0.967
    eigenvectors:
  0.000  0.979  0.000  0.021  0.000
  0.000  0.000  0.000  0.000  1.000
  0.000  0.000  0.999  0.001  0.000
  0.000  0.021  0.001  0.978  0.000
  1.000  0.000  0.000  0.000  0.000
    occupations:
  0.633 -0.000  0.001  0.049  0.000
 -0.000  0.967 -0.000 -0.000  0.001
  0.001 -0.000  0.946  0.000 -0.000
  0.049 -0.000  0.000  0.956  0.000
  0.000  0.001 -0.000  0.000  0.434
atom   16   Tr[ns(na)] =   4.49521
    eigenvalues: 
  0.391  0.414  0.423  0.454  0.565
    eigenvectors:
  0.065  0.084  0.138  0.424  0.289
  0.459  0.483  0.052  0.006  0.000
  0.016  0.004  0.001  0.351  0.628
  0.133  0.002  0.791  0.027  0.047
  0.327  0.427  0.019  0.191  0.036
    occupations:
  0.474  0.006  0.050 -0.017 -0.030
  0.006  0.404 -0.002 -0.008  0.007
  0.050 -0.002  0.523 -0.023 -0.011
 -0.017 -0.008 -0.023  0.426  0.015
 -0.030  0.007 -0.011  0.015  0.420
atom   17   Tr[ns(na)] =   3.65257
    eigenvalues: 
  0.302  0.320  0.339  0.409  0.456
    eigenvectors:
  0.001  0.008  0.000  0.000  0.990
  0.041  0.748  0.203  0.000  0.007
  0.955  0.025  0.020  0.000  0.000
  0.003  0.218  0.777  0.000  0.002
  0.000  0.000  0.000  1.000  0.000
    occupations:
  0.455  0.012  0.004  0.006  0.000
  0.012  0.324 -0.004 -0.007 -0.001
  0.004 -0.004  0.304  0.003  0.001
  0.006 -0.007  0.003  0.335 -0.000
  0.000 -0.001  0.001 -0.000  0.409
atom   22   Tr[ns(na)] =   7.52088
    eigenvalues: 
  0.434  0.459  0.944  0.959  0.964
    eigenvectors:
  0.003  0.129  0.000  0.868  0.001
  0.986  0.013  0.000  0.000  0.000
  0.000  0.000  0.010  0.001  0.989
  0.010  0.858  0.000  0.132  0.000
  0.000  0.000  0.990  0.000  0.010
    occupations:
  0.893  0.009  0.000 -0.169  0.000
  0.009  0.435 -0.001 -0.000 -0.000
  0.000 -0.001  0.964  0.001 -0.002
 -0.169 -0.000  0.001  0.525 -0.000
  0.000 -0.000 -0.002 -0.000  0.944
atom   23   Tr[ns(na)] =   7.39976
    eigenvalues: 
  0.412  0.509  0.897  0.926  0.956
    eigenvectors:
  0.000  0.991  0.000  0.000  0.009
  0.000  0.000  0.000  1.000  0.000
  0.000  0.000  0.999  0.000  0.000
  0.000  0.009  0.001  0.000  0.991
  1.000  0.000  0.000  0.000  0.000
    occupations:
  0.513  0.000 -0.005  0.042 -0.000
  0.000  0.926  0.000  0.000 -0.000
 -0.005  0.000  0.897 -0.001 -0.000
  0.042  0.000 -0.001  0.952  0.000
 -0.000 -0.000 -0.000  0.000  0.412
N of occupied +U levels =  46.6960077
 --- exit write_ns ---

     negative rho (up, down):  0.625E+00 0.000E+00

     total cpu time spent up to now is      465.8 secs

     total energy              =   -2115.43630438 Ry
     Harris-Foulkes estimate   =   -2164.51089623 Ry
     estimated scf accuracy    <      56.67325893 Ry

     iteration #  2     ecut=    40.00 Ry     beta=0.70
     Davidson diagonalization with overlap
     ethr =  1.00E-02,  avg # of iterations =  6.1

     negative rho (up, down):  0.607E+00 0.000E+00

     total cpu time spent up to now is      821.0 secs

     total energy              =   -1913.91893572 Ry
     Harris-Foulkes estimate   =   -2555.50169026 Ry
     estimated scf accuracy    <    6500.26090447 Ry

     iteration #  3     ecut=    40.00 Ry     beta=0.70
     Davidson diagonalization with overlap
     ethr =  1.00E-02,  avg # of iterations =  6.0

     negative rho (up, down):  0.571E+00 0.000E+00

     total cpu time spent up to now is     1199.8 secs

     total energy              =   -2142.74731155 Ry
     Harris-Foulkes estimate   =   -2199.66223224 Ry
     estimated scf accuracy    <     254.87960603 Ry

     iteration #  4     ecut=    40.00 Ry     beta=0.70
     Davidson diagonalization with overlap
     ethr =  1.00E-02,  avg # of iterations =  5.0

     negative rho (up, down):  0.555E+00 0.000E+00

     total cpu time spent up to now is     1423.0 secs

     total energy              =   -2155.86449113 Ry
     Harris-Foulkes estimate   =   -2167.26997006 Ry
     estimated scf accuracy    <      51.48794917 Ry

     iteration #  5     ecut=    40.00 Ry     beta=0.70
     Davidson diagonalization with overlap
     ethr =  1.00E-02,  avg # of iterations =  2.4

     negative rho (up, down):  0.557E+00 0.000E+00

     total cpu time spent up to now is     1597.7 secs

     total energy              =   -2161.80107536 Ry
     Harris-Foulkes estimate   =   -2162.82443042 Ry
     estimated scf accuracy    <      47.08320535 Ry

     iteration #  6     ecut=    40.00 Ry     beta=0.70
     Davidson diagonalization with overlap
     ethr =  1.00E-02,  avg # of iterations =  1.0

     negative rho (up, down):  0.559E+00 0.000E+00

     total cpu time spent up to now is     1764.8 secs

     total energy              =   -2161.66594621 Ry
     Harris-Foulkes estimate   =   -2161.95038929 Ry
     estimated scf accuracy    <      33.92152325 Ry

     iteration #  7     ecut=    40.00 Ry     beta=0.70
     Davidson diagonalization with overlap
     ethr =  1.00E-02,  avg # of iterations =  1.0

     negative rho (up, down):  0.566E+00 0.000E+00

     total cpu time spent up to now is     1931.5 secs

     total energy              =   -2160.99149760 Ry
     Harris-Foulkes estimate   =   -2161.72798540 Ry
     estimated scf accuracy    <      26.68137380 Ry

     iteration #  8     ecut=    40.00 Ry     beta=0.70
     Davidson diagonalization with overlap
     ethr =  1.00E-02,  avg # of iterations =  1.0

     negative rho (up, down):  0.569E+00 0.000E+00

     total cpu time spent up to now is     2096.9 secs

     total energy              =   -2160.84265006 Ry
     Harris-Foulkes estimate   =   -2161.35102173 Ry
     estimated scf accuracy    <       8.47003052 Ry

     iteration #  9     ecut=    40.00 Ry     beta=0.70
     Davidson diagonalization with overlap
     ethr =  3.44E-03,  avg # of iterations =  1.2

     negative rho (up, down):  0.573E+00 0.000E+00

     total cpu time spent up to now is     2263.2 secs

     total energy              =   -2160.94588396 Ry
     Harris-Foulkes estimate   =   -2161.14817223 Ry
     estimated scf accuracy    <       4.70327290 Ry

     iteration # 10     ecut=    40.00 Ry     beta=0.70
     Davidson diagonalization with overlap
     ethr =  1.91E-03,  avg # of iterations =  3.6

     negative rho (up, down):  0.577E+00 0.000E+00

     total cpu time spent up to now is     2442.1 secs

     total energy              =   -2160.77109961 Ry
     Harris-Foulkes estimate   =   -2161.27262554 Ry
     estimated scf accuracy    <       3.86463730 Ry

     iteration # 11     ecut=    40.00 Ry     beta=0.70
     Davidson diagonalization with overlap
     ethr =  1.57E-03,  avg # of iterations =  2.2

     negative rho (up, down):  0.576E+00 0.000E+00

     total cpu time spent up to now is     2612.9 secs

     total energy              =   -2160.98336667 Ry
     Harris-Foulkes estimate   =   -2161.14690911 Ry
     estimated scf accuracy    <       1.43911157 Ry

     iteration # 12     ecut=    40.00 Ry     beta=0.70
     Davidson diagonalization with overlap
     ethr =  5.85E-04,  avg # of iterations =  5.2

     negative rho (up, down):  0.574E+00 0.000E+00

     total cpu time spent up to now is     2805.5 secs

     total energy              =   -2160.99939194 Ry
     Harris-Foulkes estimate   =   -2161.08459340 Ry
     estimated scf accuracy    <       0.35444940 Ry

     iteration # 13     ecut=    40.00 Ry     beta=0.70
     Davidson diagonalization with overlap
     ethr =  1.44E-04,  avg # of iterations =  5.1

     negative rho (up, down):  0.572E+00 0.000E+00

     total cpu time spent up to now is     2995.4 secs

     total energy              =   -2160.99004056 Ry
     Harris-Foulkes estimate   =   -2161.10974934 Ry
     estimated scf accuracy    <       0.63429471 Ry

     iteration # 14     ecut=    40.00 Ry     beta=0.70
     Davidson diagonalization with overlap
     ethr =  1.44E-04,  avg # of iterations =  4.2

     negative rho (up, down):  0.573E+00 0.000E+00

     total cpu time spent up to now is     3180.2 secs

     total energy              =   -2160.99688389 Ry
     Harris-Foulkes estimate   =   -2161.12774093 Ry
     estimated scf accuracy    <       0.91990310 Ry

     iteration # 15     ecut=    40.00 Ry     beta=0.70
     Davidson diagonalization with overlap
     ethr =  1.44E-04,  avg # of iterations =  1.8

     negative rho (up, down):  0.573E+00 0.000E+00

     total cpu time spent up to now is     3348.6 secs

     total energy              =   -2161.04986152 Ry
     Harris-Foulkes estimate   =   -2161.06976956 Ry
     estimated scf accuracy    <       0.08520872 Ry

     iteration # 16     ecut=    40.00 Ry     beta=0.70
     Davidson diagonalization with overlap
     ethr =  3.46E-05,  avg # of iterations =  3.4

     negative rho (up, down):  0.574E+00 0.000E+00

     total cpu time spent up to now is     3523.2 secs

     total energy              =   -2161.05675598 Ry
     Harris-Foulkes estimate   =   -2161.06440453 Ry
     estimated scf accuracy    <       0.05224710 Ry

     iteration # 17     ecut=    40.00 Ry     beta=0.70
     Davidson diagonalization with overlap
     ethr =  2.12E-05,  avg # of iterations =  1.4

     negative rho (up, down):  0.574E+00 0.000E+00

     total cpu time spent up to now is     3690.9 secs

     total energy              =   -2161.05626227 Ry
     Harris-Foulkes estimate   =   -2161.06811421 Ry
     estimated scf accuracy    <       0.10186295 Ry

     iteration # 18     ecut=    40.00 Ry     beta=0.70
     Davidson diagonalization with overlap
     ethr =  2.12E-05,  avg # of iterations =  1.0

     negative rho (up, down):  0.574E+00 0.000E+00

     total cpu time spent up to now is     3856.4 secs

     total energy              =   -2161.05968138 Ry
     Harris-Foulkes estimate   =   -2161.06606474 Ry
     estimated scf accuracy    <       0.06419206 Ry

     iteration # 19     ecut=    40.00 Ry     beta=0.70
     Davidson diagonalization with overlap
     ethr =  2.12E-05,  avg # of iterations =  1.0

     negative rho (up, down):  0.573E+00 0.000E+00

     total cpu time spent up to now is     4022.7 secs

     total energy              =   -2161.05803013 Ry
     Harris-Foulkes estimate   =   -2161.06751113 Ry
     estimated scf accuracy    <       0.15839913 Ry

     iteration # 20     ecut=    40.00 Ry     beta=0.70
     Davidson diagonalization with overlap
     ethr =  2.12E-05,  avg # of iterations =  1.0

     negative rho (up, down):  0.574E+00 0.000E+00

     total cpu time spent up to now is     4187.4 secs

     total energy              =   -2161.06202940 Ry
     Harris-Foulkes estimate   =   -2161.06400467 Ry
     estimated scf accuracy    <       0.01587679 Ry

     iteration # 21     ecut=    40.00 Ry     beta=0.70
     Davidson diagonalization with overlap
     ethr =  6.45E-06,  avg # of iterations =  1.0

     negative rho (up, down):  0.574E+00 0.000E+00

     total cpu time spent up to now is     4353.1 secs

     total energy              =   -2161.06181869 Ry
     Harris-Foulkes estimate   =   -2161.06406725 Ry
     estimated scf accuracy    <       0.01587195 Ry

     iteration # 22     ecut=    40.00 Ry     beta=0.70
     Davidson diagonalization with overlap
     ethr =  6.45E-06,  avg # of iterations =  1.0

     negative rho (up, down):  0.574E+00 0.000E+00

     total cpu time spent up to now is     4519.2 secs

     total energy              =   -2161.06284639 Ry
     Harris-Foulkes estimate   =   -2161.06381857 Ry
     estimated scf accuracy    <       0.01314123 Ry

     iteration # 23     ecut=    40.00 Ry     beta=0.70
     Davidson diagonalization with overlap
     ethr =  5.34E-06,  avg # of iterations =  1.0

     negative rho (up, down):  0.574E+00 0.000E+00

     total cpu time spent up to now is     4686.1 secs

     total energy              =   -2161.06290945 Ry
     Harris-Foulkes estimate   =   -2161.06376889 Ry
     estimated scf accuracy    <       0.00313794 Ry

     iteration # 24     ecut=    40.00 Ry     beta=0.70
     Davidson diagonalization with overlap
     ethr =  1.28E-06,  avg # of iterations =  5.9

     negative rho (up, down):  0.574E+00 0.000E+00

     total cpu time spent up to now is     4876.1 secs

     total energy              =   -2161.06217330 Ry
     Harris-Foulkes estimate   =   -2161.06463365 Ry
     estimated scf accuracy    <       0.01412911 Ry

     iteration # 25     ecut=    40.00 Ry     beta=0.70
     Davidson diagonalization with overlap
     ethr =  1.28E-06,  avg # of iterations =  3.9

     negative rho (up, down):  0.574E+00 0.000E+00

     total cpu time spent up to now is     5052.7 secs

     total energy              =   -2161.06332564 Ry
     Harris-Foulkes estimate   =   -2161.06365222 Ry
     estimated scf accuracy    <       0.00370803 Ry

     iteration # 26     ecut=    40.00 Ry     beta=0.70
     Davidson diagonalization with overlap
     ethr =  1.28E-06,  avg # of iterations =  1.0

     negative rho (up, down):  0.574E+00 0.000E+00

     total cpu time spent up to now is     5220.2 secs

     total energy              =   -2161.06336744 Ry
     Harris-Foulkes estimate   =   -2161.06361445 Ry
     estimated scf accuracy    <       0.00393502 Ry

     iteration # 27     ecut=    40.00 Ry     beta=0.70
     Davidson diagonalization with overlap
     ethr =  1.28E-06,  avg # of iterations =  1.0

     negative rho (up, down):  0.574E+00 0.000E+00

     total cpu time spent up to now is     5386.5 secs

     total energy              =   -2161.06328880 Ry
     Harris-Foulkes estimate   =   -2161.06366665 Ry
     estimated scf accuracy    <       0.00277503 Ry

     iteration # 28     ecut=    40.00 Ry     beta=0.70
     Davidson diagonalization with overlap
     ethr =  1.13E-06,  avg # of iterations =  1.0

     negative rho (up, down):  0.574E+00 0.000E+00

     total cpu time spent up to now is     5552.9 secs

     total energy              =   -2161.06319897 Ry
     Harris-Foulkes estimate   =   -2161.06370461 Ry
     estimated scf accuracy    <       0.00419014 Ry

     iteration # 29     ecut=    40.00 Ry     beta=0.70
     Davidson diagonalization with overlap
     ethr =  1.13E-06,  avg # of iterations =  1.0

     negative rho (up, down):  0.574E+00 0.000E+00

     total cpu time spent up to now is     5727.0 secs

     total energy              =   -2161.06325921 Ry
     Harris-Foulkes estimate   =   -2161.06371821 Ry
     estimated scf accuracy    <       0.00616199 Ry

     iteration # 30     ecut=    40.00 Ry     beta=0.70
     Davidson diagonalization with overlap
     ethr =  1.13E-06,  avg # of iterations =  1.0

     negative rho (up, down):  0.574E+00 0.000E+00

     total cpu time spent up to now is     5902.4 secs

     total energy              =   -2161.06349201 Ry
     Harris-Foulkes estimate   =   -2161.06357475 Ry
     estimated scf accuracy    <       0.00088775 Ry

     iteration # 31     ecut=    40.00 Ry     beta=0.70
     Davidson diagonalization with overlap
     ethr =  3.61E-07,  avg # of iterations =  1.0

     negative rho (up, down):  0.574E+00 0.000E+00

     total cpu time spent up to now is     6075.6 secs

     total energy              =   -2161.06346035 Ry
     Harris-Foulkes estimate   =   -2161.06356926 Ry
     estimated scf accuracy    <       0.00098349 Ry

     iteration # 32     ecut=    40.00 Ry     beta=0.70
     Davidson diagonalization with overlap
     ethr =  3.61E-07,  avg # of iterations =  1.0

     negative rho (up, down):  0.574E+00 0.000E+00

     total cpu time spent up to now is     6242.2 secs

     total energy              =   -2161.06334003 Ry
     Harris-Foulkes estimate   =   -2161.06371227 Ry
     estimated scf accuracy    <       0.00336171 Ry

     iteration # 33     ecut=    40.00 Ry     beta=0.70
     Davidson diagonalization with overlap
     ethr =  3.61E-07,  avg # of iterations =  1.0

     negative rho (up, down):  0.574E+00 0.000E+00

     total cpu time spent up to now is     6409.4 secs

     total energy              =   -2161.06350623 Ry
     Harris-Foulkes estimate   =   -2161.06356994 Ry
     estimated scf accuracy    <       0.00066794 Ry

     iteration # 34     ecut=    40.00 Ry     beta=0.70
     Davidson diagonalization with overlap
     ethr =  2.72E-07,  avg # of iterations =  1.0

     negative rho (up, down):  0.574E+00 0.000E+00

     total cpu time spent up to now is     6578.3 secs

     total energy              =   -2161.06349402 Ry
     Harris-Foulkes estimate   =   -2161.06358820 Ry
     estimated scf accuracy    <       0.00068419 Ry

     iteration # 35     ecut=    40.00 Ry     beta=0.70
     Davidson diagonalization with overlap
     ethr =  2.72E-07,  avg # of iterations =  1.0

     negative rho (up, down):  0.574E+00 0.000E+00

     total cpu time spent up to now is     6749.5 secs

     total energy              =   -2161.06350336 Ry
     Harris-Foulkes estimate   =   -2161.06357795 Ry
     estimated scf accuracy    <       0.00052293 Ry

     iteration # 36     ecut=    40.00 Ry     beta=0.70
     Davidson diagonalization with overlap
     ethr =  2.13E-07,  avg # of iterations =  1.0

     negative rho (up, down):  0.574E+00 0.000E+00

     total cpu time spent up to now is     6922.7 secs

     total energy              =   -2161.06353849 Ry
     Harris-Foulkes estimate   =   -2161.06355288 Ry
     estimated scf accuracy    <       0.00013974 Ry

     iteration # 37     ecut=    40.00 Ry     beta=0.70
     Davidson diagonalization with overlap
     ethr =  5.68E-08,  avg # of iterations =  1.0

     negative rho (up, down):  0.574E+00 0.000E+00

     total cpu time spent up to now is     7094.9 secs

     total energy              =   -2161.06354329 Ry
     Harris-Foulkes estimate   =   -2161.06355812 Ry
     estimated scf accuracy    <       0.00022116 Ry

     iteration # 38     ecut=    40.00 Ry     beta=0.70
     Davidson diagonalization with overlap
     ethr =  5.68E-08,  avg # of iterations =  1.0

     negative rho (up, down):  0.574E+00 0.000E+00

     total cpu time spent up to now is     7268.9 secs

     total energy              =   -2161.06353803 Ry
     Harris-Foulkes estimate   =   -2161.06356419 Ry
     estimated scf accuracy    <       0.00024165 Ry

     iteration # 39     ecut=    40.00 Ry     beta=0.70
     Davidson diagonalization with overlap
     ethr =  5.68E-08,  avg # of iterations =  1.0

     negative rho (up, down):  0.574E+00 0.000E+00

     total cpu time spent up to now is     7449.6 secs

     total energy              =   -2161.06352784 Ry
     Harris-Foulkes estimate   =   -2161.06356860 Ry
     estimated scf accuracy    <       0.00031210 Ry

     iteration # 40     ecut=    40.00 Ry     beta=0.70
     Davidson diagonalization with overlap
     ethr =  5.68E-08,  avg # of iterations =  1.0

     negative rho (up, down):  0.574E+00 0.000E+00

     total cpu time spent up to now is     7629.6 secs

     total energy              =   -2161.06349368 Ry
     Harris-Foulkes estimate   =   -2161.06360366 Ry
     estimated scf accuracy    <       0.00105734 Ry

     iteration # 41     ecut=    40.00 Ry     beta=0.70
     Davidson diagonalization with overlap
     ethr =  5.68E-08,  avg # of iterations =  1.1

     negative rho (up, down):  0.574E+00 0.000E+00

     total cpu time spent up to now is     7810.9 secs

     total energy              =   -2161.06354272 Ry
     Harris-Foulkes estimate   =   -2161.06355905 Ry
     estimated scf accuracy    <       0.00015340 Ry

     iteration # 42     ecut=    40.00 Ry     beta=0.70
     Davidson diagonalization with overlap
     ethr =  5.68E-08,  avg # of iterations =  1.0

     negative rho (up, down):  0.574E+00 0.000E+00

     total cpu time spent up to now is     7991.3 secs

     total energy              =   -2161.06354365 Ry
     Harris-Foulkes estimate   =   -2161.06356400 Ry
     estimated scf accuracy    <       0.00023979 Ry

     iteration # 43     ecut=    40.00 Ry     beta=0.70
     Davidson diagonalization with overlap
     ethr =  5.68E-08,  avg # of iterations =  1.0

     negative rho (up, down):  0.574E+00 0.000E+00

     total cpu time spent up to now is     8171.9 secs

     total energy              =   -2161.06355279 Ry
     Harris-Foulkes estimate   =   -2161.06355549 Ry
     estimated scf accuracy    <       0.00005930 Ry

     iteration # 44     ecut=    40.00 Ry     beta=0.70
     Davidson diagonalization with overlap
     ethr =  2.41E-08,  avg # of iterations =  1.0

     negative rho (up, down):  0.574E+00 0.000E+00

     total cpu time spent up to now is     8352.3 secs

     total energy              =   -2161.06355265 Ry
     Harris-Foulkes estimate   =   -2161.06355697 Ry
     estimated scf accuracy    <       0.00003359 Ry

     iteration # 45     ecut=    40.00 Ry     beta=0.70
     Davidson diagonalization with overlap
     ethr =  1.37E-08,  avg # of iterations =  1.0

     negative rho (up, down):  0.574E+00 0.000E+00

     total cpu time spent up to now is     8531.7 secs

     total energy              =   -2161.06355219 Ry
     Harris-Foulkes estimate   =   -2161.06355665 Ry
     estimated scf accuracy    <       0.00004647 Ry

     iteration # 46     ecut=    40.00 Ry     beta=0.70
     Davidson diagonalization with overlap
     ethr =  1.37E-08,  avg # of iterations =  1.0

     negative rho (up, down):  0.574E+00 0.000E+00

     total cpu time spent up to now is     8712.2 secs

     total energy              =   -2161.06354626 Ry
     Harris-Foulkes estimate   =   -2161.06356287 Ry
     estimated scf accuracy    <       0.00017037 Ry

     iteration # 47     ecut=    40.00 Ry     beta=0.70
     Davidson diagonalization with overlap
     ethr =  1.37E-08,  avg # of iterations =  1.0

     negative rho (up, down):  0.574E+00 0.000E+00

     total cpu time spent up to now is     8891.8 secs

     total energy              =   -2161.06355250 Ry
     Harris-Foulkes estimate   =   -2161.06355740 Ry
     estimated scf accuracy    <       0.00003249 Ry

     iteration # 48     ecut=    40.00 Ry     beta=0.70
     Davidson diagonalization with overlap
     ethr =  1.32E-08,  avg # of iterations =  1.0

     negative rho (up, down):  0.574E+00 0.000E+00

     total cpu time spent up to now is     9072.1 secs

     total energy              =   -2161.06355434 Ry
     Harris-Foulkes estimate   =   -2161.06355678 Ry
     estimated scf accuracy    <       0.00002002 Ry

     iteration # 49     ecut=    40.00 Ry     beta=0.70
     Davidson diagonalization with overlap
     ethr =  8.14E-09,  avg # of iterations =  1.0

     negative rho (up, down):  0.574E+00 0.000E+00

     total cpu time spent up to now is     9252.6 secs

     total energy              =   -2161.06355464 Ry
     Harris-Foulkes estimate   =   -2161.06355642 Ry
     estimated scf accuracy    <       0.00001602 Ry

     iteration # 50     ecut=    40.00 Ry     beta=0.70
     Davidson diagonalization with overlap
     ethr =  6.51E-09,  avg # of iterations =  1.0

     negative rho (up, down):  0.574E+00 0.000E+00

     total cpu time spent up to now is     9428.5 secs

     total energy              =   -2161.06355358 Ry
     Harris-Foulkes estimate   =   -2161.06355760 Ry
     estimated scf accuracy    <       0.00003416 Ry

     iteration # 51     ecut=    40.00 Ry     beta=0.70
     Davidson diagonalization with overlap
     ethr =  6.51E-09,  avg # of iterations =  1.0

     negative rho (up, down):  0.574E+00 0.000E+00

     total cpu time spent up to now is     9606.7 secs

     total energy              =   -2161.06355400 Ry
     Harris-Foulkes estimate   =   -2161.06355710 Ry
     estimated scf accuracy    <       0.00003110 Ry

     iteration # 52     ecut=    40.00 Ry     beta=0.70
     Davidson diagonalization with overlap
     ethr =  6.51E-09,  avg # of iterations =  1.0

     negative rho (up, down):  0.574E+00 0.000E+00

     total cpu time spent up to now is     9786.1 secs

     total energy              =   -2161.06355274 Ry
     Harris-Foulkes estimate   =   -2161.06355805 Ry
     estimated scf accuracy    <       0.00004268 Ry

     iteration # 53     ecut=    40.00 Ry     beta=0.70
     Davidson diagonalization with overlap
     ethr =  6.51E-09,  avg # of iterations =  1.0

     negative rho (up, down):  0.574E+00 0.000E+00

     total cpu time spent up to now is     9965.3 secs

     total energy              =   -2161.06355220 Ry
     Harris-Foulkes estimate   =   -2161.06355878 Ry
     estimated scf accuracy    <       0.00006976 Ry

     iteration # 54     ecut=    40.00 Ry     beta=0.70
     Davidson diagonalization with overlap
     ethr =  6.51E-09,  avg # of iterations =  1.0

     negative rho (up, down):  0.574E+00 0.000E+00

     total cpu time spent up to now is    10146.2 secs

     total energy              =   -2161.06355442 Ry
     Harris-Foulkes estimate   =   -2161.06355714 Ry
     estimated scf accuracy    <       0.00001977 Ry

     iteration # 55     ecut=    40.00 Ry     beta=0.70
     Davidson diagonalization with overlap
     ethr =  6.51E-09,  avg # of iterations =  1.0

     negative rho (up, down):  0.574E+00 0.000E+00

     total cpu time spent up to now is    10326.5 secs

     total energy              =   -2161.06355500 Ry
     Harris-Foulkes estimate   =   -2161.06355667 Ry
     estimated scf accuracy    <       0.00003366 Ry

     iteration # 56     ecut=    40.00 Ry     beta=0.70
     Davidson diagonalization with overlap
     ethr =  6.51E-09,  avg # of iterations =  1.0

     negative rho (up, down):  0.574E+00 0.000E+00

     total cpu time spent up to now is    10505.6 secs

     total energy              =   -2161.06355536 Ry
     Harris-Foulkes estimate   =   -2161.06355616 Ry
     estimated scf accuracy    <       0.00000829 Ry

     iteration # 57     ecut=    40.00 Ry     beta=0.70
     Davidson diagonalization with overlap
     ethr =  3.37E-09,  avg # of iterations =  1.0

     negative rho (up, down):  0.574E+00 0.000E+00

     total cpu time spent up to now is    10685.6 secs

     total energy              =   -2161.06355564 Ry
     Harris-Foulkes estimate   =   -2161.06355593 Ry
     estimated scf accuracy    <       0.00000213 Ry

     iteration # 58     ecut=    40.00 Ry     beta=0.70
     Davidson diagonalization with overlap
     ethr =  8.66E-10,  avg # of iterations =  1.0

     negative rho (up, down):  0.574E+00 0.000E+00

     total cpu time spent up to now is    10865.9 secs

     total energy              =   -2161.06355567 Ry
     Harris-Foulkes estimate   =   -2161.06355591 Ry
     estimated scf accuracy    <       0.00000229 Ry

     iteration # 59     ecut=    40.00 Ry     beta=0.70
     Davidson diagonalization with overlap
     ethr =  8.66E-10,  avg # of iterations =  1.0

     negative rho (up, down):  0.574E+00 0.000E+00

     total cpu time spent up to now is    11045.3 secs

     total energy              =   -2161.06355540 Ry
     Harris-Foulkes estimate   =   -2161.06355611 Ry
     estimated scf accuracy    <       0.00000478 Ry

     iteration # 60     ecut=    40.00 Ry     beta=0.70
     Davidson diagonalization with overlap
     ethr =  8.66E-10,  avg # of iterations =  1.4

     negative rho (up, down):  0.574E+00 0.000E+00

     total cpu time spent up to now is    11226.0 secs

     total energy              =   -2161.06355505 Ry
     Harris-Foulkes estimate   =   -2161.06355654 Ry
     estimated scf accuracy    <       0.00001386 Ry

     iteration # 61     ecut=    40.00 Ry     beta=0.70
     Davidson diagonalization with overlap
     ethr =  8.66E-10,  avg # of iterations =  1.0

     negative rho (up, down):  0.574E+00 0.000E+00

     total cpu time spent up to now is    11406.3 secs

     total energy              =   -2161.06355540 Ry
     Harris-Foulkes estimate   =   -2161.06355620 Ry
     estimated scf accuracy    <       0.00000778 Ry

     iteration # 62     ecut=    40.00 Ry     beta=0.70
     Davidson diagonalization with overlap
     ethr =  8.66E-10,  avg # of iterations =  1.0

     negative rho (up, down):  0.574E+00 0.000E+00

     total cpu time spent up to now is    11586.1 secs

     total energy              =   -2161.06355539 Ry
     Harris-Foulkes estimate   =   -2161.06355622 Ry
     estimated scf accuracy    <       0.00000675 Ry

     iteration # 63     ecut=    40.00 Ry     beta=0.70
     Davidson diagonalization with overlap
     ethr =  8.66E-10,  avg # of iterations =  1.1

     negative rho (up, down):  0.574E+00 0.000E+00

     total cpu time spent up to now is    11766.1 secs

     total energy              =   -2161.06355532 Ry
     Harris-Foulkes estimate   =   -2161.06355633 Ry
     estimated scf accuracy    <       0.00000965 Ry

     iteration # 64     ecut=    40.00 Ry     beta=0.70
     Davidson diagonalization with overlap
     ethr =  8.66E-10,  avg # of iterations =  1.0

     negative rho (up, down):  0.574E+00 0.000E+00

     total cpu time spent up to now is    11948.1 secs

     End of self-consistent calculation
 --- enter write_ns ---
 LDA+U parameters:
U( 2)     =  4.50000000
alpha( 2) =  0.00000000
atom    3   Tr[ns(na)] =   7.22351
    eigenvalues: 
  0.519  0.560  0.670  0.887  0.977
    eigenvectors:
  0.000  0.171  0.005  0.000  0.823
  0.997  0.002  0.000  0.000  0.000
  0.000  0.005  0.982  0.001  0.012
  0.002  0.822  0.011  0.000  0.165
  0.000  0.000  0.001  0.998  0.000
    occupations:
  0.904  0.005  0.033 -0.154 -0.000
  0.005  0.519  0.002 -0.005 -0.004
  0.033  0.002  0.673 -0.007 -0.008
 -0.154 -0.005 -0.007  0.630  0.001
 -0.000 -0.004 -0.008  0.001  0.886
atom    4   Tr[ns(na)] =   7.23030
    eigenvalues: 
  0.551  0.599  0.657  0.827  0.982
    eigenvectors:
  0.002  0.985  0.000  0.000  0.013
  0.000  0.000  0.032  0.968  0.000
  0.000  0.000  0.968  0.032  0.000
  0.000  0.013  0.000  0.000  0.987
  0.998  0.002  0.000  0.000  0.000
    occupations:
  0.604 -0.001 -0.000  0.044  0.002
 -0.001  0.821  0.030 -0.001 -0.001
 -0.000  0.030  0.663  0.002  0.000
  0.044 -0.001  0.002  0.977  0.000
  0.002 -0.001  0.000  0.000  0.551
atom    9   Tr[ns(na)] =   7.24621
    eigenvalues: 
  0.571  0.590  0.786  0.833  0.843
    eigenvectors:
  0.001  0.163  0.000  0.610  0.226
  0.992  0.008  0.000  0.000  0.000
  0.000  0.000  0.992  0.001  0.008
  0.008  0.829  0.000  0.119  0.045
  0.000  0.000  0.008  0.271  0.721
    occupations:
  0.796 -0.003 -0.001 -0.091  0.004
 -0.003  0.571  0.001  0.003  0.000
 -0.001  0.001  0.786  0.001 -0.005
 -0.091  0.003  0.001  0.630 -0.002
  0.004  0.000 -0.005 -0.002  0.840
atom   10   Tr[ns(na)] =   7.26085
    eigenvalues: 
  0.511  0.523  0.759  0.869  0.967
    eigenvectors:
  0.986  0.000  0.000  0.000  0.014
  0.000  0.000  0.000  1.000  0.000
  0.000  0.000  1.000  0.000  0.000
  0.014  0.000  0.000  0.000  0.986
  0.000  1.000  0.000  0.000  0.000
    occupations:
  0.517  0.000 -0.001  0.053  0.000
  0.000  0.869  0.001  0.000  0.001
 -0.001  0.001  0.759 -0.000  0.000
  0.053  0.000 -0.000  0.961  0.000
  0.000  0.001  0.000  0.000  0.523
atom   16   Tr[ns(na)] =   7.22345
    eigenvalues: 
  0.519  0.560  0.669  0.887  0.977
    eigenvectors:
  0.000  0.172  0.005  0.000  0.823
  0.998  0.002  0.000  0.000  0.000
  0.000  0.005  0.981  0.002  0.012
  0.002  0.822  0.012  0.000  0.164
  0.000  0.000  0.003  0.997  0.000
    occupations:
  0.904 -0.006  0.033 -0.154 -0.000
 -0.006  0.519 -0.002  0.004 -0.004
  0.033 -0.002  0.673 -0.007  0.011
 -0.154  0.004 -0.007  0.630 -0.001
 -0.000 -0.004  0.011 -0.001  0.887
atom   17   Tr[ns(na)] =   7.22667
    eigenvalues: 
  0.550  0.601  0.658  0.821  0.983
    eigenvectors:
  0.001  0.986  0.000  0.000  0.013
  0.000  0.000  0.021  0.978  0.000
  0.000  0.000  0.979  0.021  0.000
  0.000  0.013  0.000  0.000  0.987
  0.999  0.001  0.000  0.000  0.000
    occupations:
  0.606 -0.001 -0.000  0.043  0.002
 -0.001  0.817  0.024 -0.001 -0.001
 -0.000  0.024  0.662  0.001  0.000
  0.043 -0.001  0.001  0.978  0.000
  0.002 -0.001  0.000  0.000  0.550
atom   22   Tr[ns(na)] =   7.24613
    eigenvalues: 
  0.571  0.589  0.784  0.834  0.845
    eigenvectors:
  0.000  0.164  0.006  0.544  0.286
  0.997  0.003  0.000  0.000  0.000
  0.000  0.000  0.985  0.001  0.014
  0.003  0.833  0.002  0.106  0.056
  0.000  0.000  0.007  0.349  0.644
    occupations:
  0.797  0.004  0.005 -0.092  0.004
  0.004  0.571  0.001 -0.003 -0.001
  0.005  0.001  0.785 -0.001  0.005
 -0.092 -0.003 -0.001  0.630 -0.002
  0.004 -0.001  0.005 -0.002  0.841
atom   23   Tr[ns(na)] =   7.22494
    eigenvalues: 
  0.577  0.662  0.670  0.720  0.984
    eigenvectors:
  0.000  0.978  0.015  0.000  0.007
  0.000  0.000  0.000  1.000  0.000
  0.000  0.015  0.985  0.000  0.000
  0.000  0.007  0.000  0.000  0.993
  1.000  0.000  0.000  0.000  0.000
    occupations:
  0.664  0.000 -0.001  0.028 -0.000
  0.000  0.720  0.000  0.000  0.001
 -0.001  0.000  0.670  0.002 -0.000
  0.028  0.000  0.002  0.982 -0.000
 -0.000  0.001 -0.000 -0.000  0.577
N of occupied +U levels =  57.8820505
 --- exit write_ns ---

          k = 0.0000 0.0000 0.0000 ( 30363 PWs)   bands (ev):

   -75.0594 -74.2803 -74.2684 -74.1025 -74.0864 -73.7348 -73.7242 -73.7204
   -45.5910 -44.8622 -44.7219 -44.4787 -44.4047 -44.3848 -44.2849 -44.2639
   -44.2554 -44.2061 -44.1762 -44.0707 -44.0573 -44.0195 -43.9676 -43.9502
   -43.9098 -43.8205 -43.7415 -43.6991 -43.6715 -43.5883 -43.5522 -43.4310
   -21.1597 -20.7659 -20.6373 -20.4068 -20.3374 -20.2753 -19.9792 -19.9608
   -19.8292 -19.7540 -19.7239 -19.6883 -19.5973 -19.5895 -19.3958 -19.2118
   -19.1188 -19.0850 -18.9762  -9.8685  -9.7827  -9.5436  -8.9097  -8.7656
    -8.7285  -8.5812  -8.2979  -8.1504  -8.0982  -7.9925  -7.9904  -7.9033
    -7.8735  -7.7476  -7.6638  -7.5144  -7.3974  -7.3521  -7.2141  -7.1455
    -7.0077  -6.6609  -6.5454  -6.4838  -6.0838  -5.7957  -5.7597  -5.7424
    -5.6190  -5.5660  -5.4898  -5.4286  -5.3596  -5.1227  -5.1123  -5.0494
    -5.0140  -4.9170  -4.7876  -4.7661  -4.5407  -4.4514  -4.3681  -4.2917
    -4.2057  -4.1645  -3.9779  -3.9082  -3.8256  -3.8197  -3.7989  -3.7651
    -3.6696  -3.5763  -3.4168  -3.4066  -3.3303  -3.3002  -3.0808  -3.0287
    -2.9763  -2.9073  -2.8707  -2.5354  -2.5213  -2.2032  -2.0659  -1.9006
    -1.8158  -1.6167  -1.4829  -1.4265  -1.4167  -0.9562  -0.8087  -0.6757
    -0.5665  -0.4626  -0.1947   0.2013   0.5244   1.2962   1.5117   1.7796
     1.9910   2.2674   2.3478   2.3742   2.5772   3.2126   3.2349   3.2653
     3.4450   3.5888   3.5908   3.8086   4.0253   4.2518   4.2759   4.8053
     5.2053   6.0035   6.2046   6.2990   6.5248   6.8942   7.1418   7.2936
     7.5287   7.6824   7.8593   7.9151   7.9341   8.0180   8.0313   8.1577
     8.2425   8.2604   8.3530   8.4518   8.5696   8.6479   8.6623   8.7834
     8.8323   9.1188   9.1335   9.2011   9.2739   9.3579   9.4112   9.4658
     9.6746   9.7967   9.8051   9.9007   9.9453  10.0133  10.1140  10.2668
    10.6063  10.7352  10.7536  11.0135  11.0793  11.1264  11.1783  11.2388
    11.2952  11.3274  11.4495  11.4636  11.6100  11.6375  11.7323  11.7626
    11.7876  11.8149  11.8718  12.0391  12.0728  12.0884  12.2122  12.2290
    12.2651  12.3565  12.4160  12.4776  12.5239  12.5329  12.6610  12.7136
    12.7714  12.7955  12.8755  12.9416  13.0191  13.0762  13.1978  13.2284
    13.3287  13.3514  13.4226  13.6509  13.7584  13.8466  13.8727  13.9618
    14.0409  14.1381  14.2343  14.2816  14.3187  14.4989  14.5641  14.5990
    14.6535  14.8498  14.9119  15.0640  15.0924  15.2270  15.3902  15.4526
    15.4996  15.5901  15.7830  15.8133  15.9033  15.9350  16.0296  16.0390
    16.2521  16.2885  16.3771  16.5037  16.5738  16.6933  16.8723  16.9069
    17.1198  17.1599  17.2507  17.2891  17.3045  17.3830  17.4830  17.5386
    17.7014  17.8544  17.9037  17.9301  18.0198  18.1255  18.2834  18.3867
    18.4675  18.5279  18.5513  18.5772  18.6859  18.7713  18.7762  18.7970
    18.8212  18.8737  18.9003  18.9741  19.0519  19.1222  19.1949  19.2438
    19.2927  19.3246  19.3602  19.4147  19.5901  19.6489  19.6571  19.7004
    19.7880  19.7938  19.9715  20.0331  20.0645  20.1111  20.1541  20.1870
    20.2248  20.2980  20.3636  20.4109  20.4323  20.5517  20.6253  20.6993
    20.7555  20.8100  20.8735  20.8988  20.9910  21.0473  21.2000  21.2170
    21.3017  21.3645  21.4670  21.4860  21.6017  21.6794  21.7001  21.7350
    21.7901  21.8239  21.8945  22.0405  22.1527  22.1992  22.2648  22.3058
    22.3267  22.3890  22.4184  22.5082  22.5304

          k = 0.0000 0.2435 0.0000 ( 30432 PWs)   bands (ev):

   -75.0594 -74.2800 -74.2684 -74.1024 -74.0866 -73.7346 -73.7243 -73.7205
   -45.5910 -44.8625 -44.7212 -44.4784 -44.4047 -44.3849 -44.2851 -44.2644
   -44.2553 -44.2062 -44.1762 -44.0707 -44.0605 -44.0097 -43.9654 -43.9599
   -43.9085 -43.8212 -43.7415 -43.6990 -43.6712 -43.5879 -43.5526 -43.4311
   -21.1184 -20.7027 -20.5569 -20.4087 -20.3320 -20.2658 -19.9893 -19.9815
   -19.9586 -19.9342 -19.6162 -19.5914 -19.5685 -19.4767 -19.3952 -19.3512
   -19.2753 -19.0781 -18.9774  -9.6560  -9.4691  -9.3369  -9.0015  -8.9029
    -8.8137  -8.7662  -8.6011  -8.0404  -7.9793  -7.9278  -7.9084  -7.7735
    -7.7363  -7.6306  -7.5131  -7.4545  -7.3576  -7.2809  -7.1418  -6.9833
    -6.8110  -6.5578  -6.5130  -6.4486  -6.2327  -6.0922  -5.8528  -5.7689
    -5.7049  -5.6392  -5.5924  -5.4821  -5.4055  -5.2653  -5.2050  -5.1727
    -5.1531  -5.0322  -4.9563  -4.9354  -4.6798  -4.5991  -4.5850  -4.4979
    -4.3576  -4.1869  -4.1430  -4.0724  -3.9821  -3.9421  -3.8117  -3.7644
    -3.6901  -3.4570  -3.4096  -3.2684  -3.0287  -3.0194  -2.8919  -2.7708
    -2.7565  -2.6769  -2.5968  -2.4861  -2.4649  -2.3899  -2.2144  -2.1202
    -2.0718  -1.5798  -1.5683  -1.4958  -1.4346  -0.8454  -0.7158  -0.5652
    -0.4299  -0.3662  -0.2664  -0.0119   0.7189   1.0835   1.3217   1.4288
     1.7716   2.2359   2.5624   3.0896   3.1039   3.2200   3.4395   3.4884
     3.5036   3.5302   3.6053   3.6508   3.9206   4.4104   4.5111   5.0104
     5.3532   5.4976   6.1647   6.3049   6.4345   6.5126   6.6682   6.8283
     7.0295   7.3040   7.5528   7.7534   7.9571   7.9841   8.0872   8.1408
     8.2206   8.3698   8.3831   8.4804   8.6845   8.8427   8.8801   9.0265
     9.1717   9.2135   9.3110   9.4305   9.5292   9.6080   9.6151   9.7246
     9.8535   9.8848  10.0158  10.0539  10.0866  10.0997  10.1454  10.2771
    10.3788  10.4076  10.4573  10.5815  10.6405  10.6854  10.8837  11.0167
    11.0805  11.1888  11.2684  11.3448  11.3793  11.4557  11.5188  11.5434
    11.5741  11.6862  11.9161  11.9832  12.0649  12.2721  12.4364  12.5250
    12.5890  12.6167  12.6710  12.6836  12.6986  12.8672  12.9309  13.1130
    13.1559  13.2119  13.2788  13.3543  13.4504  13.4876  13.6630  13.7352
    13.7463  13.7748  13.8905  13.9887  14.0269  14.1128  14.1565  14.2190
    14.3127  14.3744  14.4680  14.4804  14.6124  14.6786  14.6889  14.7407
    14.8375  14.9305  14.9778  15.0434  15.1642  15.1946  15.3549  15.4574
    15.5814  15.5962  15.6659  15.7112  15.8669  15.9169  15.9776  16.0214
    16.0973  16.1796  16.2795  16.3506  16.4009  16.4448  16.6072  16.6493
    16.7356  16.8453  16.8772  16.9302  17.0367  17.1590  17.2302  17.2801
    17.3921  17.4266  17.5631  17.6020  17.6777  17.7361  17.9537  18.0529
    18.1048  18.1995  18.2358  18.3430  18.4624  18.4902  18.5247  18.6937
    18.7540  18.8062  18.8364  18.8940  18.9482  18.9806  19.0569  19.0937
    19.1282  19.1982  19.2966  19.3542  19.4043  19.4854  19.5124  19.5858
    19.6241  19.7048  19.8004  19.8412  19.8510  19.9572  19.9975  20.0360
    20.0641  20.1557  20.1877  20.2366  20.3018  20.3195  20.3828  20.4070
    20.4564  20.5079  20.5932  20.6117  20.7683  20.8416  20.8876  20.9677
    21.0646  21.0952  21.1240  21.1583  21.2312  21.2622  21.2874  21.3358
    21.3635  21.4452  21.5281  21.5955  21.6630  21.7557  21.7942  21.8143
    21.8594  21.9824  22.0381  22.0637  22.1409

          k = 0.0000-0.4870 0.0000 ( 30448 PWs)   bands (ev):

   -75.0595 -74.2798 -74.2684 -74.1024 -74.0868 -73.7343 -73.7243 -73.7206
   -45.5911 -44.8627 -44.7206 -44.4780 -44.4048 -44.3849 -44.2852 -44.2648
   -44.2552 -44.2062 -44.1762 -44.0708 -44.0636 -43.9896 -43.9802 -43.9631
   -43.9071 -43.8217 -43.7415 -43.6990 -43.6709 -43.5875 -43.5529 -43.4311
   -21.0792 -20.6416 -20.4202 -20.4084 -20.3173 -20.2816 -20.0702 -20.0263
   -19.9815 -19.9420 -19.6206 -19.5926 -19.5130 -19.4836 -19.4528 -19.3997
   -19.3754 -19.0719 -18.9830  -9.6148  -9.1859  -9.0886  -8.9772  -8.9061
    -8.9005  -8.7672  -8.6261  -8.0298  -7.9052  -7.8161  -7.6679  -7.6450
    -7.6195  -7.5107  -7.4901  -7.4475  -7.3296  -7.1853  -7.1014  -7.0322
    -6.9510  -6.5566  -6.5365  -6.3125  -6.2757  -6.2373  -6.1527  -6.0465
    -5.8121  -5.6947  -5.6156  -5.5771  -5.4776  -5.4636  -5.4144  -5.3579
    -5.2304  -5.1190  -4.9513  -4.8987  -4.8022  -4.7401  -4.6025  -4.4912
    -4.2399  -4.2345  -4.1601  -3.9977  -3.9639  -3.9118  -3.8837  -3.7755
    -3.7557  -3.4294  -3.3919  -3.2160  -3.1699  -3.0526  -3.0296  -3.0069
    -2.6533  -2.6381  -2.5055  -2.3833  -2.3040  -2.2753  -2.2229  -2.0766
    -1.9134  -1.5364  -1.4961  -1.4922  -1.2613  -1.0212  -0.8828  -0.4933
    -0.4113  -0.4017  -0.1238  -0.0818   0.6979   0.8807   1.0569   1.3443
     2.0276   2.3933   2.8089   3.0462   3.2246   3.3297   3.3704   3.4039
     3.5629   3.5789   3.8582   3.8811   4.1332   4.5488   5.0032   5.1528
     5.2274   5.3276   5.6743   5.7925   6.1524   6.3075   6.8228   6.8681
     7.0658   7.1098   7.2389   7.3561   7.4747   7.9403   8.1897   8.3181
     8.4779   8.5786   8.6146   8.6372   8.8913   8.9972   9.0057   9.0280
     9.0610   9.1170   9.2524   9.3136   9.3289   9.4441   9.5549   9.6131
     9.6158   9.6869   9.8125   9.8251   9.9981  10.0706  10.1593  10.1984
    10.2139  10.3776  10.4438  10.7692  10.9028  10.9769  11.0186  11.0432
    11.2521  11.3351  11.4002  11.6053  11.6736  11.6921  11.7340  11.8608
    11.9197  12.0254  12.1886  12.2100  12.2261  12.2882  12.4101  12.4884
    12.6263  12.6525  12.7162  12.7919  12.8734  12.9771  13.0778  13.1931
    13.2332  13.2580  13.2723  13.3500  13.5119  13.5231  13.6089  13.6182
    13.7657  13.8167  13.8741  13.8858  14.0439  14.1196  14.3288  14.4160
    14.4636  14.5512  14.6121  14.6999  14.7823  14.7916  14.8571  15.0531
    15.0925  15.2413  15.3378  15.4670  15.5044  15.5606  15.6315  15.6682
    15.7045  15.8615  15.9426  16.0100  16.0406  16.0732  16.1635  16.1794
    16.2472  16.2931  16.3707  16.4343  16.4996  16.5168  16.5457  16.5886
    16.6065  16.6248  16.6580  16.7693  16.8681  16.9853  17.0061  17.0143
    17.1032  17.2535  17.2958  17.3754  17.4723  17.4764  17.6108  17.6607
    17.7305  17.8289  17.8675  18.0410  18.0995  18.1190  18.2531  18.2919
    18.3144  18.3744  18.4088  18.4528  18.4956  18.5381  18.5740  18.5857
    18.6693  18.7155  18.8175  18.8947  18.9240  18.9618  18.9967  19.0592
    19.2271  19.3840  19.4560  19.5351  19.7041  19.7269  19.7991  19.9592
    19.9966  20.0049  20.1305  20.2792  20.3454  20.3835  20.4705  20.4750
    20.5094  20.5690  20.5905  20.6260  20.6416  20.6939  20.7226  20.7378
    20.7651  20.7852  20.8270  20.8838  20.9720  20.9884  21.0312  21.0389
    21.0886  21.2411  21.2857  21.2875  21.4084  21.5176  21.5366  21.5801
    21.6433  21.6570  21.7066  21.7366  21.7749

          k = 0.2500 0.0000 0.0000 ( 30394 PWs)   bands (ev):

   -75.0588 -74.2780 -74.2695 -74.1008 -74.0866 -73.7327 -73.7251 -73.7197
   -45.5911 -44.8607 -44.7218 -44.4521 -44.4035 -44.3861 -44.3130 -44.2647
   -44.2570 -44.2016 -44.1805 -44.0705 -44.0395 -44.0159 -43.9712 -43.9536
   -43.9060 -43.8430 -43.7337 -43.7043 -43.6764 -43.5686 -43.5523 -43.4568
   -21.0607 -20.6463 -20.5551 -20.4445 -20.3365 -20.1755 -20.0485 -19.9427
   -19.9151 -19.7980 -19.6759 -19.6175 -19.5970 -19.5795 -19.4935 -19.2942
   -19.2079 -19.1612 -18.9932  -9.6310  -9.5300  -9.3473  -8.7954  -8.7179
    -8.6738  -8.4448  -8.2807  -8.2423  -8.1475  -8.0708  -7.9879  -7.9349
    -7.8736  -7.7288  -7.6468  -7.5138  -7.4767  -7.2735  -7.1977  -7.0463
    -6.9644  -6.7528  -6.5953  -6.3657  -6.1967  -6.0270  -5.9411  -5.8549
    -5.8448  -5.6704  -5.5421  -5.4603  -5.3867  -5.3563  -5.3242  -5.1642
    -5.0810  -5.0055  -4.9131  -4.8640  -4.6606  -4.6016  -4.5583  -4.5043
    -4.2842  -4.2600  -4.1843  -4.1163  -4.0269  -3.9795  -3.8920  -3.7133
    -3.5665  -3.4991  -3.3997  -3.3775  -3.2054  -2.9493  -2.8587  -2.7953
    -2.7547  -2.4900  -2.3999  -2.2447  -2.1895  -2.1672  -2.1091  -1.8241
    -1.7343  -1.5664  -1.3727  -1.2503  -1.2181  -1.1075  -0.8906  -0.7361
    -0.6739  -0.5833  -0.3504   0.0693   0.6551   1.4989   1.6179   1.8974
     2.0814   2.2629   2.3979   2.4261   2.6335   2.8298   3.0954   3.2803
     3.2845   3.4273   3.4657   3.5907   4.0042   4.4761   4.5471   5.0620
     5.4299   5.4861   6.1936   6.3832   6.4714   6.5400   6.5960   6.9164
     7.2798   7.4022   7.6006   7.7434   7.8627   7.8955   8.1102   8.1805
     8.2930   8.3779   8.4592   8.5899   8.6195   8.7037   8.8876   9.0476
     9.1560   9.1869   9.3392   9.4256   9.4542   9.5329   9.6350   9.6837
     9.8518   9.9343   9.9621  10.0580  10.1312  10.1666  10.1966  10.3043
    10.3378  10.4530  10.5461  10.6025  10.6925  10.7949  10.9787  11.0339
    11.1489  11.2426  11.3187  11.3577  11.4444  11.4878  11.5703  11.6604
    11.6850  11.7365  11.8934  11.9230  11.9983  12.1392  12.2117  12.3123
    12.4848  12.5104  12.6327  12.6685  12.6916  12.7735  12.9134  12.9594
    13.0681  13.1731  13.1984  13.3021  13.4680  13.5458  13.6814  13.7605
    13.8331  13.8895  13.9209  14.0139  14.1380  14.1782  14.2292  14.3037
    14.3289  14.3483  14.3815  14.4665  14.5567  14.6116  14.7311  14.7669
    14.7991  14.9822  15.0881  15.1268  15.1832  15.2800  15.4891  15.5076
    15.5752  15.6959  15.7686  15.7925  15.9118  15.9318  15.9995  16.0910
    16.1291  16.1644  16.2570  16.3222  16.4318  16.4887  16.5622  16.6828
    16.7165  16.7791  16.8815  16.9207  16.9612  17.0159  17.2546  17.2876
    17.3658  17.4425  17.5436  17.5631  17.5966  17.6668  17.7372  17.8636
    18.0363  18.1557  18.1902  18.3043  18.3433  18.4137  18.4947  18.5550
    18.7472  18.8307  18.8907  19.0537  19.0790  19.1215  19.1980  19.2608
    19.2777  19.3460  19.3797  19.4185  19.4630  19.5290  19.5653  19.6040
    19.6242  19.7116  19.7940  19.8038  19.8533  19.9178  19.9729  20.0034
    20.0473  20.1021  20.1585  20.2189  20.2457  20.3405  20.4234  20.5616
    20.6307  20.6756  20.6934  20.7043  20.7596  20.8029  20.8229  20.8520
    20.9259  20.9410  21.0399  21.0832  21.1408  21.1949  21.2237  21.2723
    21.3501  21.4166  21.4624  21.5361  21.5655  21.6068  21.6613  21.7422
    21.7785  21.7936  21.8946  21.9350  22.0351

          k = 0.2500 0.2435 0.0000 ( 30434 PWs)   bands (ev):

   -75.0589 -74.2778 -74.2695 -74.1008 -74.0868 -73.7325 -73.7250 -73.7198
   -45.5911 -44.8609 -44.7211 -44.4518 -44.4035 -44.3861 -44.3131 -44.2650
   -44.2571 -44.2016 -44.1805 -44.0705 -44.0401 -44.0099 -43.9728 -43.9585
   -43.9035 -43.8446 -43.7338 -43.7042 -43.6761 -43.5682 -43.5527 -43.4568
   -21.0289 -20.5846 -20.4907 -20.4319 -20.3229 -20.1609 -20.0512 -19.9607
   -19.9175 -19.8758 -19.6553 -19.6055 -19.5816 -19.5416 -19.4944 -19.4225
   -19.3543 -19.1573 -18.9929  -9.4379  -9.2555  -9.0985  -8.8852  -8.7241
    -8.7087  -8.5811  -8.4551  -8.1266  -8.0079  -7.9716  -7.8742  -7.8356
    -7.7870  -7.7167  -7.6251  -7.5126  -7.3503  -7.2769  -7.0719  -6.9904
    -6.8333  -6.5623  -6.5481  -6.3876  -6.3089  -6.1626  -6.0437  -5.9687
    -5.9364  -5.9078  -5.7877  -5.5803  -5.5271  -5.4183  -5.3704  -5.3320
    -5.2234  -5.1742  -5.1256  -4.9581  -4.8612  -4.7265  -4.6766  -4.5634
    -4.4173  -4.3208  -4.2568  -4.2154  -4.0813  -3.8797  -3.8437  -3.7724
    -3.5063  -3.4228  -3.3978  -3.1349  -3.0757  -2.6855  -2.6139  -2.5907
    -2.5250  -2.4158  -2.3656  -2.3245  -2.2140  -2.1280  -2.0703  -2.0288
    -1.9415  -1.5091  -1.4915  -1.3371  -1.2408  -0.9085  -0.7789  -0.6988
    -0.5612  -0.5164  -0.4140  -0.1229   0.8150   1.2204   1.5535   1.6069
     1.8612   2.2622   2.4675   2.7948   2.9348   3.0435   3.0843   3.2436
     3.2768   3.4089   3.5939   3.8371   3.9551   4.6795   4.7743   5.2595
     5.5633   5.6178   5.7800   6.3376   6.5429   6.6206   6.6828   6.7489
     6.8083   7.0084   7.0885   7.3086   7.5490   7.7594   7.8734   8.0034
     8.2288   8.3032   8.3661   8.4462   8.5137   8.5859   8.7300   8.7523
     8.9862   9.1546   9.2390   9.3476   9.4992   9.6014   9.7898   9.8358
     9.9864  10.0951  10.1332  10.1654  10.2966  10.3484  10.3932  10.4628
    10.5702  10.6594  10.7299  10.9133  10.9544  11.1073  11.1806  11.2504
    11.3851  11.4911  11.5078  11.5965  11.6741  11.7554  11.8013  11.8415
    11.9506  11.9986  12.1129  12.1581  12.2343  12.3178  12.4469  12.5169
    12.5846  12.6298  12.6793  12.7382  12.7884  12.8239  12.9403  13.0254
    13.0861  13.1655  13.2650  13.3665  13.4137  13.5101  13.5905  13.6344
    13.7784  13.8607  13.9501  14.0483  14.1355  14.2030  14.2504  14.3432
    14.4311  14.4694  14.5519  14.5955  14.6096  14.7707  14.8647  14.9127
    15.0043  15.0671  15.1028  15.2485  15.3219  15.4244  15.5288  15.5701
    15.6570  15.7294  15.7909  15.8460  15.8966  15.9296  15.9838  16.0853
    16.1262  16.2051  16.3020  16.3153  16.4083  16.4594  16.5464  16.6250
    16.6787  16.7359  16.7859  16.8277  16.9036  16.9467  16.9925  17.0632
    17.1611  17.2150  17.2948  17.3758  17.4127  17.4557  17.5183  17.6029
    17.7044  17.7466  17.8389  17.8480  17.9350  17.9814  18.0258  18.0542
    18.2182  18.2504  18.2814  18.3296  18.4527  18.5145  18.5596  18.6208
    18.7003  18.8280  18.8808  18.8978  19.0128  19.0909  19.1566  19.2027
    19.2612  19.3502  19.4293  19.4769  19.5201  19.6275  19.7101  19.7622
    19.8511  19.8977  19.9628  20.0374  20.0722  20.1875  20.3097  20.3807
    20.4474  20.5217  20.6250  20.7315  20.7611  20.8045  20.8719  20.9132
    20.9757  21.0440  21.1292  21.2092  21.2474  21.2906  21.3389  21.4084
    21.5338  21.5480  21.5856  21.6398  21.6777  21.8130  21.8318  21.9174
    21.9600  22.0045  22.0291  22.0941  22.1435

          k = 0.2500-0.4870 0.0000 ( 30468 PWs)   bands (ev):

   -75.0590 -74.2776 -74.2695 -74.1008 -74.0869 -73.7323 -73.7250 -73.7198
   -45.5911 -44.8611 -44.7205 -44.4515 -44.4036 -44.3861 -44.3130 -44.2655
   -44.2571 -44.2016 -44.1805 -44.0705 -44.0448 -43.9919 -43.9775 -43.9654
   -43.9056 -43.8442 -43.7337 -43.7042 -43.6758 -43.5678 -43.5530 -43.4568
   -20.9993 -20.5210 -20.4469 -20.3993 -20.2362 -20.1709 -20.0549 -19.9719
   -19.9426 -19.8967 -19.6515 -19.6140 -19.5795 -19.5762 -19.5196 -19.4989
   -19.4865 -19.1549 -18.9948  -9.4086  -8.9857  -8.8042  -8.7792  -8.7279
    -8.7095  -8.6634  -8.4370  -7.9734  -7.9197  -7.8711  -7.7766  -7.6970
    -7.6831  -7.5723  -7.5297  -7.4777  -7.3323  -7.1395  -7.1052  -7.0142
    -6.9018  -6.6807  -6.5344  -6.5001  -6.4055  -6.3149  -6.1859  -6.1325
    -6.0858  -6.0485  -5.9226  -5.7771  -5.7160  -5.6139  -5.5382  -5.4124
    -5.3312  -5.2982  -5.2628  -5.0485  -4.8726  -4.8521  -4.7734  -4.5805
    -4.5008  -4.2685  -4.1485  -4.0909  -3.9438  -3.8874  -3.7955  -3.5906
    -3.5532  -3.4319  -3.3436  -3.0967  -3.0376  -2.8244  -2.7547  -2.5656
    -2.5294  -2.4576  -2.3530  -2.2441  -2.1709  -2.1022  -1.9930  -1.8873
    -1.6541  -1.5355  -1.3989  -1.2815  -1.1528  -1.0198  -0.9039  -0.6622
    -0.5295  -0.4841  -0.3032  -0.2375   0.8334   0.9509   1.2206   1.5689
     2.0616   2.3448   2.6214   2.6495   2.8646   3.0379   3.0834   3.3663
     3.4476   3.5585   3.7589   3.7821   4.3916   4.8054   5.2278   5.3995
     5.4698   5.5825   5.9112   5.9229   6.0519   6.3991   6.5288   6.5845
     7.0139   7.2576   7.2935   7.3675   7.3876   7.4218   7.4907   7.5648
     7.7830   7.9395   8.1799   8.3307   8.4571   8.5000   8.5606   8.7106
     8.9083   8.9931   9.1155   9.2301   9.2950   9.3412   9.7100   9.9134
     9.9314  10.1798  10.2260  10.3078  10.3917  10.4905  10.6382  10.7525
    10.8975  11.1139  11.1559  11.3066  11.3681  11.4248  11.4928  11.5401
    11.5806  11.6773  11.7538  11.8828  11.8942  11.9284  11.9766  12.1044
    12.2462  12.3035  12.3363  12.4103  12.4529  12.5080  12.6285  12.6900
    12.7268  12.8239  12.8675  12.9040  12.9376  13.0090  13.1494  13.2414
    13.3279  13.3832  13.4105  13.4733  13.5626  13.6336  13.6472  13.7282
    13.8427  13.8673  13.9258  14.0028  14.0886  14.1756  14.2438  14.2990
    14.3834  14.5370  14.5869  14.5906  14.6361  14.7708  14.8235  14.8680
    14.9090  14.9225  14.9867  15.0580  15.1904  15.2302  15.2796  15.3828
    15.4101  15.4664  15.5322  15.5927  15.6325  15.8145  15.9031  15.9521
    15.9951  16.1325  16.1473  16.1998  16.2555  16.3411  16.4085  16.4321
    16.5401  16.6093  16.6426  16.6843  16.7486  16.8327  16.9068  17.0494
    17.0645  17.1250  17.1927  17.2481  17.2888  17.3602  17.4339  17.4827
    17.5092  17.5504  17.6364  17.7057  17.7308  17.8183  17.9783  18.1299
    18.2057  18.2609  18.2932  18.3344  18.4084  18.4447  18.4896  18.5374
    18.5749  18.6586  18.7096  18.7527  18.8436  18.8879  18.8955  18.9914
    19.0739  19.1020  19.1474  19.2278  19.3019  19.3582  19.4010  19.5840
    19.6536  19.6963  19.7593  19.7937  19.8573  19.9242  19.9789  19.9862
    20.0605  20.0778  20.1269  20.2603  20.2855  20.4880  20.5486  20.6763
    20.7641  20.8042  20.8695  20.9309  21.0295  21.0502  21.0677  21.1642
    21.2375  21.2765  21.3736  21.5023  21.6089  21.6376  21.8027  21.8550
    21.9617  22.0237  22.0705  22.1291  22.2352

          k =-0.5000 0.0000 0.0000 ( 30480 PWs)   bands (ev):

   -75.0583 -74.2741 -74.2725 -74.0990 -74.0870 -73.7294 -73.7270 -73.7190
   -45.5912 -44.8591 -44.7217 -44.4051 -44.3931 -44.3844 -44.3751 -44.2628
   -44.2597 -44.1918 -44.1901 -44.0703 -44.0168 -44.0114 -43.9682 -43.9665
   -43.8949 -43.8757 -43.7192 -43.7161 -43.6816 -43.5525 -43.5202 -43.5112
   -20.9133 -20.6060 -20.4225 -20.3830 -20.3070 -20.1860 -20.1607 -19.9674
   -19.9409 -19.8073 -19.7239 -19.5975 -19.5052 -19.4756 -19.4745 -19.4198
   -19.4123 -19.2834 -19.0070  -9.0721  -9.0395  -8.9371  -8.8747  -8.8195
    -8.8049  -8.5348  -8.5203  -8.3795  -8.2252  -8.1392  -8.1305  -7.8584
    -7.7797  -7.7647  -7.6910  -7.4085  -7.3421  -7.1230  -7.0245  -6.8270
    -6.7777  -6.7037  -6.6133  -6.4964  -6.3524  -6.2568  -6.1622  -6.1184
    -6.0791  -5.8335  -5.7439  -5.6975  -5.4567  -5.4187  -5.3301  -5.3075
    -5.2577  -5.1786  -5.1340  -5.1171  -4.7956  -4.6677  -4.6251  -4.5260
    -4.4082  -4.3673  -4.1696  -4.1635  -4.0816  -3.8475  -3.6547  -3.6129
    -3.5904  -3.4446  -3.4054  -3.3075  -3.2871  -2.8005  -2.7150  -2.6933
    -2.6334  -2.3446  -2.1993  -2.1402  -1.8622  -1.8282  -1.7786  -1.6611
    -1.5932  -1.5198  -1.2611  -1.2392  -1.1732  -1.1378  -1.0692  -0.9385
    -0.7278  -0.6900  -0.2866  -0.2665   0.7852   1.8366   2.0188   2.0666
     2.0983   2.2092   2.2844   2.4353   2.5498   2.7391   2.8321   2.8403
     2.9091   3.3240   3.5594   3.6657   4.3931   4.4175   5.0981   5.2233
     5.2752   5.4012   5.7348   5.8652   6.2076   6.3157   6.7887   6.9206
     7.1465   7.3122   7.3506   7.4503   7.9951   8.0790   8.1465   8.1862
     8.4359   8.4514   8.7391   8.7985   8.8257   8.8742   8.8980   8.9413
     8.9769   9.0707   9.2833   9.3434   9.4085   9.4649   9.4998   9.5350
     9.6354   9.8440  10.0168  10.1121  10.1784  10.1956  10.2152  10.3456
    10.3781  10.4175  10.4704  10.6293  10.7077  10.7420  10.8551  10.9247
    11.1049  11.1425  11.2301  11.4850  11.7010  11.7194  11.8349  11.9872
    12.0244  12.0724  12.1178  12.2341  12.3243  12.4370  12.5091  12.5530
    12.6245  12.7133  12.7634  12.7654  12.7989  12.8354  13.0531  13.0703
    13.1942  13.2263  13.3148  13.3466  13.6127  13.6751  13.7398  13.7708
    13.9188  13.9426  14.0242  14.0580  14.1672  14.3124  14.3444  14.4867
    14.5506  14.5776  14.6125  14.6757  14.7600  14.7702  14.8738  14.9342
    14.9545  15.0642  15.2172  15.2626  15.2902  15.3385  15.3931  15.4510
    15.5100  15.6816  15.9162  15.9193  16.0170  16.0704  16.3182  16.3497
    16.4267  16.4296  16.5112  16.5163  16.5674  16.6032  16.6162  16.6848
    16.7019  16.7297  16.7964  16.8025  16.8896  16.9169  16.9373  16.9936
    17.0055  17.0433  17.0809  17.2327  17.2735  17.4066  17.4363  17.6327
    17.7193  17.8006  17.8165  17.8622  18.0298  18.0517  18.1477  18.2218
    18.3102  18.3764  18.5491  18.5982  18.6131  18.7118  18.7234  18.8503
    18.9057  18.9583  19.1017  19.1708  19.2697  19.3604  19.3842  19.4281
    19.4404  19.4657  19.5589  19.6227  19.6486  19.6717  19.7272  19.8316
    19.8455  19.8731  20.0093  20.0204  20.0753  20.0938  20.1083  20.1986
    20.3280  20.3669  20.4340  20.4413  20.4666  20.5464  20.5762  20.5981
    20.6348  20.6886  20.7955  20.8469  20.8778  20.9725  21.1085  21.1723
    21.2118  21.2312  21.3550  21.4489  21.4818  21.5125  21.5540  21.5751
    21.6227  21.6355  21.6603  21.6712  21.7556

          k =-0.5000 0.2435 0.0000 ( 30444 PWs)   bands (ev):

   -75.0584 -74.2739 -74.2724 -74.0991 -74.0871 -73.7293 -73.7269 -73.7190
   -45.5912 -44.8593 -44.7211 -44.4051 -44.3931 -44.3841 -44.3751 -44.2624
   -44.2605 -44.1918 -44.1901 -44.0703 -44.0169 -44.0040 -43.9788 -43.9613
   -43.8964 -43.8760 -43.7192 -43.7161 -43.6813 -43.5528 -43.5200 -43.5110
   -20.8992 -20.5818 -20.4064 -20.3163 -20.2660 -20.1283 -20.0958 -19.9482
   -19.9058 -19.8106 -19.7398 -19.6319 -19.5999 -19.5439 -19.5280 -19.5224
   -19.4707 -19.2809 -19.0065  -9.0329  -8.8861  -8.7483  -8.6454  -8.5656
    -8.5475  -8.4776  -8.4633  -8.3084  -8.2427  -8.1182  -8.1121  -7.9128
    -7.8292  -7.7381  -7.6565  -7.3678  -7.2489  -7.0864  -6.9671  -6.8711
    -6.7858  -6.7268  -6.6779  -6.6034  -6.5456  -6.5172  -6.4243  -6.2474
    -5.9687  -5.9478  -5.7757  -5.7091  -5.6732  -5.5304  -5.4728  -5.3043
    -5.2347  -5.1697  -5.1471  -5.0854  -5.0575  -4.9265  -4.8169  -4.6210
    -4.6066  -4.5552  -4.3340  -4.2264  -4.0566  -3.9590  -3.6835  -3.5886
    -3.4489  -3.3911  -3.3364  -3.2932  -2.8357  -2.6703  -2.5296  -2.3756
    -2.2963  -2.2594  -2.1843  -2.1818  -1.9973  -1.9288  -1.8409  -1.7370
    -1.4917  -1.4896  -1.3851  -1.2714  -1.0918  -1.0068  -0.9001  -0.8879
    -0.7588  -0.7086  -0.3957  -0.3648   0.9034   1.5610   1.9338   2.0244
     2.0793   2.1613   2.2062   2.3445   2.3651   2.7507   2.7871   3.1280
     3.1500   3.3248   3.6624   3.8054   4.5846   4.6162   5.2759   5.4471
     5.4880   5.6218   5.9168   6.0245   6.2187   6.2767   6.5121   6.6671
     6.9329   7.2386   7.2534   7.3444   7.3798   7.4751   7.4985   7.6638
     7.7734   7.8704   8.1822   8.3518   8.4462   8.6115   8.6530   8.8672
     8.9414   9.0903   9.1483   9.2307   9.3210   9.4249   9.8632  10.0952
    10.1715  10.2640  10.2819  10.3888  10.4146  10.5545  10.6035  10.6703
    10.7452  10.8244  10.9886  11.0128  11.2062  11.2451  11.2929  11.3393
    11.4730  11.5030  11.6355  11.8202  11.9472  11.9942  12.0630  12.1496
    12.1997  12.2774  12.2984  12.4464  12.5101  12.5237  12.5828  12.6719
    12.7873  12.8503  12.9020  12.9512  13.0433  13.0758  13.2854  13.3294
    13.3746  13.4097  13.4312  13.5082  13.6350  13.7533  13.8272  13.9223
    13.9573  14.0455  14.0713  14.1545  14.2596  14.2917  14.3715  14.4026
    14.5549  14.5920  14.6052  14.6842  14.7391  14.8082  14.8221  14.8752
    14.9791  15.0109  15.0865  15.1491  15.1853  15.2509  15.2931  15.3164
    15.3778  15.4038  15.5583  15.5907  15.6448  15.6592  15.6877  15.7779
    15.8312  15.8518  15.9600  16.0740  16.1648  16.2128  16.3549  16.4193
    16.4427  16.5490  16.6043  16.6432  16.6997  16.7297  16.7878  16.8127
    16.8415  16.9224  17.0539  17.1246  17.2064  17.2534  17.3417  17.3843
    17.4427  17.5235  17.5802  17.6108  17.7861  17.9084  17.9498  17.9885
    18.0696  18.1193  18.2328  18.3216  18.3625  18.3903  18.5604  18.5827
    18.6614  18.7661  18.8093  18.8861  18.9071  18.9578  19.0209  19.0628
    19.0932  19.1165  19.1597  19.3209  19.3869  19.4973  19.5505  19.5961
    19.6537  19.6816  19.7714  19.8260  19.8590  19.9986  20.0984  20.1095
    20.1456  20.1883  20.3320  20.3674  20.3828  20.5975  20.6493  20.7162
    20.7718  20.8373  20.8938  20.9718  21.0025  21.1673  21.2127  21.3239
    21.3920  21.5046  21.5508  21.6130  21.6652  21.7666  21.7763  21.8895
    21.8927  21.9915  22.1315  22.1648  22.2504

          k =-0.5000-0.4870 0.0000 ( 30440 PWs)   bands (ev):

   -75.0584 -74.2738 -74.2723 -74.0991 -74.0871 -73.7292 -73.7268 -73.7191
   -45.5912 -44.8595 -44.7204 -44.4051 -44.3931 -44.3839 -44.3751 -44.2628
   -44.2606 -44.1918 -44.1901 -44.0703 -44.0115 -44.0060 -43.9721 -43.9704
   -43.8967 -43.8770 -43.7192 -43.7161 -43.6810 -43.5532 -43.5198 -43.5108
   -20.8854 -20.5594 -20.3912 -20.2349 -20.2285 -20.0052 -19.9534 -19.9121
   -19.8945 -19.7769 -19.7664 -19.7429 -19.7250 -19.6937 -19.6745 -19.5696
   -19.4700 -19.2799 -19.0069  -9.0263  -8.8860  -8.5457  -8.5283  -8.4265
    -8.4195  -8.3371  -8.2465  -8.0033  -7.9395  -7.8648  -7.8505  -7.7056
    -7.6714  -7.6316  -7.6213  -7.5406  -7.4795  -7.3363  -7.2533  -7.1679
    -7.0048  -6.8600  -6.8010  -6.7264  -6.5626  -6.5419  -6.4574  -6.2010
    -6.1689  -5.9557  -5.8001  -5.7240  -5.7058  -5.6868  -5.6468  -5.6108
    -5.5225  -5.4610  -5.4032  -5.1973  -5.1792  -5.0539  -4.9192  -4.4616
    -4.4105  -4.3517  -4.2906  -4.2217  -4.0856  -3.9719  -3.6832  -3.5611
    -3.4695  -3.3560  -3.1290  -3.1141  -2.7294  -2.6271  -2.5615  -2.4966
    -2.4292  -2.3253  -2.0898  -2.0169  -1.9587  -1.8251  -1.7630  -1.6200
    -1.4328  -1.4033  -1.3612  -1.3275  -1.0468  -0.9434  -0.8537  -0.7871
    -0.6969  -0.5746  -0.5396  -0.5102   1.0101   1.1660   1.7710   1.7986
     1.7995   2.1476   2.2183   2.3172   2.3731   2.9068   3.0225   3.0639
     3.4805   3.5976   3.6178   3.6947   4.9843   5.0265   5.4877   5.5007
     5.6446   6.0985   6.1139   6.1581   6.1634   6.2610   6.2945   6.3577
     6.5871   6.7305   6.7543   6.8529   7.0761   7.2386   7.3061   7.4243
     7.7405   8.0033   8.0321   8.1212   8.1984   8.2438   8.2890   8.3792
     8.8357   9.1121   9.1259   9.2519   9.2757   9.5557   9.6397   9.6684
     9.8544   9.9018  10.5084  10.5950  10.6107  10.9157  10.9288  11.0018
    11.0210  11.0916  11.4567  11.5628  11.8225  11.8476  11.8786  11.9492
    12.0095  12.0636  12.0802  12.1666  12.4053  12.5390  12.5523  12.5953
    12.6587  12.7581  12.7715  12.9393  13.0713  13.1358  13.1927  13.2356
    13.2914  13.3379  13.3514  13.3648  13.3992  13.4230  13.4936  13.5269
    13.5806  13.5882  13.6729  13.7481  13.7693  13.7863  13.7959  13.8355
    13.8612  13.8931  13.9003  13.9396  14.0048  14.0522  14.1187  14.1791
    14.2502  14.2560  14.2803  14.3059  14.3957  14.4052  14.5089  14.5600
    14.6144  14.6393  14.6877  14.6984  14.8370  14.9081  14.9831  15.0676
    15.1495  15.1643  15.2414  15.3065  15.3301  15.3893  15.4615  15.4794
    15.5140  15.5516  15.5938  15.6619  15.8217  15.9095  15.9402  15.9992
    16.0110  16.1023  16.2213  16.3392  16.4122  16.4709  16.5007  16.5165
    16.7529  16.7921  16.7970  16.8229  16.9578  17.0091  17.1188  17.1493
    17.2183  17.2450  17.3226  17.3591  17.3887  17.5025  17.5487  17.6390
    17.7295  17.7650  17.8668  17.9777  18.2332  18.3704  18.3905  18.4591
    18.5594  18.6573  18.7386  18.7443  18.7930  18.8563  18.8770  19.0275
    19.0351  19.2599  19.4302  19.4955  19.5226  19.5458  19.6720  19.7409
    19.7886  19.9219  20.0831  20.3436  20.3865  20.4627  20.4822  20.5693
    20.6421  20.6825  20.8061  20.8530  20.9255  20.9369  20.9675  21.0421
    21.0587  21.1162  21.2198  21.2969  21.3241  21.3395  21.3628  21.4031
    21.5269  21.5617  21.5787  21.6033  21.6258  21.6680  21.7114  21.7364
    21.7559  21.7899  21.8348  21.9124  22.0560

          k =-0.2500 0.2435 0.0000 ( 30434 PWs)   bands (ev):

   -75.0589 -74.2778 -74.2695 -74.1008 -74.0868 -73.7325 -73.7250 -73.7198
   -45.5911 -44.8609 -44.7211 -44.4518 -44.4035 -44.3861 -44.3130 -44.2651
   -44.2571 -44.2016 -44.1805 -44.0705 -44.0442 -44.0046 -43.9665 -43.9631
   -43.9083 -43.8426 -43.7337 -43.7043 -43.6761 -43.5682 -43.5527 -43.4568
   -21.0290 -20.5847 -20.4903 -20.4317 -20.3227 -20.1602 -20.0500 -19.9601
   -19.9168 -19.8834 -19.6557 -19.6012 -19.5824 -19.5398 -19.4945 -19.4224
   -19.3555 -19.1572 -18.9929  -9.4358  -9.2559  -9.0997  -8.8824  -8.7262
    -8.7045  -8.6056  -8.4273  -8.1303  -8.0449  -7.9494  -7.8897  -7.8517
[...]
     2.9385   3.5145   3.7060   3.8394   4.3532   4.3893   5.1130   5.1956
     5.2539   5.4129   5.7165   5.8539   6.2068   6.3214   6.7863   6.9033
     7.1486   7.3381   7.3589   7.5037   7.9768   8.0029   8.1538   8.2118
     8.4220   8.4894   8.7532   8.7871   8.7998   8.8634   8.8842   8.9473
     8.9644   9.0703   9.2666   9.3311   9.3825   9.4772   9.5083   9.5942
     9.6311   9.8647  10.0002  10.0975  10.1673  10.2010  10.2161  10.3649
    10.4134  10.4311  10.5230  10.6666  10.7196  10.7519  10.8673  10.9821
    11.1002  11.1501  11.2188  11.4794  11.7179  11.7441  11.8349  12.0125
    12.0631  12.1107  12.1770  12.2894  12.3697  12.4946  12.5717  12.6387
    12.6706  12.7346  12.7542  12.7674  12.8143  12.8543  13.0525  13.0720
    13.1812  13.2207  13.2989  13.3513  13.6082  13.6728  13.7452  13.8046
    13.9020  13.9558  14.0430  14.0722  14.2213  14.3364  14.4368  14.5534
    14.6026  14.6247  14.7044  14.7171  14.7532  14.8276  14.9289  14.9543
    15.0160  15.0923  15.2354  15.2882  15.3249  15.3431  15.4279  15.4829
    15.6238  15.7969  15.9321  15.9683  16.0180  16.0618  16.2989  16.3283
    16.4393  16.4480  16.4831  16.5150  16.5671  16.5945  16.6111  16.6778
    16.7068  16.7433  16.7850  16.7874  16.8815  16.9247  16.9368  16.9914
    17.0250  17.0464  17.0915  17.2270  17.2734  17.3850  17.4428  17.6427
    17.7268  17.7675  17.7913  17.8537  18.0166  18.0554  18.1246  18.2112
    18.2973  18.3311  18.5381  18.5745  18.6279  18.7004  18.7212  18.8539
    18.9123  18.9334  19.1151  19.1753  19.2746  19.3507  19.3847  19.4111
    19.4472  19.4564  19.5538  19.6226  19.6453  19.6650  19.6936  19.8134
    19.8338  19.8512  19.9975  20.0069  20.0687  20.0890  20.0949  20.1991
    20.2995  20.3408  20.4201  20.4351  20.4535  20.5279  20.5580  20.6075
    20.6448  20.6834  20.8059  20.8803  20.8889  20.9759  21.1158  21.1680
    21.2221  21.2431  21.3491  21.4432  21.4639  21.5005  21.5550  21.5874
    21.6240  21.6533  21.6851  21.6885  21.7542

          k =-0.5000 0.2435 0.0000 ( 30444 PWs)   bands (ev):

   -75.0207 -74.4664 -74.0483 -74.0423 -73.9729 -73.7302 -73.6428 -73.6149
   -45.5734 -44.8261 -44.7470 -44.6693 -44.4347 -44.3770 -44.3675 -44.2282
   -44.1525 -44.1272 -43.9680 -43.9428 -43.9302 -43.8872 -43.8754 -43.8550
   -43.8352 -43.8221 -43.6613 -43.6466 -43.6354 -43.5676 -43.4053 -43.3714
   -20.7977 -20.6394 -20.3919 -20.2710 -20.2461 -20.0726 -20.0269 -19.8852
   -19.8531 -19.7553 -19.7185 -19.6004 -19.5221 -19.4785 -19.4464 -19.4414
   -19.4171 -19.3209 -18.8926  -8.9640  -8.9313  -8.6931  -8.6771  -8.5659
    -8.5001  -8.4151  -8.3964  -8.2423  -8.1959  -8.0822  -8.0537  -7.8919
    -7.8422  -7.7018  -7.6346  -7.3955  -7.2438  -7.0907  -6.9640  -6.8314
    -6.7169  -6.7103  -6.6533  -6.5544  -6.5187  -6.4435  -6.3505  -6.2106
    -5.9788  -5.8536  -5.7551  -5.6876  -5.6346  -5.4739  -5.4138  -5.2174
    -5.1653  -5.1220  -5.0576  -4.9991  -4.9846  -4.8868  -4.7427  -4.5549
    -4.5234  -4.4437  -4.2613  -4.1990  -4.0438  -3.8660  -3.6309  -3.5532
    -3.4143  -3.3383  -3.2767  -3.2465  -2.7632  -2.6439  -2.4842  -2.3348
    -2.2575  -2.1905  -2.1231  -2.1101  -1.9512  -1.8949  -1.8032  -1.6925
    -1.5089  -1.4212  -1.3279  -1.0723  -1.0112  -0.8565  -0.8001  -0.7782
    -0.6583  -0.6096  -0.3031  -0.2572   1.0351   1.6258   1.9481   2.0405
     2.1665   2.2131   2.3435   2.3857   2.4591   2.8362   2.9166   3.2126
     3.2682   3.4683   3.7947   3.9727   4.5200   4.5760   5.2973   5.4174
     5.4606   5.6290   5.8964   5.9987   6.2015   6.2479   6.5066   6.6700
     6.9397   7.2196   7.2372   7.3318   7.3952   7.4958   7.5310   7.7207
     7.7644   7.8598   8.1940   8.3615   8.4797   8.6102   8.6722   8.8680
     8.9652   9.1144   9.1810   9.2664   9.3074   9.3969   9.8729  10.0999
    10.1915  10.2786  10.3110  10.3797  10.4302  10.5641  10.6168  10.6859
    10.7420  10.8308  10.9704  10.9974  11.2422  11.2730  11.3006  11.3885
    11.4633  11.5147  11.6402  11.8275  11.9971  12.0167  12.1065  12.1778
    12.2606  12.3074  12.3603  12.4618  12.5378  12.5618  12.6121  12.7163
    12.8083  12.8644  12.9001  12.9676  13.0316  13.0791  13.2769  13.3332
    13.3856  13.4162  13.4478  13.4911  13.6761  13.7598  13.8326  13.9338
    13.9872  14.0632  14.0955  14.1785  14.2812  14.3281  14.3902  14.4336
    14.5734  14.6065  14.6321  14.7157  14.7662  14.8365  14.8956  14.9536
    14.9873  15.0278  15.1206  15.1522  15.1976  15.2537  15.3165  15.3479
    15.3785  15.4177  15.5890  15.6169  15.6605  15.6799  15.7247  15.8129
    15.8456  15.9133  15.9792  16.1084  16.1522  16.2167  16.3416  16.4081
    16.4342  16.5470  16.6086  16.6509  16.6868  16.7208  16.7829  16.8021
    16.8412  16.9236  17.0492  17.1318  17.2104  17.2647  17.3339  17.3727
    17.4447  17.5272  17.5539  17.6014  17.7747  17.8929  17.9358  17.9860
    18.0647  18.1069  18.2260  18.3175  18.3610  18.3828  18.5347  18.5685
    18.6408  18.7622  18.8069  18.8848  18.9016  18.9491  19.0211  19.0676
    19.0890  19.1086  19.1676  19.3072  19.4082  19.4957  19.5297  19.5928
    19.6532  19.6720  19.7604  19.8336  19.8596  20.0089  20.0837  20.1072
    20.1512  20.2038  20.3261  20.3655  20.3882  20.6191  20.6584  20.7198
    20.7807  20.8471  20.9042  20.9872  21.0231  21.1802  21.2285  21.3256
    21.4043  21.4925  21.5529  21.5973  21.6557  21.7537  21.8593  21.8838
    21.9329  22.0216  22.1397  22.1844  22.2488

          k =-0.5000-0.4870 0.0000 ( 30440 PWs)   bands (ev):

   -75.0208 -74.4663 -74.0484 -74.0424 -73.9728 -73.7302 -73.6427 -73.6148
   -45.5735 -44.8262 -44.7472 -44.6683 -44.4348 -44.3771 -44.3676 -44.2285
   -44.1527 -44.1272 -43.9654 -43.9405 -43.9301 -43.8891 -43.8758 -43.8606
   -43.8314 -43.8230 -43.6610 -43.6465 -43.6354 -43.5680 -43.4050 -43.3712
   -20.7817 -20.6257 -20.3813 -20.2292 -20.2049 -19.9367 -19.8846 -19.8654
   -19.8046 -19.7070 -19.7047 -19.6710 -19.6453 -19.6295 -19.6092 -19.5493
   -19.4214 -19.3208 -18.8928  -8.9560  -8.9285  -8.6682  -8.4843  -8.3831
    -8.3598  -8.2807  -8.1809  -7.9737  -7.9054  -7.8622  -7.8059  -7.6997
    -7.6141  -7.5610  -7.5522  -7.4992  -7.4839  -7.2769  -7.1745  -7.1260
    -6.9621  -6.8633  -6.8227  -6.7325  -6.5203  -6.4666  -6.4306  -6.1889
    -6.1600  -5.8743  -5.8053  -5.6546  -5.6413  -5.6147  -5.6113  -5.5595
    -5.4545  -5.3936  -5.3465  -5.1880  -5.0777  -4.9816  -4.8035  -4.4159
    -4.3424  -4.2715  -4.2065  -4.1607  -4.0301  -3.9312  -3.6208  -3.5302
    -3.3643  -3.3097  -3.0904  -3.0779  -2.7016  -2.5652  -2.5011  -2.4420
    -2.4056  -2.2531  -2.0740  -1.9838  -1.9078  -1.7517  -1.7070  -1.5744
    -1.4845  -1.4177  -1.1868  -1.1190  -0.9183  -0.8433  -0.7159  -0.6575
    -0.6169  -0.5041  -0.4566  -0.4087   1.1431   1.2428   1.7934   1.8457
     1.8801   2.0976   2.3230   2.4023   2.4691   3.0529   3.1551   3.2054
     3.5481   3.7264   3.7564   3.8327   4.8868   4.9665   5.4502   5.4773
     5.6815   6.0813   6.0850   6.1381   6.1459   6.2454   6.3043   6.3623
     6.5685   6.7234   6.7348   6.8417   7.0750   7.2555   7.3016   7.4248
     7.7399   8.0274   8.0541   8.1453   8.2118   8.3082   8.3508   8.4589
     8.8936   9.1372   9.1634   9.2457   9.2783   9.5774   9.6445   9.6899
     9.8193   9.8822  10.5195  10.5966  10.6350  10.9432  10.9519  11.0137
    11.0621  11.1183  11.4578  11.6099  11.8443  11.9149  11.9366  11.9745
    12.0541  12.0589  12.0854  12.2146  12.4271  12.5413  12.5606  12.6169
    12.7061  12.7871  12.8322  13.0114  13.0640  13.1623  13.2127  13.2422
    13.3142  13.3241  13.3348  13.3839  13.4158  13.4279  13.5046  13.5368
    13.5679  13.5871  13.6621  13.7532  13.7686  13.7943  13.7996  13.8234
    13.8578  13.8842  13.9126  13.9361  14.0271  14.0700  14.1512  14.2278
    14.2366  14.2530  14.2838  14.3118  14.4150  14.4460  14.5022  14.5584
    14.6130  14.6520  14.6886  14.7431  14.8423  14.9124  14.9965  15.0716
    15.1462  15.1795  15.2495  15.2950  15.3299  15.3751  15.4598  15.4873
    15.5214  15.5543  15.6099  15.6851  15.8266  15.8973  15.9691  15.9867
    16.0166  16.1261  16.2290  16.3526  16.4263  16.4946  16.5259  16.6189
    16.7558  16.8012  16.8130  16.9032  16.9563  17.0101  17.1197  17.1542
    17.2273  17.2467  17.3374  17.3808  17.4075  17.5438  17.5743  17.6445
    17.6929  17.7450  17.8390  17.9422  18.2397  18.3662  18.4194  18.4794
    18.5694  18.6579  18.7215  18.7754  18.7856  18.8749  18.8806  19.0060
    19.0424  19.2300  19.3944  19.4606  19.5118  19.5619  19.6522  19.7254
    19.7806  19.9121  20.0792  20.3344  20.3615  20.4725  20.4777  20.6076
    20.6822  20.7301  20.8103  20.8776  20.9293  20.9367  20.9734  21.0527
    21.0564  21.1224  21.2190  21.2744  21.3104  21.3326  21.3427  21.4135
    21.5307  21.5336  21.5646  21.5981  21.6020  21.6720  21.7348  21.7530
    21.7660  21.7743  21.8475  21.9650  22.0946

          k =-0.2500 0.2435 0.0000 ( 30434 PWs)   bands (ev):

   -75.0213 -74.4670 -74.0507 -74.0413 -73.9733 -73.7309 -73.6439 -73.6152
   -45.5733 -44.8277 -44.7509 -44.6694 -44.4351 -44.3780 -44.3661 -44.2283
   -44.1521 -44.1273 -43.9804 -43.9507 -43.9242 -43.8824 -43.8750 -43.8659
   -43.8476 -43.7784 -43.6622 -43.6504 -43.6272 -43.5675 -43.4444 -43.3273
   -20.9591 -20.5454 -20.4897 -20.4197 -20.2800 -20.1064 -20.0340 -19.8995
   -19.8926 -19.8086 -19.6107 -19.5635 -19.5330 -19.4643 -19.4456 -19.3374
   -19.2713 -19.1829 -18.8816  -9.4144  -9.2015  -9.0281  -8.8369  -8.7809
    -8.7060  -8.5678  -8.3956  -8.0736  -8.0140  -7.9279  -7.8489  -7.8266
    -7.7162  -7.6688  -7.5976  -7.5133  -7.3510  -7.2557  -7.0363  -6.9673
    -6.7379  -6.5310  -6.4983  -6.3415  -6.2389  -6.1665  -5.9995  -5.9492
    -5.8961  -5.8110  -5.7303  -5.5885  -5.4963  -5.3933  -5.3221  -5.2585
    -5.1972  -5.1112  -5.0524  -4.9708  -4.7261  -4.6714  -4.6287  -4.5048
    -4.3528  -4.2671  -4.2058  -4.1368  -3.9950  -3.8664  -3.7972  -3.6938
    -3.4843  -3.4069  -3.2553  -3.0835  -3.0088  -2.6433  -2.5836  -2.5394
    -2.4779  -2.3458  -2.2940  -2.2773  -2.1688  -2.0994  -2.0267  -1.9590
    -1.7874  -1.4742  -1.4239  -1.2183  -1.0840  -0.8065  -0.7053  -0.5983
    -0.4829  -0.4161  -0.3040  -0.0262   0.9387   1.2833   1.5745   1.6707
     1.9488   2.3677   2.5636   2.8012   3.0177   3.1299   3.2185   3.3141
     3.4301   3.4735   3.7268   3.8266   4.0955   4.6820   4.7681   5.2487
     5.5314   5.5897   5.7660   6.3480   6.5251   6.5882   6.6744   6.7495
     6.8514   6.9491   7.0718   7.2931   7.5619   7.7848   7.9008   7.9890
     8.2265   8.3254   8.3661   8.4998   8.5351   8.6081   8.7108   8.7714
     8.9663   9.1707   9.2647   9.3794   9.5239   9.6147   9.8125   9.8674
    10.0101  10.0903  10.1259  10.1566  10.2679  10.3490  10.3794  10.4882
    10.5929  10.6552  10.7265  10.9218  10.9471  11.1145  11.2074  11.3009
    11.4048  11.5267  11.5648  11.6008  11.6757  11.7872  11.8267  11.8747
    11.9638  12.0302  12.1163  12.1903  12.2560  12.3345  12.4896  12.5364
    12.6009  12.6338  12.7283  12.7484  12.8284  12.8681  12.9463  13.0225
    13.0937  13.2005  13.2956  13.3585  13.4301  13.5125  13.5955  13.6698
    13.8063  13.8411  13.9740  14.0247  14.1531  14.2097  14.2717  14.3442
    14.4440  14.5238  14.5637  14.6225  14.6886  14.8348  14.8747  14.9584
    15.0448  15.1143  15.1625  15.2653  15.3471  15.4173  15.5440  15.5994
    15.6685  15.7159  15.7874  15.8402  15.8980  15.9638  15.9940  16.0748
    16.1059  16.1761  16.2985  16.3295  16.3566  16.4479  16.5549  16.6367
    16.6735  16.7304  16.7739  16.8257  16.8915  16.9420  16.9765  17.0980
    17.1607  17.2320  17.3144  17.3926  17.4290  17.4722  17.5130  17.6185
    17.7073  17.7257  17.8280  17.8681  17.9288  17.9635  18.0294  18.0807
    18.2109  18.2478  18.2927  18.3254  18.4201  18.5205  18.6167  18.6543
    18.6961  18.8146  18.8542  18.9229  19.0332  19.1050  19.1696  19.1945
    19.2954  19.3518  19.4704  19.4994  19.5384  19.6350  19.7382  19.7765
    19.8510  19.9139  19.9638  19.9993  20.1767  20.2176  20.3156  20.3792
    20.4872  20.5724  20.6541  20.6898  20.7887  20.8218  20.8779  20.9109
    20.9788  21.0534  21.1099  21.1881  21.2528  21.3101  21.3434  21.4080
    21.5136  21.5425  21.5951  21.6729  21.7027  21.7777  21.8286  21.9377
    21.9805  22.0253  22.0483  22.1040  22.1660

     the Fermi energy is    -1.3115 ev

!    total energy              =   -2161.06868996 Ry
     Harris-Foulkes estimate   =   -2161.06868996 Ry
     estimated scf accuracy    <          1.3E-09 Ry

     The total energy is the sum of the following terms:

     one-electron contribution =  -25153.45092809 Ry
     hartree contribution      =   12599.54248827 Ry
     xc contribution           =    -337.81903144 Ry
     ewald contribution        =   10728.35614990 Ry
     Hubbard energy            =       2.30249226 Ry
     smearing contrib. (-TS)   =       0.00013914 Ry

     convergence has been achieved in  22 iterations

     Forces acting on atoms (Ry/au):


     negative rho (up, down):  0.575E+00 0.000E+00
     atom    1 type  1   force =    -0.00551538   -0.00794633   -0.00048787
     atom    2 type  1   force =     0.00115492    0.00297729    0.00046338
     atom    3 type  2   force =     0.03290307    0.00383583    0.00021832
     atom    4 type  2   force =     0.00362474    0.00505043   -0.00039143
     atom    5 type  1   force =     0.00190214   -0.04411312   -0.00014755
     atom    6 type  1   force =     0.00414023    0.04465390    0.00007741
     atom    7 type  1   force =    -0.00029444   -0.00299305   -0.00010459
     atom    8 type  1   force =     0.02077101   -0.00149418   -0.00041212
     atom    9 type  2   force =    -0.00314844    0.00256901    0.00066044
     atom   10 type  2   force =     0.00093562   -0.00231803   -0.00001093
     atom   11 type  1   force =    -0.00120661   -0.00014982    0.00014429
     atom   12 type  1   force =    -0.00315188   -0.00015711    0.00003639
     atom   13 type  1   force =     0.02375894   -0.00096613    0.00066261
     atom   14 type  1   force =    -0.00461965   -0.00773113   -0.00046966
     atom   15 type  1   force =     0.00062978    0.00096306    0.00005716
     atom   16 type  2   force =    -0.03151305    0.00637471    0.00024935
     atom   17 type  2   force =     0.00275134    0.00505833   -0.00038623
     atom   18 type  1   force =    -0.00220248   -0.04273181   -0.00010750
     atom   19 type  1   force =     0.00156459    0.04153547    0.00026437
     atom   20 type  1   force =    -0.00428951   -0.00325367    0.00038303
     atom   21 type  1   force =    -0.02343672   -0.00108757   -0.00062707
     atom   22 type  2   force =    -0.01838133    0.00248841   -0.00079256
     atom   23 type  2   force =    -0.00683047    0.00140813   -0.00027328
     atom   24 type  1   force =     0.00987462    0.02762765    0.00024947
     atom   25 type  1   force =     0.01123745   -0.02880018    0.00016854
     atom   26 type  1   force =    -0.01072147   -0.00094111   -0.00013991
     atom   27 type  3   force =    -0.00002218   -0.00028062    0.00012146
     atom   28 type  3   force =    -0.00002802    0.00029418    0.00034388
     atom   29 type  3   force =     0.00026305   -0.00000872    0.00018701
     atom   30 type  3   force =     0.00027317    0.00006909    0.00023550
     atom   31 type  1   force =    -0.00042303    0.00006709   -0.00017192

     Total force =     0.002093     Total SCF correction =     0.000125

     bfgs converged in  26 scf cycles and  25 bfgs steps
     (criteria: energy < 0.10E-03, force < 0.10E-02)

     End of BFGS Geometry Optimization

     Final energy   =   -2161.0686899550 Ry
Begin final coordinates

ATOMIC_POSITIONS (crystal)
O0       0.000000000   0.000000000   0.379639808    0   0   1
O0       0.000000000   0.500000000   0.403420943    0   0   1
Ru1      0.250000000   0.500000000   0.454355205    0   0   1
Ru1      0.000000000   0.000000000   0.453052006    0   0   1
O0       0.250000000   0.810000000   0.453063976    0   0   1
O0       0.250000000   0.190000000   0.452900202    0   0   1
O0       0.000000000   0.500000000   0.499248494    0   0   1
O0       0.000000000   0.000000000   0.525576976    0   0   1
Ru1      0.250000000   0.000000000   0.578779898    0   0   1
Ru1      0.000000000   0.500000000   0.568791674    0   0   1
O0       0.250000000   0.690000000   0.576860788    0   0   1
O0       0.250000000   0.310000000   0.576759174    0   0   1
O0       0.000000000   0.000000000   0.617291010    0   0   1
O0       0.500000000   0.000000000   0.379362470    0   0   1
O0       0.500000000   0.500000000   0.404729971    0   0   1
Ru1      0.750000000   0.500000000   0.454298049    0   0   1
Ru1      0.500000000   0.000000000   0.452720762    0   0   1
O0       0.750000000   0.810000000   0.453158106    0   0   1
O0       0.750000000   0.190000000   0.452954108    0   0   1
O0       0.500000000   0.500000000   0.503645200    0   0   1
O0       0.500000000   0.000000000   0.525549570    0   0   1
Ru1      0.750000000   0.000000000   0.573558536    0   0   1
Ru1      0.500000000   0.500000000   0.581731076    0   0   1
O0       0.750000000   0.690000000   0.573085699    0   0   1
O0       0.750000000   0.310000000   0.572855850    0   0   1
O0       0.500000000   0.000000000   0.616445529    0   0   1
H2      -0.000199771   0.625169852   0.381697259
H2       0.499443720   0.614775672   0.379926863
H2       0.146212152   0.027685676   0.366920103
H2       0.646402745   0.025949357   0.366580085
O0       0.515282150   0.497040523   0.646010610
End final coordinates



     init_run     :    105.33s CPU    108.16s WALL (       1 calls)
     electrons    : 149462.39s CPU 153994.06s WALL (      26 calls)
     update_pot   :    507.57s CPU    516.45s WALL (      25 calls)
     forces       :   3275.54s CPU   3319.41s WALL (      26 calls)

     Called by init_run:
     wfcinit      :     37.88s CPU     38.85s WALL (       1 calls)
     potinit      :      7.33s CPU      7.50s WALL (       1 calls)

     Called by electrons:
     c_bands      :  78967.27s CPU  81407.90s WALL (     854 calls)
     sum_band     :  30026.22s CPU  30931.87s WALL (     854 calls)
     v_of_rho     :    958.68s CPU   1025.61s WALL (     874 calls)
     newd         :  40000.96s CPU  40457.32s WALL (     874 calls)
     mix_rho      :    188.55s CPU    193.59s WALL (     854 calls)

     Called by c_bands:
     init_us_2    :    201.28s CPU    202.78s WALL (    5361 calls)
     cegterg      :  77838.16s CPU  79887.59s WALL (    2562 calls)

     Called by *egterg:
     h_psi        :  46804.06s CPU  48056.92s WALL (    6242 calls)
     s_psi        :   4467.04s CPU   4522.75s WALL (    6398 calls)
     g_psi        :     96.37s CPU     96.49s WALL (    3677 calls)
     cdiaghg      :   5736.56s CPU   5753.37s WALL (    6146 calls)

     Called by h_psi:
     add_vuspsi   :   4387.34s CPU   4447.02s WALL (    6242 calls)
     vhpsi        :   4790.02s CPU   4839.14s WALL (    6242 calls)

     General routines
     calbec       :  10445.67s CPU  10543.63s WALL (   39682 calls)
     fft          :   1223.56s CPU   1484.73s WALL (   14215 calls)
     ffts         :     15.41s CPU     16.02s WALL (    1728 calls)
     fftw         :  26543.14s CPU  27983.21s WALL ( 4683640 calls)
     interpolate  :    149.87s CPU    152.23s WALL (    1728 calls)
     davcio       :      0.44s CPU     90.61s WALL (    5439 calls)

     Parallel routines
     fft_scatter  :  10822.13s CPU  12458.46s WALL ( 4699583 calls)
     Hubbard U routines
     new_ns       :   1081.67s CPU   1148.16s WALL (     854 calls)
     vhpsi        :   4790.02s CPU   4839.14s WALL (    6242 calls)
     force_hub    :    938.53s CPU    955.07s WALL (      26 calls)

     PWSCF        :     1d   18h57m CPU        1d   20h14m WALL


   This run was terminated on:  19:37:10  28Apr2014            

=------------------------------------------------------------------------------=
   JOB DONE.
=------------------------------------------------------------------------------=
