
     Program PWSCF v.5.0.2 (svn rev. 9656) starts on  8May2014 at 23:22:42 

     This program is part of the open-source Quantum ESPRESSO suite
     for quantum simulation of materials; please cite
         "P. Giannozzi et al., J. Phys.:Condens. Matter 21 395502 (2009);
          URL http://www.quantum-espresso.org", 
     in publications or presentations arising from this work. More details at
     http://www.quantum-espresso.org/quote.php

     Parallel version (MPI), running on    16 processors
     K-points division:     npool     =       4
     R & G space division:  proc/nbgrp/npool/nimage =       4

     Current dimensions of program PWSCF are:
     Max number of different atomic species (ntypx) = 10
     Max number of k-points (npk) =  40000
     Max angular momentum in pseudopotentials (lmaxx) =  3
     Reading input from pwscf.in
Warning: card &CELL ignored
Warning: card / ignored

     Subspace diagonalization in iterative solution of the eigenvalue problem:
     a serial algorithm will be used


     Parallelization info
     --------------------
     sticks:   dense  smooth     PW     G-vecs:    dense   smooth      PW
     Min        1424     456    126               337026    61014    9038
     Max        1425     457    127               337029    61047    9044
     Sum        5697    1827    505              1348107   244131   36167



     bravais-lattice index     =            0
     lattice parameter (alat)  =      11.7541  a.u.
     unit-cell volume          =    7139.8207 (a.u.)^3
     number of atoms/cell      =           30
     number of atomic types    =            3
     number of electrons       =       232.00
     number of Kohn-Sham states=          348
     kinetic-energy cutoff     =      40.0000  Ry
     charge density cutoff     =     500.0000  Ry
     convergence threshold     =      1.0E-06
     mixing beta               =       0.7000
     number of iterations used =            8  plain     mixing
     Exchange-correlation      = SLA  PW   PBE  PBE ( 1 4 3 4 0)
     EXX-fraction              =        0.00
     nstep                     =           50


     celldm(1)=  11.754097  celldm(2)=   0.000000  celldm(3)=   0.000000
     celldm(4)=   0.000000  celldm(5)=   0.000000  celldm(6)=   0.000000

     crystal axes: (cart. coord. in units of alat)
               a(1) = (   1.000000   0.000000   0.000000 )  
               a(2) = (   0.000000   1.034513   0.000000 )  
               a(3) = (   0.000000   0.000000   4.249947 )  

     reciprocal axes: (cart. coord. in units 2 pi/alat)
               b(1) = (  1.000000  0.000000  0.000000 )  
               b(2) = (  0.000000  0.966638  0.000000 )  
               b(3) = (  0.000000  0.000000  0.235297 )  


     PseudoPot. # 1 for O  read from file:
     /home/camp/zhonxu/pseudo/o_pbe_v1.01.uspp.F.UPF
     MD5 check sum: 2bcb18d16ea4b960afae9ec6d52f22d2
     Pseudo is Ultrasoft + core correction, Zval =  6.0
     Generated by new atomic code, or converted to UPF format
     Using radial grid of  737 points,  5 beta functions with: 
                l(1) =   0
                l(2) =   0
                l(3) =   1
                l(4) =   1
                l(5) =   2
     Q(r) pseudized with  8 coefficients,  rinner =    0.900   0.900   0.900
                                                       0.900   0.900

     PseudoPot. # 2 for Rh read from file:
     /home/camp/zhonxu/pseudo/rh_pbe_v1.uspp.F.UPF
     MD5 check sum: 37b626987ad0dd8ec6bf4cc9ef289918
     Pseudo is Ultrasoft + core correction, Zval = 15.0
     Generated by new atomic code, or converted to UPF format
     Using radial grid of  969 points,  7 beta functions with: 
                l(1) =   0
                l(2) =   0
                l(3) =   1
                l(4) =   1
                l(5) =   2
                l(6) =   2
                l(7) =   2
     Q(r) pseudized with  6 coefficients,  rinner =    1.050   1.050   1.050
                                                       1.050   1.050

     PseudoPot. # 3 for H  read from file:
     /home/camp/zhonxu/pseudo/h_pbe_v1.uspp.F.UPF
     MD5 check sum: 3408e3ff4ec8b0a4e358431e7e038a48
     Pseudo is Ultrasoft, Zval =  1.0
     Generated by new atomic code, or converted to UPF format
     Using radial grid of  615 points,  2 beta functions with: 
                l(1) =   0
                l(2) =   0
     Q(r) pseudized with  8 coefficients,  rinner =    0.700

     atomic species   valence    mass     pseudopotential
        O0             6.00    15.99940     O ( 1.00)
        Rh1           15.00   102.90550     Rh( 1.00)
        H2             1.00     1.00794     H ( 1.00)


     Simplified LDA+U calculation (l_max = 2) with parameters (eV):
     atomic species    L          U    alpha       J0     beta
        Rh1            2     4.0000   0.0000   0.0000   0.0000



     No symmetry found



   Cartesian axes

     site n.     atom                  positions (alat units)
         1           O0  tau(   1) = (   0.0000000   0.0000000   1.6092425  )
         2           O0  tau(   2) = (   0.0000000   0.5172566   1.7020614  )
         3           Rh1 tau(   3) = (   0.2500000   0.5172566   1.9209336  )
         4           Rh1 tau(   4) = (   0.0000000   0.0000000   1.9260761  )
         5           O0  tau(   5) = (   0.2500000   0.8379556   1.9243336  )
         6           O0  tau(   6) = (   0.2500000   0.1965575   1.9234411  )
         7           O0  tau(   7) = (   0.0000000   0.5172566   2.1185137  )
         8           O0  tau(   8) = (   0.0000000   0.0000000   2.2473721  )
         9           Rh1 tau(   9) = (   0.2500000   0.0000000   2.4498821  )
        10           Rh1 tau(  10) = (   0.0000000   0.5172566   2.4276124  )
        11           O0  tau(  11) = (   0.2500000   0.7138141   2.4560020  )
        12           O0  tau(  12) = (   0.2500000   0.3206991   2.4560870  )
        13           O0  tau(  13) = (   0.0000000   0.0000000   2.6421072  )
        14           O0  tau(  14) = (   0.5000000   0.0000000   1.6092425  )
        15           O0  tau(  15) = (   0.5000000   0.5172566   1.7020614  )
        16           Rh1 tau(  16) = (   0.7500000   0.5172566   1.9209336  )
        17           Rh1 tau(  17) = (   0.5000000   0.0000000   1.9260761  )
        18           O0  tau(  18) = (   0.7500000   0.8379556   1.9243336  )
        19           O0  tau(  19) = (   0.7500000   0.1965575   1.9234411  )
        20           O0  tau(  20) = (   0.5000000   0.5172566   2.1185137  )
        21           O0  tau(  21) = (   0.5000000   0.0000000   2.2473721  )
        22           Rh1 tau(  22) = (   0.7500000   0.0000000   2.4498821  )
        23           Rh1 tau(  23) = (   0.5000000   0.5172566   2.4276124  )
        24           O0  tau(  24) = (   0.7500000   0.7138141   2.4560020  )
        25           O0  tau(  25) = (   0.7500000   0.3206991   2.4560870  )
        26           O0  tau(  26) = (   0.5000000   0.0000000   2.6421072  )
        27           H2  tau(  27) = (  -0.0000700   0.6610229   1.6318947  )
        28           H2  tau(  28) = (   0.4999300   0.6610125   1.6318947  )
        29           H2  tau(  29) = (   0.1484400   0.0336527   1.5632581  )
        30           H2  tau(  30) = (   0.6484400   0.0336527   1.5632581  )

     number of k points=    10  Methfessel-Paxton smearing, width (Ry)=  0.0100
                       cart. coord. in units 2pi/alat
        k(    1) = (   0.0000000   0.0000000   0.0000000), wk =   0.1250000
        k(    2) = (   0.0000000   0.2416596   0.0000000), wk =   0.2500000
        k(    3) = (   0.0000000  -0.4833191   0.0000000), wk =   0.1250000
        k(    4) = (   0.2500000   0.0000000   0.0000000), wk =   0.2500000
        k(    5) = (   0.2500000   0.2416596   0.0000000), wk =   0.2500000
        k(    6) = (   0.2500000  -0.4833191   0.0000000), wk =   0.2500000
        k(    7) = (  -0.5000000   0.0000000   0.0000000), wk =   0.1250000
        k(    8) = (  -0.5000000   0.2416596   0.0000000), wk =   0.2500000
        k(    9) = (  -0.5000000  -0.4833191   0.0000000), wk =   0.1250000
        k(   10) = (  -0.2500000   0.2416596   0.0000000), wk =   0.2500000

     Dense  grid:  1348107 G-vectors     FFT dimensions: (  90,  90, 360)

     Smooth grid:   244131 G-vectors     FFT dimensions: (  48,  50, 216)

     Largest allocated arrays     est. size (Mb)     dimensions
        Kohn-Sham Wavefunctions        40.77 Mb     (   7677,  348)
        Atomic wavefunctions           20.15 Mb     (   7677,  172)
        NL pseudopotentials            49.90 Mb     (   7677,  426)
        Each V/rho on FFT grid         11.12 Mb     ( 729000)
        Each G-vector array             2.57 Mb     ( 337026)
        G-vector shells                 1.12 Mb     ( 146445)
     Largest temporary arrays     est. size (Mb)     dimensions
        Auxiliary wavefunctions       163.06 Mb     (   7677, 1392)
        Each subspace H/S matrix       29.57 Mb     (1392,1392)
        Each <psi_i|beta_j> matrix      2.26 Mb     (    426,  348)
        Arrays for rho mixing          88.99 Mb     ( 729000,   8)

     Check: negative/imaginary core charge=   -0.000002    0.000000

     Initial potential from superposition of free atoms
     Check: negative starting charge=   -0.642992

     starting charge  227.99915, renormalised to  232.00000

     negative rho (up, down):  0.654E+00 0.000E+00
     Number of +U iterations with fixed ns =  0
     Starting occupations:
 --- enter write_ns ---
 LDA+U parameters:
U( 2)     =  4.00000000
alpha( 2) =  0.00000000
atom    3   Tr[ns(na)] =   7.00000
    eigenvalues: 
  0.700  0.700  0.700  0.700  0.700
    eigenvectors:
  1.000  0.000  0.000  0.000  0.000
  0.000  1.000  0.000  0.000  0.000
  0.000  0.000  1.000  0.000  0.000
  0.000  0.000  0.000  1.000  0.000
  0.000  0.000  0.000  0.000  1.000
    occupations:
  0.700  0.000  0.000  0.000  0.000
  0.000  0.700  0.000  0.000  0.000
  0.000  0.000  0.700  0.000  0.000
  0.000  0.000  0.000  0.700  0.000
  0.000  0.000  0.000  0.000  0.700
atom    4   Tr[ns(na)] =   7.00000
    eigenvalues: 
  0.700  0.700  0.700  0.700  0.700
    eigenvectors:
  1.000  0.000  0.000  0.000  0.000
  0.000  1.000  0.000  0.000  0.000
  0.000  0.000  1.000  0.000  0.000
  0.000  0.000  0.000  1.000  0.000
  0.000  0.000  0.000  0.000  1.000
    occupations:
  0.700  0.000  0.000  0.000  0.000
  0.000  0.700  0.000  0.000  0.000
  0.000  0.000  0.700  0.000  0.000
  0.000  0.000  0.000  0.700  0.000
  0.000  0.000  0.000  0.000  0.700
atom    9   Tr[ns(na)] =   7.00000
    eigenvalues: 
  0.700  0.700  0.700  0.700  0.700
    eigenvectors:
  1.000  0.000  0.000  0.000  0.000
  0.000  1.000  0.000  0.000  0.000
  0.000  0.000  1.000  0.000  0.000
  0.000  0.000  0.000  1.000  0.000
  0.000  0.000  0.000  0.000  1.000
    occupations:
  0.700  0.000  0.000  0.000  0.000
  0.000  0.700  0.000  0.000  0.000
  0.000  0.000  0.700  0.000  0.000
  0.000  0.000  0.000  0.700  0.000
  0.000  0.000  0.000  0.000  0.700
atom   10   Tr[ns(na)] =   7.00000
    eigenvalues: 
  0.700  0.700  0.700  0.700  0.700
    eigenvectors:
  1.000  0.000  0.000  0.000  0.000
  0.000  1.000  0.000  0.000  0.000
  0.000  0.000  1.000  0.000  0.000
  0.000  0.000  0.000  1.000  0.000
  0.000  0.000  0.000  0.000  1.000
    occupations:
  0.700  0.000  0.000  0.000  0.000
  0.000  0.700  0.000  0.000  0.000
  0.000  0.000  0.700  0.000  0.000
  0.000  0.000  0.000  0.700  0.000
  0.000  0.000  0.000  0.000  0.700
atom   16   Tr[ns(na)] =   7.00000
    eigenvalues: 
  0.700  0.700  0.700  0.700  0.700
    eigenvectors:
  1.000  0.000  0.000  0.000  0.000
  0.000  1.000  0.000  0.000  0.000
  0.000  0.000  1.000  0.000  0.000
  0.000  0.000  0.000  1.000  0.000
  0.000  0.000  0.000  0.000  1.000
    occupations:
  0.700  0.000  0.000  0.000  0.000
  0.000  0.700  0.000  0.000  0.000
  0.000  0.000  0.700  0.000  0.000
  0.000  0.000  0.000  0.700  0.000
  0.000  0.000  0.000  0.000  0.700
atom   17   Tr[ns(na)] =   7.00000
    eigenvalues: 
  0.700  0.700  0.700  0.700  0.700
    eigenvectors:
  1.000  0.000  0.000  0.000  0.000
  0.000  1.000  0.000  0.000  0.000
  0.000  0.000  1.000  0.000  0.000
  0.000  0.000  0.000  1.000  0.000
  0.000  0.000  0.000  0.000  1.000
    occupations:
  0.700  0.000  0.000  0.000  0.000
  0.000  0.700  0.000  0.000  0.000
  0.000  0.000  0.700  0.000  0.000
  0.000  0.000  0.000  0.700  0.000
  0.000  0.000  0.000  0.000  0.700
atom   22   Tr[ns(na)] =   7.00000
    eigenvalues: 
  0.700  0.700  0.700  0.700  0.700
    eigenvectors:
  1.000  0.000  0.000  0.000  0.000
  0.000  1.000  0.000  0.000  0.000
  0.000  0.000  1.000  0.000  0.000
  0.000  0.000  0.000  1.000  0.000
  0.000  0.000  0.000  0.000  1.000
    occupations:
  0.700  0.000  0.000  0.000  0.000
  0.000  0.700  0.000  0.000  0.000
  0.000  0.000  0.700  0.000  0.000
  0.000  0.000  0.000  0.700  0.000
  0.000  0.000  0.000  0.000  0.700
atom   23   Tr[ns(na)] =   7.00000
    eigenvalues: 
  0.700  0.700  0.700  0.700  0.700
    eigenvectors:
  1.000  0.000  0.000  0.000  0.000
  0.000  1.000  0.000  0.000  0.000
  0.000  0.000  1.000  0.000  0.000
  0.000  0.000  0.000  1.000  0.000
  0.000  0.000  0.000  0.000  1.000
    occupations:
  0.700  0.000  0.000  0.000  0.000
  0.000  0.700  0.000  0.000  0.000
  0.000  0.000  0.700  0.000  0.000
  0.000  0.000  0.000  0.700  0.000
  0.000  0.000  0.000  0.000  0.700
N of occupied +U levels =  56.0000000
 --- exit write_ns ---
 Atomic wfc used for LDA+U Projector are NOT orthogonalized
     Starting wfc are  172 randomized atomic wfcs

     total cpu time spent up to now is      115.2 secs

     per-process dynamical memory:   418.7 Mb

     Self-consistent Calculation

     iteration #  1     ecut=    40.00 Ry     beta=0.70
     Davidson diagonalization with overlap
     ethr =  1.00E-02,  avg # of iterations =  5.8
 --- enter write_ns ---
 LDA+U parameters:
U( 2)     =  4.00000000
alpha( 2) =  0.00000000
atom    3   Tr[ns(na)] =   6.43168
    eigenvalues: 
  0.430  0.463  0.656  0.811  0.856
    eigenvectors:
  0.000  0.233  0.007  0.761  0.000
  1.000  0.000  0.000  0.000  0.000
  0.000  0.000  0.990  0.009  0.000
  0.000  0.767  0.003  0.230  0.000
  0.000  0.000  0.000  0.000  1.000
    occupations:
  0.729 -0.000  0.014 -0.147  0.000
 -0.000  0.430 -0.000  0.000 -0.004
  0.014 -0.000  0.658 -0.006  0.001
 -0.147  0.000 -0.006  0.543 -0.000
  0.000 -0.004  0.001 -0.000  0.856
atom    4   Tr[ns(na)] =   5.92118
    eigenvalues: 
  0.456  0.465  0.477  0.671  0.893
    eigenvectors:
  0.000  0.010  0.984  0.000  0.007
  0.000  0.009  0.000  0.991  0.000
  0.002  0.980  0.010  0.009  0.000
  0.000  0.000  0.007  0.000  0.993
  0.998  0.002  0.000  0.000  0.000
    occupations:
  0.479 -0.000  0.001  0.033  0.000
 -0.000  0.669  0.019 -0.000 -0.001
  0.001  0.019  0.467  0.003  0.000
  0.033 -0.000  0.003  0.890 -0.000
  0.000 -0.001  0.000 -0.000  0.456
atom    9   Tr[ns(na)] =   7.65895
    eigenvalues: 
  0.472  0.486  0.937  0.963  0.971
    eigenvectors:
  0.000  0.160  0.000  0.000  0.839
  0.999  0.001  0.000  0.000  0.000
  0.000  0.000  0.000  1.000  0.000
  0.001  0.839  0.000  0.000  0.161
  0.000  0.000  1.000  0.000  0.000
    occupations:
  0.893  0.000 -0.000 -0.178  0.000
  0.000  0.472  0.001  0.000 -0.000
 -0.000  0.001  0.963 -0.000 -0.000
 -0.178  0.000 -0.000  0.564  0.000
  0.000 -0.000 -0.000  0.000  0.937
atom   10   Tr[ns(na)] =   7.84402
    eigenvalues: 
  0.463  0.561  0.964  0.965  0.968
    eigenvectors:
  0.000  0.992  0.008  0.000  0.000
  0.000  0.000  0.000  0.000  1.000
  0.000  0.000  0.010  0.990  0.000
  0.000  0.008  0.982  0.010  0.000
  1.000  0.000  0.000  0.000  0.000
    occupations:
  0.564  0.000  0.002  0.036 -0.000
  0.000  0.968 -0.000 -0.000  0.000
  0.002 -0.000  0.965 -0.000  0.000
  0.036 -0.000 -0.000  0.961 -0.000
 -0.000  0.000  0.000 -0.000  0.463
atom   16   Tr[ns(na)] =   6.43168
    eigenvalues: 
  0.430  0.463  0.656  0.811  0.856
    eigenvectors:
  0.000  0.233  0.007  0.761  0.000
  1.000  0.000  0.000  0.000  0.000
  0.000  0.000  0.990  0.009  0.000
  0.000  0.767  0.003  0.230  0.000
  0.000  0.000  0.000  0.000  1.000
    occupations:
  0.729  0.000  0.014 -0.147  0.000
  0.000  0.430 -0.000  0.000 -0.004
  0.014 -0.000  0.658 -0.006  0.001
 -0.147  0.000 -0.006  0.543 -0.000
  0.000 -0.004  0.001 -0.000  0.856
atom   17   Tr[ns(na)] =   5.92117
    eigenvalues: 
  0.456  0.465  0.477  0.671  0.893
    eigenvectors:
  0.000  0.010  0.984  0.000  0.007
  0.000  0.009  0.000  0.991  0.000
  0.002  0.980  0.010  0.009  0.000
  0.000  0.000  0.007  0.000  0.993
  0.998  0.002  0.000  0.000  0.000
    occupations:
  0.479 -0.000  0.001  0.033  0.000
 -0.000  0.669  0.019 -0.000 -0.001
  0.001  0.019  0.467  0.003  0.000
  0.033 -0.000  0.003  0.890 -0.000
  0.000 -0.001  0.000 -0.000  0.456
atom   22   Tr[ns(na)] =   7.65895
    eigenvalues: 
  0.472  0.486  0.937  0.963  0.971
    eigenvectors:
  0.000  0.160  0.000  0.000  0.839
  0.999  0.001  0.000  0.000  0.000
  0.000  0.000  0.000  1.000  0.000
  0.001  0.839  0.000  0.000  0.161
  0.000  0.000  1.000  0.000  0.000
    occupations:
  0.893  0.000 -0.000 -0.178  0.000
  0.000  0.472  0.001  0.000 -0.000
 -0.000  0.001  0.963 -0.000 -0.000
 -0.178  0.000 -0.000  0.564  0.000
  0.000 -0.000 -0.000  0.000  0.937
atom   23   Tr[ns(na)] =   7.84401
    eigenvalues: 
  0.463  0.561  0.964  0.965  0.968
    eigenvectors:
  0.000  0.992  0.008  0.000  0.000
  0.000  0.000  0.000  0.000  1.000
  0.000  0.000  0.010  0.990  0.000
  0.000  0.008  0.982  0.010  0.000
  1.000  0.000  0.000  0.000  0.000
    occupations:
  0.564  0.000  0.002  0.036 -0.000
  0.000  0.968 -0.000 -0.000  0.000
  0.002 -0.000  0.965 -0.000  0.000
  0.036 -0.000 -0.000  0.961 -0.000
 -0.000  0.000  0.000 -0.000  0.463
N of occupied +U levels =  55.7116557
 --- exit write_ns ---

     negative rho (up, down):  0.672E+00 0.000E+00

     total cpu time spent up to now is      466.5 secs

     total energy              =   -1930.50408918 Ry
     Harris-Foulkes estimate   =   -1949.05051331 Ry
     estimated scf accuracy    <      22.40335588 Ry

     iteration #  2     ecut=    40.00 Ry     beta=0.70
     Davidson diagonalization with overlap
     ethr =  9.66E-03,  avg # of iterations =  5.0

     negative rho (up, down):  0.581E+00 0.000E+00

     total cpu time spent up to now is      786.9 secs

     total energy              =   -1825.49417129 Ry
     Harris-Foulkes estimate   =   -2067.43094523 Ry
     estimated scf accuracy    <    2914.03336407 Ry

     iteration #  3     ecut=    40.00 Ry     beta=0.70
     Davidson diagonalization with overlap
     ethr =  9.66E-03,  avg # of iterations =  5.0

     negative rho (up, down):  0.555E+00 0.000E+00

     total cpu time spent up to now is     1132.6 secs

     total energy              =   -1931.44390374 Ry
     Harris-Foulkes estimate   =   -1966.34370358 Ry
     estimated scf accuracy    <     227.12408596 Ry

     iteration #  4     ecut=    40.00 Ry     beta=0.70
     Davidson diagonalization with overlap
     ethr =  9.66E-03,  avg # of iterations =  3.0

     negative rho (up, down):  0.563E+00 0.000E+00

     total cpu time spent up to now is     1338.3 secs

     total energy              =   -1943.72665649 Ry
     Harris-Foulkes estimate   =   -1949.63443381 Ry
     estimated scf accuracy    <      28.42270451 Ry

     iteration #  5     ecut=    40.00 Ry     beta=0.70
     Davidson diagonalization with overlap
     ethr =  9.66E-03,  avg # of iterations =  1.2

     negative rho (up, down):  0.588E+00 0.000E+00

     total cpu time spent up to now is     1521.5 secs

     total energy              =   -1946.30570577 Ry
     Harris-Foulkes estimate   =   -1947.23521744 Ry
     estimated scf accuracy    <      13.43887506 Ry

     iteration #  6     ecut=    40.00 Ry     beta=0.70
     Davidson diagonalization with overlap
     ethr =  5.79E-03,  avg # of iterations =  1.0

     negative rho (up, down):  0.601E+00 0.000E+00

     total cpu time spent up to now is     1710.1 secs

     total energy              =   -1946.54794718 Ry
     Harris-Foulkes estimate   =   -1946.90919716 Ry
     estimated scf accuracy    <       2.27859818 Ry

     iteration #  7     ecut=    40.00 Ry     beta=0.70
     Davidson diagonalization with overlap
     ethr =  9.82E-04,  avg # of iterations =  4.5

     negative rho (up, down):  0.616E+00 0.000E+00

     total cpu time spent up to now is     1921.7 secs

     total energy              =   -1946.64281033 Ry
     Harris-Foulkes estimate   =   -1946.70580155 Ry
     estimated scf accuracy    <       0.86510849 Ry

     iteration #  8     ecut=    40.00 Ry     beta=0.70
     Davidson diagonalization with overlap
     ethr =  3.73E-04,  avg # of iterations =  2.2

     negative rho (up, down):  0.635E+00 0.000E+00

     total cpu time spent up to now is     2115.6 secs

     total energy              =   -1946.58705685 Ry
     Harris-Foulkes estimate   =   -1946.73249899 Ry
     estimated scf accuracy    <       1.66778715 Ry

     iteration #  9     ecut=    40.00 Ry     beta=0.70
     Davidson diagonalization with overlap
     ethr =  3.73E-04,  avg # of iterations =  3.4

     negative rho (up, down):  0.648E+00 0.000E+00

     total cpu time spent up to now is     2312.5 secs

     total energy              =   -1946.56211272 Ry
     Harris-Foulkes estimate   =   -1946.71300595 Ry
     estimated scf accuracy    <       0.95193500 Ry

     iteration # 10     ecut=    40.00 Ry     beta=0.70
     Davidson diagonalization with overlap
     ethr =  3.73E-04,  avg # of iterations =  1.1

     negative rho (up, down):  0.671E+00 0.000E+00

     total cpu time spent up to now is     2505.7 secs

     total energy              =   -1946.61501781 Ry
     Harris-Foulkes estimate   =   -1946.71261297 Ry
     estimated scf accuracy    <       0.81850111 Ry

     iteration # 11     ecut=    40.00 Ry     beta=0.70
     Davidson diagonalization with overlap
     ethr =  3.53E-04,  avg # of iterations =  2.4

     negative rho (up, down):  0.680E+00 0.000E+00

     total cpu time spent up to now is     2705.3 secs

     total energy              =   -1946.62618113 Ry
     Harris-Foulkes estimate   =   -1946.68102643 Ry
     estimated scf accuracy    <       0.32659048 Ry

     iteration # 12     ecut=    40.00 Ry     beta=0.70
     Davidson diagonalization with overlap
     ethr =  1.41E-04,  avg # of iterations =  6.0

     negative rho (up, down):  0.680E+00 0.000E+00

     total cpu time spent up to now is     2921.0 secs

     total energy              =   -1946.63241191 Ry
     Harris-Foulkes estimate   =   -1946.67412731 Ry
     estimated scf accuracy    <       0.63326273 Ry

     iteration # 13     ecut=    40.00 Ry     beta=0.70
     Davidson diagonalization with overlap
     ethr =  1.41E-04,  avg # of iterations =  1.0

     negative rho (up, down):  0.682E+00 0.000E+00

     total cpu time spent up to now is     3112.1 secs

     total energy              =   -1946.63051860 Ry
     Harris-Foulkes estimate   =   -1946.65988206 Ry
     estimated scf accuracy    <       0.19373934 Ry

     iteration # 14     ecut=    40.00 Ry     beta=0.70
     Davidson diagonalization with overlap
     ethr =  8.35E-05,  avg # of iterations =  3.1

     negative rho (up, down):  0.689E+00 0.000E+00

     total cpu time spent up to now is     3312.0 secs

     total energy              =   -1946.60229334 Ry
     Harris-Foulkes estimate   =   -1946.68484637 Ry
     estimated scf accuracy    <       0.57366059 Ry

     iteration # 15     ecut=    40.00 Ry     beta=0.70
     Davidson diagonalization with overlap
     ethr =  8.35E-05,  avg # of iterations =  5.9

     negative rho (up, down):  0.686E+00 0.000E+00

     total cpu time spent up to now is     3523.4 secs

     total energy              =   -1946.58094379 Ry
     Harris-Foulkes estimate   =   -1946.72358114 Ry
     estimated scf accuracy    <       2.08801876 Ry

     iteration # 16     ecut=    40.00 Ry     beta=0.70
     Davidson diagonalization with overlap
     ethr =  8.35E-05,  avg # of iterations =  3.0

     negative rho (up, down):  0.686E+00 0.000E+00

     total cpu time spent up to now is     3717.8 secs

     total energy              =   -1946.64197164 Ry
     Harris-Foulkes estimate   =   -1946.65977515 Ry
     estimated scf accuracy    <       0.11287340 Ry

     iteration # 17     ecut=    40.00 Ry     beta=0.70
     Davidson diagonalization with overlap
     ethr =  4.87E-05,  avg # of iterations =  1.9

     negative rho (up, down):  0.685E+00 0.000E+00

     total cpu time spent up to now is     3911.3 secs

     total energy              =   -1946.64974609 Ry
     Harris-Foulkes estimate   =   -1946.65151926 Ry
     estimated scf accuracy    <       0.00964547 Ry

     iteration # 18     ecut=    40.00 Ry     beta=0.70
     Davidson diagonalization with overlap
     ethr =  4.16E-06,  avg # of iterations =  7.3

     negative rho (up, down):  0.685E+00 0.000E+00

     total cpu time spent up to now is     4145.2 secs

     total energy              =   -1946.65018064 Ry
     Harris-Foulkes estimate   =   -1946.65095517 Ry
     estimated scf accuracy    <       0.00296007 Ry

     iteration # 19     ecut=    40.00 Ry     beta=0.70
     Davidson diagonalization with overlap
     ethr =  1.28E-06,  avg # of iterations =  1.1

     negative rho (up, down):  0.685E+00 0.000E+00

     total cpu time spent up to now is     4337.2 secs

     total energy              =   -1946.65038555 Ry
     Harris-Foulkes estimate   =   -1946.65078434 Ry
     estimated scf accuracy    <       0.00258733 Ry

     iteration # 20     ecut=    40.00 Ry     beta=0.70
     Davidson diagonalization with overlap
     ethr =  1.12E-06,  avg # of iterations =  1.0

     negative rho (up, down):  0.685E+00 0.000E+00

     total cpu time spent up to now is     4527.4 secs

     total energy              =   -1946.65028557 Ry
     Harris-Foulkes estimate   =   -1946.65084639 Ry
     estimated scf accuracy    <       0.00361637 Ry

     iteration # 21     ecut=    40.00 Ry     beta=0.70
     Davidson diagonalization with overlap
     ethr =  1.12E-06,  avg # of iterations =  1.5

     negative rho (up, down):  0.685E+00 0.000E+00

     total cpu time spent up to now is     4719.5 secs

     total energy              =   -1946.65030791 Ry
     Harris-Foulkes estimate   =   -1946.65087785 Ry
     estimated scf accuracy    <       0.00282872 Ry

     iteration # 22     ecut=    40.00 Ry     beta=0.70
     Davidson diagonalization with overlap
     ethr =  1.12E-06,  avg # of iterations =  1.0

     negative rho (up, down):  0.685E+00 0.000E+00

     total cpu time spent up to now is     4910.8 secs

     total energy              =   -1946.65048201 Ry
     Harris-Foulkes estimate   =   -1946.65070317 Ry
     estimated scf accuracy    <       0.00215901 Ry

     iteration # 23     ecut=    40.00 Ry     beta=0.70
     Davidson diagonalization with overlap
     ethr =  9.31E-07,  avg # of iterations =  1.0

     negative rho (up, down):  0.686E+00 0.000E+00

     total cpu time spent up to now is     5104.6 secs

     total energy              =   -1946.65049788 Ry
     Harris-Foulkes estimate   =   -1946.65066445 Ry
     estimated scf accuracy    <       0.00098943 Ry

     iteration # 24     ecut=    40.00 Ry     beta=0.70
     Davidson diagonalization with overlap
     ethr =  4.26E-07,  avg # of iterations =  1.0

     negative rho (up, down):  0.686E+00 0.000E+00

     total cpu time spent up to now is     5287.4 secs

     total energy              =   -1946.65027835 Ry
     Harris-Foulkes estimate   =   -1946.65093384 Ry
     estimated scf accuracy    <       0.00790043 Ry

     iteration # 25     ecut=    40.00 Ry     beta=0.70
     Davidson diagonalization with overlap
     ethr =  4.26E-07,  avg # of iterations =  1.0

     negative rho (up, down):  0.686E+00 0.000E+00

     total cpu time spent up to now is     5467.9 secs

     total energy              =   -1946.65058771 Ry
     Harris-Foulkes estimate   =   -1946.65061595 Ry
     estimated scf accuracy    <       0.00014122 Ry

     iteration # 26     ecut=    40.00 Ry     beta=0.70
     Davidson diagonalization with overlap
     ethr =  6.09E-08,  avg # of iterations =  1.0

     negative rho (up, down):  0.686E+00 0.000E+00

     total cpu time spent up to now is     5651.4 secs

     total energy              =   -1946.65059473 Ry
     Harris-Foulkes estimate   =   -1946.65061232 Ry
     estimated scf accuracy    <       0.00020415 Ry

     iteration # 27     ecut=    40.00 Ry     beta=0.70
     Davidson diagonalization with overlap
     ethr =  6.09E-08,  avg # of iterations =  1.0

     negative rho (up, down):  0.686E+00 0.000E+00

     total cpu time spent up to now is     5838.0 secs

     total energy              =   -1946.65060235 Ry
     Harris-Foulkes estimate   =   -1946.65060437 Ry
     estimated scf accuracy    <       0.00000806 Ry

     iteration # 28     ecut=    40.00 Ry     beta=0.70
     Davidson diagonalization with overlap
     ethr =  3.48E-09,  avg # of iterations =  1.0

     negative rho (up, down):  0.686E+00 0.000E+00

     total cpu time spent up to now is     6026.6 secs

     total energy              =   -1946.65060010 Ry
     Harris-Foulkes estimate   =   -1946.65060757 Ry
     estimated scf accuracy    <       0.00007643 Ry

     iteration # 29     ecut=    40.00 Ry     beta=0.70
     Davidson diagonalization with overlap
     ethr =  3.48E-09,  avg # of iterations =  1.0

     negative rho (up, down):  0.686E+00 0.000E+00

     total cpu time spent up to now is     6210.8 secs

     total energy              =   -1946.65060302 Ry
     Harris-Foulkes estimate   =   -1946.65060443 Ry
     estimated scf accuracy    <       0.00000736 Ry

     iteration # 30     ecut=    40.00 Ry     beta=0.70
     Davidson diagonalization with overlap
     ethr =  3.17E-09,  avg # of iterations =  1.0

     negative rho (up, down):  0.686E+00 0.000E+00

     total cpu time spent up to now is     6394.9 secs

     total energy              =   -1946.65060256 Ry
     Harris-Foulkes estimate   =   -1946.65060503 Ry
     estimated scf accuracy    <       0.00002029 Ry

     iteration # 31     ecut=    40.00 Ry     beta=0.70
     Davidson diagonalization with overlap
     ethr =  3.17E-09,  avg # of iterations =  1.0

     negative rho (up, down):  0.686E+00 0.000E+00

     total cpu time spent up to now is     6575.7 secs

     total energy              =   -1946.65060357 Ry
     Harris-Foulkes estimate   =   -1946.65060412 Ry
     estimated scf accuracy    <       0.00000285 Ry

     iteration # 32     ecut=    40.00 Ry     beta=0.70
     Davidson diagonalization with overlap
     ethr =  1.23E-09,  avg # of iterations =  1.0

     negative rho (up, down):  0.686E+00 0.000E+00

     total cpu time spent up to now is     6773.6 secs

     End of self-consistent calculation
 --- enter write_ns ---
 LDA+U parameters:
U( 2)     =  4.00000000
alpha( 2) =  0.00000000
atom    3   Tr[ns(na)] =   8.05320
    eigenvalues: 
  0.582  0.599  0.911  0.962  0.972
    eigenvectors:
  0.000  0.208  0.002  0.000  0.790
  1.000  0.000  0.000  0.000  0.000
  0.000  0.000  0.997  0.000  0.002
  0.000  0.792  0.000  0.000  0.208
  0.000  0.000  0.000  1.000  0.000
    occupations:
  0.894 -0.000  0.001 -0.151 -0.000
 -0.000  0.582 -0.000 -0.000 -0.006
  0.001 -0.000  0.911 -0.005  0.001
 -0.151 -0.000 -0.005  0.677 -0.000
 -0.000 -0.006  0.001 -0.000  0.962
atom    4   Tr[ns(na)] =   8.04686
    eigenvalues: 
  0.600  0.649  0.873  0.923  0.978
    eigenvectors:
  0.001  0.991  0.000  0.000  0.008
  0.000  0.000  0.055  0.944  0.000
  0.000  0.000  0.945  0.055  0.000
  0.000  0.008  0.000  0.000  0.992
  0.999  0.001  0.000  0.000  0.000
    occupations:
  0.652 -0.004 -0.001  0.029  0.001
 -0.004  0.920  0.011  0.001 -0.001
 -0.001  0.011  0.876 -0.001  0.001
  0.029  0.001 -0.001  0.975  0.000
  0.001 -0.001  0.001  0.000  0.600
atom    9   Tr[ns(na)] =   8.04599
    eigenvalues: 
  0.634  0.647  0.868  0.895  0.980
    eigenvectors:
  0.000  0.154  0.000  0.000  0.845
  0.999  0.001  0.000  0.000  0.000
  0.000  0.000  1.000  0.000  0.000
  0.001  0.845  0.000  0.000  0.155
  0.000  0.000  0.000  1.000  0.000
    occupations:
  0.928  0.000 -0.000 -0.120 -0.001
  0.000  0.634  0.000  0.000 -0.000
 -0.000  0.000  0.868 -0.000 -0.000
 -0.120  0.000 -0.000  0.698  0.001
 -0.001 -0.000 -0.000  0.001  0.895
atom   10   Tr[ns(na)] =   8.03631
    eigenvalues: 
  0.590  0.593  0.929  0.929  0.976
    eigenvectors:
  0.994  0.000  0.000  0.000  0.005
  0.000  0.000  0.346  0.654  0.000
  0.000  0.000  0.654  0.346  0.000
  0.005  0.000  0.000  0.000  0.995
  0.000  1.000  0.000  0.000  0.000
    occupations:
  0.592  0.000  0.002  0.028 -0.000
  0.000  0.929 -0.000  0.000 -0.001
  0.002 -0.000  0.929  0.000  0.000
  0.028  0.000  0.000  0.974  0.000
 -0.000 -0.001  0.000  0.000  0.593
atom   16   Tr[ns(na)] =   8.05323
    eigenvalues: 
  0.582  0.599  0.911  0.962  0.972
    eigenvectors:
  0.000  0.208  0.002  0.000  0.790
  1.000  0.000  0.000  0.000  0.000
  0.000  0.000  0.997  0.000  0.002
  0.000  0.792  0.000  0.000  0.208
  0.000  0.000  0.000  0.999  0.000
    occupations:
  0.894 -0.000  0.001 -0.151 -0.000
 -0.000  0.582 -0.000 -0.000 -0.006
  0.001 -0.000  0.911 -0.005  0.001
 -0.151 -0.000 -0.005  0.677 -0.000
 -0.000 -0.006  0.001 -0.000  0.962
atom   17   Tr[ns(na)] =   8.04683
    eigenvalues: 
  0.600  0.649  0.873  0.923  0.978
    eigenvectors:
  0.001  0.991  0.000  0.000  0.008
  0.000  0.000  0.055  0.944  0.000
  0.000  0.000  0.945  0.055  0.000
  0.000  0.008  0.000  0.000  0.992
  0.999  0.001  0.000  0.000  0.000
    occupations:
  0.652 -0.004 -0.001  0.029  0.001
 -0.004  0.920  0.011  0.001 -0.001
 -0.001  0.011  0.876 -0.001  0.001
  0.029  0.001 -0.001  0.975  0.000
  0.001 -0.001  0.001  0.000  0.600
atom   22   Tr[ns(na)] =   8.04598
    eigenvalues: 
  0.634  0.647  0.868  0.895  0.980
    eigenvectors:
  0.000  0.154  0.000  0.000  0.845
  0.999  0.001  0.000  0.000  0.000
  0.000  0.000  1.000  0.000  0.000
  0.001  0.845  0.000  0.000  0.155
  0.000  0.000  0.000  1.000  0.000
    occupations:
  0.928  0.000 -0.000 -0.120 -0.001
  0.000  0.634  0.000  0.000 -0.000
 -0.000  0.000  0.868 -0.000 -0.000
 -0.120  0.000 -0.000  0.698  0.001
 -0.001 -0.000 -0.000  0.001  0.895
atom   23   Tr[ns(na)] =   8.03644
    eigenvalues: 
  0.590  0.593  0.929  0.929  0.976
    eigenvectors:
  0.994  0.000  0.000  0.000  0.005
  0.000  0.000  0.383  0.617  0.000
  0.000  0.000  0.617  0.383  0.000
  0.005  0.000  0.000  0.000  0.995
  0.000  1.000  0.000  0.000  0.000
    occupations:
  0.592  0.000  0.002  0.028 -0.000
  0.000  0.929 -0.000  0.000 -0.001
  0.002 -0.000  0.929  0.000  0.000
  0.028  0.000  0.000  0.974  0.000
 -0.000 -0.001  0.000  0.000  0.593
N of occupied +U levels =  64.3648423
 --- exit write_ns ---

          k = 0.0000 0.0000 0.0000 ( 30479 PWs)   bands (ev):

   -48.9172 -48.8432 -48.8319 -48.8212 -48.8124 -48.8043 -48.7362 -48.7262
   -48.7220 -48.7108 -48.6949 -48.6867 -48.6206 -48.6070 -48.5566 -48.5362
   -48.5298 -48.4630 -48.4467 -48.4461 -48.4180 -48.4080 -48.4007 -48.3897
   -21.5093 -21.0957 -21.0598 -21.0217 -20.4358 -20.4311 -20.3336 -20.3149
   -20.2692 -20.2513 -20.1576 -20.1212 -20.1154 -19.7974 -19.7111 -19.6430
   -19.0367 -18.8854 -10.4347 -10.3517 -10.0359  -9.4115  -9.3075  -9.1948
    -9.0238  -8.9543  -8.7761  -8.6572  -8.6200  -8.5341  -8.5135  -8.2311
    -8.2069  -8.1406  -8.1158  -8.0424  -7.9217  -7.7653  -7.4924  -7.3906
    -7.0933  -7.0235  -6.9204  -6.6887  -6.5178  -6.5037  -6.4562  -6.3773
    -6.3085  -5.9475  -5.9395  -5.8167  -5.7540  -5.6615  -5.5540  -5.4327
    -5.3109  -5.2466  -5.2285  -4.9994  -4.8208  -4.7945  -4.7845  -4.7198
    -4.7179  -4.7178  -4.6879  -4.6734  -4.6712  -4.5864  -4.5466  -4.3543
    -4.3534  -4.2850  -4.1962  -4.0485  -3.9341  -3.8770  -3.8491  -3.5692
    -3.5053  -3.3067  -3.3048  -3.0965  -2.9235  -2.8153  -2.7203  -2.5604
    -2.5554  -2.2862  -2.0050  -1.9890  -1.9373  -1.6711  -1.4026  -1.3254
    -1.2748  -1.1009   0.0844   0.1975   0.4475   0.5732   0.6105   0.6426
     0.8975   0.9623   1.3463   1.8140   1.9626   2.0021   2.1400   2.2566
     3.0127   3.5106   4.0005   4.4337   4.7758   5.5872   5.8049   6.0039
     6.2179   6.7449   6.7773   6.8130   7.0594   7.1880   7.2411   7.4285
     7.5918   7.6482   7.7219   7.8089   7.9276   7.9594   8.0437   8.1019
     8.1042   8.1611   8.3257   8.3578   8.4538   8.5157   8.5915   8.7348
     8.7809   8.8635   8.9840   9.1144   9.1336   9.3180   9.4220   9.5323
     9.6373   9.6434   9.8494   9.9898  10.0412  10.3143  10.4930  10.5222
    10.6284  10.7085  10.7114  10.8160  10.9565  11.0527  11.0561  11.0748
    11.0959  11.1283  11.2197  11.3303  11.5025  11.5271  11.5483  11.5590
    11.7517  11.7928  11.8064  11.8644  11.8878  11.9061  11.9684  12.0816
    12.1035  12.1359  12.2595  12.3146  12.3160  12.4108  12.4597  12.4907
    12.6164  12.6444  12.7261  12.8256  12.8655  12.9419  13.0144  13.1320
    13.3677  13.4196  13.4407  13.5669  13.6138  13.7395  13.7830  13.8873
    14.0399  14.0674  14.2424  14.2434  14.3297  14.3740  14.5458  14.7811
    14.7938  14.9536  14.9606  15.0466  15.2181  15.2295  15.3224  15.4143
    15.5226  15.5973  15.6723  15.7021  15.7563  15.9020  15.9583  16.1230
    16.1903  16.2681  16.4600  16.6013  16.6396  16.6482  16.9474  16.9700
    16.9841  17.0780  17.0800  17.1136  17.2343  17.3944  17.5511  17.6382
    17.6442  17.7161  17.9330  17.9729  18.0626  18.1498  18.1779  18.1970
    18.2703  18.3838  18.4074  18.4115  18.4640  18.5778  18.6238  18.6296
    18.7310  18.7356  18.7900  18.8637  18.9700  19.0366  19.0983  19.2245
    19.2291  19.3574  19.4231  19.4952  19.5177  19.6022  19.6187  19.6446
    19.7046  19.7583  19.7670  19.8581  19.8966  19.9246  19.9890  20.0880
    20.1613  20.2668  20.2954  20.3813  20.4456  20.4862  20.5027  20.5429
    20.5567  20.7087  20.8179  21.0323  21.0464  21.0765  21.1183  21.2214
    21.2682  21.4468  21.4639  21.4905  21.5567  21.6277  21.6534  21.7268
    21.7605  21.9835  21.9841  22.0723  22.1222  22.1536  22.1693  22.2279
    22.2738  22.3100  22.3829  22.3953

          k = 0.0000 0.2417 0.0000 ( 30538 PWs)   bands (ev):

   -48.9176 -48.8432 -48.8321 -48.8209 -48.8139 -48.8042 -48.7363 -48.7250
   -48.7211 -48.7108 -48.6950 -48.6868 -48.6202 -48.6074 -48.5564 -48.5374
   -48.5297 -48.4631 -48.4468 -48.4461 -48.4187 -48.4081 -48.4004 -48.3898
   -21.4514 -21.0583 -21.0251 -20.9564 -20.4683 -20.4448 -20.4309 -20.3970
   -20.3459 -20.1418 -20.1403 -20.0686 -20.0326 -19.8254 -19.7971 -19.7689
   -19.0354 -18.8828 -10.1500  -9.9879  -9.9618  -9.6286  -9.4068  -9.1995
    -9.1463  -9.0522  -8.7630  -8.6779  -8.5101  -8.4333  -8.3169  -8.2060
    -8.1959  -8.1483  -7.9871  -7.9346  -7.8978  -7.4390  -7.3969  -7.2171
    -7.1226  -7.0851  -6.9761  -6.8935  -6.6158  -6.5102  -6.4158  -6.4052
    -6.2810  -6.1144  -6.0774  -5.9699  -5.9389  -5.9111  -5.8433  -5.8148
    -5.6811  -5.3745  -5.3665  -5.3253  -5.1025  -4.8992  -4.8649  -4.7623
    -4.7320  -4.5630  -4.5443  -4.4180  -4.3574  -4.2782  -4.2771  -4.2466
    -4.1954  -4.0785  -4.0517  -3.9564  -3.8157  -3.7458  -3.7024  -3.6401
    -3.5151  -3.4461  -3.3922  -3.3231  -3.2889  -3.1270  -2.7593  -2.5507
    -2.5190  -2.0522  -2.0431  -1.9231  -1.7910  -1.6358  -1.4716  -1.4618
    -1.2436  -0.7879  -0.5140  -0.3370   0.2281   0.4630   0.6254   1.0343
     1.3452   1.6740   1.7961   1.8261   1.8512   1.8627   2.0189   2.2584
     3.3008   3.7068   4.2324   4.6393   4.9974   5.2133   5.7228   5.9140
     6.0542   6.1328   6.3779   6.5227   6.8565   6.9314   6.9464   7.1503
     7.3700   7.5129   7.5266   7.7116   7.7522   8.0166   8.1410   8.1422
     8.2949   8.4643   8.5122   8.6013   8.6737   8.8594   8.8939   8.9202
     9.1295   9.1913   9.2348   9.3742   9.4150   9.5454   9.5533   9.6319
     9.6487   9.7911   9.8925   9.9282   9.9881  10.0558  10.0608  10.2107
    10.3070  10.3480  10.3712  10.6701  10.6713  10.7541  10.7639  10.9034
    10.9414  11.0353  11.1129  11.1291  11.2468  11.2822  11.4446  11.5099
    11.7614  11.8882  12.0733  12.1166  12.1439  12.1616  12.2813  12.2834
    12.3312  12.4698  12.4839  12.5972  12.6187  12.7629  12.8277  12.9436
    12.9927  13.0181  13.1249  13.2100  13.3607  13.4859  13.5085  13.5279
    13.6862  13.7250  13.8012  13.8315  13.9100  13.9511  14.0022  14.0710
    14.1147  14.1255  14.2984  14.4034  14.4103  14.4770  14.6642  14.7022
    14.7380  14.8712  14.9555  15.1602  15.1799  15.2126  15.2646  15.2889
    15.4030  15.5347  15.6655  15.6830  15.7151  15.8301  15.8379  15.9782
    16.0006  16.1835  16.2426  16.3586  16.3642  16.4675  16.5050  16.6197
    16.7664  16.8354  16.8847  16.9458  17.0210  17.1003  17.1263  17.1681
    17.2430  17.3008  17.4877  17.5195  17.5725  17.7724  17.9863  17.9972
    18.0394  18.1801  18.2766  18.3774  18.3911  18.4159  18.4560  18.4843
    18.5779  18.7171  18.7663  18.7792  18.8502  18.8814  18.9779  18.9952
    19.0911  19.1952  19.2472  19.3019  19.4408  19.4736  19.5320  19.5794
    19.7016  19.7064  19.7501  19.7509  19.7944  19.8147  19.8332  19.8664
    19.9181  20.0002  20.0526  20.0714  20.1375  20.2518  20.3126  20.4021
    20.4221  20.4326  20.5560  20.7205  20.7491  20.8653  20.8804  20.8831
    20.9902  21.0215  21.1123  21.1169  21.1506  21.1811  21.2438  21.3426
    21.3519  21.4426  21.5798  21.5977  21.6156  21.6587  21.7139  21.7234
    21.8828  21.8944  21.9517  22.0230

          k = 0.0000-0.4833 0.0000 ( 30492 PWs)   bands (ev):

   -48.9177 -48.8432 -48.8320 -48.8204 -48.8150 -48.8039 -48.7361 -48.7237
   -48.7201 -48.7106 -48.6949 -48.6868 -48.6197 -48.6078 -48.5559 -48.5385
   -48.5294 -48.4632 -48.4467 -48.4461 -48.4193 -48.4081 -48.4000 -48.3897
   -21.3911 -21.0568 -20.9810 -20.8005 -20.5436 -20.4700 -20.4646 -20.4259
   -20.3973 -20.1634 -20.1395 -19.9987 -19.9627 -19.9594 -19.8836 -19.7958
   -19.0341 -18.8811 -10.0517  -9.8232  -9.6140  -9.4803  -9.4283  -9.3900
    -9.2002  -9.0813  -8.5640  -8.4107  -8.3975  -8.3126  -8.2321  -8.2184
    -8.1699  -8.1678  -7.9961  -7.9889  -7.9040  -7.5108  -7.3925  -7.3645
    -7.2399  -7.1106  -7.0436  -6.9457  -6.7027  -6.4508  -6.4293  -6.3870
    -6.3519  -6.3398  -6.2895  -6.2571  -6.0788  -6.0134  -5.8611  -5.8132
    -5.5432  -5.4656  -5.4485  -5.3122  -5.2303  -5.0143  -4.8838  -4.8512
    -4.6137  -4.5656  -4.3800  -4.3604  -4.2904  -4.2814  -4.2122  -4.2065
    -4.1751  -4.1668  -4.1412  -3.9203  -3.8716  -3.8613  -3.6891  -3.5905
    -3.5896  -3.4232  -3.3577  -3.2772  -3.0287  -3.0197  -2.7850  -2.4690
    -2.4655  -2.3615  -2.1355  -2.0606  -1.6730  -1.5165  -1.4954  -1.4634
    -1.1896  -0.9471  -0.7863  -0.5274   0.2542   0.6404   0.7616   1.3317
     1.3427   1.6179   1.6389   1.7465   1.9088   2.1572   2.2594   2.3084
     3.8351   4.0910   4.3694   4.8720   4.9334   5.0391   5.3123   5.5081
     5.7068   5.9420   6.4024   6.5245   6.5650   6.6932   6.8638   6.9851
     7.2624   7.3501   7.5371   7.6062   7.8168   7.8826   8.1757   8.4933
     8.6243   8.6486   8.6948   8.7516   8.7593   8.8162   8.9280   8.9922
     8.9968   9.1073   9.1583   9.1705   9.2657   9.3018   9.3803   9.5162
     9.5577   9.5697   9.7905   9.8449   9.9184  10.0150  10.0582  10.3898
    10.4264  10.4269  10.4821  10.6974  10.7428  11.0277  11.0290  11.1420
    11.3017  11.3099  11.3685  11.4076  11.4291  11.6174  11.6199  11.6722
    11.7561  11.8596  11.9717  12.1289  12.2023  12.2344  12.3448  12.3695
    12.5344  12.5989  12.7409  12.7414  12.7763  12.8843  12.9370  12.9775
    13.0776  13.2190  13.2478  13.3034  13.3371  13.3755  13.3785  13.5218
    13.6264  13.7247  13.7898  13.8604  13.9794  14.1121  14.1383  14.2073
    14.2500  14.3110  14.3987  14.4540  14.4988  14.7941  14.8380  14.9785
    15.1117  15.1800  15.2758  15.3286  15.3746  15.4314  15.4736  15.4948
    15.5333  15.6790  15.7237  15.8546  15.8717  15.9556  15.9734  16.0295
    16.1577  16.1844  16.2584  16.3001  16.3218  16.3761  16.4142  16.4235
    16.5746  16.6534  16.6876  16.7604  16.8099  16.9296  17.0030  17.0350
    17.1946  17.2320  17.2360  17.3159  17.4176  17.5198  17.5717  17.5735
    17.6714  17.7481  17.7991  17.8948  17.9149  17.9498  17.9640  17.9898
    18.1135  18.1812  18.2130  18.2694  18.2712  18.2904  18.4828  18.5404
    18.5506  18.6608  18.7098  18.8221  18.9431  19.0900  19.2574  19.3158
    19.5037  19.6004  19.6045  19.6426  19.6497  19.7030  19.8848  19.9328
    19.9898  20.1382  20.1689  20.1721  20.2876  20.3036  20.3367  20.3937
    20.4139  20.4531  20.4804  20.4909  20.5258  20.5466  20.5790  20.6715
    20.6905  20.7456  20.7742  20.7815  20.9075  20.9421  21.0358  21.0648
    21.1104  21.2263  21.2299  21.3493  21.4419  21.4715  21.4882  21.5068
    21.5514  21.5526  21.5841  21.5855

          k = 0.2500 0.0000 0.0000 ( 30502 PWs)   bands (ev):

   -48.9020 -48.8439 -48.8329 -48.8200 -48.8181 -48.8139 -48.7221 -48.7210
   -48.7135 -48.7099 -48.6937 -48.6879 -48.6389 -48.6255 -48.5420 -48.5353
   -48.5309 -48.4651 -48.4589 -48.4491 -48.4155 -48.4053 -48.4033 -48.3925
   -21.4067 -21.0708 -20.9971 -20.9222 -20.5603 -20.4368 -20.3820 -20.3597
   -20.2807 -20.1905 -20.1096 -20.0858 -20.0657 -19.8184 -19.7965 -19.7227
   -19.0801 -18.9560 -10.1856 -10.1130  -9.8287  -9.3430  -9.1616  -9.0657
    -8.8950  -8.8399  -8.8263  -8.8161  -8.6426  -8.5924  -8.5597  -8.4723
    -8.3109  -8.1135  -8.0830  -7.9841  -7.7210  -7.7054  -7.5106  -7.4427
    -7.1952  -7.1186  -6.9349  -6.7532  -6.6079  -6.4998  -6.4580  -6.4386
    -6.3634  -6.3517  -6.1619  -5.9373  -5.8831  -5.7475  -5.7020  -5.6884
    -5.5706  -5.4918  -5.3345  -5.2968  -5.2107  -5.1584  -5.0304  -4.8449
    -4.8255  -4.7124  -4.7096  -4.6067  -4.5683  -4.3215  -4.2388  -4.1632
    -4.1315  -4.1036  -3.9202  -3.8915  -3.6740  -3.6337  -3.5320  -3.4936
    -3.2999  -3.1515  -3.1408  -2.9373  -2.7240  -2.6879  -2.6637  -2.5403
    -2.4678  -2.2772  -2.2218  -2.1080  -1.9962  -1.8064  -1.5741  -1.4062
    -1.1131  -0.9582   0.2054   0.3093   0.5512   0.5881   0.6946   0.7028
     0.8257   1.0132   1.1604   1.6647   1.6806   1.7305   1.7858   2.1417
     3.3506   3.8076   4.2540   4.6846   5.0538   5.2429   5.6819   5.8226
     6.0746   6.1965   6.2965   6.5304   6.9211   7.0065   7.3020   7.3605
     7.4256   7.4732   7.8061   7.8434   7.8732   7.8981   7.9851   8.2272
     8.2978   8.4032   8.4466   8.4942   8.6942   8.8089   8.8683   8.9874
     9.0405   9.0453   9.2194   9.2394   9.3816   9.4345   9.6288   9.6600
     9.7718   9.8760   9.8865   9.9564  10.0286  10.1420  10.2059  10.2072
    10.2782  10.4054  10.4799  10.5276  10.7104  10.8354  10.9045  10.9081
    10.9713  11.0819  11.1483  11.2152  11.2200  11.2561  11.3156  11.4481
    11.5481  11.6619  11.8867  11.9535  12.0448  12.0735  12.2634  12.2672
    12.3116  12.3853  12.4026  12.5468  12.5929  12.7081  12.7996  12.9335
    12.9546  13.1189  13.2795  13.3107  13.3771  13.5122  13.5854  13.6622
    13.7415  13.7592  13.8601  13.8855  13.9016  13.9739  14.0252  14.1094
    14.1656  14.2596  14.3089  14.4488  14.5038  14.5371  14.6559  14.6876
    14.7714  14.8548  15.1529  15.1854  15.2453  15.3140  15.3287  15.3913
    15.4635  15.4868  15.6740  15.7307  15.8201  15.8518  15.9298  15.9308
    15.9887  16.0060  16.1745  16.2692  16.3248  16.3763  16.4484  16.5453
    16.5526  16.6813  16.9584  17.0082  17.0461  17.0501  17.2081  17.2783
    17.3355  17.3856  17.5134  17.5594  17.7407  17.7443  17.8891  18.0432
    18.0501  18.1314  18.1322  18.2896  18.3968  18.4084  18.5803  18.6146
    18.7556  18.8160  18.8853  18.9930  19.0147  19.0681  19.0734  19.1206
    19.1563  19.2013  19.2596  19.3431  19.3526  19.3855  19.4798  19.5101
    19.5375  19.5993  19.6461  19.7049  19.7305  19.7726  19.8124  19.8548
    19.9269  20.0025  20.0609  20.2232  20.2780  20.3571  20.3683  20.4101
    20.4152  20.4603  20.4819  20.5683  20.6502  20.6815  20.6975  20.7270
    20.7981  20.8457  20.8493  20.9470  20.9554  21.0538  21.1657  21.2038
    21.3263  21.3472  21.3744  21.3836  21.4487  21.5907  21.5916  21.6510
    21.7286  21.7781  21.8194  21.9364

          k = 0.2500 0.2417 0.0000 ( 30481 PWs)   bands (ev):

   -48.9021 -48.8440 -48.8329 -48.8198 -48.8182 -48.8147 -48.7210 -48.7208
   -48.7133 -48.7091 -48.6938 -48.6880 -48.6385 -48.6259 -48.5416 -48.5363
   -48.5308 -48.4652 -48.4590 -48.4491 -48.4160 -48.4054 -48.4031 -48.3925
   -21.3603 -21.0685 -20.9305 -20.8442 -20.5531 -20.4460 -20.3992 -20.3763
   -20.2927 -20.2175 -20.0934 -20.0864 -20.0650 -19.9040 -19.8347 -19.8191
   -19.0795 -18.9536  -9.9183  -9.7509  -9.7417  -9.4786  -9.2002  -9.0746
    -8.9623  -8.8882  -8.7511  -8.6817  -8.6525  -8.4773  -8.4676  -8.3518
    -8.2670  -8.1444  -7.9998  -7.9893  -7.6729  -7.5572  -7.4576  -7.3175
    -7.1157  -7.0774  -7.0313  -6.9376  -6.8519  -6.6034  -6.5454  -6.4700
    -6.4468  -6.3699  -6.3615  -6.1496  -6.1157  -5.9861  -5.9699  -5.9052
    -5.7775  -5.6398  -5.6008  -5.4243  -5.1809  -5.0765  -5.0145  -4.9233
    -4.8276  -4.7170  -4.6269  -4.4881  -4.3297  -4.2431  -4.1531  -4.0391
    -3.9498  -3.8824  -3.7837  -3.6805  -3.6371  -3.5577  -3.4153  -3.4069
    -3.3278  -3.2135  -3.1425  -3.1257  -3.0081  -2.9896  -2.7279  -2.4969
    -2.2840  -2.1603  -2.1427  -2.0370  -2.0129  -1.8382  -1.6388  -1.5923
    -1.0190  -0.7195  -0.2843  -0.1239   0.3500   0.4969   0.6091   0.9005
     1.1249   1.3718   1.5119   1.5976   1.7704   1.7800   1.9060   2.1116
     3.6189   3.9905   4.4845   4.8858   5.2535   5.4156   5.4825   5.8023
     5.9599   6.2008   6.3139   6.3912   6.4025   6.6886   6.7826   6.9844
     7.1769   7.3394   7.4261   7.6281   7.6791   7.8521   8.0026   8.0290
     8.0514   8.2200   8.3905   8.4340   8.6217   8.7546   8.8160   8.8931
     8.9057   9.1674   9.3088   9.4463   9.4929   9.6392   9.6766   9.7566
     9.8329   9.9064  10.0853  10.1468  10.2367  10.2840  10.3562  10.5520
    10.5776  10.6364  10.7949  10.8423  10.8674  10.9958  11.0221  11.1605
    11.2878  11.3080  11.4011  11.4772  11.4972  11.5850  11.6841  11.7222
    11.7993  11.9653  12.0760  12.1387  12.1545  12.1996  12.2459  12.3591
    12.4372  12.4680  12.5918  12.6067  12.6899  12.7874  12.8796  13.0066
    13.0625  13.1217  13.2238  13.2583  13.3279  13.3596  13.4775  13.5475
    13.6829  13.7069  13.7594  13.8295  13.9332  14.0587  14.0700  14.1287
    14.1573  14.2583  14.4154  14.4633  14.5545  14.5892  14.6389  14.7627
    14.8354  15.0925  15.1946  15.2406  15.3708  15.4218  15.5016  15.5067
    15.5410  15.6338  15.7093  15.7103  15.7817  15.9024  15.9508  15.9902
    16.0687  16.0779  16.1871  16.2716  16.3094  16.3684  16.4114  16.4846
    16.5292  16.5757  16.6386  16.6585  16.7525  16.8337  16.9475  16.9515
    17.1493  17.1806  17.2211  17.3027  17.3486  17.4081  17.4762  17.5194
    17.5722  17.6180  17.7515  17.7835  17.8416  17.8768  18.0031  18.0621
    18.0824  18.1676  18.2768  18.3712  18.3944  18.4860  18.5103  18.6230
    18.7094  18.8218  18.8498  18.9470  18.9764  19.0432  19.0717  19.1452
    19.1516  19.2605  19.3220  19.4701  19.4792  19.5627  19.6202  19.7527
    19.8221  19.8568  19.8948  20.0744  20.0787  20.2077  20.3477  20.4304
    20.4568  20.5190  20.5866  20.6392  20.6699  20.7734  20.8245  20.9519
    20.9945  21.0068  21.0759  21.1328  21.2025  21.2334  21.3154  21.3605
    21.4134  21.4226  21.6010  21.6186  21.6196  21.6679  21.7663  21.8277
    21.8444  21.9257  22.0196  22.1169

          k = 0.2500-0.4833 0.0000 ( 30510 PWs)   bands (ev):

   -48.9024 -48.8439 -48.8329 -48.8195 -48.8180 -48.8156 -48.7205 -48.7204
   -48.7130 -48.7085 -48.6938 -48.6879 -48.6381 -48.6262 -48.5413 -48.5373
   -48.5309 -48.4652 -48.4591 -48.4490 -48.4166 -48.4054 -48.4030 -48.3924
   -21.3147 -21.0660 -20.8590 -20.7056 -20.5444 -20.4160 -20.4154 -20.3935
   -20.3900 -20.2384 -20.1348 -20.0777 -20.0380 -20.0375 -19.9237 -19.8197
   -19.0789 -18.9520  -9.8358  -9.5938  -9.3649  -9.2334  -9.2243  -9.1308
    -9.0794  -8.9030  -8.6443  -8.5063  -8.4193  -8.4034  -8.3291  -8.3151
    -8.1690  -8.1466  -7.9899  -7.9234  -7.8409  -7.5502  -7.4978  -7.4196
    -7.2600  -7.0176  -7.0172  -6.9447  -6.9245  -6.9103  -6.7879  -6.7635
    -6.5704  -6.5257  -6.4208  -6.3851  -6.2122  -6.0687  -6.0686  -6.0175
    -5.9277  -5.8594  -5.4711  -5.4037  -5.1583  -5.1064  -4.9634  -4.9355
    -4.8652  -4.6805  -4.5504  -4.3869  -4.2443  -4.2199  -4.0326  -3.9313
    -3.8802  -3.7806  -3.7638  -3.6924  -3.6559  -3.5532  -3.5425  -3.4152
    -3.3437  -3.2338  -3.1210  -3.0953  -2.9528  -2.6933  -2.6478  -2.4432
    -2.4241  -2.2466  -2.2208  -2.1389  -1.8878  -1.8041  -1.6861  -1.6331
    -0.9456  -0.7047  -0.5565  -0.5240   0.3775   0.6232   0.7634   0.9051
     1.0669   1.1237   1.6405   1.7572   1.7724   2.0192   2.0473   2.2220
     4.1088   4.3175   4.6373   5.1238   5.1816   5.3069   5.5626   5.7156
     5.7788   5.9631   5.9842   6.2407   6.4277   6.6699   6.8294   7.0085
     7.0371   7.0808   7.1444   7.2258   7.4012   7.6648   7.7870   7.8120
     8.0980   8.1528   8.1900   8.2283   8.4437   8.4863   8.6294   8.7882
     8.9575   9.0005   9.1183   9.4161   9.4502   9.5757   9.8605   9.8947
     9.9844  10.0450  10.0884  10.4295  10.6763  10.7378  10.7706  10.8034
    10.9164  11.0361  11.1077  11.1760  11.2547  11.3146  11.3614  11.3644
    11.4108  11.5310  11.6251  11.7549  11.7636  11.8816  11.8861  11.9260
    12.0371  12.0426  12.1483  12.2257  12.3686  12.3874  12.5402  12.5516
    12.6800  12.6909  12.7792  12.8262  12.8730  12.8763  13.0719  13.1274
    13.2061  13.2359  13.2885  13.3376  13.3467  13.4488  13.4782  13.5074
    13.5373  13.7028  13.7537  13.9105  14.0362  14.0459  14.1681  14.2640
    14.3264  14.3555  14.4382  14.5348  14.5368  14.5578  14.5950  14.6005
    14.7416  14.7698  14.7819  14.8781  14.9605  14.9644  14.9891  15.1056
    15.1894  15.2619  15.4498  15.4575  15.5955  15.6266  15.6954  15.8788
    15.9299  16.0140  16.0251  16.0965  16.1921  16.2341  16.3446  16.4458
    16.5299  16.6005  16.6581  16.6714  16.7958  16.8411  16.8724  16.9063
    16.9717  17.0164  17.1338  17.1853  17.1932  17.2889  17.3260  17.4141
    17.4778  17.4920  17.5591  17.7589  17.8123  17.8906  17.9081  17.9429
    18.0521  18.1196  18.1516  18.1934  18.2789  18.3880  18.3941  18.4695
    18.5000  18.5512  18.6103  18.6475  18.6909  18.8060  18.8663  18.8726
    18.9694  18.9861  19.0507  19.2407  19.3081  19.3610  19.4372  19.5377
    19.5731  19.6429  19.7470  19.7472  19.7953  19.8044  19.8985  19.9044
    20.0345  20.0948  20.3028  20.4029  20.5160  20.5212  20.5495  20.6685
    20.7164  20.7758  20.8310  20.9141  20.9889  21.0370  21.0856  21.2299
    21.2658  21.3824  21.3996  21.4521  21.5402  21.7389  21.7742  21.8507
    21.9150  22.0101  22.0306  22.1025

          k =-0.5000 0.0000 0.0000 ( 30524 PWs)   bands (ev):

   -48.8652 -48.8652 -48.8337 -48.8336 -48.8171 -48.8171 -48.7189 -48.7189
   -48.6911 -48.6909 -48.6815 -48.6815 -48.6689 -48.6687 -48.5332 -48.5331
   -48.5044 -48.5043 -48.4546 -48.4546 -48.4095 -48.4093 -48.3990 -48.3990
   -21.1894 -21.1891 -20.7856 -20.7855 -20.6596 -20.6596 -20.4419 -20.4417
   -20.1685 -20.1685 -19.9975 -19.9975 -19.9187 -19.9187 -19.9080 -19.9080
   -19.0773 -19.0771  -9.5384  -9.5384  -9.4832  -9.4832  -9.3988  -9.3987
    -8.9053  -8.9053  -8.7841  -8.7840  -8.6596  -8.6596  -8.5370  -8.5370
    -8.2363  -8.2362  -8.0976  -8.0976  -7.6726  -7.6725  -7.1939  -7.1939
    -7.0554  -7.0554  -6.8969  -6.8969  -6.7939  -6.7938  -6.6161  -6.6161
    -6.5003  -6.5003  -6.2791  -6.2790  -5.9801  -5.9801  -5.8783  -5.8783
    -5.8473  -5.8473  -5.5043  -5.5043  -5.3916  -5.3915  -4.8854  -4.8854
    -4.7900  -4.7899  -4.5198  -4.5198  -4.1535  -4.1535  -4.0457  -4.0457
    -3.9721  -3.9721  -3.8560  -3.8560  -3.5786  -3.5786  -3.5141  -3.5141
    -2.9589  -2.9588  -2.8588  -2.8588  -2.6418  -2.6418  -2.5095  -2.5094
    -2.2868  -2.2867  -2.2476  -2.2475  -1.9651  -1.9651  -1.7377  -1.7377
    -0.8708  -0.8707   0.3752   0.3753   0.6047   0.6047   0.9869   0.9869
     1.0389   1.0389   1.0863   1.0863   1.1141   1.1142   1.8943   1.8943
     4.1602   4.1603   4.5736   4.5736   5.0003   5.0003   5.4064   5.4064
     5.8306   5.8307   6.4625   6.4626   6.8174   6.8175   6.9899   6.9899
     7.6286   7.6287   7.9803   7.9803   8.0759   8.0759   8.1326   8.1326
     8.5750   8.5750   8.6074   8.6074   8.7068   8.7068   9.0071   9.0071
     9.0633   9.0633   9.1579   9.1579   9.2765   9.2765   9.6848   9.6848
     9.7136   9.7136   9.8217   9.8217   9.9071   9.9071  10.0142  10.0143
    10.2220  10.2220  10.4742  10.4742  10.6848  10.6848  10.7861  10.7861
    11.2971  11.2971  11.4864  11.4865  11.6355  11.6355  11.6969  11.6969
    11.7993  11.7993  12.0659  12.0659  12.2537  12.2537  12.4414  12.4414
    12.5351  12.5351  12.7311  12.7311  12.8688  12.8688  13.0102  13.0102
    13.2518  13.2518  13.3637  13.3637  13.4954  13.4954  13.6717  13.6717
    13.7626  13.7626  13.9028  13.9028  14.0600  14.0600  14.2182  14.2182
    14.3048  14.3048  14.3730  14.3730  14.4631  14.4631  14.7380  14.7380
    14.8495  14.8495  15.0129  15.0129  15.1332  15.1332  15.5242  15.5243
    15.7993  15.7994  16.0550  16.0550  16.2165  16.2165  16.2525  16.2525
    16.2773  16.2773  16.3506  16.3506  16.4328  16.4328  16.5720  16.5720
    16.6117  16.6117  16.6515  16.6515  16.7422  16.7422  16.8236  16.8236
    17.0479  17.0479  17.1911  17.1911  17.4221  17.4222  17.6030  17.6030
    17.7981  17.7981  17.8977  17.8977  18.0898  18.0898  18.2892  18.2892
    18.3830  18.3830  18.4817  18.4817  18.7040  18.7040  18.7981  18.7981
    18.9064  18.9064  19.0421  19.0421  19.1489  19.1489  19.2302  19.2302
    19.3440  19.3440  19.4357  19.4357  19.5725  19.5725  19.6085  19.6085
    19.7262  19.7262  19.8208  19.8209  20.0083  20.0084  20.0808  20.0809
    20.1724  20.1724  20.2641  20.2641  20.3138  20.3138  20.4514  20.4514
    20.5728  20.5729  20.8119  20.8119  20.9552  20.9552  21.0128  21.0128
    21.1301  21.1301  21.1504  21.1504  21.3144  21.3144  21.3351  21.3351
    21.3824  21.3824  21.4796  21.4796

          k =-0.5000 0.2417 0.0000 ( 30500 PWs)   bands (ev):

   -48.8654 -48.8652 -48.8337 -48.8337 -48.8172 -48.8172 -48.7184 -48.7180
   -48.6912 -48.6909 -48.6811 -48.6810 -48.6689 -48.6687 -48.5337 -48.5335
   -48.5042 -48.5041 -48.4547 -48.4546 -48.4097 -48.4095 -48.3990 -48.3990
   -21.1722 -21.1717 -20.7206 -20.7202 -20.5782 -20.5782 -20.4486 -20.4484
   -20.1908 -20.1848 -20.0719 -20.0626 -20.0390 -20.0358 -19.9011 -19.9011
   -19.0760 -19.0758  -9.4194  -9.4181  -9.2058  -9.1989  -9.1562  -9.1544
    -8.9030  -8.9000  -8.8093  -8.7902  -8.6384  -8.6380  -8.5257  -8.5187
    -8.3090  -8.2378  -8.0408  -7.9469  -7.6382  -7.6081  -7.3861  -7.3675
    -7.2003  -7.1793  -7.1072  -7.0242  -6.9240  -6.8415  -6.7454  -6.6769
    -6.5623  -6.5619  -6.3976  -6.3971  -6.1414  -6.0899  -5.9392  -5.9369
    -5.8584  -5.8444  -5.7538  -5.6500  -5.3227  -5.2638  -5.1131  -5.0423
    -4.9234  -4.7989  -4.6412  -4.5481  -4.2755  -4.2551  -3.9162  -3.9018
    -3.6455  -3.6398  -3.5250  -3.4863  -3.4601  -3.4208  -3.3697  -3.3673
    -3.1678  -3.0999  -2.9139  -2.9082  -2.6356  -2.6243  -2.4838  -2.4831
    -2.3241  -2.3224  -2.2094  -2.1620  -2.0610  -2.0424  -1.8757  -1.8613
    -0.7503  -0.7501   0.2909   0.3013   0.3898   0.3907   0.6785   0.6808
     0.7886   0.7946   1.3255   1.3344   1.6052   1.6069   1.9863   1.9929
     4.3752   4.3863   4.7262   4.7263   5.2208   5.2209   5.5907   5.5978
     5.9395   5.9709   6.2289   6.2385   6.6431   6.6526   6.9672   6.9695
     7.0487   7.0590   7.1008   7.1108   7.5089   7.5242   7.8240   7.8322
     8.1110   8.1266   8.2788   8.3123   8.5570   8.6030   8.7392   8.7905
     9.0291   9.1268   9.4780   9.4859   9.7442   9.7568   9.8704   9.8764
    10.0226  10.0318  10.2068  10.2195  10.4209  10.4409  10.6220  10.6305
    10.7483  10.7569  10.9258  10.9305  10.9698  10.9722  11.1765  11.1884
    11.4871  11.5038  11.6610  11.6793  11.8684  11.8811  11.9537  11.9863
    12.0172  12.0380  12.1704  12.1725  12.3620  12.3724  12.5627  12.5668
    12.7224  12.7304  12.9376  12.9446  13.0121  13.0392  13.1301  13.1372
    13.2753  13.2869  13.3938  13.4201  13.5289  13.5404  13.6635  13.6722
    13.8575  13.8702  13.9115  13.9143  14.0714  14.0902  14.2505  14.2580
    14.3210  14.3375  14.5014  14.5221  14.5537  14.6083  14.6690  14.6852
    14.7989  14.8119  14.9342  14.9398  15.0185  15.0324  15.0934  15.1000
    15.2512  15.2605  15.4169  15.4315  15.4761  15.4801  15.8005  15.8072
    15.9353  15.9424  16.0818  16.0998  16.1567  16.1669  16.3420  16.3450
    16.3839  16.4304  16.4715  16.4835  16.5916  16.6057  16.7034  16.7220
    16.8704  16.8849  16.9950  17.0103  17.0211  17.1255  17.3049  17.3304
    17.5005  17.5158  17.6825  17.6883  17.7784  17.8118  17.8584  17.9347
    17.9787  18.0009  18.2866  18.2867  18.3313  18.3642  18.4458  18.4572
    18.5507  18.5547  18.7102  18.7234  18.7889  18.8086  18.9121  18.9213
    19.0508  19.0852  19.1694  19.1868  19.3818  19.4196  19.5123  19.5169
    19.5786  19.5966  19.6890  19.7003  19.8508  19.8666  20.0782  20.0835
    20.2059  20.2220  20.3554  20.3845  20.4802  20.4835  20.5940  20.6818
    20.7696  20.7803  20.8807  20.9158  21.0784  21.1162  21.3308  21.3317
    21.4583  21.4664  21.5581  21.5708  21.7228  21.7310  21.8508  21.8674
    21.9136  21.9652  22.1595  22.1695

          k =-0.5000-0.4833 0.0000 ( 30496 PWs)   bands (ev):

   -48.8654 -48.8654 -48.8338 -48.8337 -48.8173 -48.8173 -48.7176 -48.7176
   -48.6912 -48.6909 -48.6806 -48.6806 -48.6689 -48.6687 -48.5342 -48.5341
   -48.5040 -48.5039 -48.4547 -48.4547 -48.4099 -48.4097 -48.3990 -48.3990
   -21.1560 -21.1557 -20.5821 -20.5820 -20.5601 -20.5601 -20.3302 -20.3302
   -20.2988 -20.2988 -20.2236 -20.2236 -20.1027 -20.1027 -19.9024 -19.9024
   -19.0748 -19.0746  -9.4002  -9.4001  -8.9354  -8.9354  -8.8693  -8.8693
    -8.6980  -8.6979  -8.6117  -8.6117  -8.4703  -8.4703  -8.4570  -8.4570
    -8.3253  -8.3253  -8.1337  -8.1336  -7.8948  -7.8947  -7.5941  -7.5941
    -7.2895  -7.2895  -7.1133  -7.1133  -7.0484  -7.0484  -6.8393  -6.8393
    -6.5909  -6.5909  -6.4703  -6.4702  -6.3147  -6.3147  -6.2129  -6.2129
    -6.0128  -6.0128  -5.4658  -5.4658  -5.3041  -5.3041  -5.0660  -5.0660
    -4.9553  -4.9553  -4.5591  -4.5590  -4.1813  -4.1813  -3.8514  -3.8514
    -3.5319  -3.5319  -3.4671  -3.4671  -3.3697  -3.3697  -3.1892  -3.1892
    -3.0641  -3.0641  -3.0473  -3.0473  -2.5048  -2.5047  -2.4337  -2.4337
    -2.2767  -2.2766  -2.1986  -2.1985  -2.0813  -2.0813  -2.0159  -2.0158
    -0.6599  -0.6598  -0.0069  -0.0069   0.0916   0.0917   0.7078   0.7079
     0.7877   0.7877   1.5124   1.5124   1.8113   1.8113   2.0680   2.0680
     4.7818   4.7820   4.9642   4.9643   5.3597   5.3597   5.8520   5.8520
     5.9043   5.9043   6.0518   6.0518   6.2768   6.2769   6.5242   6.5242
     6.7236   6.7237   7.0285   7.0285   7.3883   7.3883   7.5871   7.5871
     7.7775   7.7775   7.8863   7.8863   8.4105   8.4106   8.8161   8.8161
     8.9672   8.9672   9.2613   9.2613   9.5470   9.5472  10.0127  10.0127
    10.2095  10.2095  10.4768  10.4768  10.7314  10.7314  11.0759  11.0759
    11.3311  11.3311  11.4162  11.4162  11.4608  11.4608  11.8348  11.8348
    11.9654  11.9654  12.1305  12.1306  12.2857  12.2857  12.4897  12.4897
    12.5813  12.5813  12.7207  12.7207  12.8373  12.8374  12.8914  12.8914
    12.9686  12.9686  13.1116  13.1116  13.2076  13.2076  13.2573  13.2573
    13.4247  13.4247  13.5031  13.5031  13.5538  13.5538  13.5941  13.5941
    13.6933  13.6933  13.7803  13.7803  13.9576  13.9576  13.9856  13.9857
    14.0729  14.0729  14.1501  14.1501  14.3045  14.3045  14.3308  14.3308
    14.4927  14.4927  14.5927  14.5927  14.7604  14.7604  14.9476  14.9476
    15.1073  15.1073  15.1488  15.1488  15.2056  15.2056  15.2882  15.2882
    15.4808  15.4809  15.5938  15.5939  15.6418  15.6418  15.8345  15.8345
    15.9605  15.9605  16.0401  16.0401  16.2180  16.2180  16.4283  16.4283
    16.5510  16.5511  16.7395  16.7395  16.9140  16.9140  16.9957  16.9957
    17.1098  17.1098  17.3357  17.3357  17.4864  17.4864  17.6319  17.6319
    18.0354  18.0354  18.0472  18.0472  18.1952  18.1952  18.2787  18.2787
    18.3742  18.3742  18.6050  18.6050  18.8110  18.8110  19.1463  19.1463
    19.3107  19.3107  19.4340  19.4340  19.5449  19.5449  19.6741  19.6741
    20.1241  20.1241  20.2295  20.2295  20.3125  20.3125  20.6198  20.6198
    20.6892  20.6892  20.7778  20.7778  20.8736  20.8736  20.9518  20.9518
    21.0338  21.0338  21.1288  21.1288  21.2431  21.2431  21.3364  21.3364
    21.4398  21.4398  21.4705  21.4705  21.5835  21.5835  21.6475  21.6475
    21.6702  21.6702  21.8530  21.8530

          k =-0.2500 0.2417 0.0000 ( 30481 PWs)   bands (ev):

   -48.9023 -48.8439 -48.8329 -48.8198 -48.8180 -48.8147 -48.7213 -48.7206
   -48.7130 -48.7092 -48.6938 -48.6880 -48.6385 -48.6259 -48.5416 -48.5362
   -48.5309 -48.4651 -48.4590 -48.4491 -48.4160 -48.4054 -48.4031 -48.3925
   -21.3606 -21.0683 -20.9302 -20.8441 -20.5525 -20.4461 -20.3992 -20.3762
   -20.2924 -20.2235 -20.0932 -20.0859 -20.0602 -19.9045 -19.8350 -19.8191
   -19.0795 -18.9536  -9.9147  -9.7513  -9.7456  -9.4805  -9.2023  -9.0762
    -8.9582  -8.8739  -8.7527  -8.6882  -8.6520  -8.4854  -8.4675  -8.3643
    -8.2798  -8.1259  -8.0214  -7.9693  -7.6830  -7.4896  -7.4636  -7.2978
    -7.1717  -7.1008  -7.0039  -6.9444  -6.8496  -6.6430  -6.5611  -6.4593
    -6.4405  -6.3404  -6.2972  -6.1563  -6.0942  -6.0733  -5.9486  -5.8810
    -5.7899  -5.6635  -5.5756  -5.4712  -5.2041  -5.0601  -5.0563  -4.9115
    -4.7700  -4.6857  -4.6442  -4.5617  -4.2374  -4.2036  -4.1640  -4.0448
    -3.9640  -3.8906  -3.7737  -3.6938  -3.6326  -3.5691  -3.4100  -3.3998
    -3.3523  -3.2418  -3.1599  -3.1373  -2.9962  -2.9626  -2.7068  -2.5028
    -2.2689  -2.1740  -2.1394  -2.0487  -2.0233  -1.8172  -1.6418  -1.5945
    -1.0192  -0.7196  -0.2873  -0.1236   0.3504   0.5016   0.6090   0.9003
     1.1253   1.3602   1.5228   1.5984   1.7676   1.7817   1.8996   2.1161
     3.6145   3.9905   4.4846   4.8882   5.2658   5.4348   5.4919   5.8024
     5.9561   6.1992   6.3222   6.3854   6.3938   6.6526   6.7893   6.9480
     7.1863   7.3432   7.4260   7.6162   7.6976   7.8368   8.0221   8.0233
     8.0626   8.2244   8.3913   8.4034   8.6230   8.7663   8.8219   8.8912
     8.8931   9.1734   9.3308   9.4355   9.5258   9.6398   9.6728   9.7209
     9.8406   9.9034  10.1167  10.1486  10.2456  10.2857  10.3484  10.4937
    10.5799  10.6384  10.7706  10.8394  10.8717  10.9982  11.0205  11.1878
    11.3075  11.3206  11.4332  11.4572  11.5028  11.5815  11.6923  11.7141
    11.8014  11.9904  12.0937  12.1466  12.1646  12.2035  12.2437  12.3569
    12.4331  12.5084  12.5772  12.6099  12.6957  12.7747  12.8806  12.9956
    13.0552  13.1038  13.2244  13.2437  13.3544  13.3736  13.4400  13.5496
    13.6708  13.7077  13.7977  13.8369  13.8591  14.0632  14.0742  14.1265
    14.1676  14.2688  14.3724  14.4751  14.5562  14.5984  14.6666  14.7289
    14.7958  15.0511  15.2207  15.2987  15.3719  15.4243  15.4722  15.4856
    15.5387  15.6167  15.6868  15.6986  15.7833  15.7845  15.9561  15.9984
    16.0609  16.0704  16.1834  16.3049  16.3287  16.3624  16.4065  16.4909
    16.5439  16.5641  16.6065  16.6409  16.7359  16.8320  16.9777  16.9890
    17.1307  17.2068  17.2176  17.3243  17.3305  17.4100  17.4966  17.5287
    17.5720  17.6178  17.7436  17.7658  17.8708  17.8874  18.0420  18.0705
    18.1036  18.1576  18.2452  18.3620  18.4196  18.5022  18.5106  18.6510
    18.7266  18.8696  18.8701  18.9304  18.9838  19.0377  19.0796  19.1508
    19.2064  19.2181  19.3167  19.4722  19.4754  19.5598  19.6742  19.7331
    19.7538  19.9158  19.9200  20.0394  20.1388  20.2297  20.3200  20.3528
    20.4584  20.5522  20.6044  20.6632  20.6734  20.7501  20.8517  20.9071
    20.9437  21.0246  21.1162  21.1203  21.1768  21.2351  21.3226  21.3737
    21.4081  21.4478  21.5637  21.6291  21.6565  21.7161  21.7862  21.8442
    21.8533  21.9197  22.0071  22.1087

     the Fermi energy is    -2.0335 ev

!    total energy              =   -1946.65060312 Ry
     Harris-Foulkes estimate   =   -1946.65060389 Ry
     estimated scf accuracy    <       0.00000083 Ry

     The total energy is the sum of the following terms:

     one-electron contribution =  -22567.74432127 Ry
     hartree contribution      =   11330.98937221 Ry
     xc contribution           =    -365.15984759 Ry
     ewald contribution        =    9653.72146861 Ry
     Hubbard energy            =       1.54403895 Ry
     smearing contrib. (-TS)   =      -0.00131402 Ry

     convergence has been achieved in  32 iterations

     Forces acting on atoms (Ry/au):


     negative rho (up, down):  0.686E+00 0.000E+00
     atom    1 type  1   force =    -0.00804111   -0.01326963    0.00362918
     atom    2 type  1   force =     0.00020836    0.00753401    0.00263230
     atom    3 type  2   force =    -0.00008062    0.00520529   -0.00638255
     atom    4 type  2   force =     0.00853925    0.00871896   -0.00284984
     atom    5 type  1   force =    -0.00216470   -0.02866345   -0.00005647
     atom    6 type  1   force =     0.00341940    0.02568429   -0.00028068
     atom    7 type  1   force =    -0.00028684   -0.00127718    0.01559596
     atom    8 type  1   force =    -0.00291548   -0.00060977    0.00154177
     atom    9 type  2   force =     0.00120679   -0.00014868   -0.00374552
     atom   10 type  2   force =     0.00003879   -0.00166277    0.00204850
     atom   11 type  1   force =    -0.00021717    0.00985655   -0.00818672
     atom   12 type  1   force =     0.00031763   -0.00921876   -0.00835352
     atom   13 type  1   force =    -0.00067955   -0.00001139    0.00183315
     atom   14 type  1   force =    -0.00803720   -0.01326803    0.00363779
     atom   15 type  1   force =     0.00019759    0.00744068    0.00266737
     atom   16 type  2   force =    -0.00004853    0.00521491   -0.00638748
     atom   17 type  2   force =     0.00853146    0.00873167   -0.00285170
     atom   18 type  1   force =    -0.00216232   -0.02866262   -0.00005702
     atom   19 type  1   force =     0.00342879    0.02568258   -0.00028189
     atom   20 type  1   force =    -0.00029868   -0.00127877    0.01556195
     atom   21 type  1   force =    -0.00291494   -0.00060870    0.00151550
     atom   22 type  2   force =     0.00123330   -0.00014630   -0.00374594
     atom   23 type  2   force =     0.00004021   -0.00166289    0.00208960
     atom   24 type  1   force =    -0.00015565    0.00985768   -0.00818501
     atom   25 type  1   force =     0.00038073   -0.00921994   -0.00835163
     atom   26 type  1   force =    -0.00067651   -0.00001261    0.00188992
     atom   27 type  3   force =    -0.00011530   -0.00288989    0.00209710
     atom   28 type  3   force =    -0.00011546   -0.00280121    0.00205216
     atom   29 type  3   force =     0.00068205    0.00074265    0.00046244
     atom   30 type  3   force =     0.00068571    0.00074331    0.00046129

     Total force =     0.031191     Total SCF correction =     0.004472
     SCF correction compared to forces is large: reduce conv_thr to get better values

     BFGS Geometry Optimization

     number of scf cycles    =   1
     number of bfgs steps    =   0

     energy   new            =   -1946.6506031166 Ry

     new trust radius        =       0.0155959600 bohr
     new conv_thr            =       0.0000010000 Ry


ATOMIC_POSITIONS (crystal)
O0       0.000000000   0.000000000   0.378722650    0   0   1
O0       0.000000000   0.500000000   0.400542694    0   0   1
Rh1      0.250000000   0.500000000   0.451862232    0   0   1
Rh1      0.000000000   0.000000000   0.453142951    0   0   1
O0       0.250000000   0.810000000   0.452788870    0   0   1
O0       0.250000000   0.190000000   0.452574381    0   0   1
O0       0.000000000   0.500000000   0.498792205    0   0   1
O0       0.000000000   0.000000000   0.528830864    0   0   1
Rh1      0.250000000   0.000000000   0.576375021    0   0   1
Rh1      0.000000000   0.500000000   0.571251008    0   0   1
O0       0.250000000   0.690000000   0.577726116    0   0   1
O0       0.250000000   0.310000000   0.577742777    0   0   1
O0       0.000000000   0.000000000   0.621716697    0   0   1
O0       0.500000000   0.000000000   0.378722822    0   0   1
O0       0.500000000   0.500000000   0.400543396    0   0   1
Rh1      0.750000000   0.500000000   0.451862133    0   0   1
Rh1      0.500000000   0.000000000   0.453142914    0   0   1
O0       0.750000000   0.810000000   0.452788859    0   0   1
O0       0.750000000   0.190000000   0.452574357    0   0   1
O0       0.500000000   0.500000000   0.498791524    0   0   1
O0       0.500000000   0.000000000   0.528830338    0   0   1
Rh1      0.750000000   0.000000000   0.576375013    0   0   1
Rh1      0.500000000   0.500000000   0.571251830    0   0   1
O0       0.750000000   0.690000000   0.577726150    0   0   1
O0       0.750000000   0.310000000   0.577742814    0   0   1
O0       0.500000000   0.000000000   0.621717833    0   0   1
H2      -0.000079809   0.638732340   0.384021980
H2       0.499920177   0.638729633   0.384021081
H2       0.148498027   0.032591074   0.367839257
H2       0.648498338   0.032591129   0.367839234


     Check: negative starting charge=   -0.642992
     NEW-OLD atomic charge density approx. for the potential

     Check: negative/imaginary core charge=   -0.000002    0.000000
     Check: negative starting charge=   -0.642981

     negative rho (up, down):  0.686E+00 0.000E+00
 Atomic wfc used for LDA+U Projector are NOT orthogonalized

     total cpu time spent up to now is     7009.0 secs

     per-process dynamical memory:   444.0 Mb

     Self-consistent Calculation

     iteration #  1     ecut=    40.00 Ry     beta=0.70
     Davidson diagonalization with overlap
     ethr =  1.00E-06,  avg # of iterations =  4.0
 --- enter write_ns ---
 LDA+U parameters:
U( 2)     =  4.00000000
alpha( 2) =  0.00000000
atom    3   Tr[ns(na)] =   8.05781
    eigenvalues: 
  0.581  0.599  0.912  0.964  0.973
    eigenvectors:
  0.000  0.209  0.003  0.000  0.788
  1.000  0.000  0.000  0.000  0.000
  0.000  0.000  0.997  0.000  0.003
  0.000  0.791  0.000  0.000  0.209
  0.000  0.000  0.000  0.999  0.000
    occupations:
  0.894 -0.000  0.001 -0.152 -0.000
 -0.000  0.581 -0.000 -0.000 -0.007
  0.001 -0.000  0.912 -0.005  0.001
 -0.152 -0.000 -0.005  0.677 -0.000
 -0.000 -0.007  0.001 -0.000  0.964
atom    4   Tr[ns(na)] =   8.04566
    eigenvalues: 
  0.600  0.649  0.873  0.923  0.978
    eigenvectors:
  0.001  0.991  0.000  0.000  0.008
  0.000  0.000  0.056  0.944  0.000
  0.000  0.000  0.944  0.056  0.000
  0.000  0.008  0.000  0.000  0.992
  0.999  0.001  0.000  0.000  0.000
    occupations:
  0.652 -0.005 -0.001  0.029  0.001
 -0.005  0.920  0.012  0.001 -0.001
 -0.001  0.012  0.875 -0.001  0.001
  0.029  0.001 -0.001  0.975  0.000
  0.001 -0.001  0.001  0.000  0.600
atom    9   Tr[ns(na)] =   8.04715
    eigenvalues: 
  0.634  0.647  0.868  0.895  0.980
    eigenvectors:
  0.000  0.155  0.000  0.000  0.845
  0.999  0.001  0.000  0.000  0.000
  0.000  0.000  1.000  0.000  0.000
  0.001  0.844  0.000  0.000  0.155
  0.000  0.000  0.000  1.000  0.000
    occupations:
  0.928  0.000 -0.000 -0.120 -0.001
  0.000  0.634  0.000  0.000 -0.000
 -0.000  0.000  0.868 -0.000 -0.000
 -0.120  0.000 -0.000  0.698  0.001
 -0.001 -0.000 -0.000  0.001  0.895
atom   10   Tr[ns(na)] =   8.03176
    eigenvalues: 
  0.589  0.593  0.929  0.929  0.976
    eigenvectors:
  0.995  0.000  0.000  0.000  0.005
  0.000  0.000  0.702  0.298  0.000
  0.000  0.000  0.298  0.702  0.000
  0.005  0.000  0.000  0.000  0.995
  0.000  1.000  0.000  0.000  0.000
    occupations:
  0.591  0.000  0.002  0.028 -0.000
  0.000  0.929 -0.000  0.000 -0.001
  0.002 -0.000  0.929  0.000  0.000
  0.028  0.000  0.000  0.974  0.000
 -0.000 -0.001  0.000  0.000  0.593
atom   16   Tr[ns(na)] =   8.05743
    eigenvalues: 
  0.581  0.599  0.912  0.964  0.973
    eigenvectors:
  0.000  0.209  0.003  0.000  0.788
  1.000  0.000  0.000  0.000  0.000
  0.000  0.000  0.997  0.000  0.003
  0.000  0.791  0.000  0.000  0.209
  0.000  0.000  0.000  1.000  0.000
    occupations:
  0.894 -0.000  0.001 -0.152 -0.000
 -0.000  0.581 -0.000 -0.000 -0.007
  0.001 -0.000  0.912 -0.005  0.001
 -0.152 -0.000 -0.005  0.677 -0.000
 -0.000 -0.007  0.001 -0.000  0.964
atom   17   Tr[ns(na)] =   8.04597
    eigenvalues: 
  0.600  0.649  0.873  0.923  0.978
    eigenvectors:
  0.001  0.991  0.000  0.000  0.008
  0.000  0.000  0.055  0.944  0.000
  0.000  0.000  0.945  0.055  0.000
  0.000  0.008  0.000  0.000  0.992
  0.999  0.001  0.000  0.000  0.000
    occupations:
  0.652 -0.005 -0.001  0.029  0.001
 -0.005  0.920  0.012  0.001 -0.001
 -0.001  0.012  0.875 -0.001  0.001
  0.029  0.001 -0.001  0.975  0.000
  0.001 -0.001  0.001  0.000  0.600
atom   22   Tr[ns(na)] =   8.04723
    eigenvalues: 
  0.634  0.647  0.868  0.895  0.980
    eigenvectors:
  0.000  0.155  0.000  0.000  0.845
  0.999  0.001  0.000  0.000  0.000
  0.000  0.000  1.000  0.000  0.000
  0.001  0.844  0.000  0.000  0.155
  0.000  0.000  0.000  1.000  0.000
    occupations:
  0.928  0.000 -0.000 -0.120 -0.001
  0.000  0.634  0.000  0.000 -0.000
 -0.000  0.000  0.868 -0.000 -0.000
 -0.120  0.000 -0.000  0.698  0.001
 -0.001 -0.000 -0.000  0.001  0.895
atom   23   Tr[ns(na)] =   8.02996
    eigenvalues: 
  0.589  0.593  0.928  0.929  0.976
    eigenvectors:
  0.995  0.000  0.000  0.000  0.005
  0.000  0.000  0.163  0.837  0.000
  0.000  0.000  0.837  0.163  0.000
  0.005  0.000  0.000  0.000  0.995
  0.000  1.000  0.000  0.000  0.000
    occupations:
  0.591  0.000  0.002  0.028 -0.000
  0.000  0.928 -0.000  0.000 -0.001
  0.002 -0.000  0.928  0.000  0.000
  0.028  0.000  0.000  0.974  0.000
 -0.000 -0.001  0.000  0.000  0.593
N of occupied +U levels =  64.3629644
 --- exit write_ns ---

     negative rho (up, down):  0.686E+00 0.000E+00

     total cpu time spent up to now is     7281.7 secs

     total energy              =   -1946.65107927 Ry
     Harris-Foulkes estimate   =   -1946.65131923 Ry
     estimated scf accuracy    <       0.00036206 Ry

     iteration #  2     ecut=    40.00 Ry     beta=0.70
     Davidson diagonalization with overlap
     ethr =  1.56E-07,  avg # of iterations =  3.6

     negative rho (up, down):  0.686E+00 0.000E+00

     total cpu time spent up to now is     7487.0 secs

     total energy              =   -1946.64894570 Ry
     Harris-Foulkes estimate   =   -1946.65331249 Ry
     estimated scf accuracy    <       0.06341619 Ry

     iteration #  3     ecut=    40.00 Ry     beta=0.70
     Davidson diagonalization with overlap
     ethr =  1.56E-07,  avg # of iterations =  3.9

     negative rho (up, down):  0.686E+00 0.000E+00

     total cpu time spent up to now is     7690.9 secs

     total energy              =   -1946.65064703 Ry
     Harris-Foulkes estimate   =   -1946.65187597 Ry
     estimated scf accuracy    <       0.01939597 Ry

     iteration #  4     ecut=    40.00 Ry     beta=0.70
     Davidson diagonalization with overlap
     ethr =  1.56E-07,  avg # of iterations =  1.7

     negative rho (up, down):  0.686E+00 0.000E+00

     total cpu time spent up to now is     7874.9 secs

     total energy              =   -1946.65120657 Ry
     Harris-Foulkes estimate   =   -1946.65133892 Ry
     estimated scf accuracy    <       0.00078730 Ry

     iteration #  5     ecut=    40.00 Ry     beta=0.70
     Davidson diagonalization with overlap
     ethr =  1.56E-07,  avg # of iterations =  1.0

[...]
    -3.9555  -3.9554  -3.8134  -3.8133  -3.5514  -3.5514  -3.4905  -3.4905
    -2.9477  -2.9477  -2.8174  -2.8174  -2.6135  -2.6135  -2.4800  -2.4800
    -2.2744  -2.2743  -2.2190  -2.2190  -1.9329  -1.9329  -1.6982  -1.6982
    -0.8324  -0.8323   0.4117   0.4117   0.6555   0.6555   1.0264   1.0265
     1.0730   1.0730   1.1128   1.1128   1.1383   1.1383   1.9399   1.9400
     4.1754   4.1754   4.5345   4.5346   5.0006   5.0006   5.3987   5.3987
     5.8367   5.8367   6.4545   6.4545   6.8686   6.8686   7.0044   7.0044
     7.6358   7.6358   7.9861   7.9861   8.0506   8.0506   8.1463   8.1463
     8.5753   8.5753   8.6027   8.6027   8.7098   8.7098   9.0038   9.0038
     9.1070   9.1070   9.1536   9.1536   9.2821   9.2821   9.6896   9.6896
     9.7257   9.7257   9.8970   9.8970   9.9175   9.9175  10.0522  10.0522
    10.2612  10.2612  10.4834  10.4834  10.6730  10.6730  10.7991  10.7991
    11.3064  11.3064  11.4910  11.4910  11.6445  11.6445  11.7231  11.7231
    11.8063  11.8063  12.1251  12.1251  12.2594  12.2594  12.4485  12.4485
    12.5472  12.5472  12.7394  12.7394  12.8657  12.8657  13.0156  13.0156
    13.2779  13.2779  13.3738  13.3738  13.5215  13.5215  13.6783  13.6783
    13.7869  13.7869  13.9198  13.9198  14.0895  14.0895  14.2346  14.2346
    14.2984  14.2984  14.4114  14.4114  14.4969  14.4969  14.7479  14.7479
    14.8493  14.8493  15.0122  15.0123  15.1338  15.1339  15.5399  15.5399
    15.7780  15.7780  16.0904  16.0904  16.2163  16.2163  16.2614  16.2614
    16.2854  16.2854  16.3418  16.3418  16.4424  16.4424  16.5666  16.5666
    16.6122  16.6122  16.6737  16.6737  16.7427  16.7427  16.8260  16.8260
    17.0421  17.0421  17.1828  17.1829  17.4217  17.4217  17.6072  17.6072
    17.7913  17.7913  17.8835  17.8835  18.0878  18.0878  18.3064  18.3064
    18.3755  18.3756  18.4717  18.4718  18.6981  18.6981  18.7887  18.7887
    18.9201  18.9201  19.0573  19.0573  19.1349  19.1349  19.2233  19.2233
    19.3453  19.3453  19.4339  19.4339  19.5675  19.5675  19.6095  19.6095
    19.7252  19.7252  19.8406  19.8407  20.0004  20.0004  20.0832  20.0833
    20.1669  20.1670  20.2575  20.2575  20.3067  20.3067  20.4575  20.4575
    20.5707  20.5707  20.8122  20.8122  20.9562  20.9562  21.0262  21.0262
    21.1420  21.1421  21.1599  21.1599  21.3076  21.3076  21.3599  21.3599
    21.4044  21.4044  21.5156  21.5157

          k =-0.5000 0.2417 0.0000 ( 30500 PWs)   bands (ev):

   -48.8337 -48.8335 -48.8074 -48.8074 -48.8056 -48.8055 -48.7244 -48.7244
   -48.6969 -48.6969 -48.6884 -48.6880 -48.6603 -48.6602 -48.4939 -48.4937
   -48.4672 -48.4671 -48.4290 -48.4290 -48.4227 -48.4226 -48.3853 -48.3853
   -21.1889 -21.1885 -20.7120 -20.7117 -20.5643 -20.5642 -20.4313 -20.4313
   -20.1820 -20.1765 -20.0496 -20.0406 -20.0306 -20.0272 -19.8951 -19.8951
   -19.0308 -19.0305  -9.4332  -9.4327  -9.1875  -9.1860  -9.1634  -9.1562
    -8.9081  -8.9080  -8.8104  -8.7952  -8.6497  -8.6494  -8.5120  -8.5063
    -8.3040  -8.2357  -8.0342  -7.9421  -7.6356  -7.6046  -7.3642  -7.3474
    -7.2115  -7.1972  -7.1275  -7.0372  -6.9125  -6.8223  -6.7434  -6.6633
    -6.5586  -6.5531  -6.3747  -6.3739  -6.1271  -6.0748  -5.9054  -5.8984
    -5.8504  -5.8373  -5.7247  -5.6128  -5.3149  -5.2519  -5.1123  -5.0427
    -4.9219  -4.8096  -4.6195  -4.5311  -4.2549  -4.2347  -3.8821  -3.8672
    -3.6140  -3.6076  -3.4867  -3.4475  -3.4273  -3.3883  -3.3668  -3.3612
    -3.1530  -3.0901  -2.8934  -2.8921  -2.5962  -2.5842  -2.4586  -2.4579
    -2.3059  -2.3055  -2.1807  -2.1318  -2.0282  -2.0092  -1.8350  -1.8198
    -0.7145  -0.7142   0.3217   0.3316   0.4074   0.4075   0.7185   0.7211
     0.8368   0.8425   1.3679   1.3775   1.6363   1.6380   2.0273   2.0344
     4.3893   4.4008   4.6817   4.6818   5.2210   5.2210   5.5845   5.5908
     5.9404   5.9731   6.2305   6.2419   6.6349   6.6450   6.9688   6.9735
     7.0915   7.0935   7.1190   7.1194   7.5056   7.5194   7.8356   7.8454
     8.1260   8.1457   8.2849   8.3213   8.6037   8.6536   8.7453   8.7947
     9.0320   9.1280   9.4934   9.4991   9.7584   9.7648   9.9009   9.9050
    10.0351  10.0472  10.2232  10.2336  10.4297  10.4513  10.6323  10.6419
    10.7824  10.7940  10.9323  10.9405  10.9692  10.9697  11.1859  11.1992
    11.5149  11.5375  11.6649  11.6916  11.9004  11.9046  11.9595  11.9938
    12.0278  12.0553  12.1962  12.1981  12.3739  12.3875  12.5654  12.5713
    12.7343  12.7504  12.9411  12.9459  13.0136  13.0439  13.1331  13.1409
    13.2822  13.2970  13.4174  13.4544  13.5394  13.5553  13.6881  13.7011
    13.8791  13.8896  13.9312  13.9385  14.1002  14.1219  14.2715  14.2911
    14.3280  14.3454  14.5159  14.5481  14.5904  14.6292  14.6851  14.6909
    14.8104  14.8227  14.9368  14.9501  15.0234  15.0484  15.0867  15.0975
    15.2552  15.2624  15.4220  15.4344  15.4754  15.4760  15.7974  15.8043
    15.9345  15.9429  16.0910  16.1095  16.1468  16.1558  16.3392  16.3472
    16.3861  16.4321  16.4754  16.4877  16.5857  16.5962  16.7040  16.7234
    16.8757  16.8896  16.9966  17.0152  17.0291  17.1412  17.2989  17.3237
    17.5041  17.5166  17.6781  17.6823  17.7768  17.8159  17.8755  17.9372
    17.9916  18.0034  18.2818  18.2838  18.3314  18.3626  18.4488  18.4601
    18.5551  18.5596  18.7090  18.7200  18.7869  18.8019  18.9064  18.9123
    19.0468  19.0784  19.1783  19.1902  19.3753  19.4164  19.5051  19.5087
    19.5734  19.5910  19.6911  19.7002  19.8385  19.8541  20.0778  20.0826
    20.2046  20.2142  20.3650  20.3962  20.4709  20.4711  20.5946  20.6787
    20.7703  20.7750  20.8812  20.9191  21.0924  21.1291  21.3383  21.3434
    21.4692  21.4732  21.5651  21.5727  21.7154  21.7185  21.8652  21.9015
    21.9306  21.9783  22.1761  22.1947

          k =-0.5000-0.4833 0.0000 ( 30496 PWs)   bands (ev):

   -48.8337 -48.8337 -48.8075 -48.8074 -48.8058 -48.8058 -48.7245 -48.7244
   -48.6963 -48.6963 -48.6877 -48.6876 -48.6603 -48.6603 -48.4943 -48.4943
   -48.4670 -48.4669 -48.4292 -48.4292 -48.4227 -48.4227 -48.3853 -48.3853
   -21.1745 -21.1745 -20.5743 -20.5743 -20.5403 -20.5403 -20.3204 -20.3204
   -20.2951 -20.2951 -20.1926 -20.1926 -20.0939 -20.0939 -19.8961 -19.8960
   -19.0298 -19.0295  -9.4180  -9.4180  -8.9284  -8.9284  -8.8820  -8.8820
    -8.7001  -8.7001  -8.6026  -8.6025  -8.4730  -8.4730  -8.4467  -8.4467
    -8.3269  -8.3269  -8.1268  -8.1268  -7.8837  -7.8836  -7.6222  -7.6222
    -7.2902  -7.2902  -7.1029  -7.1029  -7.0379  -7.0378  -6.7990  -6.7989
    -6.5655  -6.5654  -6.4441  -6.4441  -6.2882  -6.2882  -6.2350  -6.2350
    -6.0116  -6.0116  -5.4632  -5.4632  -5.2733  -5.2733  -5.0827  -5.0826
    -4.9393  -4.9392  -4.5280  -4.5280  -4.1602  -4.1602  -3.8186  -3.8186
    -3.5073  -3.5073  -3.4450  -3.4450  -3.3300  -3.3300  -3.1589  -3.1589
    -3.0581  -3.0580  -3.0136  -3.0136  -2.4690  -2.4689  -2.4188  -2.4188
    -2.2595  -2.2595  -2.1645  -2.1645  -2.0421  -2.0420  -1.9816  -1.9815
    -0.6255  -0.6255   0.0272   0.0272   0.0924   0.0924   0.7534   0.7535
     0.8354   0.8355   1.5604   1.5605   1.8488   1.8488   2.0997   2.0997
     4.7980   4.7980   4.9073   4.9073   5.3639   5.3640   5.8469   5.8469
     5.9019   5.9019   6.0470   6.0470   6.2699   6.2699   6.5196   6.5196
     6.7314   6.7314   7.0350   7.0350   7.3855   7.3855   7.6616   7.6616
     7.8211   7.8211   7.8969   7.8969   8.4395   8.4395   8.8085   8.8085
     8.9663   8.9663   9.2804   9.2804   9.5716   9.5716  10.0233  10.0233
    10.2380  10.2380  10.5079  10.5079  10.7276  10.7276  11.0754  11.0754
    11.3574  11.3574  11.4306  11.4306  11.4860  11.4860  11.8522  11.8523
    11.9746  11.9746  12.1357  12.1358  12.3080  12.3080  12.4818  12.4818
    12.5906  12.5906  12.7714  12.7714  12.8633  12.8633  12.9425  12.9425
    13.0153  13.0153  13.1228  13.1228  13.2150  13.2150  13.2619  13.2619
    13.4266  13.4267  13.5186  13.5186  13.5525  13.5525  13.6025  13.6025
    13.6930  13.6930  13.7929  13.7929  13.9637  13.9637  13.9885  13.9885
    14.0756  14.0756  14.1457  14.1457  14.3213  14.3213  14.3323  14.3323
    14.5013  14.5013  14.6019  14.6019  14.7731  14.7731  14.9502  14.9502
    15.1002  15.1002  15.1611  15.1611  15.2039  15.2039  15.2913  15.2914
    15.5043  15.5043  15.5890  15.5890  15.6451  15.6451  15.8518  15.8518
    15.9613  15.9613  16.0676  16.0676  16.2294  16.2294  16.4351  16.4351
    16.5516  16.5517  16.7595  16.7595  16.9134  16.9134  17.0125  17.0125
    17.0933  17.0933  17.3334  17.3334  17.4785  17.4785  17.6265  17.6266
    18.0291  18.0291  18.0692  18.0692  18.2055  18.2055  18.2758  18.2758
    18.3529  18.3529  18.6110  18.6110  18.8027  18.8027  19.1385  19.1385
    19.2946  19.2946  19.4085  19.4085  19.5269  19.5269  19.6701  19.6701
    20.1212  20.1212  20.2425  20.2425  20.3220  20.3220  20.6196  20.6196
    20.6888  20.6888  20.7776  20.7776  20.8840  20.8841  20.9421  20.9421
    21.0322  21.0323  21.1254  21.1254  21.2483  21.2483  21.3227  21.3227
    21.4293  21.4294  21.4725  21.4725  21.5828  21.5828  21.6510  21.6510
    21.6977  21.6977  21.8731  21.8731

          k =-0.2500 0.2417 0.0000 ( 30481 PWs)   bands (ev):

   -48.8695 -48.8176 -48.8080 -48.8074 -48.8034 -48.7870 -48.7368 -48.7272
   -48.7214 -48.7001 -48.6907 -48.6833 -48.6540 -48.6176 -48.5046 -48.4965
   -48.4910 -48.4355 -48.4301 -48.4250 -48.4225 -48.4171 -48.3917 -48.3788
   -21.3692 -21.0895 -20.9259 -20.8362 -20.5330 -20.4324 -20.3929 -20.3545
   -20.2861 -20.2052 -20.0874 -20.0829 -20.0437 -19.8710 -19.8287 -19.8126
   -19.0322 -18.9124  -9.9130  -9.7750  -9.7363  -9.4777  -9.2051  -9.0801
    -8.9632  -8.8995  -8.7379  -8.6814  -8.6389  -8.4943  -8.4894  -8.3661
    -8.2746  -8.1442  -8.0222  -7.9680  -7.6756  -7.4791  -7.4454  -7.3048
    -7.1450  -7.1024  -6.9946  -6.9271  -6.8422  -6.6199  -6.5340  -6.4386
    -6.4259  -6.3211  -6.2651  -6.1540  -6.0874  -6.0592  -5.9538  -5.8682
    -5.7969  -5.6707  -5.5551  -5.4430  -5.2036  -5.0367  -5.0315  -4.9079
    -4.7601  -4.6663  -4.6162  -4.5339  -4.1970  -4.1934  -4.1442  -4.0149
    -3.9391  -3.9143  -3.7426  -3.6686  -3.6053  -3.5487  -3.3868  -3.3755
    -3.3197  -3.2251  -3.1449  -3.1157  -3.0080  -2.9352  -2.6775  -2.4729
    -2.2580  -2.1382  -2.1012  -1.9994  -1.9874  -1.7771  -1.6139  -1.5558
    -0.9670  -0.6967  -0.2568  -0.1286   0.3987   0.5510   0.6731   0.9286
     1.1535   1.4020   1.5648   1.6392   1.7964   1.8224   1.9407   2.1560
     3.6307   3.9586   4.4855   4.8821   5.2721   5.4493   5.5013   5.7415
     5.9438   6.2130   6.3478   6.3877   6.3967   6.6510   6.7838   6.9403
     7.1979   7.3371   7.4506   7.6182   7.7025   7.8866   8.0341   8.0371
     8.1364   8.2227   8.3924   8.3981   8.6230   8.7548   8.8445   8.9080
     8.9101   9.1824   9.3240   9.4549   9.5450   9.6321   9.6879   9.7396
     9.8610   9.9265  10.1253  10.1539  10.2547  10.2961  10.3667  10.5151
    10.5794  10.6495  10.7877  10.8518  10.8774  11.0235  11.0372  11.2157
    11.3245  11.3389  11.4449  11.4705  11.5010  11.5849  11.6938  11.7605
    11.8184  12.0012  12.1230  12.1592  12.1861  12.2134  12.2973  12.3863
    12.4340  12.5108  12.5859  12.6124  12.7063  12.7869  12.9026  13.0050
    13.0731  13.1270  13.2232  13.2773  13.3769  13.3855  13.4551  13.5490
    13.6857  13.6973  13.8047  13.8664  13.8892  14.0742  14.1279  14.1725
    14.1815  14.2772  14.3792  14.4845  14.5696  14.5924  14.6732  14.7401
    14.8130  15.0532  15.2328  15.3100  15.3807  15.4200  15.4882  15.4937
    15.5418  15.6226  15.6846  15.6943  15.7842  15.7868  15.9503  16.0006
    16.0645  16.0755  16.1836  16.3245  16.3445  16.3677  16.4220  16.5031
    16.5483  16.5586  16.6230  16.6505  16.7454  16.8352  16.9772  16.9982
    17.1329  17.2034  17.2182  17.3207  17.3370  17.4040  17.4979  17.5224
    17.5759  17.6273  17.7402  17.7594  17.8704  17.8930  18.0378  18.0639
    18.1044  18.1512  18.2463  18.3477  18.4172  18.4950  18.4990  18.6515
    18.7483  18.8513  18.8827  18.9150  18.9757  19.0271  19.0822  19.1554
    19.2084  19.2356  19.3070  19.4848  19.4939  19.5528  19.6863  19.7232
    19.7590  19.9228  19.9255  20.0347  20.1375  20.2434  20.3222  20.3502
    20.4563  20.5534  20.6215  20.6649  20.6750  20.7705  20.8475  20.9117
    20.9384  21.0343  21.1149  21.1192  21.1743  21.2311  21.3275  21.3942
    21.4165  21.4452  21.5665  21.6266  21.6705  21.7159  21.7878  21.8564
    21.8601  21.9217  22.0015  22.1174

     the Fermi energy is    -1.9962 ev

!    total energy              =   -1946.65241211 Ry
     Harris-Foulkes estimate   =   -1946.65241211 Ry
     estimated scf accuracy    <          5.1E-09 Ry

     The total energy is the sum of the following terms:

     one-electron contribution =  -22635.13386810 Ry
     hartree contribution      =   11364.83989429 Ry
     xc contribution           =    -365.21978852 Ry
     ewald contribution        =    9687.32101398 Ry
     Hubbard energy            =       1.54185415 Ry
     smearing contrib. (-TS)   =      -0.00151791 Ry

     convergence has been achieved in  15 iterations

     Forces acting on atoms (Ry/au):


     negative rho (up, down):  0.688E+00 0.000E+00
     atom    1 type  1   force =    -0.00675234   -0.01266069    0.00018089
     atom    2 type  1   force =     0.00009030    0.00372878   -0.00056047
     atom    3 type  2   force =    -0.00007258    0.00552686   -0.00052825
     atom    4 type  2   force =     0.00823655    0.00861613   -0.00008288
     atom    5 type  1   force =    -0.00241924   -0.02851224    0.00003047
     atom    6 type  1   force =     0.00360829    0.02553604    0.00005429
     atom    7 type  1   force =    -0.00031597   -0.00125685    0.00050181
     atom    8 type  1   force =    -0.00292990   -0.00061462   -0.00022441
     atom    9 type  2   force =     0.00119640   -0.00015235   -0.00043018
     atom   10 type  2   force =     0.00001830   -0.00164292    0.00041509
     atom   11 type  1   force =    -0.00016924    0.01240973    0.00015606
     atom   12 type  1   force =     0.00032495   -0.01187604    0.00018157
     atom   13 type  1   force =    -0.00069060   -0.00001629   -0.00041519
     atom   14 type  1   force =    -0.00676313   -0.01266190    0.00017675
     atom   15 type  1   force =     0.00008482    0.00372672   -0.00055799
     atom   16 type  2   force =    -0.00007350    0.00552711   -0.00052932
     atom   17 type  2   force =     0.00823304    0.00861663   -0.00008993
     atom   18 type  1   force =    -0.00242186   -0.02851165    0.00003021
     atom   19 type  1   force =     0.00360553    0.02553532    0.00005414
     atom   20 type  1   force =    -0.00032361   -0.00125689    0.00049380
     atom   21 type  1   force =    -0.00293712   -0.00061468   -0.00021171
     atom   22 type  2   force =     0.00120296   -0.00015258   -0.00043231
     atom   23 type  2   force =     0.00001603   -0.00164290    0.00041959
     atom   24 type  1   force =    -0.00016871    0.01240682    0.00015627
     atom   25 type  1   force =     0.00032553   -0.01187319    0.00018188
     atom   26 type  1   force =    -0.00069751   -0.00001628   -0.00037688
     atom   27 type  3   force =     0.00000981    0.00057325    0.00070528
     atom   28 type  3   force =     0.00000969    0.00057481    0.00070531
     atom   29 type  3   force =    -0.00011755    0.00034103   -0.00000317
     atom   30 type  3   force =    -0.00010931    0.00034286   -0.00000072

     Total force =     0.002219     Total SCF correction =     0.000153

     bfgs converged in   9 scf cycles and   8 bfgs steps
     (criteria: energy < 0.10E-03, force < 0.10E-02)

     End of BFGS Geometry Optimization

     Final energy   =   -1946.6524121104 Ry
Begin final coordinates

ATOMIC_POSITIONS (crystal)
O0       0.000000000   0.000000000   0.378839914    0   0   1
O0       0.000000000   0.500000000   0.401351834    0   0   1
Rh1      0.250000000   0.500000000   0.452496926    0   0   1
Rh1      0.000000000   0.000000000   0.453149138    0   0   1
O0       0.250000000   0.810000000   0.452899593    0   0   1
O0       0.250000000   0.190000000   0.452653106    0   0   1
O0       0.000000000   0.500000000   0.499274222    0   0   1
O0       0.000000000   0.000000000   0.528575105    0   0   1
Rh1      0.250000000   0.000000000   0.575957849    0   0   1
Rh1      0.000000000   0.500000000   0.571364812    0   0   1
O0       0.250000000   0.690000000   0.576663086    0   0   1
O0       0.250000000   0.310000000   0.576673269    0   0   1
O0       0.000000000   0.000000000   0.621367463    0   0   1
O0       0.500000000   0.000000000   0.378840435    0   0   1
O0       0.500000000   0.500000000   0.401351703    0   0   1
Rh1      0.750000000   0.500000000   0.452496984    0   0   1
Rh1      0.500000000   0.000000000   0.453149320    0   0   1
O0       0.750000000   0.810000000   0.452899630    0   0   1
O0       0.750000000   0.190000000   0.452653104    0   0   1
O0       0.500000000   0.500000000   0.499274434    0   0   1
O0       0.500000000   0.000000000   0.528573907    0   0   1
Rh1      0.750000000   0.000000000   0.575957937    0   0   1
Rh1      0.500000000   0.500000000   0.571364745    0   0   1
O0       0.750000000   0.690000000   0.576663506    0   0   1
O0       0.750000000   0.310000000   0.576673693    0   0   1
O0       0.500000000   0.000000000   0.621364644    0   0   1
H2      -0.000220646   0.637939759   0.384538919
H2       0.499779338   0.637939072   0.384538566
H2       0.148404680   0.033514242   0.368126609
H2       0.648401882   0.033514322   0.368125544
End final coordinates



     init_run     :    111.22s CPU    114.11s WALL (       1 calls)
     electrons    :  32146.00s CPU  33129.86s WALL (       9 calls)
     update_pot   :    159.62s CPU    163.13s WALL (       8 calls)
     forces       :   1248.25s CPU   1265.47s WALL (       9 calls)

     Called by init_run:
     wfcinit      :     36.25s CPU     37.79s WALL (       1 calls)
     potinit      :      7.17s CPU      7.35s WALL (       1 calls)

     Called by electrons:
     c_bands      :  15866.79s CPU  16444.83s WALL (     168 calls)
     sum_band     :   6648.44s CPU   6841.71s WALL (     168 calls)
     v_of_rho     :    198.03s CPU    219.18s WALL (     174 calls)
     newd         :   9848.24s CPU   9901.30s WALL (     174 calls)
     mix_rho      :     35.26s CPU     36.52s WALL (     168 calls)

     Called by c_bands:
     init_us_2    :     40.63s CPU     40.77s WALL (    1092 calls)
     cegterg      :  15588.21s CPU  16086.10s WALL (     504 calls)

     Called by *egterg:
     h_psi        :   9184.98s CPU   9521.37s WALL (    1392 calls)
     s_psi        :    944.66s CPU    956.29s WALL (    1446 calls)
     g_psi        :     19.37s CPU     19.40s WALL (     885 calls)
     cdiaghg      :   1363.77s CPU   1367.45s WALL (    1356 calls)

     Called by h_psi:
     add_vuspsi   :    916.54s CPU    929.50s WALL (    1392 calls)
     vhpsi        :    933.38s CPU    943.84s WALL (    1392 calls)

     General routines
     calbec       :   2211.39s CPU   2242.92s WALL (   11190 calls)
     fft          :    254.85s CPU    319.04s WALL (    2867 calls)
     ffts         :      3.01s CPU      3.12s WALL (     342 calls)
     fftw         :   5166.68s CPU   5541.57s WALL (  916860 calls)
     interpolate  :     29.00s CPU     29.45s WALL (     342 calls)
     davcio       :      0.10s CPU     17.67s WALL (    1119 calls)

     Parallel routines
     fft_scatter  :   2099.01s CPU   2525.58s WALL (  920069 calls)
     Hubbard U routines
     new_ns       :    196.73s CPU    208.88s WALL (     168 calls)
     vhpsi        :    933.38s CPU    943.84s WALL (    1392 calls)
     force_hub    :    321.34s CPU    330.86s WALL (       9 calls)

     PWSCF        :     9h30m CPU        9h47m WALL


   This run was terminated on:   9: 9:48   9May2014            

=------------------------------------------------------------------------------=
   JOB DONE.
=------------------------------------------------------------------------------=
