
     Program PWSCF v.5.0.2 (svn rev. 9656) starts on  8Feb2014 at 17:15:58 

     This program is part of the open-source Quantum ESPRESSO suite
     for quantum simulation of materials; please cite
         "P. Giannozzi et al., J. Phys.:Condens. Matter 21 395502 (2009);
          URL http://www.quantum-espresso.org", 
     in publications or presentations arising from this work. More details at
     http://www.quantum-espresso.org/quote.php

     Parallel version (MPI), running on    16 processors
     R & G space division:  proc/nbgrp/npool/nimage =      16

     Current dimensions of program PWSCF are:
     Max number of different atomic species (ntypx) = 10
     Max number of k-points (npk) =  40000
     Max angular momentum in pseudopotentials (lmaxx) =  3
     Reading input from PtO2-2-pert.in
Warning: card &IONS ignored
Warning: card / ignored
Warning: card &CELL ignored
Warning: card / ignored

     Subspace diagonalization in iterative solution of the eigenvalue problem:
     a serial algorithm will be used


     Parallelization info
     --------------------
     sticks:   dense  smooth     PW     G-vecs:    dense   smooth      PW
     Min         748     238     67                43352     7842    1157
     Max         749     239     69                43355     7866    1158
     Sum       11977    3817   1085               693671   125609   18517



     bravais-lattice index     =            0
     lattice parameter (alat)  =      17.3477  a.u.
     unit-cell volume          =    3673.7913 (a.u.)^3
     number of atoms/cell      =           48
     number of atomic types    =            3
     number of electrons       =       448.00
     number of Kohn-Sham states=          672
     kinetic-energy cutoff     =      40.0000  Ry
     charge density cutoff     =     500.0000  Ry
     convergence threshold     =      1.0E-06
     mixing beta               =       0.7000
     number of iterations used =            8  plain     mixing
     Exchange-correlation      = SLA  PW   PBE  PBE ( 1 4 3 4 0)
     EXX-fraction              =        0.00

     celldm(1)=  17.347686  celldm(2)=   0.000000  celldm(3)=   0.000000
     celldm(4)=   0.000000  celldm(5)=   0.000000  celldm(6)=   0.000000

     crystal axes: (cart. coord. in units of alat)
               a(1) = (   1.000000   0.000000   0.000000 )  
               a(2) = (   0.000000   1.000000   0.000000 )  
               a(3) = (   0.000000   0.000000   0.703704 )  

     reciprocal axes: (cart. coord. in units 2 pi/alat)
               b(1) = (  1.000000  0.000000  0.000000 )  
               b(2) = (  0.000000  1.000000  0.000000 )  
               b(3) = (  0.000000  0.000000  1.421053 )  


     PseudoPot. # 1 for Pt read from file:
     /home/camp/zhonxu/pseudo/pt_pbe_v1.uspp.F.UPF
     MD5 check sum: 4c71d6ad5ef119f1eb26a4d0b7884226
     Pseudo is Ultrasoft + core correction, Zval = 16.0
     Generated by new atomic code, or converted to UPF format
     Using radial grid of  985 points,  6 beta functions with: 
                l(1) =   0
                l(2) =   0
                l(3) =   1
                l(4) =   1
                l(5) =   2
                l(6) =   2
     Q(r) pseudized with  8 coefficients,  rinner =    1.300   1.300   1.300
                                                       1.300   1.300

     PseudoPot. # 2 for O  read from file:
     /home/camp/zhonxu/pseudo/o_pbe_v1.01.uspp.F.UPF
     MD5 check sum: 2bcb18d16ea4b960afae9ec6d52f22d2
     Pseudo is Ultrasoft + core correction, Zval =  6.0
     Generated by new atomic code, or converted to UPF format
     Using radial grid of  737 points,  5 beta functions with: 
                l(1) =   0
                l(2) =   0
                l(3) =   1
                l(4) =   1
                l(5) =   2
     Q(r) pseudized with  8 coefficients,  rinner =    0.900   0.900   0.900
                                                       0.900   0.900

     PseudoPot. # 3 for O  read from file:
     /home/camp/zhonxu/pseudo/o_pbe_v1.01.uspp.F.UPF
     MD5 check sum: 2bcb18d16ea4b960afae9ec6d52f22d2
     Pseudo is Ultrasoft + core correction, Zval =  6.0
     Generated by new atomic code, or converted to UPF format
     Using radial grid of  737 points,  5 beta functions with: 
                l(1) =   0
                l(2) =   0
                l(3) =   1
                l(4) =   1
                l(5) =   2
     Q(r) pseudized with  8 coefficients,  rinner =    0.900   0.900   0.900
                                                       0.900   0.900

     atomic species   valence    mass     pseudopotential
        Pt0           16.00   195.08000     Pt( 1.00)
        O1             6.00    15.99940     O ( 1.00)
        O2             6.00    15.99940     O ( 1.00)

     Starting magnetic structure 
     atomic species   magnetization
        Pt0          0.000
        O1           0.000
        O2           0.000


     Simplified LDA+U calculation (l_max = 2) with parameters (eV):
     atomic species    L          U    alpha       J0     beta
        Pt0            2     0.0000   0.0000   0.0000   0.0000
        O1             1     0.0000   0.0000   0.0000   0.0000
        O2             1     0.0000   0.0000   0.0000   0.0000



      4 Sym. Ops. (no inversion) found



   Cartesian axes

     site n.     atom                  positions (alat units)
         1           Pt0 tau(   1) = (  -0.1550000  -0.1550000   0.0000000  )
         2           Pt0 tau(   2) = (   0.0950000   0.0950000   0.1759259  )
         3           Pt0 tau(   3) = (  -0.1550000  -0.1550000   0.3518519  )
         4           Pt0 tau(   4) = (   0.0950000   0.0950000   0.5277778  )
         5           Pt0 tau(   5) = (  -0.1550000   0.3450000   0.0000000  )
         6           Pt0 tau(   6) = (   0.0950000   0.5950000   0.1759259  )
         7           Pt0 tau(   7) = (  -0.1550000   0.3450000   0.3518519  )
         8           Pt0 tau(   8) = (   0.0950000   0.5950000   0.5277778  )
         9           Pt0 tau(   9) = (   0.3450000  -0.1550000   0.0000000  )
        10           Pt0 tau(  10) = (   0.5950000   0.0950000   0.1759259  )
        11           Pt0 tau(  11) = (   0.3450000  -0.1550000   0.3518519  )
        12           Pt0 tau(  12) = (   0.5950000   0.0950000   0.5277778  )
        13           Pt0 tau(  13) = (   0.3450000   0.3450000   0.0000000  )
        14           Pt0 tau(  14) = (   0.5950000   0.5950000   0.1759259  )
        15           Pt0 tau(  15) = (   0.3450000   0.3450000   0.3518519  )
        16           Pt0 tau(  16) = (   0.5950000   0.5950000   0.5277778  )
        17           O1  tau(  17) = (   0.0000000   0.0000000   0.0000000  )
        18           O2  tau(  18) = (  -0.3100000  -0.3100000   0.0000000  )
        19           O2  tau(  19) = (   0.2500000  -0.0600000   0.1759259  )
        20           O2  tau(  20) = (  -0.0600000   0.2500000   0.1759259  )
        21           O2  tau(  21) = (   0.0000000   0.0000000   0.3518519  )
        22           O2  tau(  22) = (  -0.3100000  -0.3100000   0.3518519  )
        23           O2  tau(  23) = (   0.2500000  -0.0600000   0.5277778  )
        24           O2  tau(  24) = (  -0.0600000   0.2500000   0.5277778  )
        25           O2  tau(  25) = (   0.0000000   0.5000000   0.0000000  )
        26           O2  tau(  26) = (  -0.3100000   0.1900000   0.0000000  )
        27           O2  tau(  27) = (   0.2500000   0.4400000   0.1759259  )
        28           O2  tau(  28) = (  -0.0600000   0.7500000   0.1759259  )
        29           O2  tau(  29) = (   0.0000000   0.5000000   0.3518519  )
        30           O2  tau(  30) = (  -0.3100000   0.1900000   0.3518519  )
        31           O2  tau(  31) = (   0.2500000   0.4400000   0.5277778  )
        32           O2  tau(  32) = (  -0.0600000   0.7500000   0.5277778  )
        33           O2  tau(  33) = (   0.5000000   0.0000000   0.0000000  )
        34           O2  tau(  34) = (   0.1900000  -0.3100000   0.0000000  )
        35           O2  tau(  35) = (   0.7500000  -0.0600000   0.1759259  )
        36           O2  tau(  36) = (   0.4400000   0.2500000   0.1759259  )
        37           O2  tau(  37) = (   0.5000000   0.0000000   0.3518519  )
        38           O2  tau(  38) = (   0.1900000  -0.3100000   0.3518519  )
        39           O2  tau(  39) = (   0.7500000  -0.0600000   0.5277778  )
        40           O2  tau(  40) = (   0.4400000   0.2500000   0.5277778  )
        41           O2  tau(  41) = (   0.5000000   0.5000000   0.0000000  )
        42           O2  tau(  42) = (   0.1900000   0.1900000   0.0000000  )
        43           O2  tau(  43) = (   0.7500000   0.4400000   0.1759259  )
        44           O2  tau(  44) = (   0.4400000   0.7500000   0.1759259  )
        45           O2  tau(  45) = (   0.5000000   0.5000000   0.3518519  )
        46           O2  tau(  46) = (   0.1900000   0.1900000   0.3518519  )
        47           O2  tau(  47) = (   0.7500000   0.4400000   0.5277778  )
        48           O2  tau(  48) = (   0.4400000   0.7500000   0.5277778  )

     number of k points=    42  Methfessel-Paxton smearing, width (Ry)=  0.0100
                       cart. coord. in units 2pi/alat
        k(    1) = (   0.0000000   0.0000000   0.0000000), wk =   0.0156250
        k(    2) = (   0.0000000   0.0000000   0.3552632), wk =   0.0312500
        k(    3) = (   0.0000000   0.0000000  -0.7105263), wk =   0.0156250
        k(    4) = (   0.0000000   0.2500000   0.0000000), wk =   0.0625000
        k(    5) = (   0.0000000   0.2500000   0.3552632), wk =   0.1250000
        k(    6) = (   0.0000000   0.2500000  -0.7105263), wk =   0.0625000
        k(    7) = (   0.0000000  -0.5000000   0.0000000), wk =   0.0312500
        k(    8) = (   0.0000000  -0.5000000   0.3552632), wk =   0.0625000
        k(    9) = (   0.0000000  -0.5000000  -0.7105263), wk =   0.0312500
        k(   10) = (   0.2500000   0.2500000   0.0000000), wk =   0.0312500
        k(   11) = (   0.2500000   0.2500000   0.3552632), wk =   0.0625000
        k(   12) = (   0.2500000   0.2500000  -0.7105263), wk =   0.0312500
        k(   13) = (   0.2500000  -0.5000000   0.0000000), wk =   0.0625000
        k(   14) = (   0.2500000  -0.5000000   0.3552632), wk =   0.1250000
        k(   15) = (   0.2500000  -0.5000000  -0.7105263), wk =   0.0625000
        k(   16) = (  -0.5000000  -0.5000000   0.0000000), wk =   0.0156250
        k(   17) = (  -0.5000000  -0.5000000   0.3552632), wk =   0.0312500
        k(   18) = (  -0.5000000  -0.5000000  -0.7105263), wk =   0.0156250
        k(   19) = (   0.2500000  -0.2500000   0.0000000), wk =   0.0312500
        k(   20) = (   0.2500000  -0.2500000   0.3552632), wk =   0.0625000
        k(   21) = (   0.2500000  -0.2500000  -0.7105263), wk =   0.0312500
        k(   22) = (   0.0000000   0.0000000   0.0000000), wk =   0.0156250
        k(   23) = (   0.0000000   0.0000000   0.3552632), wk =   0.0312500
        k(   24) = (   0.0000000   0.0000000  -0.7105263), wk =   0.0156250
        k(   25) = (   0.0000000   0.2500000   0.0000000), wk =   0.0625000
        k(   26) = (   0.0000000   0.2500000   0.3552632), wk =   0.1250000
        k(   27) = (   0.0000000   0.2500000  -0.7105263), wk =   0.0625000
        k(   28) = (   0.0000000  -0.5000000   0.0000000), wk =   0.0312500
        k(   29) = (   0.0000000  -0.5000000   0.3552632), wk =   0.0625000
        k(   30) = (   0.0000000  -0.5000000  -0.7105263), wk =   0.0312500
        k(   31) = (   0.2500000   0.2500000   0.0000000), wk =   0.0312500
        k(   32) = (   0.2500000   0.2500000   0.3552632), wk =   0.0625000
        k(   33) = (   0.2500000   0.2500000  -0.7105263), wk =   0.0312500
        k(   34) = (   0.2500000  -0.5000000   0.0000000), wk =   0.0625000
        k(   35) = (   0.2500000  -0.5000000   0.3552632), wk =   0.1250000
        k(   36) = (   0.2500000  -0.5000000  -0.7105263), wk =   0.0625000
        k(   37) = (  -0.5000000  -0.5000000   0.0000000), wk =   0.0156250
        k(   38) = (  -0.5000000  -0.5000000   0.3552632), wk =   0.0312500
        k(   39) = (  -0.5000000  -0.5000000  -0.7105263), wk =   0.0156250
        k(   40) = (   0.2500000  -0.2500000   0.0000000), wk =   0.0312500
        k(   41) = (   0.2500000  -0.2500000   0.3552632), wk =   0.0625000
        k(   42) = (   0.2500000  -0.2500000  -0.7105263), wk =   0.0312500

     Dense  grid:   693671 G-vectors     FFT dimensions: ( 125, 125,  90)

     Smooth grid:   125609 G-vectors     FFT dimensions: (  72,  72,  50)

     Largest allocated arrays     est. size (Mb)     dimensions
        Kohn-Sham Wavefunctions        10.13 Mb     (    988,  672)
        Atomic wavefunctions            4.82 Mb     (    988,  320)
        NL pseudopotentials            10.61 Mb     (    988,  704)
        Each V/rho on FFT grid          2.86 Mb     (  93750,   2)
        Each G-vector array             0.33 Mb     (  43354)
        G-vector shells                 0.12 Mb     (  15717)
     Largest temporary arrays     est. size (Mb)     dimensions
        Auxiliary wavefunctions        40.52 Mb     (    988, 2688)
        Each subspace H/S matrix      110.25 Mb     (2688,2688)
        Each <psi_i|beta_j> matrix      7.22 Mb     (    704,  672)
        Arrays for rho mixing          11.44 Mb     (  93750,   8)

     Check: negative/imaginary core charge=   -0.000005    0.000000

     Initial potential from superposition of free atoms
     Check: negative starting charge=(component1):   -1.539312
     Check: negative starting charge=(component2):   -1.539312

     starting charge  439.99977, renormalised to  448.00000

     negative rho (up, down):  0.157E+01 0.157E+01
     Number of +U iterations with fixed ns =  0
     Starting occupations:
 --- enter write_ns ---
 LDA+U parameters:
U( 1)     =  0.00000000
alpha( 1) =  0.00000000
U( 2)     =  0.00000000
alpha( 2) =  0.00000000
U( 3)     =  0.00000000
alpha( 3) =  0.00000000
atom    1   Tr[ns(na)] (up, down, total) =   4.00000  4.00000  8.00000
   spin  1
    eigenvalues: 
  0.800  0.800  0.800  0.800  0.800
    eigenvectors:
  1.000  0.000  0.000  0.000  0.000
  0.000  1.000  0.000  0.000  0.000
  0.000  0.000  1.000  0.000  0.000
  0.000  0.000  0.000  1.000  0.000
  0.000  0.000  0.000  0.000  1.000
    occupations:
  0.800  0.000  0.000  0.000  0.000
  0.000  0.800  0.000  0.000  0.000
  0.000  0.000  0.800  0.000  0.000
  0.000  0.000  0.000  0.800  0.000
  0.000  0.000  0.000  0.000  0.800
   spin  2
    eigenvalues: 
  0.800  0.800  0.800  0.800  0.800
    eigenvectors:
  1.000  0.000  0.000  0.000  0.000
  0.000  1.000  0.000  0.000  0.000
  0.000  0.000  1.000  0.000  0.000
  0.000  0.000  0.000  1.000  0.000
  0.000  0.000  0.000  0.000  1.000
    occupations:
  0.800  0.000  0.000  0.000  0.000
  0.000  0.800  0.000  0.000  0.000
  0.000  0.000  0.800  0.000  0.000
  0.000  0.000  0.000  0.800  0.000
  0.000  0.000  0.000  0.000  0.800
atomic mag. moment =     0.000000
atom    2   Tr[ns(na)] (up, down, total) =   4.00000  4.00000  8.00000
   spin  1
    eigenvalues: 
  0.800  0.800  0.800  0.800  0.800
    eigenvectors:
  1.000  0.000  0.000  0.000  0.000
  0.000  1.000  0.000  0.000  0.000
  0.000  0.000  1.000  0.000  0.000
  0.000  0.000  0.000  1.000  0.000
  0.000  0.000  0.000  0.000  1.000
    occupations:
  0.800  0.000  0.000  0.000  0.000
  0.000  0.800  0.000  0.000  0.000
  0.000  0.000  0.800  0.000  0.000
  0.000  0.000  0.000  0.800  0.000
  0.000  0.000  0.000  0.000  0.800
   spin  2
    eigenvalues: 
  0.800  0.800  0.800  0.800  0.800
    eigenvectors:
  1.000  0.000  0.000  0.000  0.000
  0.000  1.000  0.000  0.000  0.000
  0.000  0.000  1.000  0.000  0.000
  0.000  0.000  0.000  1.000  0.000
  0.000  0.000  0.000  0.000  1.000
    occupations:
  0.800  0.000  0.000  0.000  0.000
  0.000  0.800  0.000  0.000  0.000
  0.000  0.000  0.800  0.000  0.000
  0.000  0.000  0.000  0.800  0.000
  0.000  0.000  0.000  0.000  0.800
atomic mag. moment =     0.000000
atom    3   Tr[ns(na)] (up, down, total) =   4.00000  4.00000  8.00000
   spin  1
    eigenvalues: 
  0.800  0.800  0.800  0.800  0.800
    eigenvectors:
  1.000  0.000  0.000  0.000  0.000
  0.000  1.000  0.000  0.000  0.000
  0.000  0.000  1.000  0.000  0.000
  0.000  0.000  0.000  1.000  0.000
  0.000  0.000  0.000  0.000  1.000
    occupations:
  0.800  0.000  0.000  0.000  0.000
  0.000  0.800  0.000  0.000  0.000
  0.000  0.000  0.800  0.000  0.000
  0.000  0.000  0.000  0.800  0.000
  0.000  0.000  0.000  0.000  0.800
   spin  2
    eigenvalues: 
  0.800  0.800  0.800  0.800  0.800
    eigenvectors:
  1.000  0.000  0.000  0.000  0.000
  0.000  1.000  0.000  0.000  0.000
  0.000  0.000  1.000  0.000  0.000
  0.000  0.000  0.000  1.000  0.000
  0.000  0.000  0.000  0.000  1.000
    occupations:
  0.800  0.000  0.000  0.000  0.000
  0.000  0.800  0.000  0.000  0.000
  0.000  0.000  0.800  0.000  0.000
  0.000  0.000  0.000  0.800  0.000
  0.000  0.000  0.000  0.000  0.800
atomic mag. moment =     0.000000
atom    4   Tr[ns(na)] (up, down, total) =   4.00000  4.00000  8.00000
   spin  1
    eigenvalues: 
  0.800  0.800  0.800  0.800  0.800
    eigenvectors:
  1.000  0.000  0.000  0.000  0.000
  0.000  1.000  0.000  0.000  0.000
  0.000  0.000  1.000  0.000  0.000
  0.000  0.000  0.000  1.000  0.000
  0.000  0.000  0.000  0.000  1.000
    occupations:
  0.800  0.000  0.000  0.000  0.000
  0.000  0.800  0.000  0.000  0.000
  0.000  0.000  0.800  0.000  0.000
  0.000  0.000  0.000  0.800  0.000
  0.000  0.000  0.000  0.000  0.800
   spin  2
    eigenvalues: 
  0.800  0.800  0.800  0.800  0.800
    eigenvectors:
  1.000  0.000  0.000  0.000  0.000
  0.000  1.000  0.000  0.000  0.000
  0.000  0.000  1.000  0.000  0.000
  0.000  0.000  0.000  1.000  0.000
  0.000  0.000  0.000  0.000  1.000
    occupations:
  0.800  0.000  0.000  0.000  0.000
  0.000  0.800  0.000  0.000  0.000
  0.000  0.000  0.800  0.000  0.000
  0.000  0.000  0.000  0.800  0.000
  0.000  0.000  0.000  0.000  0.800
atomic mag. moment =     0.000000
atom    5   Tr[ns(na)] (up, down, total) =   4.00000  4.00000  8.00000
   spin  1
    eigenvalues: 
  0.800  0.800  0.800  0.800  0.800
    eigenvectors:
  1.000  0.000  0.000  0.000  0.000
  0.000  1.000  0.000  0.000  0.000
  0.000  0.000  1.000  0.000  0.000
  0.000  0.000  0.000  1.000  0.000
  0.000  0.000  0.000  0.000  1.000
    occupations:
  0.800  0.000  0.000  0.000  0.000
  0.000  0.800  0.000  0.000  0.000
  0.000  0.000  0.800  0.000  0.000
  0.000  0.000  0.000  0.800  0.000
  0.000  0.000  0.000  0.000  0.800
   spin  2
    eigenvalues: 
  0.800  0.800  0.800  0.800  0.800
    eigenvectors:
  1.000  0.000  0.000  0.000  0.000
  0.000  1.000  0.000  0.000  0.000
  0.000  0.000  1.000  0.000  0.000
  0.000  0.000  0.000  1.000  0.000
  0.000  0.000  0.000  0.000  1.000
    occupations:
  0.800  0.000  0.000  0.000  0.000
  0.000  0.800  0.000  0.000  0.000
  0.000  0.000  0.800  0.000  0.000
  0.000  0.000  0.000  0.800  0.000
  0.000  0.000  0.000  0.000  0.800
atomic mag. moment =     0.000000
atom    6   Tr[ns(na)] (up, down, total) =   4.00000  4.00000  8.00000
   spin  1
    eigenvalues: 
  0.800  0.800  0.800  0.800  0.800
    eigenvectors:
  1.000  0.000  0.000  0.000  0.000
  0.000  1.000  0.000  0.000  0.000
  0.000  0.000  1.000  0.000  0.000
  0.000  0.000  0.000  1.000  0.000
  0.000  0.000  0.000  0.000  1.000
    occupations:
  0.800  0.000  0.000  0.000  0.000
  0.000  0.800  0.000  0.000  0.000
  0.000  0.000  0.800  0.000  0.000
  0.000  0.000  0.000  0.800  0.000
  0.000  0.000  0.000  0.000  0.800
   spin  2
    eigenvalues: 
  0.800  0.800  0.800  0.800  0.800
    eigenvectors:
  1.000  0.000  0.000  0.000  0.000
  0.000  1.000  0.000  0.000  0.000
  0.000  0.000  1.000  0.000  0.000
  0.000  0.000  0.000  1.000  0.000
  0.000  0.000  0.000  0.000  1.000
    occupations:
  0.800  0.000  0.000  0.000  0.000
  0.000  0.800  0.000  0.000  0.000
  0.000  0.000  0.800  0.000  0.000
  0.000  0.000  0.000  0.800  0.000
  0.000  0.000  0.000  0.000  0.800
atomic mag. moment =     0.000000
atom    7   Tr[ns(na)] (up, down, total) =   4.00000  4.00000  8.00000
   spin  1
    eigenvalues: 
  0.800  0.800  0.800  0.800  0.800
    eigenvectors:
  1.000  0.000  0.000  0.000  0.000
  0.000  1.000  0.000  0.000  0.000
  0.000  0.000  1.000  0.000  0.000
  0.000  0.000  0.000  1.000  0.000
  0.000  0.000  0.000  0.000  1.000
    occupations:
  0.800  0.000  0.000  0.000  0.000
  0.000  0.800  0.000  0.000  0.000
  0.000  0.000  0.800  0.000  0.000
  0.000  0.000  0.000  0.800  0.000
  0.000  0.000  0.000  0.000  0.800
   spin  2
    eigenvalues: 
  0.800  0.800  0.800  0.800  0.800
    eigenvectors:
  1.000  0.000  0.000  0.000  0.000
  0.000  1.000  0.000  0.000  0.000
  0.000  0.000  1.000  0.000  0.000
  0.000  0.000  0.000  1.000  0.000
  0.000  0.000  0.000  0.000  1.000
    occupations:
  0.800  0.000  0.000  0.000  0.000
  0.000  0.800  0.000  0.000  0.000
  0.000  0.000  0.800  0.000  0.000
  0.000  0.000  0.000  0.800  0.000
  0.000  0.000  0.000  0.000  0.800
atomic mag. moment =     0.000000
atom    8   Tr[ns(na)] (up, down, total) =   4.00000  4.00000  8.00000
   spin  1
    eigenvalues: 
  0.800  0.800  0.800  0.800  0.800
    eigenvectors:
  1.000  0.000  0.000  0.000  0.000
  0.000  1.000  0.000  0.000  0.000
  0.000  0.000  1.000  0.000  0.000
  0.000  0.000  0.000  1.000  0.000
  0.000  0.000  0.000  0.000  1.000
    occupations:
  0.800  0.000  0.000  0.000  0.000
  0.000  0.800  0.000  0.000  0.000
  0.000  0.000  0.800  0.000  0.000
  0.000  0.000  0.000  0.800  0.000
  0.000  0.000  0.000  0.000  0.800
   spin  2
    eigenvalues: 
  0.800  0.800  0.800  0.800  0.800
    eigenvectors:
  1.000  0.000  0.000  0.000  0.000
  0.000  1.000  0.000  0.000  0.000
  0.000  0.000  1.000  0.000  0.000
  0.000  0.000  0.000  1.000  0.000
  0.000  0.000  0.000  0.000  1.000
    occupations:
  0.800  0.000  0.000  0.000  0.000
  0.000  0.800  0.000  0.000  0.000
  0.000  0.000  0.800  0.000  0.000
  0.000  0.000  0.000  0.800  0.000
  0.000  0.000  0.000  0.000  0.800
atomic mag. moment =     0.000000
atom    9   Tr[ns(na)] (up, down, total) =   4.00000  4.00000  8.00000
   spin  1
    eigenvalues: 
  0.800  0.800  0.800  0.800  0.800
    eigenvectors:
  1.000  0.000  0.000  0.000  0.000
  0.000  1.000  0.000  0.000  0.000
  0.000  0.000  1.000  0.000  0.000
  0.000  0.000  0.000  1.000  0.000
  0.000  0.000  0.000  0.000  1.000
    occupations:
  0.800  0.000  0.000  0.000  0.000
  0.000  0.800  0.000  0.000  0.000
  0.000  0.000  0.800  0.000  0.000
  0.000  0.000  0.000  0.800  0.000
  0.000  0.000  0.000  0.000  0.800
   spin  2
    eigenvalues: 
  0.800  0.800  0.800  0.800  0.800
    eigenvectors:
  1.000  0.000  0.000  0.000  0.000
  0.000  1.000  0.000  0.000  0.000
  0.000  0.000  1.000  0.000  0.000
  0.000  0.000  0.000  1.000  0.000
  0.000  0.000  0.000  0.000  1.000
    occupations:
  0.800  0.000  0.000  0.000  0.000
  0.000  0.800  0.000  0.000  0.000
  0.000  0.000  0.800  0.000  0.000
  0.000  0.000  0.000  0.800  0.000
  0.000  0.000  0.000  0.000  0.800
atomic mag. moment =     0.000000
atom   10   Tr[ns(na)] (up, down, total) =   4.00000  4.00000  8.00000
   spin  1
    eigenvalues: 
  0.800  0.800  0.800  0.800  0.800
    eigenvectors:
  1.000  0.000  0.000  0.000  0.000
  0.000  1.000  0.000  0.000  0.000
  0.000  0.000  1.000  0.000  0.000
  0.000  0.000  0.000  1.000  0.000
  0.000  0.000  0.000  0.000  1.000
    occupations:
  0.800  0.000  0.000  0.000  0.000
  0.000  0.800  0.000  0.000  0.000
  0.000  0.000  0.800  0.000  0.000
  0.000  0.000  0.000  0.800  0.000
  0.000  0.000  0.000  0.000  0.800
   spin  2
    eigenvalues: 
  0.800  0.800  0.800  0.800  0.800
    eigenvectors:
  1.000  0.000  0.000  0.000  0.000
  0.000  1.000  0.000  0.000  0.000
  0.000  0.000  1.000  0.000  0.000
  0.000  0.000  0.000  1.000  0.000
  0.000  0.000  0.000  0.000  1.000
    occupations:
  0.800  0.000  0.000  0.000  0.000
  0.000  0.800  0.000  0.000  0.000
  0.000  0.000  0.800  0.000  0.000
  0.000  0.000  0.000  0.800  0.000
  0.000  0.000  0.000  0.000  0.800
atomic mag. moment =     0.000000
atom   11   Tr[ns(na)] (up, down, total) =   4.00000  4.00000  8.00000
   spin  1
    eigenvalues: 
  0.800  0.800  0.800  0.800  0.800
    eigenvectors:
  1.000  0.000  0.000  0.000  0.000
  0.000  1.000  0.000  0.000  0.000
  0.000  0.000  1.000  0.000  0.000
  0.000  0.000  0.000  1.000  0.000
  0.000  0.000  0.000  0.000  1.000
    occupations:
  0.800  0.000  0.000  0.000  0.000
  0.000  0.800  0.000  0.000  0.000
  0.000  0.000  0.800  0.000  0.000
  0.000  0.000  0.000  0.800  0.000
  0.000  0.000  0.000  0.000  0.800
   spin  2
    eigenvalues: 
  0.800  0.800  0.800  0.800  0.800
    eigenvectors:
  1.000  0.000  0.000  0.000  0.000
  0.000  1.000  0.000  0.000  0.000
  0.000  0.000  1.000  0.000  0.000
  0.000  0.000  0.000  1.000  0.000
  0.000  0.000  0.000  0.000  1.000
    occupations:
  0.800  0.000  0.000  0.000  0.000
  0.000  0.800  0.000  0.000  0.000
  0.000  0.000  0.800  0.000  0.000
  0.000  0.000  0.000  0.800  0.000
  0.000  0.000  0.000  0.000  0.800
atomic mag. moment =     0.000000
atom   12   Tr[ns(na)] (up, down, total) =   4.00000  4.00000  8.00000
   spin  1
    eigenvalues: 
  0.800  0.800  0.800  0.800  0.800
    eigenvectors:
  1.000  0.000  0.000  0.000  0.000
  0.000  1.000  0.000  0.000  0.000
  0.000  0.000  1.000  0.000  0.000
  0.000  0.000  0.000  1.000  0.000
  0.000  0.000  0.000  0.000  1.000
    occupations:
  0.800  0.000  0.000  0.000  0.000
  0.000  0.800  0.000  0.000  0.000
  0.000  0.000  0.800  0.000  0.000
  0.000  0.000  0.000  0.800  0.000
  0.000  0.000  0.000  0.000  0.800
   spin  2
    eigenvalues: 
  0.800  0.800  0.800  0.800  0.800
    eigenvectors:
  1.000  0.000  0.000  0.000  0.000
  0.000  1.000  0.000  0.000  0.000
  0.000  0.000  1.000  0.000  0.000
  0.000  0.000  0.000  1.000  0.000
  0.000  0.000  0.000  0.000  1.000
    occupations:
  0.800  0.000  0.000  0.000  0.000
  0.000  0.800  0.000  0.000  0.000
  0.000  0.000  0.800  0.000  0.000
  0.000  0.000  0.000  0.800  0.000
  0.000  0.000  0.000  0.000  0.800
atomic mag. moment =     0.000000
atom   13   Tr[ns(na)] (up, down, total) =   4.00000  4.00000  8.00000
   spin  1
    eigenvalues: 
  0.800  0.800  0.800  0.800  0.800
    eigenvectors:
  1.000  0.000  0.000  0.000  0.000
  0.000  1.000  0.000  0.000  0.000
  0.000  0.000  1.000  0.000  0.000
  0.000  0.000  0.000  1.000  0.000
  0.000  0.000  0.000  0.000  1.000
    occupations:
  0.800  0.000  0.000  0.000  0.000
  0.000  0.800  0.000  0.000  0.000
  0.000  0.000  0.800  0.000  0.000
  0.000  0.000  0.000  0.800  0.000
  0.000  0.000  0.000  0.000  0.800
   spin  2
    eigenvalues: 
  0.800  0.800  0.800  0.800  0.800
    eigenvectors:
  1.000  0.000  0.000  0.000  0.000
  0.000  1.000  0.000  0.000  0.000
  0.000  0.000  1.000  0.000  0.000
  0.000  0.000  0.000  1.000  0.000
  0.000  0.000  0.000  0.000  1.000
    occupations:
  0.800  0.000  0.000  0.000  0.000
  0.000  0.800  0.000  0.000  0.000
  0.000  0.000  0.800  0.000  0.000
  0.000  0.000  0.000  0.800  0.000
  0.000  0.000  0.000  0.000  0.800
atomic mag. moment =     0.000000
atom   14   Tr[ns(na)] (up, down, total) =   4.00000  4.00000  8.00000
   spin  1
    eigenvalues: 
  0.800  0.800  0.800  0.800  0.800
    eigenvectors:
  1.000  0.000  0.000  0.000  0.000
  0.000  1.000  0.000  0.000  0.000
  0.000  0.000  1.000  0.000  0.000
  0.000  0.000  0.000  1.000  0.000
  0.000  0.000  0.000  0.000  1.000
    occupations:
  0.800  0.000  0.000  0.000  0.000
  0.000  0.800  0.000  0.000  0.000
  0.000  0.000  0.800  0.000  0.000
  0.000  0.000  0.000  0.800  0.000
  0.000  0.000  0.000  0.000  0.800
   spin  2
    eigenvalues: 
  0.800  0.800  0.800  0.800  0.800
    eigenvectors:
  1.000  0.000  0.000  0.000  0.000
  0.000  1.000  0.000  0.000  0.000
  0.000  0.000  1.000  0.000  0.000
  0.000  0.000  0.000  1.000  0.000
  0.000  0.000  0.000  0.000  1.000
    occupations:
  0.800  0.000  0.000  0.000  0.000
  0.000  0.800  0.000  0.000  0.000
  0.000  0.000  0.800  0.000  0.000
  0.000  0.000  0.000  0.800  0.000
  0.000  0.000  0.000  0.000  0.800
atomic mag. moment =     0.000000
atom   15   Tr[ns(na)] (up, down, total) =   4.00000  4.00000  8.00000
   spin  1
    eigenvalues: 
  0.800  0.800  0.800  0.800  0.800
    eigenvectors:
  1.000  0.000  0.000  0.000  0.000
  0.000  1.000  0.000  0.000  0.000
  0.000  0.000  1.000  0.000  0.000
  0.000  0.000  0.000  1.000  0.000
  0.000  0.000  0.000  0.000  1.000
    occupations:
  0.800  0.000  0.000  0.000  0.000
  0.000  0.800  0.000  0.000  0.000
  0.000  0.000  0.800  0.000  0.000
  0.000  0.000  0.000  0.800  0.000
  0.000  0.000  0.000  0.000  0.800
   spin  2
    eigenvalues: 
  0.800  0.800  0.800  0.800  0.800
    eigenvectors:
  1.000  0.000  0.000  0.000  0.000
  0.000  1.000  0.000  0.000  0.000
  0.000  0.000  1.000  0.000  0.000
  0.000  0.000  0.000  1.000  0.000
  0.000  0.000  0.000  0.000  1.000
    occupations:
  0.800  0.000  0.000  0.000  0.000
  0.000  0.800  0.000  0.000  0.000
  0.000  0.000  0.800  0.000  0.000
  0.000  0.000  0.000  0.800  0.000
  0.000  0.000  0.000  0.000  0.800
atomic mag. moment =     0.000000
atom   16   Tr[ns(na)] (up, down, total) =   4.00000  4.00000  8.00000
   spin  1
    eigenvalues: 
  0.800  0.800  0.800  0.800  0.800
    eigenvectors:
  1.000  0.000  0.000  0.000  0.000
  0.000  1.000  0.000  0.000  0.000
  0.000  0.000  1.000  0.000  0.000
  0.000  0.000  0.000  1.000  0.000
  0.000  0.000  0.000  0.000  1.000
    occupations:
  0.800  0.000  0.000  0.000  0.000
  0.000  0.800  0.000  0.000  0.000
  0.000  0.000  0.800  0.000  0.000
  0.000  0.000  0.000  0.800  0.000
  0.000  0.000  0.000  0.000  0.800
   spin  2
    eigenvalues: 
  0.800  0.800  0.800  0.800  0.800
    eigenvectors:
  1.000  0.000  0.000  0.000  0.000
  0.000  1.000  0.000  0.000  0.000
  0.000  0.000  1.000  0.000  0.000
  0.000  0.000  0.000  1.000  0.000
  0.000  0.000  0.000  0.000  1.000
    occupations:
  0.800  0.000  0.000  0.000  0.000
  0.000  0.800  0.000  0.000  0.000
  0.000  0.000  0.800  0.000  0.000
  0.000  0.000  0.000  0.800  0.000
  0.000  0.000  0.000  0.000  0.800
atomic mag. moment =     0.000000
atom   17   Tr[ns(na)] (up, down, total) =   2.00000  2.00000  4.00000
   spin  1
    eigenvalues: 
  0.667  0.667  0.667
    eigenvectors:
  1.000  0.000  0.000
  0.000  1.000  0.000
  0.000  0.000  1.000
    occupations:
  0.667  0.000  0.000
  0.000  0.667  0.000
  0.000  0.000  0.667
   spin  2
    eigenvalues: 
  0.667  0.667  0.667
    eigenvectors:
  1.000  0.000  0.000
  0.000  1.000  0.000
  0.000  0.000  1.000
    occupations:
  0.667  0.000  0.000
  0.000  0.667  0.000
  0.000  0.000  0.667
atomic mag. moment =     0.000000
atom   18   Tr[ns(na)] (up, down, total) =   2.00000  2.00000  4.00000
   spin  1
    eigenvalues: 
  0.667  0.667  0.667
    eigenvectors:
  1.000  0.000  0.000
  0.000  1.000  0.000
  0.000  0.000  1.000
    occupations:
  0.667  0.000  0.000
  0.000  0.667  0.000
  0.000  0.000  0.667
   spin  2
    eigenvalues: 
  0.667  0.667  0.667
    eigenvectors:
  1.000  0.000  0.000
  0.000  1.000  0.000
  0.000  0.000  1.000
    occupations:
  0.667  0.000  0.000
  0.000  0.667  0.000
  0.000  0.000  0.667
atomic mag. moment =     0.000000
atom   19   Tr[ns(na)] (up, down, total) =   2.00000  2.00000  4.00000
   spin  1
    eigenvalues: 
  0.667  0.667  0.667
    eigenvectors:
  1.000  0.000  0.000
  0.000  1.000  0.000
  0.000  0.000  1.000
    occupations:
  0.667  0.000  0.000
  0.000  0.667  0.000
  0.000  0.000  0.667
   spin  2
    eigenvalues: 
  0.667  0.667  0.667
    eigenvectors:
  1.000  0.000  0.000
  0.000  1.000  0.000
  0.000  0.000  1.000
    occupations:
  0.667  0.000  0.000
  0.000  0.667  0.000
  0.000  0.000  0.667
atomic mag. moment =     0.000000
atom   20   Tr[ns(na)] (up, down, total) =   2.00000  2.00000  4.00000
   spin  1
    eigenvalues: 
  0.667  0.667  0.667
    eigenvectors:
  1.000  0.000  0.000
  0.000  1.000  0.000
  0.000  0.000  1.000
    occupations:
  0.667  0.000  0.000
  0.000  0.667  0.000
  0.000  0.000  0.667
   spin  2
    eigenvalues: 
  0.667  0.667  0.667
    eigenvectors:
  1.000  0.000  0.000
  0.000  1.000  0.000
  0.000  0.000  1.000
    occupations:
  0.667  0.000  0.000
  0.000  0.667  0.000
  0.000  0.000  0.667
atomic mag. moment =     0.000000
atom   21   Tr[ns(na)] (up, down, total) =   2.00000  2.00000  4.00000
   spin  1
    eigenvalues: 
  0.667  0.667  0.667
    eigenvectors:
  1.000  0.000  0.000
  0.000  1.000  0.000
  0.000  0.000  1.000
    occupations:
  0.667  0.000  0.000
  0.000  0.667  0.000
  0.000  0.000  0.667
   spin  2
    eigenvalues: 
  0.667  0.667  0.667
    eigenvectors:
  1.000  0.000  0.000
  0.000  1.000  0.000
  0.000  0.000  1.000
    occupations:
  0.667  0.000  0.000
  0.000  0.667  0.000
  0.000  0.000  0.667
atomic mag. moment =     0.000000
atom   22   Tr[ns(na)] (up, down, total) =   2.00000  2.00000  4.00000
   spin  1
    eigenvalues: 
  0.667  0.667  0.667
    eigenvectors:
  1.000  0.000  0.000
  0.000  1.000  0.000
  0.000  0.000  1.000
    occupations:
  0.667  0.000  0.000
  0.000  0.667  0.000
  0.000  0.000  0.667
   spin  2
    eigenvalues: 
  0.667  0.667  0.667
    eigenvectors:
  1.000  0.000  0.000
  0.000  1.000  0.000
  0.000  0.000  1.000
    occupations:
  0.667  0.000  0.000
  0.000  0.667  0.000
  0.000  0.000  0.667
atomic mag. moment =     0.000000
atom   23   Tr[ns(na)] (up, down, total) =   2.00000  2.00000  4.00000
   spin  1
    eigenvalues: 
  0.667  0.667  0.667
    eigenvectors:
  1.000  0.000  0.000
  0.000  1.000  0.000
  0.000  0.000  1.000
    occupations:
  0.667  0.000  0.000
  0.000  0.667  0.000
  0.000  0.000  0.667
   spin  2
    eigenvalues: 
  0.667  0.667  0.667
    eigenvectors:
  1.000  0.000  0.000
  0.000  1.000  0.000
  0.000  0.000  1.000
    occupations:
  0.667  0.000  0.000
  0.000  0.667  0.000
  0.000  0.000  0.667
atomic mag. moment =     0.000000
atom   24   Tr[ns(na)] (up, down, total) =   2.00000  2.00000  4.00000
   spin  1
    eigenvalues: 
  0.667  0.667  0.667
    eigenvectors:
  1.000  0.000  0.000
  0.000  1.000  0.000
  0.000  0.000  1.000
    occupations:
  0.667  0.000  0.000
  0.000  0.667  0.000
  0.000  0.000  0.667
   spin  2
    eigenvalues: 
  0.667  0.667  0.667
    eigenvectors:
  1.000  0.000  0.000
  0.000  1.000  0.000
  0.000  0.000  1.000
    occupations:
  0.667  0.000  0.000
  0.000  0.667  0.000
  0.000  0.000  0.667
atomic mag. moment =     0.000000
atom   25   Tr[ns(na)] (up, down, total) =   2.00000  2.00000  4.00000
   spin  1
    eigenvalues: 
  0.667  0.667  0.667
    eigenvectors:
  1.000  0.000  0.000
  0.000  1.000  0.000
  0.000  0.000  1.000
    occupations:
  0.667  0.000  0.000
  0.000  0.667  0.000
  0.000  0.000  0.667
   spin  2
    eigenvalues: 
  0.667  0.667  0.667
    eigenvectors:
  1.000  0.000  0.000
  0.000  1.000  0.000
  0.000  0.000  1.000
    occupations:
  0.667  0.000  0.000
  0.000  0.667  0.000
  0.000  0.000  0.667
atomic mag. moment =     0.000000
atom   26   Tr[ns(na)] (up, down, total) =   2.00000  2.00000  4.00000
   spin  1
    eigenvalues: 
  0.667  0.667  0.667
    eigenvectors:
  1.000  0.000  0.000
  0.000  1.000  0.000
  0.000  0.000  1.000
    occupations:
  0.667  0.000  0.000
  0.000  0.667  0.000
  0.000  0.000  0.667
   spin  2
    eigenvalues: 
  0.667  0.667  0.667
    eigenvectors:
  1.000  0.000  0.000
  0.000  1.000  0.000
  0.000  0.000  1.000
    occupations:
  0.667  0.000  0.000
  0.000  0.667  0.000
  0.000  0.000  0.667
atomic mag. moment =     0.000000
atom   27   Tr[ns(na)] (up, down, total) =   2.00000  2.00000  4.00000
   spin  1
    eigenvalues: 
  0.667  0.667  0.667
    eigenvectors:
  1.000  0.000  0.000
  0.000  1.000  0.000
  0.000  0.000  1.000
    occupations:
  0.667  0.000  0.000
  0.000  0.667  0.000
  0.000  0.000  0.667
   spin  2
    eigenvalues: 
  0.667  0.667  0.667
    eigenvectors:
  1.000  0.000  0.000
  0.000  1.000  0.000
  0.000  0.000  1.000
    occupations:
  0.667  0.000  0.000
  0.000  0.667  0.000
  0.000  0.000  0.667
atomic mag. moment =     0.000000
atom   28   Tr[ns(na)] (up, down, total) =   2.00000  2.00000  4.00000
   spin  1
    eigenvalues: 
  0.667  0.667  0.667
    eigenvectors:
  1.000  0.000  0.000
  0.000  1.000  0.000
  0.000  0.000  1.000
    occupations:
  0.667  0.000  0.000
  0.000  0.667  0.000
  0.000  0.000  0.667
   spin  2
    eigenvalues: 
  0.667  0.667  0.667
    eigenvectors:
  1.000  0.000  0.000
  0.000  1.000  0.000
  0.000  0.000  1.000
    occupations:
  0.667  0.000  0.000
  0.000  0.667  0.000
  0.000  0.000  0.667
atomic mag. moment =     0.000000
atom   29   Tr[ns(na)] (up, down, total) =   2.00000  2.00000  4.00000
   spin  1
    eigenvalues: 
  0.667  0.667  0.667
    eigenvectors:
  1.000  0.000  0.000
  0.000  1.000  0.000
  0.000  0.000  1.000
    occupations:
  0.667  0.000  0.000
  0.000  0.667  0.000
  0.000  0.000  0.667
   spin  2
    eigenvalues: 
  0.667  0.667  0.667
    eigenvectors:
  1.000  0.000  0.000
  0.000  1.000  0.000
  0.000  0.000  1.000
    occupations:
  0.667  0.000  0.000
  0.000  0.667  0.000
  0.000  0.000  0.667
atomic mag. moment =     0.000000
atom   30   Tr[ns(na)] (up, down, total) =   2.00000  2.00000  4.00000
   spin  1
    eigenvalues: 
  0.667  0.667  0.667
    eigenvectors:
  1.000  0.000  0.000
  0.000  1.000  0.000
  0.000  0.000  1.000
    occupations:
  0.667  0.000  0.000
  0.000  0.667  0.000
  0.000  0.000  0.667
   spin  2
    eigenvalues: 
  0.667  0.667  0.667
    eigenvectors:
  1.000  0.000  0.000
  0.000  1.000  0.000
  0.000  0.000  1.000
    occupations:
  0.667  0.000  0.000
  0.000  0.667  0.000
  0.000  0.000  0.667
atomic mag. moment =     0.000000
atom   31   Tr[ns(na)] (up, down, total) =   2.00000  2.00000  4.00000
   spin  1
    eigenvalues: 
  0.667  0.667  0.667
    eigenvectors:
  1.000  0.000  0.000
  0.000  1.000  0.000
  0.000  0.000  1.000
    occupations:
  0.667  0.000  0.000
  0.000  0.667  0.000
  0.000  0.000  0.667
   spin  2
    eigenvalues: 
  0.667  0.667  0.667
    eigenvectors:
  1.000  0.000  0.000
  0.000  1.000  0.000
  0.000  0.000  1.000
    occupations:
  0.667  0.000  0.000
  0.000  0.667  0.000
  0.000  0.000  0.667
atomic mag. moment =     0.000000
atom   32   Tr[ns(na)] (up, down, total) =   2.00000  2.00000  4.00000
   spin  1
    eigenvalues: 
  0.667  0.667  0.667
    eigenvectors:
  1.000  0.000  0.000
  0.000  1.000  0.000
  0.000  0.000  1.000
    occupations:
  0.667  0.000  0.000
  0.000  0.667  0.000
  0.000  0.000  0.667
   spin  2
    eigenvalues: 
  0.667  0.667  0.667
    eigenvectors:
  1.000  0.000  0.000
  0.000  1.000  0.000
  0.000  0.000  1.000
    occupations:
  0.667  0.000  0.000
  0.000  0.667  0.000
  0.000  0.000  0.667
atomic mag. moment =     0.000000
atom   33   Tr[ns(na)] (up, down, total) =   2.00000  2.00000  4.00000
   spin  1
    eigenvalues: 
  0.667  0.667  0.667
    eigenvectors:
  1.000  0.000  0.000
  0.000  1.000  0.000
  0.000  0.000  1.000
    occupations:
  0.667  0.000  0.000
  0.000  0.667  0.000
  0.000  0.000  0.667
   spin  2
    eigenvalues: 
  0.667  0.667  0.667
    eigenvectors:
  1.000  0.000  0.000
  0.000  1.000  0.000
  0.000  0.000  1.000
    occupations:
  0.667  0.000  0.000
  0.000  0.667  0.000
  0.000  0.000  0.667
atomic mag. moment =     0.000000
atom   34   Tr[ns(na)] (up, down, total) =   2.00000  2.00000  4.00000
   spin  1
    eigenvalues: 
  0.667  0.667  0.667
    eigenvectors:
  1.000  0.000  0.000
  0.000  1.000  0.000
  0.000  0.000  1.000
    occupations:
  0.667  0.000  0.000
  0.000  0.667  0.000
  0.000  0.000  0.667
   spin  2
    eigenvalues: 
  0.667  0.667  0.667
    eigenvectors:
  1.000  0.000  0.000
  0.000  1.000  0.000
  0.000  0.000  1.000
    occupations:
  0.667  0.000  0.000
  0.000  0.667  0.000
  0.000  0.000  0.667
atomic mag. moment =     0.000000
atom   35   Tr[ns(na)] (up, down, total) =   2.00000  2.00000  4.00000
   spin  1
    eigenvalues: 
  0.667  0.667  0.667
    eigenvectors:
  1.000  0.000  0.000
  0.000  1.000  0.000
  0.000  0.000  1.000
    occupations:
  0.667  0.000  0.000
  0.000  0.667  0.000
  0.000  0.000  0.667
   spin  2
    eigenvalues: 
  0.667  0.667  0.667
    eigenvectors:
  1.000  0.000  0.000
  0.000  1.000  0.000
  0.000  0.000  1.000
    occupations:
  0.667  0.000  0.000
  0.000  0.667  0.000
  0.000  0.000  0.667
atomic mag. moment =     0.000000
atom   36   Tr[ns(na)] (up, down, total) =   2.00000  2.00000  4.00000
   spin  1
    eigenvalues: 
  0.667  0.667  0.667
    eigenvectors:
  1.000  0.000  0.000
  0.000  1.000  0.000
  0.000  0.000  1.000
    occupations:
  0.667  0.000  0.000
  0.000  0.667  0.000
  0.000  0.000  0.667
   spin  2
    eigenvalues: 
  0.667  0.667  0.667
    eigenvectors:
  1.000  0.000  0.000
  0.000  1.000  0.000
  0.000  0.000  1.000
    occupations:
  0.667  0.000  0.000
  0.000  0.667  0.000
  0.000  0.000  0.667
atomic mag. moment =     0.000000
atom   37   Tr[ns(na)] (up, down, total) =   2.00000  2.00000  4.00000
   spin  1
    eigenvalues: 
  0.667  0.667  0.667
    eigenvectors:
  1.000  0.000  0.000
  0.000  1.000  0.000
  0.000  0.000  1.000
    occupations:
  0.667  0.000  0.000
  0.000  0.667  0.000
  0.000  0.000  0.667
   spin  2
    eigenvalues: 
  0.667  0.667  0.667
    eigenvectors:
  1.000  0.000  0.000
  0.000  1.000  0.000
  0.000  0.000  1.000
    occupations:
  0.667  0.000  0.000
  0.000  0.667  0.000
  0.000  0.000  0.667
atomic mag. moment =     0.000000
atom   38   Tr[ns(na)] (up, down, total) =   2.00000  2.00000  4.00000
   spin  1
    eigenvalues: 
  0.667  0.667  0.667
    eigenvectors:
  1.000  0.000  0.000
  0.000  1.000  0.000
  0.000  0.000  1.000
    occupations:
  0.667  0.000  0.000
  0.000  0.667  0.000
  0.000  0.000  0.667
   spin  2
    eigenvalues: 
  0.667  0.667  0.667
    eigenvectors:
  1.000  0.000  0.000
  0.000  1.000  0.000
  0.000  0.000  1.000
    occupations:
  0.667  0.000  0.000
  0.000  0.667  0.000
  0.000  0.000  0.667
atomic mag. moment =     0.000000
atom   39   Tr[ns(na)] (up, down, total) =   2.00000  2.00000  4.00000
   spin  1
    eigenvalues: 
  0.667  0.667  0.667
    eigenvectors:
  1.000  0.000  0.000
  0.000  1.000  0.000
  0.000  0.000  1.000
    occupations:
  0.667  0.000  0.000
  0.000  0.667  0.000
  0.000  0.000  0.667
   spin  2
    eigenvalues: 
  0.667  0.667  0.667
    eigenvectors:
  1.000  0.000  0.000
  0.000  1.000  0.000
  0.000  0.000  1.000
    occupations:
  0.667  0.000  0.000
  0.000  0.667  0.000
  0.000  0.000  0.667
atomic mag. moment =     0.000000
atom   40   Tr[ns(na)] (up, down, total) =   2.00000  2.00000  4.00000
   spin  1
    eigenvalues: 
  0.667  0.667  0.667
    eigenvectors:
  1.000  0.000  0.000
  0.000  1.000  0.000
  0.000  0.000  1.000
    occupations:
  0.667  0.000  0.000
  0.000  0.667  0.000
  0.000  0.000  0.667
   spin  2
    eigenvalues: 
  0.667  0.667  0.667
    eigenvectors:
  1.000  0.000  0.000
  0.000  1.000  0.000
  0.000  0.000  1.000
    occupations:
  0.667  0.000  0.000
  0.000  0.667  0.000
  0.000  0.000  0.667
atomic mag. moment =     0.000000
atom   41   Tr[ns(na)] (up, down, total) =   2.00000  2.00000  4.00000
   spin  1
    eigenvalues: 
  0.667  0.667  0.667
    eigenvectors:
  1.000  0.000  0.000
  0.000  1.000  0.000
  0.000  0.000  1.000
    occupations:
  0.667  0.000  0.000
  0.000  0.667  0.000
  0.000  0.000  0.667
   spin  2
    eigenvalues: 
  0.667  0.667  0.667
    eigenvectors:
  1.000  0.000  0.000
  0.000  1.000  0.000
  0.000  0.000  1.000
    occupations:
  0.667  0.000  0.000
  0.000  0.667  0.000
  0.000  0.000  0.667
atomic mag. moment =     0.000000
atom   42   Tr[ns(na)] (up, down, total) =   2.00000  2.00000  4.00000
   spin  1
    eigenvalues: 
  0.667  0.667  0.667
    eigenvectors:
  1.000  0.000  0.000
  0.000  1.000  0.000
  0.000  0.000  1.000
    occupations:
  0.667  0.000  0.000
  0.000  0.667  0.000
  0.000  0.000  0.667
   spin  2
    eigenvalues: 
  0.667  0.667  0.667
    eigenvectors:
  1.000  0.000  0.000
  0.000  1.000  0.000
  0.000  0.000  1.000
    occupations:
  0.667  0.000  0.000
  0.000  0.667  0.000
  0.000  0.000  0.667
atomic mag. moment =     0.000000
atom   43   Tr[ns(na)] (up, down, total) =   2.00000  2.00000  4.00000
   spin  1
    eigenvalues: 
  0.667  0.667  0.667
    eigenvectors:
  1.000  0.000  0.000
  0.000  1.000  0.000
  0.000  0.000  1.000
    occupations:
  0.667  0.000  0.000
  0.000  0.667  0.000
  0.000  0.000  0.667
   spin  2
    eigenvalues: 
  0.667  0.667  0.667
    eigenvectors:
  1.000  0.000  0.000
  0.000  1.000  0.000
  0.000  0.000  1.000
    occupations:
  0.667  0.000  0.000
  0.000  0.667  0.000
  0.000  0.000  0.667
atomic mag. moment =     0.000000
atom   44   Tr[ns(na)] (up, down, total) =   2.00000  2.00000  4.00000
   spin  1
    eigenvalues: 
  0.667  0.667  0.667
    eigenvectors:
  1.000  0.000  0.000
  0.000  1.000  0.000
  0.000  0.000  1.000
    occupations:
  0.667  0.000  0.000
  0.000  0.667  0.000
  0.000  0.000  0.667
   spin  2
    eigenvalues: 
  0.667  0.667  0.667
    eigenvectors:
  1.000  0.000  0.000
  0.000  1.000  0.000
  0.000  0.000  1.000
    occupations:
  0.667  0.000  0.000
  0.000  0.667  0.000
  0.000  0.000  0.667
atomic mag. moment =     0.000000
atom   45   Tr[ns(na)] (up, down, total) =   2.00000  2.00000  4.00000
   spin  1
    eigenvalues: 
  0.667  0.667  0.667
    eigenvectors:
  1.000  0.000  0.000
  0.000  1.000  0.000
  0.000  0.000  1.000
    occupations:
  0.667  0.000  0.000
  0.000  0.667  0.000
  0.000  0.000  0.667
   spin  2
    eigenvalues: 
  0.667  0.667  0.667
    eigenvectors:
  1.000  0.000  0.000
  0.000  1.000  0.000
  0.000  0.000  1.000
    occupations:
  0.667  0.000  0.000
  0.000  0.667  0.000
  0.000  0.000  0.667
atomic mag. moment =     0.000000
atom   46   Tr[ns(na)] (up, down, total) =   2.00000  2.00000  4.00000
   spin  1
    eigenvalues: 
  0.667  0.667  0.667
    eigenvectors:
  1.000  0.000  0.000
  0.000  1.000  0.000
  0.000  0.000  1.000
    occupations:
  0.667  0.000  0.000
  0.000  0.667  0.000
  0.000  0.000  0.667
   spin  2
    eigenvalues: 
  0.667  0.667  0.667
    eigenvectors:
  1.000  0.000  0.000
  0.000  1.000  0.000
  0.000  0.000  1.000
    occupations:
  0.667  0.000  0.000
  0.000  0.667  0.000
  0.000  0.000  0.667
atomic mag. moment =     0.000000
atom   47   Tr[ns(na)] (up, down, total) =   2.00000  2.00000  4.00000
   spin  1
    eigenvalues: 
  0.667  0.667  0.667
    eigenvectors:
  1.000  0.000  0.000
  0.000  1.000  0.000
  0.000  0.000  1.000
    occupations:
  0.667  0.000  0.000
  0.000  0.667  0.000
  0.000  0.000  0.667
   spin  2
    eigenvalues: 
  0.667  0.667  0.667
    eigenvectors:
  1.000  0.000  0.000
  0.000  1.000  0.000
  0.000  0.000  1.000
    occupations:
  0.667  0.000  0.000
  0.000  0.667  0.000
  0.000  0.000  0.667
atomic mag. moment =     0.000000
atom   48   Tr[ns(na)] (up, down, total) =   2.00000  2.00000  4.00000
   spin  1
    eigenvalues: 
  0.667  0.667  0.667
    eigenvectors:
  1.000  0.000  0.000
  0.000  1.000  0.000
  0.000  0.000  1.000
    occupations:
  0.667  0.000  0.000
  0.000  0.667  0.000
  0.000  0.000  0.667
   spin  2
    eigenvalues: 
  0.667  0.667  0.667
    eigenvectors:
  1.000  0.000  0.000
  0.000  1.000  0.000
  0.000  0.000  1.000
    occupations:
  0.667  0.000  0.000
  0.000  0.667  0.000
  0.000  0.000  0.667
atomic mag. moment =     0.000000
N of occupied +U levels = 256.0000000
 --- exit write_ns ---
 Atomic wfc used for LDA+U Projector are NOT orthogonalized
     Starting wfc are  320 randomized atomic wfcs

     total cpu time spent up to now is      514.9 secs

     per-process dynamical memory:   105.6 Mb

     Self-consistent Calculation

     iteration #  1     ecut=    40.00 Ry     beta=0.70
     Davidson diagonalization with overlap
     ethr =  1.00E-02,  avg # of iterations =  6.8
 --- enter write_ns ---
 LDA+U parameters:
U( 1)     =  0.00000000
alpha( 1) =  0.00000000
U( 2)     =  0.00000000
alpha( 2) =  0.00000000
U( 3)     =  0.00000000
alpha( 3) =  0.00000000
atom    1   Tr[ns(na)] (up, down, total) =   3.78780  3.78780  7.57560
   spin  1
    eigenvalues: 
  0.421  0.447  0.961  0.968  0.991
    eigenvectors:
  0.000  0.360  0.640  0.000  0.000
  0.500  0.000  0.000  0.500  0.000
  0.500  0.000  0.000  0.500  0.000
  0.000  0.000  0.000  0.000  1.000
  0.000  0.640  0.360  0.000  0.000
    occupations:
  0.776 -0.000 -0.000 -0.000  0.246
 -0.000  0.694  0.274  0.000  0.000
 -0.000  0.274  0.694  0.000  0.000
 -0.000  0.000  0.000  0.991 -0.000
  0.246  0.000  0.000 -0.000  0.632
   spin  2
    eigenvalues: 
  0.421  0.447  0.961  0.968  0.991
    eigenvectors:
  0.000  0.360  0.640  0.000  0.000
  0.500  0.000  0.000  0.500  0.000
  0.500  0.000  0.000  0.500  0.000
  0.000  0.000  0.000  0.000  1.000
  0.000  0.640  0.360  0.000  0.000
    occupations:
  0.776 -0.000 -0.000 -0.000  0.246
 -0.000  0.694  0.274  0.000  0.000
 -0.000  0.274  0.694  0.000  0.000
 -0.000  0.000  0.000  0.991 -0.000
  0.246  0.000  0.000 -0.000  0.632
atomic mag. moment =     0.000000
atom    2   Tr[ns(na)] (up, down, total) =   3.78780  3.78780  7.57560
   spin  1
    eigenvalues: 
  0.421  0.447  0.961  0.968  0.991
    eigenvectors:
  0.000  0.360  0.640  0.000  0.000
  0.500  0.000  0.000  0.500  0.000
  0.500  0.000  0.000  0.500  0.000
  0.000  0.000  0.000  0.000  1.000
  0.000  0.640  0.360  0.000  0.000
    occupations:
  0.776  0.000  0.000  0.000 -0.246
  0.000  0.694 -0.274 -0.000 -0.000
  0.000 -0.274  0.694  0.000 -0.000
  0.000 -0.000  0.000  0.991 -0.000
 -0.246 -0.000 -0.000 -0.000  0.632
   spin  2
    eigenvalues: 
  0.421  0.447  0.961  0.968  0.991
    eigenvectors:
  0.000  0.360  0.640  0.000  0.000
  0.500  0.000  0.000  0.500  0.000
  0.500  0.000  0.000  0.500  0.000
  0.000  0.000  0.000  0.000  1.000
  0.000  0.640  0.360  0.000  0.000
    occupations:
  0.776  0.000  0.000  0.000 -0.246
  0.000  0.694 -0.274 -0.000  0.000
  0.000 -0.274  0.694  0.000  0.000
  0.000 -0.000  0.000  0.991 -0.000
 -0.246  0.000  0.000 -0.000  0.632
atomic mag. moment =     0.000000
atom    3   Tr[ns(na)] (up, down, total) =   3.78780  3.78780  7.57560
   spin  1
    eigenvalues: 
  0.421  0.447  0.961  0.968  0.991
    eigenvectors:
  0.000  0.360  0.640  0.000  0.000
  0.500  0.000  0.000  0.500  0.000
  0.500  0.000  0.000  0.500  0.000
  0.000  0.000  0.000  0.000  1.000
  0.000  0.640  0.360  0.000  0.000
    occupations:
  0.776 -0.000 -0.000 -0.000  0.246
 -0.000  0.694  0.274  0.000  0.000
 -0.000  0.274  0.694  0.000  0.000
 -0.000  0.000  0.000  0.991 -0.000
  0.246  0.000  0.000 -0.000  0.632
   spin  2
    eigenvalues: 
  0.421  0.447  0.961  0.968  0.991
    eigenvectors:
  0.000  0.360  0.640  0.000  0.000
  0.500  0.000  0.000  0.500  0.000
  0.500  0.000  0.000  0.500  0.000
  0.000  0.000  0.000  0.000  1.000
  0.000  0.640  0.360  0.000  0.000
    occupations:
  0.776 -0.000 -0.000 -0.000  0.246
 -0.000  0.694  0.274  0.000  0.000
 -0.000  0.274  0.694  0.000  0.000
 -0.000  0.000  0.000  0.991 -0.000
  0.246  0.000  0.000 -0.000  0.632
atomic mag. moment =    -0.000000
atom    4   Tr[ns(na)] (up, down, total) =   3.78780  3.78780  7.57560
   spin  1
    eigenvalues: 
  0.421  0.447  0.961  0.968  0.991
    eigenvectors:
  0.000  0.360  0.640  0.000  0.000
  0.500  0.000  0.000  0.500  0.000
  0.500  0.000  0.000  0.500  0.000
  0.000  0.000  0.000  0.000  1.000
  0.000  0.640  0.360  0.000  0.000
    occupations:
  0.776 -0.000 -0.000  0.000 -0.246
 -0.000  0.694 -0.274  0.000  0.000
 -0.000 -0.274  0.694 -0.000  0.000
  0.000  0.000 -0.000  0.991 -0.000
 -0.246  0.000  0.000 -0.000  0.632
   spin  2
    eigenvalues: 
  0.421  0.447  0.961  0.968  0.991
    eigenvectors:
  0.000  0.360  0.640  0.000  0.000
  0.500  0.000  0.000  0.500  0.000
  0.500  0.000  0.000  0.500  0.000
  0.000  0.000  0.000  0.000  1.000
  0.000  0.640  0.360  0.000  0.000
    occupations:
  0.776 -0.000 -0.000  0.000 -0.246
 -0.000  0.694 -0.274  0.000 -0.000
 -0.000 -0.274  0.694 -0.000 -0.000
  0.000  0.000 -0.000  0.991 -0.000
 -0.246 -0.000 -0.000 -0.000  0.632
atomic mag. moment =     0.000000
atom    5   Tr[ns(na)] (up, down, total) =   3.78780  3.78780  7.57560
   spin  1
    eigenvalues: 
  0.421  0.447  0.961  0.968  0.991
    eigenvectors:
  0.000  0.360  0.640  0.000  0.000
  0.500  0.000  0.000  0.500  0.000
  0.500  0.000  0.000  0.500  0.000
  0.000  0.000  0.000  0.000  1.000
  0.000  0.640  0.360  0.000  0.000
    occupations:
  0.776 -0.000 -0.000 -0.000  0.246
 -0.000  0.694  0.274  0.000  0.000
 -0.000  0.274  0.694  0.000  0.000
 -0.000  0.000  0.000  0.991  0.000
  0.246  0.000  0.000  0.000  0.632
   spin  2
    eigenvalues: 
  0.421  0.447  0.961  0.968  0.991
    eigenvectors:
  0.000  0.360  0.640  0.000  0.000
  0.500  0.000  0.000  0.500  0.000
  0.500  0.000  0.000  0.500  0.000
  0.000  0.000  0.000  0.000  1.000
  0.000  0.640  0.360  0.000  0.000
    occupations:
  0.776 -0.000 -0.000  0.000  0.246
 -0.000  0.694  0.274  0.000  0.000
 -0.000  0.274  0.694  0.000  0.000
  0.000  0.000  0.000  0.991 -0.000
  0.246  0.000  0.000 -0.000  0.632
atomic mag. moment =     0.000000
atom    6   Tr[ns(na)] (up, down, total) =   3.78780  3.78780  7.57560
   spin  1
    eigenvalues: 
  0.421  0.447  0.961  0.968  0.991
    eigenvectors:
  0.000  0.360  0.640  0.000  0.000
  0.500  0.000  0.000  0.500  0.000
  0.500  0.000  0.000  0.500  0.000
  0.000  0.000  0.000  0.000  1.000
  0.000  0.640  0.360  0.000  0.000
    occupations:
  0.776 -0.000 -0.000 -0.000 -0.246
 -0.000  0.694 -0.274  0.000 -0.000
 -0.000 -0.274  0.694  0.000 -0.000
 -0.000  0.000  0.000  0.991 -0.000
 -0.246 -0.000 -0.000 -0.000  0.632
   spin  2
    eigenvalues: 
  0.421  0.447  0.961  0.968  0.991
    eigenvectors:
  0.000  0.360  0.640  0.000  0.000
  0.500  0.000  0.000  0.500  0.000
  0.500  0.000  0.000  0.500  0.000
  0.000  0.000  0.000  0.000  1.000
  0.000  0.640  0.360  0.000  0.000
    occupations:
  0.776 -0.000  0.000 -0.000 -0.246
 -0.000  0.694 -0.274 -0.000 -0.000
  0.000 -0.274  0.694 -0.000  0.000
 -0.000 -0.000 -0.000  0.991 -0.000
 -0.246 -0.000  0.000 -0.000  0.632
atomic mag. moment =    -0.000000
atom    7   Tr[ns(na)] (up, down, total) =   3.78780  3.78780  7.57560
   spin  1
    eigenvalues: 
  0.421  0.447  0.961  0.968  0.991
    eigenvectors:
  0.000  0.360  0.640  0.000  0.000
  0.500  0.000  0.000  0.500  0.000
  0.500  0.000  0.000  0.500  0.000
  0.000  0.000  0.000  0.000  1.000
  0.000  0.640  0.360  0.000  0.000
    occupations:
  0.776 -0.000 -0.000 -0.000  0.246
 -0.000  0.694  0.274  0.000  0.000
 -0.000  0.274  0.694  0.000  0.000
 -0.000  0.000  0.000  0.991  0.000
  0.246  0.000  0.000  0.000  0.632
   spin  2
    eigenvalues: 
  0.421  0.447  0.961  0.968  0.991
    eigenvectors:
  0.000  0.360  0.640  0.000  0.000
  0.500  0.000  0.000  0.500  0.000
  0.500  0.000  0.000  0.500  0.000
  0.000  0.000  0.000  0.000  1.000
  0.000  0.640  0.360  0.000  0.000
    occupations:
  0.776 -0.000 -0.000 -0.000  0.246
 -0.000  0.694  0.274  0.000  0.000
 -0.000  0.274  0.694  0.000  0.000
 -0.000  0.000  0.000  0.991 -0.000
  0.246  0.000  0.000 -0.000  0.632
atomic mag. moment =     0.000000
atom    8   Tr[ns(na)] (up, down, total) =   3.78780  3.78780  7.57560
   spin  1
    eigenvalues: 
  0.421  0.447  0.961  0.968  0.991
    eigenvectors:
  0.000  0.360  0.640  0.000  0.000
  0.500  0.000  0.000  0.500  0.000
  0.500  0.000  0.000  0.500  0.000
  0.000  0.000  0.000  0.000  1.000
  0.000  0.640  0.360  0.000  0.000
    occupations:
  0.776  0.000  0.000 -0.000 -0.246
  0.000  0.694 -0.274 -0.000  0.000
  0.000 -0.274  0.694 -0.000  0.000
 -0.000 -0.000 -0.000  0.991 -0.000
 -0.246  0.000  0.000 -0.000  0.632
   spin  2
    eigenvalues: 
  0.421  0.447  0.961  0.968  0.991
    eigenvectors:
  0.000  0.360  0.640  0.000  0.000
  0.500  0.000  0.000  0.500  0.000
  0.500  0.000  0.000  0.500  0.000
  0.000  0.000  0.000  0.000  1.000
  0.000  0.640  0.360  0.000  0.000
    occupations:
  0.776  0.000 -0.000 -0.000 -0.246
  0.000  0.694 -0.274  0.000  0.000
 -0.000 -0.274  0.694  0.000 -0.000
 -0.000  0.000  0.000  0.991 -0.000
 -0.246  0.000 -0.000 -0.000  0.632
atomic mag. moment =    -0.000000
atom    9   Tr[ns(na)] (up, down, total) =   3.78780  3.78780  7.57560
   spin  1
    eigenvalues: 
  0.421  0.447  0.961  0.968  0.991
    eigenvectors:
  0.000  0.360  0.640  0.000  0.000
  0.500  0.000  0.000  0.500  0.000
  0.500  0.000  0.000  0.500  0.000
  0.000  0.000  0.000  0.000  1.000
  0.000  0.640  0.360  0.000  0.000
    occupations:
  0.776 -0.000 -0.000  0.000  0.246
 -0.000  0.694  0.274  0.000  0.000
 -0.000  0.274  0.694  0.000  0.000
  0.000  0.000  0.000  0.991 -0.000
  0.246  0.000  0.000 -0.000  0.632
   spin  2
    eigenvalues: 
  0.421  0.447  0.961  0.968  0.991
    eigenvectors:
  0.000  0.360  0.640  0.000  0.000
  0.500  0.000  0.000  0.500  0.000
  0.500  0.000  0.000  0.500  0.000
  0.000  0.000  0.000  0.000  1.000
  0.000  0.640  0.360  0.000  0.000
    occupations:
  0.776 -0.000 -0.000 -0.000  0.246
 -0.000  0.694  0.274  0.000  0.000
 -0.000  0.274  0.694  0.000  0.000
 -0.000  0.000  0.000  0.991  0.000
  0.246  0.000  0.000  0.000  0.632
atomic mag. moment =     0.000000
atom   10   Tr[ns(na)] (up, down, total) =   3.78780  3.78780  7.57560
   spin  1
    eigenvalues: 
  0.421  0.447  0.961  0.968  0.991
    eigenvectors:
  0.000  0.360  0.640  0.000  0.000
  0.500  0.000  0.000  0.500  0.000
  0.500  0.000  0.000  0.500  0.000
  0.000  0.000  0.000  0.000  1.000
  0.000  0.640  0.360  0.000  0.000
    occupations:
  0.776 -0.000 -0.000  0.000 -0.246
 -0.000  0.694 -0.274 -0.000 -0.000
 -0.000 -0.274  0.694 -0.000 -0.000
  0.000 -0.000 -0.000  0.991  0.000
 -0.246 -0.000 -0.000  0.000  0.632
   spin  2
    eigenvalues: 
  0.421  0.447  0.961  0.968  0.991
    eigenvectors:
  0.000  0.360  0.640  0.000  0.000
  0.500  0.000  0.000  0.500  0.000
  0.500  0.000  0.000  0.500  0.000
  0.000  0.000  0.000  0.000  1.000
  0.000  0.640  0.360  0.000  0.000
    occupations:
  0.776  0.000 -0.000  0.000 -0.246
  0.000  0.694 -0.274  0.000  0.000
 -0.000 -0.274  0.694  0.000 -0.000
  0.000  0.000  0.000  0.991  0.000
 -0.246  0.000 -0.000  0.000  0.632
atomic mag. moment =    -0.000000
atom   11   Tr[ns(na)] (up, down, total) =   3.78780  3.78780  7.57560
   spin  1
    eigenvalues: 
  0.421  0.447  0.961  0.968  0.991
    eigenvectors:
  0.000  0.360  0.640  0.000  0.000
  0.500  0.000  0.000  0.500  0.000
  0.500  0.000  0.000  0.500  0.000
  0.000  0.000  0.000  0.000  1.000
  0.000  0.640  0.360  0.000  0.000
    occupations:
  0.776 -0.000 -0.000  0.000  0.246
 -0.000  0.694  0.274  0.000  0.000
 -0.000  0.274  0.694  0.000  0.000
  0.000  0.000  0.000  0.991 -0.000
  0.246  0.000  0.000 -0.000  0.632
   spin  2
    eigenvalues: 
  0.421  0.447  0.961  0.968  0.991
    eigenvectors:
  0.000  0.360  0.640  0.000  0.000
  0.500  0.000  0.000  0.500  0.000
  0.500  0.000  0.000  0.500  0.000
  0.000  0.000  0.000  0.000  1.000
  0.000  0.640  0.360  0.000  0.000
    occupations:
  0.776 -0.000 -0.000  0.000  0.246
 -0.000  0.694  0.274  0.000  0.000
 -0.000  0.274  0.694  0.000  0.000
  0.000  0.000  0.000  0.991  0.000
  0.246  0.000  0.000  0.000  0.632
atomic mag. moment =     0.000000
atom   12   Tr[ns(na)] (up, down, total) =   3.78780  3.78780  7.57560
   spin  1
    eigenvalues: 
  0.421  0.447  0.961  0.968  0.991
    eigenvectors:
  0.000  0.360  0.640  0.000  0.000
  0.500  0.000  0.000  0.500  0.000
  0.500  0.000  0.000  0.500  0.000
  0.000  0.000  0.000  0.000  1.000
  0.000  0.640  0.360  0.000  0.000
    occupations:
  0.776  0.000  0.000  0.000 -0.246
  0.000  0.694 -0.274  0.000  0.000
  0.000 -0.274  0.694  0.000  0.000
  0.000  0.000  0.000  0.991  0.000
 -0.246  0.000  0.000  0.000  0.632
   spin  2
    eigenvalues: 
  0.421  0.447  0.961  0.968  0.991
    eigenvectors:
  0.000  0.360  0.640  0.000  0.000
  0.500  0.000  0.000  0.500  0.000
  0.500  0.000  0.000  0.500  0.000
  0.000  0.000  0.000  0.000  1.000
  0.000  0.640  0.360  0.000  0.000
    occupations:
  0.776 -0.000  0.000  0.000 -0.246
 -0.000  0.694 -0.274 -0.000 -0.000
  0.000 -0.274  0.694 -0.000  0.000
  0.000 -0.000 -0.000  0.991  0.000
 -0.246 -0.000  0.000  0.000  0.632
atomic mag. moment =    -0.000000
atom   13   Tr[ns(na)] (up, down, total) =   3.78780  3.78780  7.57560
   spin  1
    eigenvalues: 
  0.421  0.447  0.961  0.968  0.991
    eigenvectors:
  0.000  0.360  0.640  0.000  0.000
  0.500  0.000  0.000  0.500  0.000
  0.500  0.000  0.000  0.500  0.000
  0.000  0.000  0.000  0.000  1.000
  0.000  0.640  0.360  0.000  0.000
    occupations:
  0.776 -0.000 -0.000 -0.000  0.246
 -0.000  0.694  0.274  0.000  0.000
 -0.000  0.274  0.694  0.000  0.000
 -0.000  0.000  0.000  0.991 -0.000
  0.246  0.000  0.000 -0.000  0.632
   spin  2
    eigenvalues: 
  0.421  0.447  0.961  0.968  0.991
    eigenvectors:
  0.000  0.360  0.640  0.000  0.000
  0.500  0.000  0.000  0.500  0.000
  0.500  0.000  0.000  0.500  0.000
  0.000  0.000  0.000  0.000  1.000
  0.000  0.640  0.360  0.000  0.000
    occupations:
  0.776 -0.000 -0.000 -0.000  0.246
 -0.000  0.694  0.274  0.000  0.000
 -0.000  0.274  0.694  0.000  0.000
 -0.000  0.000  0.000  0.991 -0.000
  0.246  0.000  0.000 -0.000  0.632
atomic mag. moment =    -0.000000
atom   14   Tr[ns(na)] (up, down, total) =   3.78780  3.78780  7.57560
   spin  1
    eigenvalues: 
  0.421  0.447  0.961  0.968  0.991
    eigenvectors:
  0.000  0.360  0.640  0.000  0.000
  0.500  0.000  0.000  0.500  0.000
  0.500  0.000  0.000  0.500  0.000
  0.000  0.000  0.000  0.000  1.000
  0.000  0.640  0.360  0.000  0.000
    occupations:
  0.776 -0.000 -0.000  0.000 -0.246
 -0.000  0.694 -0.274 -0.000 -0.000
 -0.000 -0.274  0.694  0.000 -0.000
  0.000 -0.000  0.000  0.991 -0.000
 -0.246 -0.000 -0.000 -0.000  0.632
   spin  2
    eigenvalues: 
  0.421  0.447  0.961  0.968  0.991
    eigenvectors:
  0.000  0.360  0.640  0.000  0.000
  0.500  0.000  0.000  0.500  0.000
  0.500  0.000  0.000  0.500  0.000
  0.000  0.000  0.000  0.000  1.000
  0.000  0.640  0.360  0.000  0.000
    occupations:
  0.776 -0.000 -0.000  0.000 -0.246
 -0.000  0.694 -0.274  0.000 -0.000
 -0.000 -0.274  0.694 -0.000 -0.000
  0.000  0.000 -0.000  0.991 -0.000
 -0.246 -0.000 -0.000 -0.000  0.632
atomic mag. moment =     0.000000
atom   15   Tr[ns(na)] (up, down, total) =   3.78780  3.78780  7.57560
   spin  1
    eigenvalues: 
  0.421  0.447  0.961  0.968  0.991
    eigenvectors:
  0.000  0.360  0.640  0.000  0.000
  0.500  0.000  0.000  0.500  0.000
  0.500  0.000  0.000  0.500  0.000
  0.000  0.000  0.000  0.000  1.000
  0.000  0.640  0.360  0.000  0.000
    occupations:
  0.776 -0.000 -0.000 -0.000  0.246
 -0.000  0.694  0.274  0.000  0.000
 -0.000  0.274  0.694  0.000  0.000
 -0.000  0.000  0.000  0.991 -0.000
  0.246  0.000  0.000 -0.000  0.632
   spin  2
    eigenvalues: 
  0.421  0.447  0.961  0.968  0.991
    eigenvectors:
  0.000  0.360  0.640  0.000  0.000
  0.500  0.000  0.000  0.500  0.000
  0.500  0.000  0.000  0.500  0.000
  0.000  0.000  0.000  0.000  1.000
  0.000  0.640  0.360  0.000  0.000
    occupations:
  0.776 -0.000 -0.000 -0.000  0.246
 -0.000  0.694  0.274  0.000  0.000
 -0.000  0.274  0.694  0.000  0.000
 -0.000  0.000  0.000  0.991 -0.000
  0.246  0.000  0.000 -0.000  0.632
atomic mag. moment =    -0.000000
atom   16   Tr[ns(na)] (up, down, total) =   3.78780  3.78780  7.57560
   spin  1
    eigenvalues: 
  0.421  0.447  0.961  0.968  0.991
    eigenvectors:
  0.000  0.360  0.640  0.000  0.000
  0.500  0.000  0.000  0.500  0.000
  0.500  0.000  0.000  0.500  0.000
  0.000  0.000  0.000  0.000  1.000
  0.000  0.640  0.360  0.000  0.000
    occupations:
  0.776  0.000  0.000  0.000 -0.246
  0.000  0.694 -0.274  0.000  0.000
  0.000 -0.274  0.694 -0.000  0.000
  0.000  0.000 -0.000  0.991 -0.000
 -0.246  0.000  0.000 -0.000  0.632
   spin  2
    eigenvalues: 
  0.421  0.447  0.961  0.968  0.991
    eigenvectors:
  0.000  0.360  0.640  0.000  0.000
  0.500  0.000  0.000  0.500  0.000
  0.500  0.000  0.000  0.500  0.000
  0.000  0.000  0.000  0.000  1.000
  0.000  0.640  0.360  0.000  0.000
    occupations:
  0.776  0.000  0.000  0.000 -0.246
  0.000  0.694 -0.274 -0.000  0.000
  0.000 -0.274  0.694  0.000  0.000
  0.000 -0.000  0.000  0.991 -0.000
 -0.246  0.000  0.000 -0.000  0.632
atomic mag. moment =     0.000000
atom   17   Tr[ns(na)] (up, down, total) =   2.89981  2.89981  5.79961
   spin  1
    eigenvalues: 
  0.946  0.952  1.001
    eigenvectors:
  0.000  1.000  0.000
  0.500  0.000  0.500
  0.500  0.000  0.500
    occupations:
  0.952 -0.000 -0.000
 -0.000  0.974 -0.028
 -0.000 -0.028  0.974
   spin  2
    eigenvalues: 
  0.946  0.952  1.001
    eigenvectors:
  0.000  1.000  0.000
  0.500  0.000  0.500
  0.500  0.000  0.500
    occupations:
  0.952 -0.000 -0.000
 -0.000  0.974 -0.028
 -0.000 -0.028  0.974
atomic mag. moment =     0.000000
atom   18   Tr[ns(na)] (up, down, total) =   2.89981  2.89981  5.79961
   spin  1
    eigenvalues: 
  0.946  0.952  1.001
    eigenvectors:
  0.000  1.000  0.000
  0.500  0.000  0.500
  0.500  0.000  0.500
    occupations:
  0.952 -0.000 -0.000
 -0.000  0.974 -0.028
 -0.000 -0.028  0.974
   spin  2
    eigenvalues: 
  0.946  0.952  1.001
    eigenvectors:
  0.000  1.000  0.000
  0.500  0.000  0.500
  0.500  0.000  0.500
    occupations:
  0.952 -0.000 -0.000
 -0.000  0.974 -0.028
 -0.000 -0.028  0.974
atomic mag. moment =     0.000001
atom   19   Tr[ns(na)] (up, down, total) =   2.89981  2.89981  5.79961
   spin  1
    eigenvalues: 
  0.946  0.952  1.001
    eigenvectors:
  0.000  1.000  0.000
  0.500  0.000  0.500
  0.500  0.000  0.500
    occupations:
  0.952 -0.000 -0.000
 -0.000  0.974  0.028
 -0.000  0.028  0.974
   spin  2
    eigenvalues: 
  0.946  0.952  1.001
    eigenvectors:
  0.000  1.000  0.000
  0.500  0.000  0.500
  0.500  0.000  0.500
    occupations:
  0.952  0.000 -0.000
  0.000  0.974  0.028
 -0.000  0.028  0.974
atomic mag. moment =     0.000000
atom   20   Tr[ns(na)] (up, down, total) =   2.89981  2.89981  5.79961
   spin  1
    eigenvalues: 
  0.946  0.952  1.001
    eigenvectors:
  0.000  1.000  0.000
  0.500  0.000  0.500
  0.500  0.000  0.500
    occupations:
  0.952 -0.000 -0.000
 -0.000  0.974  0.028
 -0.000  0.028  0.974
   spin  2
    eigenvalues: 
  0.946  0.952  1.001
    eigenvectors:
  0.000  1.000  0.000
  0.500  0.000  0.500
  0.500  0.000  0.500
    occupations:
  0.952 -0.000  0.000
 -0.000  0.974  0.028
  0.000  0.028  0.974
atomic mag. moment =     0.000000
atom   21   Tr[ns(na)] (up, down, total) =   2.89981  2.89981  5.79961
   spin  1
    eigenvalues: 
  0.946  0.952  1.001
    eigenvectors:
  0.000  1.000  0.000
  0.500  0.000  0.500
  0.500  0.000  0.500
    occupations:
  0.952 -0.000 -0.000
 -0.000  0.974 -0.028
 -0.000 -0.028  0.974
   spin  2
    eigenvalues: 
  0.946  0.952  1.001
    eigenvectors:
  0.000  1.000  0.000
  0.500  0.000  0.500
  0.500  0.000  0.500
    occupations:
  0.952 -0.000 -0.000
 -0.000  0.974 -0.028
 -0.000 -0.028  0.974
atomic mag. moment =    -0.000000
atom   22   Tr[ns(na)] (up, down, total) =   2.89981  2.89981  5.79961
   spin  1
    eigenvalues: 
  0.946  0.952  1.001
    eigenvectors:
  0.000  1.000  0.000
  0.500  0.000  0.500
  0.500  0.000  0.500
    occupations:
  0.952 -0.000 -0.000
 -0.000  0.974 -0.028
 -0.000 -0.028  0.974
   spin  2
    eigenvalues: 
  0.946  0.952  1.001
    eigenvectors:
  0.000  1.000  0.000
  0.500  0.000  0.500
  0.500  0.000  0.500
    occupations:
  0.952 -0.000 -0.000
 -0.000  0.974 -0.028
 -0.000 -0.028  0.974
atomic mag. moment =     0.000001
atom   23   Tr[ns(na)] (up, down, total) =   2.89981  2.89981  5.79961
   spin  1
    eigenvalues: 
  0.946  0.952  1.001
    eigenvectors:
  0.000  1.000  0.000
  0.500  0.000  0.500
  0.500  0.000  0.500
    occupations:
  0.952  0.000  0.000
  0.000  0.974  0.028
  0.000  0.028  0.974
   spin  2
    eigenvalues: 
  0.946  0.952  1.001
    eigenvectors:
  0.000  1.000  0.000
  0.500  0.000  0.500
  0.500  0.000  0.500
    occupations:
  0.952 -0.000  0.000
 -0.000  0.974  0.028
  0.000  0.028  0.974
atomic mag. moment =     0.000000
atom   24   Tr[ns(na)] (up, down, total) =   2.89981  2.89981  5.79961
   spin  1
    eigenvalues: 
  0.946  0.952  1.001
    eigenvectors:
  0.000  1.000  0.000
  0.500  0.000  0.500
  0.500  0.000  0.500
    occupations:
  0.952  0.000  0.000
  0.000  0.974  0.028
  0.000  0.028  0.974
   spin  2
    eigenvalues: 
  0.946  0.952  1.001
    eigenvectors:
  0.000  1.000  0.000
  0.500  0.000  0.500
  0.500  0.000  0.500
    occupations:
  0.952  0.000 -0.000
  0.000  0.974  0.028
 -0.000  0.028  0.974
atomic mag. moment =     0.000000
atom   25   Tr[ns(na)] (up, down, total) =   2.89981  2.89981  5.79961
   spin  1
    eigenvalues: 
  0.946  0.952  1.001
    eigenvectors:
  0.000  1.000  0.000
  0.500  0.000  0.500
  0.500  0.000  0.500
    occupations:
  0.952 -0.000 -0.000
 -0.000  0.974 -0.028
 -0.000 -0.028  0.974
   spin  2
    eigenvalues: 
  0.946  0.952  1.001
    eigenvectors:
  0.000  1.000  0.000
  0.500  0.000  0.500
  0.500  0.000  0.500
    occupations:
  0.952 -0.000 -0.000
 -0.000  0.974 -0.028
 -0.000 -0.028  0.974
atomic mag. moment =     0.000000
atom   26   Tr[ns(na)] (up, down, total) =   2.89981  2.89981  5.79961
   spin  1
    eigenvalues: 
  0.946  0.952  1.001
    eigenvectors:
  0.000  1.000  0.000
  0.500  0.000  0.500
  0.500  0.000  0.500
    occupations:
  0.952 -0.000 -0.000
 -0.000  0.974 -0.028
 -0.000 -0.028  0.974
   spin  2
    eigenvalues: 
  0.946  0.952  1.001
    eigenvectors:
  0.000  1.000  0.000
  0.500  0.000  0.500
  0.500  0.000  0.500
    occupations:
  0.952 -0.000 -0.000
 -0.000  0.974 -0.028
 -0.000 -0.028  0.974
atomic mag. moment =     0.000000
atom   27   Tr[ns(na)] (up, down, total) =   2.89981  2.89981  5.79961
   spin  1
    eigenvalues: 
  0.946  0.952  1.001
    eigenvectors:
  0.000  1.000  0.000
  0.500  0.000  0.500
  0.500  0.000  0.500
    occupations:
  0.952  0.000 -0.000
  0.000  0.974  0.028
 -0.000  0.028  0.974
   spin  2
    eigenvalues: 
  0.946  0.952  1.001
    eigenvectors:
  0.000  1.000  0.000
  0.500  0.000  0.500
  0.500  0.000  0.500
    occupations:
  0.952  0.000 -0.000
  0.000  0.974  0.028
 -0.000  0.028  0.974
atomic mag. moment =    -0.000000
atom   28   Tr[ns(na)] (up, down, total) =   2.89981  2.89981  5.79961
   spin  1
    eigenvalues: 
  0.946  0.952  1.001
    eigenvectors:
  0.000  1.000  0.000
  0.500  0.000  0.500
  0.500  0.000  0.500
    occupations:
  0.952 -0.000  0.000
 -0.000  0.974  0.028
  0.000  0.028  0.974
   spin  2
    eigenvalues: 
  0.946  0.952  1.001
    eigenvectors:
  0.000  1.000  0.000
  0.500  0.000  0.500
  0.500  0.000  0.500
    occupations:
  0.952  0.000  0.000
  0.000  0.974  0.028
  0.000  0.028  0.974
atomic mag. moment =    -0.000000
atom   29   Tr[ns(na)] (up, down, total) =   2.89981  2.89981  5.79961
   spin  1
    eigenvalues: 
  0.946  0.952  1.001
    eigenvectors:
  0.000  1.000  0.000
  0.500  0.000  0.500
  0.500  0.000  0.500
    occupations:
  0.952 -0.000 -0.000
 -0.000  0.974 -0.028
 -0.000 -0.028  0.974
   spin  2
    eigenvalues: 
  0.946  0.952  1.001
    eigenvectors:
  0.000  1.000  0.000
  0.500  0.000  0.500
  0.500  0.000  0.500
    occupations:
  0.952 -0.000 -0.000
 -0.000  0.974 -0.028
 -0.000 -0.028  0.974
atomic mag. moment =     0.000000
atom   30   Tr[ns(na)] (up, down, total) =   2.89981  2.89981  5.79961
   spin  1
    eigenvalues: 
  0.946  0.952  1.001
    eigenvectors:
  0.000  1.000  0.000
  0.500  0.000  0.500
  0.500  0.000  0.500
    occupations:
  0.952 -0.000 -0.000
 -0.000  0.974 -0.028
 -0.000 -0.028  0.974
   spin  2
    eigenvalues: 
  0.946  0.952  1.001
    eigenvectors:
  0.000  1.000  0.000
  0.500  0.000  0.500
  0.500  0.000  0.500
    occupations:
  0.952 -0.000 -0.000
 -0.000  0.974 -0.028
 -0.000 -0.028  0.974
atomic mag. moment =     0.000000
atom   31   Tr[ns(na)] (up, down, total) =   2.89981  2.89981  5.79961
   spin  1
    eigenvalues: 
  0.946  0.952  1.001
    eigenvectors:
  0.000  1.000  0.000
  0.500  0.000  0.500
  0.500  0.000  0.500
    occupations:
  0.952 -0.000  0.000
 -0.000  0.974  0.028
  0.000  0.028  0.974
   spin  2
    eigenvalues: 
  0.946  0.952  1.001
    eigenvectors:
  0.000  1.000  0.000
  0.500  0.000  0.500
  0.500  0.000  0.500
    occupations:
  0.952 -0.000  0.000
 -0.000  0.974  0.028
  0.000  0.028  0.974
atomic mag. moment =    -0.000000
atom   32   Tr[ns(na)] (up, down, total) =   2.89981  2.89981  5.79961
   spin  1
    eigenvalues: 
  0.946  0.952  1.001
    eigenvectors:
  0.000  1.000  0.000
  0.500  0.000  0.500
  0.500  0.000  0.500
    occupations:
  0.952  0.000 -0.000
  0.000  0.974  0.028
 -0.000  0.028  0.974
   spin  2
    eigenvalues: 
  0.946  0.952  1.001
    eigenvectors:
  0.000  1.000  0.000
  0.500  0.000  0.500
  0.500  0.000  0.500
    occupations:
  0.952 -0.000 -0.000
 -0.000  0.974  0.028
 -0.000  0.028  0.974
atomic mag. moment =    -0.000000
atom   33   Tr[ns(na)] (up, down, total) =   2.89981  2.89981  5.79961
   spin  1
    eigenvalues: 
  0.946  0.952  1.001
    eigenvectors:
  0.000  1.000  0.000
  0.500  0.000  0.500
  0.500  0.000  0.500
    occupations:
  0.952 -0.000 -0.000
 -0.000  0.974 -0.028
 -0.000 -0.028  0.974
   spin  2
    eigenvalues: 
  0.946  0.952  1.001
    eigenvectors:
  0.000  1.000  0.000
  0.500  0.000  0.500
  0.500  0.000  0.500
    occupations:
  0.952 -0.000 -0.000
 -0.000  0.974 -0.028
 -0.000 -0.028  0.974
atomic mag. moment =     0.000000
atom   34   Tr[ns(na)] (up, down, total) =   2.89981  2.89981  5.79961
   spin  1
    eigenvalues: 
  0.946  0.952  1.001
    eigenvectors:
  0.000  1.000  0.000
  0.500  0.000  0.500
  0.500  0.000  0.500
    occupations:
  0.952 -0.000 -0.000
 -0.000  0.974 -0.028
 -0.000 -0.028  0.974
   spin  2
    eigenvalues: 
  0.946  0.952  1.001
    eigenvectors:
  0.000  1.000  0.000
  0.500  0.000  0.500
  0.500  0.000  0.500
    occupations:
  0.952 -0.000 -0.000
 -0.000  0.974 -0.028
 -0.000 -0.028  0.974
atomic mag. moment =     0.000000
atom   35   Tr[ns(na)] (up, down, total) =   2.89981  2.89981  5.79961
   spin  1
    eigenvalues: 
  0.946  0.952  1.001
    eigenvectors:
  0.000  1.000  0.000
  0.500  0.000  0.500
  0.500  0.000  0.500
    occupations:
  0.952  0.000 -0.000
  0.000  0.974  0.028
 -0.000  0.028  0.974
   spin  2
    eigenvalues: 
  0.946  0.952  1.001
    eigenvectors:
  0.000  1.000  0.000
  0.500  0.000  0.500
  0.500  0.000  0.500
    occupations:
  0.952  0.000  0.000
  0.000  0.974  0.028
  0.000  0.028  0.974
atomic mag. moment =    -0.000000
atom   36   Tr[ns(na)] (up, down, total) =   2.89981  2.89981  5.79961
   spin  1
    eigenvalues: 
  0.946  0.952  1.001
    eigenvectors:
  0.000  1.000  0.000
  0.500  0.000  0.500
  0.500  0.000  0.500
    occupations:
  0.952 -0.000  0.000
 -0.000  0.974  0.028
  0.000  0.028  0.974
   spin  2
    eigenvalues: 
  0.946  0.952  1.001
    eigenvectors:
  0.000  1.000  0.000
  0.500  0.000  0.500
  0.500  0.000  0.500
    occupations:
  0.952 -0.000  0.000
 -0.000  0.974  0.028
  0.000  0.028  0.974
atomic mag. moment =    -0.000000
atom   37   Tr[ns(na)] (up, down, total) =   2.89981  2.89981  5.79961
   spin  1
    eigenvalues: 
  0.946  0.952  1.001
    eigenvectors:
  0.000  1.000  0.000
  0.500  0.000  0.500
  0.500  0.000  0.500
    occupations:
  0.952 -0.000 -0.000
 -0.000  0.974 -0.028
 -0.000 -0.028  0.974
   spin  2
    eigenvalues: 
  0.946  0.952  1.001
    eigenvectors:
  0.000  1.000  0.000
  0.500  0.000  0.500
  0.500  0.000  0.500
    occupations:
  0.952 -0.000 -0.000
 -0.000  0.974 -0.028
 -0.000 -0.028  0.974
atomic mag. moment =     0.000000
atom   38   Tr[ns(na)] (up, down, total) =   2.89981  2.89981  5.79961
   spin  1
    eigenvalues: 
  0.946  0.952  1.001
    eigenvectors:
  0.000  1.000  0.000
  0.500  0.000  0.500
  0.500  0.000  0.500
    occupations:
  0.952 -0.000 -0.000
 -0.000  0.974 -0.028
 -0.000 -0.028  0.974
   spin  2
    eigenvalues: 
  0.946  0.952  1.001
    eigenvectors:
  0.000  1.000  0.000
  0.500  0.000  0.500
  0.500  0.000  0.500
    occupations:
  0.952 -0.000 -0.000
 -0.000  0.974 -0.028
 -0.000 -0.028  0.974
atomic mag. moment =     0.000000
atom   39   Tr[ns(na)] (up, down, total) =   2.89981  2.89981  5.79961
   spin  1
    eigenvalues: 
  0.946  0.952  1.001
    eigenvectors:
  0.000  1.000  0.000
  0.500  0.000  0.500
  0.500  0.000  0.500
    occupations:
  0.952 -0.000  0.000
 -0.000  0.974  0.028
  0.000  0.028  0.974
   spin  2
    eigenvalues: 
  0.946  0.952  1.001
    eigenvectors:
  0.000  1.000  0.000
  0.500  0.000  0.500
  0.500  0.000  0.500
    occupations:
  0.952 -0.000 -0.000
 -0.000  0.974  0.028
 -0.000  0.028  0.974
atomic mag. moment =    -0.000000
atom   40   Tr[ns(na)] (up, down, total) =   2.89981  2.89981  5.79961
   spin  1
    eigenvalues: 
  0.946  0.952  1.001
    eigenvectors:
  0.000  1.000  0.000
  0.500  0.000  0.500
  0.500  0.000  0.500
    occupations:
  0.952  0.000 -0.000
  0.000  0.974  0.028
 -0.000  0.028  0.974
   spin  2
    eigenvalues: 
  0.946  0.952  1.001
    eigenvectors:
  0.000  1.000  0.000
  0.500  0.000  0.500
  0.500  0.000  0.500
    occupations:
  0.952  0.000 -0.000
  0.000  0.974  0.028
 -0.000  0.028  0.974
atomic mag. moment =    -0.000000
atom   41   Tr[ns(na)] (up, down, total) =   2.89981  2.89981  5.79961
   spin  1
    eigenvalues: 
  0.946  0.952  1.001
    eigenvectors:
  0.000  1.000  0.000
  0.500  0.000  0.500
  0.500  0.000  0.500
    occupations:
  0.952 -0.000 -0.000
 -0.000  0.974 -0.028
 -0.000 -0.028  0.974
   spin  2
    eigenvalues: 
  0.946  0.952  1.001
    eigenvectors:
  0.000  1.000  0.000
  0.500  0.000  0.500
  0.500  0.000  0.500
    occupations:
  0.952 -0.000 -0.000
 -0.000  0.974 -0.028
 -0.000 -0.028  0.974
atomic mag. moment =    -0.000000
atom   42   Tr[ns(na)] (up, down, total) =   2.89981  2.89981  5.79961
   spin  1
    eigenvalues: 
  0.946  0.952  1.001
    eigenvectors:
  0.000  1.000  0.000
  0.500  0.000  0.500
  0.500  0.000  0.500
    occupations:
  0.952 -0.000 -0.000
 -0.000  0.974 -0.028
 -0.000 -0.028  0.974
   spin  2
    eigenvalues: 
  0.946  0.952  1.001
    eigenvectors:
  0.000  1.000  0.000
  0.500  0.000  0.500
  0.500  0.000  0.500
    occupations:
  0.952 -0.000 -0.000
 -0.000  0.974 -0.028
 -0.000 -0.028  0.974
atomic mag. moment =     0.000000
atom   43   Tr[ns(na)] (up, down, total) =   2.89981  2.89981  5.79961
   spin  1
    eigenvalues: 
  0.946  0.952  1.001
    eigenvectors:
  0.000  1.000  0.000
  0.500  0.000  0.500
  0.500  0.000  0.500
    occupations:
  0.952 -0.000 -0.000
 -0.000  0.974  0.028
 -0.000  0.028  0.974
   spin  2
    eigenvalues: 
  0.946  0.952  1.001
    eigenvectors:
  0.000  1.000  0.000
  0.500  0.000  0.500
  0.500  0.000  0.500
    occupations:
  0.952  0.000 -0.000
  0.000  0.974  0.028
 -0.000  0.028  0.974
atomic mag. moment =     0.000000
atom   44   Tr[ns(na)] (up, down, total) =   2.89981  2.89981  5.79961
   spin  1
    eigenvalues: 
  0.946  0.952  1.001
    eigenvectors:
  0.000  1.000  0.000
  0.500  0.000  0.500
  0.500  0.000  0.500
    occupations:
  0.952 -0.000 -0.000
 -0.000  0.974  0.028
 -0.000  0.028  0.974
   spin  2
    eigenvalues: 
  0.946  0.952  1.001
    eigenvectors:
  0.000  1.000  0.000
  0.500  0.000  0.500
  0.500  0.000  0.500
    occupations:
  0.952 -0.000  0.000
 -0.000  0.974  0.028
  0.000  0.028  0.974
atomic mag. moment =     0.000000
[...]
    23.7801  24.2772  24.5676  24.6689  24.6690  24.9429  24.9429  25.2778
    25.3229  25.3932  25.4134  25.4562  25.4786  25.4787  25.6879  25.9270
    25.9271  26.0937  26.1773  26.3647  26.3649  26.4091  26.4092  26.4670
    26.7850  27.1380  27.1510  27.2389  27.2389  27.5203  27.7508  27.7508
    27.8501  27.8502  27.9183  27.9184  27.9328  28.3710  28.4339  28.6441
    28.6989  28.9254  28.9255  28.9789  29.2968  29.2970  29.4405  29.4407
    29.5294  29.6031  29.6399  29.6851  29.9553  29.9554  30.1036  30.1484
    30.2341  30.2342  30.3084  30.3085  30.3454  30.3773  30.3853  30.3864
    30.3873  30.4049  30.4083  30.4199  30.4210  30.4220  30.4251  30.4253
    30.4255  30.4302  30.4308  30.6035  30.7285  30.8725  30.9026  31.2238
    31.3992  31.3993  31.5047  31.7603  32.0580  32.0581  32.1426  32.4146
    32.4146  32.4584  32.4585  32.5572  32.6331  32.8053  33.1174  33.1174
    33.2979  33.3591  33.6222  33.7368  33.7380  33.7444  33.8219  33.9634
    34.1606  34.1608  34.4513  34.4514  34.4858  34.5086  34.5087  34.7884
    35.0902  35.1258  35.1311  35.2257  35.2258  35.3787  35.4601  35.4602
    35.8964  35.9512  36.2011  36.4785  36.4786  36.5383  36.5384  36.5426
    36.5976  36.8227  37.2316  37.2608  37.2610  37.5814  37.5815  37.8255
    37.9066  37.9067  37.9903  37.9904  38.1249  38.1250  38.1711  38.3700
    38.4110  38.4110  38.4628  38.4791  38.6697  38.8757  38.9670  38.9960
    38.9961  39.0362  39.0575  39.1049  39.1345  39.2505  39.2549  39.2727
    39.2728  39.2867  39.7019  39.7019  39.8000  39.9675  40.1559  40.2388
    40.3467  40.3469  40.3890  40.4071  40.4071  40.4554  40.4898  40.7157
    40.7158  41.0172  41.0336  41.0337  41.0486  41.1016  41.1016  41.1892
    41.3559  41.3914  41.3915  41.4546  41.5341  42.0888  42.0889  42.3881
    42.4161  42.4161  42.4163  42.7854  43.0152  43.0153  43.0900  43.1411
    43.1637  43.1734  43.2317  43.3034  43.3421  43.4194  43.4194  43.4578
    43.5415  43.7033  43.7034  43.8512  43.8513  43.9720  43.9721  44.0160
    44.0162  44.0164  44.0551  44.1465  44.1604  44.3939  44.3940  44.4633
    44.6208  44.7678  44.8791  44.8838  45.0374  45.1822  45.2902  45.2903
    45.3255  45.3255  45.8295  45.8297  45.9232  45.9636  45.9638  46.0458
    46.0661  46.1605  46.2231  46.2233  46.2693  46.2695  46.2824  46.2827
    46.3369  46.4155  46.4156  46.5325  46.5963  46.6106  46.6886  46.6887
    46.7606  46.7933  46.7989  46.9241  46.9845  46.9845  46.9885  47.0167
    47.0169  47.0579  47.4029  47.4031  47.4314  47.5345  47.5348  47.6813
    47.8008  47.9006  47.9119  47.9120  47.9657  47.9658  48.0169  48.1955
    48.1956  48.2785  48.5037  48.6247  48.6248  48.6660  48.6858  48.6859
    48.9327  48.9361  48.9900  49.1115  49.2784  49.2889  49.2901  49.4068
    49.4068  49.5062  49.5063  49.7275  49.7475  49.8924  50.0829  50.1109
    50.1110  50.1921  50.1991  50.1991  50.3800  50.3908  50.4552  50.4577
    50.5438  50.5439  50.5859  50.7112  50.8640  50.8902  50.8903  51.2106
    51.2107  51.2812  51.3531  51.5246  51.5247  51.6558  51.6566  51.6856
    51.7300  51.9959  51.9959  52.1222  52.1222  52.3262  52.3263  52.4055
    52.5108  52.5109  52.6572  52.6572  52.6695  52.8311  52.9261  53.0074
    53.0544  53.0602  53.2605  53.2663  53.2663  53.3770  53.3770  53.4028
    53.4082  53.5342  53.6179  53.8709  53.9387  54.0256  54.0642  54.0643
    54.0682  54.0683  54.1389  54.1779  54.2294  54.2294  54.4143  54.4144
    54.7656  54.7881  55.0984  55.0984  55.1243  55.1286  55.3567  55.4543
    55.5925  56.1102  56.1469  56.1469  56.2804  56.2804  56.3150  56.3150

          k = 0.2500-0.2500 0.3553 ( 15707 PWs)   bands (ev):

   -41.9219 -41.9214 -41.9212 -41.9207 -41.9204 -41.9202 -41.9200 -41.9192
   -41.8848 -41.8831 -41.8829 -41.8821 -41.8811 -41.8804 -41.8802 -41.8785
   -41.7114 -41.7111 -41.7110 -41.7109 -41.7104 -41.7102 -41.7102 -41.7100
   -41.7082 -41.7082 -41.7082 -41.7078 -41.7077 -41.7074 -41.7074 -41.7073
   -41.6049 -41.6043 -41.6043 -41.6041 -41.6040 -41.6039 -41.6038 -41.6032
   -41.5997 -41.5995 -41.5994 -41.5994 -41.5990 -41.5990 -41.5988 -41.5987
    -7.5871  -7.2419  -7.2417  -7.1479  -6.9573  -6.8463  -6.7684  -6.7682
    -6.6699  -6.6697  -6.6149  -6.5930  -6.5020  -6.4503  -6.4501  -6.4007
    -6.2578  -6.2576  -6.2467  -6.2128  -6.2052  -6.2050  -6.1799  -6.1457
    -6.1259  -6.1257  -6.0238  -5.9707  -5.9705  -5.9567  -5.9113  -5.8289
     3.5181   3.5188   3.9621   3.9644   3.9646   3.9684   4.4405   4.4950
     4.6029   4.6335   4.6337   4.7436   4.7808   4.7810   4.7843   4.7846
     4.8210   4.8713   4.8717   4.8892   4.9117   4.9378   4.9379   4.9725
     4.9728   5.0110   5.0903   5.1400   5.1969   5.1971   5.2377   5.5837
     5.6684   5.7701   5.9187   5.9189   5.9581   6.0776   6.2193   6.3747
     6.3748   6.3783   6.3785   6.4634   6.4637   6.8133   6.8135   6.8692
     6.9702   7.0212   7.1644   7.1645   7.1825   7.1860   7.1861   7.1902
     7.3156   7.3704   7.4066   7.4802   7.5015   7.5018   7.5954   7.6154
     7.6156   7.7182   7.7481   7.7482   7.8956   7.9626   7.9888   7.9889
     8.0069   8.0717   8.0719   8.1510   8.3056   8.3589   8.4907   8.4982
     8.4983   8.6101   8.7359   8.7613   8.7890   8.9096   9.0031   9.0119
     9.2423   9.2426   9.3181   9.3183   9.3211   9.5476   9.5611   9.5613
     9.5801   9.5877   9.6386   9.7377   9.8403   9.8405   9.8714   9.9117
     9.9976   9.9980  10.1157  10.1157  10.1587  10.1893  10.1894  10.2938
    10.3351  10.3684  10.3684  10.4056  10.4673  10.5269  10.5801  10.5803
    10.6692  10.7450  10.8169  10.8171  10.8612  10.8616  11.0407  11.3957
    11.4170  11.4235  11.4237  11.6899  11.8589  11.9996  12.0768  12.1162
    12.1164  12.1191  12.1193  12.2281  12.3651  12.3652  12.3858  12.4602
    12.4605  12.6389  12.7695  12.8831  12.9727  12.9727  12.9743  13.7604
    13.7688  13.7870  13.9316  13.9318  14.0704  14.3845  14.4460  14.4463
    14.4955  14.7848  14.9340  14.9340  15.0352  15.1251  15.1382  15.1809
    15.1812  15.2337  15.2609  15.5862  15.5863  15.7531  15.7532  16.2208
    17.4355  18.9268  18.9269  20.0014  20.0693  20.6265  20.6267  20.7563
    20.7565  20.9278  20.9989  21.4765  21.5238  21.7151  21.7411  21.9257
    21.9258  22.0765  22.0766  22.2035  22.2532  22.5155  22.5858  22.6966
    22.6967  22.7090  22.7091  22.9120  23.0983  23.0984  23.4569  23.8135
    23.9124  24.0319  24.4087  24.4088  24.5179  25.1983  25.1983  25.2101
    25.3110  25.3111  25.3256  25.4464  25.5781  25.7606  25.7692  25.9023
    25.9024  25.9572  26.3736  26.3817  26.4732  26.4734  26.6031  26.6033
    26.8637  26.9149  27.0351  27.0426  27.0427  27.2253  27.3626  27.3627
    27.4928  27.4929  27.8919  27.9220  27.9755  28.0868  28.0869  28.2117
    28.4144  28.4569  28.4571  28.5136  28.5137  28.6526  28.7371  28.7511
    28.9642  28.9881  29.2156  29.2157  29.7010  29.7011  29.8286  30.2443
    30.2444  30.3655  30.3792  30.3802  30.3804  30.3810  30.3908  30.3910
    30.3978  30.4000  30.4060  30.4176  30.4185  30.4221  30.4371  30.4940
    30.4943  30.7641  30.8583  30.9595  30.9597  31.3378  31.4004  31.6439
    31.6701  31.6701  31.8781  31.8782  32.0810  32.3717  32.3718  32.5020
    32.5077  32.7330  32.7476  32.7477  32.7685  33.0618  33.3132  33.4723
    33.5700  33.5700  33.6456  33.8008  33.8375  34.1039  34.1351  34.3412
    34.3813  34.3814  34.5190  34.5689  34.6344  34.6344  34.7658  34.7660
    34.8243  35.1945  35.2846  35.2847  35.5185  35.6632  35.6892  35.7367
    36.0698  36.0699  36.1747  36.1748  36.1887  36.2954  36.2955  36.5251
    36.6803  36.7830  36.7831  37.4174  37.4175  37.4765  37.4765  37.5260
    37.5517  37.5679  37.7090  38.0122  38.0122  38.0358  38.0728  38.0728
    38.2203  38.2862  38.5370  38.5370  38.6187  38.7199  38.7392  38.7677
    38.7943  38.9066  38.9066  38.9786  39.1033  39.1034  39.1453  39.1475
    39.3474  39.3546  39.4063  39.4064  39.4298  39.5285  39.7212  39.7213
    39.7774  39.9655  40.2217  40.2869  40.5397  40.5397  40.5448  40.7290
    40.7354  40.7523  40.7523  40.7567  40.8259  40.8260  41.4501  41.4501
    41.5659  41.6473  41.7822  41.7822  41.9240  42.0038  42.0038  42.3776
    42.5136  42.6460  42.9474  42.9475  42.9999  43.0000  43.1384  43.1996
    43.2536  43.2537  43.2670  43.3909  43.4424  43.4425  43.5955  43.6657
    43.6741  43.6902  43.7115  43.9761  43.9950  43.9951  44.0650  44.1114
    44.2028  44.2953  44.2953  44.5788  44.5789  44.6366  44.8396  44.8397
    45.0846  45.0941  45.1351  45.1352  45.1439  45.1689  45.2141  45.2957
    45.4013  45.4743  45.4744  45.6079  45.6080  45.7387  45.8010  45.8575
    45.8575  45.8781  45.9521  46.0483  46.0485  46.0718  46.0719  46.3269
    46.4488  46.4706  46.4707  46.5305  46.6050  46.6310  46.6311  46.6914
    47.0722  47.0925  47.0925  47.1029  47.1030  47.2023  47.2656  47.2939
    47.4183  47.4184  47.4298  47.4298  47.6350  47.6885  47.8627  47.8639
    48.1215  48.1216  48.1216  48.1905  48.1906  48.2509  48.2511  48.4092
    48.4092  48.4114  48.4725  48.5117  48.5238  48.6442  48.6979  48.9848
    49.1042  49.1042  49.1692  49.2189  49.2296  49.2297  49.2539  49.2961
    49.3614  49.4040  49.5557  49.5799  49.5799  49.6270  49.6271  49.8303
    49.8934  50.0740  50.2760  50.3904  50.4921  50.4922  50.5068  50.5069
    50.6334  50.7316  50.7776  50.8508  50.8508  50.9269  50.9269  50.9504
    51.0988  51.0989  51.1327  51.3853  51.4216  51.6103  51.6455  51.7653
    51.7653  51.8571  51.8738  51.8739  52.3020  52.3020  52.3668  52.3798
    52.4409  52.4682  52.5431  52.6025  52.7120  52.7964  52.7964  52.9313
    53.1189  53.1189  53.2686  53.3167  53.3416  53.3964  53.3965  53.5992
    53.5992  53.7913  53.7913  54.0534  54.0535  54.1222  54.1312  54.1832
    54.1921  54.2560  54.3036  54.3244  54.3245  54.3635  54.4711  54.4712
    54.9408  55.0716  55.0717  55.0801  55.1112  55.1120  55.2214  55.2214
    55.2310  55.5723  55.6426  55.8205  55.8205  55.9669  55.9670  55.9958

          k = 0.2500-0.2500-0.7105 ( 15684 PWs)   bands (ev):

   -41.9036 -41.9036 -41.9024 -41.9023 -41.9022 -41.9021 -41.9015 -41.9015
   -41.9008 -41.9007 -41.9003 -41.9003 -41.9001 -41.9001 -41.8987 -41.8987
   -41.7099 -41.7097 -41.7096 -41.7096 -41.7096 -41.7096 -41.7093 -41.7093
   -41.7092 -41.7089 -41.7088 -41.7088 -41.7088 -41.7088 -41.7087 -41.7086
   -41.6023 -41.6023 -41.6022 -41.6019 -41.6018 -41.6018 -41.6018 -41.6016
   -41.6015 -41.6015 -41.6015 -41.6014 -41.6014 -41.6014 -41.6009 -41.6009
    -7.2531  -7.2531  -6.9586  -6.9585  -6.9584  -6.9583  -6.8780  -6.8779
    -6.7152  -6.7152  -6.5370  -6.5370  -6.5367  -6.5367  -6.4540  -6.4539
    -6.2634  -6.2633  -6.2632  -6.2632  -6.1592  -6.1592  -6.1069  -6.1069
    -6.1067  -6.1067  -6.1004  -6.1004  -6.0650  -6.0650  -5.9908  -5.9907
     3.9515   3.9515   3.9667   3.9668   4.3010   4.3010   4.3097   4.3097
     4.3100   4.3100   4.3176   4.3176   4.8764   4.8765   4.8768   4.8768
     5.0082   5.0082   5.1291   5.1291   5.2105   5.2105   5.2209   5.2209
     5.2210   5.2211   5.3859   5.3859   5.3862   5.3862   5.4269   5.4269
     5.6135   5.6136   5.6138   5.6138   5.9468   5.9468   6.1791   6.1791
     6.1793   6.1793   6.1947   6.1947   6.2190   6.2191   6.7049   6.7049
     6.8349   6.8349   6.9375   6.9375   6.9377   6.9377   7.1485   7.1485
     7.1487   7.1487   7.2842   7.2842   7.7563   7.7563   7.7564   7.7565
     7.7688   7.7689   7.7802   7.7802   7.8078   7.8078   7.8376   7.8376
     7.9321   7.9321   7.9322   7.9322   8.1673   8.1673   8.3776   8.3776
     8.4463   8.4463   8.6087   8.6088   8.7011   8.7012   8.7014   8.7014
     9.1656   9.1656   9.2290   9.2290   9.2293   9.2293   9.2899   9.2899
     9.7419   9.7419   9.7703   9.7703  10.2948  10.2949  10.2950  10.2950
    10.3007  10.3007  10.3801  10.3802  10.4636  10.4637  10.4638  10.4638
    10.5065  10.5065  10.6097  10.6097  10.6101  10.6101  10.6907  10.6907
    10.8301  10.8301  10.9726  10.9726  10.9727  10.9727  11.2456  11.2456
    11.6744  11.6744  11.7797  11.7797  11.7798  11.7798  11.8347  11.8347
    11.9031  11.9031  12.0089  12.0089  12.0090  12.0090  12.3462  12.3462
    13.3120  13.3120  13.3124  13.3124  13.3684  13.3684  13.7036  13.7036
    13.7037  13.7038  13.7350  13.7350  13.9233  13.9233  14.2837  14.2837
    14.3656  14.3656  14.3957  14.3957  14.8101  14.8102  14.8102  14.8102
    15.0671  15.0671  15.6646  15.6647  15.6647  15.6647  15.6965  15.6965
    18.6311  18.6311  19.7602  19.7602  19.7604  19.7604  20.4547  20.4547
    21.2299  21.2299  21.2866  21.2866  21.2867  21.2867  22.2567  22.2568
    22.3494  22.3494  22.5950  22.5951  22.8247  22.8247  22.8611  22.8611
    22.8612  22.8613  22.9851  22.9851  23.0354  23.0355  23.0356  23.0356
    24.4277  24.4277  24.6503  24.6503  24.6528  24.6528  24.6529  24.6529
    25.1465  25.1465  25.6238  25.6238  25.6239  25.6239  25.9561  25.9561
    26.2114  26.2115  26.2732  26.2732  26.6903  26.6903  26.6903  26.6903
    26.9954  26.9955  26.9955  26.9956  27.0172  27.0172  27.1289  27.1289
    27.3456  27.3456  27.4223  27.4223  27.4224  27.4225  27.5168  27.5168
    27.7483  27.7483  28.3643  28.3643  28.3643  28.3643  28.5777  28.5778
    28.5832  28.5832  29.1643  29.1643  29.1644  29.1644  30.3759  30.3760
    30.3818  30.3821  30.3825  30.3826  30.3909  30.3909  30.3950  30.3951
    30.4058  30.4058  30.4068  30.4068  30.4173  30.4174  30.7105  30.7105
    30.7105  30.7106  30.8324  30.8325  31.1421  31.1421  31.6204  31.6204
    31.6205  31.6205  31.7775  31.7775  32.2749  32.2749  32.2882  32.2882
    33.0410  33.0410  33.0412  33.0412  33.1916  33.1916  33.6814  33.6814
    33.7812  33.7812  34.5160  34.5160  34.5161  34.5161  34.5986  34.5986
    34.6468  34.6468  34.6619  34.6619  34.7252  34.7252  34.8153  34.8153
    34.8153  34.8153  35.6443  35.6443  35.6689  35.6689  35.6690  35.6690
    35.7540  35.7540  35.7540  35.7540  35.9578  35.9578  37.2272  37.2272
    37.2273  37.2273  37.3209  37.3209  37.4383  37.4383  37.4838  37.4838
    37.5250  37.5250  37.5251  37.5251  37.5542  37.5542  37.8350  37.8350
    37.8484  37.8484  38.0601  38.0601  38.1195  38.1195  38.3633  38.3633
    38.3633  38.3633  38.5177  38.5177  38.5177  38.5177  38.7022  38.7022
    39.2310  39.2310  39.3707  39.3708  39.3708  39.3708  39.8324  39.8324
    40.3887  40.3887  40.4820  40.4820  40.7077  40.7077  40.8645  40.8645
    40.8645  40.8645  40.9343  40.9343  41.5111  41.5111  41.6157  41.6157
    41.6157  41.6157  41.6300  41.6300  41.8750  41.8750  41.8750  41.8751
    42.7084  42.7084  42.8501  42.8501  42.8502  42.8502  42.8876  42.8876
    43.3097  43.3097  43.3097  43.3097  43.3271  43.3271  43.6476  43.6476
    43.8006  43.8007  43.9719  43.9719  44.1626  44.1627  44.2946  44.2946
    44.2946  44.2947  44.6282  44.6282  44.6283  44.6283  44.7128  44.7128
    44.8198  44.8198  45.1622  45.1622  45.1753  45.1753  45.1754  45.1754
    45.6074  45.6074  45.6334  45.6334  45.7152  45.7153  45.7153  45.7153
    45.9699  45.9699  46.0048  46.0049  46.0727  46.0727  46.0727  46.0727
    46.7651  46.7651  46.8113  46.8113  46.8114  46.8114  46.8456  46.8456
    47.1569  47.1569  47.4550  47.4551  47.5552  47.5553  47.5553  47.5554
    47.7279  47.7279  47.8583  47.8583  47.8584  47.8584  48.0484  48.0484
    48.0637  48.0637  48.1941  48.1941  48.1942  48.1942  48.3605  48.3605
    48.4062  48.4062  48.6656  48.6657  48.6657  48.6657  49.0306  49.0306
    49.1716  49.1716  49.2607  49.2607  49.2607  49.2607  49.4939  49.4939
    49.6370  49.6370  49.6370  49.6370  49.7314  49.7314  49.7784  49.7784
    49.9138  49.9138  49.9778  49.9778  49.9778  49.9778  50.5892  50.5892
    50.5892  50.5892  50.6213  50.6213  50.8414  50.8414  51.0429  51.0429
    51.1541  51.1541  51.3109  51.3109  51.3110  51.3110  51.7430  51.7431
    52.1128  52.1129  52.2379  52.2379  52.2380  52.2380  52.3523  52.3523
    52.5472  52.5472  52.8861  52.8861  52.9232  52.9232  52.9232  52.9232
    52.9659  52.9659  53.1270  53.1270  53.5649  53.5649  53.7402  53.7402
    53.7403  53.7403  53.7800  53.7800  53.7801  53.7801  53.9629  53.9629
    54.0227  54.0227  54.4506  54.4506  54.4545  54.4545  54.4546  54.4546
    54.7706  54.7706  54.7706  54.7707  54.7913  54.7914  55.2215  55.2215
    55.2830  55.2830  55.3922  55.3922  55.6160  55.6160  55.6160  55.6160

     the Fermi energy is    12.4873 ev

!    total energy              =   -4359.52004573 Ry
     Harris-Foulkes estimate   =   -4359.52004662 Ry
     estimated scf accuracy    <       0.00000094 Ry

     The total energy is the sum of the following terms:

     one-electron contribution =   -1092.72069457 Ry
     hartree contribution      =     841.62014923 Ry
     xc contribution           =   -1097.30319179 Ry
     ewald contribution        =   -3011.11594880 Ry
     Hubbard energy            =       0.00000000 Ry
     smearing contrib. (-TS)   =      -0.00035981 Ry

     total magnetization       =    -0.00 Bohr mag/cell
     absolute magnetization    =     0.00 Bohr mag/cell

     convergence has been achieved in  15 iterations

     Writing output data file pwscf.save

     init_run     :    389.65s CPU    514.09s WALL (       1 calls)
     electrons    :  28833.06s CPU  34058.98s WALL (       1 calls)

     Called by init_run:
     wfcinit      :    372.55s CPU    492.56s WALL (       1 calls)
     potinit      :      1.50s CPU      2.20s WALL (       1 calls)

     Called by electrons:
     c_bands      :  27074.69s CPU  31370.32s WALL (      15 calls)
     sum_band     :   1556.11s CPU   2449.28s WALL (      15 calls)
     v_of_rho     :      9.88s CPU     15.17s WALL (      16 calls)
     newd         :    200.96s CPU    226.41s WALL (      16 calls)
     mix_rho      :      1.69s CPU      2.99s WALL (      15 calls)

     Called by c_bands:
     init_us_2    :      8.72s CPU      9.06s WALL (    1344 calls)
     cegterg      :  27042.01s CPU  31216.77s WALL (     630 calls)

     Called by *egterg:
     h_psi        :   6328.27s CPU   9454.27s WALL (    2444 calls)
     s_psi        :    540.06s CPU    541.48s WALL (    2486 calls)
     g_psi        :      6.53s CPU      6.56s WALL (    1772 calls)
     cdiaghg      :  16846.92s CPU  17135.47s WALL (    2402 calls)

     Called by h_psi:
     add_vuspsi   :    536.08s CPU    537.19s WALL (    2444 calls)
     vhpsi        :   1293.43s CPU   1619.10s WALL (    2444 calls)

     General routines
     calbec       :   1687.87s CPU   2289.89s WALL (    6190 calls)
     fft          :     20.24s CPU     37.96s WALL (     486 calls)
     ffts         :      0.31s CPU      0.62s WALL (      62 calls)
     fftw         :   4362.27s CPU   7636.97s WALL ( 2347560 calls)
     interpolate  :      2.02s CPU      3.72s WALL (      62 calls)
     davcio       :      2.40s CPU    253.20s WALL (    3948 calls)

     Parallel routines
     fft_scatter  :   3131.28s CPU   6394.74s WALL ( 2348108 calls)
     Hubbard U routines
     new_ns       :    210.69s CPU    454.16s WALL (      15 calls)
     vhpsi        :   1293.43s CPU   1619.10s WALL (    2444 calls)

     PWSCF        :     8h 7m CPU        9h36m WALL


   This run was terminated on:   2:52:17   9Feb2014            

=------------------------------------------------------------------------------=
   JOB DONE.
=------------------------------------------------------------------------------=
---------------------------------------
Running PBS batch system epilogue script
Job id: 266909.audhumbla.fysik.dtu.dk
Username: zhonxu
Groupname: campgst
Jobname: linear-response/PtO2-2-scf
Sessionid: 8259
Resources limits: neednodes=2:ppn=8:xeon8,nodes=2:ppn=8:xeon8,walltime=48:00:00
Resources used: cput=151:53:22,mem=10386920kb,vmem=13777916kb,walltime=09:36:21
Queuename: verylong
Accounting:
This job has allocated the following 16 nodes:
b039 b039 b039 b039 b039 b039 b039 b039 b013 b013 b013 b013 b013 b013 b013 b013
Finished epilogue job 266909.audhumbla.fysik.dtu.dk for zhonxu
