
     Program PWSCF v.5.0.2 (svn rev. 9656) starts on 27Feb2014 at 18:22: 7 

     This program is part of the open-source Quantum ESPRESSO suite
     for quantum simulation of materials; please cite
         "P. Giannozzi et al., J. Phys.:Condens. Matter 21 395502 (2009);
          URL http://www.quantum-espresso.org", 
     in publications or presentations arising from this work. More details at
     http://www.quantum-espresso.org/quote.php

     Parallel version (MPI), running on    16 processors
     R & G space division:  proc/nbgrp/npool/nimage =      16

     Current dimensions of program PWSCF are:
     Max number of different atomic species (ntypx) = 10
     Max number of k-points (npk) =  40000
     Max angular momentum in pseudopotentials (lmaxx) =  3
     Reading input from bare.in
Warning: card &CELL ignored
Warning: card / ignored

     Subspace diagonalization in iterative solution of the eigenvalue problem:
     a serial algorithm will be used


     Parallelization info
     --------------------
     sticks:   dense  smooth     PW     G-vecs:    dense   smooth      PW
     Min         356     114     31                84254    15234    2255
     Max         357     115     32                84261    15271    2270
     Sum        5697    1827    505              1348107   244131   36167



     bravais-lattice index     =            0
     lattice parameter (alat)  =      11.7541  a.u.
     unit-cell volume          =    7139.8207 (a.u.)^3
     number of atoms/cell      =           30
     number of atomic types    =            3
     number of electrons       =       232.00
     number of Kohn-Sham states=          348
     kinetic-energy cutoff     =      40.0000  Ry
     charge density cutoff     =     500.0000  Ry
     convergence threshold     =      1.0E-06
     mixing beta               =       0.3000
     number of iterations used =            8  plain     mixing
     Exchange-correlation      = SLA  PW   PBE  PBE ( 1 4 3 4 0)
     EXX-fraction              =        0.00
     nstep                     =           50


     celldm(1)=  11.754097  celldm(2)=   0.000000  celldm(3)=   0.000000
     celldm(4)=   0.000000  celldm(5)=   0.000000  celldm(6)=   0.000000

     crystal axes: (cart. coord. in units of alat)
               a(1) = (   1.000000   0.000000   0.000000 )  
               a(2) = (   0.000000   1.034513   0.000000 )  
               a(3) = (   0.000000   0.000000   4.249947 )  

     reciprocal axes: (cart. coord. in units 2 pi/alat)
               b(1) = (  1.000000  0.000000  0.000000 )  
               b(2) = (  0.000000  0.966638  0.000000 )  
               b(3) = (  0.000000  0.000000  0.235297 )  


     PseudoPot. # 1 for O  read from file:
     /home/camp/zhonxu/pseudo/o_pbe_v1.01.uspp.F.UPF
     MD5 check sum: 2bcb18d16ea4b960afae9ec6d52f22d2
     Pseudo is Ultrasoft + core correction, Zval =  6.0
     Generated by new atomic code, or converted to UPF format
     Using radial grid of  737 points,  5 beta functions with: 
                l(1) =   0
                l(2) =   0
                l(3) =   1
                l(4) =   1
                l(5) =   2
     Q(r) pseudized with  8 coefficients,  rinner =    0.900   0.900   0.900
                                                       0.900   0.900

     PseudoPot. # 2 for Rh read from file:
     /home/camp/zhonxu/pseudo/rh_pbe_v1.uspp.F.UPF
     MD5 check sum: 37b626987ad0dd8ec6bf4cc9ef289918
     Pseudo is Ultrasoft + core correction, Zval = 15.0
     Generated by new atomic code, or converted to UPF format
     Using radial grid of  969 points,  7 beta functions with: 
                l(1) =   0
                l(2) =   0
                l(3) =   1
                l(4) =   1
                l(5) =   2
                l(6) =   2
                l(7) =   2
     Q(r) pseudized with  6 coefficients,  rinner =    1.050   1.050   1.050
                                                       1.050   1.050

     PseudoPot. # 3 for H  read from file:
     /home/camp/zhonxu/pseudo/h_pbe_v1.uspp.F.UPF
     MD5 check sum: 3408e3ff4ec8b0a4e358431e7e038a48
     Pseudo is Ultrasoft, Zval =  1.0
     Generated by new atomic code, or converted to UPF format
     Using radial grid of  615 points,  2 beta functions with: 
                l(1) =   0
                l(2) =   0
     Q(r) pseudized with  8 coefficients,  rinner =    0.700

     atomic species   valence    mass     pseudopotential
        O0             6.00    15.99940     O ( 1.00)
        Rh1           15.00   102.90550     Rh( 1.00)
        H2             1.00     1.00794     H ( 1.00)

     No symmetry found



   Cartesian axes

     site n.     atom                  positions (alat units)
         1           O0  tau(   1) = (   0.0000000   0.0000000   1.6092850  )
         2           O0  tau(   2) = (   0.0000000   0.5172566   1.7019764  )
         3           Rh1 tau(   3) = (   0.2500000   0.5172566   1.9208911  )
         4           Rh1 tau(   4) = (   0.0000000   0.0000000   1.9260761  )
         5           O0  tau(   5) = (   0.2500000   0.8379556   1.9244186  )
         6           O0  tau(   6) = (   0.2500000   0.1965575   1.9234836  )
         7           O0  tau(   7) = (   0.0000000   0.5172566   2.1185137  )
         8           O0  tau(   8) = (   0.0000000   0.0000000   2.2472871  )
         9           Rh1 tau(   9) = (   0.2500000   0.0000000   2.4498821  )
        10           Rh1 tau(  10) = (   0.0000000   0.5172566   2.4275274  )
        11           O0  tau(  11) = (   0.2500000   0.7138141   2.4560445  )
        12           O0  tau(  12) = (   0.2500000   0.3206991   2.4561295  )
        13           O0  tau(  13) = (   0.0000000   0.0000000   2.6421922  )
        14           O0  tau(  14) = (   0.5000000   0.0000000   1.6092850  )
        15           O0  tau(  15) = (   0.5000000   0.5172566   1.7020189  )
        16           Rh1 tau(  16) = (   0.7500000   0.5172566   1.9208911  )
        17           Rh1 tau(  17) = (   0.5000000   0.0000000   1.9260761  )
        18           O0  tau(  18) = (   0.7500000   0.8379556   1.9244186  )
        19           O0  tau(  19) = (   0.7500000   0.1965575   1.9234836  )
        20           O0  tau(  20) = (   0.5000000   0.5172566   2.1185137  )
        21           O0  tau(  21) = (   0.5000000   0.0000000   2.2472871  )
        22           Rh1 tau(  22) = (   0.7500000   0.0000000   2.4498821  )
        23           Rh1 tau(  23) = (   0.5000000   0.5172566   2.4275274  )
        24           O0  tau(  24) = (   0.7500000   0.7138141   2.4560445  )
        25           O0  tau(  25) = (   0.7500000   0.3206991   2.4561295  )
        26           O0  tau(  26) = (   0.5000000   0.0000000   2.6421922  )
        27           H2  tau(  27) = (  -0.0000700   0.6610642   1.6318522  )
        28           H2  tau(  28) = (   0.4999300   0.6610642   1.6318522  )
        29           H2  tau(  29) = (   0.1484700   0.0336217   1.5632156  )
        30           H2  tau(  30) = (   0.6484700   0.0336217   1.5632156  )

     number of k points=    10  Methfessel-Paxton smearing, width (Ry)=  0.0100
                       cart. coord. in units 2pi/alat
        k(    1) = (   0.0000000   0.0000000   0.0000000), wk =   0.1250000
        k(    2) = (   0.0000000   0.2416596   0.0000000), wk =   0.2500000
        k(    3) = (   0.0000000  -0.4833191   0.0000000), wk =   0.1250000
        k(    4) = (   0.2500000   0.0000000   0.0000000), wk =   0.2500000
        k(    5) = (   0.2500000   0.2416596   0.0000000), wk =   0.2500000
        k(    6) = (   0.2500000  -0.4833191   0.0000000), wk =   0.2500000
        k(    7) = (  -0.5000000   0.0000000   0.0000000), wk =   0.1250000
        k(    8) = (  -0.5000000   0.2416596   0.0000000), wk =   0.2500000
        k(    9) = (  -0.5000000  -0.4833191   0.0000000), wk =   0.1250000
        k(   10) = (  -0.2500000   0.2416596   0.0000000), wk =   0.2500000

     Dense  grid:  1348107 G-vectors     FFT dimensions: (  90,  90, 360)

     Smooth grid:   244131 G-vectors     FFT dimensions: (  48,  50, 216)

     Largest allocated arrays     est. size (Mb)     dimensions
        Kohn-Sham Wavefunctions        10.39 Mb     (   1957,  348)
        NL pseudopotentials            12.72 Mb     (   1957,  426)
        Each V/rho on FFT grid          2.84 Mb     ( 186300)
        Each G-vector array             0.64 Mb     (  84258)
        G-vector shells                 0.31 Mb     (  41027)
     Largest temporary arrays     est. size (Mb)     dimensions
        Auxiliary wavefunctions        41.57 Mb     (   1957, 1392)
        Each subspace H/S matrix       29.57 Mb     (1392,1392)
        Each <psi_i|beta_j> matrix      2.26 Mb     (    426,  348)
        Arrays for rho mixing          22.74 Mb     ( 186300,   8)

     Check: negative/imaginary core charge=   -0.000002    0.000000

     Initial potential from superposition of free atoms
     Check: negative starting charge=   -0.643046

     starting charge  227.99915, renormalised to  232.00000

     negative rho (up, down):  0.654E+00 0.000E+00
     Starting wfc are  172 randomized atomic wfcs

     total cpu time spent up to now is       79.9 secs

     per-process dynamical memory:   181.6 Mb

     Self-consistent Calculation

     iteration #  1     ecut=    40.00 Ry     beta=0.30
     Davidson diagonalization with overlap
     ethr =  1.00E-02,  avg # of iterations =  6.0

     negative rho (up, down):  0.662E+00 0.000E+00

     total cpu time spent up to now is      629.3 secs

     total energy              =   -1939.06455462 Ry
     Harris-Foulkes estimate   =   -1951.58240488 Ry
     estimated scf accuracy    <      26.11876046 Ry

     iteration #  2     ecut=    40.00 Ry     beta=0.30
     Davidson diagonalization with overlap
     ethr =  1.00E-02,  avg # of iterations =  3.0

     negative rho (up, down):  0.667E+00 0.000E+00

     total cpu time spent up to now is      874.7 secs

     total energy              =   -1923.27840089 Ry
     Harris-Foulkes estimate   =   -1973.18654398 Ry
     estimated scf accuracy    <     665.03073126 Ry

     iteration #  3     ecut=    40.00 Ry     beta=0.30
     Davidson diagonalization with overlap
     ethr =  1.00E-02,  avg # of iterations =  3.1

     negative rho (up, down):  0.671E+00 0.000E+00

     total cpu time spent up to now is     1116.4 secs

     total energy              =   -1944.54394401 Ry
     Harris-Foulkes estimate   =   -1950.41866151 Ry
     estimated scf accuracy    <      44.98131756 Ry

     iteration #  4     ecut=    40.00 Ry     beta=0.30
     Davidson diagonalization with overlap
     ethr =  1.00E-02,  avg # of iterations =  2.1

     negative rho (up, down):  0.674E+00 0.000E+00

     total cpu time spent up to now is     1313.9 secs

     total energy              =   -1947.96627667 Ry
     Harris-Foulkes estimate   =   -1948.84325673 Ry
     estimated scf accuracy    <       4.42937987 Ry

     iteration #  5     ecut=    40.00 Ry     beta=0.30
     Davidson diagonalization with overlap
     ethr =  1.91E-03,  avg # of iterations =  2.0

     negative rho (up, down):  0.676E+00 0.000E+00

     total cpu time spent up to now is     1508.3 secs

     total energy              =   -1948.25108695 Ry
     Harris-Foulkes estimate   =   -1948.44450163 Ry
     estimated scf accuracy    <       2.09581150 Ry

     iteration #  6     ecut=    40.00 Ry     beta=0.30
     Davidson diagonalization with overlap
     ethr =  9.03E-04,  avg # of iterations =  1.4

     negative rho (up, down):  0.678E+00 0.000E+00

     total cpu time spent up to now is     1695.5 secs

     total energy              =   -1948.29903676 Ry
     Harris-Foulkes estimate   =   -1948.36539439 Ry
     estimated scf accuracy    <       1.09324708 Ry

     iteration #  7     ecut=    40.00 Ry     beta=0.30
     Davidson diagonalization with overlap
     ethr =  4.71E-04,  avg # of iterations =  2.8

     negative rho (up, down):  0.681E+00 0.000E+00

     total cpu time spent up to now is     1899.7 secs

     total energy              =   -1948.24286376 Ry
     Harris-Foulkes estimate   =   -1948.31979535 Ry
     estimated scf accuracy    <       0.42490090 Ry

     iteration #  8     ecut=    40.00 Ry     beta=0.30
     Davidson diagonalization with overlap
     ethr =  1.83E-04,  avg # of iterations =  7.6

     negative rho (up, down):  0.683E+00 0.000E+00

     total cpu time spent up to now is     2167.0 secs

     total energy              =   -1948.22837011 Ry
     Harris-Foulkes estimate   =   -1948.28505323 Ry
     estimated scf accuracy    <       0.38154736 Ry

     iteration #  9     ecut=    40.00 Ry     beta=0.30
     Davidson diagonalization with overlap
     ethr =  1.64E-04,  avg # of iterations =  1.3

     negative rho (up, down):  0.684E+00 0.000E+00

     total cpu time spent up to now is     2352.9 secs

     total energy              =   -1948.23962583 Ry
     Harris-Foulkes estimate   =   -1948.26558369 Ry
     estimated scf accuracy    <       0.20413732 Ry

     iteration # 10     ecut=    40.00 Ry     beta=0.30
     Davidson diagonalization with overlap
     ethr =  8.80E-05,  avg # of iterations =  1.2

     negative rho (up, down):  0.688E+00 0.000E+00

     total cpu time spent up to now is     2537.9 secs

     total energy              =   -1948.24910037 Ry
     Harris-Foulkes estimate   =   -1948.25489617 Ry
     estimated scf accuracy    <       0.04450229 Ry

     iteration # 11     ecut=    40.00 Ry     beta=0.30
     Davidson diagonalization with overlap
     ethr =  1.92E-05,  avg # of iterations =  6.8

     negative rho (up, down):  0.688E+00 0.000E+00

     total cpu time spent up to now is     2816.2 secs

     total energy              =   -1948.24736875 Ry
     Harris-Foulkes estimate   =   -1948.25688753 Ry
     estimated scf accuracy    <       0.15977065 Ry

     iteration # 12     ecut=    40.00 Ry     beta=0.30
     Davidson diagonalization with overlap
     ethr =  1.92E-05,  avg # of iterations =  1.2

     negative rho (up, down):  0.689E+00 0.000E+00

     total cpu time spent up to now is     3000.7 secs

     total energy              =   -1948.25148070 Ry
     Harris-Foulkes estimate   =   -1948.25245314 Ry
     estimated scf accuracy    <       0.00550450 Ry

     iteration # 13     ecut=    40.00 Ry     beta=0.30
     Davidson diagonalization with overlap
     ethr =  2.37E-06,  avg # of iterations =  5.6

     negative rho (up, down):  0.689E+00 0.000E+00

     total cpu time spent up to now is     3254.9 secs

     total energy              =   -1948.25182988 Ry
     Harris-Foulkes estimate   =   -1948.25216702 Ry
     estimated scf accuracy    <       0.00438251 Ry

     iteration # 14     ecut=    40.00 Ry     beta=0.30
     Davidson diagonalization with overlap
     ethr =  1.89E-06,  avg # of iterations =  1.4

     negative rho (up, down):  0.689E+00 0.000E+00

     total cpu time spent up to now is     3442.0 secs

     total energy              =   -1948.25201760 Ry
     Harris-Foulkes estimate   =   -1948.25208765 Ry
     estimated scf accuracy    <       0.00114586 Ry

     iteration # 15     ecut=    40.00 Ry     beta=0.30
     Davidson diagonalization with overlap
     ethr =  4.94E-07,  avg # of iterations =  1.0

     negative rho (up, down):  0.689E+00 0.000E+00

     total cpu time spent up to now is     3624.4 secs

     total energy              =   -1948.25203474 Ry
     Harris-Foulkes estimate   =   -1948.25208039 Ry
     estimated scf accuracy    <       0.00031362 Ry

     iteration # 16     ecut=    40.00 Ry     beta=0.30
     Davidson diagonalization with overlap
     ethr =  1.35E-07,  avg # of iterations =  1.0

     negative rho (up, down):  0.689E+00 0.000E+00

     total cpu time spent up to now is     3806.7 secs

     total energy              =   -1948.25204701 Ry
     Harris-Foulkes estimate   =   -1948.25208165 Ry
     estimated scf accuracy    <       0.00039477 Ry

     iteration # 17     ecut=    40.00 Ry     beta=0.30
     Davidson diagonalization with overlap
     ethr =  1.35E-07,  avg # of iterations =  1.0

     negative rho (up, down):  0.689E+00 0.000E+00

     total cpu time spent up to now is     3989.0 secs

     total energy              =   -1948.25206167 Ry
     Harris-Foulkes estimate   =   -1948.25207268 Ry
     estimated scf accuracy    <       0.00009661 Ry

     iteration # 18     ecut=    40.00 Ry     beta=0.30
     Davidson diagonalization with overlap
     ethr =  4.16E-08,  avg # of iterations =  1.0

     negative rho (up, down):  0.689E+00 0.000E+00

     total cpu time spent up to now is     4176.6 secs

     total energy              =   -1948.25206513 Ry
     Harris-Foulkes estimate   =   -1948.25207242 Ry
     estimated scf accuracy    <       0.00008272 Ry

     iteration # 19     ecut=    40.00 Ry     beta=0.30
     Davidson diagonalization with overlap
     ethr =  3.57E-08,  avg # of iterations =  1.0

     negative rho (up, down):  0.689E+00 0.000E+00

     total cpu time spent up to now is     4364.0 secs

     total energy              =   -1948.25206732 Ry
     Harris-Foulkes estimate   =   -1948.25207019 Ry
     estimated scf accuracy    <       0.00001562 Ry

     iteration # 20     ecut=    40.00 Ry     beta=0.30
     Davidson diagonalization with overlap
     ethr =  6.73E-09,  avg # of iterations =  1.0

     negative rho (up, down):  0.689E+00 0.000E+00

     total cpu time spent up to now is     4551.4 secs

     total energy              =   -1948.25206760 Ry
     Harris-Foulkes estimate   =   -1948.25207169 Ry
     estimated scf accuracy    <       0.00004252 Ry

     iteration # 21     ecut=    40.00 Ry     beta=0.30
     Davidson diagonalization with overlap
     ethr =  6.73E-09,  avg # of iterations =  1.0

     negative rho (up, down):  0.689E+00 0.000E+00

     total cpu time spent up to now is     4738.8 secs

     total energy              =   -1948.25206943 Ry
     Harris-Foulkes estimate   =   -1948.25206987 Ry
     estimated scf accuracy    <       0.00000387 Ry

     iteration # 22     ecut=    40.00 Ry     beta=0.30
     Davidson diagonalization with overlap
     ethr =  1.67E-09,  avg # of iterations =  1.0

     negative rho (up, down):  0.689E+00 0.000E+00

     total cpu time spent up to now is     4926.2 secs

     total energy              =   -1948.25206962 Ry
     Harris-Foulkes estimate   =   -1948.25206978 Ry
     estimated scf accuracy    <       0.00000145 Ry

     iteration # 23     ecut=    40.00 Ry     beta=0.30
     Davidson diagonalization with overlap
     ethr =  6.24E-10,  avg # of iterations =  1.0

     negative rho (up, down):  0.689E+00 0.000E+00

     total cpu time spent up to now is     5108.4 secs

     total energy              =   -1948.25206961 Ry
     Harris-Foulkes estimate   =   -1948.25206986 Ry
     estimated scf accuracy    <       0.00000346 Ry

     iteration # 24     ecut=    40.00 Ry     beta=0.30
     Davidson diagonalization with overlap
     ethr =  6.24E-10,  avg # of iterations =  1.0

     negative rho (up, down):  0.689E+00 0.000E+00

     total cpu time spent up to now is     5290.2 secs

     total energy              =   -1948.25206971 Ry
     Harris-Foulkes estimate   =   -1948.25206979 Ry
     estimated scf accuracy    <       0.00000135 Ry

     iteration # 25     ecut=    40.00 Ry     beta=0.30
     Davidson diagonalization with overlap
     ethr =  5.81E-10,  avg # of iterations =  1.0

     negative rho (up, down):  0.689E+00 0.000E+00

     total cpu time spent up to now is     5470.3 secs

     End of self-consistent calculation

          k = 0.0000 0.0000 0.0000 ( 30479 PWs)   bands (ev):

   -49.4725 -49.4282 -49.4175 -49.3960 -49.3874 -49.3609 -49.2932 -49.2909
   -49.2767 -49.2047 -49.1829 -49.1809 -49.1750 -49.1450 -49.1394 -49.1223
   -49.0894 -49.0707 -49.0556 -49.0159 -48.9703 -48.9603 -48.9527 -48.9429
   -21.5969 -21.1586 -21.0792 -20.9628 -20.5223 -20.4896 -20.3147 -20.2327
   -20.1945 -20.1682 -20.0931 -20.0026 -19.9605 -19.7430 -19.6824 -19.6610
   -18.8880 -18.7731  -9.8906  -9.7852  -9.6325  -8.9656  -8.7529  -8.6638
    -8.5757  -8.5645  -8.4211  -8.4195  -8.3765  -8.2421  -8.2159  -8.1824
    -7.9802  -7.9794  -7.8606  -7.8366  -7.6123  -7.5127  -7.3049  -7.1066
    -6.9792  -6.6790  -6.5874  -6.5344  -6.4723  -6.0819  -5.9051  -5.7892
    -5.6777  -5.6706  -5.4888  -5.4702  -5.4070  -5.3291  -5.3161  -5.2640
    -5.1785  -5.0832  -4.9039  -4.8199  -4.7071  -4.6757  -4.5216  -4.4754
    -4.4518  -4.4402  -4.2252  -4.2048  -3.9133  -3.8360  -3.7872  -3.7039
    -3.6596  -3.6516  -3.5552  -3.4342  -3.2328  -3.2015  -3.1651  -3.1371
    -3.1034  -3.0862  -2.9661  -2.8281  -2.5810  -2.4658  -2.4508  -2.2786
    -2.1398  -1.9223  -1.6929  -1.6491  -1.6067  -1.4401  -1.3708  -1.1663
    -1.0944  -0.9731   0.0154   0.1532   0.2928   0.3992   0.4388   0.4763
     0.8540   0.8749   1.1179   1.7540   1.8404   1.8673   2.0522   2.1930
     2.9918   3.5127   4.0412   4.4710   4.7878   5.6019   5.7859   6.0249
     6.1689   6.6948   6.7768   6.8295   7.0623   7.2273   7.2554   7.4717
     7.6348   7.6836   7.7521   7.8447   7.9129   7.9822   7.9828   8.0796
     8.1438   8.1736   8.2007   8.4021   8.4246   8.5370   8.5749   8.6154
     8.7849   8.8475   8.9890   9.1334   9.1441   9.2791   9.4264   9.4912
     9.6078   9.6305   9.8646  10.0084  10.0395  10.2984  10.4633  10.4755
    10.6329  10.6376  10.6793  10.8241  10.9476  11.0480  11.0517  11.0644
    11.0759  11.1351  11.2052  11.2225  11.5414  11.5632  11.5886  11.6003
    11.6909  11.7202  11.7731  11.8349  11.8962  11.9009  11.9827  12.0604
    12.0958  12.1244  12.2010  12.2175  12.3077  12.3654  12.4229  12.4963
    12.6303  12.6400  12.6922  12.7780  12.8655  12.9580  12.9868  13.1415
    13.3250  13.4429  13.4517  13.5161  13.6090  13.7320  13.7497  13.8711
    14.0475  14.0534  14.1963  14.2008  14.2973  14.3956  14.5303  14.7218
    14.7772  14.8689  14.9332  15.0577  15.1390  15.1435  15.3117  15.3844
    15.5065  15.5723  15.6058  15.6871  15.7569  15.8518  15.8601  16.0884
    16.1638  16.2219  16.4080  16.4543  16.6005  16.6161  16.9384  16.9421
    16.9437  17.0088  17.0747  17.0896  17.2217  17.2453  17.5180  17.5793
    17.6455  17.7243  17.9001  17.9369  17.9892  18.0903  18.1698  18.1777
    18.2342  18.3554  18.3790  18.3899  18.4012  18.5372  18.6132  18.6369
    18.6988  18.7089  18.7182  18.8409  18.9859  18.9959  19.1001  19.2297
    19.2389  19.2952  19.4426  19.4875  19.5354  19.5671  19.6109  19.6572
    19.6961  19.7100  19.7901  19.8521  19.8691  19.9432  20.0035  20.0750
    20.0943  20.2225  20.2656  20.3758  20.4120  20.4641  20.4961  20.5303
    20.5568  20.7348  20.8201  21.0205  21.0422  21.0568  21.1162  21.2031
    21.2761  21.4207  21.4398  21.4769  21.5575  21.6089  21.6399  21.7325
    21.7818  21.9658  21.9660  22.0449  22.1020  22.1685  22.1961  22.2243
    22.2757  22.3303  22.4024  22.4393

          k = 0.0000 0.2417 0.0000 ( 30538 PWs)   bands (ev):

   -49.4729 -49.4282 -49.4176 -49.3955 -49.3883 -49.3607 -49.2934 -49.2897
   -49.2771 -49.2042 -49.1829 -49.1809 -49.1751 -49.1461 -49.1394 -49.1223
   -49.0895 -49.0708 -49.0557 -49.0159 -48.9704 -48.9607 -48.9528 -48.9430
   -21.5494 -21.1573 -21.0166 -20.9032 -20.5200 -20.4967 -20.4011 -20.3103
   -20.2223 -20.1011 -20.0266 -20.0249 -19.9596 -19.8359 -19.7358 -19.6830
   -18.8877 -18.7688  -9.6893  -9.4613  -9.3707  -9.1113  -8.7706  -8.6121
    -8.5645  -8.5537  -8.5327  -8.3600  -8.3264  -8.2328  -8.2120  -8.1718
    -8.1404  -7.9812  -7.9340  -7.7446  -7.5098  -7.2376  -7.1153  -6.9848
    -6.7943  -6.6187  -6.5651  -6.5128  -6.4685  -6.4500  -6.2521  -6.1635
    -5.9616  -5.6410  -5.6225  -5.6114  -5.5950  -5.4804  -5.2598  -5.2566
    -5.1840  -5.1547  -5.0392  -5.0117  -4.9247  -4.7141  -4.6877  -4.5886
    -4.4751  -4.4214  -4.1525  -4.1497  -3.9672  -3.6966  -3.6301  -3.5884
    -3.4315  -3.4046  -3.2945  -3.2754  -3.2292  -3.1427  -3.1416  -3.1376
    -3.1341  -3.1000  -2.9665  -2.9533  -2.9045  -2.7864  -2.4683  -2.2500
    -2.1388  -1.7187  -1.7169  -1.6069  -1.4611  -1.3974  -1.3187  -1.1869
    -1.1206  -0.8398  -0.6735  -0.4367   0.1874   0.3956   0.4143   0.9647
     1.1170   1.5011   1.6663   1.6787   1.7518   1.8052   1.9358   2.1948
     3.2877   3.7106   4.2730   4.6758   5.0119   5.2242   5.7474   5.9162
     6.0809   6.1636   6.3287   6.5637   6.8052   6.9348   6.9608   7.1236
     7.3682   7.4953   7.5416   7.6951   7.7357   8.0503   8.1154   8.1873
     8.3366   8.4013   8.5474   8.5533   8.6916   8.7858   8.8605   8.9267
     9.0732   9.1296   9.2511   9.3756   9.4412   9.5190   9.5514   9.6280
     9.6659   9.7803   9.9127   9.9461  10.0211  10.0518  10.0711  10.2398
    10.3312  10.3430  10.3821  10.6064  10.6541  10.7026  10.7384  10.8671
    10.9357  11.0533  11.1096  11.1480  11.2485  11.2900  11.3970  11.5124
    11.7451  11.8474  12.0116  12.0388  12.0405  12.1281  12.2412  12.2557
    12.2788  12.4446  12.4637  12.5362  12.5739  12.6985  12.8108  12.9178
    12.9366  12.9853  13.0741  13.1917  13.3415  13.4941  13.5152  13.5224
    13.6938  13.7307  13.7411  13.8390  13.8632  13.9140  14.0053  14.0495
    14.0689  14.1278  14.2821  14.3862  14.4007  14.4674  14.6490  14.6869
    14.7139  14.8537  14.9255  15.1255  15.1605  15.1860  15.2328  15.3107
    15.3874  15.5411  15.6619  15.6788  15.7119  15.8075  15.8125  15.9608
    15.9912  16.0861  16.1605  16.3134  16.3469  16.4506  16.4856  16.5998
    16.6580  16.7594  16.8840  16.9298  16.9992  17.0350  17.1175  17.1369
    17.2553  17.3144  17.4011  17.5181  17.5204  17.7035  17.8886  17.9944
    18.0324  18.0376  18.2014  18.3638  18.3651  18.3901  18.4352  18.4479
    18.5098  18.6962  18.7296  18.7899  18.8358  18.8805  18.9692  18.9998
    19.1339  19.1993  19.2178  19.3177  19.4348  19.4880  19.5236  19.5844
    19.5999  19.6806  19.7182  19.7362  19.8127  19.8268  19.8370  19.8760
    19.9236  20.0070  20.0337  20.0447  20.1622  20.2217  20.3203  20.3946
    20.3949  20.4316  20.5407  20.7073  20.7688  20.8538  20.8729  20.8931
    20.9879  21.0203  21.0983  21.1221  21.1436  21.1709  21.2402  21.2680
    21.3423  21.4585  21.5737  21.6199  21.6560  21.6689  21.7091  21.7273
    21.8640  21.8970  21.9754  21.9867

          k = 0.0000-0.4833 0.0000 ( 30492 PWs)   bands (ev):

   -49.4731 -49.4282 -49.4176 -49.3949 -49.3889 -49.3604 -49.2934 -49.2884
   -49.2774 -49.2036 -49.1828 -49.1808 -49.1750 -49.1473 -49.1392 -49.1220
   -49.0894 -49.0708 -49.0556 -49.0159 -48.9703 -48.9610 -48.9528 -48.9430
   -21.4997 -21.1559 -20.9549 -20.8038 -20.5176 -20.4654 -20.4540 -20.3695
   -20.3557 -20.0535 -20.0379 -19.9797 -19.9556 -19.9493 -19.7868 -19.6835
   -18.8874 -18.7652  -9.6593  -9.2298  -8.9514  -8.7693  -8.7590  -8.7373
    -8.5580  -8.5569  -8.5025  -8.2943  -8.2620  -8.2061  -8.1833  -8.1563
    -7.9925  -7.9869  -7.9681  -7.8013  -7.3068  -7.2803  -7.1928  -7.0826
    -6.9917  -6.9221  -6.8448  -6.4860  -6.4023  -6.3521  -6.3201  -6.0881
    -5.9770  -5.8659  -5.8536  -5.8342  -5.7589  -5.6693  -5.6382  -5.2699
    -5.1505  -5.1311  -5.1051  -4.9791  -4.9064  -4.6335  -4.5333  -4.4465
    -4.3609  -4.3030  -4.1855  -4.1748  -4.0329  -3.7381  -3.6454  -3.6340
    -3.5582  -3.5265  -3.4549  -3.4204  -3.2723  -3.2175  -3.2138  -3.1359
    -3.0833  -2.9685  -2.7656  -2.7520  -2.6968  -2.5917  -2.3716  -2.2060
    -2.0903  -2.0416  -1.7949  -1.6816  -1.3939  -1.3606  -1.2749  -1.1725
    -1.1401  -1.0266  -0.8715  -0.5803   0.2158   0.4297   0.7266   1.1152
     1.1838   1.4743   1.4775   1.6939   1.8548   1.9766   2.1959   2.2132
     3.8286   4.0935   4.3853   4.9240   4.9751   5.0785   5.3476   5.5497
     5.7026   5.9480   6.4064   6.4836   6.5127   6.6882   6.8782   6.9301
     7.2715   7.3549   7.5129   7.6132   7.8126   7.8820   8.1320   8.5208
     8.6707   8.6820   8.7084   8.7149   8.7593   8.8495   8.9683   8.9892
     9.0035   9.0696   9.1322   9.1862   9.2125   9.3249   9.4145   9.4802
     9.4945   9.5472   9.7605   9.8552   9.9400  10.0425  10.0609  10.3344
    10.3860  10.3940  10.4075  10.7111  10.7598  10.9971  11.0152  11.1390
    11.2610  11.2881  11.3158  11.3354  11.3892  11.6079  11.6264  11.6676
    11.7615  11.8237  11.9795  12.1186  12.2011  12.2019  12.3396  12.3806
    12.5339  12.6073  12.6641  12.7622  12.7823  12.8750  12.8898  12.9661
    13.0048  13.1717  13.1923  13.2539  13.3057  13.3769  13.3817  13.4252
    13.5967  13.7037  13.7332  13.7752  13.9862  14.0549  14.0822  14.1340
    14.1396  14.1589  14.4007  14.4386  14.4576  14.7416  14.7792  14.9868
    15.0787  15.1217  15.1743  15.2803  15.3657  15.4339  15.4700  15.5057
    15.5303  15.6529  15.7223  15.8687  15.8763  15.9150  16.0149  16.0724
    16.1826  16.2277  16.2888  16.3040  16.3684  16.3783  16.4213  16.4220
    16.5133  16.6734  16.7196  16.7916  16.8495  16.8914  16.8942  17.0493
    17.1082  17.2164  17.2535  17.3456  17.4076  17.4556  17.4829  17.5609
    17.6458  17.7518  17.7625  17.8038  17.8045  17.8802  17.9089  17.9185
    18.1404  18.1535  18.2101  18.2853  18.2936  18.3036  18.4311  18.5034
    18.5718  18.5895  18.6354  18.8522  18.8701  19.1128  19.2748  19.3401
    19.4799  19.5745  19.5888  19.6080  19.6157  19.6185  19.8313  19.8987
    19.9687  20.1070  20.1537  20.1797  20.2899  20.2902  20.3510  20.3609
    20.4195  20.4795  20.5003  20.5211  20.5478  20.5626  20.5889  20.6700
    20.7032  20.7434  20.7676  20.7709  20.8850  20.9495  21.0592  21.0897
    21.1315  21.1715  21.2297  21.3472  21.4282  21.4578  21.4950  21.5152
    21.5224  21.5328  21.5654  21.5771

          k = 0.2500 0.0000 0.0000 ( 30502 PWs)   bands (ev):

   -49.4571 -49.4275 -49.4177 -49.3948 -49.3888 -49.3751 -49.2901 -49.2795
   -49.2771 -49.1974 -49.1881 -49.1815 -49.1757 -49.1441 -49.1403 -49.1074
   -49.1064 -49.0685 -49.0578 -49.0316 -48.9677 -48.9577 -48.9553 -48.9455
   -21.5060 -21.1810 -20.9975 -20.8681 -20.6236 -20.4984 -20.3861 -20.3417
   -20.1357 -20.1123 -20.0325 -19.9584 -19.9508 -19.8118 -19.7270 -19.7113
   -18.9171 -18.8245  -9.7176  -9.6172  -9.4847  -9.0657  -8.7597  -8.6509
    -8.6420  -8.5532  -8.5353  -8.4559  -8.3807  -8.3704  -8.1451  -8.0252
    -7.9140  -7.9103  -7.7606  -7.7245  -7.4658  -7.3629  -7.3566  -7.1822
    -7.0205  -6.6704  -6.4605  -6.3912  -6.2444  -6.1941  -6.1274  -5.9607
    -5.9206  -5.8854  -5.7973  -5.7169  -5.6248  -5.5023  -5.3444  -5.2637
    -5.1307  -5.0553  -5.0137  -4.9978  -4.8995  -4.7184  -4.7049  -4.6724
    -4.5727  -4.5367  -4.4132  -4.1896  -4.0077  -3.8509  -3.7072  -3.5712
    -3.5190  -3.4606  -3.3881  -3.2718  -3.2436  -3.1826  -3.1795  -2.9720
    -2.9190  -2.7478  -2.6615  -2.5393  -2.4157  -2.4070  -2.3441  -2.1640
    -2.1229  -1.9106  -1.8580  -1.7966  -1.6638  -1.4977  -1.2646  -1.1573
    -1.0987  -1.0200   0.1313   0.2506   0.3734   0.4375   0.5365   0.5730
     0.6930   0.9297   1.0245   1.5321   1.5540   1.6566   1.7154   2.0590
     3.3321   3.8110   4.2938   4.7201   5.0640   5.2286   5.6864   5.8378
     6.0484   6.2318   6.3181   6.5554   6.9344   7.0071   7.3095   7.3865
     7.4680   7.4863   7.7025   7.8875   7.8891   7.9381   8.0161   8.1885
     8.3233   8.3426   8.4511   8.5066   8.6029   8.7414   8.8241   8.9863
     9.0416   9.0589   9.2240   9.2383   9.3804   9.4200   9.6352   9.6625
     9.7871   9.8686   9.8934   9.9773  10.0365  10.1642  10.2029  10.2237
    10.2769  10.3770  10.4495  10.5201  10.6943  10.7738  10.8289  10.8982
    10.9302  11.0850  11.1490  11.2203  11.2251  11.2515  11.3068  11.3575
    11.5153  11.6183  11.8456  11.8680  12.0131  12.0589  12.1384  12.1709
    12.3356  12.3597  12.3790  12.5154  12.5861  12.6919  12.7455  12.8723
    12.9155  13.0894  13.2438  13.2909  13.3164  13.4854  13.5910  13.6875
    13.6987  13.7665  13.8462  13.8524  13.9076  13.9623  14.0370  14.1218
    14.1808  14.2104  14.2930  14.4247  14.4407  14.4725  14.6188  14.6427
    14.7825  14.8020  15.0900  15.1230  15.2452  15.2492  15.2903  15.3227
    15.4187  15.4621  15.6447  15.6612  15.8071  15.8127  15.8997  15.9322
    15.9789  16.0019  16.1561  16.2401  16.3277  16.3609  16.3948  16.5147
    16.5215  16.6763  16.9332  16.9537  17.0357  17.0606  17.1840  17.2765
    17.3077  17.3871  17.5049  17.5515  17.7227  17.7360  17.8438  18.0157
    18.0206  18.1034  18.1124  18.3242  18.3780  18.3844  18.5631  18.5924
    18.7911  18.8161  18.9044  18.9635  18.9905  19.0575  19.0596  19.1295
    19.1327  19.2070  19.2736  19.3075  19.3474  19.3813  19.4778  19.5309
    19.5379  19.5791  19.6603  19.6923  19.7415  19.7792  19.8045  19.8123
    19.9204  20.0012  20.0296  20.2082  20.2467  20.3095  20.3674  20.3852
    20.4038  20.4568  20.4781  20.5480  20.6402  20.6698  20.6952  20.7202
    20.8088  20.8280  20.8368  20.9598  20.9698  21.0822  21.1741  21.1809
    21.2958  21.3211  21.3673  21.3757  21.4393  21.5552  21.6001  21.6534
    21.7352  21.7698  21.7862  21.9149

          k = 0.2500 0.2417 0.0000 ( 30481 PWs)   bands (ev):

   -49.4572 -49.4275 -49.4178 -49.3943 -49.3892 -49.3752 -49.2888 -49.2796
   -49.2771 -49.1974 -49.1877 -49.1815 -49.1758 -49.1451 -49.1402 -49.1072
   -49.1064 -49.0686 -49.0578 -49.0316 -48.9677 -48.9580 -48.9554 -48.9455
   -21.4679 -21.1786 -20.9341 -20.8023 -20.6092 -20.5045 -20.3762 -20.3318
   -20.1738 -20.1614 -20.0579 -19.9923 -19.9417 -19.8978 -19.7835 -19.7123
   -18.9172 -18.8208  -9.5381  -9.3098  -9.2114  -9.1009  -8.6604  -8.6110
    -8.5697  -8.5536  -8.5180  -8.4171  -8.3610  -8.3173  -8.2240  -8.0766
    -7.9177  -7.8316  -7.7375  -7.7071  -7.4090  -7.3406  -7.2332  -7.2090
    -7.0380  -6.6349  -6.5906  -6.4176  -6.3365  -6.1902  -6.1701  -6.0836
    -6.0578  -6.0551  -6.0145  -5.9032  -5.7246  -5.7008  -5.6195  -5.5647
    -5.3253  -5.2113  -5.2084  -4.9136  -4.8977  -4.8617  -4.7569  -4.5881
    -4.5552  -4.3851  -4.3245  -4.0947  -4.0243  -3.7243  -3.5583  -3.5572
    -3.4923  -3.4195  -3.2242  -3.1563  -3.0721  -3.0336  -3.0288  -2.9220
    -2.8978  -2.8152  -2.7314  -2.7238  -2.5385  -2.5135  -2.4108  -2.1978
    -1.8706  -1.8469  -1.8140  -1.7438  -1.6893  -1.5220  -1.3356  -1.2911
    -1.0293  -0.7762  -0.4328  -0.2148   0.3018   0.4106   0.4191   0.7543
     0.9748   1.2442   1.3765   1.4637   1.6598   1.7008   1.8192   2.0273
     3.6073   3.9954   4.5245   4.9203   5.2690   5.4007   5.4964   5.8013
     5.9826   6.2045   6.3340   6.4219   6.4354   6.7139   6.8243   7.0144
     7.1837   7.3654   7.4065   7.6286   7.6679   7.8189   7.9650   7.9958
     8.0581   8.2633   8.3825   8.4148   8.6323   8.7564   8.7621   8.8522
     8.8837   9.1730   9.3228   9.3857   9.4866   9.6423   9.6560   9.7145
     9.8015   9.9052  10.0664  10.1645  10.2514  10.2651  10.3530  10.5222
    10.5865  10.6306  10.7797  10.8016  10.8625  10.9490  10.9805  11.0997
    11.2485  11.3030  11.3697  11.4715  11.5031  11.5871  11.6395  11.6832
    11.8195  11.9597  12.0443  12.0449  12.1292  12.1699  12.2187  12.3317
    12.4308  12.4867  12.5974  12.6041  12.6777  12.7918  12.8617  12.9809
    12.9983  13.1036  13.1256  13.1877  13.2620  13.3241  13.4416  13.5365
    13.5993  13.6836  13.7394  13.7549  13.9084  14.0049  14.0094  14.0941
    14.1153  14.2500  14.3858  14.4412  14.5286  14.5598  14.6204  14.7317
    14.7899  15.0873  15.1703  15.1850  15.3461  15.4148  15.4812  15.4944
    15.5343  15.6114  15.7234  15.7249  15.8111  15.8865  15.9568  15.9653
    16.0421  16.0719  16.1568  16.2124  16.2741  16.3518  16.3715  16.4554
    16.5052  16.5941  16.6103  16.6213  16.7223  16.7994  16.9086  16.9539
    17.1463  17.1924  17.2422  17.2811  17.3598  17.4278  17.4597  17.5347
    17.5657  17.6229  17.7559  17.7914  17.8379  17.8679  18.0188  18.0710
    18.0850  18.1592  18.2732  18.3662  18.3876  18.4691  18.5067  18.6321
    18.6574  18.7799  18.8659  18.9009  18.9700  19.0559  19.0590  19.1142
    19.1343  19.2424  19.3109  19.3960  19.4418  19.5679  19.5873  19.7338
    19.8028  19.8385  19.8621  20.0661  20.0675  20.1726  20.3337  20.3980
    20.4481  20.4655  20.5794  20.6358  20.6447  20.7246  20.7766  20.9267
    20.9720  20.9863  21.0638  21.1425  21.1727  21.2660  21.3023  21.3048
    21.3797  21.4023  21.5945  21.6147  21.6349  21.6843  21.7679  21.8187
    21.8420  21.9246  22.0205  22.0492

          k = 0.2500-0.4833 0.0000 ( 30510 PWs)   bands (ev):

   -49.4576 -49.4275 -49.4177 -49.3940 -49.3898 -49.3750 -49.2880 -49.2797
   -49.2772 -49.1974 -49.1873 -49.1814 -49.1757 -49.1461 -49.1404 -49.1071
   -49.1063 -49.0686 -49.0577 -49.0316 -48.9677 -48.9584 -48.9553 -48.9457
   -21.4296 -21.1760 -20.8439 -20.7356 -20.5932 -20.4569 -20.3565 -20.3288
   -20.3095 -20.2104 -20.0873 -20.0308 -19.9937 -19.9270 -19.8139 -19.7133
   -18.9174 -18.8177  -9.5093  -9.1209  -8.7815  -8.6396  -8.6060  -8.5611
    -8.5123  -8.5034  -8.4371  -8.3801  -8.3682  -8.3046  -8.2650  -8.1645
    -7.9704  -7.7938  -7.7583  -7.6258  -7.3596  -7.3313  -7.1523  -7.0657
    -6.9174  -6.8747  -6.8146  -6.7636  -6.6700  -6.4063  -6.3420  -6.3093
    -6.1765  -6.1234  -6.0907  -5.9183  -5.8966  -5.8523  -5.7978  -5.6633
    -5.6167  -5.3490  -5.0668  -4.9183  -4.9162  -4.7571  -4.6774  -4.4474
    -4.4447  -4.2463  -4.1756  -3.9961  -3.8828  -3.8471  -3.7018  -3.6778
    -3.4899  -3.2971  -3.2543  -3.1416  -3.1091  -3.0394  -3.0274  -2.9806
    -2.9182  -2.8114  -2.6930  -2.5254  -2.4458  -2.2951  -2.1711  -2.1636
    -2.0959  -1.9003  -1.8197  -1.7587  -1.6656  -1.5131  -1.3819  -1.3187
    -0.9850  -0.8110  -0.6481  -0.5803   0.3377   0.4184   0.7020   0.7417
     0.8490   1.0253   1.4769   1.6846   1.7153   1.8647   1.9477   2.1264
     4.1006   4.3194   4.6565   5.1752   5.2256   5.3489   5.5986   5.6893
     5.8208   5.9510   5.9866   6.2495   6.4571   6.6750   6.7833   6.9974
     7.0833   7.1265   7.1592   7.2699   7.4330   7.6953   7.7632   7.8297
     8.0949   8.1302   8.1996   8.2258   8.3531   8.4410   8.6317   8.7766
     8.9578   8.9688   9.1049   9.3781   9.4083   9.5627   9.7920   9.8913
     9.9618  10.0240  10.0737  10.4303  10.5722  10.6806  10.7272  10.7774
    10.9287  11.0095  11.0586  11.1588  11.2363  11.3057  11.3471  11.3542
    11.4169  11.4969  11.6064  11.7165  11.7453  11.8198  11.8728  11.9155
    11.9845  12.0506  12.1440  12.2349  12.3302  12.4236  12.5087  12.5829
    12.6419  12.6592  12.7542  12.7885  12.8041  12.9004  13.0553  13.1219
    13.1475  13.1839  13.2451  13.2947  13.3249  13.4032  13.4333  13.4958
    13.5195  13.6878  13.7443  13.8752  14.0128  14.0134  14.0933  14.2649
    14.3423  14.3672  14.4332  14.5017  14.5139  14.5419  14.5578  14.5975
    14.6453  14.7443  14.7663  14.8260  14.9127  14.9402  14.9629  15.0940
    15.1686  15.2470  15.4131  15.4427  15.5571  15.6333  15.6890  15.8473
    15.9209  15.9905  16.0126  16.0504  16.1798  16.2450  16.3143  16.4378
    16.5237  16.5904  16.6398  16.6556  16.7775  16.8466  16.8930  16.9046
    16.9863  16.9906  17.1357  17.1870  17.1941  17.2678  17.3051  17.4246
    17.4482  17.4544  17.5314  17.7551  17.7892  17.8588  17.9134  17.9137
    18.0107  18.0802  18.1356  18.2274  18.3118  18.3762  18.4276  18.4418
    18.4984  18.5524  18.6352  18.6564  18.6758  18.8010  18.8037  18.8828
    18.9421  18.9830  19.0736  19.2490  19.2517  19.3545  19.4433  19.4806
    19.5626  19.6477  19.6841  19.7601  19.7621  19.8103  19.8756  19.9137
    20.0242  20.0792  20.2776  20.3759  20.5084  20.5233  20.5439  20.6502
    20.7085  20.7607  20.8161  20.9078  20.9482  21.0372  21.0710  21.1959
    21.2363  21.3438  21.3465  21.3864  21.4883  21.6888  21.7700  21.8259
    21.8894  22.0032  22.0122  22.0761

          k =-0.5000 0.0000 0.0000 ( 30524 PWs)   bands (ev):

   -49.4298 -49.4296 -49.4085 -49.4082 -49.3919 -49.3916 -49.2857 -49.2855
   -49.2376 -49.2373 -49.1787 -49.1783 -49.1476 -49.1473 -49.1420 -49.1420
   -49.0708 -49.0708 -49.0622 -49.0622 -48.9617 -48.9614 -48.9518 -48.9514
   -21.3077 -21.3075 -20.8161 -20.8161 -20.6232 -20.6231 -20.4768 -20.4767
   -20.0157 -20.0156 -19.9729 -19.9729 -19.8824 -19.8823 -19.8157 -19.8156
   -18.9118 -18.9118  -9.3140  -9.3136  -9.1859  -9.1858  -9.1284  -9.1282
    -8.5901  -8.5899  -8.4478  -8.4477  -8.3465  -8.3465  -8.2128  -8.2127
    -7.7502  -7.7501  -7.5793  -7.5793  -7.2188  -7.2188  -6.9438  -6.9438
    -6.8279  -6.8277  -6.7276  -6.7275  -6.4480  -6.4477  -6.2635  -6.2634
    -5.9969  -5.9968  -5.7033  -5.7032  -5.6172  -5.6171  -5.5368  -5.5367
    -5.3937  -5.3937  -5.1017  -5.1017  -4.9089  -4.9088  -4.7893  -4.7892
    -4.5847  -4.5847  -4.1424  -4.1424  -3.7715  -3.7715  -3.7286  -3.7285
    -3.3283  -3.3282  -3.2744  -3.2743  -3.2073  -3.2072  -3.0732  -3.0730
    -2.5426  -2.5426  -2.4451  -2.4450  -2.3317  -2.3316  -2.1640  -2.1639
    -1.9285  -1.9285  -1.8414  -1.8413  -1.6538  -1.6537  -1.4126  -1.4125
    -0.9193  -0.9192   0.2614   0.2614   0.4488   0.4491   0.8933   0.8934
     0.9064   0.9065   0.9897   0.9899   1.0104   1.0105   1.8048   1.8049
     4.1490   4.1494   4.5832   4.5832   5.0385   5.0385   5.4386   5.4387
     5.8388   5.8388   6.4779   6.4781   6.7736   6.7737   7.0017   7.0020
     7.6333   7.6333   7.9895   7.9896   8.1139   8.1139   8.1423   8.1424
     8.6156   8.6156   8.6491   8.6491   8.7358   8.7358   8.9937   8.9938
     9.0428   9.0428   9.1894   9.1894   9.2874   9.2874   9.5951   9.5953
     9.6535   9.6536   9.7768   9.7768   9.8702   9.8702  10.0024  10.0024
    10.1878  10.1879  10.4431  10.4431  10.6783  10.6783  10.7754  10.7754
    11.2551  11.2551  11.4613  11.4613  11.5875  11.5876  11.6595  11.6595
    11.7830  11.7831  11.9479  11.9480  12.2230  12.2231  12.4392  12.4393
    12.5405  12.5406  12.7186  12.7187  12.9005  12.9005  13.0111  13.0112
    13.1743  13.1745  13.3695  13.3695  13.4241  13.4241  13.6163  13.6163
    13.7084  13.7085  13.8347  13.8348  13.9909  13.9909  14.1727  14.1727
    14.2213  14.2213  14.2804  14.2804  14.4044  14.4045  14.7357  14.7358
    14.8330  14.8330  15.0046  15.0047  15.1237  15.1238  15.4366  15.4366
    15.8086  15.8088  15.9963  15.9963  16.2221  16.2221  16.2483  16.2483
    16.2818  16.2819  16.3724  16.3724  16.4195  16.4195  16.5889  16.5890
    16.6132  16.6132  16.6588  16.6588  16.7490  16.7490  16.8254  16.8255
    17.0635  17.0636  17.2129  17.2129  17.4340  17.4341  17.6141  17.6141
    17.8054  17.8054  17.9154  17.9154  18.1050  18.1050  18.2700  18.2700
    18.3995  18.3995  18.4707  18.4709  18.7127  18.7127  18.7436  18.7437
    18.8664  18.8664  19.0161  19.0162  19.1333  19.1334  19.2332  19.2332
    19.3558  19.3558  19.4481  19.4481  19.6052  19.6053  19.6334  19.6335
    19.7360  19.7360  19.7944  19.7944  20.0261  20.0262  20.0403  20.0403
    20.1956  20.1957  20.2597  20.2597  20.3124  20.3124  20.4449  20.4450
    20.5842  20.5843  20.7911  20.7911  20.9265  20.9265  20.9725  20.9726
    21.0717  21.0718  21.1157  21.1158  21.2929  21.2930  21.3275  21.3276
    21.3365  21.3366  21.4273  21.4274

          k =-0.5000 0.2417 0.0000 ( 30500 PWs)   bands (ev):

   -49.4299 -49.4296 -49.4086 -49.4083 -49.3919 -49.3916 -49.2852 -49.2847
   -49.2376 -49.2373 -49.1787 -49.1783 -49.1475 -49.1472 -49.1425 -49.1424
   -49.0708 -49.0707 -49.0622 -49.0622 -48.9617 -48.9614 -48.9519 -48.9516
   -21.2925 -21.2922 -20.7571 -20.7568 -20.5606 -20.5603 -20.4663 -20.4662
   -20.1056 -20.1010 -20.0229 -20.0205 -19.9539 -19.9520 -19.7988 -19.7987
   -18.9102 -18.9101  -9.2268  -9.2239  -8.9557  -8.9489  -8.8517  -8.8516
    -8.5863  -8.5796  -8.4571  -8.4555  -8.2408  -8.2326  -8.0960  -8.0959
    -7.8360  -7.7934  -7.6108  -7.5924  -7.2935  -7.2465  -7.0988  -7.0859
    -6.9888  -6.9627  -6.8100  -6.7573  -6.4937  -6.4617  -6.3855  -6.3373
    -6.0368  -6.0220  -5.8936  -5.8794  -5.7676  -5.7494  -5.6713  -5.6658
    -5.5562  -5.5387  -5.3676  -5.3227  -4.9409  -4.8555  -4.7332  -4.6823
    -4.5745  -4.4808  -4.1443  -4.0106  -3.8923  -3.8739  -3.7298  -3.6934
    -3.2438  -3.2388  -3.1263  -3.1051  -2.9287  -2.8894  -2.8567  -2.8211
    -2.7325  -2.6886  -2.5504  -2.5159  -2.2516  -2.2417  -2.1204  -2.1201
    -1.9258  -1.9220  -1.8387  -1.8050  -1.7321  -1.7176  -1.5496  -1.5409
    -0.7893  -0.7891   0.1678   0.1751   0.2761   0.2768   0.5190   0.5194
     0.7056   0.7108   1.2176   1.2238   1.4890   1.4909   1.8871   1.8910
     4.3672   4.3779   4.7335   4.7336   5.2594   5.2600   5.6210   5.6293
     5.9590   5.9876   6.2500   6.2607   6.6611   6.6688   6.9713   6.9732
     7.0451   7.0580   7.1366   7.1447   7.5475   7.5639   7.8327   7.8395
     8.0966   8.1059   8.2815   8.3096   8.5299   8.5754   8.7463   8.7992
     9.0149   9.1171   9.4442   9.4545   9.6770   9.6983   9.8555   9.8666
     9.9708   9.9829  10.1561  10.1709  10.4173  10.4334  10.6027  10.6056
    10.7174  10.7192  10.9213  10.9218  10.9497  10.9531  11.1839  11.1926
    11.4088  11.4183  11.6499  11.6525  11.7714  11.7988  11.9272  11.9512
    12.0191  12.0312  12.1247  12.1285  12.3197  12.3333  12.5526  12.5697
    12.7097  12.7155  12.9205  12.9372  13.0241  13.0363  13.1273  13.1345
    13.2407  13.2440  13.3346  13.3375  13.5168  13.5170  13.6105  13.6117
    13.7949  13.8080  13.8832  13.8853  14.0293  14.0516  14.2120  14.2254
    14.2937  14.3318  14.4039  14.4256  14.5108  14.5773  14.6379  14.6661
    14.7635  14.7720  14.9219  14.9291  15.0123  15.0160  15.1179  15.1262
    15.2396  15.2496  15.3952  15.4049  15.4722  15.4760  15.8167  15.8214
    15.9511  15.9584  16.1002  16.1153  16.1731  16.1833  16.3346  16.3461
    16.3946  16.4186  16.4714  16.4731  16.5999  16.6178  16.6960  16.7154
    16.8476  16.8605  16.9911  16.9925  17.0259  17.1222  17.3008  17.3176
    17.4609  17.4820  17.6504  17.6564  17.7763  17.7876  17.8258  17.9253
    17.9715  18.0046  18.3036  18.3043  18.3431  18.3802  18.4532  18.4571
    18.5511  18.5569  18.7119  18.7386  18.7795  18.8150  18.9295  18.9402
    19.0347  19.0606  19.1449  19.1568  19.3626  19.3903  19.5023  19.5039
    19.5631  19.5787  19.6773  19.6883  19.8491  19.8588  20.0761  20.0802
    20.2026  20.2227  20.3338  20.3583  20.4577  20.4595  20.5658  20.6535
    20.7393  20.7528  20.8636  20.8930  21.0431  21.0762  21.2993  21.3041
    21.4384  21.4477  21.5342  21.5513  21.6878  21.7107  21.7994  21.8061
    21.8891  21.9298  22.1116  22.1242

          k =-0.5000-0.4833 0.0000 ( 30496 PWs)   bands (ev):

   -49.4299 -49.4297 -49.4087 -49.4085 -49.3919 -49.3916 -49.2846 -49.2843
   -49.2376 -49.2373 -49.1787 -49.1783 -49.1473 -49.1470 -49.1430 -49.1429
   -49.0707 -49.0706 -49.0622 -49.0622 -48.9617 -48.9614 -48.9522 -48.9519
   -21.2778 -21.2777 -20.6581 -20.6579 -20.5609 -20.5608 -20.3224 -20.3224
   -20.2431 -20.2430 -20.1812 -20.1812 -19.9569 -19.9568 -19.7947 -19.7946
   -18.9087 -18.9087  -9.1894  -9.1887  -8.6302  -8.6301  -8.5162  -8.5161
    -8.4738  -8.4736  -8.3909  -8.3908  -8.0670  -8.0670  -7.9433  -7.9432
    -7.8779  -7.8779  -7.7862  -7.7862  -7.5615  -7.5614  -7.2044  -7.2043
    -6.9955  -6.9955  -6.7246  -6.7244  -6.4861  -6.4859  -6.4015  -6.4013
    -6.3363  -6.3363  -6.3190  -6.3189  -6.0244  -6.0243  -5.9709  -5.9708
    -5.6459  -5.6459  -5.0816  -5.0816  -4.8909  -4.8908  -4.5778  -4.5777
    -4.3419  -4.3419  -4.2727  -4.2726  -3.7748  -3.7747  -3.4775  -3.4773
    -3.3019  -3.3018  -3.1034  -3.1033  -2.9741  -2.9741  -2.8682  -2.8680
    -2.5168  -2.5168  -2.4907  -2.4906  -2.0883  -2.0882  -2.0307  -2.0306
    -1.8699  -1.8699  -1.8610  -1.8608  -1.7605  -1.7604  -1.6635  -1.6634
    -0.7029  -0.7028  -0.1683  -0.1683  -0.0113  -0.0112   0.5033   0.5034
     0.7410   0.7411   1.4469   1.4470   1.6315   1.6315   1.9767   1.9768
     4.7677   4.7683   4.9632   4.9632   5.3849   5.3850   5.9027   5.9027
     5.9506   5.9506   6.0967   6.0967   6.3141   6.3142   6.5656   6.5657
     6.7355   6.7356   7.0396   7.0396   7.3941   7.3942   7.5305   7.5306
     7.7482   7.7482   7.9085   7.9085   8.3916   8.3917   8.8187   8.8187
     8.9873   8.9873   9.2173   9.2174   9.4953   9.4957   9.9714   9.9715
    10.1729  10.1729  10.4201  10.4201  10.7222  10.7223  11.0444  11.0446
    11.1900  11.1901  11.3366  11.3367  11.3858  11.3858  11.7755  11.7755
    11.8962  11.8962  12.1108  12.1109  12.2491  12.2491  12.5060  12.5060
    12.5415  12.5416  12.6474  12.6474  12.7968  12.7969  12.8293  12.8293
    12.9011  12.9012  13.1334  13.1335  13.2144  13.2145  13.2691  13.2691
    13.4459  13.4459  13.5031  13.5031  13.5848  13.5848  13.6158  13.6158
    13.7291  13.7291  13.7842  13.7842  13.9716  13.9717  14.0079  14.0080
    14.0778  14.0779  14.1487  14.1487  14.3046  14.3046  14.3255  14.3256
    14.4963  14.4963  14.5886  14.5887  14.7434  14.7434  14.9501  14.9501
    15.1014  15.1014  15.1352  15.1352  15.1880  15.1881  15.2761  15.2761
    15.4149  15.4150  15.5948  15.5948  15.6207  15.6207  15.7899  15.7899
    15.9113  15.9114  15.9534  15.9534  16.1959  16.1959  16.4038  16.4038
    16.5329  16.5330  16.6793  16.6794  16.9113  16.9113  16.9688  16.9688
    17.1125  17.1126  17.3330  17.3331  17.4907  17.4908  17.6394  17.6395
    17.9875  17.9876  18.0088  18.0088  18.1363  18.1364  18.2653  18.2653
    18.3705  18.3706  18.5878  18.5879  18.8120  18.8121  19.1482  19.1483
    19.3016  19.3016  19.4662  19.4662  19.5578  19.5578  19.6373  19.6374
    20.1018  20.1021  20.1859  20.1860  20.2550  20.2550  20.6191  20.6191
    20.7033  20.7034  20.7760  20.7760  20.8428  20.8429  20.9731  20.9731
    21.0655  21.0655  21.1388  21.1388  21.2399  21.2399  21.3450  21.3451
    21.4524  21.4524  21.4831  21.4832  21.5677  21.5678  21.6052  21.6052
    21.6345  21.6345  21.8010  21.8012

          k =-0.2500 0.2417 0.0000 ( 30481 PWs)   bands (ev):

   -49.4574 -49.4275 -49.4178 -49.3943 -49.3892 -49.3749 -49.2892 -49.2794
   -49.2770 -49.1974 -49.1877 -49.1815 -49.1758 -49.1450 -49.1403 -49.1072
   -49.1064 -49.0685 -49.0578 -49.0316 -48.9677 -48.9580 -48.9554 -48.9455
   -21.4681 -21.1784 -20.9338 -20.8023 -20.6089 -20.5046 -20.3750 -20.3322
   -20.1776 -20.1609 -20.0580 -19.9918 -19.9389 -19.8987 -19.7837 -19.7123
   -18.9172 -18.8208  -9.5378  -9.3087  -9.2111  -9.0985  -8.6817  -8.6076
    -8.5584  -8.5581  -8.5263  -8.4188  -8.3399  -8.3171  -8.2203  -8.0472
    -7.9653  -7.8623  -7.7428  -7.6938  -7.3952  -7.3472  -7.2239  -7.1465
    -7.0324  -6.6334  -6.5977  -6.4554  -6.3573  -6.2345  -6.1927  -6.0894
    -6.0781  -6.0191  -5.9299  -5.9167  -5.7351  -5.6973  -5.5893  -5.5783
    -5.3208  -5.2155  -5.1832  -4.9690  -4.9542  -4.7438  -4.7437  -4.6918
    -4.5273  -4.4366  -4.3167  -4.0488  -3.9969  -3.7198  -3.5824  -3.5357
    -3.4921  -3.3504  -3.2203  -3.1726  -3.1054  -3.0598  -3.0364  -2.9366
    -2.9161  -2.8339  -2.7347  -2.6956  -2.5503  -2.5061  -2.3678  -2.2086
    -1.8583  -1.8527  -1.8116  -1.7546  -1.6973  -1.5090  -1.3391  -1.2921
    -1.0295  -0.7766  -0.4359  -0.2146   0.3017   0.4108   0.4221   0.7544
     0.9747   1.2367   1.3836   1.4651   1.6575   1.7018   1.8159   2.0300
     3.6033   3.9954   4.5247   4.9231   5.2801   5.4192   5.5063   5.8014
     5.9799   6.2025   6.3412   6.4178   6.4234   6.6784   6.8311   6.9818
     7.1925   7.3668   7.4048   7.6194   7.6810   7.8028   7.9698   8.0139
     8.0673   8.2634   8.3716   8.4004   8.6304   8.7609   8.7734   8.8390
     8.8886   9.1787   9.3471   9.3752   9.5147   9.6429   9.6521   9.6855
     9.8103   9.9018  10.1189  10.1665  10.2289  10.2678  10.3388  10.4826
    10.5880  10.6219  10.7589  10.7962  10.8567  10.9539  10.9912  11.1208
    11.2965  11.3020  11.3782  11.4587  11.5074  11.5867  11.6378  11.6906
    11.8170  11.9915  12.0450  12.0574  12.1527  12.1629  12.2199  12.3289
    12.4246  12.5102  12.5831  12.6040  12.6949  12.7774  12.8536  12.9759
    12.9948  13.0742  13.1441  13.2176  13.2424  13.3479  13.4123  13.5270
    13.5825  13.6889  13.7693  13.7793  13.8377  14.0094  14.0325  14.0593
    14.1454  14.2572  14.3339  14.4457  14.5322  14.5872  14.6278  14.6872
    14.7603  15.0367  15.1991  15.2616  15.3381  15.4052  15.4551  15.4765
    15.5095  15.6064  15.6866  15.7127  15.7903  15.8123  15.9689  15.9728
    16.0515  16.0563  16.1722  16.2151  16.2879  16.3599  16.3697  16.4665
    16.5124  16.5706  16.5850  16.6031  16.7068  16.7953  16.9636  16.9892
    17.1315  17.2127  17.2296  17.3074  17.3369  17.4386  17.4847  17.5396
    17.5690  17.6217  17.7482  17.7741  17.8727  17.8750  18.0723  18.0738
    18.0868  18.1501  18.2435  18.3583  18.4143  18.4747  18.5038  18.6619
    18.6674  18.8224  18.8882  18.9213  18.9809  19.0374  19.0413  19.1146
    19.1995  19.2034  19.2981  19.4138  19.4324  19.5605  19.6315  19.7185
    19.7375  19.8824  19.8850  20.0367  20.1373  20.1893  20.2781  20.3229
    20.4608  20.5083  20.5926  20.6326  20.6673  20.7049  20.8156  20.8830
    20.9320  21.0047  21.0942  21.1251  21.1661  21.2711  21.3041  21.3081
    21.3800  21.4330  21.5523  21.6388  21.6794  21.7180  21.7876  21.8204
    21.8476  21.9171  22.0136  22.0489

     the Fermi energy is    -1.7097 ev

!    total energy              =   -1948.25206949 Ry
     Harris-Foulkes estimate   =   -1948.25206978 Ry
     estimated scf accuracy    <       0.00000033 Ry

     The total energy is the sum of the following terms:

     one-electron contribution =  -22563.69622046 Ry
     hartree contribution      =   11326.75408261 Ry
     xc contribution           =    -364.98052785 Ry
     ewald contribution        =    9653.67187988 Ry
     smearing contrib. (-TS)   =      -0.00128367 Ry

     convergence has been achieved in  25 iterations

     Forces acting on atoms (Ry/au):


     negative rho (up, down):  0.689E+00 0.000E+00
     atom    1 type  1   force =    -0.00678486   -0.01421606   -0.00055430
     atom    2 type  1   force =     0.00015527    0.00740749    0.00074977
     atom    3 type  2   force =    -0.00026663    0.00314006    0.00026716
     atom    4 type  2   force =     0.00856152    0.00904039   -0.00009784
     atom    5 type  1   force =    -0.00056935   -0.03064102   -0.00078162
     atom    6 type  1   force =     0.00152140    0.02757936   -0.00027867
     atom    7 type  1   force =    -0.00020318   -0.00018785   -0.00013457
     atom    8 type  1   force =    -0.00271019   -0.00050425    0.00081619
     atom    9 type  2   force =     0.00127553   -0.00024536    0.00002635
     atom   10 type  2   force =     0.00004999   -0.00206689    0.00080002
     atom   11 type  1   force =    -0.00008375    0.00050955   -0.00026930
     atom   12 type  1   force =     0.00031475    0.00030772   -0.00025990
     atom   13 type  1   force =    -0.00081457   -0.00004817   -0.00106857
     atom   14 type  1   force =    -0.00682511   -0.01422586   -0.00061935
     atom   15 type  1   force =     0.00014998    0.00757568    0.00054741
     atom   16 type  2   force =    -0.00023257    0.00313687    0.00026901
     atom   17 type  2   force =     0.00855864    0.00903923   -0.00008166
     atom   18 type  1   force =    -0.00050058   -0.03064225   -0.00079064
     atom   19 type  1   force =     0.00158948    0.02757944   -0.00028559
     atom   20 type  1   force =    -0.00022006   -0.00018482   -0.00004725
     atom   21 type  1   force =    -0.00278777   -0.00050444    0.00086190
     atom   22 type  2   force =     0.00129088   -0.00024680    0.00000511
     atom   23 type  2   force =     0.00003311   -0.00206698    0.00075213
     atom   24 type  1   force =    -0.00016299    0.00047811   -0.00026086
     atom   25 type  1   force =     0.00023558    0.00033911   -0.00025196
     atom   26 type  1   force =    -0.00089592   -0.00004858   -0.00106528
     atom   27 type  3   force =    -0.00002638   -0.00044038    0.00038953
     atom   28 type  3   force =    -0.00002613   -0.00061696    0.00048491
     atom   29 type  3   force =    -0.00030884    0.00037788    0.00043747
     atom   30 type  3   force =    -0.00031725    0.00037576    0.00044040

     Total force =     0.003181     Total SCF correction =     0.002222
     SCF correction compared to forces is large: reduce conv_thr to get better values

     BFGS Geometry Optimization

     number of scf cycles    =   1
     number of bfgs steps    =   0

     energy   new            =   -1948.2520694870 Ry

     new trust radius        =       0.0010685671 bohr
     new conv_thr            =       0.0000010000 Ry


ATOMIC_POSITIONS (crystal)
O0       0.000000000   0.000000000   0.378648904    0   0   1
O0       0.000000000   0.500000000   0.400485009    0   0   1
Rh1      0.250000000   0.500000000   0.451985348    0   0   1
Rh1      0.000000000   0.000000000   0.453198041    0   0   1
O0       0.250000000   0.810000000   0.452794353    0   0   1
O0       0.250000000   0.190000000   0.452584422    0   0   1
O0       0.000000000   0.500000000   0.498477306    0   0   1
O0       0.000000000   0.000000000   0.528796339    0   0   1
Rh1      0.250000000   0.000000000   0.576450528    0   0   1
Rh1      0.000000000   0.500000000   0.571206015    0   0   1
O0       0.250000000   0.690000000   0.577894609    0   0   1
O0       0.250000000   0.310000000   0.577914797    0   0   1
O0       0.000000000   0.000000000   0.621678609    0   0   1
O0       0.500000000   0.000000000   0.378647602    0   0   1
O0       0.500000000   0.500000000   0.400490958    0   0   1
Rh1      0.750000000   0.500000000   0.451985385    0   0   1
Rh1      0.500000000   0.000000000   0.453198365    0   0   1
O0       0.750000000   0.810000000   0.452794173    0   0   1
O0       0.750000000   0.190000000   0.452584283    0   0   1
O0       0.500000000   0.500000000   0.498479054    0   0   1
O0       0.500000000   0.000000000   0.528797254    0   0   1
Rh1      0.750000000   0.000000000   0.576450102    0   0   1
Rh1      0.500000000   0.500000000   0.571205056    0   0   1
O0       0.750000000   0.690000000   0.577894778    0   0   1
O0       0.750000000   0.310000000   0.577914956    0   0   1
O0       0.500000000   0.000000000   0.621678675    0   0   1
H2      -0.000072244   0.638973784   0.383977798
H2       0.499927777   0.638959262   0.383979707
H2       0.148443725   0.032531077   0.367828757
H2       0.648443010   0.032530902   0.367828816


     Check: negative starting charge=   -0.643046
     NEW-OLD atomic charge density approx. for the potential

     Check: negative/imaginary core charge=   -0.000002    0.000000
     Check: negative starting charge=   -0.643011

     negative rho (up, down):  0.689E+00 0.000E+00

     total cpu time spent up to now is     5529.9 secs

     per-process dynamical memory:   222.7 Mb

     Self-consistent Calculation

     iteration #  1     ecut=    40.00 Ry     beta=0.30
     Davidson diagonalization with overlap
     ethr =  1.00E-06,  avg # of iterations =  2.0

     negative rho (up, down):  0.689E+00 0.000E+00

     total cpu time spent up to now is     5746.2 secs

     total energy              =   -1948.25186960 Ry
     Harris-Foulkes estimate   =   -1948.25208738 Ry
     estimated scf accuracy    <       0.00043612 Ry

     iteration #  2     ecut=    40.00 Ry     beta=0.30
     Davidson diagonalization with overlap
     ethr =  1.88E-07,  avg # of iterations =  2.9

     negative rho (up, down):  0.689E+00 0.000E+00

     total cpu time spent up to now is     5956.3 secs

     total energy              =   -1948.25029499 Ry
     Harris-Foulkes estimate   =   -1948.25375510 Ry
     estimated scf accuracy    <       0.09566940 Ry

     iteration #  3     ecut=    40.00 Ry     beta=0.30
     Davidson diagonalization with overlap
     c_bands:  1 eigenvalues not converged
     ethr =  1.88E-07,  avg # of iterations =  4.9

     negative rho (up, down):  0.689E+00 0.000E+00

     total cpu time spent up to now is     6198.0 secs

     total energy              =   -1948.25205818 Ry
     Harris-Foulkes estimate   =   -1948.25209755 Ry
     estimated scf accuracy    <       0.00043744 Ry

     iteration #  4     ecut=    40.00 Ry     beta=0.30
     Davidson diagonalization with overlap
     ethr =  1.88E-07,  avg # of iterations =  1.0

     negative rho (up, down):  0.689E+00 0.000E+00

     total cpu time spent up to now is     6386.0 secs

     total energy              =   -1948.25207744 Ry
     Harris-Foulkes estimate   =   -1948.25207794 Ry
     estimated scf accuracy    <       0.00000498 Ry

     iteration #  5     ecut=    40.00 Ry     beta=0.30
     Davidson diagonalization with overlap
     ethr =  2.15E-09,  avg # of iterations =  1.0

     negative rho (up, down):  0.689E+00 0.000E+00

     total cpu time spent up to now is     6573.8 secs

     total energy              =   -1948.25207760 Ry
     Harris-Foulkes estimate   =   -1948.25207792 Ry
     estimated scf accuracy    <       0.00000367 Ry

     iteration #  6     ecut=    40.00 Ry     beta=0.30
     Davidson diagonalization with overlap
     ethr =  1.58E-09,  avg # of iterations =  1.0

     negative rho (up, down):  0.689E+00 0.000E+00

     total cpu time spent up to now is     6760.5 secs

     End of self-consistent calculation

          k = 0.0000 0.0000 0.0000 ( 30479 PWs)   bands (ev):

   -49.4714 -49.4267 -49.4159 -49.3973 -49.3887 -49.3598 -49.2952 -49.2897
   -49.2754 -49.2047 -49.1829 -49.1824 -49.1745 -49.1454 -49.1398 -49.1228
   -49.0894 -49.0712 -49.0561 -49.0165 -48.9718 -48.9601 -48.9542 -48.9426
   -21.5977 -21.1601 -21.0799 -20.9629 -20.5214 -20.4890 -20.3143 -20.2330
   -20.1944 -20.1690 -20.0937 -20.0032 -19.9603 -19.7429 -19.6829 -19.6613
   -18.8907 -18.7745  -9.8903  -9.7859  -9.6332  -8.9665  -8.7519  -8.6631
    -8.5755  -8.5647  -8.4204  -8.4201  -8.3765  -8.2415  -8.2167  -8.1818
    -7.9841  -7.9791  -7.8619  -7.8359  -7.6121  -7.5129  -7.3051  -7.1059
    -6.9794  -6.6800  -6.5869  -6.5344  -6.4725  -6.0824  -5.9041  -5.7897
    -5.6762  -5.6699  -5.4884  -5.4709  -5.4078  -5.3299  -5.3160  -5.2634
    -5.1786  -5.0832  -4.9022  -4.8194  -4.7068  -4.6758  -4.5227  -4.4753
    -4.4521  -4.4404  -4.2258  -4.2052  -3.9129  -3.8375  -3.7875  -3.7042
    -3.6596  -3.6527  -3.5550  -3.4333  -3.2329  -3.2017  -3.1656  -3.1396
    -3.1041  -3.0872  -2.9668  -2.8286  -2.5814  -2.4655  -2.4510  -2.2785
    -2.1394  -1.9216  -1.6931  -1.6493  -1.6064  -1.4407  -1.3704  -1.1675
    -1.0939  -0.9730   0.0146   0.1529   0.2935   0.3991   0.4390   0.4766
     0.8543   0.8748   1.1192   1.7529   1.8413   1.8679   2.0515   2.1962
     2.9936   3.5121   4.0414   4.4710   4.7879   5.6024   5.7857   6.0275
     6.1716   6.6927   6.7772   6.8319   7.0634   7.2258   7.2555   7.4699
     7.6349   7.6832   7.7522   7.8453   7.9147   7.9826   7.9833   8.0797
     8.1437   8.1739   8.2008   8.4020   8.4251   8.5369   8.5754   8.6158
     8.7849   8.8474   8.9893   9.1332   9.1441   9.2792   9.4264   9.4916
     9.6080   9.6309   9.8647  10.0084  10.0413  10.2991  10.4650  10.4759
    10.6329  10.6361  10.6799  10.8243  10.9476  11.0478  11.0517  11.0644
    11.0762  11.1339  11.2060  11.2227  11.5418  11.5632  11.5888  11.6000
    11.6904  11.7205  11.7732  11.8348  11.8962  11.9005  11.9832  12.0599
    12.0962  12.1246  12.2018  12.2178  12.3078  12.3659  12.4234  12.4964
    12.6301  12.6398  12.6914  12.7779  12.8655  12.9580  12.9867  13.1415
    13.3246  13.4428  13.4521  13.5166  13.6090  13.7317  13.7497  13.8713
    14.0483  14.0535  14.1970  14.2008  14.2979  14.3953  14.5309  14.7223
    14.7772  14.8684  14.9332  15.0577  15.1397  15.1436  15.3117  15.3849
    15.5067  15.5727  15.6059  15.6873  15.7567  15.8519  15.8609  16.0886
    16.1639  16.2226  16.4084  16.4545  16.6006  16.6158  16.9388  16.9424
    16.9440  17.0097  17.0755  17.0902  17.2225  17.2450  17.5194  17.5803
    17.6455  17.7249  17.8998  17.9370  17.9894  18.0904  18.1698  18.1773
    18.2346  18.3556  18.3790  18.3901  18.4020  18.5370  18.6133  18.6369
    18.6988  18.7090  18.7180  18.8405  18.9859  18.9955  19.1001  19.2298
    19.2392  19.2958  19.4432  19.4876  19.5349  19.5669  19.6103  19.6567
    19.6959  19.7099  19.7901  19.8521  19.8691  19.9431  20.0033  20.0748
    20.0940  20.2219  20.2654  20.3763  20.4124  20.4644  20.4963  20.5304
    20.5564  20.7347  20.8202  21.0204  21.0426  21.0567  21.1161  21.2029
    21.2761  21.4207  21.4396  21.4776  21.5575  21.6091  21.6406  21.7328
    21.7821  21.9655  21.9660  22.0454  22.1019  22.1686  22.1946  22.2240
    22.2757  22.3306  22.4025  22.4149

          k = 0.0000 0.2417 0.0000 ( 30538 PWs)   bands (ev):

   -49.4718 -49.4267 -49.4160 -49.3968 -49.3896 -49.3596 -49.2955 -49.2885
   -49.2758 -49.2043 -49.1829 -49.1824 -49.1746 -49.1466 -49.1399 -49.1228
   -49.0895 -49.0713 -49.0562 -49.0165 -48.9718 -48.9604 -48.9543 -48.9427
   -21.5503 -21.1587 -21.0169 -20.9034 -20.5191 -20.4962 -20.4007 -20.3108
   -20.2234 -20.1009 -20.0269 -20.0253 -19.9595 -19.8357 -19.7363 -19.6835
   -18.8904 -18.7702  -9.6899  -9.4609  -9.3715  -9.1120  -8.7693  -8.6115
    -8.5648  -8.5542  -8.5327  -8.3608  -8.3267  -8.2326  -8.2127  -8.1714
    -8.1399  -7.9851  -7.9329  -7.7442  -7.5096  -7.2378  -7.1145  -6.9851
    -6.7951  -6.6187  -6.5645  -6.5130  -6.4686  -6.4498  -6.2525  -6.1638
    -5.9618  -5.6395  -5.6222  -5.6117  -5.5950  -5.4804  -5.2599  -5.2560
    -5.1846  -5.1541  -5.0391  -5.0114  -4.9242  -4.7141  -4.6880  -4.5886
    -4.4755  -4.4223  -4.1532  -4.1501  -3.9682  -3.6974  -3.6302  -3.5887
    -3.4305  -3.4045  -3.2946  -3.2750  -3.2293  -3.1432  -3.1412  -3.1378
    -3.1366  -3.1009  -2.9664  -2.9537  -2.9058  -2.7871  -2.4679  -2.2499
    -2.1383  -1.7188  -1.7171  -1.6065  -1.4606  -1.3979  -1.3184  -1.1870
    -1.1202  -0.8411  -0.6729  -0.4369   0.1872   0.3949   0.4143   0.9652
     1.1183   1.5016   1.6673   1.6793   1.7522   1.8040   1.9353   2.1980
     3.2895   3.7098   4.2732   4.6759   5.0121   5.2260   5.7468   5.9164
     6.0806   6.1637   6.3313   6.5638   6.8031   6.9351   6.9632   7.1239
     7.3685   7.4954   7.5400   7.6953   7.7377   8.0510   8.1163   8.1875
     8.3364   8.4017   8.5471   8.5535   8.6915   8.7860   8.8602   8.9266
     9.0735   9.1299   9.2512   9.3753   9.4410   9.5188   9.5525   9.6279
     9.6665   9.7804   9.9128   9.9463  10.0210  10.0523  10.0713  10.2394
    10.3313  10.3430  10.3823  10.6066  10.6543  10.7036  10.7387  10.8677
    10.9359  11.0531  11.1096  11.1483  11.2485  11.2901  11.3971  11.5127
    11.7457  11.8479  12.0113  12.0390  12.0407  12.1278  12.2417  12.2563
    12.2790  12.4448  12.4628  12.5367  12.5743  12.6982  12.8109  12.9177
    12.9366  12.9857  13.0748  13.1919  13.3412  13.4945  13.5153  13.5228
    13.6936  13.7307  13.7421  13.8389  13.8637  13.9146  14.0052  14.0498
    14.0691  14.1277  14.2822  14.3865  14.4006  14.4679  14.6496  14.6870
    14.7138  14.8538  14.9259  15.1257  15.1606  15.1861  15.2329  15.3106
    15.3873  15.5412  15.6623  15.6791  15.7119  15.8077  15.8126  15.9610
    15.9914  16.0870  16.1612  16.3136  16.3471  16.4511  16.4856  16.6001
    16.6577  16.7596  16.8840  16.9294  16.9991  17.0358  17.1178  17.1371
    17.2554  17.3141  17.4009  17.5181  17.5202  17.7039  17.8886  17.9943
    18.0324  18.0391  18.2016  18.3640  18.3658  18.3900  18.4357  18.4482
    18.5099  18.6965  18.7302  18.7899  18.8356  18.8804  18.9696  19.0000
    19.1337  19.1987  19.2174  19.3176  19.4349  19.4880  19.5235  19.5843
    19.5999  19.6801  19.7180  19.7364  19.8124  19.8268  19.8367  19.8760
    19.9236  20.0070  20.0339  20.0446  20.1619  20.2222  20.3200  20.3948
    20.3955  20.4318  20.5404  20.7081  20.7687  20.8539  20.8729  20.8930
    20.9879  21.0201  21.0986  21.1222  21.1432  21.1705  21.2404  21.2690
    21.3426  21.4593  21.5738  21.6198  21.6558  21.6692  21.7091  21.7269
    21.8639  21.8970  21.9750  21.9867

          k = 0.0000-0.4833 0.0000 ( 30492 PWs)   bands (ev):

   -49.4720 -49.4266 -49.4160 -49.3962 -49.3902 -49.3594 -49.2955 -49.2871
   -49.2761 -49.2037 -49.1828 -49.1823 -49.1746 -49.1477 -49.1397 -49.1226
   -49.0894 -49.0713 -49.0561 -49.0165 -48.9718 -48.9607 -48.9542 -48.9428
   -21.5009 -21.1574 -20.9546 -20.8042 -20.5167 -20.4650 -20.4536 -20.3709
   -20.3563 -20.0533 -20.0379 -19.9800 -19.9554 -19.9492 -19.7873 -19.6840
   -18.8901 -18.7667  -9.6601  -9.2303  -8.9508  -8.7679  -8.7597  -8.7384
    -8.5584  -8.5562  -8.5023  -8.2952  -8.2627  -8.2069  -8.1829  -8.1564
    -7.9912  -7.9899  -7.9684  -7.8006  -7.3061  -7.2801  -7.1924  -7.0827
    -6.9922  -6.9226  -6.8445  -6.4865  -6.4032  -6.3520  -6.3198  -6.0877
    -5.9768  -5.8647  -5.8536  -5.8344  -5.7589  -5.6693  -5.6385  -5.2693
    -5.1504  -5.1317  -5.1050  -4.9788  -4.9065  -4.6330  -4.5336  -4.4474
    -4.3609  -4.3032  -4.1859  -4.1751  -4.0340  -3.7395  -3.6459  -3.6336
    -3.5590  -3.5269  -3.4548  -3.4195  -3.2724  -3.2176  -3.2136  -3.1386
    -3.0841  -2.9676  -2.7656  -2.7519  -2.6970  -2.5937  -2.3708  -2.2058
    -2.0898  -2.0411  -1.7953  -1.6817  -1.3940  -1.3610  -1.2744  -1.1720
    -1.1397  -1.0264  -0.8718  -0.5819   0.2156   0.4297   0.7263   1.1164
     1.1839   1.4750   1.4785   1.6936   1.8536   1.9772   2.1992   2.2139
     3.8306   4.0922   4.3870   4.9237   4.9750   5.0784   5.3476   5.5498
     5.7029   5.9482   6.4067   6.4837   6.5153   6.6885   6.8780   6.9280
     7.2738   7.3572   7.5132   7.6115   7.8127   7.8820   8.1322   8.5219
     8.6711   8.6807   8.7100   8.7146   8.7597   8.8495   8.9681   8.9891
     9.0037   9.0697   9.1323   9.1859   9.2128   9.3247   9.4145   9.4801
     9.4946   9.5474   9.7606   9.8550   9.9399  10.0425  10.0608  10.3349
    10.3863  10.3946  10.4078  10.7110  10.7600  10.9966  11.0162  11.1397
    11.2626  11.2879  11.3167  11.3355  11.3898  11.6079  11.6258  11.6672
    11.7620  11.8235  11.9803  12.1185  12.2013  12.2025  12.3402  12.3806
    12.5341  12.6072  12.6637  12.7620  12.7820  12.8751  12.8903  12.9660
    13.0059  13.1719  13.1927  13.2537  13.3057  13.3769  13.3818  13.4258
    13.5965  13.7042  13.7336  13.7759  13.9865  14.0557  14.0831  14.1340
    14.1418  14.1588  14.4006  14.4384  14.4571  14.7420  14.7799  14.9867
    15.0786  15.1220  15.1748  15.2807  15.3662  15.4347  15.4700  15.5058
    15.5294  15.6530  15.7221  15.8694  15.8750  15.9154  16.0153  16.0727
    16.1827  16.2277  16.2890  16.3039  16.3682  16.3789  16.4210  16.4222
    16.5139  16.6735  16.7195  16.7915  16.8495  16.8913  16.8931  17.0495
    17.1085  17.2162  17.2534  17.3455  17.4078  17.4554  17.4838  17.5610
    17.6456  17.7520  17.7627  17.8045  17.8046  17.8798  17.9094  17.9184
    18.1405  18.1534  18.2102  18.2853  18.2936  18.3032  18.4316  18.5038
    18.5714  18.5900  18.6355  18.8526  18.8711  19.1127  19.2747  19.3398
    19.4801  19.5744  19.5883  19.6080  19.6156  19.6182  19.8322  19.8995
    19.9685  20.1069  20.1535  20.1799  20.2897  20.2909  20.3514  20.3608
    20.4196  20.4798  20.5005  20.5208  20.5478  20.5626  20.5888  20.6706
    20.7029  20.7435  20.7675  20.7715  20.8849  20.9493  21.0592  21.0896
    21.1314  21.1716  21.2295  21.3469  21.4284  21.4577  21.4949  21.5150
    21.5228  21.5327  21.5656  21.5768

          k = 0.2500 0.0000 0.0000 ( 30502 PWs)   bands (ev):

   -49.4560 -49.4260 -49.4162 -49.3960 -49.3901 -49.3740 -49.2889 -49.2791
   -49.2782 -49.1994 -49.1881 -49.1810 -49.1753 -49.1445 -49.1407 -49.1080
   -49.1064 -49.0690 -49.0583 -49.0322 -48.9692 -48.9575 -48.9568 -48.9452
   -21.5069 -21.1824 -20.9980 -20.8682 -20.6229 -20.4978 -20.3857 -20.3420
   -20.1355 -20.1128 -20.0331 -19.9583 -19.9516 -19.8117 -19.7274 -19.7117
   -18.9198 -18.8262  -9.7173  -9.6179  -9.4856  -9.0667  -8.7592  -8.6504
    -8.6424  -8.5535  -8.5342  -8.4559  -8.3814  -8.3694  -8.1444  -8.0260
    -7.9137  -7.9095  -7.7603  -7.7270  -7.4658  -7.3628  -7.3569  -7.1822
    -7.0213  -6.6701  -6.4609  -6.3910  -6.2445  -6.1940  -6.1280  -5.9613
    -5.9203  -5.8854  -5.7963  -5.7180  -5.6259  -5.5025  -5.3452  -5.2644
    -5.1308  -5.0556  -5.0126  -4.9967  -4.9001  -4.7187  -4.7048  -4.6726
    -4.5739  -4.5373  -4.4136  -4.1901  -4.0079  -3.8508  -3.7066  -3.5708
    -3.5193  -3.4603  -3.3873  -3.2727  -3.2432  -3.1826  -3.1797  -2.9722
    -2.9189  -2.7481  -2.6620  -2.5406  -2.4159  -2.4070  -2.3440  -2.1638
    -2.1229  -1.9102  -1.8578  -1.7969  -1.6639  -1.4974  -1.2644  -1.1582
    -1.0987  -1.0214   0.1306   0.2505   0.3734   0.4383   0.5368   0.5732
     0.6938   0.9296   1.0249   1.5328   1.5547   1.6581   1.7144   2.0594
     3.3340   3.8102   4.2940   4.7201   5.0642   5.2307   5.6847   5.8383
     6.0484   6.2322   6.3204   6.5558   6.9351   7.0076   7.3105   7.3872
     7.4664   7.4865   7.7026   7.8876   7.8897   7.9378   8.0162   8.1897
     8.3235   8.3427   8.4511   8.5071   8.6031   8.7419   8.8247   8.9864
     9.0416   9.0592   9.2245   9.2387   9.3802   9.4198   9.6353   9.6627
     9.7868   9.8690   9.8937   9.9775  10.0368  10.1641  10.2028  10.2237
    10.2769  10.3776  10.4503  10.5202  10.6948  10.7737  10.8289  10.8983
    10.9305  11.0849  11.1493  11.2204  11.2251  11.2515  11.3068  11.3576
    11.5157  11.6186  11.8453  11.8685  12.0136  12.0590  12.1386  12.1721
    12.3358  12.3594  12.3793  12.5156  12.5859  12.6913  12.7451  12.8726
    12.9154  13.0895  13.2443  13.2926  13.3163  13.4850  13.5917  13.6874
    13.6988  13.7664  13.8464  13.8521  13.9074  13.9623  14.0371  14.1216
    14.1808  14.2098  14.2934  14.4251  14.4407  14.4726  14.6188  14.6425
    14.7824  14.8024  15.0906  15.1232  15.2454  15.2497  15.2901  15.3232
    15.4186  15.4621  15.6451  15.6615  15.8071  15.8130  15.8998  15.9326
    15.9788  16.0020  16.1560  16.2405  16.3278  16.3612  16.3949  16.5147
    16.5219  16.6760  16.9338  16.9539  17.0360  17.0609  17.1852  17.2768
    17.3079  17.3874  17.5048  17.5517  17.7228  17.7365  17.8440  18.0160
    18.0203  18.1035  18.1128  18.3226  18.3783  18.3846  18.5641  18.5930
    18.7913  18.8165  18.9044  18.9633  18.9905  19.0578  19.0599  19.1292
    19.1328  19.2072  19.2736  19.3076  19.3477  19.3816  19.4783  19.5309
    19.5380  19.5792  19.6601  19.6923  19.7415  19.7793  19.8044  19.8123
    19.9202  20.0011  20.0298  20.2083  20.2471  20.3099  20.3673  20.3852
    20.4044  20.4567  20.4785  20.5481  20.6402  20.6694  20.6955  20.7194
    20.8086  20.8280  20.8368  20.9596  20.9698  21.0821  21.1739  21.1808
    21.2962  21.3208  21.3672  21.3755  21.4392  21.5557  21.5999  21.6535
    21.7353  21.7694  21.7863  21.9148

          k = 0.2500 0.2417 0.0000 ( 30481 PWs)   bands (ev):

   -49.4561 -49.4260 -49.4162 -49.3956 -49.3905 -49.3741 -49.2875 -49.2791
   -49.2783 -49.1994 -49.1877 -49.1810 -49.1753 -49.1456 -49.1406 -49.1078
   -49.1064 -49.0690 -49.0583 -49.0322 -48.9692 -48.9578 -48.9568 -48.9453
   -21.4689 -21.1800 -20.9343 -20.8025 -20.6084 -20.5040 -20.3758 -20.3322
   -20.1736 -20.1622 -20.0584 -19.9927 -19.9416 -19.8976 -19.7840 -19.7127
   -18.9199 -18.8225  -9.5388  -9.3094  -9.2122  -9.1018  -8.6595  -8.6105
    -8.5701  -8.5539  -8.5174  -8.4171  -8.3604  -8.3181  -8.2238  -8.0766
    -7.9172  -7.8315  -7.7372  -7.7093  -7.4089  -7.3404  -7.2334  -7.2090
    -7.0387  -6.6355  -6.5903  -6.4177  -6.3364  -6.1903  -6.1701  -6.0836
    -6.0578  -6.0553  -6.0147  -5.9032  -5.7247  -5.7011  -5.6206  -5.5646
    -5.3244  -5.2115  -5.2089  -4.9137  -4.8978  -4.8623  -4.7570  -4.5889
    -4.5557  -4.3858  -4.3246  -4.0957  -4.0246  -3.7240  -3.5581  -3.5578
    -3.4925  -3.4190  -3.2235  -3.1559  -3.0720  -3.0338  -3.0287  -2.9222
    -2.8973  -2.8149  -2.7311  -2.7238  -2.5391  -2.5148  -2.4113  -2.1979
    -1.8703  -1.8468  -1.8141  -1.7438  -1.6891  -1.5216  -1.3354  -1.2911
    -1.0301  -0.7777  -0.4323  -0.2150   0.3017   0.4106   0.4185   0.7550
     0.9753   1.2446   1.3768   1.4645   1.6601   1.7025   1.8185   2.0278
     3.6092   3.9943   4.5248   4.9204   5.2695   5.4028   5.4980   5.7995
     5.9820   6.2047   6.3338   6.4220   6.4360   6.7145   6.8244   7.0151
     7.1840   7.3661   7.4068   7.6289   7.6679   7.8191   7.9655   7.9961
     8.0582   8.2633   8.3827   8.4158   8.6322   8.7569   8.7622   8.8524
     8.8836   9.1728   9.3227   9.3862   9.4871   9.6419   9.6562   9.7151
     9.8013   9.9057  10.0667  10.1646  10.2522  10.2657  10.3530  10.5224
    10.5866  10.6306  10.7800  10.8019  10.8622  10.9491  10.9810  11.1001
    11.2486  11.3029  11.3698  11.4717  11.5032  11.5870  11.6391  11.6836
    11.8193  11.9600  12.0444  12.0454  12.1296  12.1700  12.2187  12.3322
    12.4309  12.4866  12.5975  12.6042  12.6776  12.7920  12.8616  12.9811
    12.9983  13.1037  13.1267  13.1881  13.2623  13.3243  13.4418  13.5364
    13.6001  13.6843  13.7395  13.7545  13.9085  14.0046  14.0093  14.0944
    14.1156  14.2501  14.3857  14.4412  14.5286  14.5596  14.6203  14.7324
    14.7903  15.0875  15.1706  15.1855  15.3463  15.4149  15.4815  15.4948
    15.5342  15.6114  15.7236  15.7249  15.8108  15.8869  15.9572  15.9654
    16.0425  16.0720  16.1572  16.2127  16.2744  16.3519  16.3717  16.4553
    16.5053  16.5943  16.6105  16.6213  16.7224  16.7993  16.9088  16.9541
    17.1464  17.1922  17.2426  17.2812  17.3600  17.4277  17.4597  17.5347
    17.5658  17.6234  17.7560  17.7914  17.8383  17.8681  18.0190  18.0708
    18.0847  18.1593  18.2731  18.3664  18.3874  18.4693  18.5066  18.6320
    18.6580  18.7800  18.8658  18.9011  18.9700  19.0559  19.0591  19.1143
    19.1343  19.2424  19.3107  19.3960  19.4416  19.5677  19.5877  19.7338
    19.8027  19.8386  19.8621  20.0661  20.0675  20.1727  20.3334  20.3981
    20.4484  20.4658  20.5795  20.6359  20.6449  20.7245  20.7768  20.9268
    20.9721  20.9870  21.0645  21.1425  21.1732  21.2655  21.3024  21.3045
    21.3804  21.4024  21.5945  21.6145  21.6348  21.6840  21.7681  21.8186
    21.8420  21.9245  22.0203  22.0496

          k = 0.2500-0.4833 0.0000 ( 30510 PWs)   bands (ev):

   -49.4565 -49.4259 -49.4162 -49.3953 -49.3911 -49.3739 -49.2867 -49.2792
   -49.2784 -49.1994 -49.1874 -49.1810 -49.1753 -49.1465 -49.1408 -49.1077
   -49.1063 -49.0691 -49.0582 -49.0322 -48.9692 -48.9582 -48.9568 -48.9455
   -21.4308 -21.1774 -20.8436 -20.7357 -20.5923 -20.4567 -20.3561 -20.3293
   -20.3106 -20.2103 -20.0877 -20.0305 -19.9938 -19.9269 -19.8145 -19.7138
   -18.9201 -18.8194  -9.5101  -9.1217  -8.7808  -8.6382  -8.6056  -8.5615
    -8.5128  -8.5036  -8.4370  -8.3802  -8.3691  -8.3052  -8.2646  -8.1643
    -7.9699  -7.7947  -7.7580  -7.6270  -7.3595  -7.3310  -7.1521  -7.0660
    -6.9171  -6.8749  -6.8145  -6.7641  -6.6707  -6.4072  -6.3415  -6.3098
    -6.1764  -6.1234  -6.0906  -5.9182  -5.8966  -5.8515  -5.7976  -5.6633
    -5.6176  -5.3492  -5.0667  -4.9189  -4.9179  -4.7574  -4.6785  -4.4478
    -4.4443  -4.2466  -4.1765  -3.9963  -3.8844  -3.8467  -3.7022  -3.6773
    -3.4895  -3.2971  -3.2538  -3.1414  -3.1088  -3.0387  -3.0276  -2.9810
    -2.9177  -2.8117  -2.6929  -2.5267  -2.4453  -2.2946  -2.1722  -2.1636
    -2.0957  -1.9006  -1.8194  -1.7589  -1.6654  -1.5132  -1.3816  -1.3182
    -0.9851  -0.8112  -0.6484  -0.5820   0.3377   0.4184   0.7019   0.7421
     0.8501   1.0253   1.4774   1.6859   1.7145   1.8652   1.9490   2.1268
     4.1026   4.3180   4.6582   5.1750   5.2254   5.3487   5.5986   5.6916
     5.8209   5.9492   5.9869   6.2496   6.4591   6.6753   6.7835   6.9976
     7.0833   7.1262   7.1590   7.2697   7.4332   7.6954   7.7635   7.8300
     8.0950   8.1302   8.1996   8.2257   8.3533   8.4413   8.6320   8.7768
     8.9596   8.9692   9.1047   9.3783   9.4085   9.5637   9.7919   9.8916
     9.9621  10.0240  10.0738  10.4303  10.5728  10.6813  10.7277  10.7761
    10.9292  11.0097  11.0587  11.1590  11.2374  11.3065  11.3471  11.3547
    11.4168  11.4967  11.6070  11.7171  11.7451  11.8199  11.8726  11.9155
    11.9852  12.0507  12.1441  12.2347  12.3309  12.4238  12.5089  12.5829
    12.6418  12.6596  12.7548  12.7883  12.8046  12.9005  13.0551  13.1219
    13.1477  13.1840  13.2450  13.2945  13.3248  13.4042  13.4333  13.4959
    13.5199  13.6882  13.7442  13.8752  14.0126  14.0140  14.0931  14.2651
    14.3428  14.3676  14.4334  14.5022  14.5141  14.5422  14.5580  14.5971
[...]
    -6.8282  -6.8281  -6.7280  -6.7280  -6.4484  -6.4482  -6.2645  -6.2645
    -5.9976  -5.9976  -5.7031  -5.7031  -5.6178  -5.6178  -5.5377  -5.5377
    -5.3948  -5.3948  -5.1011  -5.1011  -4.9091  -4.9090  -4.7896  -4.7895
    -4.5854  -4.5853  -4.1419  -4.1418  -3.7715  -3.7715  -3.7291  -3.7290
    -3.3275  -3.3274  -3.2738  -3.2737  -3.2066  -3.2065  -3.0733  -3.0733
    -2.5425  -2.5424  -2.4449  -2.4448  -2.3317  -2.3316  -2.1643  -2.1643
    -1.9284  -1.9283  -1.8416  -1.8415  -1.6540  -1.6539  -1.4127  -1.4126
    -0.9206  -0.9206   0.2616   0.2617   0.4488   0.4490   0.8940   0.8941
     0.9073   0.9074   0.9901   0.9902   1.0104   1.0105   1.8044   1.8044
     4.1511   4.1511   4.5819   4.5819   5.0388   5.0388   5.4387   5.4387
     5.8391   5.8391   6.4786   6.4786   6.7739   6.7739   7.0034   7.0034
     7.6336   7.6337   7.9910   7.9910   8.1125   8.1125   8.1427   8.1427
     8.6159   8.6159   8.6486   8.6486   8.7361   8.7361   8.9940   8.9941
     9.0429   9.0429   9.1893   9.1893   9.2878   9.2878   9.5957   9.5957
     9.6543   9.6544   9.7767   9.7767   9.8708   9.8709  10.0026  10.0026
    10.1884  10.1884  10.4433  10.4433  10.6781  10.6781  10.7757  10.7757
    11.2549  11.2550  11.4614  11.4614  11.5876  11.5876  11.6592  11.6592
    11.7833  11.7833  11.9481  11.9482  12.2233  12.2234  12.4393  12.4393
    12.5412  12.5412  12.7191  12.7191  12.9005  12.9005  13.0113  13.0113
    13.1748  13.1749  13.3694  13.3694  13.4247  13.4247  13.6164  13.6164
    13.7083  13.7083  13.8351  13.8351  13.9908  13.9908  14.1719  14.1720
    14.2211  14.2211  14.2801  14.2801  14.4046  14.4046  14.7356  14.7356
    14.8333  14.8334  15.0047  15.0047  15.1239  15.1240  15.4370  15.4370
    15.8085  15.8086  15.9969  15.9969  16.2221  16.2222  16.2488  16.2488
    16.2820  16.2820  16.3725  16.3725  16.4198  16.4198  16.5892  16.5892
    16.6132  16.6132  16.6588  16.6588  16.7493  16.7493  16.8254  16.8254
    17.0637  17.0637  17.2129  17.2129  17.4341  17.4341  17.6143  17.6143
    17.8055  17.8055  17.9154  17.9154  18.1051  18.1051  18.2708  18.2708
    18.3994  18.3994  18.4710  18.4710  18.7128  18.7129  18.7433  18.7433
    18.8666  18.8666  19.0160  19.0160  19.1335  19.1335  19.2337  19.2337
    19.3559  19.3559  19.4485  19.4485  19.6052  19.6052  19.6334  19.6334
    19.7361  19.7362  19.7944  19.7945  20.0261  20.0261  20.0405  20.0405
    20.1956  20.1956  20.2599  20.2599  20.3124  20.3124  20.4450  20.4450
    20.5843  20.5843  20.7910  20.7911  20.9266  20.9266  20.9724  20.9724
    21.0725  21.0725  21.1157  21.1157  21.2934  21.2935  21.3276  21.3276
    21.3364  21.3364  21.4276  21.4276

          k =-0.5000 0.2417 0.0000 ( 30500 PWs)   bands (ev):

   -49.4285 -49.4282 -49.4074 -49.4071 -49.3931 -49.3929 -49.2839 -49.2834
   -49.2396 -49.2394 -49.1781 -49.1780 -49.1474 -49.1474 -49.1429 -49.1428
   -49.0714 -49.0713 -49.0627 -49.0627 -48.9631 -48.9629 -48.9516 -48.9515
   -21.2940 -21.2933 -20.7569 -20.7566 -20.5605 -20.5602 -20.4661 -20.4661
   -20.1055 -20.1009 -20.0232 -20.0208 -19.9540 -19.9521 -19.7995 -19.7994
   -18.9125 -18.9124  -9.2279  -9.2249  -8.9554  -8.9486  -8.8525  -8.8524
    -8.5856  -8.5789  -8.4563  -8.4548  -8.2407  -8.2325  -8.0965  -8.0965
    -7.8355  -7.7930  -7.6100  -7.5916  -7.2932  -7.2465  -7.0993  -7.0860
    -6.9896  -6.9637  -6.8102  -6.7581  -6.4943  -6.4624  -6.3866  -6.3384
    -6.0371  -6.0224  -5.8929  -5.8788  -5.7674  -5.7491  -5.6714  -5.6660
    -5.5569  -5.5393  -5.3683  -5.3233  -4.9412  -4.8559  -4.7345  -4.6840
    -4.5754  -4.4814  -4.1444  -4.0111  -3.8923  -3.8737  -3.7296  -3.6930
    -3.2433  -3.2382  -3.1257  -3.1043  -2.9282  -2.8887  -2.8561  -2.8207
    -2.7323  -2.6883  -2.5503  -2.5158  -2.2517  -2.2418  -2.1208  -2.1205
    -1.9258  -1.9219  -1.8390  -1.8052  -1.7321  -1.7177  -1.5496  -1.5409
    -0.7907  -0.7905   0.1681   0.1754   0.2762   0.2770   0.5192   0.5196
     0.7057   0.7110   1.2183   1.2246   1.4894   1.4914   1.8868   1.8907
     4.3692   4.3798   4.7321   4.7321   5.2596   5.2602   5.6212   5.6294
     5.9598   5.9883   6.2509   6.2619   6.6607   6.6684   6.9716   6.9734
     7.0450   7.0577   7.1368   7.1447   7.5475   7.5640   7.8330   7.8398
     8.0966   8.1060   8.2819   8.3099   8.5301   8.5756   8.7468   8.7995
     9.0159   9.1183   9.4446   9.4547   9.6778   9.6989   9.8555   9.8666
     9.9715   9.9837  10.1571  10.1719  10.4174  10.4336  10.6025  10.6054
    10.7174  10.7193  10.9215  10.9221  10.9494  10.9528  11.1840  11.1927
    11.4088  11.4182  11.6502  11.6527  11.7714  11.7987  11.9274  11.9513
    12.0189  12.0310  12.1252  12.1290  12.3197  12.3335  12.5529  12.5698
    12.7106  12.7162  12.9206  12.9372  13.0240  13.0364  13.1274  13.1346
    13.2409  13.2440  13.3348  13.3377  13.5166  13.5168  13.6104  13.6117
    13.7950  13.8082  13.8829  13.8851  14.0297  14.0520  14.2122  14.2256
    14.2936  14.3318  14.4045  14.4260  14.5112  14.5778  14.6382  14.6665
    14.7639  14.7724  14.9224  14.9295  15.0125  15.0161  15.1177  15.1261
    15.2396  15.2495  15.3953  15.4050  15.4721  15.4760  15.8170  15.8214
    15.9505  15.9578  16.1005  16.1156  16.1729  16.1831  16.3347  16.3462
    16.3947  16.4188  16.4714  16.4733  16.6000  16.6179  16.6959  16.7154
    16.8477  16.8605  16.9911  16.9926  17.0260  17.1225  17.3010  17.3177
    17.4609  17.4820  17.6507  17.6567  17.7762  17.7876  17.8261  17.9256
    17.9719  18.0051  18.3035  18.3043  18.3436  18.3805  18.4534  18.4573
    18.5512  18.5569  18.7121  18.7387  18.7795  18.8149  18.9294  18.9401
    19.0351  19.0610  19.1453  19.1572  19.3626  19.3904  19.5023  19.5039
    19.5631  19.5788  19.6772  19.6882  19.8488  19.8586  20.0762  20.0803
    20.2028  20.2227  20.3341  20.3584  20.4578  20.4596  20.5657  20.6534
    20.7391  20.7526  20.8638  20.8934  21.0431  21.0761  21.2992  21.3040
    21.4381  21.4476  21.5341  21.5513  21.6883  21.7107  21.7994  21.8060
    21.8887  21.9298  22.1115  22.1241

          k =-0.5000-0.4833 0.0000 ( 30496 PWs)   bands (ev):

   -49.4285 -49.4283 -49.4075 -49.4073 -49.3932 -49.3929 -49.2833 -49.2831
   -49.2396 -49.2394 -49.1781 -49.1780 -49.1473 -49.1472 -49.1434 -49.1433
   -49.0713 -49.0712 -49.0627 -49.0627 -48.9631 -48.9629 -48.9518 -48.9518
   -21.2794 -21.2788 -20.6575 -20.6574 -20.5605 -20.5605 -20.3227 -20.3226
   -20.2437 -20.2436 -20.1810 -20.1809 -19.9569 -19.9568 -19.7953 -19.7953
   -18.9110 -18.9110  -9.1906  -9.1898  -8.6294  -8.6294  -8.5153  -8.5152
    -8.4733  -8.4733  -8.3917  -8.3916  -8.0667  -8.0667  -7.9439  -7.9438
    -7.8776  -7.8776  -7.7859  -7.7859  -7.5617  -7.5617  -7.2046  -7.2045
    -6.9963  -6.9963  -6.7252  -6.7251  -6.4859  -6.4857  -6.4019  -6.4018
    -6.3359  -6.3359  -6.3192  -6.3191  -6.0242  -6.0240  -5.9712  -5.9711
    -5.6467  -5.6467  -5.0820  -5.0819  -4.8915  -4.8915  -4.5784  -4.5784
    -4.3436  -4.3436  -4.2732  -4.2731  -3.7745  -3.7745  -3.4773  -3.4772
    -3.3010  -3.3010  -3.1027  -3.1027  -2.9735  -2.9734  -2.8677  -2.8676
    -2.5163  -2.5162  -2.4903  -2.4903  -2.0883  -2.0883  -2.0312  -2.0312
    -1.8701  -1.8700  -1.8611  -1.8610  -1.7607  -1.7607  -1.6633  -1.6633
    -0.7041  -0.7041  -0.1680  -0.1679  -0.0114  -0.0113   0.5037   0.5037
     0.7413   0.7414   1.4472   1.4472   1.6319   1.6320   1.9768   1.9769
     4.7701   4.7701   4.9616   4.9616   5.3866   5.3867   5.9026   5.9026
     5.9504   5.9504   6.0964   6.0964   6.3141   6.3141   6.5656   6.5657
     6.7358   6.7358   7.0397   7.0397   7.3945   7.3945   7.5307   7.5308
     7.7483   7.7483   7.9084   7.9085   8.3920   8.3921   8.8187   8.8187
     8.9874   8.9874   9.2178   9.2178   9.4975   9.4975   9.9715   9.9715
    10.1734  10.1734  10.4206  10.4206  10.7220  10.7221  11.0449  11.0449
    11.1909  11.1909  11.3371  11.3371  11.3863  11.3863  11.7761  11.7761
    11.8967  11.8968  12.1105  12.1105  12.2490  12.2490  12.5047  12.5047
    12.5417  12.5417  12.6468  12.6468  12.7970  12.7970  12.8299  12.8299
    12.9020  12.9021  13.1338  13.1339  13.2147  13.2147  13.2692  13.2693
    13.4459  13.4459  13.5034  13.5034  13.5848  13.5848  13.6158  13.6158
    13.7290  13.7290  13.7842  13.7842  13.9717  13.9718  14.0079  14.0079
    14.0779  14.0780  14.1488  14.1488  14.3047  14.3047  14.3256  14.3256
    14.4962  14.4962  14.5888  14.5888  14.7434  14.7434  14.9502  14.9502
    15.1015  15.1015  15.1354  15.1354  15.1882  15.1882  15.2762  15.2762
    15.4153  15.4153  15.5948  15.5948  15.6207  15.6207  15.7900  15.7901
    15.9118  15.9118  15.9539  15.9539  16.1961  16.1961  16.4042  16.4042
    16.5332  16.5332  16.6802  16.6802  16.9114  16.9115  16.9687  16.9687
    17.1124  17.1124  17.3332  17.3332  17.4907  17.4907  17.6395  17.6395
    17.9879  17.9879  18.0088  18.0088  18.1366  18.1367  18.2652  18.2653
    18.3701  18.3702  18.5877  18.5878  18.8120  18.8120  19.1482  19.1482
    19.3018  19.3018  19.4659  19.4659  19.5575  19.5575  19.6373  19.6373
    20.1020  20.1021  20.1858  20.1859  20.2553  20.2553  20.6192  20.6193
    20.7036  20.7037  20.7760  20.7760  20.8429  20.8429  20.9730  20.9730
    21.0655  21.0655  21.1389  21.1389  21.2400  21.2401  21.3449  21.3449
    21.4523  21.4523  21.4830  21.4830  21.5679  21.5679  21.6054  21.6054
    21.6346  21.6346  21.8009  21.8009

          k =-0.2500 0.2417 0.0000 ( 30481 PWs)   bands (ev):

   -49.4563 -49.4260 -49.4162 -49.3956 -49.3905 -49.3738 -49.2880 -49.2791
   -49.2781 -49.1994 -49.1877 -49.1810 -49.1753 -49.1454 -49.1408 -49.1078
   -49.1064 -49.0690 -49.0583 -49.0322 -48.9692 -48.9578 -48.9568 -48.9453
   -21.4691 -21.1798 -20.9340 -20.8025 -20.6082 -20.5041 -20.3745 -20.3326
   -20.1774 -20.1616 -20.0584 -19.9921 -19.9388 -19.8985 -19.7842 -19.7128
   -18.9199 -18.8225  -9.5385  -9.3084  -9.2119  -9.0995  -8.6807  -8.6071
    -8.5589  -8.5584  -8.5258  -8.4188  -8.3393  -8.3179  -8.2201  -8.0475
    -7.9645  -7.8622  -7.7426  -7.6961  -7.3952  -7.3470  -7.2241  -7.1463
    -7.0329  -6.6340  -6.5972  -6.4558  -6.3571  -6.2345  -6.1929  -6.0894
    -6.0782  -6.0192  -5.9298  -5.9172  -5.7353  -5.6976  -5.5902  -5.5782
    -5.3197  -5.2157  -5.1838  -4.9693  -4.9542  -4.7443  -4.7441  -4.6921
    -4.5278  -4.4369  -4.3174  -4.0497  -3.9973  -3.7196  -3.5829  -3.5354
    -3.4925  -3.3499  -3.2195  -3.1723  -3.1052  -3.0596  -3.0365  -2.9362
    -2.9163  -2.8337  -2.7346  -2.6956  -2.5510  -2.5073  -2.3681  -2.2087
    -1.8580  -1.8527  -1.8118  -1.7546  -1.6970  -1.5086  -1.3389  -1.2922
    -1.0303  -0.7781  -0.4355  -0.2148   0.3017   0.4108   0.4216   0.7551
     0.9752   1.2371   1.3839   1.4658   1.6578   1.7035   1.8153   2.0305
     3.6052   3.9943   4.5250   4.9232   5.2804   5.4214   5.5080   5.7996
     5.9793   6.2026   6.3409   6.4179   6.4241   6.6791   6.8312   6.9823
     7.1929   7.3672   7.4051   7.6197   7.6810   7.8030   7.9702   8.0142
     8.0675   8.2636   8.3725   8.4005   8.6304   8.7614   8.7733   8.8392
     8.8887   9.1786   9.3470   9.3756   9.5155   9.6426   9.6523   9.6859
     9.8101   9.9024  10.1196  10.1666  10.2295  10.2685  10.3388  10.4829
    10.5882  10.6217  10.7591  10.7966  10.8564  10.9540  10.9916  11.1212
    11.2963  11.3019  11.3786  11.4588  11.5075  11.5865  11.6375  11.6910
    11.8169  11.9921  12.0453  12.0575  12.1530  12.1630  12.2199  12.3294
    12.4248  12.5101  12.5833  12.6040  12.6948  12.7777  12.8534  12.9759
    12.9949  13.0744  13.1451  13.2176  13.2430  13.3482  13.4125  13.5271
    13.5833  13.6894  13.7689  13.7793  13.8379  14.0091  14.0325  14.0596
    14.1454  14.2574  14.3338  14.4457  14.5321  14.5867  14.6281  14.6877
    14.7606  15.0369  15.1994  15.2618  15.3384  15.4055  15.4551  15.4767
    15.5098  15.6065  15.6866  15.7129  15.7907  15.8118  15.9690  15.9730
    16.0518  16.0564  16.1726  16.2155  16.2882  16.3600  16.3698  16.4665
    16.5125  16.5706  16.5850  16.6034  16.7069  16.7952  16.9637  16.9894
    17.1317  17.2127  17.2298  17.3074  17.3371  17.4385  17.4846  17.5397
    17.5691  17.6221  17.7482  17.7742  17.8731  17.8753  18.0723  18.0738
    18.0868  18.1501  18.2434  18.3584  18.4143  18.4749  18.5036  18.6619
    18.6679  18.8227  18.8881  18.9214  18.9810  19.0375  19.0414  19.1149
    19.1996  19.2035  19.2980  19.4137  19.4322  19.5604  19.6319  19.7184
    19.7376  19.8825  19.8852  20.0367  20.1372  20.1892  20.2785  20.3227
    20.4611  20.5087  20.5924  20.6327  20.6674  20.7050  20.8159  20.8830
    20.9324  21.0052  21.0945  21.1251  21.1668  21.2707  21.3038  21.3082
    21.3806  21.4330  21.5520  21.6388  21.6792  21.7179  21.7878  21.8205
    21.8474  21.9171  22.0132  22.0492

     the Fermi energy is    -1.7097 ev

!    total energy              =   -1948.25207714 Ry
     Harris-Foulkes estimate   =   -1948.25207781 Ry
     estimated scf accuracy    <       0.00000082 Ry

     The total energy is the sum of the following terms:

     one-electron contribution =  -22563.69600676 Ry
     hartree contribution      =   11326.75096695 Ry
     xc contribution           =    -364.98223327 Ry
     ewald contribution        =    9653.67647258 Ry
     smearing contrib. (-TS)   =      -0.00127663 Ry

     convergence has been achieved in   6 iterations

     Forces acting on atoms (Ry/au):


     negative rho (up, down):  0.689E+00 0.000E+00
     atom    1 type  1   force =    -0.00708350   -0.01429518   -0.00003351
     atom    2 type  1   force =     0.00014780    0.00735278    0.00070410
     atom    3 type  2   force =    -0.00027803    0.00320365    0.00016148
     atom    4 type  2   force =     0.00852101    0.00894859   -0.00016370
     atom    5 type  1   force =    -0.00052175   -0.03054951   -0.00069272
     atom    6 type  1   force =     0.00156966    0.02744937   -0.00026200
     atom    7 type  1   force =    -0.00020948   -0.00014703    0.00008467
     atom    8 type  1   force =    -0.00271333   -0.00054867    0.00018559
     atom    9 type  2   force =     0.00127323   -0.00028206   -0.00020736
     atom   10 type  2   force =     0.00003307   -0.00204396    0.00034961
     atom   11 type  1   force =    -0.00012903    0.00053020   -0.00017575
     atom   12 type  1   force =     0.00026968    0.00028058   -0.00014697
     atom   13 type  1   force =    -0.00082452   -0.00006878   -0.00046030
     atom   14 type  1   force =    -0.00709674   -0.01429743    0.00003591
     atom   15 type  1   force =     0.00013830    0.00727997    0.00068682
     atom   16 type  2   force =    -0.00023456    0.00320352    0.00015986
     atom   17 type  2   force =     0.00851281    0.00895403   -0.00017694
     atom   18 type  1   force =    -0.00055941   -0.03054896   -0.00069789
     atom   19 type  1   force =     0.00152586    0.02744920   -0.00026860
     atom   20 type  1   force =    -0.00022861   -0.00014561    0.00002723
     atom   21 type  1   force =    -0.00278359   -0.00054973    0.00013290
     atom   22 type  2   force =     0.00127026   -0.00027753   -0.00018730
     atom   23 type  2   force =     0.00002873   -0.00204486    0.00041232
     atom   24 type  1   force =    -0.00013257    0.00049773   -0.00016990
     atom   25 type  1   force =     0.00026498    0.00031249   -0.00014047
     atom   26 type  1   force =    -0.00089351   -0.00006938   -0.00045933
     atom   27 type  3   force =    -0.00003143   -0.00028297    0.00035652
     atom   28 type  3   force =    -0.00003142   -0.00022868    0.00033093
     atom   29 type  3   force =     0.00008451    0.00045608    0.00031276
     atom   30 type  3   force =     0.00011157    0.00046217    0.00030206

     Total force =     0.002035     Total SCF correction =     0.003719
     SCF correction compared to forces is large: reduce conv_thr to get better values

     bfgs converged in   2 scf cycles and   1 bfgs steps
     (criteria: energy < 0.10E-03, force < 0.10E-02)

     End of BFGS Geometry Optimization

     Final energy   =   -1948.2520771351 Ry
Begin final coordinates

ATOMIC_POSITIONS (crystal)
O0       0.000000000   0.000000000   0.378648904    0   0   1
O0       0.000000000   0.500000000   0.400485009    0   0   1
Rh1      0.250000000   0.500000000   0.451985348    0   0   1
Rh1      0.000000000   0.000000000   0.453198041    0   0   1
O0       0.250000000   0.810000000   0.452794353    0   0   1
O0       0.250000000   0.190000000   0.452584422    0   0   1
O0       0.000000000   0.500000000   0.498477306    0   0   1
O0       0.000000000   0.000000000   0.528796339    0   0   1
Rh1      0.250000000   0.000000000   0.576450528    0   0   1
Rh1      0.000000000   0.500000000   0.571206015    0   0   1
O0       0.250000000   0.690000000   0.577894609    0   0   1
O0       0.250000000   0.310000000   0.577914797    0   0   1
O0       0.000000000   0.000000000   0.621678609    0   0   1
O0       0.500000000   0.000000000   0.378647602    0   0   1
O0       0.500000000   0.500000000   0.400490958    0   0   1
Rh1      0.750000000   0.500000000   0.451985385    0   0   1
Rh1      0.500000000   0.000000000   0.453198365    0   0   1
O0       0.750000000   0.810000000   0.452794173    0   0   1
O0       0.750000000   0.190000000   0.452584283    0   0   1
O0       0.500000000   0.500000000   0.498479054    0   0   1
O0       0.500000000   0.000000000   0.528797254    0   0   1
Rh1      0.750000000   0.000000000   0.576450102    0   0   1
Rh1      0.500000000   0.500000000   0.571205056    0   0   1
O0       0.750000000   0.690000000   0.577894778    0   0   1
O0       0.750000000   0.310000000   0.577914956    0   0   1
O0       0.500000000   0.000000000   0.621678675    0   0   1
H2      -0.000072244   0.638973784   0.383977798
H2       0.499927777   0.638959262   0.383979707
H2       0.148443725   0.032531077   0.367828757
H2       0.648443010   0.032530902   0.367828816
End final coordinates



     init_run     :     61.71s CPU     79.39s WALL (       1 calls)
     electrons    :   5168.52s CPU   6621.06s WALL (       2 calls)
     update_pot   :      6.12s CPU      6.94s WALL (       1 calls)
     forces       :     75.93s CPU     78.73s WALL (       2 calls)

     Called by init_run:
     wfcinit      :     41.41s CPU     57.38s WALL (       1 calls)
     potinit      :      2.43s CPU      2.90s WALL (       1 calls)

     Called by electrons:
     c_bands      :   3905.64s CPU   5069.14s WALL (      31 calls)
     sum_band     :    736.23s CPU    992.50s WALL (      31 calls)
     v_of_rho     :     18.21s CPU     28.88s WALL (      33 calls)
     newd         :    528.30s CPU    538.80s WALL (      33 calls)
     mix_rho      :      3.47s CPU      5.79s WALL (      31 calls)

     Called by c_bands:
     init_us_2    :      4.41s CPU      4.44s WALL (     650 calls)
     cegterg      :   3882.46s CPU   5045.92s WALL (     310 calls)

     Called by *egterg:
     h_psi        :   1966.65s CPU   3000.60s WALL (    1013 calls)
     s_psi        :    148.71s CPU    148.81s WALL (    1013 calls)
     g_psi        :      3.05s CPU      3.05s WALL (     693 calls)
     cdiaghg      :   1045.51s CPU   1075.83s WALL (     993 calls)

     Called by h_psi:
     add_vuspsi   :    149.11s CPU    149.81s WALL (    1013 calls)

     General routines
     calbec       :    240.75s CPU    266.74s WALL (    1343 calls)
     fft          :     33.38s CPU     60.57s WALL (     543 calls)
     ffts         :      0.51s CPU      0.97s WALL (      64 calls)
     fftw         :   1795.94s CPU   3047.48s WALL (  574200 calls)
     interpolate  :      3.79s CPU      6.83s WALL (      64 calls)

     Parallel routines
     fft_scatter  :   1343.72s CPU   2619.62s WALL (  574807 calls)

     PWSCF        :     1h28m CPU        1h53m WALL


   This run was terminated on:  20:15:29  27Feb2014            

=------------------------------------------------------------------------------=
   JOB DONE.
=------------------------------------------------------------------------------=
