
     Program PWSCF v.5.0.2 (svn rev. 9656) starts on 24Jan2014 at 12:25:26 

     This program is part of the open-source Quantum ESPRESSO suite
     for quantum simulation of materials; please cite
         "P. Giannozzi et al., J. Phys.:Condens. Matter 21 395502 (2009);
          URL http://www.quantum-espresso.org", 
     in publications or presentations arising from this work. More details at
     http://www.quantum-espresso.org/quote.php

     Parallel version (MPI), running on     4 processors
     R & G space division:  proc/nbgrp/npool/nimage =       4

     Current dimensions of program PWSCF are:
     Max number of different atomic species (ntypx) = 10
     Max number of k-points (npk) =  40000
     Max angular momentum in pseudopotentials (lmaxx) =  3
     Reading input from IrO2-v-0.90.in

     Subspace diagonalization in iterative solution of the eigenvalue problem:
     a serial algorithm will be used


     Parallelization info
     --------------------
     sticks:   dense  smooth     PW     G-vecs:    dense   smooth      PW
     Min         721     233     69                18819     3399     563
     Max         722     234     70                18822     3412     566
     Sum        2885     933    277                75283    13619    2257



     bravais-lattice index     =            0
     lattice parameter (alat)  =       8.5214  a.u.
     unit-cell volume          =     398.7679 (a.u.)^3
     number of atoms/cell      =            6
     number of atomic types    =            2
     number of electrons       =        54.00
     number of Kohn-Sham states=           78
     kinetic-energy cutoff     =      40.0000  Ry
     charge density cutoff     =     500.0000  Ry
     convergence threshold     =      1.0E-06
     mixing beta               =       0.3000
     number of iterations used =            8  plain     mixing
     Exchange-correlation      = SLA  PW   PBE  PBE ( 1 4 3 4 0)
     EXX-fraction              =        0.00
     nstep                     =           50


     celldm(1)=   8.521412  celldm(2)=   0.000000  celldm(3)=   0.000000
     celldm(4)=   0.000000  celldm(5)=   0.000000  celldm(6)=   0.000000

     crystal axes: (cart. coord. in units of alat)
               a(1) = (   1.000000   0.000000   0.000000 )  
               a(2) = (   0.000000   1.000000   0.000000 )  
               a(3) = (   0.000000   0.000000   0.644444 )  

     reciprocal axes: (cart. coord. in units 2 pi/alat)
               b(1) = (  1.000000  0.000000  0.000000 )  
               b(2) = (  0.000000  1.000000  0.000000 )  
               b(3) = (  0.000000  0.000000  1.551724 )  


     PseudoPot. # 1 for Ir read from file:
     /home/camp/zhonxu/pseudo/ir_pbe_v1.uspp.F.UPF
     MD5 check sum: abf987a9674477536ede83817f8f8b70
     Pseudo is Ultrasoft + core correction, Zval = 15.0
     Generated by new atomic code, or converted to UPF format
     Using radial grid of  983 points,  7 beta functions with: 
                l(1) =   0
                l(2) =   0
                l(3) =   1
                l(4) =   1
                l(5) =   1
                l(6) =   2
                l(7) =   2
     Q(r) pseudized with  8 coefficients,  rinner =    1.350   1.350   1.350
                                                       1.350   1.350

     PseudoPot. # 2 for O  read from file:
     /home/camp/zhonxu/pseudo/o_pbe_v1.01.uspp.F.UPF
     MD5 check sum: 2bcb18d16ea4b960afae9ec6d52f22d2
     Pseudo is Ultrasoft + core correction, Zval =  6.0
     Generated by new atomic code, or converted to UPF format
     Using radial grid of  737 points,  5 beta functions with: 
                l(1) =   0
                l(2) =   0
                l(3) =   1
                l(4) =   1
                l(5) =   2
     Q(r) pseudized with  8 coefficients,  rinner =    0.900   0.900   0.900
                                                       0.900   0.900

     atomic species   valence    mass     pseudopotential
        Ir0           15.00   192.22000     Ir( 1.00)
        O1             6.00    15.99940     O ( 1.00)

     Starting magnetic structure 
     atomic species   magnetization
        Ir0          0.600
        O1           0.000

     16 Sym. Ops., with inversion, found ( 8 have fractional translation)



   Cartesian axes

     site n.     atom                  positions (alat units)
         1           Ir0 tau(   1) = (   0.0000000   0.0000000   0.0000000  )
         2           Ir0 tau(   2) = (   0.5000000   0.5000000   0.3222222  )
         3           O1  tau(   3) = (   0.3050000   0.3050000   0.0000000  )
         4           O1  tau(   4) = (  -0.3050000  -0.3050000   0.0000000  )
         5           O1  tau(   5) = (   0.8050000   0.1950000   0.3222222  )
         6           O1  tau(   6) = (   0.1950000   0.8050000   0.3222222  )

     number of k points=    36  Methfessel-Paxton smearing, width (Ry)=  0.0100
                       cart. coord. in units 2pi/alat
        k(    1) = (   0.0000000   0.0000000   0.0000000), wk =   0.0080000
        k(    2) = (   0.0000000   0.0000000   0.3103448), wk =   0.0160000
        k(    3) = (   0.0000000   0.0000000   0.6206897), wk =   0.0160000
        k(    4) = (   0.0000000   0.2000000   0.0000000), wk =   0.0320000
        k(    5) = (   0.0000000   0.2000000   0.3103448), wk =   0.0640000
        k(    6) = (   0.0000000   0.2000000   0.6206897), wk =   0.0640000
        k(    7) = (   0.0000000   0.4000000   0.0000000), wk =   0.0320000
        k(    8) = (   0.0000000   0.4000000   0.3103448), wk =   0.0640000
        k(    9) = (   0.0000000   0.4000000   0.6206897), wk =   0.0640000
        k(   10) = (   0.2000000   0.2000000   0.0000000), wk =   0.0320000
        k(   11) = (   0.2000000   0.2000000   0.3103448), wk =   0.0640000
        k(   12) = (   0.2000000   0.2000000   0.6206897), wk =   0.0640000
        k(   13) = (   0.2000000   0.4000000   0.0000000), wk =   0.0640000
        k(   14) = (   0.2000000   0.4000000   0.3103448), wk =   0.1280000
        k(   15) = (   0.2000000   0.4000000   0.6206897), wk =   0.1280000
        k(   16) = (   0.4000000   0.4000000   0.0000000), wk =   0.0320000
        k(   17) = (   0.4000000   0.4000000   0.3103448), wk =   0.0640000
        k(   18) = (   0.4000000   0.4000000   0.6206897), wk =   0.0640000
        k(   19) = (   0.0000000   0.0000000   0.0000000), wk =   0.0080000
        k(   20) = (   0.0000000   0.0000000   0.3103448), wk =   0.0160000
        k(   21) = (   0.0000000   0.0000000   0.6206897), wk =   0.0160000
        k(   22) = (   0.0000000   0.2000000   0.0000000), wk =   0.0320000
        k(   23) = (   0.0000000   0.2000000   0.3103448), wk =   0.0640000
        k(   24) = (   0.0000000   0.2000000   0.6206897), wk =   0.0640000
        k(   25) = (   0.0000000   0.4000000   0.0000000), wk =   0.0320000
        k(   26) = (   0.0000000   0.4000000   0.3103448), wk =   0.0640000
        k(   27) = (   0.0000000   0.4000000   0.6206897), wk =   0.0640000
        k(   28) = (   0.2000000   0.2000000   0.0000000), wk =   0.0320000
        k(   29) = (   0.2000000   0.2000000   0.3103448), wk =   0.0640000
        k(   30) = (   0.2000000   0.2000000   0.6206897), wk =   0.0640000
        k(   31) = (   0.2000000   0.4000000   0.0000000), wk =   0.0640000
        k(   32) = (   0.2000000   0.4000000   0.3103448), wk =   0.1280000
        k(   33) = (   0.2000000   0.4000000   0.6206897), wk =   0.1280000
        k(   34) = (   0.4000000   0.4000000   0.0000000), wk =   0.0320000
        k(   35) = (   0.4000000   0.4000000   0.3103448), wk =   0.0640000
        k(   36) = (   0.4000000   0.4000000   0.6206897), wk =   0.0640000

     Dense  grid:    75283 G-vectors     FFT dimensions: (  64,  64,  40)

     Smooth grid:    13619 G-vectors     FFT dimensions: (  36,  36,  24)

     Largest allocated arrays     est. size (Mb)     dimensions
        Kohn-Sham Wavefunctions         0.51 Mb     (    428,   78)
        NL pseudopotentials             0.61 Mb     (    428,   94)
        Each V/rho on FFT grid          1.25 Mb     (  40960,   2)
        Each G-vector array             0.14 Mb     (  18821)
        G-vector shells                 0.14 Mb     (  18821)
     Largest temporary arrays     est. size (Mb)     dimensions
        Auxiliary wavefunctions         2.04 Mb     (    428,  312)
        Each subspace H/S matrix        1.49 Mb     ( 312, 312)
        Each <psi_i|beta_j> matrix      0.11 Mb     (     94,   78)
        Arrays for rho mixing           5.00 Mb     (  40960,   8)

     Check: negative/imaginary core charge=   -0.000004    0.000000

     Initial potential from superposition of free atoms
     Check: negative starting charge=(component1):   -0.666649
     Check: negative starting charge=(component2):   -0.165625

     starting charge   52.99993, renormalised to   54.00000

     negative rho (up, down):  0.679E+00 0.169E+00
     Starting wfc are   40 randomized atomic wfcs

     total cpu time spent up to now is       10.2 secs

     per-process dynamical memory:    47.3 Mb

     Self-consistent Calculation

     iteration #  1     ecut=    40.00 Ry     beta=0.30
     Davidson diagonalization with overlap
     ethr =  1.00E-02,  avg # of iterations =  5.3

     negative rho (up, down):  0.603E+00 0.201E+00

     total cpu time spent up to now is       56.7 secs

     total energy              =    -499.57290935 Ry
     Harris-Foulkes estimate   =    -501.06833482 Ry
     estimated scf accuracy    <       5.14856190 Ry

     total magnetization       =     5.50 Bohr mag/cell
     absolute magnetization    =     6.01 Bohr mag/cell

     iteration #  2     ecut=    40.00 Ry     beta=0.30
     Davidson diagonalization with overlap
     ethr =  9.53E-03,  avg # of iterations =  1.0

     negative rho (up, down):  0.553E+00 0.242E+00

     total cpu time spent up to now is       73.2 secs

     total energy              =    -500.64953371 Ry
     Harris-Foulkes estimate   =    -500.32576926 Ry
     estimated scf accuracy    <       0.82479065 Ry

     total magnetization       =     3.17 Bohr mag/cell
     absolute magnetization    =     4.01 Bohr mag/cell

     iteration #  3     ecut=    40.00 Ry     beta=0.30
     Davidson diagonalization with overlap
     ethr =  1.53E-03,  avg # of iterations =  1.0

     negative rho (up, down):  0.434E+00 0.347E+00

     total cpu time spent up to now is       89.7 secs

     total energy              =    -501.06752481 Ry
     Harris-Foulkes estimate   =    -500.67533601 Ry
     estimated scf accuracy    <       0.46507835 Ry

     total magnetization       =     2.32 Bohr mag/cell
     absolute magnetization    =     3.08 Bohr mag/cell

     iteration #  4     ecut=    40.00 Ry     beta=0.30
     Davidson diagonalization with overlap
     ethr =  8.61E-04,  avg # of iterations =  1.3

     negative rho (up, down):  0.414E+00 0.366E+00

     total cpu time spent up to now is      106.6 secs

     total energy              =    -501.16607366 Ry
     Harris-Foulkes estimate   =    -501.15356462 Ry
     estimated scf accuracy    <       0.03375712 Ry

     total magnetization       =     1.25 Bohr mag/cell
     absolute magnetization    =     1.50 Bohr mag/cell

     iteration #  5     ecut=    40.00 Ry     beta=0.30
     Davidson diagonalization with overlap
     ethr =  6.25E-05,  avg # of iterations =  2.8

     negative rho (up, down):  0.399E+00 0.383E+00

     total cpu time spent up to now is      126.4 secs

     total energy              =    -501.17793372 Ry
     Harris-Foulkes estimate   =    -501.17325369 Ry
     estimated scf accuracy    <       0.01018863 Ry

     total magnetization       =     0.73 Bohr mag/cell
     absolute magnetization    =     0.89 Bohr mag/cell

     iteration #  6     ecut=    40.00 Ry     beta=0.30
     Davidson diagonalization with overlap
     ethr =  1.89E-05,  avg # of iterations =  1.7

     negative rho (up, down):  0.395E+00 0.385E+00

     total cpu time spent up to now is      143.9 secs

     total energy              =    -501.18268136 Ry
     Harris-Foulkes estimate   =    -501.18225716 Ry
     estimated scf accuracy    <       0.00263436 Ry

     total magnetization       =     0.42 Bohr mag/cell
     absolute magnetization    =     0.49 Bohr mag/cell

     iteration #  7     ecut=    40.00 Ry     beta=0.30
     Davidson diagonalization with overlap
     ethr =  4.88E-06,  avg # of iterations =  1.8

     negative rho (up, down):  0.394E+00 0.387E+00

     total cpu time spent up to now is      161.2 secs

     total energy              =    -501.18417297 Ry
     Harris-Foulkes estimate   =    -501.18384459 Ry
     estimated scf accuracy    <       0.00165441 Ry

     total magnetization       =     0.32 Bohr mag/cell
     absolute magnetization    =     0.37 Bohr mag/cell

     iteration #  8     ecut=    40.00 Ry     beta=0.30
     Davidson diagonalization with overlap
     ethr =  3.06E-06,  avg # of iterations =  1.1

     negative rho (up, down):  0.391E+00 0.390E+00

     total cpu time spent up to now is      177.3 secs

     total energy              =    -501.18472497 Ry
     Harris-Foulkes estimate   =    -501.18459630 Ry
     estimated scf accuracy    <       0.00019084 Ry

     total magnetization       =     0.21 Bohr mag/cell
     absolute magnetization    =     0.23 Bohr mag/cell

     iteration #  9     ecut=    40.00 Ry     beta=0.30
     Davidson diagonalization with overlap
     ethr =  3.53E-07,  avg # of iterations =  2.1

     negative rho (up, down):  0.391E+00 0.390E+00

     total cpu time spent up to now is      196.1 secs

     total energy              =    -501.18502973 Ry
     Harris-Foulkes estimate   =    -501.18501353 Ry
     estimated scf accuracy    <       0.00013441 Ry

     total magnetization       =     0.08 Bohr mag/cell
     absolute magnetization    =     0.10 Bohr mag/cell

     iteration # 10     ecut=    40.00 Ry     beta=0.30
     Davidson diagonalization with overlap
     ethr =  2.49E-07,  avg # of iterations =  1.0

     negative rho (up, down):  0.391E+00 0.390E+00

     total cpu time spent up to now is      212.0 secs

     total energy              =    -501.18508616 Ry
     Harris-Foulkes estimate   =    -501.18508899 Ry
     estimated scf accuracy    <       0.00005030 Ry

     total magnetization       =     0.05 Bohr mag/cell
     absolute magnetization    =     0.06 Bohr mag/cell

     iteration # 11     ecut=    40.00 Ry     beta=0.30
     Davidson diagonalization with overlap
     ethr =  9.31E-08,  avg # of iterations =  1.6

     negative rho (up, down):  0.391E+00 0.390E+00

     total cpu time spent up to now is      228.9 secs

     total energy              =    -501.18511445 Ry
     Harris-Foulkes estimate   =    -501.18511313 Ry
     estimated scf accuracy    <       0.00000512 Ry

     total magnetization       =     0.02 Bohr mag/cell
     absolute magnetization    =     0.02 Bohr mag/cell

     iteration # 12     ecut=    40.00 Ry     beta=0.30
     Davidson diagonalization with overlap
     ethr =  9.48E-09,  avg # of iterations =  2.0

     negative rho (up, down):  0.390E+00 0.390E+00

     total cpu time spent up to now is      246.7 secs

     total energy              =    -501.18512007 Ry
     Harris-Foulkes estimate   =    -501.18512044 Ry
     estimated scf accuracy    <       0.00000175 Ry

     total magnetization       =     0.00 Bohr mag/cell
     absolute magnetization    =     0.00 Bohr mag/cell

     iteration # 13     ecut=    40.00 Ry     beta=0.30
     Davidson diagonalization with overlap
     ethr =  3.24E-09,  avg # of iterations =  1.2

     negative rho (up, down):  0.390E+00 0.390E+00

     total cpu time spent up to now is      262.4 secs

     End of self-consistent calculation

 ------ SPIN UP ------------


          k = 0.0000 0.0000 0.0000 (  1691 PWs)   bands (ev):

   -34.6558 -34.6558 -34.5061 -34.5061 -34.4297 -34.4096  -6.1625  -4.8520
    -3.5902  -3.5902   5.1323   5.3571   6.9944   7.2867   7.2867  10.1903
    10.1903  10.7640  12.0924  12.4634  12.4634  12.6882  12.7681  13.1521
    13.5786  13.5786  13.9446  17.0085  17.4773  20.5739  20.8157  20.8157
    22.3977  24.8491  24.8491  25.5197  25.5198  28.9179  28.9399  29.0683
    31.7188  32.6159  32.8910  32.8910  34.5387  36.4880  36.9512  36.9512
    38.2570  38.2570  39.6843  42.9746  43.1735  43.1735  43.3050  44.7891
    46.1647  46.4006  46.5716  47.4103  47.4103  48.0895  48.0895  48.2088
    48.7472  49.3443  49.3443  50.8589  53.2671  55.2476  55.2476  55.4653
    55.4819  56.1466  56.1466  57.3376  57.4809  57.4811

          k = 0.0000 0.0000 0.3103 (  1711 PWs)   bands (ev):

   -34.6468 -34.6468 -34.5246 -34.5090 -34.4930 -34.4930  -5.6591  -4.5259
    -3.9000  -3.9000   5.8663   5.9080   7.3593   7.3593   7.5012   9.0969
    10.0788  10.6749  10.6749  11.0525  11.0525  12.9505  13.1810  13.7547
    14.1049  14.9103  14.9103  16.9471  17.9297  20.1011  20.1011  20.9933
    22.5315  25.5196  25.5196  26.5742  26.5742  29.0892  29.1189  29.1762
    29.9132  31.7325  32.3174  32.3174  32.4634  37.6577  37.8202  37.8202
    38.0234  38.0234  39.5982  42.4147  42.5745  42.8602  43.0937  43.0937
    43.8980  44.7491  44.8523  44.8523  47.7715  49.0840  49.0840  50.8606
    51.3142  51.5262  51.5262  51.9903  52.7759  53.8384  54.3395  54.3395
    55.3385  55.8055  55.8055  58.2499  58.6013  58.7499

          k = 0.0000 0.0000 0.6207 (  1703 PWs)   bands (ev):

   -34.6733 -34.6676 -34.6322 -34.6322 -34.4712 -34.4712  -4.6270  -4.3693
    -4.3693  -4.1374   6.7710   7.0981   7.6404   7.8539   7.8539   8.3682
     8.9409   9.4155   9.4155  11.0119  11.2989  11.2989  14.1741  14.3760
    14.9745  15.6386  16.0340  16.0340  18.7830  19.2782  19.8551  19.8551
    25.0213  25.5191  25.5203  27.4383  28.8127  28.8560  29.0771  29.0771
    29.7547  30.6590  30.9919  30.9919  31.5331  33.3326  37.4019  37.4019
    39.2328  39.2328  40.7073  41.2760  41.5555  42.1900  42.9547  43.2268
    43.2268  45.1283  45.1283  46.7736  48.7544  48.7544  49.5636  51.4909
    51.4909  51.9855  52.1417  52.1417  52.4506  53.3565  53.9760  55.6492
    56.0016  56.0016  56.7827  56.9715  58.2233  58.2233

          k = 0.0000 0.2000 0.0000 (  1701 PWs)   bands (ev):

   -34.6539 -34.6539 -34.5085 -34.5083 -34.4279 -34.4117  -5.9962  -4.8492
    -3.7933  -3.6917   5.5215   5.6577   7.2903   7.3179   7.3276   9.5927
     9.6970  10.6222  11.2404  11.5509  12.0774  12.8432  13.2969  13.6997
    13.9304  14.1169  14.3835  17.1265  17.5925  20.5800  20.6270  21.2057
    21.9319  24.8228  24.9975  25.5197  25.5210  28.4496  29.0105  29.0176
    30.8349  33.0715  33.2442  33.4959  35.0395  35.8454  36.2120  36.4207
    37.8754  39.1412  40.7422  41.8871  43.0614  43.2174  44.1838  44.8551
    45.4760  45.9113  45.9991  47.0894  47.7222  48.0536  48.6429  49.5425
    50.1811  50.2081  50.3302  51.1716  53.0070  53.9410  54.4226  54.9194
    54.9622  55.1391  55.4233  55.7843  56.5995  57.5586

          k = 0.0000 0.2000 0.3103 (  1709 PWs)   bands (ev):

   -34.6460 -34.6458 -34.5229 -34.5115 -34.4941 -34.4930  -5.5169  -4.4964
    -4.0751  -3.9669   6.1129   6.1658   7.2806   7.3439   7.9581   8.9039
     9.4262  10.3483  10.4192  10.9494  11.0994  12.6399  13.4296  14.3227
    14.5002  14.7606  15.1145  16.6907  18.2867  19.4920  19.9245  21.3800
    22.7463  25.5194  25.5194  26.2218  26.6075  28.7655  29.1815  29.3532
    30.1390  31.4851  31.7381  32.3954  33.7355  36.4086  36.8583  37.7122
    38.0279  38.5698  40.6851  41.8893  41.9734  42.1920  42.9455  43.7794
    44.3804  44.9687  45.4246  46.6774  48.8367  48.8966  49.7647  49.7753
    50.5996  51.4919  51.9597  52.0112  53.5278  53.5695  53.8968  54.2907
    54.3609  55.3040  56.2340  57.5546  57.8236  58.6128

          k = 0.0000 0.2000 0.6207 (  1699 PWs)   bands (ev):

   -34.6760 -34.6714 -34.6290 -34.6290 -34.4713 -34.4712  -4.7431  -4.5597
    -4.1898  -3.9729   6.7350   6.9460   7.0528   7.6198   8.2307   8.5347
     9.2622   9.7100   9.8489  10.9482  11.0352  11.4352  13.7106  14.5580
    14.9523  15.0168  16.1808  16.2837  18.4838  18.5967  20.2352  20.7512
    25.0430  25.5192  25.5200  27.0085  28.1753  28.3972  29.2477  29.4159
    30.2152  30.4246  30.7467  31.0957  32.8210  33.0595  36.8106  37.1317
    38.7167  39.3066  40.4540  40.9289  42.2404  42.4529  43.2288  43.5163
    44.6453  44.8222  45.1376  47.5654  48.9148  49.1845  49.9939  50.1700
    51.2479  51.3249  51.7149  52.8266  53.1267  53.5928  53.7354  55.1894
    55.2896  56.1170  56.8937  57.4308  58.8531  58.8818

          k = 0.0000 0.4000 0.0000 (  1703 PWs)   bands (ev):

   -34.6507 -34.6506 -34.5122 -34.5122 -34.4229 -34.4168  -5.5500  -5.0368
    -4.0365  -3.9143   6.3257   6.3401   7.3782   7.3887   8.1821   8.6338
     8.6835   9.6090  10.5334  10.8540  12.1259  12.5120  13.8191  13.9983
    14.5383  14.6746  15.3131  16.3074  19.0135  20.2143  20.2650  20.6341
    22.7034  24.1401  25.5131  25.5193  25.7047  27.0414  29.3052  29.6336
    30.2178  31.9813  33.5476  34.3247  34.4139  35.7894  36.3058  37.6690
    38.0893  39.5743  41.0276  41.8920  42.0375  42.6614  43.1299  43.2192
    45.9953  46.0152  47.0567  47.7648  48.6363  49.1322  49.1439  49.4666
    51.2299  51.5005  51.8935  52.6581  52.8249  53.2505  53.3099  53.4865
    54.2668  54.6635  54.7683  55.5948  55.7815  55.8599

          k = 0.0000 0.4000 0.3103 (  1705 PWs)   bands (ev):

   -34.6446 -34.6444 -34.5195 -34.5159 -34.4953 -34.4942  -5.1305  -4.6407
    -4.2694  -4.1253   6.6751   6.7734   7.2518   7.3440   8.3365   8.6190
     9.0892   9.6059   9.6289  10.3215  11.6895  12.1543  14.0321  14.4465
    15.0297  15.0822  15.5898  16.0870  18.7041  18.8317  20.0300  20.9134
    23.8805  25.2169  25.5195  25.5207  27.0036  27.9018  29.4234  29.7624
    30.4940  30.8780  31.4683  32.6906  34.3975  35.3188  36.6479  38.0260
    38.1628  38.8035  40.7264  40.9004  42.0298  42.1270  42.9249  42.9983
    44.7829  46.6325  46.9309  47.8372  48.5103  49.1588  49.7315  50.5699
    51.3113  51.6314  51.8240  52.1106  53.1664  53.4168  53.6983  53.8075
    54.8658  55.1749  55.8062  57.5601  57.7244  58.2937

          k = 0.0000 0.4000 0.6207 (  1704 PWs)   bands (ev):

   -34.6791 -34.6773 -34.6247 -34.6247 -34.4714 -34.4713  -4.8188  -4.7540
    -3.9612  -3.8704   6.6215   6.6614   6.9216   7.0456   8.6741   9.1025
     9.3751  10.1168  10.3065  10.4503  11.0790  12.1179  12.9035  13.8215
    14.8834  15.0509  16.3774  16.4088  17.9713  18.1467  21.0181  21.3605
    25.3258  25.5191  25.5201  26.0925  27.9041  28.0520  29.3442  29.3895
    29.8554  30.0536  31.1558  32.0770  32.6222  33.8795  35.9848  36.6261
    38.9340  39.4269  40.3410  40.6183  42.5067  42.6004  43.6537  43.7109
    44.8421  45.2008  47.6271  47.9132  48.1338  48.6161  49.8362  50.3671
    51.1956  51.2575  51.7050  52.6243  53.0709  53.0713  54.4936  55.7516
    56.3213  56.3942  57.1840  57.4394  58.0614  58.1571

          k = 0.2000 0.2000 0.0000 (  1716 PWs)   bands (ev):

   -34.6568 -34.6504 -34.5123 -34.5057 -34.4264 -34.4134  -5.8725  -4.8825
    -3.9855  -3.6440   5.2544   6.3607   7.2641   7.3919   7.5629   8.6575
    10.0528  10.5296  11.4129  11.4499  11.5831  12.8242  12.8892  13.5879
    13.9623  14.6219  14.8590  16.9555  17.8365  20.2380  20.8090  21.3510
    21.9677  24.8370  25.1552  25.5194  25.5214  27.9219  28.5854  29.5007
    30.2481  32.5291  33.5272  35.2422  35.3171  36.1202  36.2562  36.4410
    37.0740  38.6566  40.5199  40.9711  42.7603  43.3779  43.9753  44.2753
    45.5404  46.4959  46.8761  47.5019  47.6113  48.6323  49.6259  49.7647
    49.9730  50.5544  50.9709  51.9745  52.8196  53.0703  53.0735  54.4924
    54.6402  54.9850  55.8460  56.4016  57.4637  57.8848

          k = 0.2000 0.2000 0.3103 (  1714 PWs)   bands (ev):

   -34.6473 -34.6443 -34.5222 -34.5124 -34.4947 -34.4928  -5.4069  -4.4935
    -4.2378  -3.9455   5.8838   6.7155   7.1267   7.4194   8.2278   8.6045
     9.6157   9.6610  10.4521  11.0064  11.3546  12.3269  13.6562  13.8930
    14.5438  15.1936  15.3175  16.5031  18.4047  19.1606  20.1001  21.2370
    23.1547  25.5190  25.5194  26.2759  26.3228  28.2478  29.1123  29.2458
    30.2458  31.2692  32.2680  33.0179  33.7119  35.4032  36.8409  37.8328
    38.3074  38.8335  40.4174  41.5561  41.9842  42.2797  43.4151  43.6083
    44.3289  45.3603  46.7772  46.8572  48.6886  48.7777  49.9242  49.9574
    50.1705  51.5511  52.0126  52.7099  53.2151  53.3387  53.6297  54.0915
    54.5577  55.0638  55.7007  56.4200  58.6573  58.7315

          k = 0.2000 0.2000 0.6207 (  1699 PWs)   bands (ev):

   -34.6781 -34.6705 -34.6324 -34.6245 -34.4713 -34.4712  -4.8123  -4.4046
    -4.3478  -3.8831   6.6887   6.9205   7.0872   7.4678   7.7390   9.1997
     9.2567   9.7911  10.1829  10.4501  11.1694  11.7887  13.4307  14.6066
    15.0289  15.0446  15.5871  16.5776  17.9365  19.3386  19.8423  21.1030
    25.0508  25.5190  25.5199  26.9040  27.5295  28.1668  28.4430  29.1332
    29.8512  31.3842  31.4331  31.9127  32.6226  33.5710  36.2939  37.0400
    38.3476  39.0769  39.6955  41.9408  42.4450  43.4145  43.7782  44.2121
    44.4335  44.7748  45.6862  47.8191  48.4257  49.1470  49.7724  50.4532
    50.6357  51.0422  51.7842  52.4077  52.8540  53.4845  54.2010  54.7929
    55.1919  56.2291  57.0318  57.5024  57.5323  58.7568

          k = 0.2000 0.4000 0.0000 (  1704 PWs)   bands (ev):

   -34.6551 -34.6511 -34.5119 -34.5078 -34.4224 -34.4174  -5.5414  -5.1310
    -4.0065  -3.7959   5.5931   6.3380   7.2910   7.3704   8.3365   8.7370
     9.4330  10.2118  10.6644  11.1562  11.5967  12.2129  13.4391  13.9166
    14.0200  14.6146  15.6575  16.4142  18.8058  20.1733  20.2350  20.5970
    23.2991  24.4947  25.5142  25.5192  25.6954  26.8913  28.5777  29.0690
    30.4145  31.6704  34.7672  35.2887  35.5981  35.9747  36.2643  37.1776
    37.9198  38.4201  39.6718  41.1868  41.7428  42.3846  42.9752  43.8576
    45.8230  46.0473  47.4902  47.9765  48.6326  49.1831  50.4608  50.5211
    50.9760  51.3944  51.6353  52.4370  52.9477  53.3493  53.6598  53.7837
    54.4947  54.7917  55.4250  55.6637  55.9334  56.9165

          k = 0.2000 0.4000 0.3103 (  1710 PWs)   bands (ev):

   -34.6467 -34.6448 -34.5195 -34.5153 -34.4947 -34.4933  -5.1138  -4.7379
    -4.2232  -4.0558   6.1389   6.7391   7.1512   7.2435   8.5830   8.9109
     9.3574   9.7239  10.1094  10.5407  11.4062  11.8156  14.1168  14.3034
    14.5185  15.1442  15.5895  16.0312  18.7664  19.2063  20.0263  20.6477
    24.2247  25.3745  25.5195  25.5220  26.7322  27.5158  29.0632  29.3140
    30.3936  30.8512  32.3395  32.9859  34.3031  35.0250  36.8362  38.3407
    38.6001  39.0047  40.5147  40.7335  42.2017  42.4301  43.0359  43.6628
    44.5877  45.8987  46.8133  47.4642  48.6042  49.6500  49.8212  50.5617
    50.7011  51.6408  51.7257  52.3608  52.7756  53.3580  53.6786  53.8430
    54.9429  55.3360  56.3824  56.4435  56.8991  57.6224

          k = 0.2000 0.4000 0.6207 (  1693 PWs)   bands (ev):

   -34.6779 -34.6739 -34.6293 -34.6247 -34.4713 -34.4713  -4.7917  -4.6321
    -4.0939  -3.9014   6.6015   6.7526   7.0097   7.2828   8.0509   8.8534
     9.4991   9.8346  10.3489  10.8151  11.3104  12.1715  13.1764  14.1308
    14.7798  14.9829  15.8941  16.3720  18.0477  18.7350  20.5949  21.1952
    25.2786  25.5185  25.5202  26.0419  27.1275  27.5196  28.5090  28.9003
    29.8577  30.6829  32.0585  32.5982  33.2662  34.5526  35.7508  36.8580
    38.5654  39.2793  39.6369  40.8800  43.3907  43.5900  43.9809  44.2195
    45.4699  46.0212  47.0472  47.4839  48.2389  48.6623  49.7047  50.1399
    50.4814  50.7414  51.1529  52.0796  52.8954  53.9773  54.3432  54.5147
    55.2873  55.4222  56.4386  57.0327  57.8156  58.3031

          k = 0.4000 0.4000 0.0000 (  1720 PWs)   bands (ev):

   -34.6583 -34.6558 -34.5074 -34.5050 -34.4210 -34.4191  -5.4781  -5.3252
    -3.8419  -3.7273   5.2659   5.5966   7.2277   7.2717   9.0138   9.6976
     9.7807  10.5651  11.1216  11.1603  11.4699  11.9208  12.8493  13.4260
    13.6050  14.0318  16.1773  16.4473  18.7890  19.3281  20.5908  20.7986
    24.3588  25.0655  25.5070  25.5187  25.6331  26.3975  27.9512  28.1606
    31.0133  31.6683  35.7810  36.0281  36.1137  36.3060  36.6511  37.1981
    37.5676  37.6143  39.2690  40.3481  40.4415  42.4452  43.3273  44.4422
    44.7664  46.2396  46.3674  46.7974  48.6649  50.0139  50.2582  51.2900
    51.7538  51.7581  52.7701  52.9187  53.4367  53.7283  54.0513  54.0635
    54.8729  54.9856  55.8562  56.1003  56.1672  56.8372

          k = 0.4000 0.4000 0.3103 (  1690 PWs)   bands (ev):

   -34.6483 -34.6472 -34.5178 -34.5157 -34.4931 -34.4923  -5.0467  -4.9124
    -4.0978  -4.0166   5.8822   6.1419   7.0479   7.1195   9.2431   9.5423
     9.6377  10.1453  10.4786  10.8136  10.8937  11.2932  13.8623  14.3203
    14.3607  14.5394  15.7196  15.8732  19.2294  19.4622  20.0887  20.1733
    24.9495  25.5176  25.5194  25.6157  26.1893  26.7532  29.0499  29.0726
    30.3382  30.8578  31.8227  32.4899  35.0578  36.1163  37.0666  38.6414
    38.7445  39.0046  40.9472  41.6558  41.6873  42.9863  43.3038  43.9278
    44.9385  45.2114  46.2476  46.8102  47.9730  48.6163  50.1062  50.1593
    50.8261  51.0699  51.4719  52.2419  52.4993  53.7484  54.2571  54.3570
    55.1436  55.5466  56.4582  56.6531  56.9515  57.9008

          k = 0.4000 0.4000 0.6207 (  1689 PWs)   bands (ev):

   -34.6734 -34.6705 -34.6328 -34.6294 -34.4713 -34.4713  -4.6420  -4.4603
    -4.2700  -4.0705   6.7025   6.9697   7.1937   7.3272   7.7488   8.2395
     9.3096   9.5344  10.7205  10.9550  11.7693  12.1326  13.9184  14.6546
    14.7038  14.8020  15.2574  15.8549  18.7233  19.5675  19.8186  20.5977
    25.2583  25.5172  25.5187  25.6444  26.4660  26.7256  28.5325  28.6116
    29.5132  29.8990  33.2404  33.2477  34.5699  35.1544  36.2322  37.0401
    38.9725  39.2043  39.3065  40.5725  43.8315  43.8950  45.3451  45.4507
    45.6323  46.5580  46.7827  47.9757  48.4444  48.8222  49.3422  49.4539
    50.2370  50.2737  50.9946  51.0561  52.1248  52.3682  52.6466  54.6233
    54.6499  55.8701  55.8996  56.7351  57.0009  57.2058

 ------ SPIN DOWN ----------


          k = 0.0000 0.0000 0.0000 (  1691 PWs)   bands (ev):

   -34.6568 -34.6568 -34.5066 -34.5066 -34.4303 -34.4102  -6.1629  -4.8524
    -3.5907  -3.5907   5.1322   5.3568   6.9933   7.2864   7.2864  10.1899
    10.1899  10.7640  12.0924  12.4626  12.4626  12.6869  12.7679  13.1518
    13.5777  13.5777  13.9432  17.0078  17.4759  20.5734  20.8153  20.8153
    22.3974  24.8488  24.8488  25.5196  25.5197  28.9172  28.9395  29.0680
    31.7187  32.6154  32.8903  32.8903  34.5381  36.4877  36.9509  36.9509
    38.2564  38.2564  39.6840  42.9744  43.1731  43.1731  43.3045  44.7884
    46.1643  46.4002  46.5714  47.4100  47.4100  48.0889  48.0889  48.2084
    48.7468  49.3435  49.3435  50.8585  53.2668  55.2471  55.2471  55.4648
    55.4813  56.1460  56.1460  57.3368  57.4808  57.4808

          k = 0.0000 0.0000 0.3103 (  1711 PWs)   bands (ev):

   -34.6477 -34.6477 -34.5252 -34.5095 -34.4935 -34.4935  -5.6595  -4.5263
    -3.9005  -3.9005   5.8662   5.9077   7.3590   7.3590   7.5001   9.0968
    10.0787  10.6739  10.6739  11.0523  11.0523  12.9490  13.1798  13.7543
    14.1047  14.9092  14.9092  16.9457  17.9293  20.1006  20.1006  20.9929
    22.5313  25.5195  25.5196  26.5739  26.5739  29.0889  29.1182  29.1757
    29.9130  31.7320  32.3168  32.3168  32.4630  37.6575  37.8197  37.8197
    38.0230  38.0230  39.5977  42.4143  42.5743  42.8598  43.0932  43.0932
    43.8973  44.7487  44.8519  44.8519  47.7710  49.0832  49.0832  50.8601
    51.3139  51.5257  51.5257  51.9900  52.7754  53.8380  54.3390  54.3390
    55.3379  55.8052  55.8052  58.2491  58.6007  58.7495

          k = 0.0000 0.0000 0.6207 (  1703 PWs)   bands (ev):

   -34.6739 -34.6682 -34.6331 -34.6331 -34.4717 -34.4717  -4.6274  -4.3697
    -4.3697  -4.1378   6.7708   7.0980   7.6402   7.8534   7.8534   8.3681
     8.9397   9.4152   9.4152  11.0107  11.2983  11.2983  14.1728  14.3756
    14.9743  15.6373  16.0329  16.0329  18.7826  19.2778  19.8546  19.8546
    25.0211  25.5191  25.5202  27.4382  28.8123  28.8555  29.0768  29.0768
    29.7541  30.6585  30.9915  30.9915  31.5329  33.3323  37.4012  37.4012
    39.2324  39.2324  40.7070  41.2757  41.5550  42.1894  42.9542  43.2264
    43.2264  45.1277  45.1277  46.7732  48.7539  48.7539  49.5632  51.4904
    51.4904  51.9849  52.1412  52.1412  52.4500  53.3560  53.9754  55.6488
    56.0011  56.0011  56.7823  56.9709  58.2228  58.2228

          k = 0.0000 0.2000 0.0000 (  1701 PWs)   bands (ev):

   -34.6549 -34.6549 -34.5090 -34.5088 -34.4285 -34.4123  -5.9966  -4.8496
    -3.7938  -3.6921   5.5213   5.6575   7.2892   7.3176   7.3273   9.5923
     9.6967  10.6221  11.2395  11.5507  12.0762  12.8418  13.2967  13.6995
    13.9296  14.1162  14.3822  17.1252  17.5919  20.5796  20.6266  21.2053
    21.9315  24.8224  24.9971  25.5196  25.5210  28.4492  29.0101  29.0172
    30.8346  33.0710  33.2437  33.4954  35.0390  35.8450  36.2116  36.4204
    37.8752  39.1407  40.7417  41.8867  43.0610  43.2170  44.1833  44.8548
    45.4754  45.9108  45.9988  47.0890  47.7219  48.0531  48.6424  49.5421
    50.1803  50.2075  50.3298  51.1711  53.0067  53.9405  54.4221  54.9189
    54.9618  55.1386  55.4227  55.7839  56.5987  57.5580

          k = 0.0000 0.2000 0.3103 (  1709 PWs)   bands (ev):

   -34.6469 -34.6468 -34.5234 -34.5121 -34.4947 -34.4935  -5.5173  -4.4968
    -4.0756  -3.9673   6.1127   6.1655   7.2801   7.3436   7.9572   8.9037
     9.4258  10.3481  10.4190  10.9488  11.0985  12.6386  13.4284  14.3224
    14.5001  14.7596  15.1133  16.6894  18.2862  19.4915  19.9241  21.3796
    22.7460  25.5193  25.5194  26.2215  26.6071  28.7651  29.1810  29.3528
    30.1387  31.4847  31.7376  32.3949  33.7350  36.4082  36.8579  37.7119
    38.0274  38.5694  40.6846  41.8889  41.9728  42.1916  42.9451  43.7788
    44.3800  44.9683  45.4242  46.6769  48.8362  48.8960  49.7641  49.7748
    50.5991  51.4915  51.9594  52.0107  53.5273  53.5690  53.8963  54.2902
    54.3604  55.3035  56.2335  57.5538  57.8230  58.6122

          k = 0.0000 0.2000 0.6207 (  1699 PWs)   bands (ev):

   -34.6765 -34.6720 -34.6299 -34.6299 -34.4718 -34.4718  -4.7436  -4.5601
    -4.1902  -3.9733   6.7347   6.9457   7.0526   7.6194   8.2304   8.5342
     9.2618   9.7093   9.8486  10.9476  11.0346  11.4339  13.7094  14.5576
    14.9511  15.0166  16.1796  16.2824  18.4831  18.5961  20.2348  20.7508
    25.0428  25.5191  25.5199  27.0083  28.1750  28.3968  29.2472  29.4155
    30.2147  30.4243  30.7464  31.0953  32.8206  33.0591  36.8100  37.1311
    38.7163  39.3062  40.4537  40.9285  42.2400  42.4523  43.2284  43.5158
    44.6449  44.8216  45.1371  47.5650  48.9143  49.1841  49.9934  50.1695
    51.2474  51.3244  51.7144  52.8262  53.1262  53.5922  53.7349  55.1888
    55.2890  56.1165  56.8931  57.4303  58.8526  58.8813

          k = 0.0000 0.4000 0.0000 (  1703 PWs)   bands (ev):

   -34.6517 -34.6516 -34.5128 -34.5127 -34.4235 -34.4174  -5.5504  -5.0372
    -4.0369  -3.9148   6.3255   6.3399   7.3779   7.3884   8.1811   8.6334
     8.6832   9.6080  10.5332  10.8537  12.1246  12.5106  13.8190  13.9982
    14.5376  14.6739  15.3118  16.3061  19.0130  20.2139  20.2646  20.6337
    22.7030  24.1397  25.5130  25.5192  25.7043  27.0410  29.3047  29.6332
    30.2174  31.9810  33.5471  34.3243  34.4135  35.7890  36.3053  37.6684
    38.0888  39.5739  41.0271  41.8915  42.0369  42.6611  43.1294  43.2187
    45.9947  46.0147  47.0563  47.7644  48.6359  49.1317  49.1435  49.4662
    51.2295  51.5001  51.8928  52.6575  52.8245  53.2500  53.3094  53.4862
    54.2663  54.6632  54.7678  55.5941  55.7811  55.8594

          k = 0.0000 0.4000 0.3103 (  1705 PWs)   bands (ev):

   -34.6455 -34.6453 -34.5201 -34.5165 -34.4958 -34.4947  -5.1309  -4.6411
    -4.2698  -4.1258   6.6749   6.7731   7.2515   7.3436   8.3360   8.6185
     9.0886   9.6056   9.6286  10.3209  11.6885  12.1532  14.0310  14.4456
    15.0293  15.0819  15.5887  16.0857  18.7035  18.8311  20.0296  20.9131
    23.8801  25.2165  25.5194  25.5206  27.0032  27.9013  29.4230  29.7621
    30.4936  30.8777  31.4680  32.6902  34.3970  35.3183  36.6474  38.0256
    38.1623  38.8031  40.7259  40.8999  42.0294  42.1266  42.9245  42.9978
    44.7825  46.6321  46.9304  47.8367  48.5098  49.1583  49.7310  50.5693
    51.3109  51.6310  51.8235  52.1102  53.1658  53.4164  53.6978  53.8071
    54.8653  55.1743  55.8057  57.5595  57.7238  58.2932

          k = 0.0000 0.4000 0.6207 (  1704 PWs)   bands (ev):

   -34.6797 -34.6779 -34.6256 -34.6256 -34.4719 -34.4718  -4.8193  -4.7545
    -3.9617  -3.8708   6.6211   6.6610   6.9213   7.0453   8.6740   9.1022
     9.3747  10.1160  10.3064  10.4500  11.0778  12.1166  12.9025  13.8204
    14.8832  15.0507  16.3761  16.4075  17.9705  18.1460  21.0178  21.3602
    25.3255  25.5191  25.5200  26.0922  27.9038  28.0516  29.3438  29.3892
    29.8550  30.0532  31.1553  32.0765  32.6218  33.8791  35.9842  36.6255
    38.9336  39.4264  40.3407  40.6180  42.5063  42.5999  43.6532  43.7103
    44.8415  45.2003  47.6267  47.9127  48.1333  48.6157  49.8358  50.3667
    51.1951  51.2571  51.7045  52.6237  53.0704  53.0707  54.4932  55.7510
    56.3208  56.3936  57.1835  57.4387  58.0608  58.1566

          k = 0.2000 0.2000 0.0000 (  1716 PWs)   bands (ev):

   -34.6578 -34.6514 -34.5129 -34.5063 -34.4269 -34.4140  -5.8729  -4.8829
    -3.9859  -3.6444   5.2542   6.3606   7.2638   7.3916   7.5618   8.6573
    10.0520  10.5294  11.4117  11.4493  11.5831  12.8230  12.8890  13.5870
    13.9622  14.6211  14.8576  16.9542  17.8359  20.2376  20.8086  21.3506
    21.9673  24.8366  25.1547  25.5193  25.5213  27.9214  28.5849  29.5004
    30.2479  32.5285  33.5268  35.2417  35.3166  36.1200  36.2557  36.4406
    37.0737  38.6561  40.5195  40.9706  42.7598  43.3775  43.9748  44.2748
    45.5399  46.4955  46.8758  47.5015  47.6105  48.6319  49.6253  49.7641
    49.9725  50.5540  50.9704  51.9739  52.8192  53.0700  53.0729  54.4918
    54.6396  54.9846  55.8453  56.4011  57.4631  57.8845

          k = 0.2000 0.2000 0.3103 (  1714 PWs)   bands (ev):

   -34.6483 -34.6453 -34.5227 -34.5129 -34.4952 -34.4933  -5.4074  -4.4939
    -4.2382  -3.9460   5.8836   6.7153   7.1263   7.4192   8.2268   8.6042
     9.6155   9.6608  10.4510  11.0063  11.3538  12.3257  13.6550  13.8927
    14.5432  15.1932  15.3163  16.5018  18.4042  19.1601  20.0997  21.2366
    23.1544  25.5190  25.5193  26.2756  26.3224  28.2474  29.1120  29.2453
    30.2455  31.2687  32.2676  33.0174  33.7115  35.4027  36.8405  37.8324
    38.3069  38.8332  40.4170  41.5556  41.9837  42.2792  43.4145  43.6079
    44.3285  45.3599  46.7767  46.8568  48.6880  48.7771  49.9239  49.9569
    50.1701  51.5507  52.0121  52.7095  53.2145  53.3382  53.6291  54.0909
    54.5572  55.0633  55.7000  56.4194  58.6567  58.7310

          k = 0.2000 0.2000 0.6207 (  1699 PWs)   bands (ev):

   -34.6788 -34.6711 -34.6334 -34.6254 -34.4718 -34.4718  -4.8127  -4.4050
    -4.3482  -3.8835   6.6884   6.9203   7.0870   7.4673   7.7389   9.1995
     9.2563   9.7901  10.1828  10.4493  11.1688  11.7873  13.4297  14.6063
    15.0287  15.0433  15.5860  16.5763  17.9358  19.3382  19.8417  21.1027
    25.0505  25.5189  25.5198  26.9037  27.5290  28.1664  28.4426  29.1328
    29.8509  31.3838  31.4327  31.9123  32.6221  33.5705  36.2934  37.0395
    38.3474  39.0763  39.6952  41.9403  42.4446  43.4141  43.7777  44.2116
    44.4330  44.7742  45.6857  47.8187  48.4252  49.1466  49.7720  50.4529
    50.6351  51.0417  51.7836  52.4073  52.8535  53.4840  54.2004  54.7924
    55.1914  56.2285  57.0314  57.5019  57.5317  58.7561

          k = 0.2000 0.4000 0.0000 (  1704 PWs)   bands (ev):

   -34.6560 -34.6520 -34.5124 -34.5084 -34.4230 -34.4180  -5.5418  -5.1314
    -4.0069  -3.7963   5.5929   6.3378   7.2907   7.3702   8.3354   8.7368
     9.4321  10.2114  10.6642  11.1561  11.5955  12.2116  13.4389  13.9165
    14.0192  14.6138  15.6562  16.4128  18.8052  20.1728  20.2346  20.5967
    23.2987  24.4943  25.5141  25.5191  25.6950  26.8909  28.5773  29.0687
    30.4141  31.6699  34.7668  35.2884  35.5977  35.9743  36.2638  37.1771
    37.9193  38.4197  39.6713  41.1863  41.7423  42.3842  42.9747  43.8571
    45.8225  46.0467  47.4899  47.9760  48.6322  49.1826  50.4603  50.5207
    50.9756  51.3940  51.6347  52.4365  52.9472  53.3489  53.6594  53.7832
    54.4941  54.7913  55.4244  55.6633  55.9330  56.9159

          k = 0.2000 0.4000 0.3103 (  1710 PWs)   bands (ev):

   -34.6477 -34.6458 -34.5201 -34.5158 -34.4953 -34.4938  -5.1142  -4.7384
    -4.2236  -4.0562   6.1388   6.7389   7.1508   7.2432   8.5825   8.9102
     9.3569   9.7237  10.1086  10.5405  11.4052  11.8145  14.1159  14.3026
    14.5180  15.1438  15.5882  16.0299  18.7659  19.2057  20.0259  20.6473
    24.2243  25.3741  25.5194  25.5220  26.7318  27.5154  29.0629  29.3137
    30.3932  30.8507  32.3391  32.9855  34.3026  35.0245  36.8358  38.3403
    38.5996  39.0043  40.5142  40.7329  42.2013  42.4296  43.0354  43.6623
    44.5873  45.8982  46.8129  47.4638  48.6037  49.6495  49.8207  50.5611
    50.7008  51.6403  51.7251  52.3604  52.7751  53.3575  53.6781  53.8425
    54.9424  55.3355  56.3817  56.4429  56.8985  57.6219

          k = 0.2000 0.4000 0.6207 (  1693 PWs)   bands (ev):

   -34.6785 -34.6745 -34.6302 -34.6256 -34.4719 -34.4718  -4.7921  -4.6326
    -4.0943  -3.9018   6.6011   6.7523   7.0094   7.2826   8.0506   8.8532
     9.4988   9.8344  10.3480  10.8144  11.3096  12.1704  13.1754  14.1296
    14.7795  14.9826  15.8929  16.3708  18.0470  18.7344  20.5946  21.1949
    25.2782  25.5184  25.5202  26.0415  27.1272  27.5192  28.5087  28.9000
    29.8574  30.6825  32.0580  32.5978  33.2657  34.5522  35.7503  36.8576
    38.5651  39.2787  39.6364  40.8797  43.3902  43.5893  43.9803  44.2190
    45.4694  46.0207  47.0468  47.4834  48.2384  48.6618  49.7043  50.1394
    50.4810  50.7410  51.1525  52.0791  52.8949  53.9768  54.3427  54.5142
    55.2868  55.4217  56.4381  57.0322  57.8151  58.3027

          k = 0.4000 0.4000 0.0000 (  1720 PWs)   bands (ev):

   -34.6592 -34.6568 -34.5080 -34.5056 -34.4215 -34.4196  -5.4785  -5.3256
    -3.8424  -3.7277   5.2658   5.5964   7.2273   7.2714   9.0127   9.6972
     9.7795  10.5645  11.1215  11.1594  11.4699  11.9201  12.8491  13.4258
    13.6040  14.0310  16.1759  16.4459  18.7884  19.3276  20.5904  20.7982
    24.3584  25.0649  25.5069  25.5186  25.6329  26.3971  27.9508  28.1603
    31.0128  31.6678  35.7808  36.0277  36.1132  36.3056  36.6508  37.1976
    37.5671  37.6139  39.2684  40.3476  40.4410  42.4448  43.3269  44.4418
    44.7657  46.2391  46.3667  46.7968  48.6646  50.0135  50.2579  51.2897
    51.7532  51.7574  52.7695  52.9182  53.4363  53.7276  54.0508  54.0631
    54.8724  54.9852  55.8557  56.0998  56.1667  56.8366

          k = 0.4000 0.4000 0.3103 (  1690 PWs)   bands (ev):

   -34.6492 -34.6482 -34.5184 -34.5163 -34.4937 -34.4929  -5.0471  -4.9128
    -4.0982  -4.0171   5.8820   6.1417   7.0475   7.1192   9.2428   9.5412
     9.6377  10.1440  10.4784  10.8129  10.8930  11.2928  13.8619  14.3200
    14.3596  14.5386  15.7183  15.8719  19.2289  19.4617  20.0882  20.1729
    24.9491  25.5175  25.5194  25.6152  26.1890  26.7528  29.0497  29.0723
    30.3378  30.8574  31.8223  32.4895  35.0573  36.1159  37.0662  38.6411
    38.7442  39.0043  40.9465  41.6552  41.6868  42.9858  43.3031  43.9273
    44.9381  45.2109  46.2472  46.8098  47.9726  48.6159  50.1057  50.1588
    50.8257  51.0693  51.4715  52.2414  52.4987  53.7477  54.2567  54.3564
    55.1431  55.5460  56.4578  56.6526  56.9512  57.9003

          k = 0.4000 0.4000 0.6207 (  1689 PWs)   bands (ev):

   -34.6740 -34.6711 -34.6337 -34.6304 -34.4719 -34.4719  -4.6424  -4.4608
    -4.2704  -4.0709   6.7022   6.9695   7.1931   7.3269   7.7487   8.2392
     9.3094   9.5342  10.7192  10.9538  11.7689  12.1319  13.9172  14.6533
    14.7035  14.8018  15.2563  15.8537  18.7227  19.5670  19.8180  20.5974
    25.2579  25.5172  25.5186  25.6440  26.4656  26.7252  28.5321  28.6112
    29.5130  29.8987  33.2400  33.2473  34.5694  35.1539  36.2318  37.0398
    38.9721  39.2036  39.3061  40.5721  43.8308  43.8943  45.3446  45.4502
    45.6318  46.5576  46.7823  47.9753  48.4439  48.8217  49.3417  49.4535
    50.2365  50.2732  50.9942  51.0556  52.1243  52.3676  52.6461  54.6229
    54.6494  55.8697  55.8991  56.7346  57.0004  57.2052

     the Fermi energy is    15.9972 ev

!    total energy              =    -501.18512129 Ry
     Harris-Foulkes estimate   =    -501.18512084 Ry
     estimated scf accuracy    <       0.00000003 Ry

     The total energy is the sum of the following terms:

     one-electron contribution =     -90.57716484 Ry
     hartree contribution      =      86.19690106 Ry
     xc contribution           =    -138.84578772 Ry
     ewald contribution        =    -357.95900915 Ry
     smearing contrib. (-TS)   =      -0.00006064 Ry

     total magnetization       =    -0.00 Bohr mag/cell
     absolute magnetization    =     0.00 Bohr mag/cell

     convergence has been achieved in  13 iterations

     Forces acting on atoms (Ry/au):


     negative rho (up, down):  0.390E+00 0.390E+00
     atom    1 type  1   force =     0.00000000    0.00000000    0.00000000
     atom    2 type  1   force =     0.00000000    0.00000000    0.00000000
     atom    3 type  2   force =    -0.03964333   -0.03964333   -0.00000000
     atom    4 type  2   force =     0.03964333    0.03964333   -0.00000000
     atom    5 type  2   force =    -0.03964333    0.03964333   -0.00000000
     atom    6 type  2   force =     0.03964333   -0.03964333    0.00000000

     Total force =     0.112128     Total SCF correction =     0.000132


     entering subroutine stress ...


     negative rho (up, down):  0.390E+00 0.390E+00
          total   stress  (Ry/bohr**3)                   (kbar)     P=  415.69
   0.00174173   0.00000000   0.00000000        256.22      0.00      0.00
   0.00000000   0.00174173   0.00000000          0.00    256.22      0.00
   0.00000000   0.00000000   0.00499393          0.00      0.00    734.63

     Volume is kept fixed: isostatic pressure set to zero

     BFGS Geometry Optimization

     number of scf cycles    =   1
     number of bfgs steps    =   0

     enthalpy new            =    -501.1851212916 Ry

     new trust radius        =       0.2164790807 bohr
     new conv_thr            =       0.0000010000 Ry

     new unit-cell volume =    398.76786 a.u.^3 (    59.09130 Ang^3 )

CELL_PARAMETERS (alat=  8.52141185)
   0.973601038   0.000000000   0.000000000
   0.000000000   0.973601038   0.000000000
   0.000000000   0.000000000   0.679866165

ATOMIC_POSITIONS (crystal)
Ir0      0.000000000   0.000000000   0.000000000    0   0   0
Ir0      0.500000000   0.500000000   0.500000000    0   0   0
O1       0.300347798   0.300347798   0.000000000    1   1   0
O1      -0.300347798  -0.300347798   0.000000000    1   1   0
O1       0.800347798   0.199652202   0.500000000    1   1   0
O1       0.199652202   0.800347798   0.500000000    1   1   0


     Check: negative starting charge=(component1):   -0.832274
     NEW-OLD atomic charge density approx. for the potential
     NEW k-points:
        k(    1) = (   0.0000000   0.0000000   0.0000000), wk =   0.0080000
        k(    2) = (   0.0000000   0.0000000   0.2941755), wk =   0.0160000
        k(    3) = (   0.0000000   0.0000000   0.5883511), wk =   0.0160000
        k(    4) = (   0.0000000   0.2054230   0.0000000), wk =   0.0320000
        k(    5) = (   0.0000000   0.2054230   0.2941755), wk =   0.0640000
        k(    6) = (   0.0000000   0.2054230   0.5883511), wk =   0.0640000
        k(    7) = (   0.0000000   0.4108459   0.0000000), wk =   0.0320000
        k(    8) = (   0.0000000   0.4108459   0.2941755), wk =   0.0640000
        k(    9) = (   0.0000000   0.4108459   0.5883511), wk =   0.0640000
        k(   10) = (   0.2054230   0.2054230   0.0000000), wk =   0.0320000
        k(   11) = (   0.2054230   0.2054230   0.2941755), wk =   0.0640000
        k(   12) = (   0.2054230   0.2054230   0.5883511), wk =   0.0640000
        k(   13) = (   0.2054230   0.4108459   0.0000000), wk =   0.0640000
        k(   14) = (   0.2054230   0.4108459   0.2941755), wk =   0.1280000
        k(   15) = (   0.2054230   0.4108459   0.5883511), wk =   0.1280000
        k(   16) = (   0.4108459   0.4108459   0.0000000), wk =   0.0320000
        k(   17) = (   0.4108459   0.4108459   0.2941755), wk =   0.0640000
        k(   18) = (   0.4108459   0.4108459   0.5883511), wk =   0.0640000
        k(   19) = (   0.0000000   0.0000000   0.0000000), wk =   0.0080000
        k(   20) = (   0.0000000   0.0000000   0.2941755), wk =   0.0160000
        k(   21) = (   0.0000000   0.0000000   0.5883511), wk =   0.0160000
        k(   22) = (   0.0000000   0.2054230   0.0000000), wk =   0.0320000
        k(   23) = (   0.0000000   0.2054230   0.2941755), wk =   0.0640000
        k(   24) = (   0.0000000   0.2054230   0.5883511), wk =   0.0640000
        k(   25) = (   0.0000000   0.4108459   0.0000000), wk =   0.0320000
        k(   26) = (   0.0000000   0.4108459   0.2941755), wk =   0.0640000
        k(   27) = (   0.0000000   0.4108459   0.5883511), wk =   0.0640000
        k(   28) = (   0.2054230   0.2054230   0.0000000), wk =   0.0320000
        k(   29) = (   0.2054230   0.2054230   0.2941755), wk =   0.0640000
        k(   30) = (   0.2054230   0.2054230   0.5883511), wk =   0.0640000
        k(   31) = (   0.2054230   0.4108459   0.0000000), wk =   0.0640000
        k(   32) = (   0.2054230   0.4108459   0.2941755), wk =   0.1280000
        k(   33) = (   0.2054230   0.4108459   0.5883511), wk =   0.1280000
        k(   34) = (   0.4108459   0.4108459   0.0000000), wk =   0.0320000
        k(   35) = (   0.4108459   0.4108459   0.2941755), wk =   0.0640000
        k(   36) = (   0.4108459   0.4108459   0.5883511), wk =   0.0640000

     Check: negative/imaginary core charge=   -0.000004    0.000000
     Check: negative starting charge=(component1):   -0.831547

     negative rho (up, down):  0.390E+00 0.390E+00

     total cpu time spent up to now is      292.8 secs

     per-process dynamical memory:    49.3 Mb

     Self-consistent Calculation

     iteration #  1     ecut=    40.00 Ry     beta=0.30
     Davidson diagonalization with overlap
     ethr =  1.00E-06,  avg # of iterations =  7.6

     negative rho (up, down):  0.389E+00 0.389E+00

     total cpu time spent up to now is      342.4 secs

     total energy              =    -501.21303064 Ry
     Harris-Foulkes estimate   =    -501.21374884 Ry
     estimated scf accuracy    <       0.00402165 Ry

     total magnetization       =    -0.00 Bohr mag/cell
     absolute magnetization    =     0.00 Bohr mag/cell

     iteration #  2     ecut=    40.00 Ry     beta=0.30
     Davidson diagonalization with overlap
     ethr =  7.45E-06,  avg # of iterations =  1.0

     negative rho (up, down):  0.389E+00 0.389E+00

     total cpu time spent up to now is      358.4 secs

     total energy              =    -501.21294774 Ry
     Harris-Foulkes estimate   =    -501.21316606 Ry
     estimated scf accuracy    <       0.00137035 Ry

     total magnetization       =    -0.00 Bohr mag/cell
     absolute magnetization    =     0.00 Bohr mag/cell

     iteration #  3     ecut=    40.00 Ry     beta=0.30
     Davidson diagonalization with overlap
     ethr =  2.54E-06,  avg # of iterations =  1.2

     negative rho (up, down):  0.389E+00 0.389E+00

     total cpu time spent up to now is      374.9 secs

     total energy              =    -501.21314815 Ry
     Harris-Foulkes estimate   =    -501.21308549 Ry
     estimated scf accuracy    <       0.00009738 Ry

     total magnetization       =    -0.00 Bohr mag/cell
     absolute magnetization    =     0.00 Bohr mag/cell

     iteration #  4     ecut=    40.00 Ry     beta=0.30
     Davidson diagonalization with overlap
     ethr =  1.80E-07,  avg # of iterations =  1.0

     negative rho (up, down):  0.389E+00 0.389E+00

     total cpu time spent up to now is      390.6 secs

     total energy              =    -501.21318055 Ry
     Harris-Foulkes estimate   =    -501.21315266 Ry
     estimated scf accuracy    <       0.00002544 Ry

     total magnetization       =    -0.00 Bohr mag/cell
     absolute magnetization    =     0.00 Bohr mag/cell

     iteration #  5     ecut=    40.00 Ry     beta=0.30
     Davidson diagonalization with overlap
     ethr =  4.71E-08,  avg # of iterations =  1.0

     negative rho (up, down):  0.389E+00 0.389E+00

     total cpu time spent up to now is      406.4 secs

     total energy              =    -501.21319262 Ry
     Harris-Foulkes estimate   =    -501.21318236 Ry
     estimated scf accuracy    <       0.00000123 Ry

     total magnetization       =    -0.00 Bohr mag/cell
     absolute magnetization    =     0.00 Bohr mag/cell

     iteration #  6     ecut=    40.00 Ry     beta=0.30
     Davidson diagonalization with overlap
     ethr =  2.28E-09,  avg # of iterations =  1.3

     negative rho (up, down):  0.389E+00 0.389E+00

     total cpu time spent up to now is      422.4 secs

     End of self-consistent calculation

 ------ SPIN UP ------------


          k = 0.0000 0.0000 0.0000 (  1691 PWs)   bands (ev):

   -34.7717 -34.7717 -34.4927 -34.4664 -34.4588 -34.4588  -6.0689  -4.7000
    -3.4544  -3.4544   5.2390   5.3968   6.9803   7.4350   7.4350  10.3469
    10.5320  10.5320  12.0462  12.6020  12.6020  12.9510  13.0181  13.2690
    13.3609  13.3609  13.6267  17.3119  17.4854  20.2955  20.2955  20.6540
    22.8952  24.3878  24.3878  25.4640  25.4640  29.1001  29.3478  29.6032
    31.1793  31.7076  33.1375  33.5625  33.5625  35.6080  37.9882  37.9882
    39.3023  39.3023  39.3787  42.3802  42.3802  43.4110  44.0599  44.2585
    44.6278  44.9221  45.3808  46.7196  46.7196  47.9864  48.0710  48.6612
    48.6612  50.4317  50.5169  50.5169  50.9660  53.4143  55.4837  55.4837
    55.4925  55.7674  57.0645  57.0645  57.1320  57.1320

          k = 0.0000 0.0000 0.2942 (  1711 PWs)   bands (ev):

   -34.7669 -34.7669 -34.5438 -34.5230 -34.4519 -34.4519  -5.6724  -4.5095
    -3.6778  -3.6778   5.7997   5.8395   7.4223   7.5840   7.5840   9.0471
    10.3369  10.9917  10.9917  11.1359  11.1359  12.2477  13.6777  13.9345
    14.0210  14.7632  14.7632  17.0572  18.1240  19.5250  19.5250  21.8081
    21.9414  25.4638  25.4639  25.9002  25.9002  28.6848  29.4731  29.7253
    30.5133  30.8993  32.0275  32.8483  32.8483  36.2910  38.4251  38.4251
    38.5780  39.1627  39.1627  41.5932  42.5542  43.1034  43.1034  43.6104
    44.2239  44.4953  44.4953  44.8104  46.5226  49.5492  49.9904  49.9904
    50.2097  51.2273  51.4333  51.4333  51.7023  54.0470  54.0470  54.2302
    56.3901  56.3901  56.4271  57.7458  58.6450  59.5014

          k = 0.0000 0.0000 0.5884 (  1703 PWs)   bands (ev):

   -34.7591 -34.7591 -34.6230 -34.6152 -34.4406 -34.4406  -4.8379  -4.3534
    -4.0186  -4.0186   6.5265   6.8879   7.8571   8.0264   8.0264   8.6772
     8.7141   9.7949   9.7949  10.4821  11.5820  11.5820  13.9414  14.3666
    14.8139  15.9817  15.9817  16.0020  18.7704  18.7704  19.1530  19.9429
    24.5087  25.4631  25.4645  26.9659  28.2746  28.2746  29.3356  29.5026
    30.0745  30.4937  31.4257  31.4257  31.7362  33.2254  38.1236  38.1236
    39.7353  39.7353  40.1195  41.0616  42.5064  42.6021  42.9120  43.5207
    43.5207  44.3587  44.6340  44.6340  47.5479  49.8799  49.8799  50.5731
    50.5731  52.0580  52.0580  52.2978  52.5222  52.6984  55.1769  55.3246
    55.6136  55.6136  55.8578  56.1207  58.2450  58.2450

          k = 0.0000 0.2054 0.0000 (  1701 PWs)   bands (ev):

   -34.7708 -34.7707 -34.4903 -34.4689 -34.4603 -34.4602  -5.8779  -4.6336
    -3.7468  -3.5914   5.7008   5.7673   7.2966   7.4863   7.5119   9.8161
     9.9418  10.1351  11.2884  11.4654  12.2508  13.1523  13.3849  13.7369
    13.8242  14.0724  14.1275  17.0802  17.9779  19.9748  20.0549  21.1519
    22.6394  24.5568  24.6882  25.4639  25.4647  28.6004  29.3194  29.4857
    31.1211  31.6703  33.5350  33.6811  34.2257  35.4547  36.3740  36.7731
    38.8668  39.8315  39.9606  41.7395  42.4495  43.4631  44.0412  44.8128
    45.1408  45.9495  45.9719  46.0761  46.3720  47.6080  49.3566  49.5358
    49.8713  50.5325  50.5501  51.3461  51.7781  52.6565  54.5186  54.6232
    54.8750  55.6548  55.9748  56.0958  56.1411  57.7551

          k = 0.0000 0.2054 0.2942 (  1709 PWs)   bands (ev):

   -34.7667 -34.7665 -34.5415 -34.5250 -34.4527 -34.4525  -5.5095  -4.4452
    -3.9062  -3.7762   6.1178   6.1505   7.4032   7.5888   8.0529   8.8099
     9.5324  10.3631  10.4489  11.2344  11.4649  12.6450  13.4660  14.1736
    14.3397  14.5697  15.1443  16.7612  18.6278  19.0507  19.3060  21.6689
    22.6447  25.4635  25.4637  25.8470  26.0884  28.4726  29.3556  29.7067
    30.6446  30.8985  32.0072  32.0578  34.2763  36.4672  36.7398  36.7942
    38.4239  39.4393  40.5243  41.5198  42.0058  42.1294  42.9280  43.6424
    44.2966  45.0002  45.8015  46.8507  48.0573  49.0490  49.2231  50.2756
    50.5973  50.8443  51.2908  51.6366  53.2735  53.4373  53.7196  54.2741
    55.0050  55.9710  57.0403  57.7494  57.8032  58.6308

          k = 0.0000 0.2054 0.5884 (  1699 PWs)   bands (ev):

   -34.7605 -34.7604 -34.6211 -34.6149 -34.4405 -34.4405  -4.8256  -4.4835
    -3.9766  -3.9227   6.6137   6.9110   7.1155   7.6737   8.5760   8.6104
     9.3408   9.8124  10.1223  10.8559  11.3485  11.3847  14.1118  14.2277
    14.4079  15.0694  16.1969  16.3770  18.0885  18.2978  19.9127  20.7189
    24.6921  25.4632  25.4643  26.7572  27.7772  28.0656  29.2794  29.7880
    30.2648  30.2941  31.0190  31.3740  33.2781  33.3036  37.3549  37.4577
    38.7965  39.3459  40.3648  41.5156  42.3912  42.4300  42.8878  43.6280
    44.2330  44.5875  45.3721  45.6847  48.8322  49.1435  49.9066  50.4309
    50.5886  51.1511  51.7104  52.1589  52.9553  53.1989  54.3617  55.0888
    55.4224  56.2183  56.5303  56.7678  58.2835  59.1154

          k = 0.0000 0.4108 0.0000 (  1703 PWs)   bands (ev):

   -34.7691 -34.7690 -34.4838 -34.4755 -34.4626 -34.4626  -5.3516  -4.7015
    -4.1506  -3.9064   6.6766   6.7122   7.5978   7.6290   8.2467   8.6389
     8.6892   9.7748   9.9794  10.3880  12.2943  12.7130  13.8536  14.0155
    14.6485  14.8690  15.1037  16.1631  19.4491  19.4656  19.5602  20.9084
    23.1479  24.2749  25.4592  25.4635  25.6974  27.2305  29.5079  29.7990
    30.6265  32.4048  33.0170  33.6567  34.5847  34.6261  35.0592  37.0196
    38.5138  40.3461  41.0995  41.8102  42.4354  42.5246  42.9114  43.0527
    46.0728  46.2180  46.6323  46.8348  48.4859  49.0918  49.1168  49.9588
    50.0911  51.3461  51.5950  52.0886  53.0787  53.1011  53.1846  54.1153
    54.6234  54.8221  55.3197  55.3354  56.5570  57.1020

          k = 0.0000 0.4108 0.2942 (  1705 PWs)   bands (ev):

   -34.7662 -34.7660 -34.5363 -34.5302 -34.4538 -34.4536  -5.0618  -4.4556
    -4.2641  -4.0111   6.8663   6.8970   7.5612   7.6240   8.2374   8.5329
     9.0877   9.4903   9.5194  10.5145  12.1059  12.5053  13.8210  14.1904
    14.7653  14.8684  15.6818  16.1246  18.4332  18.5866  19.9555  21.0573
    24.0023  25.2294  25.4635  25.4643  26.7869  27.7981  29.4729  29.8781
    30.6283  30.6646  31.5976  32.5807  34.2092  34.7502  36.8503  37.2872
    38.1957  39.4494  40.4980  40.6684  41.6415  42.0425  43.1687  43.5206
    44.6997  46.9119  47.3027  47.7943  48.1644  48.3437  50.0126  50.1475
    50.4064  51.0641  51.8126  52.6433  53.5679  53.6877  53.7622  54.3230
    55.5383  55.6730  56.1301  57.2541  57.6804  57.8277

          k = 0.0000 0.4108 0.5884 (  1704 PWs)   bands (ev):

   -34.7627 -34.7625 -34.6175 -34.6152 -34.4404 -34.4403  -4.7758  -4.6617
    -3.8892  -3.8494   6.7026   6.7263   6.9739   7.1588   8.7610   9.2046
     9.3900  10.2670  10.4400  10.4992  11.4395  12.1160  13.1784  13.8512
    14.3592  14.4498  16.4231  16.4648  17.5743  17.7552  20.9083  21.3021
    25.2623  25.4634  25.4646  26.0927  27.4953  27.7128  29.2836  29.5790
    30.1287  30.2536  31.3258  32.1028  32.8708  34.1469  36.6147  37.0826
    38.6743  39.1797  40.1820  40.6041  42.2878  42.4530  43.9491  44.3261
    44.4772  44.4812  46.6503  47.4270  47.6926  48.7045  49.5537  49.8417
    50.9978  51.1011  51.9528  52.6613  53.0244  53.3283  54.1548  55.3908
    56.4437  56.6647  57.3603  57.7496  58.4011  58.4525

          k = 0.2054 0.2054 0.0000 (  1716 PWs)   bands (ev):

   -34.7726 -34.7688 -34.4882 -34.4710 -34.4626 -34.4588  -5.7401  -4.5903
    -4.0609  -3.5210   5.3220   6.7386   7.3966   7.5875   7.6309   8.6650
     9.9847  10.3250  11.3718  11.5081  11.7820  12.9317  13.0778  13.3808
    13.9791  14.6331  14.7876  16.8873  18.1640  19.5081  20.2873  21.3788
    22.6501  24.8041  24.8731  25.4638  25.4653  28.1348  29.1005  29.3466
    30.6241  32.1592  33.1520  34.0049  35.4081  35.6538  36.4166  36.7039
    37.9203  39.3799  39.3916  40.3742  42.8443  43.3906  43.7281  44.9554
    45.4376  45.7062  45.9564  46.9520  48.4070  48.4618  49.4219  49.4521
    50.5354  50.7699  50.8355  51.6382  52.1486  52.6858  52.8731  53.8756
    55.0340  55.3768  56.5244  56.6465  57.1515  57.5361

          k = 0.2054 0.2054 0.2942 (  1714 PWs)   bands (ev):

   -34.7675 -34.7659 -34.5400 -34.5265 -34.4536 -34.4520  -5.3875  -4.3692
    -4.1798  -3.7369   5.8129   6.8781   7.2611   7.7825   8.2571   8.4294
     9.4860   9.7955  10.6371  11.0715  11.7755  12.6834  13.3207  13.7820
    14.2883  15.1032  15.3523  16.5590  18.4686  18.9231  19.5236  21.4513
    23.2019  25.4632  25.4636  26.0134  26.0354  28.2513  28.8153  29.2917
    30.6265  31.1300  32.0163  33.3296  33.8836  35.0836  37.2312  37.2968
    38.6084  38.8393  40.2160  41.3196  42.2864  42.4113  42.8660  43.0280
    44.4264  46.0177  46.5191  47.2574  48.3587  48.8304  49.4024  49.9174
    50.7269  50.8147  51.8965  52.7834  52.8150  53.2975  53.7847  54.4098
    54.5025  55.3310  56.4809  56.7804  57.5472  59.3835

          k = 0.2054 0.2054 0.5884 (  1699 PWs)   bands (ev):

   -34.7625 -34.7595 -34.6211 -34.6143 -34.4408 -34.4403  -4.8070  -4.4730
    -4.0678  -3.8487   6.6909   6.9441   6.9673   7.5044   8.0183   9.3732
     9.4441   9.8005  10.2222  11.0123  11.0649  11.7191  13.9225  14.1376
    14.4307  15.3594  15.3814  16.6739  17.5875  18.7526  19.8533  20.9665
    24.8338  25.4633  25.4643  26.6998  27.4899  27.9036  28.4417  28.7522
    30.0169  31.4234  31.7372  32.1074  33.0998  34.1259  36.7627  36.8404
    38.4309  39.3665  39.8356  41.7232  42.1766  43.0451  43.7413  43.8722
    44.6101  45.0600  45.8612  46.2795  48.7754  49.0765  49.1937  50.2740
    50.8189  51.0421  51.2270  52.1478  52.7149  52.9751  54.1217  54.7981
    56.1233  56.5231  56.8102  57.3677  57.7973  58.7286

          k = 0.2054 0.4108 0.0000 (  1704 PWs)   bands (ev):

   -34.7717 -34.7694 -34.4830 -34.4763 -34.4625 -34.4602  -5.3641  -4.8618
    -4.0641  -3.7297   5.7225   6.6858   7.4422   7.5881   8.3920   8.8070
     9.5709  10.1579  10.4923  10.8091  11.7025  12.3358  13.5487  13.9534
    13.9697  14.7742  15.4728  16.2879  19.1536  19.5064  20.0085  20.5139
    23.6362  24.6201  25.4611  25.4635  25.7806  27.0924  28.8405  29.1166
    30.5903  32.0033  33.4828  34.8231  35.0323  35.5223  35.8831  36.8290
    37.7530  38.7504  40.2924  40.4805  41.7174  42.6190  43.2091  44.0054
    46.1819  46.4824  46.9875  47.2501  48.1781  49.2175  49.3769  49.8332
    51.6773  51.8589  52.1219  52.4018  52.7044  53.1668  53.5847  53.8074
    53.9794  55.5113  55.5374  55.8414  56.5153  58.1910

          k = 0.2054 0.4108 0.2942 (  1710 PWs)   bands (ev):

   -34.7674 -34.7664 -34.5359 -34.5307 -34.4537 -34.4526  -5.0599  -4.6206
    -4.1590  -3.8951   6.1241   6.8846   7.3270   7.5346   8.4618   8.9443
     9.3738   9.7004  10.1881  10.6772  11.7343  12.1685  13.8714  14.0665
    14.3501  14.9950  15.6376  16.0609  18.5020  19.1026  19.7698  20.7617
    24.3368  25.3927  25.4636  25.4663  26.6807  27.5808  28.6540  29.0021
    30.6650  31.0756  32.1530  32.9071  33.9997  35.0632  36.8217  38.0636
    38.4799  39.0685  40.2753  40.5797  41.7991  42.7396  42.9358  43.8316
    44.7170  46.0722  46.6359  47.4525  48.4586  48.8584  49.5235  50.0592
    51.5071  51.8289  51.9518  52.9967  53.2577  53.3901  53.8537  54.4582
    55.0140  55.5982  56.0526  56.2963  56.7406  57.9840

          k = 0.2054 0.4108 0.5884 (  1693 PWs)   bands (ev):

   -34.7627 -34.7609 -34.6188 -34.6155 -34.4408 -34.4404  -4.7236  -4.5759
    -4.0020  -3.8752   6.6870   6.7379   7.0666   7.2049   8.2508   9.0248
     9.7377  10.0307  10.2903  10.7931  11.6879  12.2449  13.4414  14.1612
    14.2926  14.4314  15.9200  16.4356  17.6416  18.2448  20.5622  21.0786
    25.2656  25.4630  25.4649  26.0812  26.9096  27.4309  28.2108  28.6762
    29.9774  30.9598  32.1746  32.8688  33.4485  34.8593  36.3147  37.1826
    38.4127  39.2381  39.6188  40.8510  42.5719  42.9276  44.2150  44.5241
    45.2980  45.9691  46.2250  46.7820  48.2839  48.8974  49.1737  49.8917
    50.1610  50.9479  51.8871  52.7479  52.9388  53.5111  54.0976  54.3246
    55.4648  56.1842  56.7413  56.9768  57.6425  58.3739

          k = 0.4108 0.4108 0.0000 (  1720 PWs)   bands (ev):

   -34.7738 -34.7723 -34.4810 -34.4786 -34.4601 -34.4586  -5.3189  -5.1396
    -3.7895  -3.6236   5.3156   5.7143   7.3346   7.4085   9.1444   9.9624
    10.0049  10.7767  10.9310  11.1433  11.2501  11.9255  13.0412  13.4155
    13.5377  13.9918  16.0346  16.3235  19.0656  19.6494  20.0002  20.2741
    24.5329  25.0482  25.4622  25.4634  25.9940  26.6309  28.0769  28.2054
    31.1550  32.0275  34.7881  34.9653  35.1304  35.6212  36.3860  36.5306
    37.8515  38.3224  38.6110  39.6307  41.0806  43.2423  43.6111  44.5093
    45.9067  47.0778  47.5106  47.5469  47.5763  48.1645  49.3493  49.5051
    51.5295  52.1807  52.2531  53.0497  53.1586  53.4928  54.7379  54.8364
    55.2678  55.4342  55.8210  56.6102  56.6482  56.9168

          k = 0.4108 0.4108 0.2942 (  1690 PWs)   bands (ev):

   -34.7685 -34.7679 -34.5342 -34.5321 -34.4526 -34.4519  -5.0066  -4.8544
    -3.9502  -3.8285   5.7960   6.1148   7.1909   7.2962   9.2741   9.6346
     9.7617  10.2722  10.6035  10.9439  11.1082  11.5257  13.7479  14.1511
    14.1681  14.4303  15.7443  15.8908  19.1047  19.5086  19.6301  20.1115
    25.0076  25.4626  25.4637  25.5969  26.3157  26.8514  28.4743  28.5601
    30.5581  31.2530  31.5919  32.3152  35.1588  36.4913  36.5870  38.2214
    38.5237  38.5943  40.7675  41.4923  41.8150  42.8448  43.6152  43.7609
    44.7644  45.4106  46.1247  47.4083  48.2048  48.9302  49.5007  49.7036
    50.0509  50.7566  52.6716  53.4103  53.5482  54.3277  54.6320  54.7385
    55.1178  55.5776  56.1129  56.5068  57.3841  57.3880

          k = 0.4108 0.4108 0.5884 (  1689 PWs)   bands (ev):

   -34.7612 -34.7601 -34.6194 -34.6175 -34.4412 -34.4409  -4.5693  -4.4435
    -4.1448  -4.0195   6.6867   6.7589   7.1747   7.2109   8.0599   8.5181
     9.7270   9.8557  10.5658  10.8386  12.1229  12.3765  14.1253  14.2012
    14.2904  15.0101  15.0596  15.9099  18.2189  18.7230  20.1003  20.5132
    25.2501  25.4620  25.4627  25.6031  26.4048  26.7177  28.2186  28.3226
    29.4932  30.0267  33.2835  33.2876  34.9432  35.5153  36.7512  37.3559
    38.6985  39.4826  39.5006  40.5494  43.6082  43.8107  43.9975  44.0437
    45.0472  45.9935  47.2518  47.9798  48.5872  49.0150  49.4276  49.9715
    50.0139  50.5023  51.2411  52.2816  52.3484  53.5884  53.6871  54.2172
    54.3759  55.5494  56.0987  56.2536  56.7768  57.3379

 ------ SPIN DOWN ----------


          k = 0.0000 0.0000 0.0000 (  1691 PWs)   bands (ev):

   -34.7720 -34.7720 -34.4928 -34.4665 -34.4590 -34.4590  -6.0690  -4.7001
    -3.4545  -3.4545   5.2390   5.3967   6.9800   7.4349   7.4349  10.3469
    10.5319  10.5319  12.0461  12.6018  12.6018  12.9509  13.0178  13.2689
    13.3607  13.3607  13.6263  17.3118  17.4850  20.2953  20.2953  20.6539
    22.8950  24.3877  24.3877  25.4640  25.4640  29.1000  29.3477  29.6031
    31.1793  31.7075  33.1375  33.5623  33.5623  35.6080  37.9882  37.9882
    39.3022  39.3022  39.3786  42.3801  42.3801  43.4110  44.0599  44.2584
    44.6277  44.9220  45.3808  46.7195  46.7195  47.9864  48.0710  48.6611
    48.6611  50.4317  50.5168  50.5168  50.9659  53.4142  55.4836  55.4836
    55.4925  55.7672  57.0644  57.0644  57.1319  57.1319

          k = 0.0000 0.0000 0.2942 (  1711 PWs)   bands (ev):

   -34.7672 -34.7672 -34.5439 -34.5231 -34.4521 -34.4521  -5.6725  -4.5096
    -3.6779  -3.6779   5.7997   5.8394   7.4221   7.5839   7.5839   9.0470
    10.3369  10.9916  10.9916  11.1357  11.1357  12.2474  13.6776  13.9341
    14.0209  14.7630  14.7630  17.0569  18.1239  19.5248  19.5248  21.8080
    21.9413  25.4638  25.4640  25.9001  25.9001  28.6847  29.4730  29.7251
    30.5132  30.8992  32.0274  32.8482  32.8482  36.2910  38.4250  38.4250
    38.5779  39.1626  39.1626  41.5932  42.5542  43.1033  43.1033  43.6103
    44.2238  44.4952  44.4952  44.8104  46.5225  49.5491  49.9904  49.9904
    50.2097  51.2272  51.4332  51.4332  51.7022  54.0469  54.0469  54.2301
    56.3900  56.3900  56.4270  57.7458  58.6448  59.5013

          k = 0.0000 0.0000 0.5884 (  1703 PWs)   bands (ev):

   -34.7594 -34.7594 -34.6231 -34.6153 -34.4408 -34.4408  -4.8380  -4.3535
    -4.0187  -4.0187   6.5265   6.8878   7.8571   8.0263   8.0263   8.6770
     8.7140   9.7948   9.7948  10.4819  11.5818  11.5818  13.9413  14.3665
    14.8135  15.9815  15.9815  16.0016  18.7702  18.7702  19.1529  19.9428
    24.5086  25.4632  25.4645  26.9658  28.2745  28.2745  29.3355  29.5025
    30.0743  30.4936  31.4256  31.4256  31.7362  33.2254  38.1235  38.1235
    39.7352  39.7352  40.1195  41.0615  42.5063  42.6021  42.9119  43.5207
    43.5207  44.3586  44.6339  44.6339  47.5479  49.8799  49.8799  50.5730
    50.5730  52.0580  52.0580  52.2978  52.5221  52.6983  55.1768  55.3245
    55.6135  55.6135  55.8578  56.1206  58.2449  58.2449

          k = 0.0000 0.2054 0.0000 (  1701 PWs)   bands (ev):

   -34.7710 -34.7709 -34.4904 -34.4690 -34.4605 -34.4604  -5.8780  -4.6337
    -3.7469  -3.5915   5.7008   5.7673   7.2964   7.4863   7.5118   9.8160
     9.9417  10.1350  11.2883  11.4652  12.2506  13.1521  13.3848  13.7368
    13.8240  14.0721  14.1273  17.0798  17.9778  19.9746  20.0548  21.1518
    22.6392  24.5568  24.6881  25.4639  25.4647  28.6003  29.3193  29.4856
    31.1210  31.6703  33.5349  33.6810  34.2256  35.4547  36.3739  36.7731
    38.8668  39.8315  39.9605  41.7394  42.4494  43.4631  44.0411  44.8128
    45.1407  45.9495  45.9719  46.0760  46.3719  47.6080  49.3565  49.5357
    49.8713  50.5324  50.5501  51.3460  51.7781  52.6565  54.5185  54.6232
    54.8750  55.6547  55.9747  56.0957  56.1410  57.7550

          k = 0.0000 0.2054 0.2942 (  1709 PWs)   bands (ev):

   -34.7669 -34.7668 -34.5416 -34.5252 -34.4529 -34.4527  -5.5096  -4.4453
    -3.9063  -3.7763   6.1178   6.1504   7.4030   7.5888   8.0527   8.8098
     9.5323  10.3630  10.4488  11.2342  11.4647  12.6447  13.4657  14.1735
    14.3396  14.5695  15.1440  16.7608  18.6277  19.0505  19.3059  21.6688
    22.6446  25.4635  25.4637  25.8469  26.0883  28.4725  29.3555  29.7066
    30.6445  30.8984  32.0072  32.0577  34.2762  36.4671  36.7397  36.7941
    38.4238  39.4393  40.5242  41.5197  42.0057  42.1293  42.9280  43.6424
    44.2966  45.0001  45.8014  46.8506  48.0573  49.0489  49.2230  50.2755
    50.5973  50.8443  51.2907  51.6366  53.2734  53.4372  53.7196  54.2740
    55.0049  55.9709  57.0402  57.7493  57.8031  58.6307

          k = 0.0000 0.2054 0.5884 (  1699 PWs)   bands (ev):

   -34.7608 -34.7607 -34.6212 -34.6150 -34.4407 -34.4407  -4.8258  -4.4836
    -3.9768  -3.9228   6.6136   6.9109   7.1154   7.6736   8.5760   8.6102
     9.3407   9.8123  10.1222  10.8557  11.3484  11.3845  14.1117  14.2274
    14.4078  15.0691  16.1967  16.3767  18.0884  18.2976  19.9126  20.7188
    24.6920  25.4633  25.4643  26.7572  27.7771  28.0655  29.2793  29.7879
    30.2647  30.2941  31.0190  31.3740  33.2780  33.3035  37.3548  37.4576
    38.7965  39.3458  40.3647  41.5156  42.3912  42.4299  42.8877  43.6279
    44.2329  44.5874  45.3720  45.6847  48.8322  49.1434  49.9066  50.4309
    50.5885  51.1511  51.7103  52.1588  52.9552  53.1988  54.3616  55.0887
    55.4223  56.2182  56.5303  56.7677  58.2835  59.1153

          k = 0.0000 0.4108 0.0000 (  1703 PWs)   bands (ev):

   -34.7693 -34.7692 -34.4839 -34.4756 -34.4628 -34.4628  -5.3517  -4.7017
    -4.1507  -3.9065   6.6765   6.7121   7.5978   7.6289   8.2465   8.6388
     8.6891   9.7746   9.9793  10.3879  12.2941  12.7127  13.8535  14.0154
    14.6484  14.8689  15.1034  16.1628  19.4489  19.4655  19.5601  20.9083
    23.1478  24.2748  25.4592  25.4635  25.6974  27.2304  29.5078  29.7989
    30.6264  32.4047  33.0170  33.6566  34.5847  34.6260  35.0591  37.0195
    38.5137  40.3461  41.0994  41.8101  42.4354  42.5245  42.9113  43.0526
    46.0727  46.2179  46.6323  46.8347  48.4858  49.0917  49.1167  49.9588
    50.0911  51.3461  51.5949  52.0885  53.0786  53.1010  53.1845  54.1152
    54.6232  54.8220  55.3196  55.3353  56.5569  57.1019

          k = 0.0000 0.4108 0.2942 (  1705 PWs)   bands (ev):

   -34.7664 -34.7663 -34.5364 -34.5303 -34.4540 -34.4538  -5.0619  -4.4557
    -4.2642  -4.0112   6.8663   6.8970   7.5611   7.6239   8.2373   8.5328
     9.0875   9.4902   9.5193  10.5143  12.1057  12.5050  13.8208  14.1902
    14.7651  14.8683  15.6815  16.1243  18.4330  18.5865  19.9554  21.0572
    24.0022  25.2293  25.4635  25.4643  26.7868  27.7980  29.4728  29.8780
    30.6282  30.6646  31.5976  32.5807  34.2092  34.7501  36.8502  37.2872
    38.1957  39.4493  40.4979  40.6683  41.6415  42.0424  43.1687  43.5206
    44.6996  46.9118  47.3026  47.7942  48.1644  48.3436  50.0126  50.1474
    50.4063  51.0640  51.8125  52.6432  53.5679  53.6876  53.7621  54.3229
    55.5382  55.6729  56.1300  57.2540  57.6804  57.8276

          k = 0.0000 0.4108 0.5884 (  1704 PWs)   bands (ev):

   -34.7629 -34.7628 -34.6177 -34.6153 -34.4406 -34.4406  -4.7759  -4.6618
    -3.8893  -3.8495   6.7026   6.7262   6.9739   7.1588   8.7610   9.2046
     9.3899  10.2669  10.4399  10.4991  11.4393  12.1158  13.1782  13.8509
    14.3591  14.4497  16.4228  16.4645  17.5741  17.7550  20.9082  21.3020
    25.2623  25.4634  25.4646  26.0927  27.4952  27.7127  29.2835  29.5789
    30.1286  30.2535  31.3257  32.1027  32.8707  34.1468  36.6146  37.0826
    38.6743  39.1797  40.1820  40.6041  42.2877  42.4529  43.9491  44.3260
    44.4771  44.4811  46.6503  47.4269  47.6925  48.7044  49.5536  49.8416
    50.9978  51.1010  51.9527  52.6612  53.0243  53.3283  54.1547  55.3907
    56.4437  56.6646  57.3602  57.7496  58.4010  58.4524

          k = 0.2054 0.2054 0.0000 (  1716 PWs)   bands (ev):

   -34.7728 -34.7691 -34.4884 -34.4712 -34.4628 -34.4590  -5.7402  -4.5904
    -4.0610  -3.5212   5.3220   6.7385   7.3965   7.5873   7.6308   8.6650
     9.9847  10.3248  11.3717  11.5079  11.7819  12.9314  13.0777  13.3807
    13.9790  14.6328  14.7875  16.8869  18.1639  19.5080  20.2871  21.3787
    22.6500  24.8041  24.8730  25.4638  25.4653  28.1347  29.1004  29.3465
    30.6240  32.1592  33.1519  34.0048  35.4080  35.6537  36.4165  36.7038
    37.9202  39.3798  39.3916  40.3741  42.8442  43.3905  43.7281  44.9553
    45.4375  45.7061  45.9564  46.9519  48.4070  48.4616  49.4219  49.4520
    50.5353  50.7698  50.8354  51.6381  52.1485  52.6858  52.8730  53.8755
    55.0339  55.3767  56.5243  56.6465  57.1514  57.5360

          k = 0.2054 0.2054 0.2942 (  1714 PWs)   bands (ev):

   -34.7678 -34.7662 -34.5401 -34.5267 -34.4539 -34.4522  -5.3876  -4.3693
    -4.1799  -3.7371   5.8128   6.8781   7.2610   7.7824   8.2569   8.4293
     9.4859   9.7955  10.6369  11.0714  11.7754  12.6831  13.3204  13.7819
    14.2882  15.1030  15.3520  16.5587  18.4685  18.9230  19.5235  21.4512
    23.2018  25.4632  25.4636  26.0133  26.0354  28.2512  28.8152  29.2916
    30.6264  31.1300  32.0163  33.3295  33.8835  35.0836  37.2312  37.2967
    38.6083  38.8393  40.2159  41.3196  42.2863  42.4112  42.8659  43.0279
    44.4263  46.0176  46.5190  47.2574  48.3587  48.8303  49.4023  49.9174
    50.7268  50.8147  51.8965  52.7833  52.8149  53.2975  53.7846  54.4097
    54.5025  55.3309  56.4808  56.7803  57.5471  59.3834

          k = 0.2054 0.2054 0.5884 (  1699 PWs)   bands (ev):

   -34.7627 -34.7598 -34.6212 -34.6145 -34.4410 -34.4405  -4.8071  -4.4731
    -4.0679  -3.8488   6.6908   6.9440   6.9672   7.5043   8.0183   9.3731
     9.4439   9.8003  10.2222  11.0121  11.0647  11.7188  13.9223  14.1375
    14.4306  15.3592  15.3810  16.6736  17.5873  18.7524  19.8532  20.9664
    24.8337  25.4633  25.4643  26.6998  27.4898  27.9035  28.4416  28.7521
    30.0169  31.4233  31.7371  32.1073  33.0997  34.1258  36.7626  36.8404
    38.4309  39.3665  39.8355  41.7232  42.1765  43.0450  43.7412  43.8721
    44.6101  45.0599  45.8612  46.2794  48.7754  49.0764  49.1937  50.2739
    50.8188  51.0421  51.2269  52.1477  52.7148  52.9750  54.1216  54.7980
    56.1232  56.5230  56.8101  57.3676  57.7972  58.7285

          k = 0.2054 0.4108 0.0000 (  1704 PWs)   bands (ev):

   -34.7719 -34.7697 -34.4832 -34.4764 -34.4628 -34.4604  -5.3642  -4.8619
    -4.0642  -3.7298   5.7224   6.6858   7.4421   7.5880   8.3918   8.8069
     9.5707  10.1578  10.4922  10.8090  11.7022  12.3356  13.5485  13.9533
    13.9695  14.7740  15.4724  16.2875  19.1535  19.5063  20.0084  20.5138
    23.6361  24.6200  25.4611  25.4635  25.7805  27.0923  28.8404  29.1166
    30.5903  32.0032  33.4828  34.8230  35.0322  35.5222  35.8830  36.8289
    37.7529  38.7503  40.2923  40.4804  41.7173  42.6189  43.2091  44.0053
    46.1818  46.4824  46.9874  47.2501  48.1780  49.2175  49.3769  49.8332
    51.6772  51.8588  52.1218  52.4018  52.7043  53.1667  53.5846  53.8073
    53.9793  55.5112  55.5374  55.8413  56.5152  58.1909

          k = 0.2054 0.4108 0.2942 (  1710 PWs)   bands (ev):

   -34.7677 -34.7667 -34.5361 -34.5308 -34.4539 -34.4528  -5.0600  -4.6207
    -4.1591  -3.8952   6.1240   6.8845   7.3269   7.5345   8.4617   8.9441
     9.3736   9.7003  10.1879  10.6771  11.7341  12.1683  13.8712  14.0663
    14.3499  14.9949  15.6373  16.0605  18.5019  19.1024  19.7696  20.7616
    24.3367  25.3926  25.4636  25.4663  26.6806  27.5807  28.6540  29.0020
    30.6649  31.0755  32.1530  32.9070  33.9997  35.0631  36.8216  38.0636
    38.4798  39.0684  40.2752  40.5796  41.7990  42.7396  42.9357  43.8315
    44.7169  46.0722  46.6358  47.4524  48.4585  48.8583  49.5235  50.0591
    51.5071  51.8288  51.9518  52.9966  53.2577  53.3900  53.8537  54.4581
    55.0139  55.5982  56.0525  56.2962  56.7405  57.9839

          k = 0.2054 0.4108 0.5884 (  1693 PWs)   bands (ev):

   -34.7630 -34.7612 -34.6189 -34.6156 -34.4410 -34.4406  -4.7237  -4.5760
    -4.0021  -3.8753   6.6869   6.7378   7.0665   7.2048   8.2507   9.0247
     9.7376  10.0307  10.2901  10.7929  11.6877  12.2446  13.4411  14.1610
    14.2925  14.4313  15.9197  16.4353  17.6414  18.2446  20.5621  21.0785
    25.2655  25.4630  25.4649  26.0811  26.9095  27.4308  28.2107  28.6761
    29.9773  30.9597  32.1745  32.8687  33.4484  34.8592  36.3146  37.1826
    38.4126  39.2380  39.6187  40.8509  42.5718  42.9275  44.2149  44.5240
    45.2980  45.9690  46.2250  46.7819  48.2838  48.8974  49.1736  49.8916
    50.1610  50.9478  51.8870  52.7479  52.9387  53.5110  54.0975  54.3245
    55.4647  56.1841  56.7412  56.9767  57.6424  58.3738

          k = 0.4108 0.4108 0.0000 (  1720 PWs)   bands (ev):

   -34.7741 -34.7726 -34.4811 -34.4787 -34.4603 -34.4589  -5.3190  -5.1397
    -3.7896  -3.6237   5.3155   5.7143   7.3345   7.4084   9.1441   9.9623
    10.0046  10.7766  10.9308  11.1431  11.2500  11.9253  13.0411  13.4154
[...]
    55.4420  56.1424  56.1655  56.2408  57.0265  57.0338

          k = 0.4148 0.4148 0.2885 (  1708 PWs)   bands (ev):

   -34.7063 -34.7057 -34.6544 -34.6517 -34.3974 -34.3965  -5.0692  -4.9196
    -3.9067  -3.7794   5.8103   6.1495   7.0980   7.1879   9.2163   9.6977
     9.7385  10.4529  10.8001  10.9313  11.0973  11.5591  13.8400  14.1988
    14.3023  14.4022  15.6166  15.7672  19.2240  19.4700  19.6894  19.9908
    24.8721  25.4467  25.4484  25.5229  26.1319  26.7212  28.3521  28.5193
    30.6030  31.0558  31.5398  32.3406  35.4085  36.5616  36.8629  38.4946
    38.6593  38.7023  40.6178  41.2867  41.8885  42.7530  43.1166  43.3136
    44.4876  45.4884  46.2941  47.9679  48.0740  48.6418  49.4204  49.6143
    50.4720  50.9260  52.5359  52.8878  53.1721  54.2327  54.9357  55.4087
    55.5917  55.7220  56.3763  56.7084  57.3777  57.6546

          k = 0.4148 0.4148 0.5771 (  1707 PWs)   bands (ev):

   -34.7356 -34.7305 -34.6983 -34.6928 -34.3878 -34.3877  -4.5133  -4.4433
    -4.1341  -4.0874   6.7001   6.8071   7.2196   7.2344   8.0344   8.4382
    10.0274  10.0564  10.8005  11.0744  11.9265  12.2868  13.8863  14.0001
    14.0443  14.8376  15.2481  15.9285  18.0979  18.5831  19.7534  20.2331
    25.1957  25.4473  25.4477  25.5566  26.5196  26.8886  27.7944  27.9654
    29.6321  30.3154  33.0132  33.0806  35.4626  36.0259  37.2911  37.7783
    38.6651  39.1056  39.3195  40.9601  43.4859  43.5752  43.7760  43.8571
    44.7850  45.7795  47.5445  48.3992  48.7457  49.1616  49.7052  49.9415
    50.2686  50.5679  51.6156  52.0557  52.4817  52.9901  53.8604  54.1636
    54.3307  55.3412  55.3679  56.5477  56.8619  57.4143

 ------ SPIN DOWN ----------


          k = 0.0000 0.0000 0.0000 (  1719 PWs)   bands (ev):

   -34.7052 -34.7052 -34.6179 -34.5907 -34.4000 -34.4000  -6.1413  -4.8187
    -3.3712  -3.3712   5.2599   5.4217   7.1464   7.1464   7.1752  10.1811
    10.6471  10.6471  11.9241  12.6837  12.6837  13.1510  13.2150  13.2674
    13.2674  13.5034  13.6933  17.2094  17.3970  20.6691  20.6691  20.7878
    22.3813  24.5017  24.5017  25.4486  25.4489  28.7329  29.5662  29.9969
    30.7867  32.0619  32.7763  33.4805  33.4805  34.7739  38.2128  38.2128
    39.5290  39.7427  39.7427  41.8894  41.8895  43.3176  43.4670  44.2816
    44.6710  44.7398  45.6804  46.0337  46.0337  48.0671  48.4340  48.4340
    48.6379  49.6027  50.9552  50.9552  51.8936  52.7309  54.7865  54.8855
    54.8855  55.7969  57.3455  57.3455  57.7642  57.7642

          k = 0.0000 0.0000 0.2885 (  1712 PWs)   bands (ev):

   -34.7011 -34.7011 -34.6630 -34.6411 -34.3943 -34.3943  -5.7236  -4.5884
    -3.6248  -3.6248   5.8182   5.8223   7.4978   7.4978   7.6081   8.9343
    10.2786  10.8197  10.8197  11.4073  11.4073  12.4147  13.8181  13.8761
    14.0273  14.7843  14.7843  16.9577  18.0244  19.6944  19.6944  21.1376
    22.1199  25.4484  25.4488  25.9135  25.9135  28.2307  29.7189  29.8639
    30.6392  30.7741  32.3013  32.6983  32.6983  35.7969  38.8112  38.8112
    38.8765  39.1516  39.1516  41.2592  42.8892  42.8892  42.9788  44.1415
    44.1415  44.2574  44.5920  44.8901  46.2759  48.8794  50.0327  50.1941
    50.1941  51.1478  51.1478  51.4113  51.6382  53.9460  53.9887  53.9887
    56.4505  56.4505  56.6713  56.8078  58.4639  59.9893

          k = 0.0000 0.0000 0.5771 (  1704 PWs)   bands (ev):

   -34.7329 -34.7247 -34.6943 -34.6943 -34.3849 -34.3849  -4.8455  -4.3633
    -4.0033  -4.0033   6.5725   6.9370   7.6607   8.0883   8.0883   8.5956
     8.8418  10.1044  10.1044  10.6332  11.5303  11.5303  13.6659  13.9655
    14.6940  15.8865  16.0684  16.0684  18.6357  18.6357  19.0378  19.6212
    24.5174  25.4478  25.4492  26.7700  27.9691  27.9691  29.3510  29.4056
    30.1400  30.5838  31.2057  31.2057  32.8001  34.1429  38.2832  38.2832
    39.6298  39.6298  39.6884  40.9715  42.9077  42.9826  43.5238  43.5238
    43.6810  44.2692  44.7544  44.7544  47.1026  49.6440  49.6440  50.9665
    50.9665  52.1096  52.1096  52.1710  52.4823  52.4988  54.4423  54.5895
    54.5895  55.3482  55.4375  55.6587  58.0612  58.0612

          k = 0.0000 0.2074 0.0000 (  1697 PWs)   bands (ev):

   -34.7043 -34.7042 -34.6153 -34.5933 -34.4014 -34.4014  -5.9569  -4.7823
    -3.6295  -3.5067   5.7105   5.7819   7.1845   7.2043   7.4842   9.9854
    10.0282  10.1662  11.2357  11.6181  12.2370  13.1178  13.6056  13.6636
    13.9297  14.0699  14.1062  17.0140  17.9206  20.4000  20.4634  21.4401
    22.0278  24.5818  24.7464  25.4485  25.4496  28.3203  29.4502  29.8184
    31.2818  31.5302  33.2919  33.4144  34.3469  34.6884  36.5566  37.0612
    39.1529  39.4611  40.3861  41.5623  41.8246  42.7658  44.3350  44.5878
    45.1916  45.3080  45.8331  46.3066  46.4716  47.5906  49.0239  49.8517
    49.9352  49.9804  50.7998  51.8846  52.0663  52.1142  54.2608  54.5808
    54.6409  55.3307  55.6452  56.3955  56.9006  57.8810

          k = 0.0000 0.2074 0.2885 (  1696 PWs)   bands (ev):

   -34.7024 -34.7016 -34.6590 -34.6422 -34.3951 -34.3951  -5.5598  -4.5317
    -3.8481  -3.7308   6.1509   6.1637   7.4087   7.5030   8.1037   8.7154
     9.4667  10.5643  10.6116  11.2645  11.3402  12.7175  13.3884  14.3432
    14.3586  14.5976  15.0798  16.6615  18.5350  19.2128  19.5019  21.3598
    22.5517  25.4482  25.4482  25.7827  26.0545  28.0666  29.6561  29.6966
    30.8611  30.8932  31.9482  32.0717  34.3075  36.0944  36.8608  37.1539
    38.4895  39.4954  40.7707  41.0085  41.9105  42.1705  43.1149  43.2530
    44.5224  44.8493  46.2256  46.9828  47.9160  48.6809  49.3656  49.7068
    50.5472  50.7654  51.2857  51.7822  53.0886  53.4277  53.7202  54.1525
    55.3447  56.0979  56.7479  57.5980  57.7189  58.2842

          k = 0.0000 0.2074 0.5771 (  1716 PWs)   bands (ev):

   -34.7370 -34.7310 -34.6896 -34.6891 -34.3850 -34.3850  -4.7975  -4.4230
    -4.0072  -3.9889   6.7143   7.0549   7.0934   7.6663   8.5516   8.7005
     9.4575  10.0343  10.1816  11.0103  11.2245  11.3185  13.8640  14.0029
    14.1725  15.0821  16.2409  16.3702  17.9919  18.1841  19.7652  20.4052
    24.6452  25.4479  25.4490  26.5003  27.4871  27.7131  29.2784  29.8200
    30.2412  30.3409  31.4529  31.6592  33.5137  34.0091  37.5092  37.6698
    38.7149  39.0714  40.5558  41.7985  42.2156  42.2657  43.3003  43.7108
    44.0618  44.8168  45.1136  45.8838  48.6883  49.0957  49.9512  50.3483
    50.8710  51.1416  51.7196  52.0618  53.1106  53.2067  53.5074  54.4290
    55.1068  55.9475  56.1819  56.1906  57.8217  59.0060

          k = 0.0000 0.4148 0.0000 (  1698 PWs)   bands (ev):

   -34.7028 -34.7026 -34.6085 -34.6001 -34.4038 -34.4037  -5.4604  -4.9032
    -3.9696  -3.8043   6.6128   6.6385   7.2650   7.2887   8.4198   8.9553
     9.0444   9.9322   9.9581  10.3822  12.1942  12.6194  14.1152  14.3367
    14.3638  14.5531  15.1032  16.1320  19.4321  19.9885  20.0586  20.9359
    22.8831  24.1387  25.4435  25.4481  25.6685  27.1088  29.8143  29.8258
    31.0449  32.5846  32.6095  33.6278  34.0635  34.6223  34.7614  36.6205
    38.8225  40.6901  41.2120  41.5601  41.5960  41.6253  43.2762  43.4802
    45.7817  45.9458  46.1856  47.2091  48.6453  48.7867  49.0374  49.9289
    50.4688  50.8289  50.8656  52.3456  53.3071  53.3292  53.7507  54.0974
    54.5196  54.5606  55.4030  55.9313  56.8093  57.6067

          k = 0.0000 0.4148 0.2885 (  1702 PWs)   bands (ev):

   -34.7039 -34.7032 -34.6513 -34.6453 -34.3966 -34.3966  -5.1133  -4.5694
    -4.1787  -3.9782   6.9520   6.9667   7.4684   7.5373   8.1706   8.5174
     9.2629   9.5866   9.6018  10.6068  11.9802  12.4131  13.8814  14.3003
    14.7166  14.8485  15.5558  16.0165  18.6987  18.8111  19.8974  20.9076
    23.8315  25.0704  25.4482  25.4487  26.6521  27.5252  29.6702  29.9446
    30.5871  30.6450  31.9072  32.6097  34.5814  34.9192  36.6512  36.7090
    38.5046  39.6909  40.1897  40.3733  41.4866  41.8804  43.3087  43.7604
    44.7896  46.5467  47.3553  47.8454  47.8750  48.3148  49.9607  50.1917
    50.2951  51.1965  51.9230  52.1297  53.5998  53.8663  54.1276  54.6398
    55.2653  55.3822  56.0233  56.8106  57.2190  57.7520

          k = 0.0000 0.4148 0.5771 (  1705 PWs)   bands (ev):

   -34.7415 -34.7394 -34.6832 -34.6829 -34.3851 -34.3851  -4.6816  -4.5466
    -4.0033  -3.9865   6.6996   6.7411   7.3700   7.4932   8.7099   9.0078
     9.5344  10.2908  10.3740  10.5238  11.3208  12.1528  13.1004  13.8624
    14.1243  14.1506  16.4316  16.4653  17.5462  17.7018  20.6961  21.0206
    25.0731  25.4480  25.4487  25.7907  27.2487  27.4000  29.2340  29.6294
    30.2572  30.4335  31.7985  32.7642  33.0733  34.4597  36.8557  37.1875
    38.4418  38.9603  40.2059  40.7865  42.3105  42.6667  43.8184  44.1830
    44.4101  44.6514  46.0801  47.1915  47.7626  48.8992  49.6679  49.8582
    51.1373  51.6003  52.2027  52.2462  52.8693  52.9854  53.6173  54.6054
    56.3058  56.6734  57.3406  57.7915  57.9271  58.1380

          k = 0.2074 0.2074 0.0000 (  1680 PWs)   bands (ev):

   -34.7060 -34.7023 -34.6131 -34.5953 -34.4037 -34.3999  -5.8233  -4.7816
    -3.8947  -3.4388   5.3520   6.6632   7.1073   7.2929   7.7662   9.0089
     9.9397  10.4553  11.2650  11.4483  12.0106  12.9053  13.2862  13.3542
    14.3076  14.4860  14.5987  16.8188  18.1079  20.0203  20.6629  21.5820
    22.1827  24.7250  24.9338  25.4484  25.4500  27.9799  29.0749  29.5383
    31.0570  31.7754  33.1722  33.5934  34.6934  35.7899  36.6811  37.0601
    38.0619  38.8668  39.6564  40.1594  42.6440  42.7400  43.8630  44.7315
    44.9607  45.8256  45.9706  46.2287  48.8135  49.0272  49.5498  49.6141
    50.3092  50.6984  50.8286  51.6526  52.0956  52.2137  52.3985  54.4589
    54.9755  55.3568  56.2229  57.0250  57.5247  57.7544

          k = 0.2074 0.2074 0.2885 (  1699 PWs)   bands (ev):

   -34.7034 -34.7017 -34.6573 -34.6431 -34.3965 -34.3943  -5.4391  -4.4890
    -4.0962  -3.6849   5.8199   6.9499   7.2181   7.6718   8.3649   8.3806
     9.6002   9.7046  10.6069  11.3712  11.6838  12.6558  13.3451  13.8673
    14.4277  14.9936  15.2820  16.4581  18.6425  18.8877  19.6996  21.2023
    23.0806  25.4476  25.4483  25.8929  25.9992  27.9052  28.9314  29.2721
    30.9873  30.9925  31.9843  33.3562  33.9386  35.3911  36.8292  37.6109
    38.6563  38.8767  40.5427  40.9491  42.0694  42.3785  42.7210  42.8190
    44.3095  46.4064  46.4633  47.5195  48.1827  48.7526  49.4059  50.0376
    50.3347  50.5293  52.1094  52.4432  52.9817  53.5843  53.7385  54.1895
    54.8909  55.0923  56.4914  56.8496  57.0527  58.8491

          k = 0.2074 0.2074 0.5771 (  1708 PWs)   bands (ev):

   -34.7406 -34.7287 -34.6947 -34.6828 -34.3852 -34.3850  -4.7491  -4.4348
    -4.0538  -3.9730   6.7297   6.8893   7.2890   7.5530   8.0627   9.1352
     9.6666  10.0703  10.2800  10.7797  11.2556  11.7259  13.7924  13.8406
    14.1212  15.2648  15.5272  16.6633  17.5708  18.6161  19.5810  20.7328
    24.7672  25.4479  25.4489  26.4633  27.3630  27.5580  28.3255  28.5573
    30.4904  31.4544  32.0132  32.6944  33.1028  34.5610  36.8358  37.0762
    38.3635  39.3399  39.9603  41.5280  42.6210  42.8690  43.5009  43.8242
    44.6925  45.2409  45.8211  46.3252  48.9436  48.9486  49.4267  49.8458
    50.8050  51.3106  51.5709  52.1474  52.5630  52.7513  53.7288  53.9973
    55.8008  56.1744  56.5294  57.0203  57.6704  58.4283

          k = 0.2074 0.4148 0.0000 (  1688 PWs)   bands (ev):

   -34.7053 -34.7032 -34.6076 -34.6008 -34.4037 -34.4013  -5.4645  -5.0163
    -3.9269  -3.6390   5.7457   6.6308   7.1382   7.2527   8.5647   9.0832
     9.7619  10.1330  10.7059  10.7385  11.6847  12.3135  13.7906  13.8350
    14.2559  14.4727  15.4177  16.2255  19.1187  20.0192  20.4265  20.4949
    23.4386  24.4922  25.4453  25.4481  25.7227  27.0049  28.8899  29.1635
    30.9316  32.1507  33.0778  34.2620  34.5873  35.6202  36.1223  36.4173
    38.1275  38.9536  40.0490  40.5358  41.1100  43.0628  43.1940  44.0465
    45.6448  45.9538  46.3669  47.3051  48.5146  49.1533  49.3467  49.6124
    51.7605  51.8728  51.8974  52.2849  52.8689  53.3746  53.4810  54.0354
    54.3470  55.3587  55.4228  56.2258  56.7693  58.7953

          k = 0.2074 0.4148 0.2885 (  1708 PWs)   bands (ev):

   -34.7039 -34.7029 -34.6524 -34.6466 -34.3966 -34.3952  -5.1158  -4.6962
    -4.1127  -3.8505   6.1550   6.9758   7.2419   7.4048   8.4518   8.9759
     9.4285   9.7556  10.3509  10.8607  11.6025  12.0652  13.9378  14.1540
    14.4574  14.9049  15.5224  15.9506  18.7537  19.2013  19.7449  20.6160
    24.1800  25.2525  25.4483  25.4494  26.5541  27.3884  28.5943  28.9793
    30.8134  31.0296  32.1471  33.1340  34.1941  35.1302  36.9281  37.7775
    38.7244  39.1982  40.1766  40.4890  41.6383  42.2969  43.0815  43.6050
    44.8143  45.9539  46.5874  47.5907  48.3072  48.6320  49.5857  50.0692
    51.2079  52.0936  52.2722  52.9253  53.2723  53.5558  53.9212  54.4198
    54.8900  55.7258  55.8549  56.2910  56.6164  58.2185

          k = 0.2074 0.4148 0.5771 (  1709 PWs)   bands (ev):

   -34.7404 -34.7341 -34.6898 -34.6832 -34.3854 -34.3853  -4.6308  -4.5041
    -4.0591  -4.0069   6.6808   6.8089   7.2517   7.4513   8.2337   8.9151
     9.8640  10.0586  10.4231  10.9178  11.5235  12.2617  13.3105  13.9899
    14.1233  14.2497  15.9383  16.4373  17.6038  18.1241  20.2815  20.8296
    25.1493  25.4477  25.4489  25.9049  26.8378  27.3405  27.8732  28.4244
    30.4396  31.5213  32.1614  32.8526  33.8060  35.1790  36.6912  37.3385
    38.3432  39.1378  39.5093  41.1244  42.4676  42.7924  44.0473  44.5045
    45.1895  45.8358  46.2523  46.7293  48.2497  49.1751  49.3485  50.1025
    50.3549  51.2402  51.6694  52.3531  52.8054  53.3784  53.8191  54.1088
    55.3247  56.0083  56.4305  56.9585  57.6062  58.2066

          k = 0.4148 0.4148 0.0000 (  1710 PWs)   bands (ev):

   -34.7075 -34.7062 -34.6056 -34.6029 -34.4012 -34.3997  -5.4125  -5.2459
    -3.6971  -3.5428   5.3573   5.7463   7.0435   7.1040   9.2618   9.9856
    10.2065  10.6932  10.9832  11.1136  11.3264  12.1753  13.3163  13.3430
    13.8094  13.8364  15.9393  16.2276  18.9966  19.5910  20.4196  20.6503
    24.3867  24.9974  25.4456  25.4479  25.8133  26.5287  28.1024  28.2398
    31.3114  32.0873  34.3725  34.4736  34.6299  35.8726  35.9047  36.7150
    38.2189  38.4128  38.6230  39.2946  41.5416  43.6015  43.6591  44.5511
    46.4120  46.5022  46.7976  47.1104  47.6206  48.1348  48.6411  49.0317
    51.5490  51.9419  52.4083  53.1023  53.2373  53.5305  54.7567  54.8052
    55.4430  56.1438  56.1669  56.2418  57.0276  57.0345

          k = 0.4148 0.4148 0.2885 (  1708 PWs)   bands (ev):

   -34.7035 -34.7028 -34.6527 -34.6500 -34.3953 -34.3944  -5.0680  -4.9184
    -3.9054  -3.7780   5.8111   6.1502   7.0992   7.1890   9.2173   9.6983
     9.7411  10.4560  10.8009  10.9333  11.0997  11.5603  13.8415  14.2017
    14.3037  14.4049  15.6203  15.7710  19.2255  19.4715  19.6909  19.9922
    24.8736  25.4466  25.4483  25.5245  26.1331  26.7226  28.3530  28.5203
    30.6040  31.0569  31.5407  32.3415  35.4098  36.5626  36.8642  38.4953
    38.6605  38.7031  40.6193  41.2882  41.8898  42.7539  43.1179  43.3146
    44.4887  45.4898  46.2952  47.9692  48.0747  48.6427  49.4214  49.6153
    50.4731  50.9271  52.5372  52.8889  53.1736  54.2341  54.9369  55.4099
    55.5932  55.7228  56.3776  56.7098  57.3785  57.6559

          k = 0.4148 0.4148 0.5771 (  1707 PWs)   bands (ev):

   -34.7338 -34.7288 -34.6954 -34.6901 -34.3856 -34.3856  -4.5120  -4.4420
    -4.1327  -4.0861   6.7011   6.8079   7.2207   7.2360   8.0350   8.4390
    10.0283  10.0574  10.8036  11.0774  11.9280  12.2887  13.8878  14.0015
    14.0475  14.8413  15.2511  15.9318  18.0996  18.5847  19.7548  20.2343
    25.1969  25.4471  25.4476  25.5578  26.5207  26.8899  27.7957  27.9667
    29.6329  30.3164  33.0142  33.0815  35.4640  36.0272  37.2919  37.7789
    38.6663  39.1070  39.3205  40.9613  43.4869  43.5770  43.7771  43.8588
    44.7861  45.7808  47.5455  48.4001  48.7466  49.1628  49.7063  49.9424
    50.2696  50.5689  51.6168  52.0570  52.4828  52.9914  53.8615  54.1649
    54.3319  55.3425  55.3695  56.5487  56.8632  57.4159

     the Fermi energy is    15.9642 ev

!    total energy              =    -501.22947262 Ry
     Harris-Foulkes estimate   =    -501.22947249 Ry
     estimated scf accuracy    <          4.5E-09 Ry

     The total energy is the sum of the following terms:

     one-electron contribution =     -83.81191184 Ry
     hartree contribution      =      82.79372057 Ry
     xc contribution           =    -138.70809768 Ry
     ewald contribution        =    -361.50235605 Ry
     smearing contrib. (-TS)   =      -0.00082762 Ry

     total magnetization       =     0.01 Bohr mag/cell
     absolute magnetization    =     0.01 Bohr mag/cell

     convergence has been achieved in  16 iterations

     Forces acting on atoms (Ry/au):


     negative rho (up, down):  0.389E+00 0.389E+00
     atom    1 type  1   force =     0.00000000    0.00000000    0.00000000
     atom    2 type  1   force =     0.00000000    0.00000000    0.00000000
     atom    3 type  2   force =    -0.00022791   -0.00022791    0.00000000
     atom    4 type  2   force =     0.00022791    0.00022791    0.00000000
     atom    5 type  2   force =    -0.00022791    0.00022791    0.00000000
     atom    6 type  2   force =     0.00022791   -0.00022791   -0.00000000

     Total force =     0.000645     Total SCF correction =     0.000068
     SCF correction compared to forces is large: reduce conv_thr to get better values


     entering subroutine stress ...


     negative rho (up, down):  0.389E+00 0.389E+00
          total   stress  (Ry/bohr**3)                   (kbar)     P=  322.68
   0.00217796   0.00000000   0.00000000        320.39      0.00      0.00
   0.00000000   0.00217796   0.00000000          0.00    320.39      0.00
   0.00000000   0.00000000   0.00222461          0.00      0.00    327.25


     init_run     :     17.58s CPU     17.79s WALL (       2 calls)
     electrons    :   1165.48s CPU   1198.44s WALL (       8 calls)
     update_pot   :     24.54s CPU     24.76s WALL (       6 calls)
     forces       :     53.82s CPU     53.90s WALL (       8 calls)
     stress       :    141.58s CPU    142.16s WALL (       8 calls)

     Called by init_run:
     wfcinit      :      9.00s CPU      9.16s WALL (       2 calls)
     potinit      :      1.62s CPU      1.63s WALL (       2 calls)

     Called by electrons:
     c_bands      :    936.57s CPU    965.24s WALL (      58 calls)
     sum_band     :    147.03s CPU    148.77s WALL (      58 calls)
     v_of_rho     :     13.02s CPU     13.08s WALL (      64 calls)
     newd         :     76.96s CPU     77.06s WALL (      64 calls)
     mix_rho      :      1.20s CPU      1.20s WALL (      58 calls)

     Called by c_bands:
     init_us_2    :      5.28s CPU      5.36s WALL (    4824 calls)
     cegterg      :    919.37s CPU    947.98s WALL (    2088 calls)

     Called by *egterg:
     h_psi        :    420.50s CPU    433.45s WALL (    6358 calls)
     s_psi        :     32.82s CPU     33.00s WALL (    6358 calls)
     g_psi        :      2.54s CPU      2.57s WALL (    4198 calls)
     cdiaghg      :    260.31s CPU    260.71s WALL (    5998 calls)

     Called by h_psi:
     add_vuspsi   :     33.18s CPU     33.28s WALL (    6358 calls)

     General routines
     calbec       :     56.59s CPU     60.83s WALL (    9022 calls)
     fft          :     11.01s CPU     11.09s WALL (    2272 calls)
     ffts         :      0.21s CPU      0.23s WALL (     244 calls)
     fftw         :    349.85s CPU    353.77s WALL (  939610 calls)
     interpolate  :      1.37s CPU      1.45s WALL (     244 calls)

     Parallel routines
     fft_scatter  :    103.81s CPU    107.12s WALL (  942126 calls)

     PWSCF        : 23m30.82s CPU    24m 4.97s WALL


   This run was terminated on:  12:49:31  24Jan2014            

=------------------------------------------------------------------------------=
   JOB DONE.
=------------------------------------------------------------------------------=
