ScientificPython/2.8-dl160g6-numpy-1.7.1-1(15):ERROR:151: Module 'ScientificPython/2.8-dl160g6-numpy-1.7.1-1' depends on one of the module(s) 'numpy/1.7.1-dl160g6-gfortran-internal-1'
ScientificPython/2.8-dl160g6-numpy-1.7.1-1(15):ERROR:102: Tcl command execution failed: prereq numpy/1.7.1-dl160g6-gfortran-internal-1


     Program PWSCF v.5.0.2 (svn rev. 9656) starts on  9May2014 at 19:23: 8 

     This program is part of the open-source Quantum ESPRESSO suite
     for quantum simulation of materials; please cite
         "P. Giannozzi et al., J. Phys.:Condens. Matter 21 395502 (2009);
          URL http://www.quantum-espresso.org", 
     in publications or presentations arising from this work. More details at
     http://www.quantum-espresso.org/quote.php

     Parallel version (MPI), running on    16 processors
     K-points division:     npool     =       4
     R & G space division:  proc/nbgrp/npool/nimage =       4

     Current dimensions of program PWSCF are:
     Max number of different atomic species (ntypx) = 10
     Max number of k-points (npk) =  40000
     Max angular momentum in pseudopotentials (lmaxx) =  3
     Reading input from pwscf.in
Warning: card &CELL ignored
Warning: card / ignored

     Subspace diagonalization in iterative solution of the eigenvalue problem:
     a serial algorithm will be used


     Parallelization info
     --------------------
     sticks:   dense  smooth     PW     G-vecs:    dense   smooth      PW
     Min        1274     408    116               299662    54238    8133
     Max        1275     409    117               299663    54251    8135
     Sum        5097    1635    467              1198649   216969   32535



     bravais-lattice index     =            0
     lattice parameter (alat)  =      10.9604  a.u.
     unit-cell volume          =    6350.6732 (a.u.)^3
     number of atoms/cell      =           30
     number of atomic types    =            3
     number of electrons       =       224.00 (up: 120.00, down: 104.00)
     number of Kohn-Sham states=          324
     kinetic-energy cutoff     =      40.0000  Ry
     charge density cutoff     =     500.0000  Ry
     convergence threshold     =      1.0E-06
     mixing beta               =       0.7000
     number of iterations used =            8  plain     mixing
     Exchange-correlation      = SLA  PW   PBE  PBE ( 1 4 3 4 0)
     EXX-fraction              =        0.00
     nstep                     =           50


     celldm(1)=  10.960412  celldm(2)=   0.000000  celldm(3)=   0.000000
     celldm(4)=   0.000000  celldm(5)=   0.000000  celldm(6)=   0.000000

     crystal axes: (cart. coord. in units of alat)
               a(1) = (   1.000000   0.000000   0.000000 )  
               a(2) = (   0.000000   1.067975   0.000000 )  
               a(3) = (   0.000000   0.000000   4.516251 )  

     reciprocal axes: (cart. coord. in units 2 pi/alat)
               b(1) = (  1.000000  0.000000  0.000000 )  
               b(2) = (  0.000000  0.936351  0.000000 )  
               b(3) = (  0.000000  0.000000  0.221423 )  


     PseudoPot. # 1 for O  read from file:
     /home/camp/zhonxu/pseudo/o_pbe_v1.01.uspp.F.UPF
     MD5 check sum: 2bcb18d16ea4b960afae9ec6d52f22d2
     Pseudo is Ultrasoft + core correction, Zval =  6.0
     Generated by new atomic code, or converted to UPF format
     Using radial grid of  737 points,  5 beta functions with: 
                l(1) =   0
                l(2) =   0
                l(3) =   1
                l(4) =   1
                l(5) =   2
     Q(r) pseudized with  8 coefficients,  rinner =    0.900   0.900   0.900
                                                       0.900   0.900

     PseudoPot. # 2 for Cr read from file:
     /home/camp/zhonxu/pseudo/cr_pbe_v1.uspp.F.UPF
     MD5 check sum: 68b6f918d1762dccfb11451fe85b0e0e
     Pseudo is Ultrasoft + core correction, Zval = 14.0
     Generated by new atomic code, or converted to UPF format
     Using radial grid of  857 points,  6 beta functions with: 
                l(1) =   0
                l(2) =   0
                l(3) =   1
                l(4) =   1
                l(5) =   2
                l(6) =   2
     Q(r) pseudized with  6 coefficients,  rinner =    1.000   1.000   1.000
                                                       1.000   1.000

     PseudoPot. # 3 for H  read from file:
     /home/camp/zhonxu/pseudo/h_pbe_v1.uspp.F.UPF
     MD5 check sum: 3408e3ff4ec8b0a4e358431e7e038a48
     Pseudo is Ultrasoft, Zval =  1.0
     Generated by new atomic code, or converted to UPF format
     Using radial grid of  615 points,  2 beta functions with: 
                l(1) =   0
                l(2) =   0
     Q(r) pseudized with  8 coefficients,  rinner =    0.700

     atomic species   valence    mass     pseudopotential
        O0             6.00    15.99940     O ( 1.00)
        Cr1           14.00    51.99600     Cr( 1.00)
        H2             1.00     1.00794     H ( 1.00)

     Starting magnetic structure 
     atomic species   magnetization
        O0           0.000
        Cr1          0.600
        H2           0.000


     Simplified LDA+U calculation (l_max = 2) with parameters (eV):
     atomic species    L          U    alpha       J0     beta
        Cr1            2     3.0000   0.0000   0.0000   0.0000



     No symmetry found



   Cartesian axes

     site n.     atom                  positions (alat units)
         1           O0  tau(   1) = (   0.0000000   0.0000000   1.7181625  )
         2           O0  tau(   2) = (   0.0000000   0.5339875   1.8008551  )
         3           Cr1 tau(   3) = (   0.2500000   0.5339875   2.0300096  )
         4           Cr1 tau(   4) = (   0.0000000   0.0000000   2.0413454  )
         5           O0  tau(   5) = (   0.2500000   0.8543801   2.0369195  )
         6           O0  tau(   6) = (   0.2500000   0.2135950   2.0378227  )
         7           O0  tau(   7) = (   0.0000000   0.5339875   2.2471058  )
         8           O0  tau(   8) = (   0.0000000   0.0000000   2.3700833  )
         9           Cr1 tau(   9) = (   0.2500000   0.0000000   2.6079543  )
        10           Cr1 tau(  10) = (   0.0000000   0.5339875   2.5535334  )
        11           O0  tau(  11) = (   0.2500000   0.7475825   2.5983798  )
        12           O0  tau(  12) = (   0.2500000   0.3203925   2.5982895  )
        13           O0  tau(  13) = (   0.0000000   0.0000000   2.7910882  )
        14           O0  tau(  14) = (   0.5000000   0.0000000   1.7181625  )
        15           O0  tau(  15) = (   0.5000000   0.5339875   1.8008551  )
        16           Cr1 tau(  16) = (   0.7500000   0.5339875   2.0300096  )
        17           Cr1 tau(  17) = (   0.5000000   0.0000000   2.0413454  )
        18           O0  tau(  18) = (   0.7500000   0.8543801   2.0369195  )
        19           O0  tau(  19) = (   0.7500000   0.2135950   2.0378227  )
        20           O0  tau(  20) = (   0.5000000   0.5339875   2.2471058  )
        21           O0  tau(  21) = (   0.5000000   0.0000000   2.3700833  )
        22           Cr1 tau(  22) = (   0.7500000   0.0000000   2.6079543  )
        23           Cr1 tau(  23) = (   0.5000000   0.5339875   2.5535334  )
        24           O0  tau(  24) = (   0.7500000   0.7475825   2.5983798  )
        25           O0  tau(  25) = (   0.7500000   0.3203925   2.5982895  )
        26           O0  tau(  26) = (   0.5000000   0.0000000   2.7910882  )
        27           H2  tau(  27) = (  -0.0006900   0.6851274   1.7196980  )
        28           H2  tau(  28) = (   0.4993100   0.6851274   1.7196980  )
        29           H2  tau(  29) = (   0.1573400   0.0316548   1.6594512  )
        30           H2  tau(  30) = (   0.6573500   0.0316548   1.6594512  )

     number of k points=    20  Methfessel-Paxton smearing, width (Ry)=  0.0100
                       cart. coord. in units 2pi/alat
        k(    1) = (   0.0000000   0.0000000   0.0000000), wk =   0.0625000
        k(    2) = (   0.0000000   0.2340879   0.0000000), wk =   0.1250000
        k(    3) = (   0.0000000  -0.4681757   0.0000000), wk =   0.0625000
        k(    4) = (   0.2500000   0.0000000   0.0000000), wk =   0.1250000
        k(    5) = (   0.2500000   0.2340879   0.0000000), wk =   0.1250000
        k(    6) = (   0.2500000  -0.4681757   0.0000000), wk =   0.1250000
        k(    7) = (  -0.5000000   0.0000000   0.0000000), wk =   0.0625000
        k(    8) = (  -0.5000000   0.2340879   0.0000000), wk =   0.1250000
        k(    9) = (  -0.5000000  -0.4681757   0.0000000), wk =   0.0625000
        k(   10) = (  -0.2500000   0.2340879   0.0000000), wk =   0.1250000
        k(   11) = (   0.0000000   0.0000000   0.0000000), wk =   0.0625000
        k(   12) = (   0.0000000   0.2340879   0.0000000), wk =   0.1250000
        k(   13) = (   0.0000000  -0.4681757   0.0000000), wk =   0.0625000
        k(   14) = (   0.2500000   0.0000000   0.0000000), wk =   0.1250000
        k(   15) = (   0.2500000   0.2340879   0.0000000), wk =   0.1250000
        k(   16) = (   0.2500000  -0.4681757   0.0000000), wk =   0.1250000
        k(   17) = (  -0.5000000   0.0000000   0.0000000), wk =   0.0625000
        k(   18) = (  -0.5000000   0.2340879   0.0000000), wk =   0.1250000
        k(   19) = (  -0.5000000  -0.4681757   0.0000000), wk =   0.0625000
        k(   20) = (  -0.2500000   0.2340879   0.0000000), wk =   0.1250000

     Dense  grid:  1198649 G-vectors     FFT dimensions: (  80,  90, 360)

     Smooth grid:   216969 G-vectors     FFT dimensions: (  45,  48, 200)

     Largest allocated arrays     est. size (Mb)     dimensions
        Kohn-Sham Wavefunctions        34.03 Mb     (   6884,  324)
        Atomic wavefunctions           16.39 Mb     (   6884,  156)
        NL pseudopotentials            40.55 Mb     (   6884,  386)
        Each V/rho on FFT grid         19.78 Mb     ( 648000,   2)
        Each G-vector array             2.29 Mb     ( 299662)
        G-vector shells                 0.99 Mb     ( 129803)
     Largest temporary arrays     est. size (Mb)     dimensions
        Auxiliary wavefunctions       136.13 Mb     (   6884, 1296)
        Each subspace H/S matrix       25.63 Mb     (1296,1296)
        Each <psi_i|beta_j> matrix      1.91 Mb     (    386,  324)
        Arrays for rho mixing          79.10 Mb     ( 648000,   8)

     Check: negative/imaginary core charge=   -0.000012    0.000000

     Initial potential from superposition of free atoms
     Check: negative starting charge=(component1):   -0.001590
     Check: negative starting charge=(component2):   -0.000511

     starting charge  215.99984, renormalised to  224.00000

     negative rho (up, down):  0.165E-02 0.530E-03
     Number of +U iterations with fixed ns =  0
     Starting occupations:
 --- enter write_ns ---
 LDA+U parameters:
U( 2)     =  3.00000000
alpha( 2) =  0.00000000
atom    3   Tr[ns(na)] (up, down, total) =   5.00000  0.00000  5.00000
   spin  1
    eigenvalues: 
  1.000  1.000  1.000  1.000  1.000
    eigenvectors:
  1.000  0.000  0.000  0.000  0.000
  0.000  1.000  0.000  0.000  0.000
  0.000  0.000  1.000  0.000  0.000
  0.000  0.000  0.000  1.000  0.000
  0.000  0.000  0.000  0.000  1.000
    occupations:
  1.000  0.000  0.000  0.000  0.000
  0.000  1.000  0.000  0.000  0.000
  0.000  0.000  1.000  0.000  0.000
  0.000  0.000  0.000  1.000  0.000
  0.000  0.000  0.000  0.000  1.000
   spin  2
    eigenvalues: 
  0.000  0.000  0.000  0.000  0.000
    eigenvectors:
  1.000  0.000  0.000  0.000  0.000
  0.000  1.000  0.000  0.000  0.000
  0.000  0.000  1.000  0.000  0.000
  0.000  0.000  0.000  1.000  0.000
  0.000  0.000  0.000  0.000  1.000
    occupations:
  0.000  0.000  0.000  0.000  0.000
  0.000  0.000  0.000  0.000  0.000
  0.000  0.000  0.000  0.000  0.000
  0.000  0.000  0.000  0.000  0.000
  0.000  0.000  0.000  0.000  0.000
atomic mag. moment =     5.000000
atom    4   Tr[ns(na)] (up, down, total) =   5.00000  0.00000  5.00000
   spin  1
    eigenvalues: 
  1.000  1.000  1.000  1.000  1.000
    eigenvectors:
  1.000  0.000  0.000  0.000  0.000
  0.000  1.000  0.000  0.000  0.000
  0.000  0.000  1.000  0.000  0.000
  0.000  0.000  0.000  1.000  0.000
  0.000  0.000  0.000  0.000  1.000
    occupations:
  1.000  0.000  0.000  0.000  0.000
  0.000  1.000  0.000  0.000  0.000
  0.000  0.000  1.000  0.000  0.000
  0.000  0.000  0.000  1.000  0.000
  0.000  0.000  0.000  0.000  1.000
   spin  2
    eigenvalues: 
  0.000  0.000  0.000  0.000  0.000
    eigenvectors:
  1.000  0.000  0.000  0.000  0.000
  0.000  1.000  0.000  0.000  0.000
  0.000  0.000  1.000  0.000  0.000
  0.000  0.000  0.000  1.000  0.000
  0.000  0.000  0.000  0.000  1.000
    occupations:
  0.000  0.000  0.000  0.000  0.000
  0.000  0.000  0.000  0.000  0.000
  0.000  0.000  0.000  0.000  0.000
  0.000  0.000  0.000  0.000  0.000
  0.000  0.000  0.000  0.000  0.000
atomic mag. moment =     5.000000
atom    9   Tr[ns(na)] (up, down, total) =   5.00000  0.00000  5.00000
   spin  1
    eigenvalues: 
  1.000  1.000  1.000  1.000  1.000
    eigenvectors:
  1.000  0.000  0.000  0.000  0.000
  0.000  1.000  0.000  0.000  0.000
  0.000  0.000  1.000  0.000  0.000
  0.000  0.000  0.000  1.000  0.000
  0.000  0.000  0.000  0.000  1.000
    occupations:
  1.000  0.000  0.000  0.000  0.000
  0.000  1.000  0.000  0.000  0.000
  0.000  0.000  1.000  0.000  0.000
  0.000  0.000  0.000  1.000  0.000
  0.000  0.000  0.000  0.000  1.000
   spin  2
    eigenvalues: 
  0.000  0.000  0.000  0.000  0.000
    eigenvectors:
  1.000  0.000  0.000  0.000  0.000
  0.000  1.000  0.000  0.000  0.000
  0.000  0.000  1.000  0.000  0.000
  0.000  0.000  0.000  1.000  0.000
  0.000  0.000  0.000  0.000  1.000
    occupations:
  0.000  0.000  0.000  0.000  0.000
  0.000  0.000  0.000  0.000  0.000
  0.000  0.000  0.000  0.000  0.000
  0.000  0.000  0.000  0.000  0.000
  0.000  0.000  0.000  0.000  0.000
atomic mag. moment =     5.000000
atom   10   Tr[ns(na)] (up, down, total) =   5.00000  0.00000  5.00000
   spin  1
    eigenvalues: 
  1.000  1.000  1.000  1.000  1.000
    eigenvectors:
  1.000  0.000  0.000  0.000  0.000
  0.000  1.000  0.000  0.000  0.000
  0.000  0.000  1.000  0.000  0.000
  0.000  0.000  0.000  1.000  0.000
  0.000  0.000  0.000  0.000  1.000
    occupations:
  1.000  0.000  0.000  0.000  0.000
  0.000  1.000  0.000  0.000  0.000
  0.000  0.000  1.000  0.000  0.000
  0.000  0.000  0.000  1.000  0.000
  0.000  0.000  0.000  0.000  1.000
   spin  2
    eigenvalues: 
  0.000  0.000  0.000  0.000  0.000
    eigenvectors:
  1.000  0.000  0.000  0.000  0.000
  0.000  1.000  0.000  0.000  0.000
  0.000  0.000  1.000  0.000  0.000
  0.000  0.000  0.000  1.000  0.000
  0.000  0.000  0.000  0.000  1.000
    occupations:
  0.000  0.000  0.000  0.000  0.000
  0.000  0.000  0.000  0.000  0.000
  0.000  0.000  0.000  0.000  0.000
  0.000  0.000  0.000  0.000  0.000
  0.000  0.000  0.000  0.000  0.000
atomic mag. moment =     5.000000
atom   16   Tr[ns(na)] (up, down, total) =   5.00000  0.00000  5.00000
   spin  1
    eigenvalues: 
  1.000  1.000  1.000  1.000  1.000
    eigenvectors:
  1.000  0.000  0.000  0.000  0.000
  0.000  1.000  0.000  0.000  0.000
  0.000  0.000  1.000  0.000  0.000
  0.000  0.000  0.000  1.000  0.000
  0.000  0.000  0.000  0.000  1.000
    occupations:
  1.000  0.000  0.000  0.000  0.000
  0.000  1.000  0.000  0.000  0.000
  0.000  0.000  1.000  0.000  0.000
  0.000  0.000  0.000  1.000  0.000
  0.000  0.000  0.000  0.000  1.000
   spin  2
    eigenvalues: 
  0.000  0.000  0.000  0.000  0.000
    eigenvectors:
  1.000  0.000  0.000  0.000  0.000
  0.000  1.000  0.000  0.000  0.000
  0.000  0.000  1.000  0.000  0.000
  0.000  0.000  0.000  1.000  0.000
  0.000  0.000  0.000  0.000  1.000
    occupations:
  0.000  0.000  0.000  0.000  0.000
  0.000  0.000  0.000  0.000  0.000
  0.000  0.000  0.000  0.000  0.000
  0.000  0.000  0.000  0.000  0.000
  0.000  0.000  0.000  0.000  0.000
atomic mag. moment =     5.000000
atom   17   Tr[ns(na)] (up, down, total) =   5.00000  0.00000  5.00000
   spin  1
    eigenvalues: 
  1.000  1.000  1.000  1.000  1.000
    eigenvectors:
  1.000  0.000  0.000  0.000  0.000
  0.000  1.000  0.000  0.000  0.000
  0.000  0.000  1.000  0.000  0.000
  0.000  0.000  0.000  1.000  0.000
  0.000  0.000  0.000  0.000  1.000
    occupations:
  1.000  0.000  0.000  0.000  0.000
  0.000  1.000  0.000  0.000  0.000
  0.000  0.000  1.000  0.000  0.000
  0.000  0.000  0.000  1.000  0.000
  0.000  0.000  0.000  0.000  1.000
   spin  2
    eigenvalues: 
  0.000  0.000  0.000  0.000  0.000
    eigenvectors:
  1.000  0.000  0.000  0.000  0.000
  0.000  1.000  0.000  0.000  0.000
  0.000  0.000  1.000  0.000  0.000
  0.000  0.000  0.000  1.000  0.000
  0.000  0.000  0.000  0.000  1.000
    occupations:
  0.000  0.000  0.000  0.000  0.000
  0.000  0.000  0.000  0.000  0.000
  0.000  0.000  0.000  0.000  0.000
  0.000  0.000  0.000  0.000  0.000
  0.000  0.000  0.000  0.000  0.000
atomic mag. moment =     5.000000
atom   22   Tr[ns(na)] (up, down, total) =   5.00000  0.00000  5.00000
   spin  1
    eigenvalues: 
  1.000  1.000  1.000  1.000  1.000
    eigenvectors:
  1.000  0.000  0.000  0.000  0.000
  0.000  1.000  0.000  0.000  0.000
  0.000  0.000  1.000  0.000  0.000
  0.000  0.000  0.000  1.000  0.000
  0.000  0.000  0.000  0.000  1.000
    occupations:
  1.000  0.000  0.000  0.000  0.000
  0.000  1.000  0.000  0.000  0.000
  0.000  0.000  1.000  0.000  0.000
  0.000  0.000  0.000  1.000  0.000
  0.000  0.000  0.000  0.000  1.000
   spin  2
    eigenvalues: 
  0.000  0.000  0.000  0.000  0.000
    eigenvectors:
  1.000  0.000  0.000  0.000  0.000
  0.000  1.000  0.000  0.000  0.000
  0.000  0.000  1.000  0.000  0.000
  0.000  0.000  0.000  1.000  0.000
  0.000  0.000  0.000  0.000  1.000
    occupations:
  0.000  0.000  0.000  0.000  0.000
  0.000  0.000  0.000  0.000  0.000
  0.000  0.000  0.000  0.000  0.000
  0.000  0.000  0.000  0.000  0.000
  0.000  0.000  0.000  0.000  0.000
atomic mag. moment =     5.000000
atom   23   Tr[ns(na)] (up, down, total) =   5.00000  0.00000  5.00000
   spin  1
    eigenvalues: 
  1.000  1.000  1.000  1.000  1.000
    eigenvectors:
  1.000  0.000  0.000  0.000  0.000
  0.000  1.000  0.000  0.000  0.000
  0.000  0.000  1.000  0.000  0.000
  0.000  0.000  0.000  1.000  0.000
  0.000  0.000  0.000  0.000  1.000
    occupations:
  1.000  0.000  0.000  0.000  0.000
  0.000  1.000  0.000  0.000  0.000
  0.000  0.000  1.000  0.000  0.000
  0.000  0.000  0.000  1.000  0.000
  0.000  0.000  0.000  0.000  1.000
   spin  2
    eigenvalues: 
  0.000  0.000  0.000  0.000  0.000
    eigenvectors:
  1.000  0.000  0.000  0.000  0.000
  0.000  1.000  0.000  0.000  0.000
  0.000  0.000  1.000  0.000  0.000
  0.000  0.000  0.000  1.000  0.000
  0.000  0.000  0.000  0.000  1.000
    occupations:
  0.000  0.000  0.000  0.000  0.000
  0.000  0.000  0.000  0.000  0.000
  0.000  0.000  0.000  0.000  0.000
  0.000  0.000  0.000  0.000  0.000
  0.000  0.000  0.000  0.000  0.000
atomic mag. moment =     5.000000
N of occupied +U levels =  40.0000000
 --- exit write_ns ---
 Atomic wfc used for LDA+U Projector are NOT orthogonalized
     Starting wfc are  156 randomized atomic wfcs

     total cpu time spent up to now is      116.9 secs

     per-process dynamical memory:   411.7 Mb

     Self-consistent Calculation

     iteration #  1     ecut=    40.00 Ry     beta=0.70
     Davidson diagonalization with overlap
     ethr =  1.00E-02,  avg # of iterations =  5.2
 --- enter write_ns ---
 LDA+U parameters:
U( 2)     =  3.00000000
alpha( 2) =  0.00000000
atom    3   Tr[ns(na)] (up, down, total) =   3.10413  0.59538  3.69952
   spin  1
    eigenvalues: 
  0.537  0.557  0.607  0.664  0.740
    eigenvectors:
  0.056  0.000  0.920  0.023  0.000
  0.002  0.933  0.000  0.000  0.065
  0.017  0.000  0.015  0.963  0.005
  0.925  0.002  0.064  0.009  0.000
  0.000  0.065  0.000  0.005  0.930
    occupations:
  0.604  0.000  0.011 -0.015  0.001
  0.000  0.569 -0.002  0.000  0.045
  0.011 -0.002  0.661  0.014 -0.005
 -0.015  0.000  0.014  0.542 -0.002
  0.001  0.045 -0.005 -0.002  0.728
   spin  2
    eigenvalues: 
  0.060  0.068  0.070  0.187  0.211
    eigenvectors:
  0.644  0.000  0.167  0.000  0.188
  0.000  0.001  0.000  0.999  0.000
  0.201  0.000  0.798  0.000  0.000
  0.154  0.000  0.034  0.000  0.812
  0.000  0.999  0.000  0.001  0.000
    occupations:
  0.090 -0.000 -0.003  0.058 -0.000
 -0.000  0.187 -0.000  0.000  0.004
 -0.003 -0.000  0.068  0.003 -0.000
  0.058  0.000  0.003  0.182 -0.000
 -0.000  0.004 -0.000 -0.000  0.068
atomic mag. moment =     2.508748
atom    4   Tr[ns(na)] (up, down, total) =   3.08290  0.63540  3.71830
   spin  1
    eigenvalues: 
  0.514  0.556  0.644  0.678  0.691
    eigenvectors:
  0.000  0.758  0.012  0.230  0.000
  0.001  0.224  0.004  0.695  0.076
  0.000  0.016  0.029  0.052  0.903
  0.000  0.002  0.955  0.022  0.021
  0.999  0.000  0.000  0.001  0.000
    occupations:
  0.585  0.050  0.013 -0.001  0.001
  0.050  0.652 -0.011  0.004  0.003
  0.013 -0.011  0.687  0.008  0.002
 -0.001  0.004  0.008  0.645 -0.000
  0.001  0.003  0.002 -0.000  0.514
   spin  2
    eigenvalues: 
  0.062  0.073  0.083  0.195  0.222
    eigenvectors:
  0.009  0.001  0.000  0.000  0.990
  0.006  0.879  0.113  0.000  0.002
  0.001  0.112  0.887  0.000  0.000
  0.984  0.007  0.000  0.000  0.009
  0.000  0.000  0.000  1.000  0.000
    occupations:
  0.220  0.006  0.001 -0.015  0.000
  0.006  0.075 -0.003  0.000 -0.000
  0.001 -0.003  0.082  0.000  0.000
 -0.015  0.000  0.000  0.064  0.000
  0.000 -0.000  0.000  0.000  0.195
atomic mag. moment =     2.447496
atom    9   Tr[ns(na)] (up, down, total) =   4.24149  0.68517  4.92666
   spin  1
    eigenvalues: 
  0.637  0.650  0.979  0.981  0.994
    eigenvectors:
  0.138  0.007  0.855  0.000  0.000
  0.043  0.957  0.000  0.000  0.000
  0.000  0.000  0.000  0.000  1.000
  0.818  0.037  0.145  0.000  0.000
  0.000  0.000  0.000  1.000  0.000
    occupations:
  0.930 -0.000 -0.000 -0.121  0.000
 -0.000  0.650 -0.001 -0.003 -0.001
 -0.000 -0.001  0.994  0.000  0.000
 -0.121 -0.003  0.000  0.687  0.000
  0.000 -0.001  0.000  0.000  0.981
   spin  2
    eigenvalues: 
  0.074  0.085  0.088  0.217  0.222
    eigenvectors:
  0.000  0.881  0.000  0.000  0.119
  0.000  0.000  0.000  1.000  0.000
  1.000  0.000  0.000  0.000  0.000
  0.000  0.119  0.000  0.000  0.881
  0.000  0.000  1.000  0.000  0.000
    occupations:
  0.101 -0.000 -0.000  0.044  0.000
 -0.000  0.217  0.000 -0.000  0.000
 -0.000  0.000  0.074 -0.000 -0.000
  0.044 -0.000 -0.000  0.205 -0.000
  0.000  0.000 -0.000 -0.000  0.088
atomic mag. moment =     3.556325
atom   10   Tr[ns(na)] (up, down, total) =   4.72777  0.56745  5.29522
   spin  1
    eigenvalues: 
  0.846  0.911  0.988  0.991  0.992
    eigenvectors:
  0.001  0.975  0.024  0.000  0.000
  0.000  0.000  0.001  0.994  0.005
  0.000  0.000  0.003  0.005  0.992
  0.000  0.024  0.972  0.001  0.003
  0.999  0.001  0.000  0.000  0.000
    occupations:
  0.913 -0.000 -0.000  0.012  0.002
 -0.000  0.991  0.000 -0.000  0.000
 -0.000  0.000  0.992 -0.000  0.000
  0.012 -0.000 -0.000  0.986 -0.000
  0.002  0.000  0.000 -0.000  0.846
   spin  2
    eigenvalues: 
  0.059  0.074  0.080  0.167  0.187
    eigenvectors:
  0.015  0.000  0.000  0.985  0.000
  0.000  0.000  1.000  0.000  0.000
  0.000  1.000  0.000  0.000  0.000
  0.985  0.000  0.000  0.015  0.000
  0.000  0.000  0.000  0.000  1.000
    occupations:
  0.165 -0.000 -0.000 -0.013 -0.000
 -0.000  0.080 -0.000 -0.000 -0.000
 -0.000 -0.000  0.074  0.000  0.000
 -0.013 -0.000  0.000  0.060  0.000
 -0.000 -0.000  0.000  0.000  0.187
atomic mag. moment =     4.160315
atom   16   Tr[ns(na)] (up, down, total) =   3.10412  0.59538  3.69950
   spin  1
    eigenvalues: 
  0.537  0.557  0.607  0.664  0.740
    eigenvectors:
  0.056  0.000  0.920  0.023  0.000
  0.002  0.933  0.000  0.000  0.065
  0.017  0.000  0.015  0.963  0.005
  0.925  0.002  0.064  0.009  0.000
  0.000  0.065  0.000  0.005  0.930
    occupations:
  0.604  0.000  0.011 -0.015  0.001
  0.000  0.569 -0.002  0.000  0.045
  0.011 -0.002  0.661  0.014 -0.005
 -0.015  0.000  0.014  0.542 -0.002
  0.001  0.045 -0.005 -0.002  0.728
   spin  2
    eigenvalues: 
  0.060  0.068  0.070  0.187  0.211
    eigenvectors:
  0.644  0.000  0.167  0.000  0.188
  0.000  0.001  0.000  0.999  0.000
  0.201  0.000  0.798  0.000  0.000
  0.154  0.000  0.034  0.000  0.812
  0.000  0.999  0.000  0.001  0.000
    occupations:
  0.090 -0.000 -0.003  0.058 -0.000
 -0.000  0.187 -0.000  0.000  0.004
 -0.003 -0.000  0.068  0.003 -0.000
  0.058  0.000  0.003  0.182 -0.000
 -0.000  0.004 -0.000 -0.000  0.068
atomic mag. moment =     2.508734
atom   17   Tr[ns(na)] (up, down, total) =   3.08290  0.63540  3.71830
   spin  1
    eigenvalues: 
  0.514  0.556  0.644  0.678  0.691
    eigenvectors:
  0.000  0.758  0.012  0.230  0.000
  0.001  0.224  0.004  0.695  0.076
  0.000  0.016  0.029  0.052  0.903
  0.000  0.002  0.955  0.022  0.021
  0.999  0.000  0.000  0.001  0.000
    occupations:
  0.585  0.050  0.013 -0.001  0.001
  0.050  0.652 -0.011  0.004  0.003
  0.013 -0.011  0.687  0.008  0.002
 -0.001  0.004  0.008  0.645 -0.000
  0.001  0.003  0.002 -0.000  0.514
   spin  2
    eigenvalues: 
  0.062  0.073  0.083  0.195  0.222
    eigenvectors:
  0.009  0.001  0.000  0.000  0.990
  0.006  0.879  0.113  0.000  0.002
  0.001  0.112  0.887  0.000  0.000
  0.984  0.007  0.000  0.000  0.009
  0.000  0.000  0.000  1.000  0.000
    occupations:
  0.220  0.006  0.001 -0.015  0.000
  0.006  0.075 -0.003  0.000 -0.000
  0.001 -0.003  0.082  0.000  0.000
 -0.015  0.000  0.000  0.064  0.000
  0.000 -0.000  0.000  0.000  0.195
atomic mag. moment =     2.447494
atom   22   Tr[ns(na)] (up, down, total) =   4.24150  0.68517  4.92668
   spin  1
    eigenvalues: 
  0.637  0.650  0.979  0.981  0.994
    eigenvectors:
  0.138  0.007  0.855  0.000  0.000
  0.043  0.957  0.000  0.000  0.000
  0.000  0.000  0.000  0.000  1.000
  0.818  0.037  0.145  0.000  0.000
  0.000  0.000  0.000  1.000  0.000
    occupations:
  0.930 -0.000 -0.000 -0.121  0.000
 -0.000  0.650 -0.001 -0.003 -0.001
 -0.000 -0.001  0.994  0.000  0.000
 -0.121 -0.003  0.000  0.687  0.000
  0.000 -0.001  0.000  0.000  0.981
   spin  2
    eigenvalues: 
  0.074  0.085  0.088  0.217  0.222
    eigenvectors:
  0.000  0.881  0.000  0.000  0.119
  0.000  0.000  0.000  1.000  0.000
  1.000  0.000  0.000  0.000  0.000
  0.000  0.119  0.000  0.000  0.881
  0.000  0.000  1.000  0.000  0.000
    occupations:
  0.101 -0.000 -0.000  0.044  0.000
 -0.000  0.217  0.000 -0.000  0.000
 -0.000  0.000  0.074 -0.000 -0.000
  0.044 -0.000 -0.000  0.205 -0.000
  0.000  0.000 -0.000 -0.000  0.088
atomic mag. moment =     3.556333
atom   23   Tr[ns(na)] (up, down, total) =   4.72777  0.56745  5.29522
   spin  1
    eigenvalues: 
  0.846  0.911  0.988  0.991  0.992
    eigenvectors:
  0.001  0.975  0.024  0.000  0.000
  0.000  0.000  0.001  0.994  0.005
  0.000  0.000  0.003  0.005  0.992
  0.000  0.024  0.972  0.001  0.003
  0.999  0.001  0.000  0.000  0.000
    occupations:
  0.913 -0.000 -0.000  0.012  0.002
 -0.000  0.991  0.000 -0.000  0.000
 -0.000  0.000  0.992 -0.000  0.000
  0.012 -0.000 -0.000  0.986 -0.000
  0.002  0.000  0.000 -0.000  0.846
   spin  2
    eigenvalues: 
  0.059  0.074  0.080  0.167  0.187
    eigenvectors:
  0.015  0.000  0.000  0.985  0.000
  0.000  0.000  1.000  0.000  0.000
  0.000  1.000  0.000  0.000  0.000
  0.985  0.000  0.000  0.015  0.000
  0.000  0.000  0.000  0.000  1.000
    occupations:
  0.165  0.000 -0.000 -0.013 -0.000
  0.000  0.080 -0.000 -0.000 -0.000
 -0.000 -0.000  0.074  0.000  0.000
 -0.013 -0.000  0.000  0.060  0.000
 -0.000 -0.000  0.000  0.000  0.187
atomic mag. moment =     4.160313
N of occupied +U levels =  35.2793923
 --- exit write_ns ---

     negative rho (up, down):  0.242E-02 0.125E-02

     total cpu time spent up to now is      550.0 secs

     total energy              =   -1958.27527455 Ry
     Harris-Foulkes estimate   =   -1989.38190562 Ry
     estimated scf accuracy    <      45.16241476 Ry

     total magnetization       =    16.00 Bohr mag/cell
     absolute magnetization    =    34.85 Bohr mag/cell

     iteration #  2     ecut=    40.00 Ry     beta=0.70
     Davidson diagonalization with overlap
     ethr =  1.00E-02,  avg # of iterations =  7.0

     negative rho (up, down):  0.186E-01 0.100E-01

     total cpu time spent up to now is     1013.2 secs

     total energy              =   -1758.54548651 Ry
     Harris-Foulkes estimate   =   -2374.86739396 Ry
     estimated scf accuracy    <    6645.28050578 Ry

     total magnetization       =    16.00 Bohr mag/cell
     absolute magnetization    =    16.08 Bohr mag/cell

     iteration #  3     ecut=    40.00 Ry     beta=0.70
     Davidson diagonalization with overlap
     ethr =  1.00E-02,  avg # of iterations =  6.0

     negative rho (up, down):  0.108E-01 0.197E-01

     total cpu time spent up to now is     1504.8 secs

     total energy              =   -1977.19333298 Ry
     Harris-Foulkes estimate   =   -1999.88897184 Ry
     estimated scf accuracy    <     282.30795204 Ry

     total magnetization       =    16.00 Bohr mag/cell
     absolute magnetization    =    17.11 Bohr mag/cell

     iteration #  4     ecut=    40.00 Ry     beta=0.70
     Davidson diagonalization with overlap
     ethr =  1.00E-02,  avg # of iterations =  3.9

     negative rho (up, down):  0.627E-02 0.439E-02

     total cpu time spent up to now is     1747.1 secs

     total energy              =   -1989.53466334 Ry
     Harris-Foulkes estimate   =   -1994.18234965 Ry
     estimated scf accuracy    <      27.19094217 Ry

     total magnetization       =    16.00 Bohr mag/cell
     absolute magnetization    =    27.93 Bohr mag/cell

     iteration #  5     ecut=    40.00 Ry     beta=0.70
     Davidson diagonalization with overlap
     ethr =  1.00E-02,  avg # of iterations =  1.2

     negative rho (up, down):  0.120E-01 0.340E-02

     total cpu time spent up to now is     1959.1 secs

     total energy              =   -1990.54984084 Ry
     Harris-Foulkes estimate   =   -1992.80800629 Ry
     estimated scf accuracy    <      10.66993697 Ry

     total magnetization       =    16.00 Bohr mag/cell
     absolute magnetization    =    24.92 Bohr mag/cell

     iteration #  6     ecut=    40.00 Ry     beta=0.70
     Davidson diagonalization with overlap
     ethr =  4.76E-03,  avg # of iterations =  3.0

     negative rho (up, down):  0.629E-02 0.314E-02

     total cpu time spent up to now is     2183.0 secs

     total energy              =   -1990.82913264 Ry
     Harris-Foulkes estimate   =   -1992.97031961 Ry
     estimated scf accuracy    <      13.44679265 Ry

     total magnetization       =    16.00 Bohr mag/cell
     absolute magnetization    =    24.69 Bohr mag/cell

     iteration #  7     ecut=    40.00 Ry     beta=0.70
     Davidson diagonalization with overlap
     ethr =  4.76E-03,  avg # of iterations =  1.2

     negative rho (up, down):  0.609E-02 0.293E-02

     total cpu time spent up to now is     2394.6 secs

     total energy              =   -1991.21158209 Ry
     Harris-Foulkes estimate   =   -1992.69744018 Ry
     estimated scf accuracy    <       8.22614276 Ry

     total magnetization       =    16.00 Bohr mag/cell
     absolute magnetization    =    27.58 Bohr mag/cell

     iteration #  8     ecut=    40.00 Ry     beta=0.70
     Davidson diagonalization with overlap
     ethr =  3.67E-03,  avg # of iterations =  1.0

     negative rho (up, down):  0.714E-02 0.244E-02

     total cpu time spent up to now is     2605.6 secs

     total energy              =   -1991.86730775 Ry
     Harris-Foulkes estimate   =   -1992.36858819 Ry
     estimated scf accuracy    <       2.98731694 Ry

     total magnetization       =    16.00 Bohr mag/cell
     absolute magnetization    =    23.99 Bohr mag/cell

     iteration #  9     ecut=    40.00 Ry     beta=0.70
     Davidson diagonalization with overlap
     ethr =  1.33E-03,  avg # of iterations =  2.9

     negative rho (up, down):  0.608E-02 0.155E-02

     total cpu time spent up to now is     2833.8 secs

     total energy              =   -1992.06991972 Ry
     Harris-Foulkes estimate   =   -1992.28234213 Ry
     estimated scf accuracy    <       1.67671759 Ry

     total magnetization       =    16.00 Bohr mag/cell
     absolute magnetization    =    23.55 Bohr mag/cell

     iteration # 10     ecut=    40.00 Ry     beta=0.70
     Davidson diagonalization with overlap
     ethr =  7.49E-04,  avg # of iterations =  4.3

     negative rho (up, down):  0.548E-02 0.154E-02

     total cpu time spent up to now is     3080.6 secs

     total energy              =   -1992.13753910 Ry
     Harris-Foulkes estimate   =   -1992.21180561 Ry
     estimated scf accuracy    <       1.09713032 Ry

     total magnetization       =    16.00 Bohr mag/cell
     absolute magnetization    =    24.21 Bohr mag/cell

     iteration # 11     ecut=    40.00 Ry     beta=0.70
     Davidson diagonalization with overlap
     ethr =  4.90E-04,  avg # of iterations =  2.8

     negative rho (up, down):  0.428E-02 0.184E-02

     total cpu time spent up to now is     3313.7 secs

     total energy              =   -1992.14705292 Ry
     Harris-Foulkes estimate   =   -1992.18527270 Ry
     estimated scf accuracy    <       0.35060149 Ry

     total magnetization       =    16.00 Bohr mag/cell
     absolute magnetization    =    24.47 Bohr mag/cell

     iteration # 12     ecut=    40.00 Ry     beta=0.70
     Davidson diagonalization with overlap
     ethr =  1.57E-04,  avg # of iterations =  5.4

     negative rho (up, down):  0.481E-02 0.163E-02

     total cpu time spent up to now is     3579.2 secs

     total energy              =   -1992.12887950 Ry
     Harris-Foulkes estimate   =   -1992.18989175 Ry
     estimated scf accuracy    <       0.44311315 Ry

     total magnetization       =    16.00 Bohr mag/cell
     absolute magnetization    =    23.96 Bohr mag/cell

     iteration # 13     ecut=    40.00 Ry     beta=0.70
     Davidson diagonalization with overlap
     ethr =  1.57E-04,  avg # of iterations =  3.1

     negative rho (up, down):  0.514E-02 0.168E-02

     total cpu time spent up to now is     3803.3 secs

     total energy              =   -1992.15970244 Ry
     Harris-Foulkes estimate   =   -1992.18533177 Ry
     estimated scf accuracy    <       0.29886752 Ry

     total magnetization       =    16.00 Bohr mag/cell
     absolute magnetization    =    23.72 Bohr mag/cell

     iteration # 14     ecut=    40.00 Ry     beta=0.70
     Davidson diagonalization with overlap
     ethr =  1.33E-04,  avg # of iterations =  1.0

     negative rho (up, down):  0.529E-02 0.170E-02

     total cpu time spent up to now is     4024.6 secs

     total energy              =   -1992.16897815 Ry
     Harris-Foulkes estimate   =   -1992.17314978 Ry
     estimated scf accuracy    <       0.04853119 Ry

     total magnetization       =    16.00 Bohr mag/cell
     absolute magnetization    =    23.83 Bohr mag/cell

     iteration # 15     ecut=    40.00 Ry     beta=0.70
     Davidson diagonalization with overlap
     ethr =  2.17E-05,  avg # of iterations =  3.5

     negative rho (up, down):  0.520E-02 0.175E-02

     total cpu time spent up to now is     4266.4 secs

     total energy              =   -1992.17104488 Ry
     Harris-Foulkes estimate   =   -1992.17229131 Ry
     estimated scf accuracy    <       0.02666374 Ry

     total magnetization       =    16.00 Bohr mag/cell
     absolute magnetization    =    23.75 Bohr mag/cell

     iteration # 16     ecut=    40.00 Ry     beta=0.70
     Davidson diagonalization with overlap
     ethr =  1.19E-05,  avg # of iterations =  2.0

     negative rho (up, down):  0.521E-02 0.177E-02

     total cpu time spent up to now is     4491.3 secs

     total energy              =   -1992.17043844 Ry
     Harris-Foulkes estimate   =   -1992.17357646 Ry
     estimated scf accuracy    <       0.02279590 Ry

     total magnetization       =    16.00 Bohr mag/cell
     absolute magnetization    =    23.59 Bohr mag/cell

     iteration # 17     ecut=    40.00 Ry     beta=0.70
     Davidson diagonalization with overlap
     ethr =  1.02E-05,  avg # of iterations =  3.3

     negative rho (up, down):  0.549E-02 0.192E-02

     total cpu time spent up to now is     4729.1 secs

     total energy              =   -1992.17139219 Ry
     Harris-Foulkes estimate   =   -1992.17377896 Ry
     estimated scf accuracy    <       0.01709376 Ry

     total magnetization       =    16.00 Bohr mag/cell
     absolute magnetization    =    23.52 Bohr mag/cell

     iteration # 18     ecut=    40.00 Ry     beta=0.70
     Davidson diagonalization with overlap
     ethr =  7.63E-06,  avg # of iterations =  1.8

     negative rho (up, down):  0.558E-02 0.194E-02

     total cpu time spent up to now is     4950.7 secs

     total energy              =   -1992.17191364 Ry
     Harris-Foulkes estimate   =   -1992.17375651 Ry
     estimated scf accuracy    <       0.01428034 Ry

     total magnetization       =    16.00 Bohr mag/cell
     absolute magnetization    =    23.51 Bohr mag/cell

     iteration # 19     ecut=    40.00 Ry     beta=0.70
     Davidson diagonalization with overlap
     ethr =  6.38E-06,  avg # of iterations =  1.0

     negative rho (up, down):  0.566E-02 0.199E-02

     total cpu time spent up to now is     5170.0 secs

     total energy              =   -1992.17275539 Ry
     Harris-Foulkes estimate   =   -1992.17316069 Ry
     estimated scf accuracy    <       0.00351928 Ry

     total magnetization       =    16.00 Bohr mag/cell
     absolute magnetization    =    23.50 Bohr mag/cell

     iteration # 20     ecut=    40.00 Ry     beta=0.70
     Davidson diagonalization with overlap
     ethr =  1.57E-06,  avg # of iterations =  4.8

     negative rho (up, down):  0.553E-02 0.194E-02

     total cpu time spent up to now is     5415.8 secs

     total energy              =   -1992.17282993 Ry
     Harris-Foulkes estimate   =   -1992.17343416 Ry
     estimated scf accuracy    <       0.00410274 Ry

     total magnetization       =    16.00 Bohr mag/cell
     absolute magnetization    =    23.46 Bohr mag/cell

     iteration # 21     ecut=    40.00 Ry     beta=0.70
     Davidson diagonalization with overlap
     ethr =  1.57E-06,  avg # of iterations =  1.0

     negative rho (up, down):  0.556E-02 0.195E-02

     total cpu time spent up to now is     5632.2 secs

     total energy              =   -1992.17310727 Ry
     Harris-Foulkes estimate   =   -1992.17330301 Ry
     estimated scf accuracy    <       0.00194178 Ry

     total magnetization       =    16.00 Bohr mag/cell
     absolute magnetization    =    23.41 Bohr mag/cell

     iteration # 22     ecut=    40.00 Ry     beta=0.70
     Davidson diagonalization with overlap
     ethr =  8.67E-07,  avg # of iterations =  1.0

     negative rho (up, down):  0.555E-02 0.194E-02

     total cpu time spent up to now is     5851.3 secs

     total energy              =   -1992.17318938 Ry
     Harris-Foulkes estimate   =   -1992.17326353 Ry
     estimated scf accuracy    <       0.00050068 Ry

     total magnetization       =    16.00 Bohr mag/cell
     absolute magnetization    =    23.38 Bohr mag/cell

     iteration # 23     ecut=    40.00 Ry     beta=0.70
     Davidson diagonalization with overlap
     ethr =  2.24E-07,  avg # of iterations =  1.0

     negative rho (up, down):  0.550E-02 0.192E-02

     total cpu time spent up to now is     6067.7 secs

     total energy              =   -1992.17323630 Ry
     Harris-Foulkes estimate   =   -1992.17325046 Ry
     estimated scf accuracy    <       0.00023195 Ry

     total magnetization       =    16.00 Bohr mag/cell
     absolute magnetization    =    23.37 Bohr mag/cell

     iteration # 24     ecut=    40.00 Ry     beta=0.70
     Davidson diagonalization with overlap
     ethr =  1.04E-07,  avg # of iterations =  1.0

     negative rho (up, down):  0.549E-02 0.192E-02

     total cpu time spent up to now is     6284.8 secs

     total energy              =   -1992.17324930 Ry
     Harris-Foulkes estimate   =   -1992.17329169 Ry
     estimated scf accuracy    <       0.00034761 Ry

     total magnetization       =    16.00 Bohr mag/cell
     absolute magnetization    =    23.36 Bohr mag/cell

     iteration # 25     ecut=    40.00 Ry     beta=0.70
     Davidson diagonalization with overlap
     ethr =  1.04E-07,  avg # of iterations =  1.0

     negative rho (up, down):  0.547E-02 0.191E-02

     total cpu time spent up to now is     6501.9 secs

     total energy              =   -1992.17326576 Ry
     Harris-Foulkes estimate   =   -1992.17328156 Ry
     estimated scf accuracy    <       0.00007186 Ry

     total magnetization       =    16.00 Bohr mag/cell
     absolute magnetization    =    23.34 Bohr mag/cell

     iteration # 26     ecut=    40.00 Ry     beta=0.70
     Davidson diagonalization with overlap
     ethr =  3.21E-08,  avg # of iterations =  1.4

     negative rho (up, down):  0.547E-02 0.191E-02

     total cpu time spent up to now is     6718.8 secs

     total energy              =   -1992.17325263 Ry
     Harris-Foulkes estimate   =   -1992.17330670 Ry
     estimated scf accuracy    <       0.00036739 Ry

     total magnetization       =    16.00 Bohr mag/cell
     absolute magnetization    =    23.35 Bohr mag/cell

     iteration # 27     ecut=    40.00 Ry     beta=0.70
     Davidson diagonalization with overlap
     ethr =  3.21E-08,  avg # of iterations =  1.3

     negative rho (up, down):  0.547E-02 0.191E-02

     total cpu time spent up to now is     6935.7 secs

     total energy              =   -1992.17328019 Ry
     Harris-Foulkes estimate   =   -1992.17328512 Ry
     estimated scf accuracy    <       0.00002864 Ry

     total magnetization       =    16.00 Bohr mag/cell
     absolute magnetization    =    23.32 Bohr mag/cell

     iteration # 28     ecut=    40.00 Ry     beta=0.70
     Davidson diagonalization with overlap
     ethr =  1.28E-08,  avg # of iterations =  1.0

     negative rho (up, down):  0.546E-02 0.191E-02

     total cpu time spent up to now is     7154.8 secs

     total energy              =   -1992.17327966 Ry
     Harris-Foulkes estimate   =   -1992.17328728 Ry
     estimated scf accuracy    <       0.00007103 Ry

     total magnetization       =    16.00 Bohr mag/cell
     absolute magnetization    =    23.33 Bohr mag/cell

     iteration # 29     ecut=    40.00 Ry     beta=0.70
     Davidson diagonalization with overlap
     ethr =  1.28E-08,  avg # of iterations =  1.5

     negative rho (up, down):  0.546E-02 0.191E-02

     total cpu time spent up to now is     7383.1 secs

     total energy              =   -1992.17326989 Ry
     Harris-Foulkes estimate   =   -1992.17330105 Ry
     estimated scf accuracy    <       0.00025814 Ry

     total magnetization       =    16.00 Bohr mag/cell
     absolute magnetization    =    23.32 Bohr mag/cell

     iteration # 30     ecut=    40.00 Ry     beta=0.70
     Davidson diagonalization with overlap
     ethr =  1.28E-08,  avg # of iterations =  1.5

     negative rho (up, down):  0.546E-02 0.191E-02

     total cpu time spent up to now is     7602.1 secs

     total energy              =   -1992.17328438 Ry
     Harris-Foulkes estimate   =   -1992.17328735 Ry
     estimated scf accuracy    <       0.00001779 Ry

     total magnetization       =    16.00 Bohr mag/cell
     absolute magnetization    =    23.32 Bohr mag/cell

     iteration # 31     ecut=    40.00 Ry     beta=0.70
     Davidson diagonalization with overlap
     ethr =  7.94E-09,  avg # of iterations =  1.0

     negative rho (up, down):  0.546E-02 0.191E-02

     total cpu time spent up to now is     7822.2 secs

     total energy              =   -1992.17328391 Ry
     Harris-Foulkes estimate   =   -1992.17328734 Ry
     estimated scf accuracy    <       0.00001588 Ry

     total magnetization       =    16.00 Bohr mag/cell
     absolute magnetization    =    23.32 Bohr mag/cell

     iteration # 32     ecut=    40.00 Ry     beta=0.70
     Davidson diagonalization with overlap
     ethr =  7.09E-09,  avg # of iterations =  1.3

     negative rho (up, down):  0.546E-02 0.191E-02

     total cpu time spent up to now is     8047.7 secs

     total energy              =   -1992.17328175 Ry
     Harris-Foulkes estimate   =   -1992.17329086 Ry
     estimated scf accuracy    <       0.00005798 Ry

     total magnetization       =    16.00 Bohr mag/cell
     absolute magnetization    =    23.32 Bohr mag/cell

     iteration # 33     ecut=    40.00 Ry     beta=0.70
     Davidson diagonalization with overlap
     ethr =  7.09E-09,  avg # of iterations =  1.0

     negative rho (up, down):  0.546E-02 0.191E-02

     total cpu time spent up to now is     8268.8 secs

     total energy              =   -1992.17328596 Ry
     Harris-Foulkes estimate   =   -1992.17328712 Ry
     estimated scf accuracy    <       0.00001202 Ry

     total magnetization       =    16.00 Bohr mag/cell
     absolute magnetization    =    23.32 Bohr mag/cell

     iteration # 34     ecut=    40.00 Ry     beta=0.70
     Davidson diagonalization with overlap
     ethr =  5.37E-09,  avg # of iterations =  1.0

     negative rho (up, down):  0.546E-02 0.191E-02

     total cpu time spent up to now is     8489.8 secs

     total energy              =   -1992.17328593 Ry
     Harris-Foulkes estimate   =   -1992.17328731 Ry
     estimated scf accuracy    <       0.00001078 Ry

     total magnetization       =    16.00 Bohr mag/cell
     absolute magnetization    =    23.32 Bohr mag/cell

     iteration # 35     ecut=    40.00 Ry     beta=0.70
     Davidson diagonalization with overlap
     ethr =  4.81E-09,  avg # of iterations =  1.0

     negative rho (up, down):  0.546E-02 0.191E-02

     total cpu time spent up to now is     8709.2 secs

     total energy              =   -1992.17328659 Ry
     Harris-Foulkes estimate   =   -1992.17328704 Ry
     estimated scf accuracy    <       0.00000361 Ry

     total magnetization       =    16.00 Bohr mag/cell
     absolute magnetization    =    23.32 Bohr mag/cell

     iteration # 36     ecut=    40.00 Ry     beta=0.70
     Davidson diagonalization with overlap
     ethr =  1.61E-09,  avg # of iterations =  1.0

     negative rho (up, down):  0.546E-02 0.191E-02

     total cpu time spent up to now is     8925.9 secs

     total energy              =   -1992.17328670 Ry
     Harris-Foulkes estimate   =   -1992.17328723 Ry
     estimated scf accuracy    <       0.00000257 Ry

     total magnetization       =    16.00 Bohr mag/cell
     absolute magnetization    =    23.32 Bohr mag/cell

     iteration # 37     ecut=    40.00 Ry     beta=0.70
     Davidson diagonalization with overlap
     ethr =  1.15E-09,  avg # of iterations =  1.0

     negative rho (up, down):  0.546E-02 0.191E-02

     total cpu time spent up to now is     9142.6 secs

     total energy              =   -1992.17328672 Ry
     Harris-Foulkes estimate   =   -1992.17328706 Ry
     estimated scf accuracy    <       0.00000142 Ry

     total magnetization       =    16.00 Bohr mag/cell
     absolute magnetization    =    23.32 Bohr mag/cell

     iteration # 38     ecut=    40.00 Ry     beta=0.70
     Davidson diagonalization with overlap
     ethr =  6.35E-10,  avg # of iterations =  1.5

     negative rho (up, down):  0.546E-02 0.191E-02

     total cpu time spent up to now is     9363.5 secs

     total energy              =   -1992.17328633 Ry
     Harris-Foulkes estimate   =   -1992.17328775 Ry
     estimated scf accuracy    <       0.00001476 Ry

     total magnetization       =    16.00 Bohr mag/cell
     absolute magnetization    =    23.32 Bohr mag/cell

     iteration # 39     ecut=    40.00 Ry     beta=0.70
     Davidson diagonalization with overlap
     ethr =  6.35E-10,  avg # of iterations =  1.0

     negative rho (up, down):  0.546E-02 0.191E-02

     total cpu time spent up to now is     9586.8 secs

     total energy              =   -1992.17328693 Ry
     Harris-Foulkes estimate   =   -1992.17328723 Ry
     estimated scf accuracy    <       0.00000190 Ry

     total magnetization       =    16.00 Bohr mag/cell
     absolute magnetization    =    23.32 Bohr mag/cell

     iteration # 40     ecut=    40.00 Ry     beta=0.70
     Davidson diagonalization with overlap
     ethr =  6.35E-10,  avg # of iterations =  1.0

     negative rho (up, down):  0.546E-02 0.191E-02

     total cpu time spent up to now is     9806.2 secs

     total energy              =   -1992.17328700 Ry
     Harris-Foulkes estimate   =   -1992.17328722 Ry
     estimated scf accuracy    <       0.00000197 Ry

     total magnetization       =    16.00 Bohr mag/cell
     absolute magnetization    =    23.32 Bohr mag/cell

     iteration # 41     ecut=    40.00 Ry     beta=0.70
     Davidson diagonalization with overlap
     ethr =  6.35E-10,  avg # of iterations =  1.0

     negative rho (up, down):  0.546E-02 0.191E-02

     total cpu time spent up to now is    10027.0 secs

     End of self-consistent calculation
 --- enter write_ns ---
 LDA+U parameters:
U( 2)     =  3.00000000
alpha( 2) =  0.00000000
atom    3   Tr[ns(na)] (up, down, total) =   3.60377  1.04078  4.64455
   spin  1
    eigenvalues: 
  0.457  0.502  0.718  0.944  0.983
    eigenvectors:
  0.000  0.220  0.003  0.000  0.778
  0.999  0.000  0.000  0.001  0.000
  0.000  0.000  0.996  0.000  0.004
  0.000  0.780  0.001  0.000  0.219
  0.001  0.000  0.000  0.999  0.000
    occupations:
  0.877 -0.000  0.014 -0.199 -0.000
 -0.000  0.457  0.000 -0.000 -0.011
  0.014  0.000  0.719 -0.007  0.002
 -0.199 -0.000 -0.007  0.607 -0.000
 -0.000 -0.011  0.002 -0.000  0.944
   spin  2
    eigenvalues: 
  0.092  0.113  0.137  0.334  0.365
    eigenvectors:
  0.758  0.000  0.022  0.000  0.219
  0.000  0.002  0.000  0.998  0.000
  0.025  0.000  0.975  0.000  0.000
  0.217  0.000  0.003  0.000  0.780
  0.000  0.998  0.000  0.002  0.000
    occupations:
  0.153 -0.000 -0.004  0.112 -0.000
 -0.000  0.334 -0.000 -0.000  0.010
 -0.004 -0.000  0.136  0.007  0.000
  0.112 -0.000  0.007  0.305 -0.000
 -0.000  0.010  0.000 -0.000  0.113
atomic mag. moment =     2.562995
atom    4   Tr[ns(na)] (up, down, total) =   3.49446  1.16508  4.65954
   spin  1
    eigenvalues: 
  0.486  0.537  0.616  0.869  0.987
    eigenvectors:
  0.001  0.993  0.000  0.001  0.004
  0.000  0.001  0.014  0.986  0.000
  0.000  0.000  0.986  0.013  0.000
  0.000  0.004  0.000  0.000  0.996
  0.999  0.001  0.000  0.000  0.000
    occupations:
  0.539 -0.010 -0.003  0.029  0.002
 -0.010  0.865  0.029  0.001  0.001
 -0.003  0.029  0.620  0.001  0.000
  0.029  0.001  0.001  0.985 -0.000
  0.002  0.001  0.000 -0.000  0.486
   spin  2
    eigenvalues: 
  0.102  0.132  0.167  0.366  0.399
    eigenvectors:
  0.003  0.002  0.000  0.001  0.994
  0.002  0.957  0.039  0.000  0.003
  0.000  0.039  0.961  0.000  0.000
  0.996  0.002  0.000  0.000  0.003
  0.000  0.000  0.000  0.999  0.001
    occupations:
  0.397  0.014  0.003 -0.015  0.001
  0.014  0.134 -0.007  0.000 -0.001
  0.003 -0.007  0.166  0.000 -0.000
 -0.015  0.000  0.000  0.102  0.000
  0.001 -0.001 -0.000  0.000  0.366
atomic mag. moment =     2.329382
atom    9   Tr[ns(na)] (up, down, total) =   3.46356  1.26855  4.73211
   spin  1
    eigenvalues: 
  0.529  0.539  0.719  0.818  0.857
    eigenvectors:
  0.002  0.170  0.002  0.823  0.003
  0.991  0.008  0.000  0.000  0.000
  0.000  0.000  0.997  0.003  0.000
  0.007  0.821  0.001  0.171  0.001
  0.000  0.000  0.000  0.004  0.996
    occupations:
  0.770  0.002 -0.005 -0.105  0.002
  0.002  0.530  0.002  0.000  0.000
 -0.005  0.002  0.720  0.001 -0.000
 -0.105  0.000  0.001  0.587 -0.001
  0.002  0.000 -0.000 -0.001  0.857
   spin  2
    eigenvalues: 
  0.156  0.157  0.162  0.396  0.398
    eigenvectors:
  0.568  0.287  0.000  0.001  0.143
  0.000  0.000  0.000  0.993  0.007
  0.335  0.665  0.000  0.000  0.000
  0.096  0.048  0.000  0.006  0.850
  0.000  0.000  1.000  0.000  0.000
    occupations:
  0.191 -0.000  0.000  0.085 -0.000
 -0.000  0.396 -0.000 -0.000  0.000
  0.000 -0.000  0.156 -0.000  0.000
  0.085 -0.000 -0.000  0.363  0.000
 -0.000  0.000  0.000  0.000  0.162
atomic mag. moment =     2.195014
atom   10   Tr[ns(na)] (up, down, total) =   3.63353  0.99504  4.62857
   spin  1
    eigenvalues: 
  0.465  0.474  0.805  0.907  0.982
    eigenvectors:
  0.997  0.001  0.000  0.000  0.002
  0.000  0.000  0.000  1.000  0.000
  0.000  0.000  1.000  0.000  0.000
  0.002  0.000  0.000  0.000  0.998
  0.001  0.999  0.000  0.000  0.000
    occupations:
  0.466  0.000  0.001  0.024 -0.000
  0.000  0.907 -0.002 -0.000 -0.000
  0.001 -0.002  0.805 -0.001 -0.000
  0.024 -0.000 -0.001  0.981  0.000
 -0.000 -0.000 -0.000  0.000  0.474
   spin  2
    eigenvalues: 
  0.091  0.134  0.141  0.286  0.343
    eigenvectors:
  0.007  0.000  0.000  0.993  0.000
  0.000  1.000  0.000  0.000  0.000
  0.000  0.000  1.000  0.000  0.000
  0.993  0.000  0.000  0.007  0.000
  0.000  0.000  0.000  0.000  1.000
    occupations:
  0.284 -0.000 -0.000 -0.016 -0.000
 -0.000  0.134  0.000 -0.000 -0.000
 -0.000  0.000  0.141  0.000  0.000
 -0.016 -0.000  0.000  0.093 -0.000
 -0.000 -0.000  0.000 -0.000  0.343
atomic mag. moment =     2.638489
atom   16   Tr[ns(na)] (up, down, total) =   3.60377  1.04078  4.64455
   spin  1
    eigenvalues: 
  0.457  0.502  0.718  0.944  0.983
    eigenvectors:
  0.000  0.220  0.003  0.000  0.778
  0.999  0.000  0.000  0.001  0.000
  0.000  0.000  0.996  0.000  0.004
  0.000  0.780  0.001  0.000  0.219
  0.001  0.000  0.000  0.999  0.000
    occupations:
  0.877 -0.000  0.014 -0.199 -0.000
 -0.000  0.457  0.000 -0.000 -0.011
  0.014  0.000  0.719 -0.007  0.002
 -0.199 -0.000 -0.007  0.607 -0.000
 -0.000 -0.011  0.002 -0.000  0.944
   spin  2
    eigenvalues: 
  0.092  0.113  0.137  0.334  0.365
    eigenvectors:
  0.758  0.000  0.022  0.000  0.219
  0.000  0.002  0.000  0.998  0.000
  0.025  0.000  0.975  0.000  0.000
  0.217  0.000  0.003  0.000  0.780
  0.000  0.998  0.000  0.002  0.000
    occupations:
  0.153 -0.000 -0.004  0.112 -0.000
 -0.000  0.334 -0.000 -0.000  0.010
 -0.004 -0.000  0.136  0.007  0.000
  0.112 -0.000  0.007  0.305 -0.000
 -0.000  0.010  0.000 -0.000  0.113
atomic mag. moment =     2.562995
atom   17   Tr[ns(na)] (up, down, total) =   3.49463  1.16513  4.65976
   spin  1
    eigenvalues: 
  0.486  0.537  0.616  0.869  0.987
    eigenvectors:
  0.001  0.993  0.000  0.001  0.004
  0.000  0.001  0.014  0.986  0.000
  0.000  0.000  0.986  0.013  0.000
  0.000  0.004  0.000  0.000  0.996
  0.999  0.001  0.000  0.000  0.000
    occupations:
  0.539 -0.010 -0.003  0.029  0.002
 -0.010  0.865  0.029  0.001  0.001
 -0.003  0.029  0.620  0.001  0.000
  0.029  0.001  0.001  0.985 -0.000
  0.002  0.001  0.000 -0.000  0.486
   spin  2
    eigenvalues: 
  0.102  0.132  0.167  0.366  0.399
    eigenvectors:
  0.003  0.002  0.000  0.001  0.994
  0.002  0.957  0.039  0.000  0.003
  0.000  0.039  0.961  0.000  0.000
  0.996  0.002  0.000  0.000  0.003
  0.000  0.000  0.000  0.999  0.001
    occupations:
  0.397  0.014  0.003 -0.015  0.001
  0.014  0.134 -0.007  0.000 -0.001
  0.003 -0.007  0.166  0.000 -0.000
 -0.015  0.000  0.000  0.102  0.000
  0.001 -0.001 -0.000  0.000  0.366
atomic mag. moment =     2.329498
atom   22   Tr[ns(na)] (up, down, total) =   3.46420  1.26869  4.73289
   spin  1
    eigenvalues: 
  0.529  0.539  0.719  0.819  0.857
    eigenvectors:
  0.002  0.170  0.002  0.823  0.003
  0.991  0.009  0.000  0.000  0.000
  0.000  0.000  0.997  0.003  0.000
  0.007  0.821  0.001  0.171  0.001
  0.000  0.000  0.000  0.003  0.997
    occupations:
  0.770  0.002 -0.005 -0.105  0.002
  0.002  0.530  0.002  0.000  0.000
 -0.005  0.002  0.720  0.001 -0.000
 -0.105  0.000  0.001  0.587 -0.001
  0.002  0.000 -0.000 -0.001  0.857
   spin  2
    eigenvalues: 
  0.156  0.157  0.162  0.396  0.398
    eigenvectors:
  0.569  0.286  0.000  0.001  0.143
  0.000  0.000  0.000  0.993  0.007
  0.335  0.665  0.000  0.000  0.000
  0.096  0.048  0.000  0.006  0.850
  0.000  0.000  1.000  0.000  0.000
    occupations:
  0.191 -0.000  0.000  0.085 -0.000
 -0.000  0.396 -0.000 -0.000  0.000
  0.000 -0.000  0.156 -0.000  0.000
  0.085 -0.000 -0.000  0.363  0.000
 -0.000  0.000  0.000  0.000  0.162
atomic mag. moment =     2.195505
atom   23   Tr[ns(na)] (up, down, total) =   3.63374  0.99510  4.62884
   spin  1
    eigenvalues: 
  0.465  0.474  0.805  0.907  0.982
    eigenvectors:
  0.997  0.001  0.000  0.000  0.002
  0.000  0.000  0.000  1.000  0.000
  0.000  0.000  1.000  0.000  0.000
  0.002  0.000  0.000  0.000  0.998
  0.001  0.999  0.000  0.000  0.000
    occupations:
  0.466  0.000  0.001  0.024 -0.000
  0.000  0.907 -0.002 -0.000 -0.000
  0.001 -0.002  0.805 -0.001 -0.000
  0.024 -0.000 -0.001  0.981  0.000
 -0.000 -0.000 -0.000  0.000  0.474
   spin  2
    eigenvalues: 
  0.091  0.134  0.141  0.286  0.343
    eigenvectors:
  0.007  0.000  0.000  0.993  0.000
  0.000  1.000  0.000  0.000  0.000
  0.000  0.000  1.000  0.000  0.000
  0.993  0.000  0.000  0.007  0.000
  0.000  0.000  0.000  0.000  1.000
    occupations:
  0.284 -0.000 -0.000 -0.016 -0.000
 -0.000  0.134  0.000 -0.000 -0.000
 -0.000  0.000  0.141  0.000  0.000
 -0.016 -0.000  0.000  0.093 -0.000
 -0.000 -0.000  0.000 -0.000  0.343
atomic mag. moment =     2.638648
N of occupied +U levels =  37.3308096
 --- exit write_ns ---

 ------ SPIN UP ------------


          k = 0.0000 0.0000 0.0000 ( 27003 PWs)   bands (ev):

   -75.2870 -75.2715 -75.1942 -75.1797 -75.1593 -75.1449 -75.1091 -75.0951
   -46.6687 -46.6537 -46.6391 -46.6170 -46.6064 -46.5993 -46.5772 -46.5396
   -46.5322 -46.5099 -46.5003 -46.4896 -46.4837 -46.4836 -46.4570 -46.4558
   -46.4461 -46.4400 -46.4198 -46.4017 -46.3771 -46.3570 -46.3155 -46.2775
   -21.3476 -20.7785 -20.6326 -20.4546 -20.1324 -19.9919 -19.7774 -19.7590
   -19.6913 -19.5850 -19.5250 -19.4493 -19.3901 -19.3004 -19.2138 -19.1273
   -18.9776 -18.8027  -9.5876  -9.2987  -9.1750  -8.9521  -8.8421  -8.4180
    -8.1819  -8.1148  -8.0341  -7.9725  -7.8857  -7.7659  -7.6382  -7.4610
    -7.3291  -7.1456  -7.0825  -7.0498  -6.9394  -6.9130  -6.9006  -6.8159
    -6.6377  -6.3815  -6.2971  -5.9562  -5.8812  -5.7739  -5.6212  -5.4622
    -5.4381  -5.3948  -5.3029  -5.2507  -5.2370  -5.1062  -5.0971  -4.9354
    -4.7982  -4.6831  -4.5268  -4.3891  -4.3710  -4.2530  -4.1779  -4.1530
    -4.1463  -4.0510  -4.0104  -3.9161  -3.8699  -3.8484  -3.7487  -3.7024
    -3.6331  -3.5320  -3.4562  -3.3964  -3.3194  -3.2146  -3.0063  -2.9393
    -2.7383  -2.5304  -2.4166  -2.4008  -2.1379  -2.0059  -1.9849  -1.9652
    -1.8821  -1.8704  -1.5145  -1.4294  -1.2950  -1.0139  -0.9387  -0.7635
    -0.6262  -0.1686   0.4586   0.7253   1.2596   1.3209   1.3818   1.3834
     1.5799   1.5943   1.6432   1.9348   2.1330   2.1625   2.3024   2.5163
     3.1907   3.2819   3.6752   4.1604   4.6660   5.4547   6.0174   6.3623
     6.7998   6.9969   7.0893   7.1310   7.2118   7.2162   7.3113   7.5095
     7.5929   7.5931   7.7508   8.0310   8.0460   8.1261   8.1428   8.3017
     8.4423   8.4978   8.5803   8.7450   8.7463   8.8978   9.2004   9.2139
     9.3526   9.3611   9.3835   9.5120   9.6662   9.8528   9.8583   9.9467
    10.1395  10.2536  10.2743  10.4856  10.6359  10.6425  11.0210  11.0357
    11.1174  11.1865  11.2778  11.3121  11.3484  11.3579  11.5017  11.5180
    11.6270  11.7739  11.8617  11.9788  12.0015  12.0222  12.0304  12.1367
    12.2698  12.2902  12.3464  12.4097  12.4352  12.4423  12.5031  12.6523
    12.6877  12.9063  12.9285  12.9458  12.9730  13.0327  13.1294  13.1337
    13.2839  13.2985  13.4305  13.4351  13.5306  13.6788  13.7235  13.8080
    13.8617  14.0301  14.0562  14.2804  14.2829  14.4436  14.4844  14.5258
    14.8116  14.8175  14.8746  14.8939  14.9321  14.9789  14.9967  15.0626
    15.2368  15.2735  15.4288  15.4336  15.4590  15.5614  15.7107  15.8355
    16.0891  16.1041  16.2111  16.3324  16.4210  16.4485  16.7003  16.7541
    16.9193  16.9330  17.0163  17.0511  17.1336  17.1505  17.3190  17.5587
    17.5691  17.6364  17.7561  17.8275  17.9145  18.0638  18.0978  18.1786
    18.2974  18.3559  18.4855  18.4964  18.7059  18.7440  18.8059  18.8367
    18.9559  18.9791  19.0342  19.2003  19.2344  19.3149  19.3370  19.4294
    19.5084  19.6141  19.6758  19.7385  19.7583  19.8726  19.9158  19.9454
    20.0808  20.1963  20.2007  20.3567  20.3771  20.4505  20.4935  20.5032
    20.5929  20.8085  20.9648  21.0234  21.0676  21.1488  21.1740  21.1812
    21.2891  21.3265  21.3287  21.4622

          k = 0.0000 0.2341 0.0000 ( 27088 PWs)   bands (ev):

   -75.2870 -75.2715 -75.1941 -75.1797 -75.1593 -75.1450 -75.1091 -75.0952
   -46.6688 -46.6539 -46.6392 -46.6152 -46.6063 -46.6007 -46.5772 -46.5345
   -46.5340 -46.5098 -46.5006 -46.4907 -46.4836 -46.4821 -46.4624 -46.4530
   -46.4465 -46.4390 -46.4198 -46.4036 -46.3769 -46.3569 -46.3155 -46.2776
   -21.2734 -20.6871 -20.6288 -20.4650 -20.1582 -19.9880 -19.8387 -19.7536
   -19.7122 -19.6951 -19.5613 -19.4246 -19.3764 -19.3108 -19.2360 -19.1271
   -18.9800 -18.7989  -9.4821  -9.1284  -9.0041  -8.9524  -8.8340  -8.5748
    -8.4400  -8.0740  -7.9404  -7.8598  -7.7450  -7.6075  -7.3673  -7.3293
    -7.2571  -7.0492  -7.0324  -7.0286  -6.9378  -6.8080  -6.7625  -6.6240
    -6.5243  -6.4781  -6.4022  -6.1250  -6.0992  -5.9858  -5.8262  -5.8039
    -5.5021  -5.3902  -5.3776  -5.3412  -5.2975  -5.1696  -5.0643  -5.0217
    -4.9055  -4.8183  -4.5966  -4.5343  -4.5187  -4.4538  -4.3873  -4.2624
    -4.2108  -4.1879  -3.9189  -3.8251  -3.7314  -3.6848  -3.6327  -3.4505
    -3.4013  -3.3929  -3.3479  -3.3264  -3.1413  -3.0934  -3.0344  -2.8585
    -2.8444  -2.6857  -2.6391  -2.5036  -2.4843  -2.2988  -2.1677  -1.9076
    -1.8502  -1.5321  -1.3964  -1.3578  -1.1884  -1.0954  -1.0285  -0.9464
    -0.5615   0.0827   0.3829   0.4859   0.5108   1.0436   1.3937   1.5939
     1.7062   1.7706   2.0084   2.1871   2.3223   2.3225   2.4264   2.4823
     3.4598   3.5145   3.9256   4.3866   4.8977   5.3602   5.5781   5.7884
     6.0129   6.2867   6.4936   6.9771   7.0286   7.1180   7.3660   7.3697
     7.6026   7.7436   7.8446   8.2400   8.2658   8.2990   8.3542   8.5169
     8.5848   8.7698   8.8246   8.9420   9.0266   9.2253   9.2281   9.5021
     9.5152   9.6219   9.6425   9.7853  10.0186  10.0283  10.0752  10.1113
    10.1151  10.2162  10.2447  10.2495  10.3451  10.4001  10.5915  10.6367
    10.7157  10.7875  10.9882  11.0464  11.1917  11.3132  11.3442  11.3549
    11.4779  11.4938  11.5636  11.6670  11.7604  11.8428  11.8923  12.2761
    12.3030  12.3608  12.5025  12.5936  12.6808  12.7140  12.8351  12.8442
    12.8580  13.0240  13.2086  13.3435  13.3442  13.5340  13.6098  13.6380
    13.6648  13.7946  13.9355  13.9528  14.0539  14.0754  14.1826  14.2100
    14.3312  14.3352  14.3763  14.4691  14.5225  14.5281  14.6001  14.6206
    14.8508  14.8604  14.9730  15.0322  15.0620  15.0630  15.1722  15.2167
    15.3471  15.3673  15.4477  15.4613  15.5324  15.5854  15.7766  15.8452
    15.8731  15.8913  16.0066  16.0699  16.1531  16.2095  16.4027  16.4280
    16.5596  16.5843  16.8135  16.8886  16.9334  17.0567  17.0884  17.2032
    17.2550  17.3117  17.4107  17.4988  17.5928  17.6487  17.7460  17.9973
    18.0146  18.1044  18.1381  18.1424  18.3903  18.5737  18.5999  18.6551
    18.8562  18.9476  18.9572  18.9803  19.0381  19.1522  19.1850  19.2004
    19.2784  19.5538  19.6155  19.6616  19.7504  19.9165  19.9341  19.9570
    20.0814  20.1398  20.1728  20.1883  20.2292  20.3024  20.3874  20.4527
    20.4824  20.6524  20.6541  20.7320  20.7767  20.8041  20.8929  20.9281
    20.9784  21.0838  21.2147  21.2268

          k = 0.0000-0.4682 0.0000 ( 27136 PWs)   bands (ev):

   -75.2869 -75.2715 -75.1941 -75.1798 -75.1593 -75.1450 -75.1091 -75.0952
   -46.6689 -46.6540 -46.6392 -46.6135 -46.6060 -46.6021 -46.5772 -46.5367
   -46.5274 -46.5096 -46.5010 -46.4916 -46.4836 -46.4806 -46.4691 -46.4505
   -46.4468 -46.4379 -46.4197 -46.4055 -46.3766 -46.3568 -46.3156 -46.2778
   -21.1827 -20.6250 -20.6130 -20.4135 -20.2202 -19.9841 -19.9684 -19.7525
   -19.7450 -19.7274 -19.5800 -19.4323 -19.3783 -19.3491 -19.2148 -19.1268
   -18.9825 -18.7969  -9.4204  -9.2641  -8.8142  -8.7920  -8.6713  -8.5475
    -8.4716  -8.0752  -7.7826  -7.7675  -7.5327  -7.3878  -7.3391  -7.3379
    -7.1427  -7.0418  -6.9171  -6.9166  -6.8963  -6.7631  -6.7383  -6.7283
    -6.5844  -6.4199  -6.4102  -6.3165  -6.1592  -6.0900  -5.9864  -5.7812
    -5.7064  -5.6174  -5.6069  -5.5563  -5.5156  -5.2816  -5.1037  -5.1011
    -5.0273  -4.8070  -4.6940  -4.6532  -4.6499  -4.3918  -4.3252  -4.2833
    -4.0041  -3.9859  -3.8403  -3.8252  -3.6683  -3.6511  -3.4647  -3.4296
    -3.3627  -3.3397  -3.3080  -3.2833  -3.2384  -3.2124  -3.2121  -3.0745
    -2.9677  -2.8525  -2.7060  -2.4120  -2.3890  -2.0883  -2.0488  -1.7856
    -1.7430  -1.6777  -1.6162  -1.5499  -1.1505  -1.1076  -1.0488  -0.8794
    -0.5053   0.0484   0.0749   0.2993   0.5113   1.3184   1.4056   1.5960
     1.5987   1.8423   1.9216   2.2194   2.2420   2.3342   2.7849   2.8777
     3.9313   4.0346   4.4034   4.5160   4.6587   4.8314   5.0993   5.3419
     5.6913   5.9664   6.4201   6.7589   7.0500   7.1736   7.2739   7.4112
     7.7154   7.8783   7.9105   7.9780   8.0547   8.2466   8.5850   8.7445
     8.8927   8.9565   9.0151   9.0369   9.0453   9.1172   9.2158   9.3958
     9.4182   9.4823   9.5441   9.5819   9.6589   9.7741   9.8476   9.9428
    10.0426  10.1984  10.2612  10.3673  10.5958  10.6523  10.8046  10.9416
    10.9580  10.9923  11.0102  11.1194  11.1558  11.4121  11.5340  11.5755
    11.7246  11.8812  11.9441  11.9489  12.0201  12.1209  12.2035  12.3757
    12.3961  12.4440  12.5914  12.6676  12.7061  12.7861  12.8162  12.8937
    13.0052  13.1249  13.2692  13.2922  13.3667  13.3794  13.5086  13.5233
    13.5833  13.6639  13.7436  13.8425  13.9894  14.0949  14.1885  14.2228
    14.3241  14.3475  14.4331  14.5139  14.5906  14.5961  14.6373  14.7119
    14.7837  14.8048  14.9542  15.0185  15.2140  15.3084  15.3179  15.3934
    15.4519  15.4812  15.5899  15.7750  15.8807  15.9342  15.9495  15.9607
    15.9758  16.2574  16.2731  16.4117  16.5122  16.5636  16.6134  16.6844
    16.7864  16.8480  16.8578  16.9564  16.9947  17.0165  17.0610  17.0961
    17.2537  17.3883  17.4004  17.5353  17.5837  17.6860  17.7558  17.8126
    17.8758  17.9039  18.0570  18.0856  18.2087  18.2106  18.2348  18.3244
    18.4129  18.4463  18.4510  18.4583  18.5235  18.5621  18.7149  18.7804
    18.8045  18.9696  18.9826  19.1276  19.1383  19.2270  19.2359  19.3822
    19.5512  19.6476  19.8090  19.8977  19.9579  20.0443  20.1034  20.1504
    20.2299  20.3085  20.3340  20.3559  20.5327  20.6422  20.7360  20.7630
    20.8285  20.8684  20.9499  21.0709

          k = 0.2500 0.0000 0.0000 ( 27178 PWs)   bands (ev):

   -75.2846 -75.2736 -75.1918 -75.1816 -75.1570 -75.1468 -75.1069 -75.0970
   -46.6516 -46.6435 -46.6406 -46.6144 -46.6026 -46.6018 -46.5809 -46.5343
   -46.5152 -46.5122 -46.5068 -46.5029 -46.4890 -46.4601 -46.4561 -46.4546
   -46.4427 -46.4237 -46.4164 -46.3982 -46.3822 -46.3808 -46.3404 -46.3019
   -21.2281 -20.7006 -20.6735 -20.3678 -20.1628 -20.0977 -19.8575 -19.8117
   -19.7189 -19.5181 -19.5117 -19.4249 -19.3661 -19.3200 -19.2410 -19.1514
   -18.9938 -18.8391  -9.3823  -9.1022  -9.0148  -8.9124  -8.6196  -8.2625
    -8.1104  -8.0503  -8.0149  -7.9843  -7.9264  -7.8238  -7.7972  -7.4588
    -7.3848  -7.3354  -7.1871  -7.0838  -7.0345  -6.9509  -6.9239  -6.7392
    -6.7022  -6.2950  -6.1846  -6.1079  -5.8876  -5.8006  -5.6222  -5.6012
    -5.5675  -5.4132  -5.3927  -5.3759  -5.2871  -5.0465  -5.0022  -4.9604
    -4.9025  -4.8388  -4.7383  -4.5919  -4.4474  -4.3908  -4.3672  -4.2933
    -4.2577  -4.2001  -4.0880  -4.0125  -3.8311  -3.8196  -3.6155  -3.4977
    -3.4899  -3.4065  -3.3886  -3.3087  -3.1375  -3.1331  -2.8274  -2.7072
    -2.5892  -2.4760  -2.4001  -2.3791  -2.2003  -2.1076  -2.0014  -1.8851
    -1.7621  -1.6926  -1.6136  -1.3885  -1.3809  -1.1187  -1.0204  -0.8693
    -0.4326  -0.0926   0.5885   0.8264   1.1737   1.2995   1.3185   1.3644
     1.3829   1.6808   1.7034   1.7366   1.8626   1.9117   2.1561   2.5234
     3.5133   3.5865   3.9707   4.4499   4.9758   5.5623   5.6732   5.7297
     6.1733   6.3074   6.5695   6.7026   7.0865   7.3683   7.3925   7.4824
     7.5338   7.6177   7.7944   7.8679   8.0381   8.0469   8.3287   8.4305
     8.6192   8.7242   8.8489   9.0185   9.0506   9.2142   9.3519   9.3984
     9.4769   9.7103   9.7175   9.8115   9.9022   9.9202   9.9863   9.9980
    10.0280  10.1637  10.2439  10.3871  10.4856  10.5279  10.5298  10.6458
    10.8839  10.9194  10.9202  11.1912  11.2760  11.3090  11.3887  11.4230
    11.4562  11.5915  11.6252  11.7551  11.7716  11.8588  12.0362  12.1807
    12.2868  12.4105  12.5184  12.5438  12.6309  12.6873  12.7863  12.8522
    12.8984  13.0119  13.1220  13.2522  13.2731  13.3426  13.4302  13.4922
    13.6445  13.7407  13.8580  13.9429  13.9983  14.1467  14.3438  14.3904
    14.4351  14.4587  14.4796  14.5065  14.5960  14.6420  14.7789  14.7806
    14.8144  14.9310  14.9623  15.1393  15.2263  15.2635  15.2939  15.3226
    15.4356  15.5352  15.6362  15.7253  15.7430  15.8111  15.9654  16.0149
    16.0775  16.2627  16.2829  16.3721  16.4449  16.5201  16.5819  16.7207
    16.7757  16.8717  16.9353  16.9365  17.0992  17.1788  17.2474  17.2542
    17.4445  17.5068  17.5283  17.5581  17.6082  17.7057  17.7559  17.8455
    17.9703  17.9792  18.0141  18.2750  18.4354  18.5101  18.6196  18.7512
    18.7665  18.8639  18.9052  18.9631  19.0088  19.0788  19.1881  19.2551
    19.4997  19.5279  19.5631  19.6426  19.6441  19.6834  19.7035  19.7584
    19.8957  19.9048  20.0261  20.0984  20.1530  20.2496  20.3331  20.4278
    20.4570  20.5604  20.6050  20.6488  20.7185  20.7710  20.8064  21.0309
    21.0708  21.1365  21.1908  21.2253

          k = 0.2500 0.2341 0.0000 ( 27132 PWs)   bands (ev):

   -75.2846 -75.2736 -75.1918 -75.1816 -75.1570 -75.1469 -75.1068 -75.0970
   -46.6517 -46.6432 -46.6409 -46.6129 -46.6026 -46.6024 -46.5809 -46.5295
   -46.5147 -46.5122 -46.5067 -46.5035 -46.4921 -46.4610 -46.4590 -46.4518
   -46.4429 -46.4236 -46.4158 -46.3997 -46.3820 -46.3808 -46.3403 -46.3019
   -21.1643 -20.6930 -20.5902 -20.3584 -20.1336 -20.1254 -19.8277 -19.7943
   -19.7629 -19.6431 -19.5770 -19.4578 -19.3873 -19.3395 -19.2429 -19.1457
   -18.9910 -18.8351  -9.3066  -8.9840  -8.8038  -8.7634  -8.6174  -8.3649
    -8.2443  -7.9776  -7.9112  -7.8981  -7.8017  -7.7567  -7.6250  -7.3672
    -7.3038  -7.2242  -7.1873  -7.0865  -6.9552  -6.9535  -6.7085  -6.7018
    -6.6055  -6.3422  -6.2588  -6.1757  -5.9040  -5.8809  -5.8167  -5.8005
    -5.7273  -5.6800  -5.6009  -5.4354  -5.4111  -5.3111  -5.2466  -5.2278
    -5.0722  -4.9215  -4.8209  -4.6148  -4.5051  -4.4572  -4.4193  -4.3329
    -4.2350  -4.0882  -4.0845  -3.9202  -3.8032  -3.7678  -3.5351  -3.4418
    -3.2255  -3.1928  -3.1828  -3.1087  -3.0927  -2.9075  -2.8245  -2.7346
    -2.6927  -2.6287  -2.5426  -2.4547  -2.2764  -2.2554  -2.1250  -1.8916
    -1.6442  -1.6141  -1.4870  -1.4566  -1.2511  -1.2183  -1.1650  -1.0278
    -0.3405   0.1166   0.4736   0.5924   0.6562   1.0635   1.3033   1.3168
     1.4518   1.6456   1.9113   1.9661   1.9823   2.3864   2.4207   2.5047
     3.7602   3.8070   4.2133   4.6699   5.1853   5.6193   5.7564   5.8304
     5.8543   6.0813   6.2972   6.3964   6.5987   6.7616   6.8023   7.1778
     7.3173   7.4975   7.6612   7.9076   7.9148   8.1593   8.2425   8.3542
     8.5381   8.6717   8.8417   8.9122   9.0900   9.1620   9.1825   9.3927
     9.4082   9.5792   9.6695   9.7968   9.9530  10.0256  10.1069  10.2317
    10.3405  10.3625  10.4640  10.5595  10.7350  10.8703  10.9889  11.0141
    11.0890  11.2905  11.3523  11.3988  11.4696  11.5249  11.6230  11.6973
    11.7864  11.7908  12.0085  12.0504  12.1211  12.2267  12.2459  12.4701
    12.5300  12.5468  12.6933  12.7310  12.7926  12.8334  12.8648  12.9320
    12.9807  13.0722  13.1580  13.1863  13.3687  13.4499  13.4598  13.6304
    13.7224  13.7263  13.8518  13.8762  13.9563  14.0401  14.1643  14.2255
    14.3610  14.3950  14.4478  14.4896  14.5650  14.6915  14.6977  14.7472
    14.9106  15.0230  15.0357  15.0623  15.1283  15.2138  15.4073  15.4143
    15.5104  15.5384  15.7204  15.7530  15.7716  15.8802  15.9793  16.0259
    16.1192  16.1685  16.2213  16.3360  16.4037  16.4754  16.6292  16.6779
    16.7385  16.7392  16.7851  16.9157  16.9862  17.0716  17.1715  17.1828
    17.2642  17.3162  17.3763  17.4417  17.4790  17.5117  17.6105  17.6197
    17.7611  17.8250  17.9162  17.9348  18.0851  18.1130  18.1801  18.1811
    18.2762  18.4430  18.4493  18.5543  18.6578  18.7347  18.8295  18.8332
    18.9569  18.9695  19.1213  19.1871  19.2959  19.3129  19.3775  19.4166
    19.4902  19.5227  19.6101  19.6401  19.7099  19.7945  19.8431  19.9715
    19.9753  20.1457  20.2517  20.3134  20.3900  20.4151  20.4603  20.6310
    20.6444  20.7414  20.9011  20.9571

          k = 0.2500-0.4682 0.0000 ( 27150 PWs)   bands (ev):

   -75.2845 -75.2736 -75.1918 -75.1817 -75.1570 -75.1469 -75.1068 -75.0970
   -46.6518 -46.6430 -46.6414 -46.6115 -46.6032 -46.6024 -46.5809 -46.5234
   -46.5180 -46.5122 -46.5066 -46.5029 -46.4909 -46.4678 -46.4580 -46.4509
   -46.4431 -46.4235 -46.4153 -46.4012 -46.3814 -46.3808 -46.3403 -46.3020
   -21.0904 -20.6848 -20.4901 -20.3519 -20.1226 -20.0995 -19.9240 -19.8182
   -19.7201 -19.6815 -19.6562 -19.5346 -19.4147 -19.3840 -19.2171 -19.1416
   -18.9887 -18.8328  -9.2575  -9.0685  -8.5810  -8.5143  -8.4746  -8.3448
    -8.2586  -8.0079  -7.9001  -7.8130  -7.5229  -7.4532  -7.3036  -7.2798
    -7.2667  -7.1498  -7.0855  -7.0464  -7.0260  -6.9365  -6.7434  -6.7412
    -6.5878  -6.4492  -6.3755  -6.2880  -6.2454  -6.0800  -5.9972  -5.9463
    -5.8440  -5.8149  -5.6754  -5.6165  -5.5911  -5.4532  -5.3866  -5.2555
    -5.1770  -5.1676  -4.8374  -4.7626  -4.6560  -4.6304  -4.3106  -4.1225
    -4.0424  -3.9890  -3.9067  -3.8694  -3.7393  -3.6194  -3.5889  -3.3138
    -3.2958  -3.1775  -3.1262  -3.0949  -3.0821  -2.9453  -2.9314  -2.8938
    -2.7386  -2.7037  -2.4775  -2.3278  -2.3224  -1.9782  -1.9360  -1.7546
    -1.7165  -1.6877  -1.5751  -1.5168  -1.4657  -1.2042  -1.2024  -1.0216
    -0.2624   0.1645   0.1666   0.2896   0.6540   1.1839   1.3163   1.3329
     1.3723   1.3988   1.9478   2.1217   2.1470   2.4140   2.6785   2.7982
     4.1817   4.3034   4.6823   4.7952   4.9323   5.1160   5.3745   5.6332
     5.9637   6.0540   6.1022   6.2730   6.7032   6.7477   6.9660   7.0759
     7.1044   7.2728   7.3635   7.4764   7.7643   7.7692   8.0078   8.2194
     8.3949   8.3958   8.6145   8.6166   8.9222   9.0472   9.2794   9.3009
     9.3462   9.5137   9.7756   9.8802   9.9249  10.1155  10.1913  10.3586
    10.4723  10.6437  10.8783  10.9803  11.1837  11.2984  11.3232  11.4549
    11.5630  11.6575  11.7170  11.7461  11.8545  11.8593  11.8906  11.9921
    12.0286  12.2383  12.2733  12.2954  12.4471  12.4860  12.6278  12.6357
    12.7109  12.7933  12.8402  12.8446  12.9203  12.9642  13.0593  13.1478
    13.1872  13.1915  13.4104  13.4895  13.5179  13.5767  13.6571  13.6711
    13.7242  13.8361  13.8611  13.9473  13.9744  14.0154  14.1618  14.1956
    14.2015  14.2796  14.3441  14.6201  14.6640  14.7205  14.8055  14.8371
    14.8716  14.9153  14.9383  15.0061  15.0836  15.1558  15.1684  15.2393
    15.2477  15.2919  15.3356  15.4383  15.4868  15.5111  15.5873  15.6710
    15.7444  15.7744  15.8511  15.8762  16.0903  16.2204  16.2434  16.2488
    16.4049  16.4218  16.5260  16.5944  16.6620  16.7871  16.8517  16.9973
    17.0462  17.1678  17.4007  17.4331  17.4958  17.5353  17.6152  17.6846
    17.8174  17.8282  17.9898  18.0353  18.0716  18.1922  18.2364  18.2954
    18.3275  18.3928  18.4915  18.5125  18.5883  18.6497  18.6844  18.7765
    18.8007  18.8540  18.9271  18.9574  19.2155  19.2960  19.3063  19.3264
    19.3674  19.3716  19.5014  19.5485  19.5890  19.7194  19.7298  19.8058
    19.8643  19.8816  19.8971  19.9802  20.0109  20.1545  20.2269  20.3201
    20.5394  20.5684  20.5999  20.6771

          k =-0.5000 0.0000 0.0000 ( 27158 PWs)   bands (ev):

   -75.2795 -75.2785 -75.1867 -75.1863 -75.1520 -75.1515 -75.1017 -75.1017
   -46.6467 -46.6462 -46.6087 -46.6077 -46.5960 -46.5953 -46.5737 -46.5731
   -46.5213 -46.5210 -46.5041 -46.5037 -46.4558 -46.4558 -46.4412 -46.4408
   -46.4343 -46.4343 -46.3999 -46.3994 -46.3896 -46.3891 -46.3599 -46.3599
   -20.9415 -20.9415 -20.4324 -20.4324 -20.1397 -20.1397 -19.9819 -19.9818
   -19.5960 -19.5959 -19.3703 -19.3702 -19.3227 -19.3226 -19.3051 -19.3050
   -18.9268 -18.9267  -8.9826  -8.9825  -8.6055  -8.6054  -8.5982  -8.5981
    -8.1176  -8.1176  -7.9943  -7.9943  -7.8510  -7.8509  -7.7667  -7.7667
    -7.4041  -7.4040  -7.3018  -7.3017  -6.8183  -6.8182  -6.6582  -6.6582
    -6.3684  -6.3684  -6.2543  -6.2543  -6.0442  -6.0442  -5.9843  -5.9842
    -5.6813  -5.6812  -5.2601  -5.2601  -5.1839  -5.1838  -5.0033  -5.0032
    -4.9307  -4.9306  -4.8679  -4.8678  -4.5645  -4.5645  -4.4844  -4.4844
    -4.2590  -4.2589  -3.8488  -3.8488  -3.5799  -3.5798  -3.5385  -3.5385
    -3.3482  -3.3480  -3.2916  -3.2915  -3.1171  -3.1171  -2.8795  -2.8794
    -2.4328  -2.4326  -2.2672  -2.2671  -2.0659  -2.0658  -1.9291  -1.9290
    -1.6724  -1.6721  -1.5627  -1.5626  -1.1929  -1.1928  -1.1188  -1.1186
    -0.1507  -0.1504   0.8625   0.8626   1.1105   1.1106   1.3318   1.3320
     1.4250   1.4252   1.5271   1.5274   1.7590   1.7595   2.3361   2.3363
     4.3480   4.3480   4.3995   4.3995   4.8174   4.8174   5.2690   5.2690
     5.8303   5.8303   6.4863   6.4863   7.0530   7.0530   7.5505   7.5506
     8.1173   8.1173   8.1572   8.1573   8.2636   8.2637   8.4200   8.4200
     8.6214   8.6214   8.6746   8.6747   8.8434   8.8435   9.1329   9.1330
     9.2409   9.2410   9.4652   9.4652   9.7669   9.7669  10.0345  10.0346
    10.1765  10.1765  10.3721  10.3722  10.5472  10.5472  10.7980  10.7981
    11.0071  11.0072  11.0596  11.0596  11.2432  11.2432  11.5832  11.5833
    11.7727  11.7728  11.8660  11.8660  12.1583  12.1583  12.3961  12.3961
    12.5301  12.5302  12.7300  12.7300  12.8467  12.8468  13.0475  13.0476
    13.2175  13.2176  13.4985  13.4985  13.6118  13.6118  13.6582  13.6582
    13.9259  13.9260  13.9909  13.9910  14.1579  14.1579  14.2773  14.2773
    14.5520  14.5520  14.6258  14.6258  14.7991  14.7991  14.8674  14.8674
    14.9546  14.9547  15.0715  15.0716  15.1939  15.1939  15.4723  15.4723
    15.5939  15.5939  15.6599  15.6599  15.7985  15.7986  16.2779  16.2779
    16.5281  16.5281  16.5997  16.5997  16.7196  16.7197  16.9576  16.9577
    17.0957  17.0957  17.2475  17.2475  17.2965  17.2965  17.4413  17.4413
    17.5150  17.5150  17.5356  17.5356  17.7094  17.7094  17.8000  17.8000
    17.8914  17.8914  18.0394  18.0394  18.1709  18.1710  18.4346  18.4346
    18.5290  18.5291  18.6806  18.6806  18.9169  18.9169  18.9674  18.9674
    18.9980  18.9980  19.0560  19.0560  19.2228  19.2228  19.4676  19.4676
    19.5786  19.5786  19.9114  19.9114  19.9332  19.9332  20.1888  20.1888
    20.2278  20.2278  20.3488  20.3488  20.3711  20.3711  20.5036  20.5036
    20.6030  20.6030  20.6161  20.6161

          k =-0.5000 0.2341 0.0000 ( 27132 PWs)   bands (ev):

   -75.2795 -75.2784 -75.1867 -75.1863 -75.1520 -75.1515 -75.1017 -75.1017
   -46.6468 -46.6463 -46.6081 -46.6071 -46.5960 -46.5953 -46.5738 -46.5732
   -46.5187 -46.5172 -46.5040 -46.5035 -46.4652 -46.4602 -46.4392 -46.4368
   -46.4343 -46.4333 -46.3996 -46.3990 -46.3903 -46.3897 -46.3598 -46.3597
   -20.9085 -20.9076 -20.3684 -20.3675 -20.0871 -20.0851 -20.0160 -20.0143
   -19.6019 -19.5995 -19.5332 -19.5321 -19.4023 -19.3983 -19.2284 -19.2283
[...]
    -4.6199  -4.6197  -4.4202  -4.4201  -4.2043  -4.2039  -4.1080  -4.1078
    -3.9190  -3.9190  -3.5565  -3.5564  -3.3878  -3.3877  -3.2358  -3.2358
     0.6027   0.6031   0.8929   0.8932   0.9347   0.9353   0.9958   0.9964
     1.0478   1.0487   1.1527   1.1541   1.2214   1.2219   1.2853   1.2857
     1.4790   1.4804   1.5604   1.5606   1.6655   1.6655   1.9278   1.9279
     1.9765   1.9766   2.3893   2.3894   2.5926   2.5932   2.7995   2.8006
     3.1116   3.1116   3.1458   3.1461   3.3306   3.3320   3.6154   3.6154
     4.3927   4.3927   4.5393   4.5394   4.8881   4.8882   5.3420   5.3421
     5.9145   5.9145   6.5728   6.5728   7.1297   7.1297   7.5898   7.5899
     8.1738   8.1741   8.1968   8.1969   8.2889   8.2889   8.4503   8.4503
     8.6756   8.6757   8.7142   8.7143   8.8946   8.8946   9.1745   9.1746
     9.3161   9.3162   9.5275   9.5276   9.8078   9.8078  10.1102  10.1103
    10.2548  10.2549  10.3655  10.3656  10.6031  10.6031  10.9113  10.9113
    11.1232  11.1234  11.2757  11.2757  11.4889  11.4890  11.7344  11.7345
    11.8840  11.8842  12.0000  12.0001  12.2884  12.2885  12.5388  12.5388
    12.7288  12.7289  12.8549  12.8550  13.0289  13.0290  13.1531  13.1533
    13.3280  13.3281  13.5901  13.5901  13.7194  13.7195  13.7602  13.7602
    14.0834  14.0835  14.1338  14.1345  14.3300  14.3300  14.4098  14.4098
    14.7687  14.7690  14.8564  14.8564  15.0007  15.0008  15.0636  15.0637
    15.2125  15.2126  15.2634  15.2635  15.3933  15.3935  15.7330  15.7331
    15.8261  15.8262  16.0973  16.0981  16.1253  16.1253  16.4775  16.4777
    16.6812  16.6814  16.8235  16.8236  16.9310  16.9311  17.1845  17.1845
    17.2919  17.2920  17.4040  17.4043  17.4942  17.4943  17.5401  17.5401
    17.5923  17.5924  17.6250  17.6251  17.7788  17.7788  17.9428  17.9429
    18.0165  18.0165  18.1122  18.1123  18.2353  18.2353  18.5533  18.5536
    18.6551  18.6552  18.7824  18.7825  19.0774  19.0775  19.1235  19.1236
    19.1936  19.1937  19.2434  19.2434  19.3802  19.3805  19.6653  19.6654
    19.7216  19.7216  19.9816  19.9816  20.0916  20.0919  20.2842  20.2843
    20.3246  20.3247  20.4291  20.4292  20.4584  20.4585  20.5900  20.5901
    20.6857  20.6857  20.7494  20.7495

          k =-0.5000 0.2341 0.0000 ( 27132 PWs)   bands (ev):

   -72.8823 -72.8783 -72.6959 -72.6958 -72.4163 -72.4162 -72.2862 -72.2862
   -44.3435 -44.3419 -44.2631 -44.2628 -44.2393 -44.2351 -44.1471 -44.1417
   -44.0906 -44.0890 -43.9827 -43.9802 -43.9073 -43.9073 -43.8616 -43.8615
   -43.7952 -43.7943 -43.5710 -43.5708 -43.5463 -43.5462 -43.5134 -43.5132
   -20.9911 -20.9897 -20.5536 -20.5524 -20.3183 -20.3162 -20.1830 -20.1818
   -19.8376 -19.8362 -19.7662 -19.7641 -19.7170 -19.7127 -19.5206 -19.5205
   -19.3547 -19.3546  -8.5557  -8.5456  -7.8051  -7.7645  -7.6823  -7.6762
    -7.5478  -7.5284  -7.2562  -7.2370  -7.1034  -7.1006  -6.9666  -6.9601
    -6.8691  -6.8659  -6.5109  -6.4952  -6.2819  -6.2766  -6.2194  -6.1422
    -6.0823  -6.0196  -5.7536  -5.7398  -5.6805  -5.6374  -5.5027  -5.4981
    -5.2608  -5.2551  -5.0580  -5.0508  -4.9395  -4.9376  -4.8880  -4.8507
    -4.7680  -4.7435  -4.4487  -4.4448  -4.1592  -4.1224  -3.9763  -3.9385
    -3.8698  -3.8552  -3.5725  -3.5558  -3.4582  -3.4418  -3.1865  -3.1320
     0.5369   0.5420   0.8127   0.8259   0.9601   0.9602   1.0192   1.0343
     1.0737   1.0843   1.2728   1.2748   1.3310   1.3438   1.3665   1.3758
     1.4475   1.4484   1.5725   1.5828   1.8083   1.8230   1.8699   1.8780
     2.1211   2.1215   2.4356   2.4427   2.5802   2.5812   2.6897   2.6962
     2.8158   2.8160   2.9262   2.9375   3.5276   3.5285   3.7181   3.7252
     4.6115   4.6164   4.7358   4.7360   5.1106   5.1116   5.5509   5.5511
     6.0545   6.0658   6.3975   6.4193   6.6994   6.7071   6.9752   6.9810
     7.1404   7.1534   7.5063   7.5291   7.6882   7.7198   8.1691   8.2038
     8.5167   8.5418   8.6755   8.6771   9.0321   9.0635   9.3625   9.3653
     9.6386   9.6880   9.9014   9.9346  10.3194  10.3299  10.4801  10.4865
    10.6202  10.6216  10.8665  10.8701  10.9802  10.9914  11.2197  11.2213
    11.4532  11.4747  11.5695  11.5733  11.7383  11.7559  11.9357  11.9503
    12.2359  12.2417  12.4090  12.4159  12.5647  12.5667  12.7533  12.8015
    12.8897  12.9000  13.0123  13.0666  13.1685  13.1869  13.3946  13.3981
    13.4840  13.5439  13.6625  13.7264  13.8691  13.8960  14.0017  14.0111
    14.1202  14.1500  14.3046  14.3126  14.4196  14.4512  14.5169  14.5315
    14.6224  14.6238  14.7871  14.7908  14.9034  14.9279  14.9943  15.0002
    15.3013  15.3180  15.3943  15.4234  15.6084  15.6238  15.7708  15.7862
    15.8322  15.8369  15.8831  15.8887  16.0150  16.0281  16.0925  16.0962
    16.1825  16.1919  16.3103  16.3107  16.4939  16.5301  16.5702  16.5928
    16.6844  16.6896  16.7646  16.8022  16.8414  16.8506  16.9524  16.9815
    17.2063  17.2327  17.2791  17.3066  17.3810  17.4110  17.5238  17.5298
    17.6760  17.6826  17.8386  17.8479  17.8775  17.9411  18.0049  18.0165
    18.2599  18.2652  18.4091  18.4104  18.4882  18.4908  18.6092  18.6241
    18.9423  18.9528  19.0591  19.0674  19.2422  19.2777  19.5035  19.5120
    19.6282  19.6304  19.6731  19.6919  19.8423  19.8450  19.9066  19.9113
    19.9911  20.0118  20.1193  20.1314  20.1809  20.1937  20.4076  20.4149
    20.4745  20.4959  20.7013  20.7258

          k =-0.5000-0.4682 0.0000 ( 27168 PWs)   bands (ev):

   -72.8823 -72.8783 -72.6959 -72.6958 -72.4163 -72.4162 -72.2862 -72.2862
   -44.3433 -44.3417 -44.2631 -44.2628 -44.2393 -44.2351 -44.1472 -44.1417
   -44.0867 -44.0867 -43.9856 -43.9855 -43.9073 -43.9073 -43.8616 -43.8615
   -43.7938 -43.7938 -43.5713 -43.5713 -43.5461 -43.5461 -43.5133 -43.5132
   -20.9345 -20.9345 -20.4363 -20.4363 -20.3700 -20.3700 -20.1612 -20.1612
   -19.9867 -19.9866 -19.7762 -19.7762 -19.7602 -19.7602 -19.4970 -19.4969
   -19.3507 -19.3507  -8.5212  -8.5212  -7.6772  -7.6771  -7.3890  -7.3889
    -7.1726  -7.1723  -7.0701  -7.0700  -6.9505  -6.9505  -6.8664  -6.8662
    -6.7572  -6.7571  -6.5397  -6.5397  -6.4418  -6.4418  -6.3864  -6.3862
    -6.1934  -6.1930  -6.0414  -6.0409  -5.8102  -5.8101  -5.6455  -5.6454
    -5.4354  -5.4354  -5.3389  -5.3389  -5.0316  -5.0314  -4.9112  -4.9111
    -4.8012  -4.8010  -4.5131  -4.5124  -4.0748  -4.0747  -3.7770  -3.7769
    -3.7424  -3.7423  -3.6378  -3.6377  -3.5165  -3.5164  -3.0999  -3.0999
     0.4780   0.4785   0.7073   0.7077   0.9653   0.9654   1.0840   1.0847
     1.1139   1.1142   1.3455   1.3469   1.3594   1.3608   1.5735   1.5736
     1.6003   1.6008   1.6981   1.6981   1.9370   1.9371   1.9435   1.9437
     2.0777   2.0778   2.2710   2.2715   2.3493   2.3494   2.4941   2.4949
     2.7300   2.7301   3.0391   3.0397   3.6477   3.6478   3.7194   3.7205
     5.0591   5.0592   5.1158   5.1159   5.5143   5.5144   5.6661   5.6662
     5.8001   5.8001   5.9813   5.9813   6.2361   6.2362   6.4991   6.4991
     6.8250   6.8251   7.1642   7.1642   7.5634   7.5634   7.9790   7.9790
     8.2640   8.2640   8.6721   8.6722   9.1013   9.1013   9.2248   9.2249
     9.4351   9.4353   9.8063   9.8063  10.1294  10.1294  10.7550  10.7551
    10.9509  10.9509  11.1712  11.1712  11.2573  11.2574  11.7855  11.7856
    12.1913  12.1914  12.4302  12.4302  12.5953  12.5953  12.7863  12.7864
    12.8553  12.8557  12.9847  12.9848  13.0653  13.0655  13.2303  13.2303
    13.4992  13.4997  13.5101  13.5102  13.5635  13.5635  13.6210  13.6212
    13.6859  13.6859  13.7785  13.7787  13.9203  13.9204  14.0117  14.0117
    14.0976  14.0977  14.2539  14.2539  14.4516  14.4517  14.5781  14.5783
    14.6127  14.6130  14.6805  14.6806  14.7223  14.7223  14.7748  14.7748
    14.8937  14.8938  15.0587  15.0587  15.1859  15.1860  15.2282  15.2282
    15.2805  15.2806  15.3845  15.3846  15.5902  15.5902  15.6155  15.6155
    15.7019  15.7026  15.8847  15.8848  15.9228  15.9229  16.0609  16.0609
    16.2242  16.2243  16.3796  16.3800  16.6142  16.6143  16.7632  16.7632
    16.8497  16.8498  16.9837  16.9839  17.0189  17.0190  17.0925  17.0926
    17.2085  17.2085  17.4811  17.4811  17.7794  17.7795  17.8591  17.8592
    17.9603  17.9603  18.0440  18.0440  18.1863  18.1865  18.3601  18.3601
    18.7248  18.7248  18.7793  18.7793  18.9988  18.9989  19.0621  19.0622
    19.1173  19.1176  19.4135  19.4136  19.7382  19.7382  20.0961  20.0963
    20.1505  20.1506  20.3068  20.3068  20.3409  20.3410  20.7523  20.7523
    20.9438  20.9438  21.1626  21.1627

          k =-0.2500 0.2341 0.0000 ( 27132 PWs)   bands (ev):

   -72.8863 -72.8740 -72.7013 -72.6900 -72.4215 -72.4106 -72.2917 -72.2803
   -44.3482 -44.3373 -44.2700 -44.2573 -44.2473 -44.2293 -44.2128 -44.1027
   -44.0787 -44.0722 -43.9845 -43.9785 -43.9170 -43.8983 -43.8695 -43.8611
   -43.8530 -43.7265 -43.6170 -43.5837 -43.5794 -43.5572 -43.4765 -43.4470
   -21.2612 -20.7757 -20.7485 -20.5686 -20.2939 -20.2866 -20.0476 -20.0128
   -19.9966 -19.8555 -19.8354 -19.6983 -19.6660 -19.6646 -19.5103 -19.4990
   -19.4030 -19.2994  -8.7255  -8.4913  -8.1486  -7.9618  -7.9307  -7.5744
    -7.4377  -7.3593  -7.3404  -7.2992  -7.1428  -7.0888  -6.9701  -6.9273
    -6.7713  -6.7648  -6.5947  -6.4875  -6.4710  -6.3928  -6.3220  -6.2159
    -6.0483  -5.9112  -5.8184  -5.7685  -5.5395  -5.4199  -5.3566  -5.3332
    -5.2815  -5.1291  -5.1041  -5.0819  -4.9994  -4.9460  -4.8572  -4.5960
    -4.5899  -4.4673  -4.3226  -4.2642  -4.1571  -4.1560  -4.0469  -3.9988
    -3.9502  -3.8034  -3.7280  -3.6891  -3.5068  -3.2798  -3.2755  -3.0226
     0.5156   0.6423   0.6703   0.8233   0.8429   0.8948   0.9776   1.0102
     1.0301   1.1363   1.1408   1.2198   1.2410   1.2887   1.3610   1.4801
     1.5102   1.5378   1.6529   1.7100   1.7650   1.8587   1.8802   2.0135
     2.0258   2.0526   2.1585   2.3978   2.5009   2.5040   2.7656   2.8021
     2.9607   3.0887   3.1530   3.2080   3.3291   3.6560   3.6936   3.7191
     3.8451   4.0004   4.2918   4.7570   5.2799   5.6762   5.7910   5.9069
     5.9822   6.1436   6.3378   6.4551   6.6828   6.8266   6.8414   7.2045
     7.3758   7.5587   7.7423   7.9418   7.9794   8.2082   8.2983   8.4289
     8.6032   8.7301   8.9454   8.9580   9.2043   9.2358   9.2456   9.4078
     9.4809   9.6796   9.7912   9.8679  10.0442  10.0629  10.2328  10.2457
    10.4058  10.4674  10.6157  10.7080  10.7814  10.9342  11.0316  11.0930
    11.1636  11.3205  11.4906  11.5306  11.6045  11.6096  11.7776  11.8213
    11.8833  11.9926  12.0745  12.1482  12.2800  12.3006  12.3878  12.5591
    12.6681  12.6972  12.7959  12.9209  12.9268  12.9636  12.9649  13.0981
    13.1021  13.1944  13.2550  13.3055  13.5149  13.6451  13.6734  13.7503
    13.8425  13.8909  13.9437  14.0147  14.0814  14.2671  14.3070  14.4176
    14.5037  14.5192  14.5594  14.6512  14.7437  14.8359  14.8736  15.0219
    15.1268  15.2598  15.2929  15.3929  15.4131  15.4488  15.5764  15.5853
    15.7508  15.7925  15.8704  15.9485  15.9928  16.0630  16.1499  16.1649
    16.2517  16.2697  16.3859  16.5586  16.5774  16.6276  16.7961  16.8443
    16.8647  16.9296  16.9898  17.0999  17.1851  17.2073  17.3761  17.3888
    17.4217  17.4317  17.5480  17.6262  17.6518  17.7249  17.7539  17.8490
    17.9289  18.0063  18.0323  18.1568  18.2302  18.2881  18.3534  18.3736
    18.4293  18.6074  18.6258  18.7527  18.7810  18.8651  18.9474  19.0247
    19.1073  19.1475  19.2899  19.3323  19.3922  19.4223  19.5073  19.5893
    19.6342  19.6564  19.7675  19.8001  19.8398  19.9536  20.1064  20.1092
    20.2316  20.3470  20.4091  20.4718  20.5036  20.6616  20.6682  20.8212
    20.8367  20.9109  21.0856  21.1077

     the spin up/dw Fermi energies are    -1.9164   -2.8662 ev

!    total energy              =   -1992.17889708 Ry
     Harris-Foulkes estimate   =   -1992.17889708 Ry
     estimated scf accuracy    <          4.5E-09 Ry

     The total energy is the sum of the following terms:

     one-electron contribution =  -23383.81139124 Ry
     hartree contribution      =   11708.98720993 Ry
     xc contribution           =    -315.22338295 Ry
     ewald contribution        =    9996.43632290 Ry
     Hubbard energy            =       1.43118608 Ry
     smearing contrib. (-TS)   =       0.00115820 Ry

     total magnetization       =    16.00 Bohr mag/cell
     absolute magnetization    =    23.73 Bohr mag/cell

     convergence has been achieved in  18 iterations

     Forces acting on atoms (Ry/au):


     negative rho (up, down):  0.549E-02 0.185E-02
     atom    1 type  1   force =    -0.00546517   -0.01315651    0.00016504
     atom    2 type  1   force =     0.00002674    0.00982276   -0.00013814
     atom    3 type  2   force =    -0.00026125   -0.00140462    0.00030821
     atom    4 type  2   force =     0.00381388    0.00660326   -0.00030832
     atom    5 type  1   force =     0.00147916    0.00567880    0.00014779
     atom    6 type  1   force =     0.00066984   -0.00553330    0.00006425
     atom    7 type  1   force =    -0.00003736   -0.00174926    0.00096749
     atom    8 type  1   force =    -0.00044851   -0.00009156    0.00020496
     atom    9 type  2   force =     0.00075327   -0.00067325    0.00094870
     atom   10 type  2   force =    -0.00002145   -0.00042688   -0.00089013
     atom   11 type  1   force =    -0.00033165   -0.04583427   -0.00040403
     atom   12 type  1   force =     0.00047927    0.04642030   -0.00041641
     atom   13 type  1   force =    -0.00065694    0.00025650   -0.00036383
     atom   14 type  1   force =    -0.00547011   -0.01315961    0.00016368
     atom   15 type  1   force =     0.00002294    0.00982113   -0.00013756
     atom   16 type  2   force =    -0.00025512   -0.00140611    0.00030747
     atom   17 type  2   force =     0.00381619    0.00660611   -0.00030861
     atom   18 type  1   force =     0.00148234    0.00568457    0.00014820
     atom   19 type  1   force =     0.00067313   -0.00553795    0.00006316
     atom   20 type  1   force =    -0.00003316   -0.00175032    0.00096508
     atom   21 type  1   force =    -0.00056804   -0.00009547    0.00020247
     atom   22 type  2   force =     0.00074982   -0.00067063    0.00074720
     atom   23 type  2   force =     0.00001727   -0.00042460   -0.00089092
     atom   24 type  1   force =    -0.00032513   -0.04587999   -0.00042077
     atom   25 type  1   force =     0.00048312    0.04646592   -0.00043276
     atom   26 type  1   force =    -0.00095135    0.00026552   -0.00036214
     atom   27 type  3   force =    -0.00001634    0.00003866   -0.00071217
     atom   28 type  3   force =    -0.00001685    0.00003971   -0.00071298
     atom   29 type  3   force =     0.00019385    0.00004479    0.00054808
     atom   30 type  3   force =     0.00019761    0.00004631    0.00054700

     Total force =     0.002861     Total SCF correction =     0.000321
     SCF correction compared to forces is large: reduce conv_thr to get better values

     bfgs converged in  13 scf cycles and  12 bfgs steps
     (criteria: energy < 0.10E-03, force < 0.10E-02)

     End of BFGS Geometry Optimization

     Final energy   =   -1992.1788970794 Ry
Begin final coordinates

ATOMIC_POSITIONS (crystal)
O0       0.000000000   0.000000000   0.379527814    0   0   1
O0       0.000000000   0.500000000   0.397319147    0   0   1
Cr1      0.250000000   0.500000000   0.448682785    0   0   1
Cr1      0.000000000   0.000000000   0.451925934    0   0   1
O0       0.250000000   0.800000000   0.450602442    0   0   1
O0       0.250000000   0.200000000   0.450699534    0   0   1
O0       0.000000000   0.500000000   0.497160760    0   0   1
O0       0.000000000   0.000000000   0.525531543    0   0   1
Cr1      0.250000000   0.000000000   0.578708992    0   0   1
Cr1      0.000000000   0.500000000   0.566447223    0   0   1
O0       0.250000000   0.700000000   0.575807778    0   0   1
O0       0.250000000   0.300000000   0.575906155    0   0   1
O0       0.000000000   0.000000000   0.620812169    0   0   1
O0       0.500000000   0.000000000   0.379527881    0   0   1
O0       0.500000000   0.500000000   0.397319094    0   0   1
Cr1      0.750000000   0.500000000   0.448682565    0   0   1
Cr1      0.500000000   0.000000000   0.451925931    0   0   1
O0       0.750000000   0.800000000   0.450602475    0   0   1
O0       0.750000000   0.200000000   0.450699446    0   0   1
O0       0.500000000   0.500000000   0.497160681    0   0   1
O0       0.500000000   0.000000000   0.525531684    0   0   1
Cr1      0.750000000   0.000000000   0.578681722    0   0   1
Cr1      0.500000000   0.500000000   0.566447209    0   0   1
O0       0.750000000   0.700000000   0.575805350    0   0   1
O0       0.750000000   0.300000000   0.575903757    0   0   1
O0       0.500000000   0.000000000   0.620812534    0   0   1
H2      -0.000583102   0.640474399   0.379148129
H2       0.499416578   0.640474358   0.379148113
H2       0.157742094   0.029827791   0.366765482
H2       0.657742173   0.029827074   0.366765671
End final coordinates



     init_run     :    109.92s CPU    115.68s WALL (       1 calls)
     electrons    :  66727.90s CPU  69606.83s WALL (      13 calls)
     update_pot   :    214.16s CPU    224.94s WALL (      12 calls)
     forces       :   2562.37s CPU   2668.27s WALL (      13 calls)

     Called by init_run:
     wfcinit      :     45.15s CPU     48.01s WALL (       1 calls)
     potinit      :      7.71s CPU      8.07s WALL (       1 calls)

     Called by electrons:
     c_bands      :  36841.28s CPU  38251.11s WALL (     295 calls)
     sum_band     :  15338.16s CPU  16006.24s WALL (     295 calls)
     v_of_rho     :    605.89s CPU    682.58s WALL (     303 calls)
     newd         :  13827.51s CPU  13893.96s WALL (     303 calls)
     mix_rho      :    112.74s CPU    116.17s WALL (     295 calls)

     Called by c_bands:
     init_us_2    :     98.00s CPU     98.85s WALL (    3150 calls)
     cegterg      :  35903.25s CPU  36761.02s WALL (    1475 calls)

     Called by *egterg:
     h_psi        :  20958.23s CPU  21437.58s WALL (    4171 calls)
     s_psi        :   2113.80s CPU   2142.86s WALL (    4301 calls)
     g_psi        :     47.31s CPU     47.35s WALL (    2691 calls)
     cdiaghg      :   3428.29s CPU   3437.25s WALL (    4081 calls)

     Called by h_psi:
     add_vuspsi   :   2067.13s CPU   2099.25s WALL (    4171 calls)
     vhpsi        :   2140.16s CPU   2158.62s WALL (    4171 calls)

     General routines
     calbec       :   4809.57s CPU   4859.12s WALL (   29102 calls)
     fft          :    704.01s CPU    876.79s WALL (    9550 calls)
     ffts         :      8.59s CPU      9.07s WALL (    1196 calls)
     fftw         :  11469.99s CPU  11977.42s WALL ( 2500910 calls)
     interpolate  :     85.02s CPU     86.29s WALL (    1196 calls)
     davcio       :      0.19s CPU     38.92s WALL (    3215 calls)

     Parallel routines
     fft_scatter  :   4393.48s CPU   5051.77s WALL ( 2511656 calls)
     Hubbard U routines
     new_ns       :    437.14s CPU    463.28s WALL (     295 calls)
     vhpsi        :   2140.16s CPU   2158.62s WALL (    4171 calls)
     force_hub    :    619.63s CPU    639.61s WALL (      13 calls)

     PWSCF        :    19h30m CPU       20h21m WALL


   This run was terminated on:  15:44:25  10May2014            

=------------------------------------------------------------------------------=
   JOB DONE.
=------------------------------------------------------------------------------=
---------------------------------------
Running PBS batch system epilogue script
Job id: 340916.audhumbla.fysik.dtu.dk
Username: zhonxu
Groupname: campgst
Jobname: CrO2/Eads-2-layers/bare-U-3.0
Sessionid: 32599
Resources limits: neednodes=2:ppn=8:xeon8,nodes=2:ppn=8:xeon8,walltime=48:00:00
Resources used: cput=325:22:48,mem=16877356kb,vmem=20982720kb,walltime=20:21:19
Queuename: verylong
Accounting:
This job has allocated the following 16 nodes:
a102 a102 a102 a102 a102 a102 a102 a102 a101 a101 a101 a101 a101 a101 a101 a101
Finished epilogue job 340916.audhumbla.fysik.dtu.dk for zhonxu
