
     Program PWSCF v.5.0.2 (svn rev. 9656) starts on 11Feb2014 at 20:53: 5 

     This program is part of the open-source Quantum ESPRESSO suite
     for quantum simulation of materials; please cite
         "P. Giannozzi et al., J. Phys.:Condens. Matter 21 395502 (2009);
          URL http://www.quantum-espresso.org", 
     in publications or presentations arising from this work. More details at
     http://www.quantum-espresso.org/quote.php

     Parallel version (MPI), running on    16 processors
     R & G space division:  proc/nbgrp/npool/nimage =      16

     Current dimensions of program PWSCF are:
     Max number of different atomic species (ntypx) = 10
     Max number of k-points (npk) =  40000
     Max angular momentum in pseudopotentials (lmaxx) =  3
     Reading input from alpha_-0.07/alpha_-0.07.in
Warning: card &IONS ignored
Warning: card / ignored
Warning: card &CELL ignored
Warning: card / ignored

     Subspace diagonalization in iterative solution of the eigenvalue problem:
     a serial algorithm will be used


     Parallelization info
     --------------------
     sticks:   dense  smooth     PW     G-vecs:    dense   smooth      PW
     Min         748     238     67                43352     7842    1157
     Max         749     239     69                43355     7866    1158
     Sum       11977    3817   1085               693671   125609   18517



     bravais-lattice index     =            0
     lattice parameter (alat)  =      17.3477  a.u.
     unit-cell volume          =    3673.7913 (a.u.)^3
     number of atoms/cell      =           48
     number of atomic types    =            3
     number of electrons       =       448.00
     number of Kohn-Sham states=          672
     kinetic-energy cutoff     =      40.0000  Ry
     charge density cutoff     =     500.0000  Ry
     convergence threshold     =      1.0E-06
     mixing beta               =       0.7000
     number of iterations used =            8  plain     mixing
     Exchange-correlation      = SLA  PW   PBE  PBE ( 1 4 3 4 0)
     EXX-fraction              =        0.00

     celldm(1)=  17.347686  celldm(2)=   0.000000  celldm(3)=   0.000000
     celldm(4)=   0.000000  celldm(5)=   0.000000  celldm(6)=   0.000000

     crystal axes: (cart. coord. in units of alat)
               a(1) = (   1.000000   0.000000   0.000000 )  
               a(2) = (   0.000000   1.000000   0.000000 )  
               a(3) = (   0.000000   0.000000   0.703704 )  

     reciprocal axes: (cart. coord. in units 2 pi/alat)
               b(1) = (  1.000000  0.000000  0.000000 )  
               b(2) = (  0.000000  1.000000  0.000000 )  
               b(3) = (  0.000000  0.000000  1.421053 )  


     PseudoPot. # 1 for Pt read from file:
     /home/camp/zhonxu/pseudo/pt_pbe_v1.uspp.F.UPF
     MD5 check sum: 4c71d6ad5ef119f1eb26a4d0b7884226
     Pseudo is Ultrasoft + core correction, Zval = 16.0
     Generated by new atomic code, or converted to UPF format
     Using radial grid of  985 points,  6 beta functions with: 
                l(1) =   0
                l(2) =   0
                l(3) =   1
                l(4) =   1
                l(5) =   2
                l(6) =   2
     Q(r) pseudized with  8 coefficients,  rinner =    1.300   1.300   1.300
                                                       1.300   1.300

     PseudoPot. # 2 for Pt read from file:
     /home/camp/zhonxu/pseudo/pt_pbe_v1.uspp.F.UPF
     MD5 check sum: 4c71d6ad5ef119f1eb26a4d0b7884226
     Pseudo is Ultrasoft + core correction, Zval = 16.0
     Generated by new atomic code, or converted to UPF format
     Using radial grid of  985 points,  6 beta functions with: 
                l(1) =   0
                l(2) =   0
                l(3) =   1
                l(4) =   1
                l(5) =   2
                l(6) =   2
     Q(r) pseudized with  8 coefficients,  rinner =    1.300   1.300   1.300
                                                       1.300   1.300

     PseudoPot. # 3 for O  read from file:
     /home/camp/zhonxu/pseudo/o_pbe_v1.01.uspp.F.UPF
     MD5 check sum: 2bcb18d16ea4b960afae9ec6d52f22d2
     Pseudo is Ultrasoft + core correction, Zval =  6.0
     Generated by new atomic code, or converted to UPF format
     Using radial grid of  737 points,  5 beta functions with: 
                l(1) =   0
                l(2) =   0
                l(3) =   1
                l(4) =   1
                l(5) =   2
     Q(r) pseudized with  8 coefficients,  rinner =    0.900   0.900   0.900
                                                       0.900   0.900

     atomic species   valence    mass     pseudopotential
        Pt0           16.00   195.08000     Pt( 1.00)
        Pt1           16.00   195.08000     Pt( 1.00)
        O2             6.00    15.99940     O ( 1.00)

     Starting magnetic structure 
     atomic species   magnetization
        Pt0          0.000
        Pt1          0.000
        O2           0.000


     Simplified LDA+U calculation (l_max = 2) with parameters (eV):
     atomic species    L          U    alpha       J0     beta
        Pt0            2     0.0000  -0.0700   0.0000   0.0000
        Pt1            2     0.0000   0.0000   0.0000   0.0000
        O2             1     0.0000   0.0000   0.0000   0.0000



      8 Sym. Ops., with inversion, found



   Cartesian axes

     site n.     atom                  positions (alat units)
         1           Pt0 tau(   1) = (   0.0000000   0.0000000   0.0000000  )
         2           Pt1 tau(   2) = (   0.2500000   0.2500000   0.1759259  )
         3           Pt1 tau(   3) = (   0.0000000   0.0000000   0.3518519  )
         4           Pt1 tau(   4) = (   0.2500000   0.2500000   0.5277778  )
         5           Pt1 tau(   5) = (   0.0000000   0.5000000   0.0000000  )
         6           Pt1 tau(   6) = (   0.2500000   0.7500000   0.1759259  )
         7           Pt1 tau(   7) = (   0.0000000   0.5000000   0.3518519  )
         8           Pt1 tau(   8) = (   0.2500000   0.7500000   0.5277778  )
         9           Pt1 tau(   9) = (   0.5000000   0.0000000   0.0000000  )
        10           Pt1 tau(  10) = (   0.7500000   0.2500000   0.1759259  )
        11           Pt1 tau(  11) = (   0.5000000   0.0000000   0.3518519  )
        12           Pt1 tau(  12) = (   0.7500000   0.2500000   0.5277778  )
        13           Pt1 tau(  13) = (   0.5000000   0.5000000   0.0000000  )
        14           Pt1 tau(  14) = (   0.7500000   0.7500000   0.1759259  )
        15           Pt1 tau(  15) = (   0.5000000   0.5000000   0.3518519  )
        16           Pt1 tau(  16) = (   0.7500000   0.7500000   0.5277778  )
        17           O2  tau(  17) = (   0.1550000   0.1550000   0.0000000  )
        18           O2  tau(  18) = (  -0.1550000  -0.1550000   0.0000000  )
        19           O2  tau(  19) = (   0.4050000   0.0950000   0.1759259  )
        20           O2  tau(  20) = (   0.0950000   0.4050000   0.1759259  )
        21           O2  tau(  21) = (   0.1550000   0.1550000   0.3518519  )
        22           O2  tau(  22) = (  -0.1550000  -0.1550000   0.3518519  )
        23           O2  tau(  23) = (   0.4050000   0.0950000   0.5277778  )
        24           O2  tau(  24) = (   0.0950000   0.4050000   0.5277778  )
        25           O2  tau(  25) = (   0.1550000   0.6550000   0.0000000  )
        26           O2  tau(  26) = (  -0.1550000   0.3450000   0.0000000  )
        27           O2  tau(  27) = (   0.4050000   0.5950000   0.1759259  )
        28           O2  tau(  28) = (   0.0950000   0.9050000   0.1759259  )
        29           O2  tau(  29) = (   0.1550000   0.6550000   0.3518519  )
        30           O2  tau(  30) = (  -0.1550000   0.3450000   0.3518519  )
        31           O2  tau(  31) = (   0.4050000   0.5950000   0.5277778  )
        32           O2  tau(  32) = (   0.0950000   0.9050000   0.5277778  )
        33           O2  tau(  33) = (   0.6550000   0.1550000   0.0000000  )
        34           O2  tau(  34) = (   0.3450000  -0.1550000   0.0000000  )
        35           O2  tau(  35) = (   0.9050000   0.0950000   0.1759259  )
        36           O2  tau(  36) = (   0.5950000   0.4050000   0.1759259  )
        37           O2  tau(  37) = (   0.6550000   0.1550000   0.3518519  )
        38           O2  tau(  38) = (   0.3450000  -0.1550000   0.3518519  )
        39           O2  tau(  39) = (   0.9050000   0.0950000   0.5277778  )
        40           O2  tau(  40) = (   0.5950000   0.4050000   0.5277778  )
        41           O2  tau(  41) = (   0.6550000   0.6550000   0.0000000  )
        42           O2  tau(  42) = (   0.3450000   0.3450000   0.0000000  )
        43           O2  tau(  43) = (   0.9050000   0.5950000   0.1759259  )
        44           O2  tau(  44) = (   0.5950000   0.9050000   0.1759259  )
        45           O2  tau(  45) = (   0.6550000   0.6550000   0.3518519  )
        46           O2  tau(  46) = (   0.3450000   0.3450000   0.3518519  )
        47           O2  tau(  47) = (   0.9050000   0.5950000   0.5277778  )
        48           O2  tau(  48) = (   0.5950000   0.9050000   0.5277778  )

     number of k points=    42  Methfessel-Paxton smearing, width (Ry)=  0.0100
                       cart. coord. in units 2pi/alat
        k(    1) = (   0.0000000   0.0000000   0.0000000), wk =   0.0156250
        k(    2) = (   0.0000000   0.0000000   0.3552632), wk =   0.0312500
        k(    3) = (   0.0000000   0.0000000  -0.7105263), wk =   0.0156250
        k(    4) = (   0.0000000   0.2500000   0.0000000), wk =   0.0625000
        k(    5) = (   0.0000000   0.2500000   0.3552632), wk =   0.1250000
        k(    6) = (   0.0000000   0.2500000  -0.7105263), wk =   0.0625000
        k(    7) = (   0.0000000  -0.5000000   0.0000000), wk =   0.0312500
        k(    8) = (   0.0000000  -0.5000000   0.3552632), wk =   0.0625000
        k(    9) = (   0.0000000  -0.5000000  -0.7105263), wk =   0.0312500
        k(   10) = (   0.2500000   0.2500000   0.0000000), wk =   0.0312500
        k(   11) = (   0.2500000   0.2500000   0.3552632), wk =   0.0625000
        k(   12) = (   0.2500000   0.2500000  -0.7105263), wk =   0.0312500
        k(   13) = (   0.2500000  -0.5000000   0.0000000), wk =   0.0625000
        k(   14) = (   0.2500000  -0.5000000   0.3552632), wk =   0.1250000
        k(   15) = (   0.2500000  -0.5000000  -0.7105263), wk =   0.0625000
        k(   16) = (  -0.5000000  -0.5000000   0.0000000), wk =   0.0156250
        k(   17) = (  -0.5000000  -0.5000000   0.3552632), wk =   0.0312500
        k(   18) = (  -0.5000000  -0.5000000  -0.7105263), wk =   0.0156250
        k(   19) = (  -0.2500000   0.2500000   0.0000000), wk =   0.0312500
        k(   20) = (  -0.2500000   0.2500000  -0.3552632), wk =   0.0625000
        k(   21) = (  -0.2500000   0.2500000   0.7105263), wk =   0.0312500
        k(   22) = (   0.0000000   0.0000000   0.0000000), wk =   0.0156250
        k(   23) = (   0.0000000   0.0000000   0.3552632), wk =   0.0312500
        k(   24) = (   0.0000000   0.0000000  -0.7105263), wk =   0.0156250
        k(   25) = (   0.0000000   0.2500000   0.0000000), wk =   0.0625000
        k(   26) = (   0.0000000   0.2500000   0.3552632), wk =   0.1250000
        k(   27) = (   0.0000000   0.2500000  -0.7105263), wk =   0.0625000
        k(   28) = (   0.0000000  -0.5000000   0.0000000), wk =   0.0312500
        k(   29) = (   0.0000000  -0.5000000   0.3552632), wk =   0.0625000
        k(   30) = (   0.0000000  -0.5000000  -0.7105263), wk =   0.0312500
        k(   31) = (   0.2500000   0.2500000   0.0000000), wk =   0.0312500
        k(   32) = (   0.2500000   0.2500000   0.3552632), wk =   0.0625000
        k(   33) = (   0.2500000   0.2500000  -0.7105263), wk =   0.0312500
        k(   34) = (   0.2500000  -0.5000000   0.0000000), wk =   0.0625000
        k(   35) = (   0.2500000  -0.5000000   0.3552632), wk =   0.1250000
        k(   36) = (   0.2500000  -0.5000000  -0.7105263), wk =   0.0625000
        k(   37) = (  -0.5000000  -0.5000000   0.0000000), wk =   0.0156250
        k(   38) = (  -0.5000000  -0.5000000   0.3552632), wk =   0.0312500
        k(   39) = (  -0.5000000  -0.5000000  -0.7105263), wk =   0.0156250
        k(   40) = (  -0.2500000   0.2500000   0.0000000), wk =   0.0312500
        k(   41) = (  -0.2500000   0.2500000  -0.3552632), wk =   0.0625000
        k(   42) = (  -0.2500000   0.2500000   0.7105263), wk =   0.0312500

     Dense  grid:   693671 G-vectors     FFT dimensions: ( 125, 125,  90)

     Smooth grid:   125609 G-vectors     FFT dimensions: (  72,  72,  50)

     Largest allocated arrays     est. size (Mb)     dimensions
        Kohn-Sham Wavefunctions        10.13 Mb     (    988,  672)
        Atomic wavefunctions            4.82 Mb     (    988,  320)
        NL pseudopotentials            10.61 Mb     (    988,  704)
        Each V/rho on FFT grid          2.86 Mb     (  93750,   2)
        Each G-vector array             0.33 Mb     (  43354)
        G-vector shells                 0.12 Mb     (  15717)
     Largest temporary arrays     est. size (Mb)     dimensions
        Auxiliary wavefunctions        40.52 Mb     (    988, 2688)
        Each subspace H/S matrix      110.25 Mb     (2688,2688)
        Each <psi_i|beta_j> matrix      7.22 Mb     (    704,  672)
        Arrays for rho mixing          11.44 Mb     (  93750,   8)

     Check: negative/imaginary core charge=   -0.000005    0.000000

     The initial density is read from file :
     alpha_-0.07/pwscf.save/charge-density.dat


     negative rho (up, down):  0.158E+01 0.158E+01
     Number of +U iterations with fixed ns =  0
     Starting occupations:
 --- enter write_ns ---
 LDA+U parameters:
U( 1)     =  0.00000000
alpha( 1) = -0.07000000
U( 2)     =  0.00000000
alpha( 2) =  0.00000000
U( 3)     =  0.00000000
alpha( 3) =  0.00000000
atom    1   Tr[ns(na)] (up, down, total) =   4.31573  4.31573  8.63145
   spin  1
    eigenvalues: 
  0.690  0.697  0.972  0.976  0.980
    eigenvectors:
  0.000  0.332  0.000  0.000  0.668
  0.500  0.000  0.500  0.000  0.000
  0.500  0.000  0.500  0.000  0.000
  0.000  0.000  0.000  1.000  0.000
  0.000  0.668  0.000  0.000  0.332
    occupations:
  0.886 -0.000 -0.000 -0.000  0.134
 -0.000  0.831  0.141  0.000  0.000
 -0.000  0.141  0.831  0.000  0.000
 -0.000  0.000  0.000  0.976 -0.000
  0.134  0.000  0.000 -0.000  0.791
   spin  2
    eigenvalues: 
  0.690  0.697  0.972  0.976  0.980
    eigenvectors:
  0.000  0.332  0.000  0.000  0.668
  0.500  0.000  0.500  0.000  0.000
  0.500  0.000  0.500  0.000  0.000
  0.000  0.000  0.000  1.000  0.000
  0.000  0.668  0.000  0.000  0.332
    occupations:
  0.886 -0.000 -0.000 -0.000  0.134
 -0.000  0.831  0.141  0.000  0.000
 -0.000  0.141  0.831  0.000  0.000
 -0.000  0.000  0.000  0.976 -0.000
  0.134  0.000  0.000 -0.000  0.791
atomic mag. moment =     0.000000
atom    2   Tr[ns(na)] (up, down, total) =   4.31576  4.31576  8.63153
   spin  1
    eigenvalues: 
  0.691  0.697  0.972  0.976  0.980
    eigenvectors:
  0.000  0.332  0.000  0.000  0.668
  0.500  0.000  0.500  0.000  0.000
  0.500  0.000  0.500  0.000  0.000
  0.000  0.000  0.000  1.000  0.000
  0.000  0.668  0.000  0.000  0.332
    occupations:
  0.886  0.000  0.000 -0.000 -0.134
  0.000  0.831 -0.141 -0.000  0.000
  0.000 -0.141  0.831  0.000  0.000
 -0.000 -0.000  0.000  0.976 -0.000
 -0.134  0.000  0.000 -0.000  0.791
   spin  2
    eigenvalues: 
  0.691  0.697  0.972  0.976  0.980
    eigenvectors:
  0.000  0.332  0.000  0.000  0.668
  0.500  0.000  0.500  0.000  0.000
  0.500  0.000  0.500  0.000  0.000
  0.000  0.000  0.000  1.000  0.000
  0.000  0.668  0.000  0.000  0.332
    occupations:
  0.886  0.000  0.000 -0.000 -0.134
  0.000  0.831 -0.141 -0.000  0.000
  0.000 -0.141  0.831  0.000  0.000
 -0.000 -0.000  0.000  0.976 -0.000
 -0.134  0.000  0.000 -0.000  0.791
atomic mag. moment =    -0.000000
atom    3   Tr[ns(na)] (up, down, total) =   4.31569  4.31568  8.63137
   spin  1
    eigenvalues: 
  0.690  0.697  0.972  0.976  0.980
    eigenvectors:
  0.000  0.332  0.000  0.000  0.668
  0.500  0.000  0.500  0.000  0.000
  0.500  0.000  0.500  0.000  0.000
  0.000  0.000  0.000  1.000  0.000
  0.000  0.668  0.000  0.000  0.332
    occupations:
  0.886 -0.000 -0.000 -0.000  0.134
 -0.000  0.831  0.141  0.000  0.000
 -0.000  0.141  0.831  0.000  0.000
 -0.000  0.000  0.000  0.976 -0.000
  0.134  0.000  0.000 -0.000  0.791
   spin  2
    eigenvalues: 
  0.690  0.697  0.972  0.976  0.980
    eigenvectors:
  0.000  0.332  0.000  0.000  0.668
  0.500  0.000  0.500  0.000  0.000
  0.500  0.000  0.500  0.000  0.000
  0.000  0.000  0.000  1.000  0.000
  0.000  0.668  0.000  0.000  0.332
    occupations:
  0.886 -0.000 -0.000 -0.000  0.134
 -0.000  0.831  0.141  0.000  0.000
 -0.000  0.141  0.831  0.000  0.000
 -0.000  0.000  0.000  0.976 -0.000
  0.134  0.000  0.000 -0.000  0.791
atomic mag. moment =     0.000000
atom    4   Tr[ns(na)] (up, down, total) =   4.31576  4.31576  8.63153
   spin  1
    eigenvalues: 
  0.691  0.697  0.972  0.976  0.980
    eigenvectors:
  0.000  0.332  0.000  0.000  0.668
  0.500  0.000  0.500  0.000  0.000
  0.500  0.000  0.500  0.000  0.000
  0.000  0.000  0.000  1.000  0.000
  0.000  0.668  0.000  0.000  0.332
    occupations:
  0.886 -0.000 -0.000 -0.000 -0.134
 -0.000  0.831 -0.141  0.000 -0.000
 -0.000 -0.141  0.831 -0.000 -0.000
 -0.000  0.000 -0.000  0.976 -0.000
 -0.134 -0.000 -0.000 -0.000  0.791
   spin  2
    eigenvalues: 
  0.691  0.697  0.972  0.976  0.980
    eigenvectors:
  0.000  0.332  0.000  0.000  0.668
  0.500  0.000  0.500  0.000  0.000
  0.500  0.000  0.500  0.000  0.000
  0.000  0.000  0.000  1.000  0.000
  0.000  0.668  0.000  0.000  0.332
    occupations:
  0.886 -0.000 -0.000 -0.000 -0.134
 -0.000  0.831 -0.141  0.000 -0.000
 -0.000 -0.141  0.831 -0.000 -0.000
 -0.000  0.000 -0.000  0.976 -0.000
 -0.134 -0.000 -0.000 -0.000  0.791
atomic mag. moment =    -0.000000
atom    5   Tr[ns(na)] (up, down, total) =   4.31573  4.31573  8.63146
   spin  1
    eigenvalues: 
  0.690  0.697  0.972  0.976  0.980
    eigenvectors:
  0.000  0.332  0.000  0.000  0.668
  0.500  0.000  0.500  0.000  0.000
  0.500  0.000  0.500  0.000  0.000
  0.000  0.000  0.000  1.000  0.000
  0.000  0.668  0.000  0.000  0.332
    occupations:
  0.886 -0.000 -0.000  0.000  0.134
 -0.000  0.831  0.141  0.000  0.000
 -0.000  0.141  0.831  0.000  0.000
  0.000  0.000  0.000  0.976 -0.000
  0.134  0.000  0.000 -0.000  0.791
   spin  2
    eigenvalues: 
  0.690  0.697  0.972  0.976  0.980
    eigenvectors:
  0.000  0.332  0.000  0.000  0.668
  0.500  0.000  0.500  0.000  0.000
  0.500  0.000  0.500  0.000  0.000
  0.000  0.000  0.000  1.000  0.000
  0.000  0.668  0.000  0.000  0.332
    occupations:
  0.886 -0.000 -0.000  0.000  0.134
 -0.000  0.831  0.141  0.000  0.000
 -0.000  0.141  0.831  0.000  0.000
  0.000  0.000  0.000  0.976 -0.000
  0.134  0.000  0.000 -0.000  0.791
atomic mag. moment =     0.000000
atom    6   Tr[ns(na)] (up, down, total) =   4.31575  4.31575  8.63150
   spin  1
    eigenvalues: 
  0.691  0.697  0.972  0.976  0.980
    eigenvectors:
  0.000  0.332  0.000  0.000  0.668
  0.500  0.000  0.500  0.000  0.000
  0.500  0.000  0.500  0.000  0.000
  0.000  0.000  0.000  1.000  0.000
  0.000  0.668  0.000  0.000  0.332
    occupations:
  0.886 -0.000  0.000 -0.000 -0.134
 -0.000  0.831 -0.141 -0.000 -0.000
  0.000 -0.141  0.831 -0.000  0.000
 -0.000 -0.000 -0.000  0.976 -0.000
 -0.134 -0.000  0.000 -0.000  0.791
   spin  2
    eigenvalues: 
  0.691  0.697  0.972  0.976  0.980
    eigenvectors:
  0.000  0.332  0.000  0.000  0.668
  0.500  0.000  0.500  0.000  0.000
  0.500  0.000  0.500  0.000  0.000
  0.000  0.000  0.000  1.000  0.000
  0.000  0.668  0.000  0.000  0.332
    occupations:
  0.886 -0.000  0.000 -0.000 -0.134
 -0.000  0.831 -0.141 -0.000 -0.000
  0.000 -0.141  0.831 -0.000  0.000
 -0.000 -0.000 -0.000  0.976 -0.000
 -0.134 -0.000  0.000 -0.000  0.791
atomic mag. moment =     0.000000
atom    7   Tr[ns(na)] (up, down, total) =   4.31571  4.31571  8.63142
   spin  1
    eigenvalues: 
  0.690  0.697  0.972  0.976  0.980
    eigenvectors:
  0.000  0.332  0.000  0.000  0.668
  0.500  0.000  0.500  0.000  0.000
  0.500  0.000  0.500  0.000  0.000
  0.000  0.000  0.000  1.000  0.000
  0.000  0.668  0.000  0.000  0.332
    occupations:
  0.886 -0.000 -0.000 -0.000  0.134
 -0.000  0.831  0.141  0.000  0.000
 -0.000  0.141  0.831  0.000  0.000
 -0.000  0.000  0.000  0.976  0.000
  0.134  0.000  0.000  0.000  0.791
   spin  2
    eigenvalues: 
  0.690  0.697  0.972  0.976  0.980
    eigenvectors:
  0.000  0.332  0.000  0.000  0.668
  0.500  0.000  0.500  0.000  0.000
  0.500  0.000  0.500  0.000  0.000
  0.000  0.000  0.000  1.000  0.000
  0.000  0.668  0.000  0.000  0.332
    occupations:
  0.886 -0.000 -0.000 -0.000  0.134
 -0.000  0.831  0.141  0.000  0.000
 -0.000  0.141  0.831  0.000  0.000
 -0.000  0.000  0.000  0.976  0.000
  0.134  0.000  0.000  0.000  0.791
atomic mag. moment =     0.000000
atom    8   Tr[ns(na)] (up, down, total) =   4.31575  4.31575  8.63150
   spin  1
    eigenvalues: 
  0.691  0.697  0.972  0.976  0.980
    eigenvectors:
  0.000  0.332  0.000  0.000  0.668
  0.500  0.000  0.500  0.000  0.000
  0.500  0.000  0.500  0.000  0.000
  0.000  0.000  0.000  1.000  0.000
  0.000  0.668  0.000  0.000  0.332
    occupations:
  0.886  0.000 -0.000 -0.000 -0.134
  0.000  0.831 -0.141  0.000  0.000
 -0.000 -0.141  0.831  0.000 -0.000
 -0.000  0.000  0.000  0.976 -0.000
 -0.134  0.000 -0.000 -0.000  0.791
   spin  2
    eigenvalues: 
  0.691  0.697  0.972  0.976  0.980
    eigenvectors:
  0.000  0.332  0.000  0.000  0.668
  0.500  0.000  0.500  0.000  0.000
  0.500  0.000  0.500  0.000  0.000
  0.000  0.000  0.000  1.000  0.000
  0.000  0.668  0.000  0.000  0.332
    occupations:
  0.886  0.000 -0.000 -0.000 -0.134
  0.000  0.831 -0.141  0.000  0.000
 -0.000 -0.141  0.831  0.000 -0.000
 -0.000  0.000  0.000  0.976 -0.000
 -0.134  0.000 -0.000 -0.000  0.791
atomic mag. moment =     0.000000
atom    9   Tr[ns(na)] (up, down, total) =   4.31573  4.31573  8.63146
   spin  1
    eigenvalues: 
  0.690  0.697  0.972  0.976  0.980
    eigenvectors:
  0.000  0.332  0.000  0.000  0.668
  0.500  0.000  0.500  0.000  0.000
  0.500  0.000  0.500  0.000  0.000
  0.000  0.000  0.000  1.000  0.000
  0.000  0.668  0.000  0.000  0.332
    occupations:
  0.886 -0.000 -0.000 -0.000  0.134
 -0.000  0.831  0.141  0.000  0.000
 -0.000  0.141  0.831  0.000  0.000
 -0.000  0.000  0.000  0.976  0.000
  0.134  0.000  0.000  0.000  0.791
   spin  2
    eigenvalues: 
  0.690  0.697  0.972  0.976  0.980
    eigenvectors:
  0.000  0.332  0.000  0.000  0.668
  0.500  0.000  0.500  0.000  0.000
  0.500  0.000  0.500  0.000  0.000
  0.000  0.000  0.000  1.000  0.000
  0.000  0.668  0.000  0.000  0.332
    occupations:
  0.886 -0.000 -0.000 -0.000  0.134
 -0.000  0.831  0.141  0.000  0.000
 -0.000  0.141  0.831  0.000  0.000
 -0.000  0.000  0.000  0.976  0.000
  0.134  0.000  0.000  0.000  0.791
atomic mag. moment =     0.000000
atom   10   Tr[ns(na)] (up, down, total) =   4.31575  4.31575  8.63150
   spin  1
    eigenvalues: 
  0.691  0.697  0.972  0.976  0.980
    eigenvectors:
  0.000  0.332  0.000  0.000  0.668
  0.500  0.000  0.500  0.000  0.000
  0.500  0.000  0.500  0.000  0.000
  0.000  0.000  0.000  1.000  0.000
  0.000  0.668  0.000  0.000  0.332
    occupations:
  0.886  0.000 -0.000 -0.000 -0.134
  0.000  0.831 -0.141  0.000  0.000
 -0.000 -0.141  0.831  0.000 -0.000
 -0.000  0.000  0.000  0.976 -0.000
 -0.134  0.000 -0.000 -0.000  0.791
   spin  2
    eigenvalues: 
  0.691  0.697  0.972  0.976  0.980
    eigenvectors:
  0.000  0.332  0.000  0.000  0.668
  0.500  0.000  0.500  0.000  0.000
  0.500  0.000  0.500  0.000  0.000
  0.000  0.000  0.000  1.000  0.000
  0.000  0.668  0.000  0.000  0.332
    occupations:
  0.886  0.000 -0.000 -0.000 -0.134
  0.000  0.831 -0.141  0.000  0.000
 -0.000 -0.141  0.831  0.000 -0.000
 -0.000  0.000  0.000  0.976 -0.000
 -0.134  0.000 -0.000 -0.000  0.791
atomic mag. moment =     0.000000
atom   11   Tr[ns(na)] (up, down, total) =   4.31571  4.31571  8.63142
   spin  1
    eigenvalues: 
  0.690  0.697  0.972  0.976  0.980
    eigenvectors:
  0.000  0.332  0.000  0.000  0.668
  0.500  0.000  0.500  0.000  0.000
  0.500  0.000  0.500  0.000  0.000
  0.000  0.000  0.000  1.000  0.000
  0.000  0.668  0.000  0.000  0.332
    occupations:
  0.886 -0.000 -0.000  0.000  0.134
 -0.000  0.831  0.141  0.000  0.000
 -0.000  0.141  0.831  0.000  0.000
  0.000  0.000  0.000  0.976 -0.000
  0.134  0.000  0.000 -0.000  0.791
   spin  2
    eigenvalues: 
  0.690  0.697  0.972  0.976  0.980
    eigenvectors:
  0.000  0.332  0.000  0.000  0.668
  0.500  0.000  0.500  0.000  0.000
  0.500  0.000  0.500  0.000  0.000
  0.000  0.000  0.000  1.000  0.000
  0.000  0.668  0.000  0.000  0.332
    occupations:
  0.886 -0.000 -0.000  0.000  0.134
 -0.000  0.831  0.141  0.000  0.000
 -0.000  0.141  0.831  0.000  0.000
  0.000  0.000  0.000  0.976 -0.000
  0.134  0.000  0.000 -0.000  0.791
atomic mag. moment =     0.000000
atom   12   Tr[ns(na)] (up, down, total) =   4.31575  4.31575  8.63150
   spin  1
    eigenvalues: 
  0.691  0.697  0.972  0.976  0.980
    eigenvectors:
  0.000  0.332  0.000  0.000  0.668
  0.500  0.000  0.500  0.000  0.000
  0.500  0.000  0.500  0.000  0.000
  0.000  0.000  0.000  1.000  0.000
  0.000  0.668  0.000  0.000  0.332
    occupations:
  0.886 -0.000  0.000 -0.000 -0.134
 -0.000  0.831 -0.141 -0.000 -0.000
  0.000 -0.141  0.831 -0.000  0.000
 -0.000 -0.000 -0.000  0.976 -0.000
 -0.134 -0.000  0.000 -0.000  0.791
   spin  2
    eigenvalues: 
  0.691  0.697  0.972  0.976  0.980
    eigenvectors:
  0.000  0.332  0.000  0.000  0.668
  0.500  0.000  0.500  0.000  0.000
  0.500  0.000  0.500  0.000  0.000
  0.000  0.000  0.000  1.000  0.000
  0.000  0.668  0.000  0.000  0.332
    occupations:
  0.886 -0.000  0.000 -0.000 -0.134
 -0.000  0.831 -0.141 -0.000 -0.000
  0.000 -0.141  0.831 -0.000  0.000
 -0.000 -0.000 -0.000  0.976 -0.000
 -0.134 -0.000  0.000 -0.000  0.791
atomic mag. moment =     0.000000
atom   13   Tr[ns(na)] (up, down, total) =   4.31567  4.31567  8.63135
   spin  1
    eigenvalues: 
  0.690  0.697  0.972  0.976  0.980
    eigenvectors:
  0.000  0.332  0.000  0.000  0.668
  0.500  0.000  0.500  0.000  0.000
  0.500  0.000  0.500  0.000  0.000
  0.000  0.000  0.000  1.000  0.000
  0.000  0.668  0.000  0.000  0.332
    occupations:
  0.886 -0.000 -0.000 -0.000  0.134
 -0.000  0.831  0.141  0.000  0.000
 -0.000  0.141  0.831  0.000  0.000
 -0.000  0.000  0.000  0.976 -0.000
  0.134  0.000  0.000 -0.000  0.791
   spin  2
    eigenvalues: 
  0.690  0.697  0.972  0.976  0.980
    eigenvectors:
  0.000  0.332  0.000  0.000  0.668
  0.500  0.000  0.500  0.000  0.000
  0.500  0.000  0.500  0.000  0.000
  0.000  0.000  0.000  1.000  0.000
  0.000  0.668  0.000  0.000  0.332
    occupations:
  0.886 -0.000 -0.000 -0.000  0.134
 -0.000  0.831  0.141  0.000  0.000
 -0.000  0.141  0.831  0.000  0.000
 -0.000  0.000  0.000  0.976 -0.000
  0.134  0.000  0.000 -0.000  0.791
atomic mag. moment =     0.000000
atom   14   Tr[ns(na)] (up, down, total) =   4.31576  4.31576  8.63153
   spin  1
    eigenvalues: 
  0.691  0.697  0.972  0.976  0.980
    eigenvectors:
  0.000  0.332  0.000  0.000  0.668
  0.500  0.000  0.500  0.000  0.000
  0.500  0.000  0.500  0.000  0.000
  0.000  0.000  0.000  1.000  0.000
  0.000  0.668  0.000  0.000  0.332
    occupations:
  0.886 -0.000 -0.000 -0.000 -0.134
 -0.000  0.831 -0.141  0.000 -0.000
 -0.000 -0.141  0.831 -0.000 -0.000
 -0.000  0.000 -0.000  0.976 -0.000
 -0.134 -0.000 -0.000 -0.000  0.791
   spin  2
    eigenvalues: 
  0.691  0.697  0.972  0.976  0.980
    eigenvectors:
  0.000  0.332  0.000  0.000  0.668
  0.500  0.000  0.500  0.000  0.000
  0.500  0.000  0.500  0.000  0.000
  0.000  0.000  0.000  1.000  0.000
  0.000  0.668  0.000  0.000  0.332
    occupations:
  0.886 -0.000 -0.000 -0.000 -0.134
 -0.000  0.831 -0.141  0.000 -0.000
 -0.000 -0.141  0.831 -0.000 -0.000
 -0.000  0.000 -0.000  0.976 -0.000
 -0.134 -0.000 -0.000 -0.000  0.791
atomic mag. moment =    -0.000000
atom   15   Tr[ns(na)] (up, down, total) =   4.31573  4.31573  8.63145
   spin  1
    eigenvalues: 
  0.690  0.697  0.972  0.976  0.980
    eigenvectors:
  0.000  0.332  0.000  0.000  0.668
  0.500  0.000  0.500  0.000  0.000
  0.500  0.000  0.500  0.000  0.000
  0.000  0.000  0.000  1.000  0.000
  0.000  0.668  0.000  0.000  0.332
    occupations:
  0.886 -0.000 -0.000 -0.000  0.134
 -0.000  0.831  0.141  0.000  0.000
 -0.000  0.141  0.831  0.000  0.000
 -0.000  0.000  0.000  0.976 -0.000
  0.134  0.000  0.000 -0.000  0.791
   spin  2
    eigenvalues: 
  0.690  0.697  0.972  0.976  0.980
    eigenvectors:
  0.000  0.332  0.000  0.000  0.668
  0.500  0.000  0.500  0.000  0.000
  0.500  0.000  0.500  0.000  0.000
  0.000  0.000  0.000  1.000  0.000
  0.000  0.668  0.000  0.000  0.332
    occupations:
  0.886 -0.000 -0.000 -0.000  0.134
 -0.000  0.831  0.141  0.000  0.000
 -0.000  0.141  0.831  0.000  0.000
 -0.000  0.000  0.000  0.976 -0.000
  0.134  0.000  0.000 -0.000  0.791
atomic mag. moment =     0.000000
atom   16   Tr[ns(na)] (up, down, total) =   4.31576  4.31576  8.63153
   spin  1
    eigenvalues: 
  0.691  0.697  0.972  0.976  0.980
    eigenvectors:
  0.000  0.332  0.000  0.000  0.668
  0.500  0.000  0.500  0.000  0.000
  0.500  0.000  0.500  0.000  0.000
  0.000  0.000  0.000  1.000  0.000
  0.000  0.668  0.000  0.000  0.332
    occupations:
  0.886  0.000  0.000 -0.000 -0.134
  0.000  0.831 -0.141 -0.000  0.000
  0.000 -0.141  0.831  0.000  0.000
 -0.000 -0.000  0.000  0.976 -0.000
 -0.134  0.000  0.000 -0.000  0.791
   spin  2
    eigenvalues: 
  0.691  0.697  0.972  0.976  0.980
    eigenvectors:
  0.000  0.332  0.000  0.000  0.668
  0.500  0.000  0.500  0.000  0.000
  0.500  0.000  0.500  0.000  0.000
  0.000  0.000  0.000  1.000  0.000
  0.000  0.668  0.000  0.000  0.332
    occupations:
  0.886  0.000  0.000 -0.000 -0.134
  0.000  0.831 -0.141 -0.000  0.000
  0.000 -0.141  0.831  0.000  0.000
 -0.000 -0.000  0.000  0.976 -0.000
 -0.134  0.000  0.000 -0.000  0.791
atomic mag. moment =    -0.000000
atom   17   Tr[ns(na)] (up, down, total) =   2.66728  2.66728  5.33456
   spin  1
    eigenvalues: 
  0.845  0.848  0.974
    eigenvectors:
  0.000  1.000  0.000
  0.500  0.000  0.500
  0.500  0.000  0.500
    occupations:
  0.848 -0.000  0.000
 -0.000  0.910 -0.064
  0.000 -0.064  0.910
   spin  2
    eigenvalues: 
  0.845  0.848  0.974
    eigenvectors:
  0.000  1.000  0.000
  0.500  0.000  0.500
  0.500  0.000  0.500
    occupations:
  0.848 -0.000  0.000
 -0.000  0.910 -0.064
  0.000 -0.064  0.910
atomic mag. moment =    -0.000000
atom   18   Tr[ns(na)] (up, down, total) =   2.66728  2.66728  5.33456
   spin  1
    eigenvalues: 
  0.845  0.848  0.974
    eigenvectors:
  0.000  1.000  0.000
  0.500  0.000  0.500
  0.500  0.000  0.500
    occupations:
  0.848 -0.000  0.000
 -0.000  0.910 -0.064
  0.000 -0.064  0.910
   spin  2
    eigenvalues: 
  0.845  0.848  0.974
    eigenvectors:
  0.000  1.000  0.000
  0.500  0.000  0.500
  0.500  0.000  0.500
    occupations:
  0.848 -0.000  0.000
 -0.000  0.910 -0.064
  0.000 -0.064  0.910
atomic mag. moment =    -0.000000
atom   19   Tr[ns(na)] (up, down, total) =   2.66723  2.66723  5.33446
   spin  1
    eigenvalues: 
  0.845  0.848  0.974
    eigenvectors:
  0.000  1.000  0.000
  0.500  0.000  0.500
  0.500  0.000  0.500
    occupations:
  0.848 -0.000  0.000
 -0.000  0.910  0.064
  0.000  0.064  0.910
   spin  2
    eigenvalues: 
  0.845  0.848  0.974
    eigenvectors:
  0.000  1.000  0.000
  0.500  0.000  0.500
  0.500  0.000  0.500
    occupations:
  0.848 -0.000  0.000
 -0.000  0.910  0.064
  0.000  0.064  0.910
atomic mag. moment =    -0.000000
atom   20   Tr[ns(na)] (up, down, total) =   2.66723  2.66723  5.33446
   spin  1
    eigenvalues: 
  0.845  0.848  0.974
    eigenvectors:
  0.000  1.000  0.000
  0.500  0.000  0.500
  0.500  0.000  0.500
    occupations:
  0.848  0.000 -0.000
  0.000  0.910  0.064
 -0.000  0.064  0.910
   spin  2
    eigenvalues: 
  0.845  0.848  0.974
    eigenvectors:
  0.000  1.000  0.000
  0.500  0.000  0.500
  0.500  0.000  0.500
    occupations:
  0.848  0.000 -0.000
  0.000  0.910  0.064
 -0.000  0.064  0.910
atomic mag. moment =    -0.000000
atom   21   Tr[ns(na)] (up, down, total) =   2.66725  2.66725  5.33450
   spin  1
    eigenvalues: 
  0.845  0.848  0.974
    eigenvectors:
  0.000  1.000  0.000
  0.500  0.000  0.500
  0.500  0.000  0.500
    occupations:
  0.848 -0.000  0.000
 -0.000  0.910 -0.064
  0.000 -0.064  0.910
   spin  2
    eigenvalues: 
  0.845  0.848  0.974
    eigenvectors:
  0.000  1.000  0.000
  0.500  0.000  0.500
  0.500  0.000  0.500
    occupations:
  0.848 -0.000  0.000
 -0.000  0.910 -0.064
  0.000 -0.064  0.910
atomic mag. moment =    -0.000000
atom   22   Tr[ns(na)] (up, down, total) =   2.66725  2.66725  5.33450
   spin  1
    eigenvalues: 
  0.845  0.848  0.974
    eigenvectors:
  0.000  1.000  0.000
  0.500  0.000  0.500
  0.500  0.000  0.500
    occupations:
  0.848 -0.000  0.000
 -0.000  0.910 -0.064
  0.000 -0.064  0.910
   spin  2
    eigenvalues: 
  0.845  0.848  0.974
    eigenvectors:
  0.000  1.000  0.000
  0.500  0.000  0.500
  0.500  0.000  0.500
    occupations:
  0.848 -0.000  0.000
 -0.000  0.910 -0.064
  0.000 -0.064  0.910
atomic mag. moment =    -0.000000
atom   23   Tr[ns(na)] (up, down, total) =   2.66723  2.66723  5.33446
   spin  1
    eigenvalues: 
  0.845  0.848  0.974
    eigenvectors:
  0.000  1.000  0.000
  0.500  0.000  0.500
  0.500  0.000  0.500
    occupations:
  0.848  0.000 -0.000
  0.000  0.910  0.064
 -0.000  0.064  0.910
   spin  2
    eigenvalues: 
  0.845  0.848  0.974
    eigenvectors:
  0.000  1.000  0.000
  0.500  0.000  0.500
  0.500  0.000  0.500
    occupations:
  0.848  0.000 -0.000
  0.000  0.910  0.064
 -0.000  0.064  0.910
atomic mag. moment =    -0.000000
atom   24   Tr[ns(na)] (up, down, total) =   2.66723  2.66723  5.33446
   spin  1
    eigenvalues: 
  0.845  0.848  0.974
    eigenvectors:
  0.000  1.000  0.000
  0.500  0.000  0.500
  0.500  0.000  0.500
    occupations:
  0.848 -0.000  0.000
 -0.000  0.910  0.064
  0.000  0.064  0.910
   spin  2
    eigenvalues: 
  0.845  0.848  0.974
    eigenvectors:
  0.000  1.000  0.000
  0.500  0.000  0.500
  0.500  0.000  0.500
    occupations:
  0.848 -0.000  0.000
 -0.000  0.910  0.064
  0.000  0.064  0.910
atomic mag. moment =    -0.000000
atom   25   Tr[ns(na)] (up, down, total) =   2.66726  2.66726  5.33452
   spin  1
    eigenvalues: 
  0.845  0.848  0.974
    eigenvectors:
  0.000  1.000  0.000
  0.500  0.000  0.500
  0.500  0.000  0.500
    occupations:
  0.848 -0.000  0.000
 -0.000  0.910 -0.064
  0.000 -0.064  0.910
   spin  2
    eigenvalues: 
  0.845  0.848  0.974
    eigenvectors:
  0.000  1.000  0.000
  0.500  0.000  0.500
  0.500  0.000  0.500
    occupations:
  0.848 -0.000  0.000
 -0.000  0.910 -0.064
  0.000 -0.064  0.910
atomic mag. moment =     0.000000
atom   26   Tr[ns(na)] (up, down, total) =   2.66726  2.66726  5.33452
   spin  1
    eigenvalues: 
  0.845  0.848  0.974
    eigenvectors:
  0.000  1.000  0.000
  0.500  0.000  0.500
  0.500  0.000  0.500
    occupations:
  0.848 -0.000  0.000
 -0.000  0.910 -0.064
  0.000 -0.064  0.910
   spin  2
    eigenvalues: 
  0.845  0.848  0.974
    eigenvectors:
  0.000  1.000  0.000
  0.500  0.000  0.500
  0.500  0.000  0.500
    occupations:
  0.848 -0.000  0.000
 -0.000  0.910 -0.064
  0.000 -0.064  0.910
atomic mag. moment =     0.000000
atom   27   Tr[ns(na)] (up, down, total) =   2.66726  2.66726  5.33452
   spin  1
    eigenvalues: 
  0.845  0.848  0.974
    eigenvectors:
  0.000  1.000  0.000
  0.500  0.000  0.500
  0.500  0.000  0.500
    occupations:
  0.848  0.000 -0.000
  0.000  0.910  0.064
 -0.000  0.064  0.910
   spin  2
    eigenvalues: 
  0.845  0.848  0.974
    eigenvectors:
  0.000  1.000  0.000
  0.500  0.000  0.500
  0.500  0.000  0.500
    occupations:
  0.848  0.000 -0.000
  0.000  0.910  0.064
 -0.000  0.064  0.910
atomic mag. moment =     0.000000
atom   28   Tr[ns(na)] (up, down, total) =   2.66724  2.66724  5.33449
   spin  1
    eigenvalues: 
  0.845  0.848  0.974
    eigenvectors:
  0.000  1.000  0.000
  0.500  0.000  0.500
  0.500  0.000  0.500
    occupations:
  0.848  0.000 -0.000
  0.000  0.910  0.064
 -0.000  0.064  0.910
   spin  2
    eigenvalues: 
  0.845  0.848  0.974
    eigenvectors:
  0.000  1.000  0.000
  0.500  0.000  0.500
  0.500  0.000  0.500
    occupations:
  0.848  0.000 -0.000
  0.000  0.910  0.064
 -0.000  0.064  0.910
atomic mag. moment =     0.000000
atom   29   Tr[ns(na)] (up, down, total) =   2.66725  2.66725  5.33450
   spin  1
    eigenvalues: 
  0.845  0.848  0.974
    eigenvectors:
  0.000  1.000  0.000
  0.500  0.000  0.500
  0.500  0.000  0.500
    occupations:
  0.848 -0.000  0.000
 -0.000  0.910 -0.064
  0.000 -0.064  0.910
   spin  2
    eigenvalues: 
  0.845  0.848  0.974
    eigenvectors:
  0.000  1.000  0.000
  0.500  0.000  0.500
  0.500  0.000  0.500
    occupations:
  0.848 -0.000  0.000
 -0.000  0.910 -0.064
  0.000 -0.064  0.910
atomic mag. moment =     0.000000
atom   30   Tr[ns(na)] (up, down, total) =   2.66725  2.66725  5.33450
   spin  1
    eigenvalues: 
  0.845  0.848  0.974
    eigenvectors:
  0.000  1.000  0.000
  0.500  0.000  0.500
  0.500  0.000  0.500
    occupations:
  0.848 -0.000  0.000
 -0.000  0.910 -0.064
  0.000 -0.064  0.910
   spin  2
    eigenvalues: 
  0.845  0.848  0.974
    eigenvectors:
  0.000  1.000  0.000
  0.500  0.000  0.500
  0.500  0.000  0.500
    occupations:
  0.848 -0.000  0.000
 -0.000  0.910 -0.064
  0.000 -0.064  0.910
atomic mag. moment =     0.000000
atom   31   Tr[ns(na)] (up, down, total) =   2.66726  2.66726  5.33452
   spin  1
    eigenvalues: 
  0.845  0.848  0.974
    eigenvectors:
  0.000  1.000  0.000
  0.500  0.000  0.500
  0.500  0.000  0.500
    occupations:
  0.848 -0.000  0.000
 -0.000  0.910  0.064
  0.000  0.064  0.910
   spin  2
    eigenvalues: 
  0.845  0.848  0.974
    eigenvectors:
  0.000  1.000  0.000
  0.500  0.000  0.500
  0.500  0.000  0.500
    occupations:
  0.848 -0.000  0.000
 -0.000  0.910  0.064
  0.000  0.064  0.910
atomic mag. moment =     0.000000
atom   32   Tr[ns(na)] (up, down, total) =   2.66724  2.66724  5.33449
   spin  1
    eigenvalues: 
  0.845  0.848  0.974
    eigenvectors:
  0.000  1.000  0.000
  0.500  0.000  0.500
  0.500  0.000  0.500
    occupations:
  0.848 -0.000  0.000
 -0.000  0.910  0.064
  0.000  0.064  0.910
   spin  2
    eigenvalues: 
  0.845  0.848  0.974
    eigenvectors:
  0.000  1.000  0.000
  0.500  0.000  0.500
  0.500  0.000  0.500
    occupations:
  0.848 -0.000  0.000
 -0.000  0.910  0.064
  0.000  0.064  0.910
atomic mag. moment =     0.000000
atom   33   Tr[ns(na)] (up, down, total) =   2.66726  2.66726  5.33452
   spin  1
    eigenvalues: 
  0.845  0.848  0.974
    eigenvectors:
  0.000  1.000  0.000
  0.500  0.000  0.500
  0.500  0.000  0.500
    occupations:
  0.848 -0.000  0.000
 -0.000  0.910 -0.064
  0.000 -0.064  0.910
   spin  2
    eigenvalues: 
  0.845  0.848  0.974
    eigenvectors:
  0.000  1.000  0.000
  0.500  0.000  0.500
  0.500  0.000  0.500
    occupations:
  0.848 -0.000  0.000
 -0.000  0.910 -0.064
  0.000 -0.064  0.910
atomic mag. moment =     0.000000
atom   34   Tr[ns(na)] (up, down, total) =   2.66726  2.66726  5.33452
   spin  1
    eigenvalues: 
  0.845  0.848  0.974
    eigenvectors:
  0.000  1.000  0.000
  0.500  0.000  0.500
  0.500  0.000  0.500
    occupations:
  0.848 -0.000  0.000
 -0.000  0.910 -0.064
  0.000 -0.064  0.910
   spin  2
    eigenvalues: 
  0.845  0.848  0.974
    eigenvectors:
  0.000  1.000  0.000
  0.500  0.000  0.500
  0.500  0.000  0.500
    occupations:
  0.848 -0.000  0.000
 -0.000  0.910 -0.064
  0.000 -0.064  0.910
atomic mag. moment =     0.000000
atom   35   Tr[ns(na)] (up, down, total) =   2.66724  2.66724  5.33449
   spin  1
    eigenvalues: 
  0.845  0.848  0.974
    eigenvectors:
  0.000  1.000  0.000
  0.500  0.000  0.500
  0.500  0.000  0.500
    occupations:
  0.848 -0.000  0.000
 -0.000  0.910  0.064
  0.000  0.064  0.910
   spin  2
    eigenvalues: 
  0.845  0.848  0.974
    eigenvectors:
  0.000  1.000  0.000
  0.500  0.000  0.500
  0.500  0.000  0.500
    occupations:
  0.848 -0.000  0.000
 -0.000  0.910  0.064
  0.000  0.064  0.910
atomic mag. moment =     0.000000
atom   36   Tr[ns(na)] (up, down, total) =   2.66726  2.66726  5.33452
   spin  1
    eigenvalues: 
  0.845  0.848  0.974
    eigenvectors:
  0.000  1.000  0.000
  0.500  0.000  0.500
  0.500  0.000  0.500
    occupations:
  0.848 -0.000  0.000
 -0.000  0.910  0.064
  0.000  0.064  0.910
   spin  2
    eigenvalues: 
  0.845  0.848  0.974
    eigenvectors:
  0.000  1.000  0.000
  0.500  0.000  0.500
  0.500  0.000  0.500
    occupations:
  0.848 -0.000  0.000
 -0.000  0.910  0.064
  0.000  0.064  0.910
atomic mag. moment =     0.000000
atom   37   Tr[ns(na)] (up, down, total) =   2.66725  2.66725  5.33450
   spin  1
    eigenvalues: 
  0.845  0.848  0.974
    eigenvectors:
  0.000  1.000  0.000
  0.500  0.000  0.500
  0.500  0.000  0.500
    occupations:
  0.848 -0.000  0.000
 -0.000  0.910 -0.064
  0.000 -0.064  0.910
   spin  2
    eigenvalues: 
  0.845  0.848  0.974
    eigenvectors:
  0.000  1.000  0.000
  0.500  0.000  0.500
  0.500  0.000  0.500
    occupations:
  0.848 -0.000  0.000
 -0.000  0.910 -0.064
  0.000 -0.064  0.910
atomic mag. moment =     0.000000
atom   38   Tr[ns(na)] (up, down, total) =   2.66725  2.66725  5.33450
   spin  1
    eigenvalues: 
  0.845  0.848  0.974
    eigenvectors:
  0.000  1.000  0.000
  0.500  0.000  0.500
  0.500  0.000  0.500
    occupations:
  0.848 -0.000  0.000
 -0.000  0.910 -0.064
  0.000 -0.064  0.910
   spin  2
    eigenvalues: 
  0.845  0.848  0.974
    eigenvectors:
  0.000  1.000  0.000
  0.500  0.000  0.500
  0.500  0.000  0.500
    occupations:
  0.848 -0.000  0.000
 -0.000  0.910 -0.064
  0.000 -0.064  0.910
atomic mag. moment =     0.000000
atom   39   Tr[ns(na)] (up, down, total) =   2.66724  2.66724  5.33449
   spin  1
    eigenvalues: 
  0.845  0.848  0.974
    eigenvectors:
  0.000  1.000  0.000
  0.500  0.000  0.500
  0.500  0.000  0.500
    occupations:
  0.848  0.000 -0.000
  0.000  0.910  0.064
 -0.000  0.064  0.910
   spin  2
    eigenvalues: 
  0.845  0.848  0.974
    eigenvectors:
  0.000  1.000  0.000
  0.500  0.000  0.500
  0.500  0.000  0.500
    occupations:
  0.848  0.000 -0.000
  0.000  0.910  0.064
 -0.000  0.064  0.910
atomic mag. moment =     0.000000
atom   40   Tr[ns(na)] (up, down, total) =   2.66726  2.66726  5.33452
   spin  1
    eigenvalues: 
  0.845  0.848  0.974
    eigenvectors:
  0.000  1.000  0.000
  0.500  0.000  0.500
  0.500  0.000  0.500
    occupations:
  0.848  0.000 -0.000
  0.000  0.910  0.064
 -0.000  0.064  0.910
   spin  2
    eigenvalues: 
  0.845  0.848  0.974
    eigenvectors:
  0.000  1.000  0.000
  0.500  0.000  0.500
  0.500  0.000  0.500
    occupations:
  0.848  0.000 -0.000
  0.000  0.910  0.064
 -0.000  0.064  0.910
atomic mag. moment =     0.000000
atom   41   Tr[ns(na)] (up, down, total) =   2.66723  2.66723  5.33447
   spin  1
    eigenvalues: 
  0.845  0.848  0.974
    eigenvectors:
  0.000  1.000  0.000
  0.500  0.000  0.500
  0.500  0.000  0.500
    occupations:
  0.848 -0.000  0.000
 -0.000  0.910 -0.064
  0.000 -0.064  0.910
   spin  2
    eigenvalues: 
  0.845  0.848  0.974
    eigenvectors:
  0.000  1.000  0.000
  0.500  0.000  0.500
  0.500  0.000  0.500
    occupations:
  0.848 -0.000  0.000
 -0.000  0.910 -0.064
  0.000 -0.064  0.910
atomic mag. moment =    -0.000000
atom   42   Tr[ns(na)] (up, down, total) =   2.66723  2.66723  5.33447
   spin  1
    eigenvalues: 
  0.845  0.848  0.974
    eigenvectors:
  0.000  1.000  0.000
  0.500  0.000  0.500
  0.500  0.000  0.500
    occupations:
  0.848 -0.000  0.000
 -0.000  0.910 -0.064
  0.000 -0.064  0.910
   spin  2
    eigenvalues: 
  0.845  0.848  0.974
    eigenvectors:
  0.000  1.000  0.000
  0.500  0.000  0.500
  0.500  0.000  0.500
    occupations:
  0.848 -0.000  0.000
 -0.000  0.910 -0.064
  0.000 -0.064  0.910
atomic mag. moment =    -0.000000
atom   43   Tr[ns(na)] (up, down, total) =   2.66723  2.66723  5.33446
   spin  1
    eigenvalues: 
  0.845  0.848  0.974
    eigenvectors:
  0.000  1.000  0.000
  0.500  0.000  0.500
  0.500  0.000  0.500
    occupations:
  0.848 -0.000  0.000
 -0.000  0.910  0.064
  0.000  0.064  0.910
   spin  2
    eigenvalues: 
  0.845  0.848  0.974
    eigenvectors:
  0.000  1.000  0.000
  0.500  0.000  0.500
  0.500  0.000  0.500
    occupations:
  0.848 -0.000  0.000
 -0.000  0.910  0.064
  0.000  0.064  0.910
atomic mag. moment =    -0.000000
atom   44   Tr[ns(na)] (up, down, total) =   2.66723  2.66723  5.33446
   spin  1
    eigenvalues: 
  0.845  0.848  0.974
    eigenvectors:
  0.000  1.000  0.000
  0.500  0.000  0.500
  0.500  0.000  0.500
    occupations:
  0.848  0.000 -0.000
  0.000  0.910  0.064
 -0.000  0.064  0.910
   spin  2
    eigenvalues: 
  0.845  0.848  0.974
    eigenvectors:
  0.000  1.000  0.000
  0.500  0.000  0.500
  0.500  0.000  0.500
    occupations:
  0.848  0.000 -0.000
  0.000  0.910  0.064
 -0.000  0.064  0.910
atomic mag. moment =    -0.000000
atom   45   Tr[ns(na)] (up, down, total) =   2.66726  2.66726  5.33453
   spin  1
    eigenvalues: 
  0.845  0.848  0.974
    eigenvectors:
  0.000  1.000  0.000
  0.500  0.000  0.500
  0.500  0.000  0.500
    occupations:
  0.848 -0.000  0.000
 -0.000  0.910 -0.064
  0.000 -0.064  0.910
   spin  2
    eigenvalues: 
  0.845  0.848  0.974
    eigenvectors:
  0.000  1.000  0.000
  0.500  0.000  0.500
  0.500  0.000  0.500
    occupations:
  0.848 -0.000  0.000
 -0.000  0.910 -0.064
  0.000 -0.064  0.910
atomic mag. moment =    -0.000000
atom   46   Tr[ns(na)] (up, down, total) =   2.66726  2.66726  5.33453
   spin  1
    eigenvalues: 
  0.845  0.848  0.974
    eigenvectors:
  0.000  1.000  0.000
  0.500  0.000  0.500
  0.500  0.000  0.500
    occupations:
  0.848 -0.000  0.000
 -0.000  0.910 -0.064
  0.000 -0.064  0.910
   spin  2
    eigenvalues: 
  0.845  0.848  0.974
    eigenvectors:
  0.000  1.000  0.000
  0.500  0.000  0.500
  0.500  0.000  0.500
    occupations:
  0.848 -0.000  0.000
 -0.000  0.910 -0.064
  0.000 -0.064  0.910
atomic mag. moment =    -0.000000
atom   47   Tr[ns(na)] (up, down, total) =   2.66723  2.66723  5.33446
   spin  1
    eigenvalues: 
  0.845  0.848  0.974
    eigenvectors:
  0.000  1.000  0.000
  0.500  0.000  0.500
  0.500  0.000  0.500
    occupations:
  0.848  0.000 -0.000
  0.000  0.910  0.064
 -0.000  0.064  0.910
   spin  2
    eigenvalues: 
  0.845  0.848  0.974
    eigenvectors:
  0.000  1.000  0.000
  0.500  0.000  0.500
  0.500  0.000  0.500
    occupations:
  0.848  0.000 -0.000
  0.000  0.910  0.064
 -0.000  0.064  0.910
atomic mag. moment =    -0.000000
atom   48   Tr[ns(na)] (up, down, total) =   2.66723  2.66723  5.33446
   spin  1
    eigenvalues: 
  0.845  0.848  0.974
    eigenvectors:
  0.000  1.000  0.000
  0.500  0.000  0.500
  0.500  0.000  0.500
    occupations:
  0.848 -0.000  0.000
 -0.000  0.910  0.064
  0.000  0.064  0.910
   spin  2
    eigenvalues: 
  0.845  0.848  0.974
    eigenvectors:
  0.000  1.000  0.000
  0.500  0.000  0.500
  0.500  0.000  0.500
    occupations:
  0.848 -0.000  0.000
 -0.000  0.910  0.064
  0.000  0.064  0.910
atomic mag. moment =    -0.000000
N of occupied +U levels = 308.8074019
 --- exit write_ns ---
 Atomic wfc used for LDA+U Projector are NOT orthogonalized
     Starting wfc from file

     total cpu time spent up to now is       96.1 secs

     per-process dynamical memory:   101.7 Mb

     Self-consistent Calculation

     iteration #  1     ecut=    40.00 Ry     beta=0.70
     Davidson diagonalization with overlap
     ethr =  1.13E-09,  avg # of iterations =  8.1
 --- enter write_ns ---
 LDA+U parameters:
U( 1)     =  0.00000000
alpha( 1) = -0.07000000
U( 2)     =  0.00000000
alpha( 2) =  0.00000000
U( 3)     =  0.00000000
alpha( 3) =  0.00000000
atom    1   Tr[ns(na)] (up, down, total) =   4.32610  4.32610  8.65220
   spin  1
    eigenvalues: 
  0.695  0.700  0.973  0.977  0.981
    eigenvectors:
  0.000  0.333  0.000  0.000  0.667
  0.500  0.000  0.500  0.000  0.000
  0.500  0.000  0.500  0.000  0.000
  0.000  0.000  0.000  1.000  0.000
  0.000  0.667  0.000  0.000  0.333
    occupations:
  0.887 -0.000 -0.000 -0.000  0.132
 -0.000  0.834  0.139  0.000  0.000
 -0.000  0.139  0.834  0.000  0.000
 -0.000  0.000  0.000  0.977 -0.000
  0.132  0.000  0.000 -0.000  0.794
   spin  2
    eigenvalues: 
  0.695  0.700  0.973  0.977  0.981
    eigenvectors:
  0.000  0.333  0.000  0.000  0.667
  0.500  0.000  0.500  0.000  0.000
  0.500  0.000  0.500  0.000  0.000
  0.000  0.000  0.000  1.000  0.000
  0.000  0.667  0.000  0.000  0.333
    occupations:
  0.887 -0.000 -0.000 -0.000  0.132
 -0.000  0.834  0.139  0.000  0.000
 -0.000  0.139  0.834  0.000  0.000
 -0.000  0.000  0.000  0.977 -0.000
  0.132  0.000  0.000 -0.000  0.794
atomic mag. moment =     0.000000
atom    2   Tr[ns(na)] (up, down, total) =   4.31531  4.31531  8.63063
   spin  1
    eigenvalues: 
  0.690  0.697  0.972  0.976  0.980
    eigenvectors:
  0.000  0.332  0.000  0.000  0.668
  0.500  0.000  0.500  0.000  0.000
  0.500  0.000  0.500  0.000  0.000
  0.000  0.000  0.000  1.000  0.000
  0.000  0.668  0.000  0.000  0.332
    occupations:
  0.886 -0.000 -0.000 -0.000 -0.134
 -0.000  0.831 -0.141 -0.000 -0.000
 -0.000 -0.141  0.831  0.000 -0.000
 -0.000 -0.000  0.000  0.976 -0.000
 -0.134 -0.000 -0.000 -0.000  0.791
   spin  2
    eigenvalues: 
  0.690  0.697  0.972  0.976  0.980
    eigenvectors:
  0.000  0.332  0.000  0.000  0.668
  0.500  0.000  0.500  0.000  0.000
  0.500  0.000  0.500  0.000  0.000
  0.000  0.000  0.000  1.000  0.000
  0.000  0.668  0.000  0.000  0.332
    occupations:
  0.886 -0.000 -0.000 -0.000 -0.134
 -0.000  0.831 -0.141 -0.000 -0.000
 -0.000 -0.141  0.831  0.000 -0.000
 -0.000 -0.000  0.000  0.976 -0.000
 -0.134 -0.000 -0.000 -0.000  0.791
atomic mag. moment =    -0.000000
atom    3   Tr[ns(na)] (up, down, total) =   4.31696  4.31696  8.63392
   spin  1
    eigenvalues: 
  0.692  0.697  0.972  0.976  0.980
    eigenvectors:
  0.000  0.332  0.000  0.000  0.668
  0.500  0.000  0.500  0.000  0.000
  0.500  0.000  0.500  0.000  0.000
  0.000  0.000  0.000  1.000  0.000
  0.000  0.668  0.000  0.000  0.332
    occupations:
  0.886 -0.000 -0.000 -0.000  0.134
 -0.000  0.832  0.140  0.000  0.000
 -0.000  0.140  0.832  0.000  0.000
 -0.000  0.000  0.000  0.976 -0.000
  0.134  0.000  0.000 -0.000  0.791
   spin  2
    eigenvalues: 
  0.692  0.697  0.972  0.976  0.980
    eigenvectors:
  0.000  0.332  0.000  0.000  0.668
  0.500  0.000  0.500  0.000  0.000
  0.500  0.000  0.500  0.000  0.000
  0.000  0.000  0.000  1.000  0.000
  0.000  0.668  0.000  0.000  0.332
    occupations:
  0.886 -0.000 -0.000 -0.000  0.134
 -0.000  0.832  0.140  0.000  0.000
 -0.000  0.140  0.832  0.000  0.000
 -0.000  0.000  0.000  0.976 -0.000
  0.134  0.000  0.000 -0.000  0.791
atomic mag. moment =     0.000000
atom    4   Tr[ns(na)] (up, down, total) =   4.31531  4.31531  8.63063
   spin  1
    eigenvalues: 
  0.690  0.697  0.972  0.976  0.980
    eigenvectors:
  0.000  0.332  0.000  0.000  0.668
  0.500  0.000  0.500  0.000  0.000
  0.500  0.000  0.500  0.000  0.000
  0.000  0.000  0.000  1.000  0.000
  0.000  0.668  0.000  0.000  0.332
    occupations:
  0.886  0.000  0.000 -0.000 -0.134
  0.000  0.831 -0.141  0.000  0.000
  0.000 -0.141  0.831 -0.000  0.000
 -0.000  0.000 -0.000  0.976 -0.000
 -0.134  0.000  0.000 -0.000  0.791
   spin  2
    eigenvalues: 
  0.690  0.697  0.972  0.976  0.980
    eigenvectors:
  0.000  0.332  0.000  0.000  0.668
  0.500  0.000  0.500  0.000  0.000
  0.500  0.000  0.500  0.000  0.000
  0.000  0.000  0.000  1.000  0.000
  0.000  0.668  0.000  0.000  0.332
    occupations:
  0.886  0.000  0.000 -0.000 -0.134
  0.000  0.831 -0.141  0.000  0.000
  0.000 -0.141  0.831 -0.000  0.000
 -0.000  0.000 -0.000  0.976 -0.000
 -0.134  0.000  0.000 -0.000  0.791
atomic mag. moment =    -0.000000
atom    5   Tr[ns(na)] (up, down, total) =   4.31524  4.31524  8.63047
   spin  1
    eigenvalues: 
  0.690  0.697  0.972  0.976  0.980
    eigenvectors:
  0.000  0.332  0.000  0.000  0.668
  0.500  0.000  0.500  0.000  0.000
  0.500  0.000  0.500  0.000  0.000
  0.000  0.000  0.000  1.000  0.000
  0.000  0.668  0.000  0.000  0.332
    occupations:
  0.886 -0.000 -0.000  0.000  0.134
 -0.000  0.831  0.141  0.000  0.000
 -0.000  0.141  0.831  0.000  0.000
  0.000  0.000  0.000  0.976 -0.000
  0.134  0.000  0.000 -0.000  0.791
   spin  2
    eigenvalues: 
  0.690  0.697  0.972  0.976  0.980
    eigenvectors:
  0.000  0.332  0.000  0.000  0.668
  0.500  0.000  0.500  0.000  0.000
  0.500  0.000  0.500  0.000  0.000
  0.000  0.000  0.000  1.000  0.000
  0.000  0.668  0.000  0.000  0.332
    occupations:
  0.886 -0.000 -0.000  0.000  0.134
 -0.000  0.831  0.141  0.000  0.000
 -0.000  0.141  0.831  0.000  0.000
  0.000  0.000  0.000  0.976 -0.000
  0.134  0.000  0.000 -0.000  0.791
atomic mag. moment =     0.000000
atom    6   Tr[ns(na)] (up, down, total) =   4.31544  4.31544  8.63089
   spin  1
    eigenvalues: 
  0.690  0.697  0.972  0.976  0.980
    eigenvectors:
  0.000  0.332  0.000  0.000  0.668
  0.500  0.000  0.500  0.000  0.000
  0.500  0.000  0.500  0.000  0.000
  0.000  0.000  0.000  1.000  0.000
  0.000  0.668  0.000  0.000  0.332
    occupations:
  0.886 -0.000  0.000 -0.000 -0.133
 -0.000  0.831 -0.141 -0.000 -0.000
  0.000 -0.141  0.831 -0.000  0.000
 -0.000 -0.000 -0.000  0.976 -0.000
 -0.133 -0.000  0.000 -0.000  0.791
   spin  2
    eigenvalues: 
  0.690  0.697  0.972  0.976  0.980
    eigenvectors:
  0.000  0.332  0.000  0.000  0.668
  0.500  0.000  0.500  0.000  0.000
  0.500  0.000  0.500  0.000  0.000
  0.000  0.000  0.000  1.000  0.000
  0.000  0.668  0.000  0.000  0.332
    occupations:
  0.886 -0.000  0.000 -0.000 -0.133
 -0.000  0.831 -0.141 -0.000 -0.000
  0.000 -0.141  0.831 -0.000  0.000
 -0.000 -0.000 -0.000  0.976 -0.000
 -0.133 -0.000  0.000 -0.000  0.791
atomic mag. moment =     0.000000
atom    7   Tr[ns(na)] (up, down, total) =   4.31528  4.31528  8.63056
   spin  1
    eigenvalues: 
  0.690  0.697  0.972  0.976  0.980
    eigenvectors:
  0.000  0.332  0.000  0.000  0.668
  0.500  0.000  0.500  0.000  0.000
  0.500  0.000  0.500  0.000  0.000
  0.000  0.000  0.000  1.000  0.000
  0.000  0.668  0.000  0.000  0.332
    occupations:
  0.886 -0.000 -0.000  0.000  0.134
 -0.000  0.831  0.141  0.000  0.000
 -0.000  0.141  0.831  0.000  0.000
  0.000  0.000  0.000  0.976  0.000
  0.134  0.000  0.000  0.000  0.791
   spin  2
    eigenvalues: 
  0.690  0.697  0.972  0.976  0.980
    eigenvectors:
  0.000  0.332  0.000  0.000  0.668
  0.500  0.000  0.500  0.000  0.000
  0.500  0.000  0.500  0.000  0.000
  0.000  0.000  0.000  1.000  0.000
  0.000  0.668  0.000  0.000  0.332
    occupations:
  0.886 -0.000 -0.000  0.000  0.134
 -0.000  0.831  0.141  0.000  0.000
 -0.000  0.141  0.831  0.000  0.000
  0.000  0.000  0.000  0.976  0.000
  0.134  0.000  0.000  0.000  0.791
atomic mag. moment =     0.000000
atom    8   Tr[ns(na)] (up, down, total) =   4.31544  4.31544  8.63089
   spin  1
    eigenvalues: 
  0.690  0.697  0.972  0.976  0.980
    eigenvectors:
  0.000  0.332  0.000  0.000  0.668
  0.500  0.000  0.500  0.000  0.000
  0.500  0.000  0.500  0.000  0.000
  0.000  0.000  0.000  1.000  0.000
  0.000  0.668  0.000  0.000  0.332
    occupations:
  0.886  0.000 -0.000 -0.000 -0.133
  0.000  0.831 -0.141  0.000  0.000
 -0.000 -0.141  0.831  0.000 -0.000
 -0.000  0.000  0.000  0.976 -0.000
 -0.133  0.000 -0.000 -0.000  0.791
   spin  2
    eigenvalues: 
  0.690  0.697  0.972  0.976  0.980
    eigenvectors:
  0.000  0.332  0.000  0.000  0.668
  0.500  0.000  0.500  0.000  0.000
  0.500  0.000  0.500  0.000  0.000
  0.000  0.000  0.000  1.000  0.000
  0.000  0.668  0.000  0.000  0.332
    occupations:
  0.886  0.000 -0.000 -0.000 -0.133
  0.000  0.831 -0.141  0.000  0.000
 -0.000 -0.141  0.831  0.000 -0.000
 -0.000  0.000  0.000  0.976 -0.000
 -0.133  0.000 -0.000 -0.000  0.791
atomic mag. moment =     0.000000
atom    9   Tr[ns(na)] (up, down, total) =   4.31524  4.31524  8.63047
   spin  1
    eigenvalues: 
  0.690  0.697  0.972  0.976  0.980
    eigenvectors:
  0.000  0.332  0.000  0.000  0.668
  0.500  0.000  0.500  0.000  0.000
  0.500  0.000  0.500  0.000  0.000
  0.000  0.000  0.000  1.000  0.000
  0.000  0.668  0.000  0.000  0.332
    occupations:
  0.886 -0.000 -0.000 -0.000  0.134
 -0.000  0.831  0.141  0.000  0.000
 -0.000  0.141  0.831  0.000  0.000
 -0.000  0.000  0.000  0.976  0.000
  0.134  0.000  0.000  0.000  0.791
   spin  2
    eigenvalues: 
  0.690  0.697  0.972  0.976  0.980
    eigenvectors:
  0.000  0.332  0.000  0.000  0.668
  0.500  0.000  0.500  0.000  0.000
  0.500  0.000  0.500  0.000  0.000
  0.000  0.000  0.000  1.000  0.000
  0.000  0.668  0.000  0.000  0.332
    occupations:
  0.886 -0.000 -0.000 -0.000  0.134
 -0.000  0.831  0.141  0.000  0.000
 -0.000  0.141  0.831  0.000  0.000
 -0.000  0.000  0.000  0.976  0.000
  0.134  0.000  0.000  0.000  0.791
atomic mag. moment =     0.000000
atom   10   Tr[ns(na)] (up, down, total) =   4.31544  4.31544  8.63089
   spin  1
    eigenvalues: 
  0.690  0.697  0.972  0.976  0.980
    eigenvectors:
  0.000  0.332  0.000  0.000  0.668
  0.500  0.000  0.500  0.000  0.000
  0.500  0.000  0.500  0.000  0.000
  0.000  0.000  0.000  1.000  0.000
  0.000  0.668  0.000  0.000  0.332
    occupations:
  0.886  0.000 -0.000 -0.000 -0.133
  0.000  0.831 -0.141  0.000  0.000
 -0.000 -0.141  0.831  0.000 -0.000
 -0.000  0.000  0.000  0.976 -0.000
 -0.133  0.000 -0.000 -0.000  0.791
   spin  2
    eigenvalues: 
  0.690  0.697  0.972  0.976  0.980
    eigenvectors:
  0.000  0.332  0.000  0.000  0.668
  0.500  0.000  0.500  0.000  0.000
  0.500  0.000  0.500  0.000  0.000
  0.000  0.000  0.000  1.000  0.000
  0.000  0.668  0.000  0.000  0.332
    occupations:
  0.886  0.000 -0.000 -0.000 -0.133
  0.000  0.831 -0.141  0.000  0.000
 -0.000 -0.141  0.831  0.000 -0.000
 -0.000  0.000  0.000  0.976 -0.000
 -0.133  0.000 -0.000 -0.000  0.791
atomic mag. moment =     0.000000
atom   11   Tr[ns(na)] (up, down, total) =   4.31528  4.31528  8.63056
   spin  1
    eigenvalues: 
  0.690  0.697  0.972  0.976  0.980
    eigenvectors:
  0.000  0.332  0.000  0.000  0.668
  0.500  0.000  0.500  0.000  0.000
  0.500  0.000  0.500  0.000  0.000
  0.000  0.000  0.000  1.000  0.000
  0.000  0.668  0.000  0.000  0.332
    occupations:
  0.886 -0.000 -0.000 -0.000  0.134
 -0.000  0.831  0.141  0.000  0.000
 -0.000  0.141  0.831  0.000  0.000
 -0.000  0.000  0.000  0.976 -0.000
  0.134  0.000  0.000 -0.000  0.791
   spin  2
    eigenvalues: 
  0.690  0.697  0.972  0.976  0.980
    eigenvectors:
  0.000  0.332  0.000  0.000  0.668
  0.500  0.000  0.500  0.000  0.000
  0.500  0.000  0.500  0.000  0.000
  0.000  0.000  0.000  1.000  0.000
  0.000  0.668  0.000  0.000  0.332
    occupations:
  0.886 -0.000 -0.000 -0.000  0.134
 -0.000  0.831  0.141  0.000  0.000
 -0.000  0.141  0.831  0.000  0.000
 -0.000  0.000  0.000  0.976 -0.000
  0.134  0.000  0.000 -0.000  0.791
atomic mag. moment =     0.000000
atom   12   Tr[ns(na)] (up, down, total) =   4.31544  4.31544  8.63089
   spin  1
    eigenvalues: 
  0.690  0.697  0.972  0.976  0.980
    eigenvectors:
  0.000  0.332  0.000  0.000  0.668
  0.500  0.000  0.500  0.000  0.000
  0.500  0.000  0.500  0.000  0.000
  0.000  0.000  0.000  1.000  0.000
  0.000  0.668  0.000  0.000  0.332
    occupations:
  0.886 -0.000  0.000 -0.000 -0.133
 -0.000  0.831 -0.141 -0.000 -0.000
  0.000 -0.141  0.831 -0.000  0.000
 -0.000 -0.000 -0.000  0.976 -0.000
 -0.133 -0.000  0.000 -0.000  0.791
   spin  2
    eigenvalues: 
  0.690  0.697  0.972  0.976  0.980
    eigenvectors:
  0.000  0.332  0.000  0.000  0.668
  0.500  0.000  0.500  0.000  0.000
  0.500  0.000  0.500  0.000  0.000
  0.000  0.000  0.000  1.000  0.000
  0.000  0.668  0.000  0.000  0.332
    occupations:
  0.886 -0.000  0.000 -0.000 -0.133
 -0.000  0.831 -0.141 -0.000 -0.000
  0.000 -0.141  0.831 -0.000  0.000
 -0.000 -0.000 -0.000  0.976 -0.000
 -0.133 -0.000  0.000 -0.000  0.791
atomic mag. moment =     0.000000
atom   13   Tr[ns(na)] (up, down, total) =   4.31602  4.31602  8.63205
   spin  1
    eigenvalues: 
  0.691  0.697  0.972  0.976  0.980
    eigenvectors:
  0.000  0.332  0.000  0.000  0.668
  0.500  0.000  0.500  0.000  0.000
  0.500  0.000  0.500  0.000  0.000
  0.000  0.000  0.000  1.000  0.000
  0.000  0.668  0.000  0.000  0.332
    occupations:
  0.886 -0.000 -0.000 -0.000  0.134
 -0.000  0.831  0.140  0.000  0.000
 -0.000  0.140  0.831  0.000  0.000
 -0.000  0.000  0.000  0.976 -0.000
  0.134  0.000  0.000 -0.000  0.791
   spin  2
    eigenvalues: 
  0.691  0.697  0.972  0.976  0.980
    eigenvectors:
  0.000  0.332  0.000  0.000  0.668
  0.500  0.000  0.500  0.000  0.000
  0.500  0.000  0.500  0.000  0.000
  0.000  0.000  0.000  1.000  0.000
  0.000  0.668  0.000  0.000  0.332
    occupations:
  0.886 -0.000 -0.000 -0.000  0.134
 -0.000  0.831  0.140  0.000  0.000
 -0.000  0.140  0.831  0.000  0.000
 -0.000  0.000  0.000  0.976 -0.000
  0.134  0.000  0.000 -0.000  0.791
atomic mag. moment =     0.000000
atom   14   Tr[ns(na)] (up, down, total) =   4.31531  4.31531  8.63063
   spin  1
    eigenvalues: 
  0.690  0.697  0.972  0.976  0.980
    eigenvectors:
  0.000  0.332  0.000  0.000  0.668
  0.500  0.000  0.500  0.000  0.000
  0.500  0.000  0.500  0.000  0.000
  0.000  0.000  0.000  1.000  0.000
  0.000  0.668  0.000  0.000  0.332
    occupations:
  0.886  0.000  0.000 -0.000 -0.134
  0.000  0.831 -0.141  0.000  0.000
  0.000 -0.141  0.831 -0.000  0.000
 -0.000  0.000 -0.000  0.976 -0.000
 -0.134  0.000  0.000 -0.000  0.791
   spin  2
    eigenvalues: 
  0.690  0.697  0.972  0.976  0.980
    eigenvectors:
  0.000  0.332  0.000  0.000  0.668
  0.500  0.000  0.500  0.000  0.000
  0.500  0.000  0.500  0.000  0.000
  0.000  0.000  0.000  1.000  0.000
  0.000  0.668  0.000  0.000  0.332
    occupations:
  0.886  0.000  0.000 -0.000 -0.134
  0.000  0.831 -0.141  0.000  0.000
  0.000 -0.141  0.831 -0.000  0.000
 -0.000  0.000 -0.000  0.976 -0.000
 -0.134  0.000  0.000 -0.000  0.791
atomic mag. moment =    -0.000000
atom   15   Tr[ns(na)] (up, down, total) =   4.31564  4.31564  8.63127
   spin  1
    eigenvalues: 
  0.691  0.697  0.972  0.976  0.980
    eigenvectors:
  0.000  0.332  0.000  0.000  0.668
  0.500  0.000  0.500  0.000  0.000
  0.500  0.000  0.500  0.000  0.000
  0.000  0.000  0.000  1.000  0.000
  0.000  0.668  0.000  0.000  0.332
    occupations:
  0.886 -0.000 -0.000 -0.000  0.134
 -0.000  0.831  0.141  0.000  0.000
 -0.000  0.141  0.831  0.000  0.000
 -0.000  0.000  0.000  0.976 -0.000
  0.134  0.000  0.000 -0.000  0.791
   spin  2
    eigenvalues: 
  0.691  0.697  0.972  0.976  0.980
    eigenvectors:
  0.000  0.332  0.000  0.000  0.668
  0.500  0.000  0.500  0.000  0.000
  0.500  0.000  0.500  0.000  0.000
  0.000  0.000  0.000  1.000  0.000
  0.000  0.668  0.000  0.000  0.332
    occupations:
  0.886 -0.000 -0.000 -0.000  0.134
 -0.000  0.831  0.141  0.000  0.000
 -0.000  0.141  0.831  0.000  0.000
 -0.000  0.000  0.000  0.976 -0.000
  0.134  0.000  0.000 -0.000  0.791
atomic mag. moment =     0.000000
atom   16   Tr[ns(na)] (up, down, total) =   4.31531  4.31531  8.63063
   spin  1
    eigenvalues: 
  0.690  0.697  0.972  0.976  0.980
    eigenvectors:
  0.000  0.332  0.000  0.000  0.668
  0.500  0.000  0.500  0.000  0.000
  0.500  0.000  0.500  0.000  0.000
  0.000  0.000  0.000  1.000  0.000
  0.000  0.668  0.000  0.000  0.332
    occupations:
  0.886 -0.000 -0.000 -0.000 -0.134
 -0.000  0.831 -0.141 -0.000 -0.000
 -0.000 -0.141  0.831  0.000 -0.000
 -0.000 -0.000  0.000  0.976 -0.000
 -0.134 -0.000 -0.000 -0.000  0.791
   spin  2
    eigenvalues: 
  0.690  0.697  0.972  0.976  0.980
    eigenvectors:
  0.000  0.332  0.000  0.000  0.668
  0.500  0.000  0.500  0.000  0.000
  0.500  0.000  0.500  0.000  0.000
  0.000  0.000  0.000  1.000  0.000
  0.000  0.668  0.000  0.000  0.332
    occupations:
  0.886 -0.000 -0.000 -0.000 -0.134
 -0.000  0.831 -0.141 -0.000 -0.000
 -0.000 -0.141  0.831  0.000 -0.000
 -0.000 -0.000  0.000  0.976 -0.000
 -0.134 -0.000 -0.000 -0.000  0.791
atomic mag. moment =    -0.000000
atom   17   Tr[ns(na)] (up, down, total) =   2.66684  2.66684  5.33369
   spin  1
    eigenvalues: 
  0.845  0.848  0.974
    eigenvectors:
  0.000  1.000  0.000
  0.500  0.000  0.500
  0.500  0.000  0.500
    occupations:
  0.848 -0.000  0.000
 -0.000  0.909 -0.065
  0.000 -0.065  0.909
   spin  2
    eigenvalues: 
  0.845  0.848  0.974
    eigenvectors:
  0.000  1.000  0.000
  0.500  0.000  0.500
  0.500  0.000  0.500
    occupations:
  0.848 -0.000  0.000
 -0.000  0.909 -0.065
  0.000 -0.065  0.909
atomic mag. moment =    -0.000000
atom   18   Tr[ns(na)] (up, down, total) =   2.66684  2.66684  5.33369
   spin  1
    eigenvalues: 
  0.845  0.848  0.974
    eigenvectors:
  0.000  1.000  0.000
  0.500  0.000  0.500
  0.500  0.000  0.500
    occupations:
  0.848 -0.000  0.000
 -0.000  0.909 -0.065
  0.000 -0.065  0.909
   spin  2
    eigenvalues: 
  0.845  0.848  0.974
    eigenvectors:
  0.000  1.000  0.000
  0.500  0.000  0.500
  0.500  0.000  0.500
    occupations:
  0.848 -0.000  0.000
 -0.000  0.909 -0.065
  0.000 -0.065  0.909
atomic mag. moment =    -0.000000
atom   19   Tr[ns(na)] (up, down, total) =   2.66706  2.66706  5.33412
   spin  1
    eigenvalues: 
  0.845  0.848  0.974
    eigenvectors:
  0.000  1.000  0.000
  0.500  0.000  0.500
  0.500  0.000  0.500
    occupations:
  0.848  0.000  0.000
  0.000  0.910  0.064
  0.000  0.064  0.910
   spin  2
    eigenvalues: 
  0.845  0.848  0.974
    eigenvectors:
  0.000  1.000  0.000
  0.500  0.000  0.500
  0.500  0.000  0.500
    occupations:
  0.848  0.000  0.000
  0.000  0.910  0.064
  0.000  0.064  0.910
atomic mag. moment =    -0.000000
atom   20   Tr[ns(na)] (up, down, total) =   2.66706  2.66706  5.33412
   spin  1
    eigenvalues: 
  0.845  0.848  0.974
    eigenvectors:
  0.000  1.000  0.000
  0.500  0.000  0.500
  0.500  0.000  0.500
    occupations:
  0.848  0.000  0.000
  0.000  0.910  0.064
  0.000  0.064  0.910
   spin  2
    eigenvalues: 
  0.845  0.848  0.974
    eigenvectors:
  0.000  1.000  0.000
  0.500  0.000  0.500
  0.500  0.000  0.500
    occupations:
  0.848  0.000  0.000
  0.000  0.910  0.064
  0.000  0.064  0.910
atomic mag. moment =    -0.000000
atom   21   Tr[ns(na)] (up, down, total) =   2.66697  2.66697  5.33394
   spin  1
    eigenvalues: 
  0.845  0.848  0.974
    eigenvectors:
  0.000  1.000  0.000
  0.500  0.000  0.500
  0.500  0.000  0.500
    occupations:
  0.848 -0.000  0.000
 -0.000  0.910 -0.064
  0.000 -0.064  0.910
   spin  2
    eigenvalues: 
  0.845  0.848  0.974
    eigenvectors:
  0.000  1.000  0.000
  0.500  0.000  0.500
  0.500  0.000  0.500
    occupations:
  0.848 -0.000  0.000
 -0.000  0.910 -0.064
  0.000 -0.064  0.910
atomic mag. moment =    -0.000000
atom   22   Tr[ns(na)] (up, down, total) =   2.66697  2.66697  5.33394
   spin  1
    eigenvalues: 
  0.845  0.848  0.974
    eigenvectors:
  0.000  1.000  0.000
  0.500  0.000  0.500
  0.500  0.000  0.500
    occupations:
  0.848 -0.000  0.000
 -0.000  0.910 -0.064
  0.000 -0.064  0.910
   spin  2
    eigenvalues: 
  0.845  0.848  0.974
    eigenvectors:
  0.000  1.000  0.000
  0.500  0.000  0.500
  0.500  0.000  0.500
    occupations:
  0.848 -0.000  0.000
 -0.000  0.910 -0.064
  0.000 -0.064  0.910
atomic mag. moment =    -0.000000
atom   23   Tr[ns(na)] (up, down, total) =   2.66706  2.66706  5.33412
   spin  1
    eigenvalues: 
  0.845  0.848  0.974
    eigenvectors:
  0.000  1.000  0.000
  0.500  0.000  0.500
  0.500  0.000  0.500
    occupations:
  0.848 -0.000 -0.000
 -0.000  0.910  0.064
 -0.000  0.064  0.910
   spin  2
    eigenvalues: 
  0.845  0.848  0.974
    eigenvectors:
  0.000  1.000  0.000
  0.500  0.000  0.500
  0.500  0.000  0.500
    occupations:
  0.848 -0.000 -0.000
 -0.000  0.910  0.064
 -0.000  0.064  0.910
atomic mag. moment =    -0.000000
atom   24   Tr[ns(na)] (up, down, total) =   2.66706  2.66706  5.33412
   spin  1
    eigenvalues: 
  0.845  0.848  0.974
    eigenvectors:
  0.000  1.000  0.000
  0.500  0.000  0.500
  0.500  0.000  0.500
    occupations:
  0.848 -0.000 -0.000
 -0.000  0.910  0.064
 -0.000  0.064  0.910
   spin  2
    eigenvalues: 
  0.845  0.848  0.974
    eigenvectors:
  0.000  1.000  0.000
  0.500  0.000  0.500
  0.500  0.000  0.500
    occupations:
  0.848 -0.000 -0.000
 -0.000  0.910  0.064
 -0.000  0.064  0.910
atomic mag. moment =    -0.000000
atom   25   Tr[ns(na)] (up, down, total) =   2.66697  2.66697  5.33394
   spin  1
    eigenvalues: 
  0.845  0.848  0.974
    eigenvectors:
  0.000  1.000  0.000
  0.500  0.000  0.500
  0.500  0.000  0.500
    occupations:
  0.848 -0.000  0.000
 -0.000  0.910 -0.064
  0.000 -0.064  0.910
   spin  2
    eigenvalues: 
  0.845  0.848  0.974
    eigenvectors:
  0.000  1.000  0.000
  0.500  0.000  0.500
  0.500  0.000  0.500
    occupations:
  0.848 -0.000  0.000
 -0.000  0.910 -0.064
  0.000 -0.064  0.910
atomic mag. moment =     0.000000
atom   26   Tr[ns(na)] (up, down, total) =   2.66697  2.66697  5.33394
   spin  1
    eigenvalues: 
  0.845  0.848  0.974
    eigenvectors:
  0.000  1.000  0.000
  0.500  0.000  0.500
  0.500  0.000  0.500
    occupations:
  0.848 -0.000  0.000
 -0.000  0.910 -0.064
  0.000 -0.064  0.910
   spin  2
    eigenvalues: 
  0.845  0.848  0.974
    eigenvectors:
  0.000  1.000  0.000
  0.500  0.000  0.500
  0.500  0.000  0.500
    occupations:
  0.848 -0.000  0.000
 -0.000  0.910 -0.064
  0.000 -0.064  0.910
atomic mag. moment =     0.000000
atom   27   Tr[ns(na)] (up, down, total) =   2.66712  2.66712  5.33424
   spin  1
    eigenvalues: 
  0.845  0.848  0.974
    eigenvectors:
  0.000  1.000  0.000
  0.500  0.000  0.500
  0.500  0.000  0.500
    occupations:
  0.848 -0.000  0.000
 -0.000  0.910  0.064
  0.000  0.064  0.910
   spin  2
    eigenvalues: 
  0.845  0.848  0.974
    eigenvectors:
  0.000  1.000  0.000
  0.500  0.000  0.500
  0.500  0.000  0.500
    occupations:
  0.848 -0.000  0.000
 -0.000  0.910  0.064
  0.000  0.064  0.910
atomic mag. moment =     0.000000
atom   28   Tr[ns(na)] (up, down, total) =   2.66708  2.66708  5.33416
   spin  1
    eigenvalues: 
  0.845  0.847  0.974
    eigenvectors:
  0.018  0.982  0.000
  0.491  0.009  0.500
  0.491  0.009  0.500
    occupations:
  0.847  0.000 -0.000
  0.000  0.910  0.065
 -0.000  0.065  0.910
   spin  2
    eigenvalues: 
  0.845  0.847  0.974
    eigenvectors:
  0.018  0.982  0.000
  0.491  0.009  0.500
  0.491  0.009  0.500
    occupations:
  0.847  0.000 -0.000
  0.000  0.910  0.065
 -0.000  0.065  0.910
atomic mag. moment =     0.000000
atom   29   Tr[ns(na)] (up, down, total) =   2.66701  2.66701  5.33402
   spin  1
    eigenvalues: 
  0.845  0.848  0.974
    eigenvectors:
  0.000  1.000  0.000
  0.500  0.000  0.500
  0.500  0.000  0.500
    occupations:
  0.848 -0.000  0.000
 -0.000  0.910 -0.064
  0.000 -0.064  0.910
   spin  2
    eigenvalues: 
  0.845  0.848  0.974
    eigenvectors:
  0.000  1.000  0.000
  0.500  0.000  0.500
  0.500  0.000  0.500
    occupations:
  0.848 -0.000  0.000
 -0.000  0.910 -0.064
  0.000 -0.064  0.910
atomic mag. moment =     0.000000
atom   30   Tr[ns(na)] (up, down, total) =   2.66701  2.66701  5.33402
   spin  1
    eigenvalues: 
  0.845  0.848  0.974
    eigenvectors:
  0.000  1.000  0.000
  0.500  0.000  0.500
  0.500  0.000  0.500
    occupations:
  0.848 -0.000  0.000
 -0.000  0.910 -0.064
  0.000 -0.064  0.910
   spin  2
    eigenvalues: 
  0.845  0.848  0.974
    eigenvectors:
  0.000  1.000  0.000
  0.500  0.000  0.500
  0.500  0.000  0.500
    occupations:
  0.848 -0.000  0.000
 -0.000  0.910 -0.064
  0.000 -0.064  0.910
atomic mag. moment =     0.000000
atom   31   Tr[ns(na)] (up, down, total) =   2.66712  2.66712  5.33424
   spin  1
    eigenvalues: 
  0.845  0.848  0.974
    eigenvectors:
  0.000  1.000  0.000
  0.500  0.000  0.500
  0.500  0.000  0.500
    occupations:
  0.848  0.000 -0.000
  0.000  0.910  0.064
 -0.000  0.064  0.910
   spin  2
    eigenvalues: 
  0.845  0.848  0.974
    eigenvectors:
  0.000  1.000  0.000
  0.500  0.000  0.500
  0.500  0.000  0.500
    occupations:
  0.848  0.000 -0.000
  0.000  0.910  0.064
 -0.000  0.064  0.910
atomic mag. moment =     0.000000
atom   32   Tr[ns(na)] (up, down, total) =   2.66708  2.66708  5.33416
   spin  1
    eigenvalues: 
  0.845  0.847  0.974
    eigenvectors:
  0.018  0.982  0.000
  0.491  0.009  0.500
  0.491  0.009  0.500
    occupations:
  0.847 -0.000  0.000
 -0.000  0.910  0.065
  0.000  0.065  0.910
   spin  2
    eigenvalues: 
  0.845  0.847  0.974
    eigenvectors:
  0.018  0.982  0.000
  0.491  0.009  0.500
  0.491  0.009  0.500
    occupations:
  0.847 -0.000  0.000
 -0.000  0.910  0.065
  0.000  0.065  0.910
atomic mag. moment =     0.000000
atom   33   Tr[ns(na)] (up, down, total) =   2.66697  2.66697  5.33394
   spin  1
    eigenvalues: 
  0.845  0.848  0.974
    eigenvectors:
  0.000  1.000  0.000
  0.500  0.000  0.500
  0.500  0.000  0.500
    occupations:
  0.848 -0.000  0.000
 -0.000  0.910 -0.064
  0.000 -0.064  0.910
   spin  2
    eigenvalues: 
  0.845  0.848  0.974
    eigenvectors:
  0.000  1.000  0.000
  0.500  0.000  0.500
  0.500  0.000  0.500
    occupations:
  0.848 -0.000  0.000
 -0.000  0.910 -0.064
  0.000 -0.064  0.910
atomic mag. moment =     0.000000
atom   34   Tr[ns(na)] (up, down, total) =   2.66697  2.66697  5.33394
   spin  1
    eigenvalues: 
  0.845  0.848  0.974
    eigenvectors:
  0.000  1.000  0.000
  0.500  0.000  0.500
  0.500  0.000  0.500
    occupations:
  0.848 -0.000  0.000
 -0.000  0.910 -0.064
  0.000 -0.064  0.910
   spin  2
    eigenvalues: 
  0.845  0.848  0.974
    eigenvectors:
  0.000  1.000  0.000
  0.500  0.000  0.500
  0.500  0.000  0.500
    occupations:
  0.848 -0.000  0.000
 -0.000  0.910 -0.064
  0.000 -0.064  0.910
atomic mag. moment =     0.000000
atom   35   Tr[ns(na)] (up, down, total) =   2.66708  2.66708  5.33416
   spin  1
    eigenvalues: 
  0.845  0.847  0.974
    eigenvectors:
  0.018  0.982  0.000
  0.491  0.009  0.500
  0.491  0.009  0.500
    occupations:
  0.847 -0.000  0.000
 -0.000  0.910  0.065
  0.000  0.065  0.910
   spin  2
    eigenvalues: 
  0.845  0.847  0.974
    eigenvectors:
  0.018  0.982  0.000
  0.491  0.009  0.500
  0.491  0.009  0.500
    occupations:
  0.847 -0.000  0.000
 -0.000  0.910  0.065
  0.000  0.065  0.910
atomic mag. moment =     0.000000
atom   36   Tr[ns(na)] (up, down, total) =   2.66712  2.66712  5.33424
   spin  1
    eigenvalues: 
  0.845  0.848  0.974
    eigenvectors:
  0.000  1.000  0.000
  0.500  0.000  0.500
  0.500  0.000  0.500
    occupations:
  0.848  0.000 -0.000
  0.000  0.910  0.064
 -0.000  0.064  0.910
   spin  2
    eigenvalues: 
  0.845  0.848  0.974
    eigenvectors:
  0.000  1.000  0.000
  0.500  0.000  0.500
  0.500  0.000  0.500
    occupations:
  0.848  0.000 -0.000
  0.000  0.910  0.064
 -0.000  0.064  0.910
atomic mag. moment =     0.000000
atom   37   Tr[ns(na)] (up, down, total) =   2.66701  2.66701  5.33402
   spin  1
    eigenvalues: 
  0.845  0.848  0.974
    eigenvectors:
  0.000  1.000  0.000
  0.500  0.000  0.500
  0.500  0.000  0.500
    occupations:
  0.848 -0.000  0.000
 -0.000  0.910 -0.064
  0.000 -0.064  0.910
   spin  2
    eigenvalues: 
  0.845  0.848  0.974
    eigenvectors:
  0.000  1.000  0.000
  0.500  0.000  0.500
  0.500  0.000  0.500
    occupations:
  0.848 -0.000  0.000
 -0.000  0.910 -0.064
  0.000 -0.064  0.910
atomic mag. moment =     0.000000
atom   38   Tr[ns(na)] (up, down, total) =   2.66701  2.66701  5.33402
   spin  1
    eigenvalues: 
  0.845  0.848  0.974
    eigenvectors:
  0.000  1.000  0.000
  0.500  0.000  0.500
  0.500  0.000  0.500
    occupations:
  0.848 -0.000  0.000
 -0.000  0.910 -0.064
  0.000 -0.064  0.910
   spin  2
    eigenvalues: 
  0.845  0.848  0.974
    eigenvectors:
  0.000  1.000  0.000
  0.500  0.000  0.500
  0.500  0.000  0.500
    occupations:
  0.848 -0.000  0.000
 -0.000  0.910 -0.064
  0.000 -0.064  0.910
atomic mag. moment =     0.000000
atom   39   Tr[ns(na)] (up, down, total) =   2.66708  2.66708  5.33416
   spin  1
    eigenvalues: 
  0.845  0.847  0.974
    eigenvectors:
  0.018  0.982  0.000
  0.491  0.009  0.500
  0.491  0.009  0.500
    occupations:
  0.847  0.000 -0.000
  0.000  0.910  0.065
 -0.000  0.065  0.910
   spin  2
    eigenvalues: 
  0.845  0.847  0.974
    eigenvectors:
  0.018  0.982  0.000
  0.491  0.009  0.500
  0.491  0.009  0.500
    occupations:
  0.847  0.000 -0.000
  0.000  0.910  0.065
 -0.000  0.065  0.910
atomic mag. moment =     0.000000
atom   40   Tr[ns(na)] (up, down, total) =   2.66712  2.66712  5.33424
   spin  1
    eigenvalues: 
  0.845  0.848  0.974
    eigenvectors:
  0.000  1.000  0.000
  0.500  0.000  0.500
  0.500  0.000  0.500
    occupations:
  0.848 -0.000  0.000
 -0.000  0.910  0.064
  0.000  0.064  0.910
   spin  2
    eigenvalues: 
  0.845  0.848  0.974
    eigenvectors:
  0.000  1.000  0.000
  0.500  0.000  0.500
  0.500  0.000  0.500
    occupations:
  0.848 -0.000  0.000
 -0.000  0.910  0.064
  0.000  0.064  0.910
atomic mag. moment =     0.000000
atom   41   Tr[ns(na)] (up, down, total) =   2.66709  2.66709  5.33417
   spin  1
    eigenvalues: 
  0.845  0.848  0.974
    eigenvectors:
  0.000  1.000  0.000
  0.500  0.000  0.500
  0.500  0.000  0.500
    occupations:
  0.848 -0.000  0.000
 -0.000  0.910 -0.064
  0.000 -0.064  0.910
   spin  2
    eigenvalues: 
  0.845  0.848  0.974
    eigenvectors:
  0.000  1.000  0.000
  0.500  0.000  0.500
  0.500  0.000  0.500
    occupations:
  0.848 -0.000  0.000
 -0.000  0.910 -0.064
  0.000 -0.064  0.910
atomic mag. moment =    -0.000000
atom   42   Tr[ns(na)] (up, down, total) =   2.66709  2.66709  5.33417
   spin  1
    eigenvalues: 
  0.845  0.848  0.974
    eigenvectors:
  0.000  1.000  0.000
  0.500  0.000  0.500
  0.500  0.000  0.500
    occupations:
  0.848 -0.000  0.000
 -0.000  0.910 -0.064
  0.000 -0.064  0.910
   spin  2
    eigenvalues: 
  0.845  0.848  0.974
    eigenvectors:
  0.000  1.000  0.000
  0.500  0.000  0.500
  0.500  0.000  0.500
    occupations:
  0.848 -0.000  0.000
 -0.000  0.910 -0.064
  0.000 -0.064  0.910
atomic mag. moment =    -0.000000
atom   43   Tr[ns(na)] (up, down, total) =   2.66706  2.66706  5.33412
   spin  1
    eigenvalues: 
  0.845  0.848  0.974
    eigenvectors:
  0.000  1.000  0.000
  0.500  0.000  0.500
  0.500  0.000  0.500
    occupations:
  0.848 -0.000 -0.000
 -0.000  0.910  0.064
 -0.000  0.064  0.910
   spin  2
    eigenvalues: 
  0.845  0.848  0.974
    eigenvectors:
  0.000  1.000  0.000
  0.500  0.000  0.500
  0.500  0.000  0.500
    occupations:
  0.848 -0.000 -0.000
 -0.000  0.910  0.064
 -0.000  0.064  0.910
atomic mag. moment =    -0.000000
atom   44   Tr[ns(na)] (up, down, total) =   2.66706  2.66706  5.33412
   spin  1
    eigenvalues: 
  0.845  0.848  0.974
    eigenvectors:
  0.000  1.000  0.000
  0.500  0.000  0.500
  0.500  0.000  0.500
    occupations:
  0.848 -0.000 -0.000
 -0.000  0.910  0.064
 -0.000  0.064  0.910
   spin  2
    eigenvalues: 
  0.845  0.848  0.974
    eigenvectors:
  0.000  1.000  0.000
  0.500  0.000  0.500
  0.500  0.000  0.500
    occupations:
  0.848 -0.000 -0.000
 -0.000  0.910  0.064
 -0.000  0.064  0.910
atomic mag. moment =    -0.000000
atom   45   Tr[ns(na)] (up, down, total) =   2.66714  2.66714  5.33428
   spin  1
    eigenvalues: 
  0.845  0.848  0.974
    eigenvectors:
  0.000  1.000  0.000
  0.500  0.000  0.500
[...]
    12.5430  12.5886  12.5888  12.6260  12.6401  12.6411  12.7586  13.5205
    13.5273  13.5447  13.8418  13.8418  14.1880  14.4017  14.5177  15.0524
    15.0526  15.0968  15.2838  15.2907  15.2907  15.2920  15.3434  15.3449
    15.3454  15.4703  15.4707  15.4980  15.5091  15.8007  15.8014  16.4194
    16.9366  18.5636  18.5649  19.8102  20.3052  20.3062  20.7966  20.9898
    21.2403  21.3077  21.3323  21.4137  21.4463  21.5527  21.5533  21.6325
    21.6711  21.6726  21.9133  21.9154  21.9900  22.1681  22.4208  22.4222
    22.4828  22.4850  22.6559  22.8145  22.8150  22.9003  23.6101  23.7615
    23.7798  24.2766  24.5672  24.6683  24.6686  24.9427  24.9436  25.2781
    25.3229  25.3931  25.4134  25.4562  25.4784  25.4786  25.6876  25.9267
    25.9271  26.0935  26.1776  26.3644  26.3653  26.4090  26.4090  26.4669
    26.7846  27.1377  27.1508  27.2387  27.2389  27.5206  27.7507  27.7514
    27.8495  27.8506  27.9182  27.9187  27.9333  28.3712  28.4341  28.6440
    28.6985  28.9249  28.9262  28.9790  29.2960  29.2978  29.4406  29.4411
    29.5295  29.6032  29.6401  29.6852  29.9551  29.9555  30.1035  30.1493
    30.2337  30.2363  30.3076  30.3093  30.3466  30.3763  30.3851  30.3858
    30.3864  30.4053  30.4096  30.4194  30.4195  30.4220  30.4243  30.4243
    30.4268  30.4292  30.4636  30.6040  30.7283  30.8725  30.9034  31.2237
    31.3993  31.3996  31.5045  31.7607  32.0580  32.0589  32.1424  32.4144
    32.4150  32.4577  32.4591  32.5571  32.6332  32.8055  33.1172  33.1180
    33.2977  33.3590  33.6219  33.7370  33.7381  33.7449  33.8224  33.9636
    34.1600  34.1610  34.4510  34.4517  34.4859  34.5086  34.5088  34.7884
    35.0902  35.1261  35.1311  35.2254  35.2259  35.3790  35.4596  35.4608
    35.8962  35.9513  36.2008  36.4780  36.4788  36.5378  36.5393  36.5431
    36.5982  36.8223  37.2316  37.2608  37.2614  37.5810  37.5827  37.8261
    37.9062  37.9079  37.9901  37.9904  38.1247  38.1247  38.1708  38.3701
    38.4105  38.4115  38.4631  38.4791  38.6696  38.8761  38.9669  38.9960
    38.9965  39.0359  39.0574  39.1047  39.1345  39.2504  39.2549  39.2720
    39.2726  39.2866  39.7020  39.7020  39.8001  39.9673  40.1562  40.2388
    40.3466  40.3473  40.3894  40.4070  40.4074  40.4557  40.4903  40.7153
    40.7165  41.0167  41.0334  41.0336  41.0487  41.1009  41.1020  41.1897
    41.3554  41.3913  41.3913  41.4546  41.5337  42.0889  42.0894  42.3881
    42.4157  42.4163  42.4169  42.7859  43.0148  43.0161  43.0899  43.1415
    43.1638  43.1733  43.2315  43.3034  43.3424  43.4187  43.4201  43.4581
    43.5412  43.7029  43.7037  43.8506  43.8527  43.9723  43.9723  44.0157
    44.0162  44.0165  44.0550  44.1463  44.1607  44.3931  44.3948  44.4628
    44.6214  44.7682  44.8798  44.8837  45.0376  45.1820  45.2902  45.2906
    45.3248  45.3272  45.8293  45.8295  45.9238  45.9632  45.9635  46.0458
    46.0659  46.1601  46.2227  46.2236  46.2695  46.2701  46.2819  46.2826
    46.3371  46.4151  46.4167  46.5331  46.5962  46.6100  46.6887  46.6892
    46.7609  46.7936  46.7990  46.9240  46.9842  46.9843  46.9886  47.0167
    47.0182  47.0583  47.4023  47.4030  47.4317  47.5348  47.5348  47.6819
    47.8005  47.9011  47.9117  47.9119  47.9652  47.9664  48.0171  48.1950
    48.1951  48.2785  48.5040  48.6244  48.6250  48.6660  48.6858  48.6861
    48.9328  48.9362  48.9899  49.1112  49.2783  49.2892  49.2905  49.4061
    49.4071  49.5057  49.5071  49.7277  49.7481  49.8922  50.0833  50.1109
    50.1125  50.1920  50.1993  50.1994  50.3797  50.3914  50.4546  50.4576
    50.5437  50.5439  50.5860  50.7109  50.8637  50.8901  50.8902  51.2104
    51.2108  51.2809  51.3532  51.5245  51.5251  51.6557  51.6565  51.6858
    51.7302  51.9953  51.9971  52.1221  52.1223  52.3262  52.3265  52.4056
    52.5105  52.5114  52.6571  52.6578  52.6696  52.8313  52.9262  53.0073
    53.0541  53.0602  53.2605  53.2658  53.2668  53.3770  53.3773  53.4026
    53.4080  53.5341  53.6179  53.8714  53.9386  54.0255  54.0643  54.0643
    54.0678  54.0688  54.1387  54.1782  54.2292  54.2298  54.4142  54.4152
    54.7656  54.7884  55.0981  55.0991  55.1241  55.1288  55.3565  55.4543
    55.5929  56.1104  56.1461  56.1483  56.2799  56.2804  56.3152  56.3153

          k =-0.2500 0.2500-0.3553 ( 15707 PWs)   bands (ev):

   -41.9228 -41.9224 -41.9221 -41.9216 -41.9213 -41.9213 -41.9206 -41.9089
   -41.8855 -41.8841 -41.8835 -41.8826 -41.8818 -41.8815 -41.8800 -41.8524
   -41.7124 -41.7120 -41.7117 -41.7117 -41.7115 -41.7114 -41.7113 -41.7101
   -41.7093 -41.7091 -41.7089 -41.7089 -41.7089 -41.7085 -41.7085 -41.6688
   -41.6055 -41.6055 -41.6054 -41.6054 -41.6052 -41.6046 -41.6044 -41.6019
   -41.6005 -41.6005 -41.6003 -41.6002 -41.6002 -41.6001 -41.6001 -41.5605
    -7.5878  -7.2429  -7.2427  -7.1491  -6.9595  -6.8475  -6.7693  -6.7692
    -6.6710  -6.6708  -6.6174  -6.5951  -6.5034  -6.4533  -6.4513  -6.4027
    -6.2586  -6.2585  -6.2491  -6.2136  -6.2085  -6.2064  -6.1820  -6.1466
    -6.1291  -6.1269  -6.0250  -5.9719  -5.9719  -5.9578  -5.9121  -5.8297
     3.5154   3.5175   3.9565   3.9618   3.9632   3.9664   4.4376   4.4934
     4.6014   4.6319   4.6323   4.7423   4.7757   4.7796   4.7833   4.7841
     4.8195   4.8697   4.8705   4.8852   4.9102   4.9319   4.9365   4.9688
     4.9712   5.0074   5.0891   5.1383   5.1954   5.1957   5.2338   5.5801
     5.6674   5.7667   5.9173   5.9175   5.9571   6.0759   6.2177   6.3701
     6.3732   6.3772   6.3773   6.4608   6.4621   6.8081   6.8122   6.8666
     6.9692   7.0190   7.1618   7.1628   7.1809   7.1849   7.1850   7.1888
     7.3128   7.3687   7.4053   7.4789   7.5000   7.5010   7.5941   7.6141
     7.6145   7.7147   7.7468   7.7471   7.8948   7.9617   7.9850   7.9871
     8.0033   8.0675   8.0711   8.1489   8.3040   8.3580   8.4884   8.4951
     8.4972   8.6070   8.7333   8.7598   8.7881   8.9086   9.0014   9.0106
     9.2411   9.2411   9.3132   9.3172   9.3193   9.5462   9.5586   9.5599
     9.5788   9.5863   9.6376   9.7366   9.8347   9.8391   9.8682   9.9088
     9.9969   9.9970  10.1144  10.1148  10.1577  10.1880  10.1881  10.2920
    10.3331  10.3656  10.3672  10.4037  10.4662  10.5257  10.5792  10.5794
    10.6680  10.7441  10.8156  10.8158  10.8594  10.8603  11.0393  11.3949
    11.4153  11.4220  11.4226  11.6884  11.8580  11.9985  12.0757  12.1150
    12.1152  12.1181  12.1181  12.2268  12.3640  12.3640  12.3845  12.4592
    12.4593  12.6379  12.7681  12.8816  12.9707  12.9715  12.9730  13.7595
    13.7680  13.7859  13.9306  13.9306  14.0691  14.3834  14.4451  14.4455
    14.4943  14.7839  14.9327  14.9334  15.0343  15.1242  15.1373  15.1799
    15.1804  15.2328  15.2600  15.5852  15.5856  15.7520  15.7526  16.2200
    17.4354  18.9260  18.9272  20.0012  20.0692  20.6258  20.6269  20.7556
    20.7565  20.9279  20.9992  21.4768  21.5233  21.7146  21.7407  21.9247
    21.9268  22.0758  22.0773  22.2034  22.2530  22.5154  22.5857  22.6958
    22.6978  22.7085  22.7094  22.9120  23.0976  23.0988  23.4570  23.8134
    23.9121  24.0317  24.4084  24.4089  24.5175  25.1981  25.1984  25.2101
    25.3107  25.3112  25.3256  25.4465  25.5782  25.7606  25.7690  25.9019
    25.9023  25.9573  26.3733  26.3815  26.4731  26.4736  26.6030  26.6031
    26.8636  26.9147  27.0349  27.0427  27.0428  27.2256  27.3626  27.3629
    27.4926  27.4929  27.8920  27.9220  27.9760  28.0865  28.0874  28.2121
    28.4142  28.4563  28.4572  28.5136  28.5140  28.6525  28.7374  28.7512
    28.9642  28.9879  29.2154  29.2160  29.7004  29.7024  29.8286  30.2439
    30.2471  30.3665  30.3782  30.3792  30.3798  30.3836  30.3897  30.3932
    30.3978  30.4019  30.4111  30.4170  30.4178  30.4296  30.4420  30.4933
    30.5057  30.7640  30.8582  30.9598  30.9598  31.3379  31.4003  31.6442
    31.6699  31.6705  31.8778  31.8787  32.0813  32.3716  32.3719  32.5024
    32.5078  32.7331  32.7472  32.7485  32.7685  33.0621  33.3135  33.4724
    33.5698  33.5702  33.6460  33.8005  33.8373  34.1042  34.1348  34.3416
    34.3812  34.3813  34.5190  34.5689  34.6344  34.6346  34.7659  34.7660
    34.8243  35.1945  35.2843  35.2849  35.5186  35.6630  35.6894  35.7370
    36.0693  36.0706  36.1745  36.1750  36.1884  36.2949  36.2953  36.5254
    36.6802  36.7834  36.7835  37.4172  37.4179  37.4764  37.4771  37.5265
    37.5521  37.5675  37.7091  38.0122  38.0126  38.0356  38.0726  38.0726
    38.2201  38.2863  38.5370  38.5370  38.6188  38.7197  38.7391  38.7675
    38.7945  38.9065  38.9069  38.9788  39.1030  39.1032  39.1453  39.1474
    39.3476  39.3546  39.4065  39.4067  39.4301  39.5285  39.7216  39.7216
    39.7777  39.9653  40.2218  40.2871  40.5398  40.5399  40.5449  40.7286
    40.7355  40.7522  40.7522  40.7570  40.8254  40.8265  41.4497  41.4498
    41.5657  41.6474  41.7821  41.7822  41.9239  42.0038  42.0047  42.3772
    42.5136  42.6462  42.9472  42.9474  42.9999  43.0002  43.1386  43.1994
    43.2531  43.2543  43.2672  43.3911  43.4425  43.4426  43.5956  43.6657
    43.6744  43.6903  43.7113  43.9760  43.9948  43.9960  44.0652  44.1117
    44.2030  44.2954  44.2955  44.5786  44.5790  44.6366  44.8393  44.8398
    45.0847  45.0938  45.1348  45.1359  45.1441  45.1687  45.2141  45.2958
    45.4017  45.4735  45.4758  45.6072  45.6086  45.7390  45.8012  45.8571
    45.8580  45.8787  45.9523  46.0481  46.0485  46.0714  46.0719  46.3264
    46.4490  46.4706  46.4713  46.5310  46.6048  46.6307  46.6315  46.6915
    47.0718  47.0923  47.0927  47.1024  47.1033  47.2028  47.2658  47.2944
    47.4181  47.4188  47.4295  47.4299  47.6351  47.6888  47.8630  47.8638
    48.1212  48.1216  48.1218  48.1902  48.1912  48.2504  48.2509  48.4091
    48.4102  48.4113  48.4726  48.5119  48.5238  48.6449  48.6978  48.9846
    49.1041  49.1045  49.1695  49.2187  49.2293  49.2293  49.2545  49.2961
    49.3614  49.4039  49.5557  49.5801  49.5803  49.6268  49.6279  49.8306
    49.8937  50.0739  50.2763  50.3904  50.4918  50.4928  50.5069  50.5070
    50.6336  50.7311  50.7775  50.8504  50.8511  50.9269  50.9276  50.9507
    51.0990  51.0993  51.1326  51.3856  51.4214  51.6104  51.6454  51.7648
    51.7663  51.8570  51.8737  51.8742  52.3018  52.3019  52.3668  52.3802
    52.4410  52.4682  52.5433  52.6029  52.7121  52.7964  52.7965  52.9313
    53.1185  53.1191  53.2685  53.3166  53.3418  53.3961  53.3969  53.5995
    53.5995  53.7910  53.7922  54.0536  54.0537  54.1225  54.1313  54.1830
    54.1921  54.2560  54.3033  54.3242  54.3246  54.3635  54.4710  54.4713
    54.9408  55.0711  55.0729  55.0802  55.1112  55.1122  55.2212  55.2220
    55.2308  55.5726  55.6428  55.8203  55.8207  55.9665  55.9674  55.9964

          k =-0.2500 0.2500 0.7105 ( 15684 PWs)   bands (ev):

   -41.9046 -41.9043 -41.9034 -41.9033 -41.9031 -41.9028 -41.9025 -41.9021
   -41.9018 -41.9015 -41.9015 -41.9014 -41.9010 -41.9001 -41.8997 -41.8604
   -41.7110 -41.7108 -41.7107 -41.7103 -41.7103 -41.7103 -41.7103 -41.7103
   -41.7103 -41.7100 -41.7100 -41.7099 -41.7099 -41.7099 -41.7099 -41.6688
   -41.6031 -41.6031 -41.6030 -41.6029 -41.6029 -41.6028 -41.6028 -41.6028
   -41.6028 -41.6025 -41.6024 -41.6023 -41.6023 -41.6022 -41.6018 -41.5606
    -7.2542  -7.2537  -6.9597  -6.9595  -6.9592  -6.9588  -6.8798  -6.8791
    -6.7174  -6.7161  -6.5380  -6.5380  -6.5376  -6.5374  -6.4573  -6.4548
    -6.2683  -6.2646  -6.2645  -6.2642  -6.1627  -6.1602  -6.1121  -6.1081
    -6.1081  -6.1080  -6.1027  -6.1010  -6.0661  -6.0655  -5.9919  -5.9912
     3.9483   3.9504   3.9634   3.9657   4.2977   4.2992   4.3061   4.3081
     4.3086   4.3086   4.3156   4.3164   4.8713   4.8755   4.8757   4.8758
     5.0041   5.0074   5.1256   5.1273   5.2071   5.2095   5.2155   5.2189
     5.2190   5.2198   5.3847   5.3849   5.3850   5.3862   5.4232   5.4251
     5.6045   5.6127   5.6127   5.6129   5.9453   5.9458   6.1770   6.1772
     6.1773   6.1774   6.1928   6.1934   6.2138   6.2181   6.7037   6.7042
     6.8338   6.8341   6.9318   6.9365   6.9366   6.9367   7.1456   7.1462
     7.1475   7.1476   7.2819   7.2820   7.7537   7.7539   7.7551   7.7557
     7.7674   7.7679   7.7777   7.7794   7.8019   7.8060   7.8317   7.8353
     7.9290   7.9295   7.9311   7.9313   8.1649   8.1662   8.3762   8.3764
     8.4445   8.4456   8.6075   8.6076   8.6967   8.6999   8.7000   8.7004
     9.1642   9.1651   9.2251   9.2262   9.2278   9.2284   9.2869   9.2883
     9.7406   9.7410   9.7689   9.7693  10.2860  10.2937  10.2937  10.2944
    10.2983  10.3000  10.3763  10.3794  10.4621  10.4625  10.4627  10.4628
    10.5054  10.5057  10.6089  10.6089  10.6090  10.6092  10.6885  10.6896
    10.8291  10.8295  10.9697  10.9714  10.9715  10.9719  11.2444  11.2448
    11.6725  11.6732  11.7786  11.7786  11.7788  11.7789  11.8327  11.8336
    11.9019  11.9022  12.0072  12.0077  12.0079  12.0080  12.3451  12.3451
    13.3108  13.3112  13.3112  13.3115  13.3671  13.3674  13.7020  13.7024
    13.7025  13.7033  13.7335  13.7342  13.9217  13.9222  14.2821  14.2826
    14.3647  14.3648  14.3948  14.3949  14.8090  14.8091  14.8093  14.8097
    15.0661  15.0664  15.6635  15.6636  15.6639  15.6642  15.6956  15.6958
    18.6303  18.6316  19.7592  19.7597  19.7597  19.7614  20.4539  20.4555
    21.2291  21.2301  21.2856  21.2859  21.2861  21.2884  22.2558  22.2568
    22.3485  22.3505  22.5944  22.5955  22.8241  22.8246  22.8602  22.8606
    22.8606  22.8629  22.9843  22.9859  23.0346  23.0347  23.0353  23.0380
    24.4272  24.4281  24.6502  24.6504  24.6521  24.6522  24.6533  24.6539
    25.1460  25.1468  25.6232  25.6233  25.6238  25.6243  25.9553  25.9565
    26.2109  26.2119  26.2731  26.2736  26.6896  26.6903  26.6905  26.6907
    26.9948  26.9954  26.9962  26.9963  27.0170  27.0175  27.1286  27.1292
    27.3452  27.3457  27.4217  27.4218  27.4224  27.4225  27.5164  27.5177
    27.7475  27.7485  28.3637  28.3639  28.3650  28.3652  28.5773  28.5780
    28.5828  28.5841  29.1637  29.1641  29.1642  29.1663  30.3748  30.3766
    30.3808  30.3811  30.3814  30.3887  30.3899  30.3919  30.3939  30.4043
    30.4052  30.4053  30.4054  30.4082  30.4162  30.4407  30.7100  30.7101
    30.7102  30.7132  30.8320  30.8326  31.1421  31.1425  31.6199  31.6204
    31.6209  31.6210  31.7770  31.7787  32.2743  32.2762  32.2881  32.2882
    33.0404  33.0414  33.0415  33.0417  33.1918  33.1920  33.6815  33.6821
    33.7810  33.7813  34.5156  34.5158  34.5162  34.5163  34.5978  34.5992
    34.6463  34.6472  34.6621  34.6623  34.7245  34.7256  34.8147  34.8149
    34.8152  34.8168  35.6441  35.6448  35.6686  35.6686  35.6691  35.6696
    35.7535  35.7539  35.7543  35.7543  35.9574  35.9581  37.2269  37.2271
    37.2272  37.2273  37.3208  37.3214  37.4386  37.4386  37.4839  37.4843
    37.5249  37.5249  37.5250  37.5254  37.5535  37.5549  37.8348  37.8348
    37.8483  37.8483  38.0598  38.0605  38.1192  38.1195  38.3628  38.3633
    38.3636  38.3647  38.5175  38.5176  38.5177  38.5177  38.7017  38.7029
    39.2306  39.2311  39.3703  39.3704  39.3712  39.3725  39.8322  39.8324
    40.3882  40.3891  40.4813  40.4831  40.7074  40.7077  40.8639  40.8642
    40.8645  40.8653  40.9339  40.9349  41.5107  41.5115  41.6151  41.6152
    41.6156  41.6175  41.6298  41.6303  41.8746  41.8747  41.8749  41.8752
    42.7080  42.7084  42.8496  42.8501  42.8506  42.8508  42.8872  42.8877
    43.3096  43.3097  43.3097  43.3097  43.3271  43.3273  43.6477  43.6481
    43.7998  43.8024  43.9716  43.9717  44.1622  44.1633  44.2943  44.2946
    44.2950  44.2958  44.6278  44.6280  44.6281  44.6282  44.7125  44.7127
    44.8199  44.8200  45.1616  45.1632  45.1748  45.1752  45.1755  45.1760
    45.6071  45.6077  45.6335  45.6338  45.7146  45.7151  45.7157  45.7166
    45.9700  45.9701  46.0041  46.0063  46.0721  46.0721  46.0729  46.0732
    46.7646  46.7651  46.8109  46.8110  46.8114  46.8118  46.8450  46.8459
    47.1567  47.1578  47.4543  47.4560  47.5545  47.5549  47.5552  47.5569
    47.7273  47.7295  47.8577  47.8580  47.8590  47.8593  48.0479  48.0479
    48.0636  48.0641  48.1940  48.1941  48.1944  48.1945  48.3604  48.3611
    48.4061  48.4068  48.6650  48.6652  48.6664  48.6675  49.0303  49.0315
    49.1711  49.1712  49.2603  49.2604  49.2607  49.2609  49.4935  49.4949
    49.6365  49.6369  49.6373  49.6376  49.7315  49.7316  49.7781  49.7789
    49.9138  49.9139  49.9772  49.9775  49.9781  49.9789  50.5890  50.5892
    50.5896  50.5901  50.6207  50.6222  50.8410  50.8416  51.0424  51.0428
    51.1537  51.1551  51.3108  51.3110  51.3112  51.3112  51.7429  51.7433
    52.1129  52.1131  52.2374  52.2376  52.2378  52.2389  52.3523  52.3525
    52.5473  52.5474  52.8857  52.8864  52.9223  52.9232  52.9233  52.9253
    52.9657  52.9664  53.1269  53.1275  53.5653  53.5653  53.7404  53.7404
    53.7405  53.7405  53.7796  53.7798  53.7801  53.7804  53.9628  53.9629
    54.0227  54.0231  54.4506  54.4508  54.4542  54.4544  54.4545  54.4548
    54.7700  54.7709  54.7711  54.7712  54.7911  54.7918  55.2212  55.2213
    55.2827  55.2828  55.3919  55.3926  55.6158  55.6158  55.6163  55.6168

     the Fermi energy is    12.4861 ev

!    total energy              =   -4359.56447412 Ry
     Harris-Foulkes estimate   =   -4359.56447425 Ry
     estimated scf accuracy    <       0.00000013 Ry

     The total energy is the sum of the following terms:

     one-electron contribution =   -1092.73257363 Ry
     hartree contribution      =     841.63315812 Ry
     xc contribution           =   -1097.30429684 Ry
     ewald contribution        =   -3011.11594880 Ry
     Hubbard energy            =      -0.04444745 Ry
     smearing contrib. (-TS)   =      -0.00036552 Ry

     total magnetization       =     0.00 Bohr mag/cell
     absolute magnetization    =     0.00 Bohr mag/cell

     convergence has been achieved in   8 iterations

     Writing output data file pwscf.save

     init_run     :     61.51s CPU     95.42s WALL (       1 calls)
     electrons    :  16386.40s CPU  19625.62s WALL (       1 calls)

     Called by init_run:
     wfcinit      :     47.51s CPU     79.69s WALL (       1 calls)
     potinit      :      1.26s CPU      2.26s WALL (       1 calls)

     Called by electrons:
     c_bands      :  15227.82s CPU  17779.39s WALL (       8 calls)
     sum_band     :    971.50s CPU   1627.01s WALL (       8 calls)
     v_of_rho     :      5.88s CPU      8.95s WALL (       9 calls)
     newd         :    189.12s CPU    211.18s WALL (       9 calls)
     mix_rho      :      0.94s CPU      1.56s WALL (       8 calls)

     Called by c_bands:
     init_us_2    :      7.47s CPU      7.64s WALL (     714 calls)
     cegterg      :  15207.65s CPU  17521.84s WALL (     336 calls)

     Called by *egterg:
     h_psi        :   3414.51s CPU   5032.67s WALL (    1097 calls)
     s_psi        :    279.66s CPU    280.15s WALL (    1139 calls)
     g_psi        :      3.57s CPU      3.57s WALL (     761 calls)
     cdiaghg      :   9492.98s CPU   9620.14s WALL (    1055 calls)

     Called by h_psi:
     add_vuspsi   :    275.76s CPU    276.42s WALL (    1097 calls)
     vhpsi        :    685.77s CPU    875.91s WALL (    1097 calls)

     General routines
     calbec       :    917.06s CPU   1256.03s WALL (    2908 calls)
     fft          :     14.34s CPU     26.90s WALL (     267 calls)
     ffts         :      0.18s CPU      0.33s WALL (      34 calls)
     fftw         :   2310.25s CPU   4011.34s WALL ( 1188768 calls)
     interpolate  :      1.19s CPU      2.11s WALL (      34 calls)
     davcio       :      3.84s CPU    479.84s WALL (    2100 calls)

     Parallel routines
     fft_scatter  :   1686.89s CPU   3392.34s WALL ( 1189069 calls)
     Hubbard U routines
     new_ns       :    104.40s CPU    389.93s WALL (       8 calls)
     vhpsi        :    685.77s CPU    875.91s WALL (    1097 calls)

     PWSCF        :     4h34m CPU        5h28m WALL


   This run was terminated on:   2:21:51  12Feb2014            

=------------------------------------------------------------------------------=
   JOB DONE.
=------------------------------------------------------------------------------=
