
     Program PWSCF v.5.0.2 (svn rev. 9656) starts on 24Jan2014 at 14:52:30 

     This program is part of the open-source Quantum ESPRESSO suite
     for quantum simulation of materials; please cite
         "P. Giannozzi et al., J. Phys.:Condens. Matter 21 395502 (2009);
          URL http://www.quantum-espresso.org", 
     in publications or presentations arising from this work. More details at
     http://www.quantum-espresso.org/quote.php

     Parallel version (MPI), running on     4 processors
     R & G space division:  proc/nbgrp/npool/nimage =       4

     Current dimensions of program PWSCF are:
     Max number of different atomic species (ntypx) = 10
     Max number of k-points (npk) =  40000
     Max angular momentum in pseudopotentials (lmaxx) =  3
     Reading input from ReO2-v-0.90.in

     Subspace diagonalization in iterative solution of the eigenvalue problem:
     a serial algorithm will be used


     Parallelization info
     --------------------
     sticks:   dense  smooth     PW     G-vecs:    dense   smooth      PW
     Min         717     229     69                18516     3339     555
     Max         718     230     70                18517     3352     558
     Sum        2869     917    277                74067    13377    2225



     bravais-lattice index     =            0
     lattice parameter (alat)  =       8.4762  a.u.
     unit-cell volume          =     392.4514 (a.u.)^3
     number of atoms/cell      =            6
     number of atomic types    =            2
     number of electrons       =        54.00
     number of Kohn-Sham states=           81
     kinetic-energy cutoff     =      40.0000  Ry
     charge density cutoff     =     500.0000  Ry
     convergence threshold     =      1.0E-06
     mixing beta               =       0.3000
     number of iterations used =            8  plain     mixing
     Exchange-correlation      = SLA  PW   PBE  PBE ( 1 4 3 4 0)
     EXX-fraction              =        0.00
     nstep                     =           50


     celldm(1)=   8.476179  celldm(2)=   0.000000  celldm(3)=   0.000000
     celldm(4)=   0.000000  celldm(5)=   0.000000  celldm(6)=   0.000000

     crystal axes: (cart. coord. in units of alat)
               a(1) = (   1.000000   0.000000   0.000000 )  
               a(2) = (   0.000000   1.000000   0.000000 )  
               a(3) = (   0.000000   0.000000   0.644444 )  

     reciprocal axes: (cart. coord. in units 2 pi/alat)
               b(1) = (  1.000000  0.000000  0.000000 )  
               b(2) = (  0.000000  1.000000  0.000000 )  
               b(3) = (  0.000000  0.000000  1.551724 )  


     PseudoPot. # 1 for Re read from file:
     /home/camp/zhonxu/pseudo/re_pbe_v1.uspp.F.UPF
     MD5 check sum: 6f5a5dcaf9c96c20d0ffdde0de57afc6
     Pseudo is Ultrasoft + core correction, Zval = 15.0
     Generated by new atomic code, or converted to UPF format
     Using radial grid of  981 points,  8 beta functions with: 
                l(1) =   0
                l(2) =   0
                l(3) =   1
                l(4) =   1
                l(5) =   2
                l(6) =   2
                l(7) =   3
                l(8) =   3
     Q(r) pseudized with  8 coefficients,  rinner =    1.000   1.000   1.000
                                                       1.000   1.000   1.000
                                                       1.000

     PseudoPot. # 2 for O  read from file:
     /home/camp/zhonxu/pseudo/o_pbe_v1.01.uspp.F.UPF
     MD5 check sum: 2bcb18d16ea4b960afae9ec6d52f22d2
     Pseudo is Ultrasoft + core correction, Zval =  6.0
     Generated by new atomic code, or converted to UPF format
     Using radial grid of  737 points,  5 beta functions with: 
                l(1) =   0
                l(2) =   0
                l(3) =   1
                l(4) =   1
                l(5) =   2
     Q(r) pseudized with  8 coefficients,  rinner =    0.900   0.900   0.900
                                                       0.900   0.900

     atomic species   valence    mass     pseudopotential
        Re0           15.00   186.20700     Re( 1.00)
        O1             6.00    15.99940     O ( 1.00)

     Starting magnetic structure 
     atomic species   magnetization
        Re0          0.600
        O1           0.000

     16 Sym. Ops., with inversion, found ( 8 have fractional translation)



   Cartesian axes

     site n.     atom                  positions (alat units)
         1           Re0 tau(   1) = (   0.0000000   0.0000000   0.0000000  )
         2           Re0 tau(   2) = (   0.5000000   0.5000000   0.3222222  )
         3           O1  tau(   3) = (   0.3050000   0.3050000   0.0000000  )
         4           O1  tau(   4) = (  -0.3050000  -0.3050000   0.0000000  )
         5           O1  tau(   5) = (   0.8050000   0.1950000   0.3222222  )
         6           O1  tau(   6) = (   0.1950000   0.8050000   0.3222222  )

     number of k points=    36  Methfessel-Paxton smearing, width (Ry)=  0.0100
                       cart. coord. in units 2pi/alat
        k(    1) = (   0.0000000   0.0000000   0.0000000), wk =   0.0080000
        k(    2) = (   0.0000000   0.0000000   0.3103448), wk =   0.0160000
        k(    3) = (   0.0000000   0.0000000   0.6206897), wk =   0.0160000
        k(    4) = (   0.0000000   0.2000000   0.0000000), wk =   0.0320000
        k(    5) = (   0.0000000   0.2000000   0.3103448), wk =   0.0640000
        k(    6) = (   0.0000000   0.2000000   0.6206897), wk =   0.0640000
        k(    7) = (   0.0000000   0.4000000   0.0000000), wk =   0.0320000
        k(    8) = (   0.0000000   0.4000000   0.3103448), wk =   0.0640000
        k(    9) = (   0.0000000   0.4000000   0.6206897), wk =   0.0640000
        k(   10) = (   0.2000000   0.2000000   0.0000000), wk =   0.0320000
        k(   11) = (   0.2000000   0.2000000   0.3103448), wk =   0.0640000
        k(   12) = (   0.2000000   0.2000000   0.6206897), wk =   0.0640000
        k(   13) = (   0.2000000   0.4000000   0.0000000), wk =   0.0640000
        k(   14) = (   0.2000000   0.4000000   0.3103448), wk =   0.1280000
        k(   15) = (   0.2000000   0.4000000   0.6206897), wk =   0.1280000
        k(   16) = (   0.4000000   0.4000000   0.0000000), wk =   0.0320000
        k(   17) = (   0.4000000   0.4000000   0.3103448), wk =   0.0640000
        k(   18) = (   0.4000000   0.4000000   0.6206897), wk =   0.0640000
        k(   19) = (   0.0000000   0.0000000   0.0000000), wk =   0.0080000
        k(   20) = (   0.0000000   0.0000000   0.3103448), wk =   0.0160000
        k(   21) = (   0.0000000   0.0000000   0.6206897), wk =   0.0160000
        k(   22) = (   0.0000000   0.2000000   0.0000000), wk =   0.0320000
        k(   23) = (   0.0000000   0.2000000   0.3103448), wk =   0.0640000
        k(   24) = (   0.0000000   0.2000000   0.6206897), wk =   0.0640000
        k(   25) = (   0.0000000   0.4000000   0.0000000), wk =   0.0320000
        k(   26) = (   0.0000000   0.4000000   0.3103448), wk =   0.0640000
        k(   27) = (   0.0000000   0.4000000   0.6206897), wk =   0.0640000
        k(   28) = (   0.2000000   0.2000000   0.0000000), wk =   0.0320000
        k(   29) = (   0.2000000   0.2000000   0.3103448), wk =   0.0640000
        k(   30) = (   0.2000000   0.2000000   0.6206897), wk =   0.0640000
        k(   31) = (   0.2000000   0.4000000   0.0000000), wk =   0.0640000
        k(   32) = (   0.2000000   0.4000000   0.3103448), wk =   0.1280000
        k(   33) = (   0.2000000   0.4000000   0.6206897), wk =   0.1280000
        k(   34) = (   0.4000000   0.4000000   0.0000000), wk =   0.0320000
        k(   35) = (   0.4000000   0.4000000   0.3103448), wk =   0.0640000
        k(   36) = (   0.4000000   0.4000000   0.6206897), wk =   0.0640000

     Dense  grid:    74067 G-vectors     FFT dimensions: (  64,  64,  40)

     Smooth grid:    13377 G-vectors     FFT dimensions: (  36,  36,  24)

     Largest allocated arrays     est. size (Mb)     dimensions
        Kohn-Sham Wavefunctions         0.52 Mb     (    424,   81)
        NL pseudopotentials             0.75 Mb     (    424,  116)
        Each V/rho on FFT grid          1.25 Mb     (  40960,   2)
        Each G-vector array             0.14 Mb     (  18517)
        G-vector shells                 0.14 Mb     (  18517)
     Largest temporary arrays     est. size (Mb)     dimensions
        Auxiliary wavefunctions         2.10 Mb     (    424,  324)
        Each subspace H/S matrix        1.60 Mb     ( 324, 324)
        Each <psi_i|beta_j> matrix      0.14 Mb     (    116,   81)
        Arrays for rho mixing           5.00 Mb     (  40960,   8)

     Check: negative/imaginary core charge=   -0.000004    0.000000

     Initial potential from superposition of free atoms
     Check: negative starting charge=(component1):   -0.047437
     Check: negative starting charge=(component2):   -0.011415

     starting charge   52.99990, renormalised to   54.00000

     negative rho (up, down):  0.483E-01 0.116E-01
     Starting wfc are   42 randomized atomic wfcs

     total cpu time spent up to now is       12.1 secs

     per-process dynamical memory:    54.6 Mb

     Self-consistent Calculation

     iteration #  1     ecut=    40.00 Ry     beta=0.30
     Davidson diagonalization with overlap
     ethr =  1.00E-02,  avg # of iterations =  5.1

     negative rho (up, down):  0.342E-01 0.281E-01

     total cpu time spent up to now is       60.6 secs

     total energy              =    -517.53970998 Ry
     Harris-Foulkes estimate   =    -517.66323179 Ry
     estimated scf accuracy    <       2.21209329 Ry

     total magnetization       =     5.92 Bohr mag/cell
     absolute magnetization    =     6.15 Bohr mag/cell

     iteration #  2     ecut=    40.00 Ry     beta=0.30
     Davidson diagonalization with overlap
     ethr =  4.10E-03,  avg # of iterations =  1.0

     negative rho (up, down):  0.225E-01 0.404E-01

     total cpu time spent up to now is       80.2 secs

     total energy              =    -518.01876457 Ry
     Harris-Foulkes estimate   =    -517.74734032 Ry
     estimated scf accuracy    <       0.52016694 Ry

     total magnetization       =     5.43 Bohr mag/cell
     absolute magnetization    =     5.61 Bohr mag/cell

     iteration #  3     ecut=    40.00 Ry     beta=0.30
     Davidson diagonalization with overlap
     ethr =  9.63E-04,  avg # of iterations =  1.0

     negative rho (up, down):  0.658E-02 0.588E-01

     total cpu time spent up to now is       99.9 secs

     total energy              =    -518.25031885 Ry
     Harris-Foulkes estimate   =    -518.03344507 Ry
     estimated scf accuracy    <       0.24008560 Ry

     total magnetization       =     4.70 Bohr mag/cell
     absolute magnetization    =     4.82 Bohr mag/cell

     iteration #  4     ecut=    40.00 Ry     beta=0.30
     Davidson diagonalization with overlap
     ethr =  4.45E-04,  avg # of iterations =  1.0

     negative rho (up, down):  0.974E-02 0.535E-01

     total cpu time spent up to now is      118.7 secs

     total energy              =    -518.31919012 Ry
     Harris-Foulkes estimate   =    -518.30832201 Ry
     estimated scf accuracy    <       0.01211103 Ry

     total magnetization       =     2.99 Bohr mag/cell
     absolute magnetization    =     3.01 Bohr mag/cell

     iteration #  5     ecut=    40.00 Ry     beta=0.30
     Davidson diagonalization with overlap
     ethr =  2.24E-05,  avg # of iterations =  2.5

     negative rho (up, down):  0.146E-01 0.460E-01

     total cpu time spent up to now is      140.0 secs

     total energy              =    -518.33148573 Ry
     Harris-Foulkes estimate   =    -518.32494160 Ry
     estimated scf accuracy    <       0.00792685 Ry

     total magnetization       =     2.52 Bohr mag/cell
     absolute magnetization    =     2.54 Bohr mag/cell

     iteration #  6     ecut=    40.00 Ry     beta=0.30
     Davidson diagonalization with overlap
     ethr =  1.47E-05,  avg # of iterations =  1.7

     negative rho (up, down):  0.145E-01 0.461E-01

     total cpu time spent up to now is      159.7 secs

     total energy              =    -518.33766741 Ry
     Harris-Foulkes estimate   =    -518.33782656 Ry
     estimated scf accuracy    <       0.00407931 Ry

     total magnetization       =     1.85 Bohr mag/cell
     absolute magnetization    =     1.86 Bohr mag/cell

     iteration #  7     ecut=    40.00 Ry     beta=0.30
     Davidson diagonalization with overlap
     ethr =  7.55E-06,  avg # of iterations =  1.0

     negative rho (up, down):  0.212E-01 0.382E-01

     total cpu time spent up to now is      177.9 secs

     total energy              =    -518.33944449 Ry
     Harris-Foulkes estimate   =    -518.33769472 Ry
     estimated scf accuracy    <       0.00344302 Ry

     total magnetization       =     1.85 Bohr mag/cell
     absolute magnetization    =     1.86 Bohr mag/cell

     iteration #  8     ecut=    40.00 Ry     beta=0.30
     Davidson diagonalization with overlap
     ethr =  6.38E-06,  avg # of iterations =  2.5

     negative rho (up, down):  0.227E-01 0.364E-01

     total cpu time spent up to now is      202.0 secs

     total energy              =    -518.34966951 Ry
     Harris-Foulkes estimate   =    -518.34818749 Ry
     estimated scf accuracy    <       0.00116086 Ry

     total magnetization       =     0.94 Bohr mag/cell
     absolute magnetization    =     0.95 Bohr mag/cell

     iteration #  9     ecut=    40.00 Ry     beta=0.30
     Davidson diagonalization with overlap
     ethr =  2.15E-06,  avg # of iterations =  1.3

     negative rho (up, down):  0.242E-01 0.347E-01

     total cpu time spent up to now is      221.2 secs

     total energy              =    -518.35113483 Ry
     Harris-Foulkes estimate   =    -518.35003852 Ry
     estimated scf accuracy    <       0.00063104 Ry

     total magnetization       =     0.78 Bohr mag/cell
     absolute magnetization    =     0.79 Bohr mag/cell

     iteration # 10     ecut=    40.00 Ry     beta=0.30
     Davidson diagonalization with overlap
     ethr =  1.17E-06,  avg # of iterations =  2.1

     negative rho (up, down):  0.269E-01 0.320E-01

     total cpu time spent up to now is      242.1 secs

     total energy              =    -518.35165313 Ry
     Harris-Foulkes estimate   =    -518.35142691 Ry
     estimated scf accuracy    <       0.00025448 Ry

     total magnetization       =     0.65 Bohr mag/cell
     absolute magnetization    =     0.66 Bohr mag/cell

     iteration # 11     ecut=    40.00 Ry     beta=0.30
     Davidson diagonalization with overlap
     ethr =  4.71E-07,  avg # of iterations =  2.1

     negative rho (up, down):  0.274E-01 0.314E-01

     total cpu time spent up to now is      264.3 secs

     total energy              =    -518.35252749 Ry
     Harris-Foulkes estimate   =    -518.35248880 Ry
     estimated scf accuracy    <       0.00006003 Ry

     total magnetization       =     0.40 Bohr mag/cell
     absolute magnetization    =     0.40 Bohr mag/cell

     iteration # 12     ecut=    40.00 Ry     beta=0.30
     Davidson diagonalization with overlap
     ethr =  1.11E-07,  avg # of iterations =  2.0

     negative rho (up, down):  0.279E-01 0.310E-01

     total cpu time spent up to now is      284.6 secs

     total energy              =    -518.35252642 Ry
     Harris-Foulkes estimate   =    -518.35257887 Ry
     estimated scf accuracy    <       0.00003545 Ry

     total magnetization       =     0.34 Bohr mag/cell
     absolute magnetization    =     0.34 Bohr mag/cell

     iteration # 13     ecut=    40.00 Ry     beta=0.30
     Davidson diagonalization with overlap
     ethr =  6.56E-08,  avg # of iterations =  2.0

     negative rho (up, down):  0.278E-01 0.310E-01

     total cpu time spent up to now is      306.2 secs

     total energy              =    -518.35260297 Ry
     Harris-Foulkes estimate   =    -518.35260361 Ry
     estimated scf accuracy    <       0.00001181 Ry

     total magnetization       =     0.26 Bohr mag/cell
     absolute magnetization    =     0.26 Bohr mag/cell

     iteration # 14     ecut=    40.00 Ry     beta=0.30
     Davidson diagonalization with overlap
     ethr =  2.19E-08,  avg # of iterations =  1.1

     negative rho (up, down):  0.278E-01 0.310E-01

     total cpu time spent up to now is      325.1 secs

     total energy              =    -518.35260835 Ry
     Harris-Foulkes estimate   =    -518.35260627 Ry
     estimated scf accuracy    <       0.00000246 Ry

     total magnetization       =     0.28 Bohr mag/cell
     absolute magnetization    =     0.28 Bohr mag/cell

     iteration # 15     ecut=    40.00 Ry     beta=0.30
     Davidson diagonalization with overlap
     ethr =  4.55E-09,  avg # of iterations =  2.0

     negative rho (up, down):  0.278E-01 0.310E-01

     total cpu time spent up to now is      346.1 secs

     End of self-consistent calculation

 ------ SPIN UP ------------


          k = 0.0000 0.0000 0.0000 (  1667 PWs)   bands (ev):

   -63.7667 -63.7600 -25.8538 -25.8538 -25.7858 -25.7380 -25.6797 -25.6797
    -5.4272  -4.2232  -2.5938  -2.5938   6.2049   6.4758   7.7780   8.5463
     8.5463  11.1233  11.1233  11.7484  12.9098  13.0985  13.0985  13.7406
    15.6777  15.7565  16.6910  16.8146  16.8146  20.7722  20.8510  21.7004
    24.3045  24.3045  25.7854  25.7854  26.0638  29.8798  30.6683  31.4307
    33.0314  33.3331  34.3451  34.3451  36.7899  37.3104  37.9197  37.9197
    39.0147  39.0147  40.0571  44.6653  44.7923  44.7923  45.5687  45.6506
    47.3899  48.3961  48.3961  49.0949  49.2152  49.2152  49.5875  50.4857
    50.5241  51.3973  51.5971  51.5971  54.6116  56.6266  56.9143  56.9143
    57.8566  57.8566  57.9746  58.5954  58.6847  58.9030  58.9359  58.9359
    60.3111

          k = 0.0000 0.0000 0.3103 (  1675 PWs)   bands (ev):

   -63.7570 -63.7517 -25.9954 -25.9593 -25.8077 -25.8077 -25.6693 -25.6693
    -4.8274  -3.7851  -3.0193  -3.0193   7.0323   7.1283   8.3090   8.5623
     8.5623  10.2211  11.1814  11.6467  11.6467  12.2103  12.2103  13.4940
    16.3463  16.5301  16.9123  17.4901  17.4901  20.0847  21.7211  22.7776
    23.5842  23.5842  25.5371  27.8192  27.8192  30.1532  31.0533  31.1756
    31.4615  32.3696  33.6215  33.6215  34.3159  38.8652  38.9565  38.9565
    39.1884  39.1884  41.9278  43.1918  44.0281  44.1574  44.1574  44.3031
    44.7181  45.7044  46.2508  46.2508  50.0328  51.1581  51.1581  51.6288
    52.5225  52.5225  53.2471  53.7310  54.3549  55.8360  56.0216  56.0216
    57.0497  57.3869  57.3869  59.3949  60.4184  60.5841  61.3779  61.4846
    61.4846

          k = 0.0000 0.0000 0.6207 (  1683 PWs)   bands (ev):

   -63.7408 -63.7387 -26.3164 -26.3035 -25.7212 -25.7212 -25.6633 -25.6633
    -3.6666  -3.6564  -3.6564  -3.2154   8.0807   8.3684   8.8112   8.9410
     8.9410   9.4975   9.8108  10.7029  10.7029  11.9052  12.3044  12.3044
    16.9007  17.5657  18.2419  18.4620  18.4620  18.4823  22.5680  22.6433
    23.6074  23.6074  26.3449  28.4910  30.4388  30.4388  30.8764  31.1326
    31.4007  31.6437  32.1957  32.1957  32.6397  34.5750  38.8982  38.8982
    40.4758  40.4758  41.5708  42.4400  42.7283  43.0331  44.4098  44.4098
    44.5592  46.5518  46.5518  48.6652  50.2395  50.4749  50.4749  52.8051
    52.8051  53.1989  53.2119  53.2119  54.3578  55.1373  55.4326  57.2251
    57.2251  57.2361  58.3069  58.7637  59.6645  59.6645  62.0313  62.5614
    62.6854

          k = 0.0000 0.2000 0.0000 (  1687 PWs)   bands (ev):

   -63.7661 -63.7607 -25.8396 -25.8385 -25.7813 -25.7430 -25.6968 -25.6955
    -5.2425  -4.1824  -2.8337  -2.7336   6.6088   6.7966   8.0929   8.5798
     8.5905  10.6499  10.8162  11.6741  12.2151  12.5742  12.7630  13.5819
    16.0544  16.2180  17.1074  17.1714  17.1830  20.3306  21.2871  22.3228
    24.0093  24.0551  25.5169  25.8027  26.0261  29.6600  30.4907  31.0089
    32.1761  33.5187  34.4737  35.2739  36.7782  36.9506  37.2766  37.2792
    39.3254  40.1408  42.0392  42.7768  44.8767  45.0212  45.8240  46.4284
    46.7577  48.0004  48.0989  48.5573  49.0530  49.9713  50.5906  50.6277
    51.3683  51.4698  52.3494  52.9801  54.5662  55.1882  56.1275  56.1907
    56.2104  56.9142  57.1991  57.8777  58.0574  59.1768  59.5187  61.2139
    62.0483

          k = 0.0000 0.2000 0.3103 (  1688 PWs)   bands (ev):

   -63.7565 -63.7522 -25.9946 -25.9647 -25.7946 -25.7934 -25.6821 -25.6814
    -4.6745  -3.7318  -3.2084  -3.1060   7.2848   7.3986   8.2957   8.5445
     8.9869  10.0137  10.4804  11.5035  11.5391  12.1095  12.1206  13.3434
    16.3500  16.9989  17.1950  17.4545  17.8703  19.7894  21.9969  22.4844
    23.2498  24.1367  25.1981  27.4281  27.8975  30.2806  30.7816  30.9345
    31.5951  32.2474  32.9414  34.2969  35.3070  37.8485  38.5291  38.8516
    38.9908  40.0262  42.4553  42.8752  43.2078  43.4373  44.3721  44.7884
    45.6603  46.1214  46.8658  47.4994  50.4980  50.9531  51.2565  51.7206
    52.3353  52.9386  53.4701  53.5185  55.0500  55.1045  55.6022  55.9350
    56.0140  56.4850  57.7342  58.8544  59.3275  60.3696  61.4543  62.1333
    62.2749

          k = 0.0000 0.2000 0.6207 (  1675 PWs)   bands (ev):

   -63.7405 -63.7389 -26.3172 -26.3068 -25.7158 -25.7149 -25.6678 -25.6668
    -3.9941  -3.8805  -3.2580  -3.0011   7.9370   7.9691   8.3825   8.7862
     9.4119   9.5854  10.4056  10.8265  11.0623  11.9890  12.0780  12.2617
    16.3764  17.4882  17.7825  18.2722  18.7411  19.0110  22.1436  22.4790
    23.7747  24.3507  26.2134  27.9544  29.6536  30.1458  30.5575  30.8311
    31.7588  32.0404  32.1574  32.4666  34.3122  34.5550  38.4510  38.6458
    39.7100  40.4170  41.6667  41.9553  43.2604  43.4941  44.4822  44.9910
    45.9938  46.1344  46.5353  49.2538  50.6034  50.8220  51.0844  51.3269
    52.7768  52.8295  52.9397  54.1711  54.3387  55.1084  55.4573  56.6098
    56.6451  57.5421  58.1596  58.9683  60.1499  60.5063  60.5569  60.9626
    62.8133

          k = 0.0000 0.4000 0.0000 (  1683 PWs)   bands (ev):

   -63.7644 -63.7623 -25.8034 -25.8013 -25.7695 -25.7549 -25.7364 -25.7340
    -4.7575  -4.2616  -3.1726  -3.0356   7.4330   7.4922   8.6458   8.6577
     9.0505   9.8211   9.9511  10.5695  11.6640  11.9931  12.7342  13.1362
    16.5736  16.6782  17.6393  17.7108  18.1882  19.3281  22.5075  23.5433
    23.5928  23.6404  24.2275  25.1454  26.9564  28.5589  30.4877  30.7083
    31.7793  33.5210  34.4676  34.8677  35.1167  36.5419  38.4011  39.4852
    39.7255  41.4467  42.8154  43.5954  43.8857  44.7671  44.8840  44.9804
    47.1013  47.3299  48.0793  49.1567  50.0190  50.3244  50.3522  51.1609
    52.6473  52.8435  53.4959  53.6942  53.9095  54.6903  55.3634  55.4597
    56.2813  56.4081  56.6536  56.8857  57.6626  58.1016  60.7506  61.1446
    61.1691

          k = 0.0000 0.4000 0.3103 (  1685 PWs)   bands (ev):

   -63.7552 -63.7535 -25.9891 -25.9775 -25.7615 -25.7592 -25.7143 -25.7122
    -4.2619  -3.7462  -3.5094  -3.3130   7.8787   8.0305   8.4392   8.4539
     9.3799   9.6200  10.1534  10.7570  10.8890  11.4940  12.6228  13.0092
    16.8114  17.2068  17.6495  17.7460  18.5221  19.1173  22.0618  22.2069
    23.2039  24.2570  25.3395  26.4933  28.4177  29.5809  30.6904  30.8551
    31.8094  31.8492  32.8259  34.3000  36.3415  37.5026  38.5645  38.8619
    39.0927  40.8085  41.8139  42.0813  43.1387  43.2194  44.4706  44.5386
    46.4684  48.0134  48.1827  49.0998  49.8225  50.6999  51.0396  51.9913
    52.9547  53.0255  53.4401  53.6305  54.4957  54.6058  55.3849  55.6465
    56.5119  56.7315  57.4081  59.2705  59.3671  59.7620  60.3456  60.7807
    60.8560

          k = 0.0000 0.4000 0.6207 (  1678 PWs)   bands (ev):

   -63.7400 -63.7394 -26.3174 -26.3134 -25.7035 -25.7016 -25.6780 -25.6762
    -4.1588  -4.1134  -2.9304  -2.8307   7.5970   7.6811   8.2391   8.3274
     9.9036  10.2487  10.5170  11.2097  11.4132  11.5810  12.0085  12.6868
    15.7727  16.3544  18.1243  18.2898  19.0702  19.1681  21.8491  22.0892
    24.3954  24.9047  26.2869  27.0418  29.3490  29.5825  30.2445  30.3700
    31.3180  31.7454  33.1611  33.6698  34.6868  35.7060  37.4627  37.9677
    40.0744  40.5086  41.7721  41.7954  43.3005  43.3822  45.1857  45.4256
    46.2840  46.4397  49.0899  49.1363  49.3543  50.1699  51.4066  51.7956
    52.6824  52.8048  53.2225  53.9400  54.7123  54.7684  55.3729  56.9072
    57.3158  57.6429  58.7146  59.0131  59.2153  59.5450  60.3916  61.4398
    61.9438

          k = 0.2000 0.2000 0.0000 (  1682 PWs)   bands (ev):

   -63.7656 -63.7612 -25.8589 -25.7986 -25.7776 -25.7468 -25.7386 -25.6762
    -5.1203  -4.1738  -3.1062  -2.6465   6.3489   7.4992   8.3801   8.5188
     8.6620   9.9005  11.0434  11.6372  11.9988  12.5141  12.5275  13.4544
    15.7070  16.6355  16.8305  17.5915  17.6756  20.0766  21.2793  23.2241
    23.5696  24.2933  24.8695  26.0629  26.0663  29.3373  29.6957  31.0139
    31.6959  34.0070  34.1502  36.7574  37.0971  37.2122  37.6392  38.0001
    38.1128  39.7313  41.7958  42.3973  44.1073  45.2677  45.3444  45.5766
    47.1075  48.3583  48.8031  49.3445  49.6422  51.0040  51.1018  51.2501
    51.2812  51.6915  51.7061  53.8428  54.4445  54.6277  54.7061  55.7059
    56.2096  57.0374  57.1218  58.2119  58.5262  59.4057  60.0046  60.0716
    60.5817

          k = 0.2000 0.2000 0.3103 (  1681 PWs)   bands (ev):

   -63.7561 -63.7526 -25.9921 -25.9681 -25.8121 -25.7570 -25.7161 -25.6665
    -4.5649  -3.6789  -3.4380  -3.0639   7.0745   7.9477   8.1966   8.6325
     9.2057   9.6592  10.7054  10.9108  11.5000  12.1490  12.3234  13.1498
    16.4124  16.6990  17.3127  17.9266  17.9926  19.5494  22.0717  22.1734
    23.5262  24.5591  24.8562  27.3678  27.6300  29.9643  30.2269  30.7247
    31.6934  32.2920  34.1483  34.1628  35.3975  37.3553  38.2159  38.9782
    39.3332  40.4168  42.1341  42.6012  43.0732  43.4334  44.7831  45.3025
    45.7579  46.7271  47.7823  47.8098  50.0526  50.7412  51.0186  51.8642
    52.2411  53.0445  53.7584  53.8242  54.9799  55.0819  55.2224  55.8627
    55.9418  56.5100  56.8705  57.6903  59.9964  60.4288  61.0161  61.3427
    62.8497

          k = 0.2000 0.2000 0.6207 (  1671 PWs)   bands (ev):

   -63.7404 -63.7391 -26.3171 -26.3080 -25.7233 -25.7013 -25.6777 -25.6625
    -4.1447  -3.6916  -3.4153  -2.8553   7.7027   8.2418   8.3672   8.4687
     8.9093  10.4257  10.4884  10.8149  11.2740  11.5945  12.2200  12.5204
    16.1204  17.7031  17.7970  18.0115  18.3266  19.3263  21.8351  22.9239
    23.5585  24.6110  26.1280  27.8436  28.4070  30.0085  30.1433  30.7824
    30.9960  32.7305  32.8077  33.9114  34.1023  35.1784  37.8240  38.4574
    39.4157  40.3235  40.8778  43.2384  43.4148  44.6538  44.9355  45.5775
    45.8772  46.2887  46.9320  49.5730  50.0864  50.5364  51.2352  51.5719
    51.7305  52.8086  53.1959  53.4395  54.4486  55.3020  55.6549  56.1616
    56.4378  57.3896  58.5681  58.6203  59.2801  60.0545  61.0687  61.2259
    62.3915

          k = 0.2000 0.4000 0.0000 (  1678 PWs)   bands (ev):

   -63.7642 -63.7625 -25.8470 -25.8084 -25.7680 -25.7563 -25.7297 -25.6902
    -4.7888  -4.3755  -3.1352  -2.8412   6.7090   7.4775   8.5472   8.6360
     9.2136   9.9239  10.4731  11.2917  11.7907  12.2011  12.3155  12.9041
    16.1252  16.6278  17.1632  17.6854  18.4475  19.3615  22.1231  23.5228
    23.5626  24.0202  24.5371  25.5811  27.0099  28.4569  29.3567  29.8472
    32.1613  33.3389  35.3498  36.4947  36.7209  36.8772  38.2319  39.0905
    39.5158  40.4146  41.4071  42.3612  43.3391  43.5559  44.4197  45.8692
    47.1197  47.3266  49.1104  49.9119  50.5163  50.7225  51.5555  52.2946
    52.4189  53.1243  53.3859  53.8650  54.2277  54.4807  54.9683  55.2105
    56.2004  56.5430  56.8483  57.5322  57.7069  58.4565  59.0625  59.5992
    60.8351

          k = 0.2000 0.4000 0.3103 (  1680 PWs)   bands (ev):

   -63.7550 -63.7537 -25.9860 -25.9768 -25.8006 -25.7658 -25.7084 -25.6769
    -4.2725  -3.8872  -3.4292  -3.1986   7.3398   7.9699   8.2617   8.4082
     9.6231   9.9548  10.4403  10.9631  11.2084  11.7456  12.3350  12.7204
    16.8397  17.0810  17.2735  17.8195  18.4095  18.9680  22.1537  22.5818
    23.2559  24.0013  25.6538  26.5754  28.0924  29.1143  30.1596  30.3335
    31.8831  32.1333  33.9364  34.4483  36.1743  36.7051  38.5209  39.6274
    39.8118  40.8619  41.7842  41.9371  43.5404  43.6598  44.5805  45.1146
    46.3138  47.4416  48.0387  48.9507  49.8547  50.8376  51.3192  51.8916
    52.3349  53.2477  53.4139  53.6340  54.0529  54.6388  55.0980  55.2724
    56.6733  56.8277  57.7583  57.9216  58.4217  59.0212  60.0796  60.7500
    62.1870

          k = 0.2000 0.4000 0.6207 (  1671 PWs)   bands (ev):

   -63.7400 -63.7395 -26.3154 -26.3116 -25.7182 -25.7044 -25.6758 -25.6660
    -4.1410  -3.9406  -3.1188  -2.8638   7.5949   7.8118   8.3049   8.5662
     9.1913  10.0626  10.7292  11.0039  11.3989  11.8837  12.2907  12.8177
    15.9592  16.6733  18.0346  18.2330  18.5232  19.1057  21.9444  22.5207
    24.0816  24.6648  26.2365  26.9475  28.1315  28.8356  30.1363  30.6709
    31.2243  31.9766  33.7042  34.2573  35.0897  36.1692  37.1417  38.0079
    40.0466  40.6748  41.1047  42.5797  44.3205  44.7189  45.4161  45.7116
    46.7626  47.3098  48.5488  48.9616  49.3876  50.2289  51.3198  51.4160
    51.9944  52.2357  52.6638  53.6299  54.3783  55.1078  55.6663  55.7936
    56.4294  56.8920  57.8463  58.3743  58.9446  59.3381  60.4502  61.2060
    61.7793

          k = 0.4000 0.4000 0.0000 (  1690 PWs)   bands (ev):

   -63.7637 -63.7630 -25.8676 -25.8520 -25.7646 -25.7601 -25.6863 -25.6705
    -4.7719  -4.6137  -2.8861  -2.7276   6.3658   6.7165   8.4743   8.5236
     9.9008  10.6025  10.8873  11.5242  11.9897  12.1549  12.3860  12.7041
    15.6704  16.1079  16.8577  17.1788  18.9342  19.2751  22.1550  22.6926
    24.0113  24.2761  25.3991  25.8348  27.4244  28.1953  28.3956  28.6989
    32.7895  33.4178  36.7103  37.4988  38.0789  38.0937  38.5862  38.9904
    38.9921  39.1091  39.8806  41.1676  42.0705  43.6753  44.4428  45.9103
    46.4290  47.5776  48.0499  48.9428  50.5583  51.9027  52.4553  53.0043
    53.1096  53.2600  53.6302  54.6437  54.9217  55.3033  55.6048  55.9024
    56.1091  56.5648  56.9342  57.5536  57.8453  58.2160  58.3305  59.9723
    61.7261

          k = 0.4000 0.4000 0.3103 (  1669 PWs)   bands (ev):

   -63.7546 -63.7541 -25.9798 -25.9766 -25.8190 -25.8047 -25.6740 -25.6618
    -4.2397  -4.1043  -3.2400  -3.1332   7.0744   7.3431   8.1594   8.2495
    10.3627  10.5646  10.7914  11.2603  11.6532  11.7997  11.9134  12.2566
    16.6807  17.0613  17.0894  17.3897  18.3956  18.6337  22.7543  22.8735
    23.4202  23.5022  26.1419  26.4932  27.8646  28.3801  29.9178  30.0381
    31.7529  32.0721  33.8452  34.4655  36.3181  37.3943  38.7665  40.2187
    40.3725  40.8342  42.2214  42.7520  43.5197  44.2629  45.1396  45.6911
    46.4524  46.7045  47.7645  48.0181  49.6299  50.2711  51.1675  51.3037
    52.3044  52.3908  53.0226  53.4145  53.7809  54.6991  55.1795  55.6524
    56.1864  56.9661  57.8004  58.4404  58.5281  59.2639  61.0566  61.0965
    61.1339

          k = 0.4000 0.4000 0.6207 (  1662 PWs)   bands (ev):

   -63.7398 -63.7396 -26.3113 -26.3095 -25.7263 -25.7200 -25.6652 -25.6615
    -3.9528  -3.7471  -3.3244  -3.0895   7.7483   8.1706   8.2103   8.5976
     8.9803   9.4585  10.6143  10.7995  11.7683  12.0160  12.7299  12.9592
    16.5256  17.2327  17.7744  18.0007  18.0888  18.5053  22.4891  23.1870
    23.4357  24.0721  26.0805  26.3616  27.8996  28.4917  29.4530  30.0596
    31.1701  31.4279  34.6982  34.8778  35.9718  36.6036  37.4244  38.0030
    40.9886  41.1825  41.2306  42.6694  45.3189  45.3828  46.4769  46.9374
    47.5914  47.6950  48.7234  49.0922  49.7668  49.8864  50.4293  50.6942
    51.5850  51.7817  52.3727  52.6213  53.4331  53.5693  54.3248  55.6212
    55.9021  56.6383  57.0691  57.8924  58.1452  58.7471  59.4032  60.0791
    61.5843

 ------ SPIN DOWN ----------


          k = 0.0000 0.0000 0.0000 (  1667 PWs)   bands (ev):

   -63.7087 -63.7020 -25.7985 -25.7985 -25.6854 -25.6374 -25.6100 -25.6100
    -5.4063  -4.2030  -2.5762  -2.5762   6.2451   6.5062   7.8021   8.5874
     8.5874  11.1399  11.1399  11.7780  12.9396  13.1115  13.1115  13.7595
    15.7523  15.8158  16.7492  16.9766  16.9766  20.8221  20.9018  21.7398
    24.3661  24.3661  25.8153  25.8153  26.1080  29.8941  30.6992  31.4940
    33.0556  33.3580  34.3761  34.3761  36.8739  37.3556  37.9668  37.9668
    39.0478  39.0478  40.0643  44.6843  44.8241  44.8241  45.5898  45.7211
    47.4027  48.4238  48.4238  49.1898  49.2303  49.2303  49.6250  50.5097
    50.5738  51.4116  51.6330  51.6330  54.6553  56.6875  56.9446  56.9446
    57.8955  57.8955  58.0620  58.6102  58.7007  58.9568  58.9692  58.9692
    60.3289

          k = 0.0000 0.0000 0.3103 (  1675 PWs)   bands (ev):

   -63.6990 -63.6937 -25.8956 -25.8593 -25.7507 -25.7507 -25.6014 -25.6014
    -4.8067  -3.7651  -3.0004  -3.0004   7.0691   7.1569   8.3329   8.6012
     8.6012  10.2508  11.2121  11.6749  11.6749  12.2376  12.2376  13.5091
    16.4077  16.5964  16.9938  17.6188  17.6188  20.1349  21.7723  22.8126
    23.6444  23.6444  25.5839  27.8549  27.8549  30.1678  31.0880  31.2099
    31.5253  32.3891  33.6476  33.6476  34.3872  38.8896  38.9862  38.9862
    39.2486  39.2486  41.9924  43.2022  44.0637  44.1825  44.1825  44.3338
    44.7778  45.7450  46.2842  46.2842  50.0775  51.1929  51.1929  51.6458
    52.5420  52.5420  53.2905  53.7675  54.3895  55.8879  56.0542  56.0542
    57.0740  57.4178  57.4178  59.4414  60.4417  60.6090  61.4016  61.5372
    61.5372

          k = 0.0000 0.0000 0.6207 (  1683 PWs)   bands (ev):

   -63.6828 -63.6808 -26.2174 -26.2045 -25.6576 -25.6576 -25.6020 -25.6020
    -3.6467  -3.6359  -3.6359  -3.1958   8.1083   8.3982   8.8374   8.9922
     8.9922   9.5227   9.8336  10.7329  10.7329  11.9246  12.3289  12.3289
    16.9564  17.6489  18.3364  18.5337  18.5784  18.5784  22.6240  22.6921
    23.6585  23.6585  26.3802  28.5269  30.4751  30.4751  30.8912  31.1976
    31.4650  31.6595  32.2214  32.2214  32.6785  34.6163  38.9336  38.9336
    40.5105  40.5105  41.6108  42.4694  42.7652  43.0789  44.4607  44.4607
    44.6024  46.6073  46.6073  48.6914  50.2594  50.5064  50.5064  52.8278
    52.8278  53.2190  53.2559  53.2559  54.4220  55.2005  55.4516  57.2522
    57.2733  57.2733  58.3360  58.7996  59.6965  59.6965  62.0709  62.5876
    62.7232

          k = 0.0000 0.2000 0.0000 (  1687 PWs)   bands (ev):

   -63.7081 -63.7027 -25.7855 -25.7846 -25.6809 -25.6424 -25.6257 -25.6246
    -5.2216  -4.1621  -2.8159  -2.7158   6.6481   6.8270   8.1170   8.6200
     8.6305  10.6701  10.8347  11.7094  12.2357  12.6119  12.7796  13.5996
    16.1216  16.2740  17.2269  17.2667  17.3401  20.3807  21.3364  22.3597
    24.0683  24.1143  25.5614  25.8301  26.0580  29.6829  30.5208  31.0608
    32.2163  33.5434  34.4956  35.3195  36.7966  36.9816  37.3223  37.3605
    39.3609  40.1825  42.0895  42.7955  44.9112  45.0418  45.8817  46.4552
    46.7721  48.0283  48.1204  48.5875  49.1039  49.9968  50.6514  50.6550
    51.4145  51.4853  52.3813  53.0092  54.6093  55.2414  56.1580  56.2171
    56.2422  56.9537  57.2406  57.8986  58.1409  59.2299  59.5455  61.2590
    62.0820

          k = 0.0000 0.2000 0.3103 (  1688 PWs)   bands (ev):

   -63.6985 -63.6942 -25.8952 -25.8650 -25.7389 -25.7372 -25.6128 -25.6120
    -4.6540  -3.7118  -3.1893  -3.0870   7.3208   7.4271   8.3263   8.5822
     9.0180  10.0474  10.5162  11.5256  11.5609  12.1402  12.1537  13.3607
    16.4304  17.0629  17.2699  17.5843  17.9843  19.8433  22.0487  22.5323
    23.3044  24.1817  25.2436  27.4580  27.9339  30.3064  30.8140  30.9753
    31.6509  32.2679  32.9667  34.3657  35.3370  37.8974  38.5581  38.9087
    39.0241  40.0589  42.5118  42.9148  43.2354  43.4649  44.4109  44.8307
    45.6820  46.1590  46.8988  47.5292  50.5204  50.9920  51.2914  51.7570
    52.3620  52.9651  53.5035  53.5592  55.0943  55.1366  55.6418  55.9700
    56.0427  56.5183  57.7660  58.8989  59.3572  60.3998  61.4852  62.2008
    62.3163

          k = 0.0000 0.2000 0.6207 (  1675 PWs)   bands (ev):

   -63.6826 -63.6809 -26.2183 -26.2079 -25.6526 -25.6515 -25.6060 -25.6050
    -3.9738  -3.8601  -3.2381  -2.9815   7.9735   8.0099   8.4110   8.8196
     9.4441   9.6166  10.4294  10.8588  11.0905  12.0138  12.1051  12.2816
    16.4481  17.5708  17.8666  18.3657  18.8455  19.0977  22.1961  22.5380
    23.8214  24.3978  26.2461  27.9850  29.6835  30.1891  30.5820  30.8731
    31.7883  32.0810  32.2156  32.5025  34.3402  34.5986  38.4915  38.6841
    39.7522  40.4549  41.6946  41.9873  43.3019  43.5236  44.5256  45.0366
    46.0573  46.1953  46.5698  49.2775  50.6321  50.8443  51.1191  51.3552
    52.8082  52.8655  52.9745  54.1971  54.3836  55.1451  55.5152  56.6540
    56.6936  57.5721  58.1946  59.0064  60.1779  60.5384  60.5948  60.9981
    62.8478

          k = 0.0000 0.4000 0.0000 (  1683 PWs)   bands (ev):

   -63.7064 -63.7043 -25.7559 -25.7545 -25.6690 -25.6583 -25.6566 -25.6544
    -4.7366  -4.2408  -3.1545  -3.0176   7.4693   7.5238   8.6843   8.6960
     9.0753   9.8449   9.9732  10.5944  11.7080  12.0386  12.7515  13.1535
    16.6340  16.7349  17.7964  17.8666  18.2410  19.3791  22.5538  23.5971
    23.6470  23.6722  24.2706  25.1706  26.9952  28.6030  30.5150  30.7254
    31.8381  33.5717  34.4865  34.8941  35.1349  36.5745  38.4826  39.5093
    39.7948  41.4761  42.8581  43.6168  43.9043  44.8076  44.9324  45.0085
    47.1337  47.3512  48.1094  49.2025  50.0439  50.3456  50.3779  51.2049
    52.6691  52.8937  53.5208  53.7179  53.9521  54.7324  55.3998  55.4984
    56.3229  56.4502  56.7219  56.9109  57.6907  58.1853  60.7985  61.1734
    61.1930

          k = 0.0000 0.4000 0.3103 (  1685 PWs)   bands (ev):

   -63.6972 -63.6955 -25.8902 -25.8783 -25.7123 -25.7101 -25.6375 -25.6357
    -4.2415  -3.7260  -3.4903  -3.2938   7.9126   8.0595   8.4736   8.4859
     9.4119   9.6579  10.1857  10.7834  10.9171  11.5237  12.6495  13.0322
    16.9122  17.3154  17.7136  17.8242  18.6224  19.1879  22.1106  22.2607
    23.2458  24.2997  25.3760  26.5225  28.4580  29.6278  30.7214  30.8810
    31.8412  31.8733  32.8731  34.3576  36.3995  37.5658  38.5941  38.8888
    39.1247  40.8482  41.8506  42.1160  43.1714  43.2603  44.4957  44.5695
    46.5048  48.0350  48.2244  49.1349  49.8538  50.7375  51.0717  52.0288
    52.9913  53.0568  53.4759  53.6658  54.5241  54.6378  55.4246  55.6945
    56.5518  56.7651  57.4393  59.3158  59.3955  59.7950  60.3897  60.8325
    60.8856

          k = 0.0000 0.4000 0.6207 (  1678 PWs)   bands (ev):

   -63.6821 -63.6815 -26.2187 -26.2147 -25.6415 -25.6395 -25.6147 -25.6129
    -4.1385  -4.0931  -2.9108  -2.8112   7.6398   7.7248   8.2678   8.3547
     9.9299  10.2751  10.5391  11.2368  11.4394  11.6076  12.0395  12.7044
    15.8621  16.4404  18.2113  18.3804  19.1655  19.2581  21.9052  22.1486
    24.4379  24.9481  26.3157  27.0691  29.3824  29.6188  30.2749  30.4027
    31.3550  31.7873  33.2149  33.7131  34.7393  35.7446  37.5040  38.0054
    40.1213  40.5521  41.8044  41.8281  43.3346  43.4091  45.2102  45.4549
    46.3234  46.4974  49.1270  49.1815  49.3916  50.1969  51.4398  51.8327
    52.7220  52.8473  53.2534  53.9730  54.7482  54.8131  55.4132  56.9584
    57.3526  57.6799  58.7547  59.0515  59.2491  59.5910  60.4161  61.4774
    61.9636

          k = 0.2000 0.2000 0.0000 (  1682 PWs)   bands (ev):

   -63.7076 -63.7032 -25.8033 -25.7526 -25.6771 -25.6596 -25.6462 -25.6068
    -5.0994  -4.1533  -3.0881  -2.6289   6.3843   7.5334   8.4040   8.5599
     8.7004   9.9234  11.0632  11.6780  12.0160  12.5326  12.5615  13.4702
    15.7762  16.6929  16.9925  17.6444  17.8319  20.1264  21.3253  23.2613
    23.6237  24.3545  24.9153  26.0893  26.0974  29.3619  29.7348  31.0433
    31.7521  34.0321  34.1859  36.7794  37.1136  37.2661  37.7115  38.0338
    38.1493  39.7679  41.8400  42.4521  44.1274  45.2910  45.3842  45.6049
    47.1291  48.3919  48.8326  49.3724  49.6634  51.0531  51.1359  51.2788
    51.3470  51.7032  51.7548  53.8732  54.4743  54.6609  54.7520  55.7297
    56.2426  57.0581  57.1995  58.2504  58.5702  59.4680  60.0481  60.1076
    60.6082

          k = 0.2000 0.2000 0.3103 (  1681 PWs)   bands (ev):

   -63.6981 -63.6946 -25.8926 -25.8686 -25.7549 -25.7091 -25.6382 -25.5988
    -4.5444  -3.6588  -3.4187  -3.0451   7.1072   7.9789   8.2311   8.6662
     9.2341   9.6990  10.7353  10.9386  11.5287  12.1734  12.3501  13.1691
    16.5017  16.7748  17.4127  18.0329  18.0878  19.6053  22.1254  22.2168
    23.5834  24.5976  24.9009  27.3909  27.6689  29.9992  30.2551  30.7674
    31.7474  32.3167  34.1759  34.2278  35.4246  37.4174  38.2549  39.0083
    39.3621  40.4523  42.1848  42.6408  43.1015  43.4704  44.8208  45.3503
    45.7999  46.7547  47.8064  47.8334  50.0893  50.7704  51.0473  51.8999
    52.2729  53.0797  53.7809  53.8620  55.0110  55.1128  55.2684  55.9049
    55.9731  56.5507  56.9005  57.7289  60.0353  60.4843  61.0522  61.3685
    62.9035

          k = 0.2000 0.2000 0.6207 (  1671 PWs)   bands (ev):

   -63.6824 -63.6811 -26.2183 -26.2091 -25.6596 -25.6394 -25.6144 -25.6013
    -4.1244  -3.6713  -3.3954  -2.8357   7.7458   8.2704   8.3941   8.5156
     8.9365  10.4505  10.5115  10.8437  11.2997  11.6314  12.2432  12.5401
    16.1987  17.7614  17.8869  18.1256  18.4198  19.4213  21.8914  22.9772
    23.6089  24.6542  26.1578  27.8751  28.4242  30.0553  30.1666  30.8453
    31.0431  32.7753  32.8339  33.9345  34.1551  35.2161  37.8631  38.4935
    39.4569  40.3699  40.9062  43.2748  43.4451  44.7022  44.9641  45.6312
    45.9160  46.3401  46.9824  49.5988  50.1194  50.5585  51.2702  51.5966
    51.7597  52.8442  53.2283  53.4720  54.4865  55.3591  55.7146  56.1883
    56.4742  57.4226  58.6158  58.6517  59.3278  60.0920  61.1064  61.2541
    62.4195

          k = 0.2000 0.4000 0.0000 (  1678 PWs)   bands (ev):

   -63.7062 -63.7045 -25.7924 -25.7596 -25.6675 -25.6558 -25.6536 -25.6199
    -4.7679  -4.3547  -3.1172  -2.8235   6.7435   7.5114   8.5874   8.6745
     9.2372   9.9468  10.4970  11.3123  11.8340  12.2389  12.3346  12.9217
    16.1885  16.6865  17.3217  17.8420  18.4982  19.4113  22.1687  23.5693
    23.6164  24.0789  24.5654  25.6033  27.0499  28.5003  29.3870  29.8759
    32.2092  33.3796  35.3764  36.5151  36.7444  36.9124  38.3121  39.1173
    39.5827  40.4424  41.4334  42.4046  43.3641  43.5945  44.4524  45.9044
    47.1469  47.3504  49.1477  49.9416  50.5624  50.7481  51.5790  52.3397
    52.4432  53.1713  53.4197  53.8913  54.2548  54.5199  54.9934  55.2638
    56.2294  56.6136  56.8730  57.5679  57.7825  58.4865  59.0916  59.6356
    60.8812

          k = 0.2000 0.4000 0.3103 (  1680 PWs)   bands (ev):

   -63.6970 -63.6957 -25.8867 -25.8776 -25.7440 -25.7148 -25.6335 -25.6081
    -4.2520  -3.8669  -3.4100  -3.1797   7.3718   8.0013   8.2975   8.4419
     9.6587   9.9854  10.4724  10.9907  11.2348  11.7714  12.3616  12.7443
    16.9419  17.1694  17.3693  17.9065  18.4947  19.0333  22.2030  22.6328
    23.3023  24.0452  25.6870  26.6014  28.1320  29.1553  30.1912  30.3636
    31.9360  32.1705  33.9796  34.4924  36.2278  36.7461  38.5535  39.6600
    39.8408  40.9006  41.8224  41.9734  43.5783  43.6918  44.6198  45.1489
    46.3584  47.4815  48.0643  48.9862  49.8850  50.8690  51.3504  51.9248
    52.3664  53.2831  53.4453  53.6692  54.0840  54.6728  55.1312  55.3042
    56.7139  56.8635  57.7938  57.9645  58.4624  59.0672  60.1193  60.7827
    62.2266

          k = 0.2000 0.4000 0.6207 (  1671 PWs)   bands (ev):

   -63.6820 -63.6815 -26.2166 -26.2128 -25.6549 -25.6422 -25.6127 -25.6042
    -4.1206  -3.9203  -3.0990  -2.8442   7.6377   7.8522   8.3343   8.5942
     9.2227  10.0895  10.7527  11.0276  11.4248  11.9086  12.3205  12.8371
    16.0460  16.7557  18.1232  18.3236  18.6191  19.2015  22.0008  22.5762
    24.1268  24.7070  26.2611  26.9697  28.1596  28.8700  30.1781  30.7210
    31.2754  32.0194  33.7404  34.2951  35.1371  36.2069  37.1800  38.0438
    40.0833  40.7228  41.1479  42.6132  44.3560  44.7556  45.4437  45.7451
    46.8073  47.3483  48.5892  48.9896  49.4262  50.2611  51.3635  51.4480
    52.0290  52.2684  52.6945  53.6736  54.4146  55.1425  55.7062  55.8339
    56.4701  56.9409  57.8889  58.4233  58.9751  59.3736  60.4926  61.2295
    61.8051

          k = 0.4000 0.4000 0.0000 (  1690 PWs)   bands (ev):

   -63.7057 -63.7050 -25.8115 -25.7970 -25.6641 -25.6596 -25.6164 -25.6016
    -4.7510  -4.5928  -2.8684  -2.7101   6.4005   6.7508   8.5155   8.5639
     9.9233  10.6203  10.9139  11.5450  12.0073  12.1908  12.4163  12.7174
    15.7404  16.1713  17.0197  17.3373  18.9827  19.3235  22.2031  22.7414
    24.0697  24.3367  25.4179  25.8487  27.4718  28.2391  28.4310  28.7342
    32.8303  33.4557  36.7360  37.5428  38.1237  38.1579  38.6021  39.0104
    39.0207  39.1667  39.9234  41.2047  42.0911  43.7130  44.4766  45.9382
    46.4645  47.6085  48.0800  48.9734  50.5994  51.9428  52.4987  53.0335
    53.1521  53.2920  53.6455  54.6662  54.9518  55.3856  55.6371  55.9201
    56.1967  56.5950  56.9705  57.5774  57.8713  58.2530  58.3619  59.9988
    61.7768

          k = 0.4000 0.4000 0.3103 (  1669 PWs)   bands (ev):

   -63.6966 -63.6961 -25.8800 -25.8770 -25.7614 -25.7477 -25.6055 -25.5945
    -4.2192  -4.0838  -3.2212  -3.1145   7.1063   7.3747   8.1968   8.2864
    10.3973  10.5910  10.8225  11.2875  11.6786  11.8230  11.9419  12.2755
    16.7590  17.1362  17.2154  17.5260  18.4523  18.6888  22.8061  22.9208
    23.4722  23.5478  26.1671  26.5123  27.9114  28.4239  29.9500  30.0710
    31.8022  32.1124  33.9077  34.5254  36.3434  37.4209  38.7966  40.2433
    40.4106  40.8711  42.2562  42.7870  43.5549  44.2990  45.1937  45.7374
    46.5046  46.7394  47.7996  48.0418  49.6682  50.3001  51.1910  51.3322
    52.3406  52.4242  53.0664  53.4377  53.8243  54.7196  55.2037  55.6839
    56.2183  57.0063  57.8308  58.4913  58.5599  59.2986  61.0956  61.1304
    61.1788

          k = 0.4000 0.4000 0.6207 (  1662 PWs)   bands (ev):

   -63.6819 -63.6817 -26.2124 -26.2105 -25.6626 -25.6566 -25.6035 -25.6002
    -3.9325  -3.7268  -3.3045  -3.0697   7.7888   8.2168   8.2367   8.6268
     9.0100   9.4890  10.6387  10.8229  11.7920  12.0390  12.7571  12.9820
    16.6037  17.2851  17.8965  18.0957  18.1795  18.6084  22.5425  23.2379
    23.4838  24.1156  26.0975  26.3758  27.9404  28.5452  29.4733  30.0978
    31.2310  31.4858  34.7411  34.9293  35.9969  36.6330  37.4601  38.0381
    41.0202  41.2398  41.2826  42.7012  45.3536  45.4142  46.5164  46.9722
    47.6377  47.7312  48.7506  49.1209  49.7904  49.9227  50.4632  50.7263
    51.6165  51.8243  52.4040  52.6756  53.4696  53.6139  54.3771  55.6517
    55.9286  56.6701  57.0987  57.9284  58.1998  58.8007  59.4358  60.1186
    61.6209

     the Fermi energy is    17.7644 ev

!    total energy              =    -518.35261153 Ry
     Harris-Foulkes estimate   =    -518.35261088 Ry
     estimated scf accuracy    <       0.00000026 Ry

     The total energy is the sum of the following terms:

     one-electron contribution =    -101.05367557 Ry
     hartree contribution      =      85.97394771 Ry
     xc contribution           =    -143.40340010 Ry
     ewald contribution        =    -359.86922777 Ry
     smearing contrib. (-TS)   =      -0.00025580 Ry

     total magnetization       =     0.28 Bohr mag/cell
     absolute magnetization    =     0.28 Bohr mag/cell

     convergence has been achieved in  15 iterations

     Forces acting on atoms (Ry/au):


     negative rho (up, down):  0.278E-01 0.310E-01
     atom    1 type  1   force =     0.00000000    0.00000000    0.00000000
     atom    2 type  1   force =     0.00000000    0.00000000   -0.00000000
     atom    3 type  2   force =    -0.09046592   -0.09046592    0.00000000
     atom    4 type  2   force =     0.09046592    0.09046592    0.00000000
     atom    5 type  2   force =    -0.09046592    0.09046592    0.00000000
     atom    6 type  2   force =     0.09046592   -0.09046592   -0.00000000

     Total force =     0.255876     Total SCF correction =     0.000311


     entering subroutine stress ...


     negative rho (up, down):  0.278E-01 0.310E-01
          total   stress  (Ry/bohr**3)                   (kbar)     P=  582.28
   0.00379632   0.00000000   0.00000000        558.46      0.00      0.00
   0.00000000   0.00379632   0.00000000          0.00    558.46      0.00
   0.00000000   0.00000000   0.00428213          0.00      0.00    629.92

     Volume is kept fixed: isostatic pressure set to zero

     BFGS Geometry Optimization

     number of scf cycles    =   1
     number of bfgs steps    =   0

     enthalpy new            =    -518.3526115296 Ry

     new trust radius        =       0.1279381279 bohr
     new conv_thr            =       0.0000010000 Ry

     new unit-cell volume =    392.45142 a.u.^3 (    58.15530 Ang^3 )

CELL_PARAMETERS (alat=  8.47617942)
   0.995967880   0.000000000   0.000000000
   0.000000000   0.995967880   0.000000000
   0.000000000   0.000000000   0.649673001

ATOMIC_POSITIONS (crystal)
Re0      0.000000000   0.000000000   0.000000000    0   0   0
Re0      0.500000000   0.500000000   0.500000000    0   0   0
O1       0.294327041   0.294327041   0.000000000    1   1   0
O1      -0.294327041  -0.294327041   0.000000000    1   1   0
O1       0.794327041   0.205672959   0.500000000    1   1   0
O1       0.205672959   0.794327041   0.500000000    1   1   0


     Check: negative starting charge=(component1):   -0.058852
     NEW-OLD atomic charge density approx. for the potential
     NEW k-points:
        k(    1) = (   0.0000000   0.0000000   0.0000000), wk =   0.0080000
        k(    2) = (   0.0000000   0.0000000   0.3078472), wk =   0.0160000
        k(    3) = (   0.0000000   0.0000000   0.6156944), wk =   0.0160000
        k(    4) = (   0.0000000   0.2008097   0.0000000), wk =   0.0320000
        k(    5) = (   0.0000000   0.2008097   0.3078472), wk =   0.0640000
        k(    6) = (   0.0000000   0.2008097   0.6156944), wk =   0.0640000
        k(    7) = (   0.0000000   0.4016194   0.0000000), wk =   0.0320000
        k(    8) = (   0.0000000   0.4016194   0.3078472), wk =   0.0640000
        k(    9) = (   0.0000000   0.4016194   0.6156944), wk =   0.0640000
        k(   10) = (   0.2008097   0.2008097   0.0000000), wk =   0.0320000
        k(   11) = (   0.2008097   0.2008097   0.3078472), wk =   0.0640000
        k(   12) = (   0.2008097   0.2008097   0.6156944), wk =   0.0640000
        k(   13) = (   0.2008097   0.4016194   0.0000000), wk =   0.0640000
        k(   14) = (   0.2008097   0.4016194   0.3078472), wk =   0.1280000
        k(   15) = (   0.2008097   0.4016194   0.6156944), wk =   0.1280000
        k(   16) = (   0.4016194   0.4016194   0.0000000), wk =   0.0320000
        k(   17) = (   0.4016194   0.4016194   0.3078472), wk =   0.0640000
        k(   18) = (   0.4016194   0.4016194   0.6156944), wk =   0.0640000
        k(   19) = (   0.0000000   0.0000000   0.0000000), wk =   0.0080000
        k(   20) = (   0.0000000   0.0000000   0.3078472), wk =   0.0160000
        k(   21) = (   0.0000000   0.0000000   0.6156944), wk =   0.0160000
        k(   22) = (   0.0000000   0.2008097   0.0000000), wk =   0.0320000
        k(   23) = (   0.0000000   0.2008097   0.3078472), wk =   0.0640000
        k(   24) = (   0.0000000   0.2008097   0.6156944), wk =   0.0640000
        k(   25) = (   0.0000000   0.4016194   0.0000000), wk =   0.0320000
        k(   26) = (   0.0000000   0.4016194   0.3078472), wk =   0.0640000
        k(   27) = (   0.0000000   0.4016194   0.6156944), wk =   0.0640000
        k(   28) = (   0.2008097   0.2008097   0.0000000), wk =   0.0320000
        k(   29) = (   0.2008097   0.2008097   0.3078472), wk =   0.0640000
        k(   30) = (   0.2008097   0.2008097   0.6156944), wk =   0.0640000
        k(   31) = (   0.2008097   0.4016194   0.0000000), wk =   0.0640000
        k(   32) = (   0.2008097   0.4016194   0.3078472), wk =   0.1280000
        k(   33) = (   0.2008097   0.4016194   0.6156944), wk =   0.1280000
        k(   34) = (   0.4016194   0.4016194   0.0000000), wk =   0.0320000
        k(   35) = (   0.4016194   0.4016194   0.3078472), wk =   0.0640000
        k(   36) = (   0.4016194   0.4016194   0.6156944), wk =   0.0640000

     Check: negative/imaginary core charge=   -0.000004    0.000000
     Check: negative starting charge=(component1):   -0.058840

     negative rho (up, down):  0.278E-01 0.310E-01

     total cpu time spent up to now is      389.7 secs

     per-process dynamical memory:    48.7 Mb

     Self-consistent Calculation

     iteration #  1     ecut=    40.00 Ry     beta=0.30
     Davidson diagonalization with overlap
     ethr =  1.00E-06,  avg # of iterations =  5.4

     negative rho (up, down):  0.283E-01 0.309E-01

     total cpu time spent up to now is      437.3 secs

     total energy              =    -518.38487761 Ry
     Harris-Foulkes estimate   =    -518.38799115 Ry
     estimated scf accuracy    <       0.01056518 Ry

     total magnetization       =     0.09 Bohr mag/cell
     absolute magnetization    =     0.10 Bohr mag/cell

     iteration #  2     ecut=    40.00 Ry     beta=0.30
     Davidson diagonalization with overlap
     ethr =  1.96E-05,  avg # of iterations =  1.0

     negative rho (up, down):  0.288E-01 0.305E-01

     total cpu time spent up to now is      455.6 secs

     total energy              =    -518.38414684 Ry
     Harris-Foulkes estimate   =    -518.38533750 Ry
     estimated scf accuracy    <       0.00322531 Ry

     total magnetization       =     0.09 Bohr mag/cell
     absolute magnetization    =     0.09 Bohr mag/cell

     iteration #  3     ecut=    40.00 Ry     beta=0.30
     Davidson diagonalization with overlap
     ethr =  5.97E-06,  avg # of iterations =  1.1

     negative rho (up, down):  0.290E-01 0.303E-01

     total cpu time spent up to now is      474.1 secs

     total energy              =    -518.38460767 Ry
     Harris-Foulkes estimate   =    -518.38450805 Ry
     estimated scf accuracy    <       0.00020869 Ry

     total magnetization       =     0.06 Bohr mag/cell
     absolute magnetization    =     0.07 Bohr mag/cell

     iteration #  4     ecut=    40.00 Ry     beta=0.30
     Davidson diagonalization with overlap
     ethr =  3.86E-07,  avg # of iterations =  1.4

     negative rho (up, down):  0.293E-01 0.300E-01

     total cpu time spent up to now is      493.0 secs

     total energy              =    -518.38470125 Ry
     Harris-Foulkes estimate   =    -518.38462811 Ry
     estimated scf accuracy    <       0.00004957 Ry

     total magnetization       =     0.05 Bohr mag/cell
     absolute magnetization    =     0.05 Bohr mag/cell

     iteration #  5     ecut=    40.00 Ry     beta=0.30
     Davidson diagonalization with overlap
     ethr =  9.18E-08,  avg # of iterations =  1.1

     negative rho (up, down):  0.295E-01 0.298E-01

     total cpu time spent up to now is      511.6 secs

     total energy              =    -518.38474519 Ry
     Harris-Foulkes estimate   =    -518.38471462 Ry
     estimated scf accuracy    <       0.00000614 Ry

     total magnetization       =     0.03 Bohr mag/cell
     absolute magnetization    =     0.03 Bohr mag/cell

     iteration #  6     ecut=    40.00 Ry     beta=0.30
     Davidson diagonalization with overlap
     ethr =  1.14E-08,  avg # of iterations =  2.0

     negative rho (up, down):  0.296E-01 0.297E-01

     total cpu time spent up to now is      532.1 secs

     total energy              =    -518.38476367 Ry
     Harris-Foulkes estimate   =    -518.38475029 Ry
     estimated scf accuracy    <       0.00000124 Ry

     total magnetization       =     0.01 Bohr mag/cell
     absolute magnetization    =     0.01 Bohr mag/cell

     iteration #  7     ecut=    40.00 Ry     beta=0.30
     Davidson diagonalization with overlap
     ethr =  2.29E-09,  avg # of iterations =  2.0

     negative rho (up, down):  0.296E-01 0.297E-01

     total cpu time spent up to now is      552.8 secs

     End of self-consistent calculation

 ------ SPIN UP ------------


          k = 0.0000 0.0000 0.0000 (  1667 PWs)   bands (ev):

   -63.8219 -63.8151 -25.9674 -25.9674 -25.7596 -25.7596 -25.7136 -25.6621
    -5.2917  -4.0320  -2.5503  -2.5503   6.3266   6.5658   7.6661   8.9722
     8.9722  11.2793  11.2793  11.6786  12.9502  13.1773  13.1773  14.0099
    15.2947  15.4518  16.3940  16.8302  16.8302  20.8612  21.0849  21.6447
    23.5566  23.5566  25.4932  25.4932  26.5954  30.2521  30.4884  31.5878
    32.7622  33.1682  34.7276  34.7276  36.5751  37.7557  38.2166  38.2166
    39.0884  39.0884  39.7139  44.2680  44.6712  44.6712  45.8814  45.9844
    47.0899  48.7278  48.9968  48.9968  49.2976  49.4438  49.7576  49.7576
    50.6127  50.6370  51.2239  51.2239  53.8145  56.8235  57.1974  57.1974
    57.6341  57.8818  57.8818  57.9981  58.7405  58.8233  58.8233  59.0184
    60.7084

          k = 0.0000 0.0000 0.3078 (  1675 PWs)   bands (ev):

   -63.8137 -63.8082 -25.9364 -25.9364 -25.8894 -25.8500 -25.7431 -25.7431
    -4.7902  -3.7214  -2.8709  -2.8709   7.1076   7.1251   8.1763   8.7955
     8.7955  10.2509  11.3146  11.9105  11.9105  12.2077  12.2077  13.4539
    16.1957  16.4430  16.7115  17.4437  17.4437  20.2609  21.8999  22.9973
    23.0462  23.0462  25.8525  27.4480  27.4480  30.4363  30.8271  31.2744
    31.5930  32.0078  33.9613  33.9613  34.3701  38.7361  39.1359  39.1359
    39.4123  39.4123  41.5028  42.9019  43.5602  44.4500  44.4500  44.4687
    44.5620  45.7974  46.4909  46.4909  49.6652  51.1208  51.1208  51.7830
    52.0547  52.6164  52.6164  53.0776  54.3939  56.3031  56.3031  56.3296
    57.1663  57.4595  57.4595  59.7388  59.9640  60.9054  60.9054  60.9354
    61.4446

          k = 0.0000 0.0000 0.6157 (  1683 PWs)   bands (ev):

   -63.7998 -63.7977 -26.1597 -26.1455 -25.8869 -25.8869 -25.7149 -25.7149
    -3.8054  -3.3657  -3.3657  -3.3597   7.9497   8.2902   8.9571   8.9978
     8.9978   9.6193   9.6811  10.7524  10.7524  11.6568  12.4527  12.4527
    17.3100  17.6517  18.2838  18.3848  18.3848  18.8220  22.7762  22.9890
    22.9890  23.4628  25.9702  28.6287  30.3806  30.3806  30.8930  31.3494
    31.3963  31.4922  32.1609  32.4909  32.4909  33.9940  39.3539  39.3539
    40.7389  40.7389  41.6391  42.2993  42.7280  42.7721  44.2758  44.6489
    44.6489  46.1484  46.1484  47.8777  49.9286  51.1615  51.1615  52.4100
    52.4100  52.7722  52.7722  53.5669  54.3669  54.4861  55.6624  57.9259
    58.1848  58.1848  58.2894  58.7330  59.6043  59.6043  62.2940  62.5069
    62.7232

          k = 0.0000 0.2008 0.0000 (  1687 PWs)   bands (ev):

   -63.8212 -63.8158 -25.9550 -25.9540 -25.7749 -25.7737 -25.7087 -25.6673
    -5.0855  -3.9383  -2.8599  -2.7156   6.7795   6.9379   7.9973   9.0266
     9.0487  10.6982  10.8629  11.5470  12.2912  12.5282  12.8746  13.8195
    15.7899  15.8033  16.9359  17.2125  17.3247  20.3487  21.4887  22.1984
    23.1826  23.2505  25.6782  25.7432  26.3246  30.0068  30.3459  31.1482
    32.0205  33.2609  34.7421  35.4505  36.7437  37.1148  37.1376  37.5995
    39.5156  40.1675  42.0148  42.6656  44.8654  45.0435  46.1680  46.2259
    46.7881  48.0826  48.3891  48.7720  48.8996  49.9544  50.5029  50.6009
    50.9565  51.2992  52.0032  52.7116  53.6114  55.4691  56.0493  56.0657
    56.4786  57.2727  57.5015  57.8598  58.3019  59.0107  59.4949  61.0117
    61.9981

          k = 0.0000 0.2008 0.3078 (  1688 PWs)   bands (ev):

   -63.8132 -63.8088 -25.9394 -25.9313 -25.8740 -25.8528 -25.7529 -25.7503
    -4.6282  -3.6619  -3.0730  -2.9687   7.3556   7.4146   8.3045   8.7886
     9.1439  10.0561  10.5940  11.4765  11.4978  12.2581  12.3847  13.4441
    16.3283  16.6539  16.9594  17.4205  17.9294  19.9284  22.2246  22.3501
    22.6892  23.7100  25.7605  27.3025  27.6380  30.4940  30.5151  31.0739
    31.6096  31.9524  33.1553  34.3990  35.5183  37.7861  38.6366  38.7992
    39.0298  40.1539  42.2974  42.8335  43.2525  43.5700  44.2085  44.8580
    45.6626  46.2768  47.2881  47.5062  50.1808  50.7337  51.6485  51.7894
    51.9447  52.4957  53.0987  53.2515  55.0102  55.1389  55.6101  55.6380
    56.5596  57.0039  57.9780  58.9286  59.0869  60.3077  61.3230  62.2106
    62.2751

          k = 0.0000 0.2008 0.6157 (  1675 PWs)   bands (ev):

   -63.7996 -63.7979 -26.1634 -26.1518 -25.8814 -25.8807 -25.7163 -25.7157
    -3.9804  -3.7757  -3.1157  -2.9534   7.8465   8.0613   8.1843   8.7523
     9.5106   9.6260  10.4378  10.8317  11.2120  12.0071  12.2101  12.2774
    16.6540  17.5503  17.8350  18.2783  18.7750  19.1369  22.1297  22.3938
    23.5421  24.5393  25.9736  28.1445  29.6686  30.2136  30.4019  30.9264
    31.2759  32.1603  32.3131  32.3819  34.3632  34.3831  38.6692  38.8747
    39.7772  40.5219  41.5068  41.9775  43.1983  43.5764  44.8728  44.9349
    45.8187  46.0478  46.3769  48.5388  50.6315  50.7002  51.2099  51.8740
    52.2328  52.3964  52.7913  53.7530  54.3817  55.0884  55.5043  57.1500
    57.3621  57.8989  58.5242  59.0815  60.1752  60.4124  60.8362  60.9306
    62.7747

          k = 0.0000 0.4016 0.0000 (  1683 PWs)   bands (ev):

   -63.8196 -63.8175 -25.9282 -25.9268 -25.8047 -25.8031 -25.6959 -25.6801
    -4.5221  -3.8727  -3.3721  -3.0971   7.7738   7.8294   9.0069   9.1427
     9.1697   9.6188   9.7510  10.5951  11.4563  11.8212  12.9200  13.3531
    16.2538  16.2932  17.9389  18.0316  18.0510  19.2420  22.5248  22.5596
    22.6406  23.0956  25.2058  25.5596  27.1217  28.8420  30.3903  30.7285
    31.5758  33.4430  34.5813  34.6564  35.1160  36.5095  38.3785  39.6320
    39.8082  41.4931  42.6726  43.5664  44.0322  44.9208  45.0881  45.2989
    47.1572  47.7023  47.9618  48.8486  50.2129  50.4707  50.4754  50.6389
    52.0321  52.2387  53.7580  53.8071  54.0450  54.5012  54.5829  55.4987
    56.6442  56.6837  56.8545  57.3017  57.7103  58.0154  60.6170  61.3552
    61.4509

          k = 0.0000 0.4016 0.3078 (  1685 PWs)   bands (ev):

   -63.8118 -63.8101 -25.9363 -25.9283 -25.8512 -25.8507 -25.7708 -25.7668
    -4.1906  -3.6472  -3.4166  -3.2010   7.9430   8.0687   8.6651   8.7521
     9.4958   9.6289  10.0895  10.6713  10.8311  11.5873  12.8780  13.2222
    16.7096  16.9570  17.4332  17.6629  18.6527  19.2174  21.6868  21.8610
    23.1819  24.0073  25.8618  26.6528  28.4338  29.7904  30.4803  30.8636
    31.7614  31.7896  32.6796  34.2725  36.2438  37.3804  38.6508  38.9691
    38.9701  40.9759  41.5757  41.9960  43.3872  43.4094  44.6140  44.7140
    46.5248  48.1246  48.5063  49.1374  49.7388  50.3498  51.1392  51.8198
    52.0993  52.7199  53.4950  53.8300  54.3739  54.7628  55.2443  55.7139
    56.6217  57.0954  57.7211  59.1056  59.2527  59.4874  60.3020  61.0567
    61.2512

          k = 0.0000 0.4016 0.6157 (  1678 PWs)   bands (ev):

   -63.7991 -63.7984 -26.1677 -26.1631 -25.8722 -25.8713 -25.7182 -25.7177
    -4.1173  -4.0504  -2.8089  -2.7313   7.6615   7.7038   7.9781   8.1021
    10.0085  10.3198  10.5983  11.2620  11.5983  11.6015  12.2746  12.7420
    15.8764  16.3721  18.1468  18.2866  19.1353  19.2325  21.6459  21.8509
    24.4658  25.0805  26.4064  27.2727  29.3896  29.5912  30.0972  30.2407
    31.1316  31.8736  33.1597  33.2958  34.8671  35.6712  37.6516  38.1288
    40.1165  40.3487  41.4967  41.7697  43.2773  43.4645  45.5668  45.6805
    46.1693  46.3192  48.8953  49.0570  49.4995  49.6503  51.0585  51.7483
    52.0097  52.5139  53.2669  54.3888  54.4466  54.9254  56.0746  57.2757
    57.4370  58.1082  58.6206  58.9976  59.3055  59.4990  60.4599  61.6659
    61.9840

          k = 0.2008 0.2008 0.0000 (  1682 PWs)   bands (ev):

   -63.8208 -63.8163 -25.9723 -25.9253 -25.8057 -25.7566 -25.7046 -25.6713
    -4.9543  -3.8445  -3.2514  -2.6079   6.4474   7.8554   8.3009   8.9375
     9.1715   9.6991  11.1604  11.4514  12.1178  12.5049  12.6282  13.6000
    15.3901  16.2695  16.8573  17.4081  17.9948  20.0790  21.3779  22.6025
    23.0386  23.5403  25.3258  25.9258  26.5124  29.6171  29.7597  30.9414
    31.5074  33.7594  34.3884  36.8929  37.0401  37.3035  37.6773  37.8780
    38.4266  39.7868  41.7600  42.3648  44.1355  45.2295  45.4606  45.7020
    47.1184  48.6689  49.0736  49.2870  49.3976  50.5357  50.9517  51.2028
    51.3818  51.5324  51.8626  53.5503  53.7044  54.4587  54.7427  56.0650
    56.8566  56.8617  57.4576  57.9252  58.4237  59.2644  59.9616  60.4101
    61.0462

          k = 0.2008 0.2008 0.3078 (  1681 PWs)   bands (ev):

   -63.8128 -63.8092 -25.9403 -25.9317 -25.8745 -25.8450 -25.7696 -25.7410
    -4.5130  -3.5990  -3.3263  -2.9209   7.1052   8.0075   8.2984   8.9759
     9.2279   9.6625  10.6947  10.9445  11.6798  12.0787  12.5494  13.3391
    16.3175  16.4375  17.0127  17.9713  18.0543  19.6678  21.7597  22.3193
    22.9928  24.1005  25.6148  27.2401  27.6551  29.8939  30.2014  30.7916
    31.5844  32.2504  34.2690  34.3108  35.3666  37.1502  38.2787  39.1507
    39.3965  40.4021  41.8581  42.7375  43.1199  43.3962  44.8380  45.2029
    46.1406  46.7386  47.8426  48.0712  49.9099  50.2971  51.4279  51.7579
    52.0509  52.9095  53.0303  54.0086  54.6319  55.1973  55.3051  55.8492
    55.8954  57.0116  57.3839  57.5912  59.9188  60.3095  61.0829  61.3887
    62.6251

          k = 0.2008 0.2008 0.6157 (  1671 PWs)   bands (ev):

   -63.7994 -63.7981 -26.1656 -26.1522 -25.8883 -25.8712 -25.7179 -25.7150
    -4.1054  -3.5305  -3.4063  -2.7536   7.7581   7.9929   8.3012   8.4743
     8.9778  10.4078  10.7315  10.7791  11.2124  12.0125  12.2345  12.4281
    16.3842  17.6875  17.9067  17.9901  18.4017  19.4214  21.6505  22.9480
    23.4073  24.7612  26.0029  28.0081  28.4141  29.8204  30.2074  30.9194
    30.9524  32.4577  32.6469  34.0566  34.1565  35.1923  37.9331  38.4549
    39.4144  40.3752  40.9427  43.0499  43.5015  44.6704  45.2504  45.5172
    45.8938  46.1195  46.9989  48.8502  50.0590  50.6540  51.1430  51.6042
    51.6521  52.5333  52.7027  53.8765  53.9202  54.9354  55.7668  56.2709
    57.6341  57.9868  58.8595  59.0500  59.2350  60.0474  60.9654  61.1617
    62.1491

          k = 0.2008 0.4016 0.0000 (  1678 PWs)   bands (ev):

   -63.8194 -63.8177 -25.9618 -25.9314 -25.8007 -25.7693 -25.6943 -25.6816
    -4.5861  -4.0700  -3.2608  -2.8444   6.8485   7.8024   8.9873   9.1338
     9.1697   9.8086  10.4402  11.3591  11.6100  12.1174  12.4314  13.0231
    15.8078  16.2773  17.2991  18.0127  18.3303  19.3040  22.1558  22.5901
    23.1981  23.2598  25.2013  25.8527  27.3215  28.6750  29.4194  29.8168
    31.9164  33.2808  35.1446  36.5618  36.7973  36.8610  38.2165  39.0527
    39.5571  40.3680  41.4603  42.3861  43.3018  43.7160  44.4583  45.8834
    47.1609  47.8191  49.4150  49.8374  50.5685  50.5723  51.3270  51.9646
    52.3918  52.4051  53.3593  54.0977  54.5254  54.5710  54.9412  55.1229
    56.2685  56.4956  57.1247  57.6007  57.7643  58.5935  59.1712  59.7065
    60.6909

          k = 0.2008 0.4016 0.3078 (  1680 PWs)   bands (ev):

   -63.8117 -63.8103 -25.9402 -25.9330 -25.8677 -25.8482 -25.7673 -25.7485
    -4.2056  -3.7995  -3.3289  -3.0714   7.3717   8.0055   8.4571   8.7279
     9.6298   9.9719  10.4603  10.9541  11.1985  11.7438  12.5677  12.9580
    16.6615  16.9107  17.0167  17.8020  18.5124  19.0579  21.7482  22.4720
    23.0306  23.9442  25.9652  26.6850  28.2388  29.2157  30.0166  30.2395
    31.8106  32.2622  33.9255  34.3654  36.0891  36.7078  38.3466  39.4686
    39.9409  40.8672  41.6125  41.8610  43.5300  43.8788  44.7166  45.4846
    46.4236  47.6593  47.9801  48.9353  49.9671  50.7535  50.9083  51.4317
    52.4981  52.9936  53.1758  53.9947  54.3082  54.5186  55.3411  55.7743
    56.3673  57.0212  57.2937  57.9903  58.4229  58.9812  60.0987  61.0153
    62.1393

          k = 0.2008 0.4016 0.6157 (  1671 PWs)   bands (ev):

   -63.7990 -63.7985 -26.1647 -26.1579 -25.8828 -25.8723 -25.7180 -25.7161
    -4.0841  -3.8516  -3.0498  -2.7637   7.6423   7.8121   8.0667   8.3992
     9.3022  10.1970  10.8377  11.1185  11.3764  11.8512  12.5494  12.8830
    16.1080  16.7003  18.0767  18.2126  18.5974  19.1593  21.7166  22.3444
    24.1897  24.7994  26.3208  27.0653  28.1108  28.7786  30.1396  30.7171
    31.2216  31.8019  33.6635  34.2664  35.1143  36.1047  37.2048  38.0670
    39.8234  40.7679  41.2703  42.3443  44.3073  44.6786  45.6623  45.8823
    46.7557  47.3114  48.2208  48.7181  49.4545  49.9863  50.7723  51.2258
    51.7849  51.9292  53.0937  54.2869  54.3752  55.0720  55.3748  56.0927
    56.5339  57.3715  58.0856  58.3605  58.9270  59.5488  60.4384  60.8699
    61.6945

          k = 0.4016 0.4016 0.0000 (  1690 PWs)   bands (ev):

   -63.8188 -63.8182 -25.9806 -25.9663 -25.7660 -25.7515 -25.6905 -25.6856
    -4.5927  -4.4072  -2.8964  -2.6963   6.4446   6.8430   8.8813   8.9569
     9.9318  10.7843  10.9231  11.7217  11.8890  12.0800  12.3736  12.6346
    15.3545  15.7867  16.9020  17.3243  18.8774  19.2395  22.2372  22.7577
    23.1848  23.5166  25.6779  25.9277  27.8906  28.3945  28.4213  28.6622
    32.6767  33.4695  36.5239  37.4906  37.7863  38.1022  38.6681  38.7837
    39.0728  39.1732  39.8234  41.1600  41.9915  43.7040  44.5535  45.9846
    46.0058  47.7195  48.8324  49.2641  50.9670  51.7438  52.3371  52.4267
    53.3986  53.7219  53.7616  54.4759  54.6989  54.8940  55.1676  55.8662
    56.4706  56.5806  57.2811  57.4239  58.0123  58.0585  58.4352  60.3645
    61.6502

          k = 0.4016 0.4016 0.3078 (  1669 PWs)   bands (ev):

   -63.8112 -63.8107 -25.9463 -25.9425 -25.8716 -25.8620 -25.7466 -25.7376
    -4.1753  -4.0327  -3.1175  -2.9984   7.0890   7.3654   8.3555   8.4811
    10.4306  10.5786  10.8689  11.2625  11.6268  11.9254  12.0278  12.4238
    16.4326  16.7787  17.0284  17.4043  18.4777  18.7095  22.4474  22.8990
    23.0733  23.5197  26.2426  26.5156  28.1115  28.5179  29.6588  29.8120
    31.9257  32.4045  33.9890  34.5314  36.1108  37.2521  38.4871  39.9669
    40.0976  40.5372  42.2963  42.9275  43.4384  44.2809  45.3277  46.0873
    46.6573  47.0744  47.7086  47.8081  49.7221  50.1148  51.3253  51.4018
    51.8534  52.3032  52.8842  54.1307  54.3588  55.0739  55.1161  55.6727
    55.9948  56.1055  57.2955  58.3710  58.7895  59.2854  60.9029  61.1869
    61.5945

          k = 0.4016 0.4016 0.6157 (  1662 PWs)   bands (ev):

   -63.7988 -63.7986 -26.1566 -26.1525 -25.8903 -25.8838 -25.7161 -25.7152
    -3.8504  -3.4698  -3.4541  -3.0410   7.7626   8.1291   8.1853   8.4467
     9.0726   9.6140  10.6610  10.9271  11.6132  11.8926  12.9619  13.0967
    16.6852  17.5259  17.5875  18.0454  18.1471  18.5330  22.2920  22.8469
    23.7812  24.2103  26.0920  26.3393  27.8156  28.1964  29.7177  30.1225
    31.2918  31.4904  34.8788  35.0845  35.6265  36.3592  37.2990  37.8791
    40.6449  41.7434  41.7460  42.1657  45.4960  45.5547  46.2749  46.6465
    47.2700  47.8233  48.4023  48.6222  49.7272  50.0425  50.5547  50.6664
    51.1975  51.5457  52.2827  53.2636  53.7974  54.0858  54.4353  55.1595
    55.7096  56.6067  57.1630  57.7859  58.4537  58.9686  59.3058  60.0624
    61.6634

 ------ SPIN DOWN ----------


          k = 0.0000 0.0000 0.0000 (  1667 PWs)   bands (ev):

   -63.8196 -63.8128 -25.9648 -25.9648 -25.7578 -25.7578 -25.7085 -25.6569
    -5.2907  -4.0310  -2.5494  -2.5494   6.3290   6.5677   7.6669   8.9739
     8.9739  11.2801  11.2801  11.6797  12.9514  13.1782  13.1782  14.0111
    15.2981  15.4561  16.3951  16.8371  16.8371  20.8624  21.0876  21.6469
    23.5594  23.5594  25.4946  25.4946  26.5974  30.2526  30.4901  31.5907
    32.7624  33.1695  34.7285  34.7285  36.5787  37.7573  38.2190  38.2190
    39.0894  39.0894  39.7135  44.2687  44.6718  44.6718  45.8820  45.9861
    47.0909  48.7314  48.9976  48.9976  49.3015  49.4464  49.7579  49.7579
    50.6143  50.6374  51.2259  51.2259  53.8164  56.8255  57.1987  57.1987
    57.6401  57.8833  57.8833  57.9984  58.7439  58.8241  58.8241  59.0187
    60.7087

          k = 0.0000 0.0000 0.3078 (  1675 PWs)   bands (ev):

   -63.8114 -63.8059 -25.9337 -25.9337 -25.8842 -25.8449 -25.7414 -25.7414
    -4.7893  -3.7204  -2.8700  -2.8700   7.1097   7.1268   8.1771   8.7972
     8.7972  10.2520  11.3158  11.9115  11.9115  12.2094  12.2094  13.4550
    16.1997  16.4441  16.7162  17.4495  17.4495  20.2621  21.9025  22.9991
    23.0489  23.0489  25.8549  27.4495  27.4495  30.4368  30.8289  31.2762
    31.5959  32.0080  33.9616  33.9616  34.3735  38.7372  39.1379  39.1379
    39.4143  39.4143  41.5065  42.9016  43.5624  44.4510  44.4510  44.4703
    44.5629  45.7998  46.4919  46.4919  49.6668  51.1224  51.1224  51.7833
    52.0566  52.6167  52.6167  53.0796  54.3953  56.3045  56.3045  56.3325
    57.1666  57.4607  57.4607  59.7406  59.9646  60.9073  60.9073  60.9365
    61.4451

          k = 0.0000 0.0000 0.6157 (  1683 PWs)   bands (ev):

   -63.7974 -63.7953 -26.1546 -26.1404 -25.8840 -25.8840 -25.7134 -25.7134
    -3.8044  -3.3648  -3.3648  -3.3587   7.9510   8.2916   8.9581   9.0002
     9.0002   9.6201   9.6821  10.7537  10.7537  11.6578  12.4539  12.4539
    17.3111  17.6569  18.2893  18.3905  18.3905  18.8231  22.7789  22.9911
    22.9911  23.4654  25.9722  28.6307  30.3818  30.3818  30.8934  31.3497
    31.3991  31.4943  32.1641  32.4910  32.4910  33.9970  39.3552  39.3552
    40.7401  40.7401  41.6414  42.3008  42.7294  42.7732  44.2776  44.6514
    44.6514  46.1511  46.1511  47.8784  49.9286  51.1624  51.1624  52.4129
    52.4129  52.7730  52.7730  53.5671  54.3696  54.4889  55.6624  57.9264
    58.1864  58.1864  58.2897  58.7350  59.6060  59.6060  62.2955  62.5083
    62.7240

          k = 0.0000 0.2008 0.0000 (  1687 PWs)   bands (ev):

   -63.8189 -63.8134 -25.9524 -25.9514 -25.7732 -25.7720 -25.7035 -25.6622
    -5.0845  -3.9372  -2.8590  -2.7147   6.7818   6.9398   7.9981   9.0282
     9.0502  10.6992  10.8638  11.5485  12.2923  12.5299  12.8757  13.8207
    15.7930  15.8071  16.9370  17.2192  17.3313  20.3499  21.4913  22.2005
    23.1852  23.2531  25.6799  25.7444  26.3264  30.0078  30.3476  31.1505
    32.0227  33.2612  34.7424  35.4528  36.7440  37.1184  37.1384  37.6009
    39.5172  40.1694  42.0163  42.6660  44.8661  45.0439  46.1693  46.2280
    46.7890  48.0835  48.3899  48.7742  48.9017  49.9567  50.5037  50.6015
    50.9590  51.3004  52.0051  52.7132  53.6132  55.4715  56.0506  56.0667
    56.4794  57.2742  57.5033  57.8648  58.3025  59.0140  59.4961  61.0132
    61.9989

          k = 0.0000 0.2008 0.3078 (  1688 PWs)   bands (ev):

   -63.8108 -63.8064 -25.9363 -25.9285 -25.8693 -25.8480 -25.7513 -25.7485
    -4.6273  -3.6608  -3.0720  -2.9678   7.3575   7.4162   8.3056   8.7903
     9.1454  10.0574  10.5955  11.4776  11.4988  12.2595  12.3863  13.4453
    16.3310  16.6577  16.9635  17.4263  17.9341  19.9298  22.2272  22.3524
    22.6915  23.7121  25.7627  27.3038  27.6395  30.4950  30.5167  31.0757
    31.6124  31.9527  33.1557  34.4022  35.5191  37.7887  38.6387  38.8012
    39.0308  40.1550  42.3003  42.8352  43.2534  43.5706  44.2106  44.8596
    45.6635  46.2780  47.2891  47.5076  50.1817  50.7351  51.6502  51.7908
    51.9460  52.4971  53.0995  53.2529  55.0120  55.1406  55.6112  55.6394
    56.5607  57.0055  57.9792  58.9298  59.0886  60.3085  61.3244  62.2123
    62.2784

          k = 0.0000 0.2008 0.6157 (  1675 PWs)   bands (ev):

   -63.7972 -63.7955 -26.1584 -26.1467 -25.8785 -25.8778 -25.7148 -25.7142
    -3.9795  -3.7747  -3.1148  -2.9524   7.8481   8.0630   8.1857   8.7540
     9.5119   9.6271  10.4390  10.8331  11.2132  12.0081  12.2114  12.2788
    16.6565  17.5543  17.8402  18.2836  18.7795  19.1397  22.1320  22.3963
    23.5443  24.5416  25.9753  28.1459  29.6698  30.2150  30.4027  30.9280
    31.2776  32.1620  32.3158  32.3831  34.3638  34.3856  38.6710  38.8762
    39.7790  40.5233  41.5081  41.9790  43.1997  43.5776  44.8743  44.9367
    45.8219  46.0498  46.3797  48.5396  50.6319  50.7008  51.2111  51.8752
    52.2348  52.3987  52.7921  53.7539  54.3843  55.0911  55.5051  57.1522
    57.3630  57.9008  58.5249  59.0830  60.1764  60.4135  60.8377  60.9321
    62.7760

          k = 0.0000 0.4016 0.0000 (  1683 PWs)   bands (ev):

   -63.8172 -63.8151 -25.9253 -25.9240 -25.8031 -25.8016 -25.6908 -25.6750
    -4.5211  -3.8717  -3.3711  -3.0961   7.7760   7.8314   9.0078   9.1441
     9.1711   9.6199   9.7520  10.5963  11.4583  11.8233  12.9212  13.3543
    16.2571  16.2963  17.9456  18.0328  18.0577  19.2432  22.5273  22.5618
    22.6428  23.0978  25.2074  25.5606  27.1236  28.8442  30.3919  30.7293
    31.5788  33.4456  34.5814  34.6567  35.1161  36.5102  38.3819  39.6326
    39.8110  41.4940  42.6748  43.5669  44.0327  44.9220  45.0892  45.3006
    47.1587  47.7032  47.9627  48.8499  50.2142  50.4716  50.4775  50.6400
    52.0332  52.2408  53.7594  53.8089  54.0464  54.5028  54.5849  55.5000
    56.6476  56.6857  56.8556  57.3032  57.7119  58.0204  60.6197  61.3563
    61.4515

          k = 0.0000 0.4016 0.3078 (  1685 PWs)   bands (ev):

   -63.8095 -63.8078 -25.9327 -25.9249 -25.8467 -25.8464 -25.7693 -25.7650
    -4.1896  -3.6462  -3.4155  -3.2000   7.9445   8.0701   8.6666   8.7539
     9.4974   9.6306  10.0908  10.6724  10.8323  11.5886  12.8794  13.2235
    16.7140  16.9616  17.4362  17.6674  18.6568  19.2197  21.6889  21.8632
    23.1842  24.0096  25.8633  26.6539  28.4356  29.7925  30.4818  30.8648
    31.7619  31.7906  32.6816  34.2753  36.2467  37.3836  38.6517  38.9701
    38.9708  40.9775  41.5769  41.9970  43.3891  43.4108  44.6146  44.7152
    46.5263  48.1261  48.5072  49.1389  49.7402  50.3515  51.1407  51.8212
    52.1005  52.7210  53.4966  53.8313  54.3751  54.7649  55.2468  55.7149
    56.6229  57.0969  57.7223  59.1066  59.2544  59.4886  60.3039  61.0594
    61.2524

          k = 0.0000 0.4016 0.6157 (  1678 PWs)   bands (ev):

   -63.7967 -63.7961 -26.1627 -26.1581 -25.8692 -25.8683 -25.7168 -25.7162
    -4.1163  -4.0494  -2.8079  -2.7304   7.6633   7.7057   7.9794   8.1034
    10.0097  10.3208  10.5995  11.2630  11.5993  11.6027  12.2761  12.7431
    15.8801  16.3760  18.1521  18.2918  19.1392  19.2358  21.6482  21.8533
    24.4679  25.0827  26.4077  27.2738  29.3910  29.5923  30.0990  30.2423
    31.1330  31.8750  33.1621  33.2979  34.8697  35.6729  37.6534  38.1305
    40.1183  40.3501  41.4980  41.7709  43.2788  43.4654  45.5678  45.6812
    46.1707  46.3216  48.8973  49.0585  49.5012  49.6515  51.0598  51.7495
    52.0116  52.5161  53.2677  54.3905  54.4482  54.9272  56.0762  57.2774
    57.4388  58.1098  58.6223  58.9992  59.3069  59.4999  60.4609  61.6673
    61.9846

          k = 0.2008 0.2008 0.0000 (  1682 PWs)   bands (ev):

   -63.8184 -63.8139 -25.9697 -25.9224 -25.8042 -25.7547 -25.6995 -25.6662
    -4.9533  -3.8435  -3.2505  -2.6070   6.4496   7.8576   8.3017   8.9392
     9.1729   9.7002  11.1613  11.4532  12.1189  12.5063  12.6290  13.6012
    15.3940  16.2727  16.8642  17.4092  18.0014  20.0802  21.3803  22.6047
    23.0411  23.5431  25.3276  25.9270  26.5140  29.6182  29.7616  30.9429
    31.5104  33.7597  34.3898  36.8934  37.0401  37.3066  37.6792  37.8797
    38.4281  39.7881  41.7609  42.3670  44.1360  45.2309  45.4615  45.7030
    47.1196  48.6707  49.0751  49.2886  49.3985  50.5372  50.9530  51.2062
    51.3826  51.5340  51.8634  53.5522  53.7066  54.4597  54.7436  56.0657
    56.8615  56.8635  57.4584  57.9264  58.4252  59.2683  59.9632  60.4115
    61.0474

          k = 0.2008 0.2008 0.3078 (  1681 PWs)   bands (ev):

   -63.8104 -63.8068 -25.9376 -25.9282 -25.8696 -25.8404 -25.7680 -25.7393
    -4.5120  -3.5980  -3.3253  -2.9200   7.1071   8.0090   8.2997   8.9778
     9.2291   9.6643  10.6958  10.9457  11.6810  12.0799  12.5508  13.3402
    16.3209  16.4419  17.0173  17.9770  18.0578  19.6693  21.7619  22.3217
    22.9953  24.1028  25.6167  27.2411  27.6567  29.8954  30.2024  30.7935
    31.5873  32.2510  34.2697  34.3139  35.3674  37.1533  38.2801  39.1520
    39.3972  40.4035  41.8607  42.7386  43.1214  43.3977  44.8388  45.2053
    46.1424  46.7394  47.8437  48.0720  49.9115  50.2981  51.4294  51.7590
[...]
    32.2645  32.7433  34.8632  35.0281  35.3938  36.0161  38.2141  40.3022
    40.7643  41.1828  41.2664  42.5325  42.8872  43.5287  43.7460  45.0852
    45.8895  47.0047  49.3859  49.7051  50.2939  50.4139  51.6303  51.8978
    52.2473  52.2846  52.8346  53.1548  53.6799  54.0561  54.2618  54.8181
    55.1255  56.7913  57.1749  58.0250  58.7569  59.2239  59.6642  60.5212
    61.1254

          k = 0.3758 0.3758 0.7032 (  1685 PWs)   bands (ev):

   -64.2951 -64.2950 -26.8966 -26.8959 -26.3238 -26.3197 -26.2754 -26.2724
    -3.6883  -3.4036  -3.1517  -2.8181   7.5391   8.0703   8.0809   8.5023
     8.7608   9.4355   9.6247  10.5855  11.5727  11.8067  12.8462  13.0682
    15.9129  16.1733  17.3315  17.7676  19.6206  19.7466  21.8028  22.8924
    23.2757  24.0807  26.3943  26.6861  27.3882  27.4823  31.2138  31.2191
    33.0795  33.2385  33.5691  33.9457  36.0289  36.6916  37.1922  37.8581
    40.6012  40.8693  41.5643  41.8136  44.1739  44.6978  45.6733  46.2853
    46.3103  46.6929  48.2127  48.9063  49.4197  49.8326  50.4472  50.5690
    51.1555  51.9191  52.0565  52.7353  53.7443  54.0543  54.3584  54.5595
    56.1852  57.1391  59.2854  60.2998  60.7515  60.8460  61.8776  62.0336
    63.3999

 ------ SPIN DOWN ----------


          k = 0.0000 0.0000 0.0000 (  1685 PWs)   bands (ev):

   -64.3912 -64.3882 -26.5506 -26.5506 -26.4031 -26.4031 -25.6284 -25.6051
    -5.2304  -4.0410  -2.8043  -2.8043   6.2522   6.5356   7.4735  10.7653
    10.7653  10.7819  10.7819  12.7966  12.9835  12.9835  13.0321  13.0498
    13.7912  13.9171  15.7023  17.7136  17.7136  20.5011  20.5270  21.8064
    22.4554  22.4554  25.4612  26.2243  26.2243  28.7385  29.3295  29.9493
    33.6105  33.6105  34.0424  35.8920  35.8920  37.2585  37.3701  37.3701
    39.4067  39.6453  41.9373  42.0173  45.1046  45.6115  45.6115  47.0632
    47.0632  47.7367  48.6219  49.0019  49.0019  49.1775  49.8322  51.6389
    52.7517  52.7517  52.7531  53.3942  55.1550  55.1550  56.4022  56.4022
    56.7268  57.0073  57.2597  57.7096  58.0700  59.0776  59.0776  60.6970
    60.6970

          k = 0.0000 0.0000 0.3516 (  1678 PWs)   bands (ev):

   -64.3549 -64.3525 -26.4654 -26.4654 -26.3531 -26.3531 -26.1368 -26.1199
    -4.6179  -3.6137  -2.9881  -2.9881   7.3743   7.3934   8.1287   8.9189
     8.9189  10.6000  11.4809  11.9398  11.9398  12.1788  12.1788  13.8819
    15.0043  15.1597  15.5812  17.2571  17.2571  19.9769  21.3453  22.3741
    22.3741  23.5325  25.1725  28.8992  28.8992  29.3021  29.5406  29.5532
    33.0325  33.1821  33.4586  33.4586  35.7981  37.1059  37.1059  38.3243
    38.3243  42.0969  42.1148  42.8381  44.0164  44.0164  44.2182  46.0726
    47.4310  47.4310  47.5893  47.9576  48.3068  48.3068  51.6361  51.9693
    53.0784  53.0784  53.3479  54.5059  54.9255  55.2643  55.2643  56.1054
    56.7505  56.7505  58.1103  58.6603  59.3183  59.8176  59.8176  59.9107
    61.3603

          k = 0.0000 0.0000 0.7032 (  1686 PWs)   bands (ev):

   -64.2955 -64.2946 -26.8986 -26.8931 -26.3210 -26.3210 -26.2741 -26.2741
    -3.4360  -3.3431  -3.3431  -3.0095   8.0562   8.2652   8.4437   8.4437
     9.0622   9.5687   9.8274   9.8274   9.9393  12.3107  12.3250  12.3250
    16.6402  17.1096  17.1096  18.4821  19.3623  19.6103  21.7170  22.9912
    22.9912  23.8756  26.5625  28.6616  30.1272  30.4077  30.9116  31.0406
    31.7727  31.7727  32.1100  32.9137  32.9137  36.0645  38.4452  38.4452
    39.5397  39.5397  39.7263  40.0261  41.9526  42.0303  45.0756  45.0756
    47.3348  47.3348  48.4407  50.3891  50.3891  51.2830  51.4900  52.3642
    53.3516  53.3516  54.5388  54.5388  54.7476  54.8438  55.6563  58.2340
    58.4820  58.4820  58.6935  60.3277  60.3277  61.5500  61.5500  61.8244
    62.6176

          k = 0.0000 0.1879 0.0000 (  1682 PWs)   bands (ev):

   -64.3909 -64.3885 -26.5404 -26.5401 -26.4144 -26.4141 -25.6260 -25.6070
    -5.0470  -3.9602  -3.0761  -2.9375   6.6474   6.8499   7.7794  10.1902
    10.2790  10.8230  10.8379  11.8229  12.5431  12.9000  13.4940  13.5120
    13.5860  13.8864  16.3746  18.0435  18.1073  20.0161  20.8971  22.1654
    22.2039  22.2554  24.9649  26.1667  26.5483  28.8833  29.1961  29.8154
    32.0312  33.8624  34.5510  35.1822  36.6903  37.0023  37.6736  38.4405
    39.9331  41.0460  41.7579  43.0312  44.3973  44.6565  44.6683  46.5240
    47.3046  47.6082  48.4366  48.7329  48.9502  49.4475  50.0664  51.3758
    51.6218  52.6071  53.4108  54.1967  54.5435  55.0352  55.2359  55.6934
    56.1644  56.2168  56.8094  58.0146  58.2971  58.7297  59.2381  60.0782
    60.8827

          k = 0.0000 0.1879 0.3516 (  1670 PWs)   bands (ev):

   -64.3547 -64.3527 -26.4568 -26.4559 -26.3639 -26.3629 -26.1344 -26.1204
    -4.4801  -3.5745  -3.1487  -3.0539   7.4702   7.5313   8.3302   8.9047
     9.1554  10.5291  10.8545  11.6141  11.6491  12.1384  12.3483  13.7234
    15.3106  15.4079  15.9946  17.1789  17.5692  19.6613  21.4292  21.7879
    22.3200  23.9257  25.1365  27.8167  28.7255  29.5091  29.6151  30.7806
    32.5970  32.9471  33.0057  34.3303  35.4791  37.5674  37.6787  38.3888
    38.6597  41.6777  41.6843  42.6449  43.8389  43.9033  44.9623  45.9189
    47.2802  47.6497  47.8710  48.0911  48.5646  49.0339  50.5582  51.9516
    52.2168  53.1301  53.6945  54.3370  54.9105  55.0268  55.7289  56.0401
    56.6813  56.7000  57.7368  58.0421  58.2309  58.5143  59.5934  61.0869
    61.4030

          k = 0.0000 0.1879 0.7032 (  1666 PWs)   bands (ev):

   -64.2954 -64.2946 -26.8987 -26.8943 -26.3170 -26.3167 -26.2775 -26.2770
    -3.7529  -3.6234  -2.9399  -2.7176   7.5844   7.6794   7.9695   8.4301
     9.1343   9.5872  10.3804  10.5108  10.9565  11.9449  12.1960  12.5963
    15.7991  16.5238  17.6067  18.5188  19.6216  19.6708  21.6091  21.8976
    23.3002  24.8791  26.4729  28.5166  29.4709  29.8236  30.4528  30.5831
    32.0065  32.4648  32.7631  33.2595  33.7656  35.8160  37.8629  38.2131
    38.8578  39.1440  41.0881  41.4939  42.0261  42.2134  45.0776  45.3019
    46.5786  47.7467  49.1838  49.9048  50.3232  51.0049  51.1298  51.4374
    53.4303  53.6902  54.2536  54.5159  55.0642  55.2087  55.8116  56.6477
    57.5554  58.4436  59.2762  60.0439  60.3665  60.4957  60.9049  61.1404
    62.6986

          k = 0.0000 0.3758 0.0000 (  1666 PWs)   bands (ev):

   -64.3902 -64.3892 -26.5175 -26.5170 -26.4384 -26.4376 -25.6201 -25.6128
    -4.5433  -3.9367  -3.5044  -3.2521   7.5377   7.6169   8.7068   9.1389
     9.2238  10.1750  10.9428  10.9626  12.7546  12.8008  12.9807  13.3089
    14.0257  14.0376  17.6100  18.6859  18.7579  18.9025  21.6256  21.6776
    21.8607  22.7768  24.5116  25.4725  27.2954  28.3714  29.3048  29.8297
    31.4390  32.8370  34.3745  34.4514  37.9179  38.8641  39.0055  40.2794
    40.5735  41.1351  41.2607  42.2957  42.7837  43.8900  45.5748  46.2537
    47.0131  47.7698  48.0144  48.8776  49.7121  49.8534  50.2272  50.4319
    50.9892  51.2469  52.3769  52.4839  53.6057  53.8396  55.0207  55.5343
    55.7136  56.2633  56.6257  57.6006  58.3748  59.5643  59.8270  60.2476
    61.2559

          k = 0.0000 0.3758 0.3516 (  1673 PWs)   bands (ev):

   -64.3541 -64.3533 -26.4353 -26.4334 -26.3885 -26.3865 -26.1287 -26.1233
    -4.1092  -3.6508  -3.3628  -3.2131   7.6892   7.7837   8.8134   8.9246
     9.5136   9.9897  10.3944  10.8571  11.4771  11.8517  12.7680  13.2829
    15.4643  15.6473  17.0131  17.3908  18.2542  18.9229  20.8634  20.8681
    23.0360  23.8908  25.5758  26.6248  28.8400  29.2448  30.2301  31.2264
    32.5828  32.6379  32.6680  34.3329  36.2796  38.0186  38.3898  38.9622
    40.0232  40.3027  40.4685  41.8174  43.9971  44.2483  45.5896  45.9687
    46.8256  47.0410  47.7809  47.8770  49.8134  50.6985  50.8550  51.5089
    52.6419  53.0595  53.7985  54.0608  54.3129  54.3228  54.6965  55.3216
    55.5548  56.2439  57.1461  57.1871  58.5614  58.9345  59.9414  60.2173
    61.0572

          k = 0.0000 0.3758 0.7032 (  1684 PWs)   bands (ev):

   -64.2952 -64.2949 -26.8987 -26.8970 -26.3089 -26.3084 -26.2849 -26.2842
    -3.9270  -3.8780  -2.5778  -2.4879   7.1570   7.2029   7.5868   7.6656
     9.9931  10.1883  10.7669  11.1462  11.5547  11.7330  12.2652  12.9025
    14.9352  15.4695  18.0878  18.4044  19.9183  20.1082  20.7684  20.9668
    24.3605  25.2621  26.7939  27.7006  29.2391  29.2850  29.9651  30.0192
    32.1835  32.2914  33.4538  34.1214  35.5250  35.6598  36.9153  37.7074
    39.0420  39.0665  41.9419  42.4974  43.0303  43.2935  44.0957  44.8680
    46.8964  47.8945  48.9297  49.4080  50.2942  50.3970  50.6156  50.6904
    53.9108  54.3267  54.3836  54.6601  55.0507  55.3797  56.0681  56.3349
    56.9398  57.7039  58.3039  58.4850  60.3127  60.3786  60.7388  60.9835
    61.6569

          k = 0.1879 0.1879 0.0000 (  1671 PWs)   bands (ev):

   -64.3907 -64.3887 -26.5537 -26.5157 -26.4395 -26.4007 -25.6241 -25.6087
    -4.9311  -3.8835  -3.4134  -2.8441   6.3902   7.6223   8.0645   9.1952
    10.6575  10.7510  10.9594  12.0203  12.0862  12.7744  12.9193  13.5066
    13.6311  14.0121  16.9692  17.7294  18.7196  19.7607  21.0514  21.6539
    22.4492  22.6808  24.5478  26.3956  26.5697  28.5728  29.1490  29.8783
    31.6331  33.3574  35.3105  35.6224  37.1630  37.2558  37.7495  38.0898
    40.1962  41.7340  41.9176  42.7510  44.1068  44.3753  45.1542  45.7366
    45.9734  46.6692  48.7223  48.7752  49.2280  49.8024  50.5035  50.5683
    52.1550  53.0267  53.0644  53.6834  54.6615  54.6859  54.7016  56.1677
    56.3431  56.8061  56.9904  57.1067  57.7744  58.6858  58.8718  60.1090
    61.7931

          k = 0.1879 0.1879 0.3516 (  1672 PWs)   bands (ev):

   -64.3545 -64.3529 -26.4680 -26.4327 -26.3891 -26.3509 -26.1327 -26.1214
    -4.3816  -3.5500  -3.3254  -3.0214   7.3609   7.7499   8.4485   9.0707
     9.1469  10.2420  11.0051  11.4729  11.6038  11.8862  12.4100  13.5508
    15.1029  15.6473  16.0885  17.6190  17.7080  19.4175  20.8146  22.1450
    22.3454  24.0769  25.1243  27.5652  28.2194  29.0033  30.5485  31.0211
    32.4896  32.8990  33.3415  34.3671  35.5693  37.2605  37.4763  38.7575
    39.2088  41.7016  41.8440  42.3844  43.1574  44.3231  45.0849  46.3002
    46.3926  47.2871  48.1549  48.8937  49.0813  49.6014  50.6894  50.8552
    51.8160  53.2590  53.7977  53.8492  54.1974  55.0440  55.4772  55.9634
    56.5685  56.5839  57.0840  57.6023  58.6093  59.2371  59.7438  60.5495
    61.4769

          k = 0.1879 0.1879 0.7032 (  1685 PWs)   bands (ev):

   -64.2953 -64.2947 -26.8986 -26.8949 -26.3221 -26.3082 -26.2849 -26.2736
    -3.9119  -3.3665  -3.2052  -2.5145   7.1863   7.6376   8.2446   8.3318
     8.9495   9.6442  10.6683  10.6811  11.1347  11.9340  12.1145  12.7835
    15.6480  16.2945  17.5044  18.5696  19.5999  19.8786  20.8108  22.8628
    22.9631  24.9823  26.3550  28.3681  28.4638  29.0398  30.9607  31.0444
    32.3106  32.6164  32.9792  33.4274  34.1601  35.8087  37.5712  38.1820
    38.7720  39.8601  40.9441  41.3694  42.9414  43.0668  45.4878  45.5243
    46.1321  47.3301  49.2510  49.4517  50.3375  50.5880  51.0197  51.6138
    52.9431  53.2617  53.8332  54.5039  55.0127  55.0755  55.0827  55.6955
    57.6337  57.9565  59.1893  59.2220  60.7038  60.9103  61.2241  62.0391
    62.2628

          k = 0.1879 0.3758 0.0000 (  1673 PWs)   bands (ev):

   -64.3901 -64.3893 -26.5447 -26.5202 -26.4357 -26.4104 -25.6194 -25.6135
    -4.6022  -4.1316  -3.3897  -3.0362   6.7358   7.5660   8.8713   9.3574
     9.9650  10.7739  10.8091  10.9429  12.2756  12.8529  12.9115  13.2332
    13.5433  13.9909  18.0243  18.0942  18.7324  19.0252  21.6444  21.7107
    22.1740  22.6151  24.7782  25.8359  27.2172  28.0790  29.0750  29.4782
    31.6613  32.7184  35.3813  35.8550  37.3113  39.0032  39.2774  39.5899
    40.3208  40.8393  41.1073  42.0409  42.4571  43.3691  45.2311  45.8691
    46.5169  46.6868  47.4063  49.0611  49.3911  50.1765  50.5042  51.1952
    52.3825  52.4149  52.9541  53.1222  53.7382  53.9985  54.0581  54.6307
    55.4886  56.7166  57.9128  58.4759  58.8040  59.4888  60.2863  60.4015
    61.6284

          k = 0.1879 0.3758 0.3516 (  1676 PWs)   bands (ev):

   -64.3540 -64.3534 -26.4604 -26.4374 -26.3847 -26.3602 -26.1287 -26.1245
    -4.1168  -3.7686  -3.3026  -3.1251   7.4808   7.7454   8.7357   8.9692
     9.6657  10.1283  10.6571  11.0164  11.5176  11.7598  12.6059  13.0979
    15.3492  15.5820  16.7115  17.5003  18.2061  18.8215  20.8366  21.7217
    22.8666  23.6703  25.7381  26.6643  28.2646  28.6356  30.9987  31.5773
    32.0826  32.4970  33.7125  34.8331  35.9795  36.6769  37.8883  39.8166
    40.2288  40.5503  41.5788  42.2772  43.0594  44.0362  44.6529  45.4176
    47.1441  47.5976  48.0260  48.4509  50.0147  50.6044  51.1481  51.6137
    51.8583  52.5350  53.3233  53.9498  53.9845  54.1967  54.6160  55.3755
    55.6005  55.8813  56.9601  58.1817  58.5508  59.3310  59.7468  60.4154
    61.1190

          k = 0.1879 0.3758 0.7032 (  1693 PWs)   bands (ev):

   -64.2952 -64.2949 -26.8980 -26.8964 -26.3187 -26.3098 -26.2839 -26.2763
    -3.9050  -3.6832  -2.8316  -2.5245   7.1674   7.5539   7.6410   8.1836
     9.1353   9.9715  10.6631  11.1022  11.4540  11.7287  12.4445  12.9853
    15.2905  15.6927  17.7666  18.2766  19.7462  20.0533  20.7695  21.8890
    24.0328  24.8854  26.5602  27.3127  28.2079  28.3196  30.9098  30.9578
    32.5098  32.6012  33.5506  33.7515  35.5017  36.2028  37.0262  37.8628
    39.4611  39.8412  41.3696  42.0666  43.9270  44.3787  44.5364  45.0403
    47.0548  47.9275  48.2304  48.7267  49.2765  50.0445  50.9414  51.3437
    52.8427  53.2232  53.7096  53.8084  54.3868  54.5364  55.0928  56.0784
    56.4612  57.8271  58.5494  59.3064  59.7906  60.6514  61.2827  61.8373
    62.2002

          k = 0.3758 0.3758 0.0000 (  1679 PWs)   bands (ev):

   -64.3899 -64.3896 -26.5587 -26.5478 -26.4080 -26.3967 -25.6176 -25.6154
    -4.6113  -4.4433  -3.0732  -2.9061   6.3890   6.7296   9.6058  10.3254
    10.5306  10.7272  10.7962  11.3603  11.5811  12.2860  12.8937  13.2138
    13.4367  13.4790  17.7537  18.1077  18.6900  19.0554  21.7520  22.1233
    22.1661  22.4361  25.5680  26.1035  27.2707  27.7129  28.5681  28.7402
    32.4265  33.0592  36.5819  37.0204  37.7086  37.7517  39.3409  40.4913
    40.5252  40.8844  40.9029  41.1754  42.3737  42.7575  43.0623  44.3060
    44.3719  45.9023  47.4356  48.5006  49.9611  50.9136  51.4372  52.1950
    52.2366  53.5071  53.5564  54.4636  54.5736  54.6776  55.2463  55.5453
    56.0832  56.7520  58.4176  58.6364  59.0622  59.3628  59.7605  60.7503
    61.4130

          k = 0.3758 0.3758 0.3516 (  1681 PWs)   bands (ev):

   -64.3538 -64.3536 -26.4725 -26.4631 -26.3581 -26.3476 -26.1285 -26.1270
    -4.0850  -3.9609  -3.1564  -3.0736   7.3519   7.4895   8.7271   8.8495
    10.2444  10.6336  10.8544  11.0548  11.4534  11.5944  12.4569  12.7308
    15.1526  15.3888  16.8130  17.0877  18.3432  18.5828  21.6958  22.2922
    22.6822  23.1136  26.1705  26.5972  27.7007  27.9748  31.4299  31.4976
    32.2643  32.7431  34.8632  35.0280  35.3938  36.0160  38.2140  40.3022
    40.7643  41.1829  41.2665  42.5325  42.8871  43.5286  43.7459  45.0853
    45.8894  47.0046  49.3859  49.7052  50.2939  50.4139  51.6304  51.8979
    52.2474  52.2846  52.8346  53.1547  53.6799  54.0561  54.2619  54.8182
    55.1254  56.7912  57.1749  58.0251  58.7569  59.2238  59.6641  60.5213
    61.1254

          k = 0.3758 0.3758 0.7032 (  1685 PWs)   bands (ev):

   -64.2951 -64.2950 -26.8964 -26.8957 -26.3238 -26.3197 -26.2755 -26.2724
    -3.6883  -3.4036  -3.1517  -2.8181   7.5392   8.0704   8.0808   8.5023
     8.7608   9.4355   9.6247  10.5855  11.5726  11.8066  12.8463  13.0682
    15.9131  16.1736  17.3311  17.7674  19.6207  19.7466  21.8028  22.8924
    23.2758  24.0807  26.3943  26.6860  27.3883  27.4824  31.2137  31.2190
    33.0796  33.2385  33.5690  33.9456  36.0289  36.6917  37.1923  37.8581
    40.6012  40.8692  41.5642  41.8135  44.1737  44.6977  45.6733  46.2854
    46.3104  46.6930  48.2127  48.9063  49.4197  49.8326  50.4472  50.5690
    51.1555  51.9192  52.0565  52.7354  53.7443  54.0544  54.3585  54.5596
    56.1852  57.1392  59.2853  60.2997  60.7514  60.8460  61.8776  62.0337
    63.4000

     the Fermi energy is    17.5654 ev

!    total energy              =    -518.47680072 Ry
     Harris-Foulkes estimate   =    -518.47680059 Ry
     estimated scf accuracy    <          2.0E-09 Ry

     The total energy is the sum of the following terms:

     one-electron contribution =    -106.62776526 Ry
     hartree contribution      =      88.24314825 Ry
     xc contribution           =    -143.30536735 Ry
     ewald contribution        =    -356.78659278 Ry
     smearing contrib. (-TS)   =      -0.00022358 Ry

     total magnetization       =     0.00 Bohr mag/cell
     absolute magnetization    =     0.00 Bohr mag/cell

     convergence has been achieved in  15 iterations

     Forces acting on atoms (Ry/au):


     negative rho (up, down):  0.312E-01 0.312E-01
     atom    1 type  1   force =     0.00000000    0.00000000   -0.00000000
     atom    2 type  1   force =     0.00000000    0.00000000   -0.00000000
     atom    3 type  2   force =    -0.00028185   -0.00028185    0.00000000
     atom    4 type  2   force =     0.00028185    0.00028185    0.00000000
     atom    5 type  2   force =    -0.00028185    0.00028185    0.00000000
     atom    6 type  2   force =     0.00028185   -0.00028185    0.00000000

     Total force =     0.000797     Total SCF correction =     0.000016


     entering subroutine stress ...


     negative rho (up, down):  0.312E-01 0.312E-01
          total   stress  (Ry/bohr**3)                   (kbar)     P=  457.63
   0.00313537   0.00000000   0.00000000        461.23      0.00      0.00
   0.00000000   0.00313537   0.00000000          0.00    461.23      0.00
   0.00000000   0.00000000   0.00306191          0.00      0.00    450.42


     init_run     :     21.31s CPU     21.63s WALL (       2 calls)
     electrons    :   1760.60s CPU   1810.33s WALL (      10 calls)
     update_pot   :     32.25s CPU     32.52s WALL (       8 calls)
     forces       :     98.04s CPU     98.28s WALL (      10 calls)
     stress       :    270.37s CPU    270.96s WALL (      10 calls)

     Called by init_run:
     wfcinit      :     10.41s CPU     10.59s WALL (       2 calls)
     potinit      :      1.62s CPU      1.63s WALL (       2 calls)

     Called by electrons:
     c_bands      :   1322.45s CPU   1363.42s WALL (      77 calls)
     sum_band     :    258.71s CPU    261.48s WALL (      77 calls)
     v_of_rho     :     17.25s CPU     17.63s WALL (      84 calls)
     newd         :    182.02s CPU    182.69s WALL (      84 calls)
     mix_rho      :      1.60s CPU      1.61s WALL (      77 calls)

     Called by c_bands:
     init_us_2    :      8.63s CPU      8.71s WALL (    6336 calls)
     cegterg      :   1286.91s CPU   1327.75s WALL (    2772 calls)

     Called by *egterg:
     h_psi        :    600.48s CPU    616.57s WALL (    8349 calls)
     s_psi        :     55.08s CPU     55.08s WALL (    8349 calls)
     g_psi        :      3.41s CPU      3.43s WALL (    5505 calls)
     cdiaghg      :    347.73s CPU    348.44s WALL (    7881 calls)

     Called by h_psi:
     add_vuspsi   :     55.99s CPU     56.26s WALL (    8349 calls)

     General routines
     calbec       :     92.30s CPU     97.63s WALL (   11841 calls)
     fft          :     12.97s CPU     13.12s WALL (    2968 calls)
     ffts         :      0.21s CPU      0.22s WALL (     322 calls)
     fftw         :    483.06s CPU    486.28s WALL ( 1282904 calls)
     interpolate  :      1.72s CPU      1.74s WALL (     322 calls)

     Parallel routines
     fft_scatter  :    138.19s CPU    141.50s WALL ( 1286194 calls)

     PWSCF        : 36m40.99s CPU    37m32.33s WALL


   This run was terminated on:  15:30: 3  24Jan2014            

=------------------------------------------------------------------------------=
   JOB DONE.
=------------------------------------------------------------------------------=
