
     Program PWSCF v.5.0.2 (svn rev. 9656) starts on 24Jan2014 at 15:56: 6 

     This program is part of the open-source Quantum ESPRESSO suite
     for quantum simulation of materials; please cite
         "P. Giannozzi et al., J. Phys.:Condens. Matter 21 395502 (2009);
          URL http://www.quantum-espresso.org", 
     in publications or presentations arising from this work. More details at
     http://www.quantum-espresso.org/quote.php

     Parallel version (MPI), running on     4 processors
     R & G space division:  proc/nbgrp/npool/nimage =       4

     Current dimensions of program PWSCF are:
     Max number of different atomic species (ntypx) = 10
     Max number of k-points (npk) =  40000
     Max angular momentum in pseudopotentials (lmaxx) =  3
     Reading input from IrO2-v-0.95.in

     Subspace diagonalization in iterative solution of the eigenvalue problem:
     a serial algorithm will be used


     Parallelization info
     --------------------
     sticks:   dense  smooth     PW     G-vecs:    dense   smooth      PW
     Min         747     241     72                19866     3599     600
     Max         748     242     74                19867     3610     601
     Sum        2989     965    293                79467    14419    2401



     bravais-lattice index     =            0
     lattice parameter (alat)  =       8.6764  a.u.
     unit-cell volume          =     420.9216 (a.u.)^3
     number of atoms/cell      =            6
     number of atomic types    =            2
     number of electrons       =        54.00
     number of Kohn-Sham states=           78
     kinetic-energy cutoff     =      40.0000  Ry
     charge density cutoff     =     500.0000  Ry
     convergence threshold     =      1.0E-06
     mixing beta               =       0.3000
     number of iterations used =            8  plain     mixing
     Exchange-correlation      = SLA  PW   PBE  PBE ( 1 4 3 4 0)
     EXX-fraction              =        0.00
     nstep                     =           50


     celldm(1)=   8.676380  celldm(2)=   0.000000  celldm(3)=   0.000000
     celldm(4)=   0.000000  celldm(5)=   0.000000  celldm(6)=   0.000000

     crystal axes: (cart. coord. in units of alat)
               a(1) = (   1.000000   0.000000   0.000000 )  
               a(2) = (   0.000000   1.000000   0.000000 )  
               a(3) = (   0.000000   0.000000   0.644444 )  

     reciprocal axes: (cart. coord. in units 2 pi/alat)
               b(1) = (  1.000000  0.000000  0.000000 )  
               b(2) = (  0.000000  1.000000  0.000000 )  
               b(3) = (  0.000000  0.000000  1.551724 )  


     PseudoPot. # 1 for Ir read from file:
     /home/camp/zhonxu/pseudo/ir_pbe_v1.uspp.F.UPF
     MD5 check sum: abf987a9674477536ede83817f8f8b70
     Pseudo is Ultrasoft + core correction, Zval = 15.0
     Generated by new atomic code, or converted to UPF format
     Using radial grid of  983 points,  7 beta functions with: 
                l(1) =   0
                l(2) =   0
                l(3) =   1
                l(4) =   1
                l(5) =   1
                l(6) =   2
                l(7) =   2
     Q(r) pseudized with  8 coefficients,  rinner =    1.350   1.350   1.350
                                                       1.350   1.350

     PseudoPot. # 2 for O  read from file:
     /home/camp/zhonxu/pseudo/o_pbe_v1.01.uspp.F.UPF
     MD5 check sum: 2bcb18d16ea4b960afae9ec6d52f22d2
     Pseudo is Ultrasoft + core correction, Zval =  6.0
     Generated by new atomic code, or converted to UPF format
     Using radial grid of  737 points,  5 beta functions with: 
                l(1) =   0
                l(2) =   0
                l(3) =   1
                l(4) =   1
                l(5) =   2
     Q(r) pseudized with  8 coefficients,  rinner =    0.900   0.900   0.900
                                                       0.900   0.900

     atomic species   valence    mass     pseudopotential
        Ir0           15.00   192.22000     Ir( 1.00)
        O1             6.00    15.99940     O ( 1.00)

     Starting magnetic structure 
     atomic species   magnetization
        Ir0          0.000
        O1           0.000

     16 Sym. Ops., with inversion, found ( 8 have fractional translation)



   Cartesian axes

     site n.     atom                  positions (alat units)
         1           Ir0 tau(   1) = (   0.0000000   0.0000000   0.0000000  )
         2           Ir0 tau(   2) = (   0.5000000   0.5000000   0.3222222  )
         3           O1  tau(   3) = (   0.3050000   0.3050000   0.0000000  )
         4           O1  tau(   4) = (  -0.3050000  -0.3050000   0.0000000  )
         5           O1  tau(   5) = (   0.8050000   0.1950000   0.3222222  )
         6           O1  tau(   6) = (   0.1950000   0.8050000   0.3222222  )

     number of k points=    36  Methfessel-Paxton smearing, width (Ry)=  0.0100
                       cart. coord. in units 2pi/alat
        k(    1) = (   0.0000000   0.0000000   0.0000000), wk =   0.0080000
        k(    2) = (   0.0000000   0.0000000   0.3103448), wk =   0.0160000
        k(    3) = (   0.0000000   0.0000000   0.6206897), wk =   0.0160000
        k(    4) = (   0.0000000   0.2000000   0.0000000), wk =   0.0320000
        k(    5) = (   0.0000000   0.2000000   0.3103448), wk =   0.0640000
        k(    6) = (   0.0000000   0.2000000   0.6206897), wk =   0.0640000
        k(    7) = (   0.0000000   0.4000000   0.0000000), wk =   0.0320000
        k(    8) = (   0.0000000   0.4000000   0.3103448), wk =   0.0640000
        k(    9) = (   0.0000000   0.4000000   0.6206897), wk =   0.0640000
        k(   10) = (   0.2000000   0.2000000   0.0000000), wk =   0.0320000
        k(   11) = (   0.2000000   0.2000000   0.3103448), wk =   0.0640000
        k(   12) = (   0.2000000   0.2000000   0.6206897), wk =   0.0640000
        k(   13) = (   0.2000000   0.4000000   0.0000000), wk =   0.0640000
        k(   14) = (   0.2000000   0.4000000   0.3103448), wk =   0.1280000
        k(   15) = (   0.2000000   0.4000000   0.6206897), wk =   0.1280000
        k(   16) = (   0.4000000   0.4000000   0.0000000), wk =   0.0320000
        k(   17) = (   0.4000000   0.4000000   0.3103448), wk =   0.0640000
        k(   18) = (   0.4000000   0.4000000   0.6206897), wk =   0.0640000
        k(   19) = (   0.0000000   0.0000000   0.0000000), wk =   0.0080000
        k(   20) = (   0.0000000   0.0000000   0.3103448), wk =   0.0160000
        k(   21) = (   0.0000000   0.0000000   0.6206897), wk =   0.0160000
        k(   22) = (   0.0000000   0.2000000   0.0000000), wk =   0.0320000
        k(   23) = (   0.0000000   0.2000000   0.3103448), wk =   0.0640000
        k(   24) = (   0.0000000   0.2000000   0.6206897), wk =   0.0640000
        k(   25) = (   0.0000000   0.4000000   0.0000000), wk =   0.0320000
        k(   26) = (   0.0000000   0.4000000   0.3103448), wk =   0.0640000
        k(   27) = (   0.0000000   0.4000000   0.6206897), wk =   0.0640000
        k(   28) = (   0.2000000   0.2000000   0.0000000), wk =   0.0320000
        k(   29) = (   0.2000000   0.2000000   0.3103448), wk =   0.0640000
        k(   30) = (   0.2000000   0.2000000   0.6206897), wk =   0.0640000
        k(   31) = (   0.2000000   0.4000000   0.0000000), wk =   0.0640000
        k(   32) = (   0.2000000   0.4000000   0.3103448), wk =   0.1280000
        k(   33) = (   0.2000000   0.4000000   0.6206897), wk =   0.1280000
        k(   34) = (   0.4000000   0.4000000   0.0000000), wk =   0.0320000
        k(   35) = (   0.4000000   0.4000000   0.3103448), wk =   0.0640000
        k(   36) = (   0.4000000   0.4000000   0.6206897), wk =   0.0640000

     Dense  grid:    79467 G-vectors     FFT dimensions: (  64,  64,  40)

     Smooth grid:    14419 G-vectors     FFT dimensions: (  36,  36,  24)

     Largest allocated arrays     est. size (Mb)     dimensions
        Kohn-Sham Wavefunctions         0.53 Mb     (    446,   78)
        NL pseudopotentials             0.64 Mb     (    446,   94)
        Each V/rho on FFT grid          1.25 Mb     (  40960,   2)
        Each G-vector array             0.15 Mb     (  19867)
        G-vector shells                 0.15 Mb     (  19867)
     Largest temporary arrays     est. size (Mb)     dimensions
        Auxiliary wavefunctions         2.12 Mb     (    446,  312)
        Each subspace H/S matrix        1.49 Mb     ( 312, 312)
        Each <psi_i|beta_j> matrix      0.11 Mb     (     94,   78)
        Arrays for rho mixing           5.00 Mb     (  40960,   8)

     Check: negative/imaginary core charge=   -0.000004    0.000000

     Initial potential from superposition of free atoms
     Check: negative starting charge=(component1):   -0.417409
     Check: negative starting charge=(component2):   -0.417409

     starting charge   52.99993, renormalised to   54.00000

     negative rho (up, down):  0.425E+00 0.425E+00
     Starting wfc are   40 randomized atomic wfcs

     total cpu time spent up to now is       11.3 secs

     per-process dynamical memory:    48.6 Mb

     Self-consistent Calculation

     iteration #  1     ecut=    40.00 Ry     beta=0.30
     Davidson diagonalization with overlap
     ethr =  1.00E-02,  avg # of iterations =  5.2

     negative rho (up, down):  0.401E+00 0.401E+00

     total cpu time spent up to now is       78.4 secs

     total energy              =    -500.52084529 Ry
     Harris-Foulkes estimate   =    -502.33357070 Ry
     estimated scf accuracy    <       3.96585578 Ry

     total magnetization       =    -0.00 Bohr mag/cell
     absolute magnetization    =     0.00 Bohr mag/cell

     iteration #  2     ecut=    40.00 Ry     beta=0.30
     Davidson diagonalization with overlap
     ethr =  7.34E-03,  avg # of iterations =  1.0

     negative rho (up, down):  0.398E+00 0.398E+00

     total cpu time spent up to now is       96.1 secs

     total energy              =    -501.23463240 Ry
     Harris-Foulkes estimate   =    -501.26725272 Ry
     estimated scf accuracy    <       0.12361593 Ry

     total magnetization       =    -0.00 Bohr mag/cell
     absolute magnetization    =     0.00 Bohr mag/cell

     iteration #  3     ecut=    40.00 Ry     beta=0.30
     Davidson diagonalization with overlap
     ethr =  2.29E-04,  avg # of iterations =  2.6

     negative rho (up, down):  0.392E+00 0.392E+00

     total cpu time spent up to now is      116.5 secs

     total energy              =    -501.23038553 Ry
     Harris-Foulkes estimate   =    -501.24222848 Ry
     estimated scf accuracy    <       0.03761277 Ry

     total magnetization       =    -0.00 Bohr mag/cell
     absolute magnetization    =     0.00 Bohr mag/cell

     iteration #  4     ecut=    40.00 Ry     beta=0.30
     Davidson diagonalization with overlap
     ethr =  6.97E-05,  avg # of iterations =  2.2

     negative rho (up, down):  0.391E+00 0.391E+00

     total cpu time spent up to now is      136.0 secs

     total energy              =    -501.23393663 Ry
     Harris-Foulkes estimate   =    -501.23442859 Ry
     estimated scf accuracy    <       0.00333904 Ry

     total magnetization       =    -0.00 Bohr mag/cell
     absolute magnetization    =     0.00 Bohr mag/cell

     iteration #  5     ecut=    40.00 Ry     beta=0.30
     Davidson diagonalization with overlap
     ethr =  6.18E-06,  avg # of iterations =  2.6

     negative rho (up, down):  0.391E+00 0.391E+00

     total cpu time spent up to now is      156.4 secs

     total energy              =    -501.23415530 Ry
     Harris-Foulkes estimate   =    -501.23437502 Ry
     estimated scf accuracy    <       0.00071248 Ry

     total magnetization       =    -0.00 Bohr mag/cell
     absolute magnetization    =     0.00 Bohr mag/cell

     iteration #  6     ecut=    40.00 Ry     beta=0.30
     Davidson diagonalization with overlap
     ethr =  1.32E-06,  avg # of iterations =  1.3

     negative rho (up, down):  0.391E+00 0.391E+00

     total cpu time spent up to now is      173.6 secs

     total energy              =    -501.23430516 Ry
     Harris-Foulkes estimate   =    -501.23430960 Ry
     estimated scf accuracy    <       0.00004830 Ry

     total magnetization       =    -0.00 Bohr mag/cell
     absolute magnetization    =     0.00 Bohr mag/cell

     iteration #  7     ecut=    40.00 Ry     beta=0.30
     Davidson diagonalization with overlap
     ethr =  8.94E-08,  avg # of iterations =  1.0

     negative rho (up, down):  0.391E+00 0.391E+00

     total cpu time spent up to now is      190.1 secs

     total energy              =    -501.23432361 Ry
     Harris-Foulkes estimate   =    -501.23431506 Ry
     estimated scf accuracy    <       0.00000213 Ry

     total magnetization       =    -0.00 Bohr mag/cell
     absolute magnetization    =     0.00 Bohr mag/cell

     iteration #  8     ecut=    40.00 Ry     beta=0.30
     Davidson diagonalization with overlap
     ethr =  3.95E-09,  avg # of iterations =  1.8

     negative rho (up, down):  0.391E+00 0.391E+00

     total cpu time spent up to now is      208.0 secs

     End of self-consistent calculation

 ------ SPIN UP ------------


          k = 0.0000 0.0000 0.0000 (  1827 PWs)   bands (ev):

   -35.7826 -35.7826 -35.6354 -35.6354 -35.5682 -35.5531  -6.8431  -5.6142
    -4.5419  -4.5419   4.4580   4.7314   6.3675   6.5450   6.5450   9.2693
     9.2693   9.7958  11.0672  11.4608  11.4608  11.6436  11.7034  12.0433
    12.4387  12.4387  12.8252  15.4561  16.0512  18.9714  19.1697  19.1697
    20.6274  23.5069  23.5069  24.2776  24.2779  27.0745  27.4053  27.4628
    30.1722  31.1001  31.1001  31.3628  32.7198  34.7909  35.4303  35.4303
    36.6848  36.6848  38.1297  41.0184  41.2610  41.2610  41.2957  43.1184
    43.9073  44.1327  44.1841  45.4015  45.4015  45.9151  46.0147  46.0147
    46.8687  46.9833  46.9833  48.8951  50.8949  52.7641  52.7641  53.0656
    53.4022  53.7619  53.7619  54.8073  55.1234  55.1235

          k = 0.0000 0.0000 0.3103 (  1807 PWs)   bands (ev):

   -35.7757 -35.7757 -35.6432 -35.6313 -35.6246 -35.6246  -6.3935  -5.3368
    -4.7983  -4.7983   5.1412   5.2363   6.6045   6.6045   6.8456   8.2191
     9.1582   9.7554   9.7554  10.0733  10.0733  11.9378  12.0815  12.5857
    12.9205  13.7053  13.7053  15.5691  16.3555  18.4878  18.4878  19.3270
    20.9003  24.2776  24.2778  25.1324  25.1324  27.1113  27.5532  27.6622
    28.4398  30.4016  30.6440  30.6440  30.7700  35.9912  36.1022  36.1022
    36.3955  36.3955  37.4798  40.5679  40.7216  41.2091  41.2884  41.2884
    42.2095  42.8569  42.8569  42.8619  45.5164  46.8470  46.8470  48.9078
    49.0334  49.4209  49.4209  49.5220  50.5433  51.5165  51.9125  51.9125
    52.9686  53.4308  53.4308  55.8920  56.0912  56.2525

          k = 0.0000 0.0000 0.6207 (  1792 PWs)   bands (ev):

   -35.7650 -35.7650 -35.7617 -35.7574 -35.6069 -35.6069  -5.4695  -5.1908
    -5.1908  -5.0181   6.0322   6.3361   6.7953   7.0996   7.0996   7.5032
     8.1990   8.5193   8.5193  10.1349  10.3028  10.3028  13.0176  13.1631
    13.7091  14.3708  14.7506  14.7506  17.1962  17.7168  18.1822  18.1822
    23.4291  24.2772  24.2780  25.8953  26.9821  27.1042  27.5546  27.5546
    28.2915  29.2289  29.4728  29.4728  29.9688  31.7603  35.5525  35.5525
    37.3701  37.3701  39.0436  39.3061  39.8601  40.5331  41.0469  41.4043
    41.4043  43.2699  43.2699  44.4524  46.6782  46.6782  47.6776  49.2505
    49.2505  49.8642  50.1155  50.1155  50.2249  51.1200  51.6732  53.2443
    53.6937  53.6937  54.2532  54.6672  55.8217  55.8217

          k = 0.0000 0.2000 0.0000 (  1811 PWs)   bands (ev):

   -35.7814 -35.7814 -35.6367 -35.6366 -35.5666 -35.5544  -6.6921  -5.6199
    -4.7130  -4.6235   4.8201   5.0051   6.5728   6.5824   6.6404   8.7031
     8.7836   9.6693  10.2974  10.5597  11.1034  11.8137  12.1881  12.5530
    12.7611  12.9367  13.2219  15.7294  16.0429  18.9638  19.0038  19.5850
    20.2112  23.3967  23.6504  24.2776  24.2784  26.6652  27.4469  27.5191
    29.2222  31.5885  31.7184  31.7929  33.1868  34.2806  34.7226  34.7404
    36.2269  37.4885  38.9555  40.1143  41.0969  41.2954  42.2821  42.9126
    43.3670  43.7234  43.8572  45.1413  45.3378  46.1428  46.5544  47.3537
    47.8083  47.8153  48.3419  49.1109  50.6184  51.8315  52.0019  52.5433
    52.6328  52.7676  53.0615  53.4095  54.1977  55.0438

          k = 0.0000 0.2000 0.3103 (  1802 PWs)   bands (ev):

   -35.7753 -35.7752 -35.6422 -35.6338 -35.6250 -35.6239  -6.2645  -5.3161
    -4.9505  -4.8533   5.3787   5.4770   6.5597   6.5880   7.2361   8.0482
     8.5628   9.3786   9.4499  10.0201  10.1726  11.6213  12.3377  13.1176
    13.2956  13.5582  13.8830  15.3365  16.7069  17.9085  18.3393  19.6870
    21.1409  24.2773  24.2776  24.7106  25.1649  26.9201  27.5483  27.9003
    28.6175  30.0951  30.1205  30.7143  32.0485  34.7314  35.0045  36.1006
    36.4052  36.8178  38.7260  40.0238  40.2378  40.4289  41.1391  42.0058
    42.3672  43.0929  43.5026  44.7462  46.5751  46.6746  47.4744  47.7222
    48.3364  49.2180  49.6435  49.9244  51.2120  51.3028  51.5542  51.8606
    52.0406  53.0816  53.8751  55.2210  55.4212  56.1494

          k = 0.0000 0.2000 0.6207 (  1786 PWs)   bands (ev):

   -35.7723 -35.7707 -35.7541 -35.7522 -35.6070 -35.6069  -5.5443  -5.3568
    -5.0610  -4.8803   6.0189   6.2277   6.2792   6.8404   7.3931   7.7095
     8.3872   8.8720   8.9370   9.9769  10.0620  10.5278  12.5898  13.3282
    13.7453  13.7497  14.8822  14.9713  16.8936  16.9838  18.5856  19.0852
    23.4920  24.2773  24.2778  25.5797  26.3662  26.6915  27.6718  27.8934
    28.6894  28.9001  29.2238  29.5789  31.2450  31.4286  35.0073  35.3464
    36.9614  37.4783  38.6129  39.1676  40.4591  40.7553  41.3960  41.5492
    42.6466  42.9594  43.2728  45.3042  46.7897  47.0874  47.9377  48.0913
    49.0317  49.1716  49.6189  50.6358  51.0165  51.3255  51.5010  52.8687
    53.0291  53.7986  54.6266  55.0005  56.4313  56.4445

          k = 0.0000 0.4000 0.0000 (  1792 PWs)   bands (ev):

   -35.7794 -35.7794 -35.6388 -35.6387 -35.5628 -35.5581  -6.2867  -5.8136
    -4.9093  -4.8050   5.5879   5.6282   6.6280   6.6388   7.4495   7.7790
     7.8238   8.7738   9.5976   9.9063  11.1575  11.5169  12.6514  12.8136
    13.3168  13.4449  14.0763  14.9905  17.4199  18.6435  18.6871  18.9618
    21.1112  22.5884  24.2581  24.2774  24.3112  25.4843  27.7033  28.1691
    28.5752  30.4163  32.0305  32.9498  32.9622  34.1993  34.4107  35.8275
    36.2801  37.7210  39.1833  40.0155  40.0426  40.5890  41.2294  41.3437
    43.9865  44.0476  45.1257  45.6847  46.4876  46.9760  47.1759  47.4107
    49.0730  49.2582  49.5652  50.4452  50.6621  50.8036  50.8377  51.2469
    51.7789  52.3094  52.3839  53.3123  53.3505  53.4933

          k = 0.0000 0.4000 0.3103 (  1802 PWs)   bands (ev):

   -35.7745 -35.7744 -35.6401 -35.6375 -35.6252 -35.6243  -5.9144  -5.4720
    -5.1044  -4.9847   5.9297   6.0536   6.4827   6.5991   7.5391   7.8082
     8.2716   8.6850   8.7025   9.4263  10.7216  11.1598  12.8875  13.2635
    13.7954  13.8269  14.3135  14.7840  17.1297  17.2802  18.4565  19.2735
    22.2642  23.6296  24.2776  24.2780  25.5078  26.2494  27.7944  28.2519
    28.9045  29.4259  29.9952  31.1395  32.6177  33.4691  34.8735  36.3994
    36.5416  36.9574  38.9565  39.1193  40.2721  40.3645  41.0354  41.1219
    42.7199  44.5890  44.8973  45.8345  46.3861  46.9893  47.6759  48.3541
    48.9670  49.3525  49.4808  49.9450  50.9903  51.2296  51.3933  51.4030
    52.5066  52.8796  53.4663  55.1264  55.3655  55.8982

          k = 0.0000 0.4000 0.6207 (  1795 PWs)   bands (ev):

   -35.7771 -35.7764 -35.7484 -35.7478 -35.6070 -35.6069  -5.5921  -5.5270
    -4.8787  -4.8013   5.9280   5.9771   6.1787   6.2865   7.7943   8.1990
     8.5133   9.2214   9.3656   9.5052  10.1738  11.1655  11.8344  12.7057
    13.6276  13.7842  15.0593  15.0844  16.3681  16.5318  19.3536  19.6739
    23.8449  24.2772  24.2778  24.6570  26.1455  26.3148  27.8238  27.9565
    28.3539  28.5488  29.4681  30.4142  30.9868  32.2413  34.2958  34.9630
    37.1588  37.6092  38.5113  38.8559  40.7407  40.8791  41.6738  41.7341
    42.8382  43.2628  45.4974  45.8505  46.1880  46.4274  47.6837  48.1879
    49.0197  49.0614  49.5424  50.4201  50.7994  50.8234  52.3944  53.5566
    54.1085  54.1273  54.7618  55.1514  55.7048  55.8183

          k = 0.2000 0.2000 0.0000 (  1808 PWs)   bands (ev):

   -35.7831 -35.7793 -35.6389 -35.6351 -35.5655 -35.5556  -6.5782  -5.6590
    -4.8682  -4.5876   4.6009   5.6325   6.5245   6.6406   6.8936   7.7856
     9.1627   9.5900  10.4750  10.4909  10.5830  11.8063  11.8074  12.4482
    12.7825  13.3960  13.6626  15.5809  16.2631  18.6635  19.1659  19.6283
    20.3658  23.4202  23.7385  24.2775  24.2786  26.1442  27.2620  27.9120
    28.6963  30.7660  32.2256  33.4612  33.4952  34.4022  34.7195  34.7339
    35.4931  36.9802  38.6124  39.3683  40.9203  41.3750  42.0692  42.3672
    43.5314  44.2291  44.8892  45.3156  45.4186  46.2037  47.4779  47.7590
    47.7762  48.5293  48.9533  49.4001  50.6531  50.7291  50.7680  52.1742
    52.2163  52.7039  53.4934  53.9103  55.2860  55.6041

          k = 0.2000 0.2000 0.3103 (  1803 PWs)   bands (ev):

   -35.7761 -35.7743 -35.6418 -35.6345 -35.6247 -35.6244  -6.1640  -5.3248
    -5.0820  -4.8376   5.1820   5.9876   6.4092   6.6401   7.4985   7.7785
     8.6813   8.7611   9.5628  10.0213  10.4039  11.3237  12.5513  12.7226
    13.3506  13.9299  14.0799  15.1680  16.8280  17.5957  18.4874  19.5626
    21.5471  24.2769  24.2776  24.7374  24.8645  26.4619  27.5372  27.8716
    28.6813  29.7673  30.5594  31.4836  32.0353  33.5719  35.2058  36.1795
    36.6605  37.0311  38.4644  39.7135  40.2128  40.5484  41.5740  41.6777
    42.3882  43.4440  44.8332  44.8555  46.5389  46.6187  47.6034  47.8433
    47.9333  49.2580  49.7680  50.5691  50.8604  50.9808  51.4020  51.7179
    52.2007  52.7431  53.4375  54.1993  56.2653  56.2666

          k = 0.2000 0.2000 0.6207 (  1796 PWs)   bands (ev):

   -35.7766 -35.7652 -35.7600 -35.7477 -35.6070 -35.6069  -5.5897  -5.2218
    -5.2078  -4.8099   5.9961   6.1828   6.2914   6.7551   6.9214   8.2813
     8.3645   8.9759   9.2394   9.5331  10.1936  10.8631  12.3196  13.3737
    13.7670  13.8317  14.3399  15.2415  16.3407  17.7339  18.1700  19.4408
    23.5412  24.2772  24.2778  25.4728  26.1401  26.2647  26.6786  27.6850
    28.3479  29.7289  29.9161  30.3121  31.0923  31.8964  34.5951  35.2841
    36.6451  37.2196  37.8722  40.0656  40.6424  41.5872  41.8948  42.1406
    42.5736  42.9031  43.7724  45.5286  46.3666  47.0685  47.6155  48.4113
    48.5723  48.7504  49.6364  50.3651  50.5985  51.2266  51.9782  52.4538
    53.0167  54.0164  54.6381  55.0666  55.2690  56.4523

          k = 0.2000 0.4000 0.0000 (  1800 PWs)   bands (ev):

   -35.7820 -35.7797 -35.6387 -35.6363 -35.5624 -35.5586  -6.2739  -5.8965
    -4.8840  -4.7123   4.9154   5.6105   6.5494   6.6218   7.5990   7.8676
     8.6017   9.2923   9.7215  10.1815  10.6608  11.2348  12.3127  12.7396
    12.8445  13.3886  14.3959  15.0882  17.1886  18.5024  18.6616  18.9795
    21.7061  22.9540  24.2154  24.2773  24.2869  25.2584  27.2666  27.7298
    28.7124  29.9978  33.3635  33.6497  34.0091  34.2649  34.4557  35.3777
    36.1657  36.5660  37.7996  39.4981  39.8636  40.6023  41.1300  41.8062
    43.8115  44.0734  45.4569  45.7340  46.4313  46.9893  48.2808  48.4036
    48.7244  49.1139  49.2573  50.1482  50.6746  51.1170  51.4414  51.4955
    52.1222  52.5578  53.0334  53.2448  53.6285  54.5330

          k = 0.2000 0.4000 0.3103 (  1793 PWs)   bands (ev):

   -35.7757 -35.7746 -35.6398 -35.6366 -35.6249 -35.6243  -5.8960  -5.5541
    -5.0678  -4.9298   5.4233   6.0036   6.4252   6.4877   7.7669   8.1007
     8.5039   8.7938   9.2186   9.5898  10.4545  10.8394  12.9642  13.1251
    13.3153  13.8890  14.3300  14.7381  17.1980  17.5976  18.4392  19.0145
    22.6197  23.8104  24.2776  24.2781  25.1886  25.8390  27.5877  27.9231
    28.8293  29.3077  30.6839  31.4303  32.5567  33.3564  35.0565  36.5930
    36.9006  37.2048  38.6779  38.9244  40.3750  40.6203  41.1599  41.7806
    42.5695  43.8852  44.8103  45.3612  46.5021  47.4526  47.7413  48.3189
    48.4263  49.3740  49.5195  50.1453  50.6361  51.1150  51.4164  51.5663
    52.5746  53.0514  54.0067  54.1732  54.5776  55.2845

          k = 0.2000 0.4000 0.6207 (  1800 PWs)   bands (ev):

   -35.7767 -35.7717 -35.7535 -35.7480 -35.6070 -35.6070  -5.5649  -5.4264
    -4.9881  -4.8284   5.9111   6.0271   6.2687   6.5094   7.2402   7.9730
     8.5933   8.9138   9.4690   9.8736  10.3514  11.1937  12.0940  12.9982
    13.5313  13.7209  14.6220  15.0560  16.4412  17.1130  18.9318  19.5224
    23.8389  24.2764  24.2778  24.6233  25.6283  25.8345  26.8150  27.3056
    28.3179  29.1338  30.4518  30.9807  31.6392  32.9182  34.0942  35.2065
    36.7844  37.4094  37.7530  38.9757  41.5094  41.6919  42.0199  42.3480
    43.4456  44.0686  44.9847  45.3205  46.2500  46.5370  47.5245  48.0528
    48.3353  48.6101  48.9932  49.8515  50.7309  51.7754  52.1140  52.3256
    53.0061  53.2811  54.0858  54.7661  55.5556  55.9837

          k = 0.4000 0.4000 0.0000 (  1798 PWs)   bands (ev):

   -35.7838 -35.7825 -35.6360 -35.6346 -35.5612 -35.5598  -6.2089  -6.0685
    -4.7521  -4.6591   4.6126   4.9178   6.4914   6.5322   8.2376   8.8045
     8.9457   9.6465  10.1458  10.2348  10.4684  10.9346  11.7686  12.2992
    12.4642  12.8546  14.8742  15.1199  17.1332  17.6591  18.9750  19.1578
    22.8079  23.6290  23.9141  24.2762  24.2805  24.6863  26.7875  26.9657
    29.3390  30.0039  33.9221  34.2813  34.4916  34.5729  34.7601  35.4922
    35.8436  35.9519  37.7841  38.5232  38.7416  40.6333  41.4610  42.4844
    42.6743  44.2698  44.3779  44.5968  46.4979  47.7964  47.8209  48.8873
    49.4209  49.5447  50.4838  50.5457  51.2321  51.4754  51.6890  51.8304
    52.6539  52.6871  53.6174  53.6337  53.7586  54.5119

          k = 0.4000 0.4000 0.3103 (  1799 PWs)   bands (ev):

   -35.7767 -35.7760 -35.6384 -35.6366 -35.6244 -35.6242  -5.8299  -5.7068
    -4.9664  -4.8994   5.1789   5.4246   6.3290   6.3919   8.3708   8.7238
     8.7363   9.2893   9.5223   9.8740   9.9540  10.3118  12.6958  13.1287
    13.1953  13.3454  14.4572  14.5989  17.6016  17.8131  18.4787  18.5610
    23.3975  24.2116  24.2714  24.2774  24.4340  25.0693  27.6808  27.7550
    28.7972  29.3448  30.1226  30.8009  33.4865  34.5289  35.2337  36.7497
    36.9809  37.1448  39.0951  39.6835  39.8861  41.1314  41.3086  41.9174
    43.0246  43.3170  44.1848  44.7824  45.8035  46.4368  48.0228  48.0816
    48.6430  48.8862  49.2661  50.0200  50.4449  51.5739  52.0715  52.1099
    52.9258  53.2886  54.0193  54.3148  54.5079  55.4850

          k = 0.4000 0.4000 0.6207 (  1789 PWs)   bands (ev):

   -35.7715 -35.7654 -35.7597 -35.7532 -35.6070 -35.6070  -5.4347  -5.2709
    -5.1460  -4.9701   5.9832   6.1710   6.4975   6.5554   6.9522   7.4223
     8.4011   8.6156   9.8329  10.0375  10.7527  11.1138  12.8023  13.4629
    13.4854  13.5526  14.0444  14.5901  17.1075  17.9560  18.1477  18.9409
    23.9328  24.2748  24.2769  24.4024  24.7895  25.0204  26.9054  27.1509
    27.8316  28.2947  31.6475  31.6778  33.0007  33.5742  34.5514  35.4023
    37.0044  37.2200  37.3888  38.5641  41.8144  41.8817  43.1055  43.3595
    43.7113  44.5685  44.6999  45.9926  46.4058  46.8055  47.2856  47.5112
    48.1352  48.1646  48.7871  49.0016  49.9249  50.3710  50.4436  52.3686
    52.5240  53.5958  53.7642  54.4153  54.8097  54.8155

 ------ SPIN DOWN ----------


          k = 0.0000 0.0000 0.0000 (  1827 PWs)   bands (ev):

   -35.7826 -35.7826 -35.6354 -35.6354 -35.5682 -35.5531  -6.8431  -5.6142
    -4.5419  -4.5419   4.4580   4.7314   6.3675   6.5450   6.5450   9.2693
     9.2693   9.7958  11.0672  11.4608  11.4608  11.6436  11.7034  12.0432
    12.4387  12.4387  12.8252  15.4561  16.0511  18.9714  19.1697  19.1697
    20.6274  23.5069  23.5069  24.2776  24.2779  27.0745  27.4053  27.4628
    30.1722  31.1001  31.1001  31.3628  32.7198  34.7909  35.4303  35.4303
    36.6848  36.6848  38.1297  41.0184  41.2610  41.2610  41.2957  43.1184
    43.9073  44.1327  44.1841  45.4015  45.4015  45.9151  46.0147  46.0147
    46.8687  46.9833  46.9833  48.8951  50.8949  52.7641  52.7641  53.0656
    53.4022  53.7619  53.7619  54.8073  55.1234  55.7649

          k = 0.0000 0.0000 0.3103 (  1807 PWs)   bands (ev):

   -35.7757 -35.7757 -35.6432 -35.6313 -35.6246 -35.6246  -6.3935  -5.3368
    -4.7983  -4.7983   5.1412   5.2363   6.6045   6.6045   6.8456   8.2191
     9.1582   9.7554   9.7554  10.0733  10.0733  11.9378  12.0815  12.5857
    12.9205  13.7053  13.7053  15.5691  16.3555  18.4878  18.4878  19.3270
    20.9003  24.2776  24.2778  25.1324  25.1324  27.1113  27.5532  27.6622
    28.4398  30.4016  30.6440  30.6440  30.7700  35.9912  36.1022  36.1022
    36.3955  36.3955  37.4798  40.5679  40.7216  41.2091  41.2884  41.2884
    42.2095  42.8569  42.8569  42.8619  45.5164  46.8470  46.8470  48.9078
    49.0334  49.4209  49.4209  49.5220  50.5433  51.5165  51.9125  51.9125
    52.9686  53.4308  53.4308  55.8920  56.0912  56.2525

          k = 0.0000 0.0000 0.6207 (  1792 PWs)   bands (ev):

   -35.7650 -35.7650 -35.7617 -35.7574 -35.6069 -35.6069  -5.4695  -5.1908
    -5.1908  -5.0181   6.0322   6.3361   6.7953   7.0995   7.0995   7.5032
     8.1990   8.5193   8.5193  10.1349  10.3028  10.3028  13.0176  13.1631
    13.7091  14.3708  14.7506  14.7506  17.1962  17.7168  18.1822  18.1822
    23.4291  24.2772  24.2780  25.8953  26.9821  27.1042  27.5546  27.5546
    28.2915  29.2289  29.4728  29.4728  29.9688  31.7603  35.5525  35.5525
    37.3701  37.3701  39.0436  39.3061  39.8601  40.5331  41.0469  41.4043
    41.4043  43.2699  43.2699  44.4524  46.6782  46.6782  47.6776  49.2505
    49.2505  49.8642  50.1155  50.1155  50.2249  51.1200  51.6732  53.2443
    53.6937  53.6937  54.2532  54.6672  55.8217  55.8217

          k = 0.0000 0.2000 0.0000 (  1811 PWs)   bands (ev):

   -35.7814 -35.7814 -35.6367 -35.6366 -35.5667 -35.5544  -6.6921  -5.6199
    -4.7130  -4.6235   4.8201   5.0051   6.5728   6.5824   6.6404   8.7031
     8.7836   9.6693  10.2974  10.5597  11.1034  11.8137  12.1881  12.5530
    12.7611  12.9367  13.2219  15.7294  16.0429  18.9638  19.0038  19.5850
    20.2112  23.3967  23.6504  24.2776  24.2784  26.6652  27.4469  27.5191
    29.2222  31.5885  31.7184  31.7929  33.1868  34.2806  34.7226  34.7404
    36.2269  37.4885  38.9555  40.1143  41.0969  41.2954  42.2821  42.9126
    43.3670  43.7234  43.8572  45.1413  45.3378  46.1428  46.5544  47.3537
    47.8083  47.8153  48.3419  49.1109  50.6184  51.8315  52.0019  52.5433
    52.6328  52.7676  53.0615  53.4095  54.1977  55.0438

          k = 0.0000 0.2000 0.3103 (  1802 PWs)   bands (ev):

   -35.7753 -35.7752 -35.6422 -35.6338 -35.6250 -35.6239  -6.2645  -5.3161
    -4.9505  -4.8533   5.3787   5.4770   6.5597   6.5880   7.2361   8.0482
     8.5628   9.3786   9.4499  10.0201  10.1726  11.6213  12.3376  13.1176
    13.2956  13.5582  13.8830  15.3365  16.7069  17.9085  18.3393  19.6870
    21.1409  24.2773  24.2776  24.7106  25.1649  26.9201  27.5483  27.9003
    28.6175  30.0951  30.1205  30.7143  32.0485  34.7314  35.0045  36.1006
    36.4052  36.8178  38.7260  40.0238  40.2378  40.4289  41.1391  42.0058
    42.3672  43.0929  43.5026  44.7462  46.5751  46.6746  47.4744  47.7222
    48.3364  49.2180  49.6435  49.9244  51.2120  51.3028  51.5542  51.8606
    52.0406  53.0816  53.8751  55.2210  55.4212  56.1494

          k = 0.0000 0.2000 0.6207 (  1786 PWs)   bands (ev):

   -35.7723 -35.7707 -35.7541 -35.7522 -35.6070 -35.6069  -5.5443  -5.3568
    -5.0610  -4.8803   6.0189   6.2277   6.2792   6.8404   7.3931   7.7095
     8.3872   8.8720   8.9370   9.9769  10.0620  10.5278  12.5898  13.3282
    13.7453  13.7497  14.8822  14.9713  16.8936  16.9838  18.5856  19.0852
    23.4920  24.2773  24.2778  25.5797  26.3662  26.6915  27.6718  27.8934
    28.6894  28.9001  29.2238  29.5789  31.2450  31.4286  35.0073  35.3464
    36.9614  37.4783  38.6129  39.1676  40.4591  40.7553  41.3960  41.5492
    42.6466  42.9594  43.2728  45.3042  46.7897  47.0874  47.9377  48.0913
    49.0317  49.1716  49.6189  50.6358  51.0165  51.3255  51.5010  52.8687
    53.0291  53.7986  54.6266  55.0005  56.4313  56.4445

          k = 0.0000 0.4000 0.0000 (  1792 PWs)   bands (ev):

   -35.7794 -35.7794 -35.6388 -35.6387 -35.5628 -35.5581  -6.2867  -5.8136
    -4.9093  -4.8050   5.5879   5.6282   6.6280   6.6388   7.4495   7.7790
     7.8238   8.7738   9.5976   9.9063  11.1575  11.5169  12.6514  12.8136
    13.3168  13.4449  14.0763  14.9905  17.4199  18.6435  18.6871  18.9618
    21.1112  22.5884  24.2581  24.2774  24.3112  25.4843  27.7033  28.1691
    28.5752  30.4163  32.0305  32.9498  32.9622  34.1993  34.4107  35.8275
    36.2801  37.7210  39.1833  40.0155  40.0426  40.5890  41.2294  41.3437
    43.9865  44.0476  45.1257  45.6847  46.4876  46.9760  47.1759  47.4107
    49.0730  49.2582  49.5652  50.4452  50.6621  50.8036  50.8377  51.2469
    51.7789  52.3094  52.3839  53.3123  53.3505  53.4933

          k = 0.0000 0.4000 0.3103 (  1802 PWs)   bands (ev):

   -35.7745 -35.7744 -35.6401 -35.6375 -35.6252 -35.6243  -5.9145  -5.4720
    -5.1044  -4.9847   5.9297   6.0536   6.4827   6.5991   7.5391   7.8082
     8.2716   8.6850   8.7025   9.4263  10.7216  11.1598  12.8875  13.2635
    13.7954  13.8269  14.3135  14.7840  17.1297  17.2802  18.4565  19.2735
    22.2642  23.6296  24.2776  24.2780  25.5078  26.2494  27.7944  28.2519
    28.9045  29.4259  29.9952  31.1395  32.6177  33.4691  34.8735  36.3994
    36.5416  36.9574  38.9565  39.1193  40.2721  40.3645  41.0354  41.1219
    42.7199  44.5890  44.8973  45.8345  46.3861  46.9893  47.6759  48.3541
    48.9670  49.3525  49.4808  49.9450  50.9903  51.2296  51.3933  51.4030
    52.5066  52.8796  53.4663  55.1264  55.3655  55.8982

          k = 0.0000 0.4000 0.6207 (  1795 PWs)   bands (ev):

   -35.7771 -35.7764 -35.7484 -35.7478 -35.6070 -35.6069  -5.5921  -5.5270
    -4.8787  -4.8013   5.9280   5.9771   6.1787   6.2865   7.7943   8.1990
     8.5133   9.2214   9.3656   9.5052  10.1738  11.1655  11.8344  12.7057
    13.6276  13.7842  15.0593  15.0844  16.3681  16.5318  19.3536  19.6739
    23.8449  24.2772  24.2778  24.6570  26.1455  26.3148  27.8238  27.9565
    28.3539  28.5488  29.4681  30.4142  30.9868  32.2413  34.2958  34.9630
    37.1588  37.6092  38.5113  38.8559  40.7407  40.8791  41.6738  41.7341
    42.8382  43.2628  45.4974  45.8505  46.1880  46.4274  47.6837  48.1879
    49.0197  49.0614  49.5424  50.4201  50.7994  50.8234  52.3944  53.5566
    54.1085  54.1273  54.7618  55.1514  55.7048  55.8183

          k = 0.2000 0.2000 0.0000 (  1808 PWs)   bands (ev):

   -35.7831 -35.7793 -35.6389 -35.6351 -35.5655 -35.5556  -6.5782  -5.6590
    -4.8682  -4.5876   4.6009   5.6325   6.5244   6.6406   6.8936   7.7856
     9.1627   9.5900  10.4750  10.4909  10.5830  11.8063  11.8074  12.4482
    12.7825  13.3960  13.6626  15.5809  16.2631  18.6635  19.1659  19.6283
    20.3658  23.4202  23.7385  24.2775  24.2786  26.1442  27.2620  27.9120
    28.6963  30.7660  32.2256  33.4612  33.4952  34.4022  34.7195  34.7339
    35.4931  36.9802  38.6124  39.3683  40.9203  41.3750  42.0692  42.3672
    43.5314  44.2291  44.8892  45.3156  45.4186  46.2037  47.4779  47.7590
    47.7762  48.5293  48.9533  49.4001  50.6531  50.7291  50.7680  52.1742
    52.2163  52.7039  53.4934  53.9103  55.2860  55.6040

          k = 0.2000 0.2000 0.3103 (  1803 PWs)   bands (ev):

   -35.7762 -35.7743 -35.6418 -35.6345 -35.6247 -35.6244  -6.1640  -5.3248
    -5.0820  -4.8376   5.1820   5.9876   6.4092   6.6401   7.4985   7.7785
     8.6813   8.7611   9.5628  10.0213  10.4039  11.3237  12.5513  12.7226
    13.3506  13.9299  14.0799  15.1680  16.8280  17.5957  18.4874  19.5626
    21.5471  24.2769  24.2776  24.7374  24.8645  26.4619  27.5372  27.8716
    28.6813  29.7673  30.5594  31.4836  32.0352  33.5719  35.2058  36.1795
    36.6605  37.0311  38.4644  39.7135  40.2128  40.5484  41.5740  41.6777
    42.3882  43.4440  44.8332  44.8555  46.5389  46.6187  47.6034  47.8433
    47.9333  49.2580  49.7680  50.5691  50.8604  50.9808  51.4020  51.7178
    52.2007  52.7431  53.4375  54.1993  56.2653  56.2666

          k = 0.2000 0.2000 0.6207 (  1796 PWs)   bands (ev):

   -35.7766 -35.7652 -35.7600 -35.7477 -35.6070 -35.6069  -5.5897  -5.2218
    -5.2078  -4.8099   5.9961   6.1828   6.2914   6.7551   6.9214   8.2813
     8.3645   8.9759   9.2394   9.5331  10.1936  10.8631  12.3196  13.3737
    13.7670  13.8317  14.3399  15.2415  16.3407  17.7339  18.1700  19.4408
    23.5412  24.2772  24.2778  25.4728  26.1401  26.2647  26.6786  27.6850
    28.3479  29.7289  29.9161  30.3121  31.0923  31.8964  34.5951  35.2841
    36.6451  37.2196  37.8722  40.0656  40.6424  41.5872  41.8948  42.1406
    42.5736  42.9031  43.7724  45.5286  46.3666  47.0685  47.6155  48.4113
    48.5723  48.7504  49.6364  50.3651  50.5985  51.2266  51.9782  52.4538
    53.0167  54.0164  54.6381  55.0666  55.2690  56.4523

          k = 0.2000 0.4000 0.0000 (  1800 PWs)   bands (ev):

   -35.7820 -35.7797 -35.6387 -35.6363 -35.5624 -35.5586  -6.2739  -5.8965
    -4.8840  -4.7123   4.9154   5.6105   6.5494   6.6218   7.5990   7.8676
     8.6017   9.2923   9.7215  10.1815  10.6608  11.2348  12.3127  12.7396
    12.8445  13.3886  14.3959  15.0882  17.1886  18.5024  18.6616  18.9795
    21.7061  22.9540  24.2154  24.2773  24.2869  25.2584  27.2666  27.7298
    28.7124  29.9978  33.3635  33.6497  34.0091  34.2649  34.4557  35.3777
    36.1657  36.5660  37.7996  39.4981  39.8636  40.6023  41.1300  41.8062
    43.8115  44.0734  45.4569  45.7340  46.4313  46.9892  48.2808  48.4036
    48.7244  49.1139  49.2573  50.1482  50.6746  51.1170  51.4414  51.4955
    52.1222  52.5578  53.0334  53.2448  53.6285  54.5330

          k = 0.2000 0.4000 0.3103 (  1793 PWs)   bands (ev):

   -35.7757 -35.7746 -35.6398 -35.6366 -35.6249 -35.6243  -5.8960  -5.5541
    -5.0678  -4.9298   5.4233   6.0036   6.4252   6.4877   7.7669   8.1007
     8.5039   8.7938   9.2186   9.5898  10.4545  10.8394  12.9642  13.1251
    13.3153  13.8890  14.3300  14.7381  17.1980  17.5976  18.4392  19.0145
    22.6197  23.8104  24.2776  24.2781  25.1886  25.8390  27.5877  27.9231
    28.8292  29.3077  30.6839  31.4303  32.5567  33.3564  35.0565  36.5930
    36.9006  37.2048  38.6779  38.9244  40.3750  40.6203  41.1599  41.7806
    42.5695  43.8852  44.8103  45.3612  46.5021  47.4526  47.7413  48.3189
    48.4263  49.3740  49.5195  50.1453  50.6361  51.1150  51.4164  51.5663
    52.5746  53.0514  54.0067  54.1732  54.5777  55.2847

          k = 0.2000 0.4000 0.6207 (  1800 PWs)   bands (ev):

   -35.7767 -35.7717 -35.7535 -35.7480 -35.6070 -35.6070  -5.5649  -5.4264
    -4.9881  -4.8284   5.9111   6.0271   6.2687   6.5094   7.2402   7.9730
     8.5933   8.9138   9.4690   9.8736  10.3514  11.1937  12.0940  12.9982
    13.5313  13.7209  14.6220  15.0560  16.4412  17.1130  18.9318  19.5224
    23.8389  24.2764  24.2778  24.6233  25.6283  25.8345  26.8150  27.3056
    28.3179  29.1338  30.4518  30.9807  31.6392  32.9182  34.0942  35.2065
    36.7844  37.4094  37.7530  38.9757  41.5094  41.6919  42.0199  42.3480
    43.4456  44.0686  44.9847  45.3205  46.2500  46.5370  47.5245  48.0528
    48.3353  48.6101  48.9932  49.8515  50.7309  51.7754  52.1140  52.3256
    53.0061  53.2811  54.0858  54.7661  55.5556  55.9837

          k = 0.4000 0.4000 0.0000 (  1798 PWs)   bands (ev):

   -35.7838 -35.7825 -35.6360 -35.6346 -35.5612 -35.5598  -6.2089  -6.0685
    -4.7521  -4.6591   4.6126   4.9178   6.4914   6.5322   8.2376   8.8045
     8.9457   9.6465  10.1458  10.2348  10.4684  10.9345  11.7686  12.2992
    12.4642  12.8546  14.8742  15.1199  17.1332  17.6591  18.9750  19.1578
    22.8079  23.6290  23.9141  24.2762  24.2805  24.6863  26.7875  26.9657
    29.3390  30.0039  33.9221  34.2813  34.4916  34.5729  34.7601  35.4922
    35.8436  35.9519  37.7841  38.5232  38.7416  40.6333  41.4610  42.4844
    42.6743  44.2697  44.3779  44.5968  46.4979  47.7964  47.8209  48.8873
    49.4209  49.5447  50.4838  50.5457  51.2321  51.4754  51.6890  51.8303
    52.6539  52.6871  53.6174  53.6337  53.7586  54.5119

          k = 0.4000 0.4000 0.3103 (  1799 PWs)   bands (ev):

   -35.7767 -35.7760 -35.6384 -35.6366 -35.6244 -35.6242  -5.8299  -5.7068
    -4.9664  -4.8994   5.1789   5.4246   6.3290   6.3919   8.3708   8.7238
     8.7363   9.2893   9.5223   9.8740   9.9540  10.3118  12.6958  13.1287
    13.1953  13.3454  14.4572  14.5989  17.6016  17.8131  18.4787  18.5609
    23.3975  24.2116  24.2714  24.2774  24.4340  25.0693  27.6808  27.7550
    28.7972  29.3448  30.1226  30.8009  33.4865  34.5289  35.2337  36.7497
    36.9809  37.1448  39.0951  39.6835  39.8861  41.1314  41.3086  41.9174
    43.0246  43.3170  44.1848  44.7824  45.8035  46.4368  48.0228  48.0816
    48.6430  48.8862  49.2661  50.0200  50.4449  51.5739  52.0715  52.1099
    52.9258  53.2885  54.0193  54.3148  54.5079  55.4850

          k = 0.4000 0.4000 0.6207 (  1789 PWs)   bands (ev):

   -35.7715 -35.7654 -35.7597 -35.7532 -35.6070 -35.6070  -5.4347  -5.2709
    -5.1460  -4.9701   5.9832   6.1710   6.4975   6.5554   6.9522   7.4223
     8.4011   8.6156   9.8329  10.0375  10.7527  11.1138  12.8023  13.4629
    13.4854  13.5526  14.0444  14.5901  17.1075  17.9560  18.1477  18.9409
    23.9328  24.2748  24.2769  24.4024  24.7895  25.0204  26.9054  27.1509
    27.8316  28.2947  31.6475  31.6778  33.0007  33.5742  34.5514  35.4023
    37.0044  37.2200  37.3888  38.5641  41.8144  41.8817  43.1055  43.3595
    43.7113  44.5685  44.6999  45.9926  46.4058  46.8055  47.2856  47.5112
    48.1352  48.1646  48.7871  49.0016  49.9249  50.3710  50.4436  52.3686
    52.5240  53.5958  53.7642  54.4153  54.8097  54.8155

     the Fermi energy is    14.7110 ev

!    total energy              =    -501.23433242 Ry
     Harris-Foulkes estimate   =    -501.23432382 Ry
     estimated scf accuracy    <       0.00000028 Ry

     The total energy is the sum of the following terms:

     one-electron contribution =     -99.82837971 Ry
     hartree contribution      =      88.67974587 Ry
     xc contribution           =    -138.52000568 Ry
     ewald contribution        =    -351.56551232 Ry
     smearing contrib. (-TS)   =      -0.00018060 Ry

     total magnetization       =    -0.00 Bohr mag/cell
     absolute magnetization    =     0.00 Bohr mag/cell

     convergence has been achieved in   8 iterations

     Forces acting on atoms (Ry/au):


     negative rho (up, down):  0.391E+00 0.391E+00
     atom    1 type  1   force =     0.00000000    0.00000000   -0.00000000
     atom    2 type  1   force =     0.00000000    0.00000000   -0.00000000
     atom    3 type  2   force =    -0.02681880   -0.02681880   -0.00000000
     atom    4 type  2   force =     0.02681880    0.02681880    0.00000000
     atom    5 type  2   force =    -0.02681880    0.02681880   -0.00000000
     atom    6 type  2   force =     0.02681880   -0.02681880    0.00000000

     Total force =     0.075855     Total SCF correction =     0.000852


     entering subroutine stress ...


     negative rho (up, down):  0.391E+00 0.391E+00
          total   stress  (Ry/bohr**3)                   (kbar)     P=  192.63
   0.00047488   0.00000000   0.00000000         69.86      0.00      0.00
   0.00000000   0.00047488   0.00000000          0.00     69.86      0.00
   0.00000000   0.00000000   0.00297870          0.00      0.00    438.18

     Volume is kept fixed: isostatic pressure set to zero

     BFGS Geometry Optimization

     number of scf cycles    =   1
     number of bfgs steps    =   0

     enthalpy new            =    -501.2343324247 Ry

     new trust radius        =       0.1712307930 bohr
     new conv_thr            =       0.0000010000 Ry

     new unit-cell volume =    420.92163 a.u.^3 (    62.37415 Ang^3 )

CELL_PARAMETERS (alat=  8.67638046)
   0.979555564   0.000000000   0.000000000
   0.000000000   0.979555564   0.000000000
   0.000000000   0.000000000   0.671625740

ATOMIC_POSITIONS (crystal)
Ir0      0.000000000   0.000000000   0.000000000    0   0   0
Ir0      0.500000000   0.500000000   0.500000000    0   0   0
O1       0.301908988   0.301908988   0.000000000    1   1   0
O1      -0.301908988  -0.301908988   0.000000000    1   1   0
O1       0.801908988   0.198091012   0.500000000    1   1   0
O1       0.198091012   0.801908988   0.500000000    1   1   0


     Check: negative starting charge=(component1):   -0.834818
     NEW-OLD atomic charge density approx. for the potential
     NEW k-points:
        k(    1) = (   0.0000000   0.0000000   0.0000000), wk =   0.0080000
        k(    2) = (   0.0000000   0.0000000   0.2977849), wk =   0.0160000
        k(    3) = (   0.0000000   0.0000000   0.5955698), wk =   0.0160000
        k(    4) = (   0.0000000   0.2041742   0.0000000), wk =   0.0320000
        k(    5) = (   0.0000000   0.2041742   0.2977849), wk =   0.0640000
        k(    6) = (   0.0000000   0.2041742   0.5955698), wk =   0.0640000
        k(    7) = (   0.0000000   0.4083485   0.0000000), wk =   0.0320000
        k(    8) = (   0.0000000   0.4083485   0.2977849), wk =   0.0640000
        k(    9) = (   0.0000000   0.4083485   0.5955698), wk =   0.0640000
        k(   10) = (   0.2041742   0.2041742   0.0000000), wk =   0.0320000
        k(   11) = (   0.2041742   0.2041742   0.2977849), wk =   0.0640000
        k(   12) = (   0.2041742   0.2041742   0.5955698), wk =   0.0640000
        k(   13) = (   0.2041742   0.4083485   0.0000000), wk =   0.0640000
        k(   14) = (   0.2041742   0.4083485   0.2977849), wk =   0.1280000
        k(   15) = (   0.2041742   0.4083485   0.5955698), wk =   0.1280000
        k(   16) = (   0.4083485   0.4083485   0.0000000), wk =   0.0320000
        k(   17) = (   0.4083485   0.4083485   0.2977849), wk =   0.0640000
        k(   18) = (   0.4083485   0.4083485   0.5955698), wk =   0.0640000
        k(   19) = (   0.0000000   0.0000000   0.0000000), wk =   0.0080000
        k(   20) = (   0.0000000   0.0000000   0.2977849), wk =   0.0160000
        k(   21) = (   0.0000000   0.0000000   0.5955698), wk =   0.0160000
        k(   22) = (   0.0000000   0.2041742   0.0000000), wk =   0.0320000
        k(   23) = (   0.0000000   0.2041742   0.2977849), wk =   0.0640000
        k(   24) = (   0.0000000   0.2041742   0.5955698), wk =   0.0640000
        k(   25) = (   0.0000000   0.4083485   0.0000000), wk =   0.0320000
        k(   26) = (   0.0000000   0.4083485   0.2977849), wk =   0.0640000
        k(   27) = (   0.0000000   0.4083485   0.5955698), wk =   0.0640000
        k(   28) = (   0.2041742   0.2041742   0.0000000), wk =   0.0320000
        k(   29) = (   0.2041742   0.2041742   0.2977849), wk =   0.0640000
        k(   30) = (   0.2041742   0.2041742   0.5955698), wk =   0.0640000
        k(   31) = (   0.2041742   0.4083485   0.0000000), wk =   0.0640000
        k(   32) = (   0.2041742   0.4083485   0.2977849), wk =   0.1280000
        k(   33) = (   0.2041742   0.4083485   0.5955698), wk =   0.1280000
        k(   34) = (   0.4083485   0.4083485   0.0000000), wk =   0.0320000
        k(   35) = (   0.4083485   0.4083485   0.2977849), wk =   0.0640000
        k(   36) = (   0.4083485   0.4083485   0.5955698), wk =   0.0640000

     Check: negative/imaginary core charge=   -0.000004    0.000000
     Check: negative starting charge=(component1):   -0.833132

     negative rho (up, down):  0.390E+00 0.390E+00

     total cpu time spent up to now is      244.6 secs

     per-process dynamical memory:    51.0 Mb

     Self-consistent Calculation

     iteration #  1     ecut=    40.00 Ry     beta=0.30
     Davidson diagonalization with overlap
     ethr =  1.00E-06,  avg # of iterations =  6.9

     negative rho (up, down):  0.390E+00 0.390E+00

     total cpu time spent up to now is      292.5 secs

     total energy              =    -501.25801256 Ry
     Harris-Foulkes estimate   =    -501.25832335 Ry
     estimated scf accuracy    <       0.00209274 Ry

     total magnetization       =    -0.00 Bohr mag/cell
     absolute magnetization    =     0.00 Bohr mag/cell

     iteration #  2     ecut=    40.00 Ry     beta=0.30
     Davidson diagonalization with overlap
     ethr =  3.88E-06,  avg # of iterations =  1.0

     negative rho (up, down):  0.389E+00 0.389E+00

     total cpu time spent up to now is      308.7 secs

     total energy              =    -501.25800739 Ry
     Harris-Foulkes estimate   =    -501.25807932 Ry
     estimated scf accuracy    <       0.00072068 Ry

     total magnetization       =    -0.00 Bohr mag/cell
     absolute magnetization    =     0.00 Bohr mag/cell

     iteration #  3     ecut=    40.00 Ry     beta=0.30
     Davidson diagonalization with overlap
     ethr =  1.33E-06,  avg # of iterations =  1.0

     negative rho (up, down):  0.389E+00 0.389E+00

     total cpu time spent up to now is      325.0 secs

     total energy              =    -501.25811705 Ry
     Harris-Foulkes estimate   =    -501.25808191 Ry
     estimated scf accuracy    <       0.00005244 Ry

     total magnetization       =    -0.00 Bohr mag/cell
     absolute magnetization    =     0.00 Bohr mag/cell

     iteration #  4     ecut=    40.00 Ry     beta=0.30
     Davidson diagonalization with overlap
     ethr =  9.71E-08,  avg # of iterations =  1.0

     negative rho (up, down):  0.389E+00 0.389E+00

     total cpu time spent up to now is      341.6 secs

     total energy              =    -501.25813535 Ry
     Harris-Foulkes estimate   =    -501.25811942 Ry
     estimated scf accuracy    <       0.00001421 Ry

     total magnetization       =    -0.00 Bohr mag/cell
     absolute magnetization    =     0.00 Bohr mag/cell

     iteration #  5     ecut=    40.00 Ry     beta=0.30
     Davidson diagonalization with overlap
     ethr =  2.63E-08,  avg # of iterations =  1.0

     negative rho (up, down):  0.389E+00 0.389E+00

     total cpu time spent up to now is      357.9 secs

     End of self-consistent calculation

 ------ SPIN UP ------------


          k = 0.0000 0.0000 0.0000 (  1827 PWs)   bands (ev):

   -35.8555 -35.8555 -35.6228 -35.6039 -35.6017 -35.6017  -6.7679  -5.4926
    -4.4428  -4.4428   4.5341   4.7641   6.3732   6.6469   6.6469   9.4953
     9.5107   9.5107  11.0353  11.5604  11.5604  11.8569  12.1503  12.1590
    12.2748  12.2748  12.3278  15.6702  16.0460  18.8073  18.8073  19.0677
    20.8979  23.1802  23.1802  24.2330  24.2332  27.1237  27.7230  27.9527
    30.0687  30.2802  31.6144  31.6144  31.6494  34.0671  36.1852  36.1852
    37.4197  37.4197  37.8755  40.6458  40.6458  41.3133  42.0021  42.2150
    42.9982  43.1828  43.3499  44.8397  44.8397  45.8362  46.3414  46.4374
    46.4374  47.8516  47.8516  48.8374  49.0142  51.5018  52.8573  52.8573
    53.5877  53.6963  54.5106  54.5106  54.8576  54.8576

          k = 0.0000 0.0000 0.2978 (  1807 PWs)   bands (ev):

   -35.8513 -35.8513 -35.6693 -35.6542 -35.5952 -35.5952  -6.3908  -5.3074
    -4.6440  -4.6440   5.1184   5.1624   6.7757   6.7757   6.8040   8.1905
     9.3475   9.9641   9.9641  10.1408  10.1408  11.4567  12.5468  12.6025
    12.8755  13.5995  13.5995  15.6350  16.4874  18.0777  18.0777  19.9230
    20.4185  24.2329  24.2331  24.6549  24.6549  26.8906  27.7801  28.0971
    28.7141  29.7942  30.4263  31.0477  31.0477  34.9588  36.5095  36.5095
    36.7541  37.2216  37.2216  40.2016  40.7701  41.3231  41.3231  41.4684
    42.4522  42.5726  42.5726  42.8874  44.5329  47.5866  47.5866  47.6913
    48.2908  49.1914  49.2732  49.2732  49.7770  51.6380  51.6380  51.8295
    53.8124  53.8771  53.8771  55.5707  56.1435  56.9200

          k = 0.0000 0.0000 0.5956 (  1792 PWs)   bands (ev):

   -35.8446 -35.8446 -35.7420 -35.7366 -35.5846 -35.5846  -5.5995  -5.1479
    -4.9530  -4.9530   5.8646   6.1785   6.9614   7.2439   7.2439   7.7499
     8.0231   8.7836   8.7836   9.7681  10.5174  10.5174  12.8444  13.2619
    13.4600  14.6149  14.7093  14.7093  17.4064  17.4064  17.4599  18.1960
    22.9998  24.2324  24.2333  25.4229  26.9667  26.9667  27.4530  27.5335
    28.5263  29.1179  29.7903  29.7903  30.1431  31.7275  36.0538  36.0538
    37.7905  37.7905  38.4989  39.3866  40.5778  40.7202  41.0811  41.6051
    41.6051  42.5927  42.9848  42.9848  46.1556  47.3568  47.3568  48.6748
    48.6748  50.0106  50.0106  50.3226  50.3864  50.4362  52.5698  53.3305
    53.3305  53.4702  53.5989  53.6370  55.7772  55.7772

          k = 0.0000 0.2042 0.0000 (  1811 PWs)   bands (ev):

   -35.8547 -35.8547 -35.6208 -35.6057 -35.6027 -35.6026  -6.6001  -5.4547
    -4.6741  -4.5466   4.9465   5.0852   6.6602   6.6876   6.7071   8.8670
     8.9539   9.3230  10.3755  10.4730  11.2358  12.1299  12.2603  12.5950
    12.6736  12.9039  12.9310  15.6918  16.3175  18.5446  18.6065  19.6360
    20.5932  23.2188  23.4203  24.2329  24.2335  26.7211  27.6895  27.9054
    29.4035  30.7351  31.7643  32.1459  32.2728  33.9455  34.6885  35.1113
    36.9591  38.0754  38.2172  39.9271  40.6976  41.7409  41.8391  43.0604
    43.1004  43.7666  43.8366  44.0523  44.5683  45.8145  47.0365  47.5396
    47.7526  48.1974  48.6945  48.8452  49.4700  50.8293  52.0459  52.5109
    52.7121  52.9119  53.2794  53.6690  54.2602  55.0277

          k = 0.0000 0.2042 0.2978 (  1802 PWs)   bands (ev):

   -35.8511 -35.8510 -35.6677 -35.6558 -35.5957 -35.5956  -6.2471  -5.2577
    -4.8372  -4.7192   5.4014   5.4443   6.6846   6.7740   7.2887   7.9872
     8.6384   9.3868   9.4730  10.2372  10.4316  11.7555  12.2324  13.0245
    13.1926  13.4175  13.8862  15.3763  16.9494  17.6191  17.8993  19.9662
    20.9305  24.2326  24.2328  24.4626  24.7940  26.7031  27.6986  28.1523
    28.8974  29.6943  30.3654  30.3914  32.4370  34.7437  34.9585  35.3089
    36.7220  37.4725  38.6357  39.8896  40.3098  40.3453  41.0343  41.8115
    42.3686  43.0403  43.7717  44.8695  45.9625  46.8464  47.3161  48.1665
    48.2434  48.6568  49.0238  49.6208  51.1568  51.2469  51.2931  51.7680
    52.5447  53.4833  54.4878  55.3489  55.5471  56.2058

          k = 0.0000 0.2042 0.5956 (  1786 PWs)   bands (ev):

   -35.8457 -35.8455 -35.7406 -35.7363 -35.5846 -35.5845  -5.5908  -5.2817
    -4.9119  -4.8528   5.9401   6.1831   6.3641   6.8982   7.6380   7.7944
     8.4625   8.9048   9.1410   9.9979  10.2961  10.4146  12.9506  13.0009
    13.2996  13.8258  14.8852  15.0250  16.6553  16.8296  18.2955  19.0272
    23.1756  24.2325  24.2332  25.3219  26.1220  26.5354  27.7488  28.0692
    28.7125  28.7446  29.4185  29.8060  31.5731  31.6146  35.3874  35.5992
    37.1011  37.5920  38.5234  39.6140  40.6796  40.6911  41.1303  41.6141
    42.4708  42.6684  43.6751  43.7398  47.0099  47.0789  47.5889  48.3686
    48.6204  48.8512  49.6132  50.2726  50.7015  51.1307  51.7756  52.8451
    53.0764  53.7407  54.4847  54.5051  55.9891  56.5812

          k = 0.0000 0.4083 0.0000 (  1792 PWs)   bands (ev):

   -35.8534 -35.8534 -35.6160 -35.6103 -35.6042 -35.6042  -6.1416  -5.5858
    -4.9608  -4.7860   5.8604   5.8657   6.7751   6.7984   7.5008   7.7878
     7.8321   8.8995   9.2101   9.5801  11.2925  11.6882  12.6971  12.8420
    13.3757  13.5607  13.8948  14.8764  17.7467  18.1315  18.2029  19.2238
    21.3561  22.6836  24.2166  24.2327  24.2683  25.5681  27.8706  28.2810
    28.8908  30.7297  31.9556  32.0811  33.0691  33.3002  33.4477  35.4346
    36.4514  38.3040  39.2532  39.9850  40.6828  40.7588  40.8019  40.8100
    43.9891  44.4722  44.6072  44.7921  46.7266  46.8168  46.9311  47.8784
    48.1109  49.5720  49.7393  49.8926  50.5154  50.7313  50.7514  51.7931
    51.9068  52.4850  52.6056  52.8298  53.9925  54.3775

          k = 0.0000 0.4083 0.2978 (  1802 PWs)   bands (ev):

   -35.8507 -35.8506 -35.6639 -35.6594 -35.5965 -35.5964  -5.8537  -5.3326
    -5.0921  -4.9009   6.0653   6.1426   6.7082   6.8172   7.4498   7.7447
     8.2799   8.6058   8.6323   9.5785  11.0319  11.4534  12.6953  13.0726
    13.6073  13.6747  14.3643  14.7989  17.0484  17.1368  18.3309  19.3692
    22.2902  23.6277  24.2328  24.2331  25.3338  26.1379  27.8602  28.3322
    29.0391  29.2700  30.0369  31.0061  32.5068  33.0456  35.0768  35.7905
    36.5163  37.5056  38.8348  39.0213  39.9728  40.3235  41.1080  41.4315
    42.6220  44.7882  45.1232  45.7758  46.1421  46.4178  47.8390  48.1875
    48.3866  49.0038  49.6220  50.0679  51.3652  51.3924  51.4887  51.6501
    53.0364  53.0647  53.6770  55.1430  55.2544  55.5252

          k = 0.0000 0.4083 0.5956 (  1795 PWs)   bands (ev):

   -35.8472 -35.8471 -35.7380 -35.7364 -35.5845 -35.5844  -5.5486  -5.4460
    -4.8280  -4.7882   6.0219   6.0226   6.2210   6.3777   7.8500   8.2620
     8.5433   9.3491   9.4707   9.5599  10.4205  11.1765  11.9990  12.7148
    13.2415  13.3390  15.0862  15.1189  16.1315  16.3008  19.2330  19.6006
    23.7496  24.2325  24.2331  24.6541  25.7678  26.0480  27.8949  28.0706
    28.5753  28.6507  29.5667  30.4560  31.1200  32.4221  34.7508  35.3281
    37.0532  37.5001  38.3831  38.8620  40.6293  40.8335  42.0823  42.1819
    42.3125  42.6433  44.9843  45.5881  45.7333  46.5177  47.6061  47.7538
    48.9318  49.1817  49.5877  50.2997  50.7308  51.2876  51.4566  53.2208
    54.1971  54.3777  55.0731  55.0967  56.1452  56.1613

          k = 0.2042 0.2042 0.0000 (  1808 PWs)   bands (ev):

   -35.8559 -35.8533 -35.6193 -35.6072 -35.6042 -35.6016  -6.4762  -5.4511
    -4.9012  -4.4970   4.6529   5.8953   6.6157   6.7995   6.9265   7.7889
     9.2078   9.3687  10.4321  10.5677  10.7220  11.9130  11.9623  12.2909
    12.8096  13.4620  13.4932  15.5240  16.5009  18.1634  18.8022  19.7943
    20.6848  23.3825  23.5400  24.2328  24.2337  26.2745  27.6272  27.8486
    28.9215  31.1914  31.2373  32.4494  33.7808  33.9015  34.6210  35.0711
    36.1005  37.4668  37.7335  38.8939  40.9529  41.6004  41.7187  43.0631
    43.2203  43.8348  44.0065  45.0091  45.9808  46.0807  47.4955  47.6992
    48.1462  48.3352  49.0349  49.3373  49.6694  50.6023  51.0930  51.4376
    52.2970  52.7647  54.0681  54.4396  54.7093  55.3262

          k = 0.2042 0.2042 0.2978 (  1803 PWs)   bands (ev):

   -35.8517 -35.8505 -35.6665 -35.6569 -35.5964 -35.5952  -6.1379  -5.2092
    -5.0507  -4.6922   5.1326   6.1014   6.5245   6.8941   7.5263   7.6620
     8.5859   8.8644   9.7089  10.0610  10.7143  11.6488  12.2434  12.6597
    13.1646  13.8572  14.0910  15.1981  16.9794  17.3608  18.0773  19.7457
    21.4825  24.2322  24.2328  24.5767  24.6459  26.4325  27.3190  27.9122
    28.9380  29.7364  30.3332  31.6429  32.1929  33.3303  35.5352  35.6897
    36.9210  37.0202  38.3277  39.5655  40.5075  40.6123  41.0466  41.2707
    42.4698  43.9048  44.5989  45.1316  46.4578  46.7591  47.0612  47.9305
    48.4582  48.4642  49.6684  50.5002  50.5852  51.0590  51.6161  52.0183
    52.1147  52.7291  53.9492  54.4354  55.3790  56.8782

          k = 0.2042 0.2042 0.5956 (  1796 PWs)   bands (ev):

   -35.8471 -35.8449 -35.7406 -35.7359 -35.5847 -35.5844  -5.5758  -5.2692
    -4.9930  -4.7890   6.0153   6.1798   6.2350   6.8022   7.1217   8.3948
     8.5744   8.9180   9.2785   9.9319  10.1780  10.7814  12.6567  13.0290
    13.3229  14.0562  14.1821  15.3030  16.1375  17.3911  18.1031  19.3125
    23.3189  24.2325  24.2331  25.2784  26.1026  26.1750  26.5765  27.3984
    28.4881  29.9275  29.9551  30.4668  31.4309  32.2957  34.9334  35.1688
    36.7556  37.4940  38.0187  40.0533  40.2852  41.3276  41.8712  42.2544
    42.6206  42.8488  43.9834  44.3914  46.7406  46.9209  47.2265  48.4332
    48.5727  48.7506  49.2735  50.0888  50.6439  50.7124  51.8289  52.5543
    53.3098  54.3122  54.4817  54.8650  55.4563  56.4033

          k = 0.2042 0.4083 0.0000 (  1800 PWs)   bands (ev):

   -35.8553 -35.8537 -35.6155 -35.6109 -35.6042 -35.6025  -6.1409  -5.7059
    -4.9049  -4.6578   5.0087   5.8555   6.6529   6.7677   7.6478   7.9178
     8.7183   9.3657   9.4882   9.9352  10.7502  11.3443  12.4041  12.7811
    12.7951  13.4807  14.2464  14.9878  17.4501  18.1625  18.5714  18.7834
    21.9094  23.0441  24.2141  24.2327  24.2595  25.3650  27.4661  27.7756
    28.8446  30.2508  32.3858  33.3537  33.5213  33.7824  34.1998  35.3058
    35.8281  36.8320  38.2379  38.9538  40.0767  40.5494  41.2896  41.9184
    44.0043  44.7042  44.7171  45.3856  45.9134  47.1520  47.3736  47.9566
    49.3273  49.5045  49.9907  50.1955  50.5515  50.6950  50.9307  51.6154
    51.7357  52.8471  53.3404  53.3439  53.8926  55.4601

          k = 0.2042 0.4083 0.2978 (  1793 PWs)   bands (ev):

   -35.8515 -35.8508 -35.6635 -35.6597 -35.5964 -35.5956  -5.8449  -5.4575
    -5.0191  -4.8161   5.4119   6.1071   6.5658   6.6997   7.6762   8.1290
     8.5204   8.7820   9.2806   9.6941  10.7033  11.1139  12.7744  12.9531
    13.1947  13.7778  14.3493  14.7477  17.0933  17.5919  18.1756  19.0718
    22.6519  23.8108  24.2329  24.2332  25.1251  25.8460  27.2875  27.6954
    29.0529  29.4874  30.5300  31.3480  32.3267  33.3942  35.0845  36.4289
    36.7380  37.2882  38.5669  38.8202  40.0519  40.8837  40.9805  41.8352
    42.6694  44.0105  44.5908  45.3272  46.5959  46.9474  47.4021  47.9494
    49.1455  49.5340  49.7541  50.4355  50.8675  51.0828  51.5592  51.9852
    52.7655  53.0305  53.7972  54.1121  54.5250  55.4800

          k = 0.2042 0.4083 0.5956 (  1800 PWs)   bands (ev):

   -35.8473 -35.8459 -35.7390 -35.7366 -35.5847 -35.5845  -5.5042  -5.3711
    -4.9244  -4.8108   5.9832   6.0224   6.3188   6.4751   7.3830   8.0906
     8.7739   9.0527   9.4375   9.8856  10.6180  11.2778  12.2402  13.0222
    13.1671  13.3106  14.6288  15.0954  16.1973  16.8139  18.8627  19.4098
    23.7790  24.2321  24.2332  24.6537  25.3921  25.7470  26.6121  27.1366
    28.3993  29.3259  30.5710  31.2023  31.7437  33.1437  34.5072  35.4830
    36.7147  37.4494  37.7802  38.9597  40.9389  41.2810  42.2121  42.4557
    43.3643  43.9902  44.3925  44.8298  46.3259  46.7181  47.2950  47.8173
    48.1246  48.8035  49.4545  50.4060  50.7125  51.4259  51.9149  52.0269
    52.9925  53.7019  54.4329  54.5246  55.3467  56.0735

          k = 0.4083 0.4083 0.0000 (  1798 PWs)   bands (ev):

   -35.8566 -35.8557 -35.6141 -35.6124 -35.6024 -35.6015  -6.0869  -5.9291
    -4.7067  -4.5813   4.6511   5.0030   6.5658   6.6263   8.3468   8.9937
     9.1250   9.9000   9.9152  10.2277  10.3100  10.9373  11.9245  12.3180
    12.3932  12.8117  14.7609  15.0215  17.3396  17.9043  18.5655  18.7926
    22.9272  23.6079  24.1239  24.2322  24.2395  24.8110  26.8978  27.0235
    29.4435  30.2736  33.3778  33.5872  33.6256  33.8020  34.6716  35.0007
    35.9792  36.4013  37.2736  38.1869  38.9891  41.2342  41.6246  42.4823
    43.5359  44.8222  45.2016  45.2182  45.6419  46.3052  47.2805  47.6012
    49.8094  49.8498  50.4007  50.5477  50.5554  51.0292  52.2103  52.3880
    52.7755  53.0432  53.5310  54.1340  54.1958  54.3567

          k = 0.4083 0.4083 0.2978 (  1799 PWs)   bands (ev):

   -35.8523 -35.8518 -35.6624 -35.6608 -35.5956 -35.5952  -5.7882  -5.6524
    -4.8617  -4.7674   5.1171   5.4039   6.4438   6.5305   8.3932   8.8036
     8.8313   9.3983   9.6008   9.9560  10.1228  10.4926  12.6274  13.0259
    13.0363  13.2569  14.4614  14.5991  17.6187  17.9282  18.0667  18.4408
    23.4153  24.1856  24.2297  24.2327  24.4724  25.0938  27.2465  27.3760
    28.9879  29.6736  29.9297  30.6643  33.5725  34.8296  34.8985  36.4657
    36.8135  36.8738  38.9926  39.7480  39.7665  40.9993  41.5689  41.7170
    42.9303  43.3526  44.0102  45.2194  46.0865  46.7748  47.5537  47.7581
    47.9886  48.6847  50.1357  50.8390  51.0201  52.0416  52.1376  52.4565
    52.9387  53.4361  53.7085  54.1510  54.8389  55.0612

          k = 0.4083 0.4083 0.5956 (  1789 PWs)   bands (ev):

   -35.8460 -35.8452 -35.7395 -35.7381 -35.5849 -35.5848  -5.3704  -5.2482
    -5.0560  -4.9351   5.9671   6.0273   6.4643   6.5250   7.1819   7.6205
     8.6986   8.8402   9.7380   9.9731  11.0234  11.3191  12.9232  13.0921
    13.1739  13.7241  13.8967  14.6170  16.7943  17.3655  18.3436  18.8488
    23.9087  24.2308  24.2322  24.3707  24.7599  24.8869  26.6502  26.9057
    27.8328  28.3742  31.7112  31.7414  33.2865  33.8509  34.9740  35.6844
    36.8235  37.5219  37.5439  38.5496  41.8166  41.9148  42.0197  42.1969
    43.3133  44.1209  45.0197  46.0088  46.6886  46.8169  47.2918  47.9533
    47.9725  48.3128  49.0437  49.7492  50.1976  51.0872  51.3509  52.1818
    52.3072  53.3206  53.5881  54.0145  54.4148  54.9149

 ------ SPIN DOWN ----------


          k = 0.0000 0.0000 0.0000 (  1827 PWs)   bands (ev):

   -35.8555 -35.8555 -35.6228 -35.6039 -35.6017 -35.6017  -6.7679  -5.4926
    -4.4428  -4.4428   4.5341   4.7641   6.3732   6.6469   6.6469   9.4953
     9.5107   9.5107  11.0353  11.5604  11.5604  11.8569  12.1503  12.1590
    12.2748  12.2748  12.3278  15.6702  16.0460  18.8073  18.8073  19.0677
    20.8979  23.1802  23.1802  24.2330  24.2332  27.1237  27.7230  27.9527
    30.0687  30.2802  31.6144  31.6144  31.6494  34.0671  36.1852  36.1852
    37.4197  37.4197  37.8755  40.6458  40.6458  41.3133  42.0021  42.2150
    42.9982  43.1828  43.3499  44.8397  44.8397  45.8362  46.3414  46.4374
    46.4374  47.8516  47.8516  48.8374  49.0142  51.5018  52.8573  52.8573
    53.5877  53.6963  54.5106  54.5106  54.8576  55.6237

          k = 0.0000 0.0000 0.2978 (  1807 PWs)   bands (ev):

   -35.8513 -35.8513 -35.6693 -35.6542 -35.5952 -35.5952  -6.3908  -5.3074
    -4.6440  -4.6440   5.1184   5.1624   6.7757   6.7757   6.8040   8.1905
     9.3475   9.9641   9.9641  10.1408  10.1408  11.4567  12.5468  12.6025
    12.8755  13.5995  13.5995  15.6350  16.4874  18.0777  18.0777  19.9230
    20.4185  24.2329  24.2331  24.6549  24.6549  26.8906  27.7801  28.0971
    28.7141  29.7942  30.4263  31.0477  31.0477  34.9588  36.5095  36.5095
    36.7541  37.2216  37.2216  40.2016  40.7701  41.3231  41.3231  41.4684
    42.4522  42.5726  42.5726  42.8874  44.5329  47.5866  47.5866  47.6913
    48.2908  49.1914  49.2732  49.2732  49.7770  51.6380  51.6380  51.8295
    53.8124  53.8771  53.8771  55.5707  56.1435  56.9200

          k = 0.0000 0.0000 0.5956 (  1792 PWs)   bands (ev):

   -35.8447 -35.8447 -35.7420 -35.7366 -35.5846 -35.5846  -5.5995  -5.1479
    -4.9530  -4.9530   5.8646   6.1785   6.9614   7.2439   7.2439   7.7499
     8.0231   8.7836   8.7836   9.7681  10.5174  10.5174  12.8444  13.2619
    13.4600  14.6149  14.7093  14.7093  17.4064  17.4064  17.4599  18.1960
    22.9998  24.2324  24.2333  25.4229  26.9667  26.9667  27.4530  27.5335
    28.5263  29.1179  29.7903  29.7903  30.1431  31.7275  36.0538  36.0538
    37.7905  37.7905  38.4989  39.3866  40.5778  40.7202  41.0811  41.6051
    41.6051  42.5927  42.9848  42.9848  46.1556  47.3568  47.3568  48.6748
    48.6748  50.0106  50.0106  50.3226  50.3864  50.4362  52.5698  53.3305
    53.3305  53.4702  53.5989  53.6370  55.7772  55.7772

          k = 0.0000 0.2042 0.0000 (  1811 PWs)   bands (ev):

   -35.8547 -35.8547 -35.6208 -35.6057 -35.6027 -35.6026  -6.6001  -5.4547
    -4.6741  -4.5466   4.9465   5.0852   6.6602   6.6876   6.7071   8.8670
     8.9539   9.3230  10.3755  10.4730  11.2358  12.1299  12.2603  12.5950
    12.6736  12.9039  12.9310  15.6918  16.3175  18.5446  18.6065  19.6360
    20.5932  23.2188  23.4203  24.2329  24.2335  26.7211  27.6895  27.9054
    29.4035  30.7351  31.7643  32.1459  32.2728  33.9455  34.6885  35.1113
    36.9591  38.0754  38.2172  39.9271  40.6976  41.7409  41.8391  43.0604
    43.1004  43.7666  43.8366  44.0523  44.5683  45.8145  47.0365  47.5396
    47.7526  48.1974  48.6945  48.8452  49.4700  50.8293  52.0459  52.5109
    52.7121  52.9119  53.2794  53.6690  54.2602  55.0277

          k = 0.0000 0.2042 0.2978 (  1802 PWs)   bands (ev):

   -35.8511 -35.8510 -35.6677 -35.6558 -35.5957 -35.5956  -6.2471  -5.2577
    -4.8372  -4.7192   5.4014   5.4443   6.6846   6.7740   7.2887   7.9872
     8.6384   9.3868   9.4730  10.2372  10.4316  11.7555  12.2324  13.0245
    13.1926  13.4175  13.8862  15.3763  16.9494  17.6191  17.8993  19.9662
    20.9305  24.2326  24.2328  24.4626  24.7940  26.7031  27.6986  28.1523
    28.8974  29.6943  30.3654  30.3914  32.4370  34.7437  34.9585  35.3089
    36.7220  37.4725  38.6357  39.8896  40.3098  40.3453  41.0343  41.8115
    42.3686  43.0403  43.7717  44.8695  45.9625  46.8464  47.3161  48.1665
    48.2434  48.6568  49.0238  49.6208  51.1568  51.2469  51.2931  51.7680
    52.5447  53.4833  54.4878  55.3489  55.5471  56.2058

          k = 0.0000 0.2042 0.5956 (  1786 PWs)   bands (ev):

   -35.8457 -35.8455 -35.7406 -35.7363 -35.5846 -35.5845  -5.5908  -5.2817
    -4.9119  -4.8528   5.9401   6.1831   6.3641   6.8982   7.6380   7.7944
     8.4625   8.9048   9.1410   9.9979  10.2961  10.4146  12.9506  13.0009
    13.2996  13.8258  14.8852  15.0250  16.6553  16.8296  18.2955  19.0272
    23.1756  24.2325  24.2332  25.3219  26.1220  26.5354  27.7488  28.0692
    28.7125  28.7446  29.4185  29.8060  31.5731  31.6146  35.3874  35.5992
    37.1011  37.5920  38.5234  39.6140  40.6796  40.6911  41.1303  41.6141
    42.4708  42.6684  43.6751  43.7398  47.0099  47.0789  47.5889  48.3686
    48.6204  48.8512  49.6132  50.2726  50.7015  51.1307  51.7756  52.8451
    53.0764  53.7407  54.4847  54.5051  55.9891  56.5812

          k = 0.0000 0.4083 0.0000 (  1792 PWs)   bands (ev):

   -35.8534 -35.8534 -35.6160 -35.6103 -35.6042 -35.6042  -6.1416  -5.5858
    -4.9608  -4.7860   5.8604   5.8657   6.7751   6.7984   7.5008   7.7878
     7.8321   8.8995   9.2101   9.5801  11.2925  11.6882  12.6971  12.8420
    13.3757  13.5607  13.8948  14.8764  17.7467  18.1315  18.2029  19.2238
    21.3561  22.6836  24.2166  24.2327  24.2683  25.5681  27.8706  28.2810
    28.8908  30.7297  31.9556  32.0811  33.0691  33.3002  33.4477  35.4346
    36.4514  38.3040  39.2532  39.9850  40.6828  40.7588  40.8019  40.8100
    43.9891  44.4722  44.6072  44.7921  46.7266  46.8168  46.9311  47.8784
    48.1109  49.5720  49.7393  49.8926  50.5154  50.7313  50.7514  51.7931
    51.9068  52.4850  52.6056  52.8298  53.9925  54.3775

          k = 0.0000 0.4083 0.2978 (  1802 PWs)   bands (ev):

   -35.8507 -35.8506 -35.6639 -35.6594 -35.5965 -35.5964  -5.8537  -5.3326
    -5.0921  -4.9009   6.0653   6.1426   6.7082   6.8172   7.4498   7.7447
     8.2799   8.6058   8.6323   9.5785  11.0319  11.4534  12.6953  13.0726
    13.6073  13.6747  14.3643  14.7989  17.0484  17.1368  18.3309  19.3692
    22.2902  23.6277  24.2328  24.2331  25.3338  26.1379  27.8602  28.3322
    29.0391  29.2700  30.0369  31.0061  32.5068  33.0456  35.0768  35.7905
    36.5163  37.5056  38.8348  39.0213  39.9728  40.3235  41.1080  41.4315
    42.6220  44.7882  45.1232  45.7758  46.1421  46.4178  47.8390  48.1875
    48.3866  49.0038  49.6220  50.0679  51.3652  51.3924  51.4887  51.6501
    53.0364  53.0647  53.6770  55.1430  55.2544  55.5252

          k = 0.0000 0.4083 0.5956 (  1795 PWs)   bands (ev):

   -35.8472 -35.8471 -35.7380 -35.7364 -35.5845 -35.5844  -5.5486  -5.4460
    -4.8280  -4.7882   6.0219   6.0226   6.2210   6.3777   7.8500   8.2620
     8.5433   9.3491   9.4707   9.5599  10.4205  11.1765  11.9990  12.7148
    13.2415  13.3390  15.0862  15.1189  16.1315  16.3008  19.2330  19.6006
    23.7496  24.2325  24.2331  24.6541  25.7678  26.0480  27.8949  28.0706
    28.5753  28.6507  29.5667  30.4560  31.1200  32.4221  34.7508  35.3281
    37.0532  37.5001  38.3831  38.8620  40.6293  40.8335  42.0823  42.1819
    42.3125  42.6433  44.9843  45.5881  45.7333  46.5177  47.6061  47.7538
    48.9318  49.1817  49.5877  50.2997  50.7308  51.2876  51.4566  53.2208
    54.1971  54.3777  55.0731  55.0967  56.1452  56.1613

          k = 0.2042 0.2042 0.0000 (  1808 PWs)   bands (ev):

   -35.8559 -35.8533 -35.6193 -35.6072 -35.6043 -35.6016  -6.4762  -5.4511
    -4.9012  -4.4970   4.6529   5.8953   6.6157   6.7995   6.9265   7.7889
     9.2078   9.3687  10.4321  10.5677  10.7220  11.9130  11.9623  12.2909
    12.8096  13.4620  13.4932  15.5240  16.5009  18.1634  18.8022  19.7943
    20.6848  23.3825  23.5400  24.2328  24.2337  26.2745  27.6272  27.8486
    28.9215  31.1914  31.2373  32.4494  33.7808  33.9015  34.6210  35.0711
    36.1005  37.4668  37.7335  38.8939  40.9529  41.6004  41.7187  43.0631
    43.2203  43.8348  44.0065  45.0091  45.9808  46.0807  47.4955  47.6992
    48.1462  48.3352  49.0349  49.3373  49.6694  50.6023  51.0930  51.4376
    52.2970  52.7647  54.0681  54.4396  54.7093  55.3262

          k = 0.2042 0.2042 0.2978 (  1803 PWs)   bands (ev):

   -35.8517 -35.8505 -35.6665 -35.6569 -35.5964 -35.5952  -6.1379  -5.2092
    -5.0507  -4.6922   5.1326   6.1014   6.5245   6.8941   7.5263   7.6620
     8.5859   8.8644   9.7089  10.0610  10.7143  11.6488  12.2434  12.6597
    13.1646  13.8572  14.0910  15.1981  16.9794  17.3608  18.0773  19.7457
    21.4825  24.2322  24.2328  24.5767  24.6459  26.4325  27.3190  27.9122
    28.9380  29.7364  30.3332  31.6429  32.1929  33.3303  35.5352  35.6897
    36.9210  37.0202  38.3277  39.5655  40.5075  40.6123  41.0466  41.2707
    42.4698  43.9048  44.5989  45.1316  46.4578  46.7591  47.0612  47.9305
    48.4582  48.4642  49.6684  50.5002  50.5852  51.0590  51.6161  52.0183
    52.1147  52.7291  53.9492  54.4354  55.3790  56.8782

          k = 0.2042 0.2042 0.5956 (  1796 PWs)   bands (ev):

   -35.8471 -35.8449 -35.7406 -35.7359 -35.5847 -35.5844  -5.5758  -5.2692
    -4.9930  -4.7890   6.0153   6.1798   6.2350   6.8022   7.1217   8.3948
     8.5744   8.9180   9.2785   9.9319  10.1780  10.7814  12.6567  13.0290
    13.3229  14.0562  14.1821  15.3030  16.1375  17.3911  18.1031  19.3125
    23.3189  24.2325  24.2331  25.2784  26.1026  26.1750  26.5765  27.3984
    28.4881  29.9275  29.9551  30.4668  31.4309  32.2957  34.9334  35.1688
    36.7556  37.4940  38.0187  40.0533  40.2852  41.3276  41.8712  42.2544
    42.6206  42.8488  43.9834  44.3914  46.7406  46.9209  47.2265  48.4332
    48.5727  48.7506  49.2735  50.0888  50.6439  50.7124  51.8289  52.5543
    53.3098  54.3122  54.4817  54.8650  55.4563  56.4033

          k = 0.2042 0.4083 0.0000 (  1800 PWs)   bands (ev):

   -35.8553 -35.8537 -35.6155 -35.6109 -35.6042 -35.6025  -6.1409  -5.7059
    -4.9049  -4.6578   5.0087   5.8555   6.6529   6.7677   7.6478   7.9178
     8.7183   9.3657   9.4882   9.9352  10.7502  11.3443  12.4041  12.7811
    12.7951  13.4807  14.2464  14.9878  17.4501  18.1625  18.5714  18.7834
    21.9094  23.0441  24.2141  24.2327  24.2595  25.3650  27.4661  27.7756
    28.8446  30.2508  32.3858  33.3537  33.5213  33.7824  34.1998  35.3058
    35.8281  36.8320  38.2379  38.9538  40.0767  40.5494  41.2896  41.9184
    44.0043  44.7042  44.7171  45.3856  45.9134  47.1520  47.3736  47.9566
    49.3273  49.5045  49.9907  50.1955  50.5515  50.6950  50.9307  51.6154
    51.7357  52.8471  53.3404  53.3439  53.8926  55.4601

          k = 0.2042 0.4083 0.2978 (  1793 PWs)   bands (ev):

   -35.8515 -35.8508 -35.6635 -35.6597 -35.5964 -35.5956  -5.8449  -5.4575
    -5.0191  -4.8161   5.4119   6.1071   6.5658   6.6997   7.6762   8.1290
     8.5204   8.7820   9.2806   9.6941  10.7033  11.1139  12.7744  12.9531
    13.1947  13.7778  14.3493  14.7477  17.0933  17.5919  18.1756  19.0718
    22.6519  23.8108  24.2329  24.2332  25.1251  25.8460  27.2875  27.6954
    29.0529  29.4874  30.5300  31.3480  32.3267  33.3942  35.0845  36.4289
    36.7380  37.2882  38.5669  38.8202  40.0519  40.8837  40.9805  41.8352
    42.6694  44.0105  44.5908  45.3272  46.5959  46.9474  47.4021  47.9494
    49.1455  49.5340  49.7541  50.4355  50.8675  51.0828  51.5592  51.9852
    52.7655  53.0305  53.7972  54.1121  54.5250  55.4800

          k = 0.2042 0.4083 0.5956 (  1800 PWs)   bands (ev):

   -35.8473 -35.8459 -35.7390 -35.7366 -35.5847 -35.5845  -5.5042  -5.3711
    -4.9244  -4.8108   5.9832   6.0224   6.3188   6.4751   7.3830   8.0906
     8.7739   9.0527   9.4375   9.8856  10.6180  11.2778  12.2402  13.0222
    13.1671  13.3106  14.6288  15.0954  16.1973  16.8139  18.8627  19.4098
    23.7790  24.2321  24.2332  24.6537  25.3921  25.7470  26.6121  27.1366
    28.3993  29.3259  30.5710  31.2023  31.7437  33.1437  34.5072  35.4830
    36.7147  37.4494  37.7802  38.9597  40.9389  41.2810  42.2121  42.4557
    43.3643  43.9902  44.3925  44.8298  46.3259  46.7181  47.2950  47.8173
    48.1246  48.8035  49.4545  50.4060  50.7125  51.4259  51.9149  52.0269
    52.9925  53.7019  54.4329  54.5246  55.3467  56.0735

          k = 0.4083 0.4083 0.0000 (  1798 PWs)   bands (ev):

   -35.8566 -35.8557 -35.6141 -35.6124 -35.6024 -35.6015  -6.0869  -5.9291
    -4.7067  -4.5813   4.6511   5.0030   6.5658   6.6263   8.3468   8.9937
     9.1250   9.9000   9.9152  10.2277  10.3100  10.9373  11.9245  12.3180
    12.3932  12.8117  14.7609  15.0215  17.3396  17.9043  18.5655  18.7926
    22.9272  23.6079  24.1239  24.2322  24.2395  24.8110  26.8978  27.0235
    29.4435  30.2736  33.3778  33.5872  33.6256  33.8020  34.6716  35.0007
    35.9792  36.4013  37.2736  38.1869  38.9891  41.2342  41.6246  42.4823
    43.5359  44.8222  45.2016  45.2182  45.6419  46.3052  47.2805  47.6012
    49.8094  49.8498  50.4007  50.5477  50.5554  51.0292  52.2103  52.3880
    52.7755  53.0432  53.5310  54.1340  54.1958  54.3567

          k = 0.4083 0.4083 0.2978 (  1799 PWs)   bands (ev):

   -35.8523 -35.8518 -35.6624 -35.6608 -35.5956 -35.5952  -5.7882  -5.6524
    -4.8617  -4.7674   5.1171   5.4039   6.4438   6.5305   8.3932   8.8036
     8.8313   9.3983   9.6008   9.9560  10.1228  10.4926  12.6274  13.0259
    13.0363  13.2569  14.4614  14.5991  17.6187  17.9282  18.0667  18.4408
    23.4153  24.1856  24.2297  24.2327  24.4724  25.0938  27.2465  27.3760
    28.9879  29.6736  29.9297  30.6643  33.5725  34.8296  34.8985  36.4657
    36.8135  36.8738  38.9926  39.7480  39.7665  40.9993  41.5689  41.7170
    42.9303  43.3526  44.0102  45.2194  46.0865  46.7748  47.5537  47.7581
    47.9886  48.6847  50.1357  50.8390  51.0201  52.0416  52.1376  52.4565
    52.9387  53.4361  53.7085  54.1510  54.8389  55.0612

          k = 0.4083 0.4083 0.5956 (  1789 PWs)   bands (ev):

   -35.8460 -35.8452 -35.7395 -35.7381 -35.5849 -35.5848  -5.3704  -5.2482
    -5.0560  -4.9351   5.9671   6.0273   6.4643   6.5250   7.1819   7.6205
     8.6986   8.8402   9.7380   9.9731  11.0234  11.3191  12.9232  13.0921
    13.1739  13.7241  13.8967  14.6170  16.7943  17.3655  18.3436  18.8488
    23.9087  24.2308  24.2322  24.3707  24.7599  24.8869  26.6502  26.9057
    27.8328  28.3742  31.7112  31.7414  33.2865  33.8509  34.9740  35.6844
    36.8235  37.5219  37.5439  38.5496  41.8166  41.9148  42.0197  42.1969
    43.3133  44.1209  45.0197  46.0088  46.6886  46.8169  47.2918  47.9533
    47.9725  48.3128  49.0437  49.7492  50.1976  51.0872  51.3509  52.1818
    52.3072  53.3206  53.5881  54.0145  54.4148  54.9149

     the Fermi energy is    14.7120 ev

!    total energy              =    -501.25814811 Ry
     Harris-Foulkes estimate   =    -501.25813640 Ry
     estimated scf accuracy    <       0.00000076 Ry

     The total energy is the sum of the following terms:

     one-electron contribution =     -94.97839423 Ry
     hartree contribution      =      86.24965909 Ry
     xc contribution           =    -138.43867671 Ry
     ewald contribution        =    -354.09044470 Ry
     smearing contrib. (-TS)   =      -0.00029155 Ry

     total magnetization       =    -0.00 Bohr mag/cell
     absolute magnetization    =     0.00 Bohr mag/cell

     convergence has been achieved in   5 iterations

     Forces acting on atoms (Ry/au):


     negative rho (up, down):  0.389E+00 0.389E+00
     atom    1 type  1   force =     0.00000000    0.00000000   -0.00000000
     atom    2 type  1   force =     0.00000000    0.00000000    0.00000000
     atom    3 type  2   force =     0.02682416    0.02682416   -0.00000000
     atom    4 type  2   force =    -0.02682416   -0.02682416   -0.00000000
[...]
    36.8829  36.9012  38.8582  39.5643  39.8321  40.8424  41.2561  41.3741
    42.6026  43.3140  44.1800  45.7937  45.9875  46.5778  47.4847  47.5555
    48.2100  48.7924  50.0954  50.5467  50.9592  51.9408  52.6275  53.0532
    53.3198  53.4815  54.0187  54.3080  54.8642  55.2000

          k = 0.4129 0.4129 0.5825 (  1805 PWs)   bands (ev):

   -35.8266 -35.8182 -35.8134 -35.8048 -35.5327 -35.5327  -5.3389  -5.2736
    -5.0173  -4.9731   5.9665   6.0577   6.4816   6.5408   7.1988   7.5916
     9.0033   9.0102   9.8894  10.1261  10.9048  11.2605  12.8049  12.9034
    12.9036  13.6442  14.0263  14.6493  16.6340  17.1536  18.1364  18.6463
    23.8747  24.2209  24.2216  24.3127  24.8693  25.0140  26.2829  26.5837
    27.9825  28.6160  31.5617  31.5999  33.7194  34.2823  35.4467  36.0875
    36.9131  37.2773  37.3010  38.8647  41.4475  41.7341  41.7725  41.9023
    42.9762  43.8016  45.3415  46.3527  46.7736  46.9459  47.5274  47.8271
    48.2269  48.3641  49.4094  49.7453  50.3697  51.0707  51.5482  51.9306
    52.1904  53.1130  53.2234  54.0866  54.6223  55.1680

 ------ SPIN DOWN ----------


          k = 0.0000 0.0000 0.0000 (  1783 PWs)   bands (ev):

   -35.8214 -35.8214 -35.7218 -35.7019 -35.5459 -35.5459  -6.8172  -5.5741
    -4.3651  -4.3651   4.5717   4.7838   6.4302   6.4302   6.5122   9.3101
     9.6507   9.6507  10.9283  11.6294  11.6294  12.0335  12.1829  12.1829
    12.2369  12.3062  12.4864  15.6318  15.9918  19.0485  19.0485  19.1320
    20.6406  23.2013  23.2013  24.2224  24.2226  26.8965  27.9904  28.2698
    29.8031  30.3110  31.2288  31.6253  31.6253  33.3337  36.4502  36.4502
    37.8806  37.8806  37.9135  40.1514  40.1514  41.3840  41.4044  42.4845
    42.5553  43.0527  43.4754  44.2455  44.2455  45.7895  46.3404  46.3404
    46.7802  47.8844  48.2905  48.2905  49.7530  50.7324  52.6097  52.6097
    52.9124  53.6405  55.0080  55.0080  55.2080  56.0802

          k = 0.0000 0.0000 0.2913 (  1808 PWs)   bands (ev):

   -35.8182 -35.8182 -35.7605 -35.7448 -35.5407 -35.5407  -6.4362  -5.3743
    -4.5812  -4.5812   5.1116   5.1662   6.7267   6.7267   6.9286   8.0917
     9.3248   9.8917   9.8917  10.3325  10.3325  11.4915  12.6089  12.6866
    12.8771  13.6017  13.6017  15.5805  16.4383  18.1557  18.1557  19.4785
    20.5326  24.2222  24.2226  24.5753  24.5753  26.5223  28.1105  28.1477
    28.9039  29.5939  30.6191  30.9783  30.9783  34.3999  36.8552  36.8552
    36.8726  37.3636  37.3636  39.7553  41.1355  41.1377  41.1377  42.1471
    42.2597  42.2597  42.7837  42.9268  44.1767  46.8614  47.8962  47.8962
    47.9856  48.9449  48.9449  49.3843  49.6480  51.6579  51.7017  51.7017
    54.0140  54.0140  54.2365  54.5861  56.0465  57.3417

          k = 0.0000 0.0000 0.5825 (  1800 PWs)   bands (ev):

   -35.8212 -35.8151 -35.8127 -35.8127 -35.5322 -35.5322  -5.6356  -5.1885
    -4.9080  -4.9080   5.8728   6.1931   6.8482   7.3097   7.3097   7.7004
     8.1111   9.0623   9.0623   9.8166  10.5006  10.5006  12.5883  12.9034
    13.4442  14.5735  14.7757  14.7757  17.1990  17.1990  17.4123  18.0163
    22.9536  24.2218  24.2227  25.1915  26.6282  26.6282  27.5498  27.6248
    28.5975  29.1530  29.6438  29.6438  31.0063  32.4423  36.2946  36.2946
    37.7740  37.7740  37.9460  39.4089  40.9226  41.1060  41.6196  41.6196
    41.7740  42.1452  43.0050  43.0050  45.5242  47.2876  47.2876  48.9022
    48.9022  50.0380  50.0380  50.1917  50.3077  50.3979  52.4871  52.4871
    52.7262  52.8676  53.0381  53.2680  55.6928  55.6928

          k = 0.0000 0.2064 0.0000 (  1803 PWs)   bands (ev):

   -35.8209 -35.8208 -35.7199 -35.7038 -35.5468 -35.5468  -6.6515  -5.5517
    -4.5801  -4.4718   4.9814   5.1036   6.4633   6.4810   6.7951   9.0326
     9.1589   9.1751  10.2963  10.5936  11.2373  12.0806  12.4457  12.5416
    12.7851  12.8844  12.9269  15.6467  16.3146  18.8115  18.8668  19.8034
    20.2811  23.2043  23.4130  24.2223  24.2230  26.5349  27.9382  28.1116
    29.7319  30.2640  31.6988  31.7093  32.4433  33.2505  34.8515  35.4036
    37.2699  37.7941  38.4983  39.7538  40.1110  41.1357  42.3800  42.5601
    43.1492  43.2688  44.0809  44.0944  44.2960  45.7607  46.8754  47.6731
    47.9149  48.0865  48.3379  49.2197  49.7956  50.1929  51.9408  52.4608
    52.4987  52.9316  53.6854  53.8613  54.4183  55.2485

          k = 0.0000 0.2064 0.2913 (  1808 PWs)   bands (ev):

   -35.8185 -35.8183 -35.7583 -35.7458 -35.5413 -35.5413  -6.2899  -5.3305
    -4.7712  -4.6650   5.4237   5.4613   6.6755   6.7292   7.3470   7.9027
     8.5976   9.5413   9.5979  10.2756  10.3690  11.7512  12.2365  13.1356
    13.1942  13.4234  13.8516  15.3181  16.9165  17.6941  17.9889  19.7043
    20.9417  24.2219  24.2222  24.3652  24.6930  26.3737  27.9541  28.1821
    29.1609  29.5874  30.2989  30.4192  32.5157  34.6823  34.9462  35.3051
    36.8117  37.6347  38.8310  39.4084  40.2162  40.4291  41.2853  41.3230
    42.5796  42.8773  44.1734  44.9674  45.7492  46.6944  47.0796  47.6834
    48.3792  48.6511  48.8864  49.6710  50.8372  51.2034  51.5089  51.8440
    52.8772  53.6955  54.4127  55.3270  55.3666  55.9048

          k = 0.0000 0.2064 0.5825 (  1797 PWs)   bands (ev):

   -35.8282 -35.8248 -35.8053 -35.8037 -35.5323 -35.5323  -5.5930  -5.2467
    -4.9082  -4.8909   6.0004   6.2952   6.3436   6.8980   7.7478   7.7754
     8.5929   9.0653   9.2132  10.0594  10.2319  10.3941  12.7654  12.8980
    13.0051  13.8495  14.9294  15.0414  16.5210  16.6940  18.1767  18.8085
    23.1097  24.2219  24.2226  25.0811  25.8727  26.2485  27.7147  28.2070
    28.6662  28.7615  29.8667  29.9831  31.7719  32.2033  35.6923  35.7057
    37.0800  37.3733  38.6136  39.9345  40.4215  40.4332  41.5038  41.7608
    42.3553  42.8686  43.2422  43.8604  46.8420  46.9069  47.6669  48.2824
    48.7247  48.9779  49.6177  50.0734  50.9120  51.0382  51.2330  52.3444
    52.8573  53.7201  53.9763  53.9893  55.5757  56.6788

          k = 0.0000 0.4129 0.0000 (  1777 PWs)   bands (ev):

   -35.8197 -35.8197 -35.7148 -35.7087 -35.5483 -35.5483  -6.2052  -5.6942
    -4.8501  -4.7100   5.8519   5.8533   6.5361   6.5561   7.6355   8.0370
     8.0970   9.0230   9.1187   9.5118  11.2273  11.6211  12.9060  13.0945
    13.1780  13.3501  13.8922  14.8491  17.7697  18.4483  18.5104  19.2334
    21.2745  22.6227  24.1873  24.2221  24.2394  25.4725  28.1565  28.3420
    29.2337  30.9003  31.4751  32.0572  32.7180  32.9896  33.2005  35.0129
    36.7887  38.6447  39.3571  39.7743  39.9322  40.0529  41.1171  41.2650
    43.7387  44.1536  44.2761  44.9101  46.6675  46.7674  46.8710  47.8965
    48.2940  48.9977  49.0791  49.9297  50.8832  50.9648  51.0356  51.8769
    52.0286  52.3293  52.9471  53.5192  54.3105  54.9496

          k = 0.0000 0.4129 0.2913 (  1805 PWs)   bands (ev):

   -35.8189 -35.8187 -35.7534 -35.7488 -35.5423 -35.5423  -5.8920  -5.4030
    -5.0296  -4.8631   6.1517   6.2032   6.6759   6.7714   7.3960   7.7184
     8.4092   8.6579   8.6660   9.6612  10.9720  11.3967  12.7424  13.1348
    13.5480  13.6427  14.2900  14.7323  17.1975  17.2656  18.3067  19.2647
    22.2180  23.5278  24.2222  24.2224  25.1875  25.9108  28.0235  28.4237
    29.0151  29.2291  30.2631  31.0081  32.7811  33.1194  34.9766  35.2425
    36.7154  37.7737  38.6198  38.7265  39.8301  40.2034  41.2214  41.6434
    42.6636  44.5307  45.1808  45.8046  45.8283  46.2183  47.8495  48.1729
    48.2259  48.9767  49.6787  49.8831  51.2484  51.6444  51.8517  52.2344
    52.8973  53.0069  53.6547  54.6752  55.0442  55.2696

          k = 0.0000 0.4129 0.5825 (  1813 PWs)   bands (ev):

   -35.8337 -35.8324 -35.7985 -35.7979 -35.5324 -35.5324  -5.4887  -5.3638
    -4.8999  -4.8845   6.0065   6.0481   6.5255   6.6457   7.8223   8.1414
     8.6353   9.3661   9.4358   9.5752  10.3745  11.1936  11.9955  12.7411
    13.0005  13.0452  15.1064  15.1333  16.0597  16.2112  19.0736  19.3919
    23.6170  24.2219  24.2224  24.4347  25.5414  25.7886  27.8132  28.1632
    28.6640  28.8473  29.9723  31.0130  31.2311  32.6577  35.0107  35.4810
    36.8866  37.2955  38.3751  38.9763  40.5722  40.9140  41.9508  42.1296
    42.5261  42.5536  44.3333  45.3816  45.6720  46.7160  47.6147  47.7612
    49.1603  49.3720  49.8732  49.8939  50.5730  50.7738  51.4280  52.6125
    54.0737  54.4427  55.1201  55.1856  55.8856  55.9709

          k = 0.2064 0.2064 0.0000 (  1792 PWs)   bands (ev):

   -35.8220 -35.8196 -35.7182 -35.7053 -35.5483 -35.5459  -6.5293  -5.5639
    -4.7912  -4.4215   4.6854   5.8816   6.3963   6.5596   7.0564   8.0531
     9.0992   9.5023  10.3171  10.5235  10.9146  11.8836  12.1957  12.1975
    13.0673  13.2894  13.4428  15.4749  16.4902  18.4770  19.0427  19.8588
    20.5229  23.3187  23.5388  24.2222  24.2231  26.1866  27.6584  28.0068
    29.2837  30.7267  31.3169  32.0007  33.2379  33.9139  34.8451  35.3780
    36.2983  37.1881  37.7504  38.6398  40.8818  40.9549  41.9208  42.7591
    43.2967  43.6818  43.9205  44.1022  46.5178  46.6057  47.5321  47.6723
    48.0290  48.3764  48.7054  49.5019  49.8205  50.1519  50.3350  52.1008
    52.4213  52.9487  54.2008  54.4509  55.0040  55.4998

          k = 0.2064 0.2064 0.2913 (  1797 PWs)   bands (ev):

   -35.8187 -35.8185 -35.7571 -35.7466 -35.5422 -35.5407  -6.1805  -5.3052
    -4.9703  -4.6316   5.1353   6.1704   6.4916   6.8554   7.5896   7.6199
     8.6461   8.8057   9.6986  10.2957  10.6814  11.6244  12.2634  12.7151
    13.2436  13.7734  14.0537  15.1378  17.0433  17.3761  18.1608  19.5568
    21.4551  24.2211  24.2222  24.4447  24.5804  26.1945  27.3681  27.8924
    29.2555  29.5982  30.3124  31.6973  32.2678  33.5353  35.2550  35.8229
    36.9849  37.0576  38.5888  39.2718  40.3516  40.5864  40.8880  40.9883
    42.4060  44.2829  44.4534  45.4147  46.1958  46.6314  47.3557  47.5556
    48.2698  48.2897  49.8500  50.3571  50.6251  51.4469  51.4550  51.8570
    52.4386  52.7273  54.0587  54.6985  54.7287  56.6137

          k = 0.2064 0.2064 0.5825 (  1799 PWs)   bands (ev):

   -35.8329 -35.8184 -35.8130 -35.7979 -35.5324 -35.5323  -5.5502  -5.2590
    -4.9505  -4.8736   6.0292   6.1480   6.4803   6.8381   7.1764   8.2480
     8.7948   9.0926   9.3236   9.8170  10.2761  10.7901  12.6206  12.7592
    13.0239  14.0135  14.2857  15.3145  16.0798  17.1820  17.9476  19.1342
    23.2524  24.2219  24.2226  25.0673  25.9224  25.9728  26.5256  27.1940
    28.8672  29.9409  30.2282  30.9471  31.4743  32.6720  35.1529  35.2423
    36.7527  37.5277  38.1293  39.6802  40.6995  41.0246  41.8488  41.9528
    42.7064  43.1319  43.9293  44.3357  46.8481  46.9510  47.1370  48.0532
    48.6060  49.0174  49.4639  49.9764  50.5203  50.5649  51.5781  51.9482
    53.2530  54.0540  54.1830  54.6554  55.4112  56.1765

          k = 0.2064 0.4129 0.0000 (  1786 PWs)   bands (ev):

   -35.8215 -35.8200 -35.7142 -35.7093 -35.5483 -35.5468  -6.2019  -5.7935
    -4.8137  -4.5827   5.0413   5.8531   6.4248   6.5253   7.7849   8.1324
     8.8746   9.2781   9.6800   9.8325  10.7346  11.3255  12.6383  12.6554
    13.0215  13.2753  14.2020  14.9395  17.4559  18.4755  18.7852  18.8344
    21.8432  22.9731  24.1816  24.2220  24.2351  25.3111  27.5467  27.8172
    29.1346  30.3897  31.9078  32.8322  33.0067  33.8665  34.3893  34.8621
    36.1822  37.0338  38.4948  38.5363  39.5220  41.0167  41.2929  41.9436
    43.8469  43.9657  44.5421  44.9931  46.2469  47.1783  47.1829  47.5952
    49.6318  49.7471  49.7644  49.9297  50.3309  50.9724  51.3466  51.5358
    51.9507  52.9248  53.2311  53.8189  54.2595  56.1717

          k = 0.2064 0.4129 0.2913 (  1794 PWs)   bands (ev):

   -35.8191 -35.8189 -35.7536 -35.7495 -35.5422 -35.5413  -5.8877  -5.5105
    -4.9756  -4.7655   5.4365   6.1887   6.5105   6.6347   7.6511   8.1465
     8.5572   8.8180   9.4082   9.8406  10.6291  11.0579  12.8136  12.9928
    13.2625  13.7010  14.2797  14.6786  17.2351  17.6178  18.1800  18.9796
    22.5775  23.7143  24.2222  24.2225  25.0210  25.7156  27.1896  27.6339
    29.2186  29.4771  30.5188  31.4970  32.4428  33.4558  35.1901  36.1279
    36.9107  37.3963  38.5231  38.7349  39.8630  40.4948  41.1282  41.6191
    42.7804  43.8858  44.5218  45.4367  46.3608  46.6380  47.4489  47.9603
    48.9433  49.8516  49.9433  50.6108  50.8540  51.2716  51.6300  52.1415
    52.5927  53.3328  53.5629  54.1280  54.3633  55.7715

          k = 0.2064 0.4129 0.5825 (  1805 PWs)   bands (ev):

   -35.8330 -35.8267 -35.8048 -35.7982 -35.5325 -35.5325  -5.4442  -5.3271
    -4.9507  -4.9020   5.9804   6.0839   6.5022   6.6059   7.3937   8.0383
     8.8951   9.0897   9.5246   9.9587  10.5378  11.2805  12.1999  12.8876
    13.0219  13.0888  14.6578  15.1121  16.1178  16.6541  18.6688  19.2195
    23.6986  24.2216  24.2225  24.5363  25.2823  25.7024  26.3428  26.9287
    28.7612  29.7900  30.5883  31.2125  32.0384  33.4125  34.8520  35.6561
    36.7033  37.3743  37.6811  39.1474  40.6784  41.0300  42.1028  42.4728
    43.2974  43.8553  44.2783  44.7492  46.2955  46.9710  47.3180  47.9070
    48.2865  49.0633  49.4272  50.1363  50.5595  51.2528  51.6983  51.9454
    52.9019  53.7284  54.1746  54.5626  55.3388  55.9660

          k = 0.4129 0.4129 0.0000 (  1772 PWs)   bands (ev):

   -35.8228 -35.8219 -35.7126 -35.7108 -35.5467 -35.5458  -6.1459  -5.9944
    -4.6319  -4.5089   4.6895   5.0403   6.3425   6.3962   8.4428   9.0636
     9.2912   9.7878  10.0067  10.1708  10.3401  11.1090  12.1750  12.2248
    12.6366  12.6715  14.6886  14.9497  17.3195  17.8930  18.8289  19.0331
    22.8509  23.5522  24.0530  24.2215  24.2268  24.7703  26.9259  27.0560
    29.5847  30.3628  32.8929  33.0684  33.1432  33.9711  34.4689  34.7979
    36.3217  36.7093  37.0375  37.8363  39.4047  41.6132  41.6847  42.4688
    44.0561  44.6405  44.6834  45.2761  45.4232  45.8346  46.7007  47.0336
    49.6575  49.9386  50.0104  50.6418  50.7747  51.1632  52.3080  52.3457
    53.2050  53.7478  53.7966  54.0006  54.4437  54.5818

          k = 0.4129 0.4129 0.2913 (  1789 PWs)   bands (ev):

   -35.8193 -35.8192 -35.7532 -35.7514 -35.5413 -35.5408  -5.8367  -5.7017
    -4.8121  -4.7102   5.1240   5.4302   6.3801   6.4601   8.3511   8.7884
     8.8856   9.5399   9.7648  10.0021  10.1184  10.5070  12.6851  13.0576
    13.1135  13.2323  14.3839  14.5228  17.6513  17.8401  18.1542  18.3854
    23.3302  24.1129  24.2172  24.2220  24.3815  25.0247  27.0712  27.2693
    29.0701  29.5938  29.8782  30.6751  33.7645  34.8364  35.1619  36.6550
    36.8829  36.9012  38.8582  39.5643  39.8321  40.8424  41.2561  41.3741
    42.6026  43.3140  44.1800  45.7937  45.9875  46.5778  47.4847  47.5555
    48.2100  48.7924  50.0954  50.5467  50.9592  51.9408  52.6275  53.0532
    53.3198  53.4815  54.0187  54.3080  54.8642  55.2000

          k = 0.4129 0.4129 0.5825 (  1805 PWs)   bands (ev):

   -35.8266 -35.8182 -35.8134 -35.8048 -35.5327 -35.5327  -5.3389  -5.2736
    -5.0173  -4.9731   5.9665   6.0577   6.4816   6.5408   7.1988   7.5916
     9.0033   9.0102   9.8894  10.1261  10.9048  11.2605  12.8049  12.9034
    12.9036  13.6442  14.0263  14.6493  16.6340  17.1536  18.1364  18.6463
    23.8747  24.2209  24.2216  24.3127  24.8693  25.0140  26.2829  26.5837
    27.9825  28.6160  31.5617  31.5999  33.7194  34.2823  35.4467  36.0875
    36.9131  37.2773  37.3010  38.8647  41.4475  41.7341  41.7725  41.9023
    42.9762  43.8016  45.3415  46.3527  46.7736  46.9459  47.5274  47.8271
    48.2269  48.3641  49.4094  49.7453  50.3697  51.0707  51.5482  51.9306
    52.1904  53.1130  53.2234  54.0866  54.6223  55.1680

     the Fermi energy is    14.6888 ev

!    total energy              =    -501.26638930 Ry
     Harris-Foulkes estimate   =    -501.26638511 Ry
     estimated scf accuracy    <          7.6E-09 Ry

     The total energy is the sum of the following terms:

     one-electron contribution =     -93.95810825 Ry
     hartree contribution      =      85.73129619 Ry
     xc contribution           =    -138.40851315 Ry
     ewald contribution        =    -354.63027031 Ry
     smearing contrib. (-TS)   =      -0.00079378 Ry

     total magnetization       =    -0.00 Bohr mag/cell
     absolute magnetization    =     0.00 Bohr mag/cell

     convergence has been achieved in   9 iterations

     Forces acting on atoms (Ry/au):


     negative rho (up, down):  0.390E+00 0.390E+00
     atom    1 type  1   force =     0.00000000    0.00000000    0.00000000
     atom    2 type  1   force =     0.00000000    0.00000000    0.00000000
     atom    3 type  2   force =    -0.00007148   -0.00007148    0.00000000
     atom    4 type  2   force =     0.00007148    0.00007148    0.00000000
     atom    5 type  2   force =    -0.00007148    0.00007148   -0.00000000
     atom    6 type  2   force =     0.00007148   -0.00007148    0.00000000

     Total force =     0.000202     Total SCF correction =     0.000025
     SCF correction compared to forces is large: reduce conv_thr to get better values


     entering subroutine stress ...


     negative rho (up, down):  0.390E+00 0.390E+00
          total   stress  (Ry/bohr**3)                   (kbar)     P=  124.19
   0.00083109   0.00000000   0.00000000        122.26      0.00      0.00
   0.00000000   0.00083109   0.00000000          0.00    122.26      0.00
   0.00000000   0.00000000   0.00087053          0.00      0.00    128.06


     init_run     :     18.86s CPU     19.31s WALL (       2 calls)
     electrons    :    896.33s CPU    943.04s WALL (       7 calls)
     update_pot   :     21.50s CPU     21.68s WALL (       5 calls)
     forces       :     59.36s CPU     59.56s WALL (       7 calls)
     stress       :    147.31s CPU    147.85s WALL (       7 calls)

     Called by init_run:
     wfcinit      :      9.45s CPU      9.64s WALL (       2 calls)
     potinit      :      1.67s CPU      1.69s WALL (       2 calls)

     Called by electrons:
     c_bands      :    718.86s CPU    742.57s WALL (      41 calls)
     sum_band     :    111.74s CPU    113.17s WALL (      41 calls)
     v_of_rho     :      9.71s CPU      9.82s WALL (      47 calls)
     newd         :     64.85s CPU     65.26s WALL (      47 calls)
     mix_rho      :      0.91s CPU      0.92s WALL (      41 calls)

     Called by c_bands:
     init_us_2    :      4.46s CPU      4.52s WALL (    3528 calls)
     cegterg      :    704.98s CPU    728.63s WALL (    1476 calls)

     Called by *egterg:
     h_psi        :    314.66s CPU    325.37s WALL (    4621 calls)
     s_psi        :     25.14s CPU     25.19s WALL (    4621 calls)
     g_psi        :      1.96s CPU      1.97s WALL (    3073 calls)
     cdiaghg      :    200.82s CPU    201.58s WALL (    4333 calls)

     Called by h_psi:
     add_vuspsi   :     25.37s CPU     25.44s WALL (    4621 calls)

     General routines
     calbec       :     44.72s CPU     48.17s WALL (    6601 calls)
     fft          :      7.96s CPU      8.05s WALL (    1703 calls)
     ffts         :      0.11s CPU      0.12s WALL (     176 calls)
     fftw         :    255.49s CPU    263.20s WALL (  679944 calls)
     interpolate  :      1.00s CPU      1.01s WALL (     176 calls)

     Parallel routines
     fft_scatter  :     81.66s CPU     83.28s WALL (  681823 calls)

     PWSCF        : 19m10.85s CPU    19m59.30s WALL


   This run was terminated on:  16:16: 6  24Jan2014            

=------------------------------------------------------------------------------=
   JOB DONE.
=------------------------------------------------------------------------------=
---------------------------------------
Running PBS batch system epilogue script
Job id: 251955.audhumbla.fysik.dtu.dk
Username: zhonxu
Groupname: campgst
Jobname: IrO2/fine-EOS/non-mag/IrO2-v-0.95
Sessionid: 24692
Resources limits: neednodes=1:ppn=4:opteron4,nodes=1:ppn=4:opteron4,walltime=18:00:00
Resources used: cput=01:19:26,mem=330852kb,vmem=1217712kb,walltime=00:20:02
Queuename: verylong
Accounting:
This job has allocated the following 4 nodes:
q021 q021 q021 q021
Finished epilogue job 251955.audhumbla.fysik.dtu.dk for zhonxu
