ScientificPython/2.8-dl160g6-numpy-1.7.1-1(15):ERROR:151: Module 'ScientificPython/2.8-dl160g6-numpy-1.7.1-1' depends on one of the module(s) 'numpy/1.7.1-dl160g6-gfortran-internal-1'
ScientificPython/2.8-dl160g6-numpy-1.7.1-1(15):ERROR:102: Tcl command execution failed: prereq numpy/1.7.1-dl160g6-gfortran-internal-1


     Program PWSCF v.5.0.2 (svn rev. 9656) starts on  9May2014 at 18:44:49 

     This program is part of the open-source Quantum ESPRESSO suite
     for quantum simulation of materials; please cite
         "P. Giannozzi et al., J. Phys.:Condens. Matter 21 395502 (2009);
          URL http://www.quantum-espresso.org", 
     in publications or presentations arising from this work. More details at
     http://www.quantum-espresso.org/quote.php

     Parallel version (MPI), running on    16 processors
     K-points division:     npool     =       4
     R & G space division:  proc/nbgrp/npool/nimage =       4

     Current dimensions of program PWSCF are:
     Max number of different atomic species (ntypx) = 10
     Max number of k-points (npk) =  40000
     Max angular momentum in pseudopotentials (lmaxx) =  3
     Reading input from pwscf.in
Warning: card &CELL ignored
Warning: card / ignored

     Subspace diagonalization in iterative solution of the eigenvalue problem:
     a serial algorithm will be used


     Parallelization info
     --------------------
     sticks:   dense  smooth     PW     G-vecs:    dense   smooth      PW
     Min        1274     408    116               299662    54238    8133
     Max        1275     409    117               299663    54251    8135
     Sum        5097    1635    467              1198649   216969   32535



     bravais-lattice index     =            0
     lattice parameter (alat)  =      10.9604  a.u.
     unit-cell volume          =    6350.6732 (a.u.)^3
     number of atoms/cell      =           30
     number of atomic types    =            3
     number of electrons       =       224.00 (up: 120.00, down: 104.00)
     number of Kohn-Sham states=          324
     kinetic-energy cutoff     =      40.0000  Ry
     charge density cutoff     =     500.0000  Ry
     convergence threshold     =      1.0E-06
     mixing beta               =       0.7000
     number of iterations used =            8  plain     mixing
     Exchange-correlation      = SLA  PW   PBE  PBE ( 1 4 3 4 0)
     EXX-fraction              =        0.00
     nstep                     =           50


     celldm(1)=  10.960412  celldm(2)=   0.000000  celldm(3)=   0.000000
     celldm(4)=   0.000000  celldm(5)=   0.000000  celldm(6)=   0.000000

     crystal axes: (cart. coord. in units of alat)
               a(1) = (   1.000000   0.000000   0.000000 )  
               a(2) = (   0.000000   1.067975   0.000000 )  
               a(3) = (   0.000000   0.000000   4.516251 )  

     reciprocal axes: (cart. coord. in units 2 pi/alat)
               b(1) = (  1.000000  0.000000  0.000000 )  
               b(2) = (  0.000000  0.936351  0.000000 )  
               b(3) = (  0.000000  0.000000  0.221423 )  


     PseudoPot. # 1 for O  read from file:
     /home/camp/zhonxu/pseudo/o_pbe_v1.01.uspp.F.UPF
     MD5 check sum: 2bcb18d16ea4b960afae9ec6d52f22d2
     Pseudo is Ultrasoft + core correction, Zval =  6.0
     Generated by new atomic code, or converted to UPF format
     Using radial grid of  737 points,  5 beta functions with: 
                l(1) =   0
                l(2) =   0
                l(3) =   1
                l(4) =   1
                l(5) =   2
     Q(r) pseudized with  8 coefficients,  rinner =    0.900   0.900   0.900
                                                       0.900   0.900

     PseudoPot. # 2 for Cr read from file:
     /home/camp/zhonxu/pseudo/cr_pbe_v1.uspp.F.UPF
     MD5 check sum: 68b6f918d1762dccfb11451fe85b0e0e
     Pseudo is Ultrasoft + core correction, Zval = 14.0
     Generated by new atomic code, or converted to UPF format
     Using radial grid of  857 points,  6 beta functions with: 
                l(1) =   0
                l(2) =   0
                l(3) =   1
                l(4) =   1
                l(5) =   2
                l(6) =   2
     Q(r) pseudized with  6 coefficients,  rinner =    1.000   1.000   1.000
                                                       1.000   1.000

     PseudoPot. # 3 for H  read from file:
     /home/camp/zhonxu/pseudo/h_pbe_v1.uspp.F.UPF
     MD5 check sum: 3408e3ff4ec8b0a4e358431e7e038a48
     Pseudo is Ultrasoft, Zval =  1.0
     Generated by new atomic code, or converted to UPF format
     Using radial grid of  615 points,  2 beta functions with: 
                l(1) =   0
                l(2) =   0
     Q(r) pseudized with  8 coefficients,  rinner =    0.700

     atomic species   valence    mass     pseudopotential
        O0             6.00    15.99940     O ( 1.00)
        Cr1           14.00    51.99600     Cr( 1.00)
        H2             1.00     1.00794     H ( 1.00)

     Starting magnetic structure 
     atomic species   magnetization
        O0           0.000
        Cr1          0.600
        H2           0.000


     Simplified LDA+U calculation (l_max = 2) with parameters (eV):
     atomic species    L          U    alpha       J0     beta
        Cr1            2     0.5000   0.0000   0.0000   0.0000



     No symmetry found



   Cartesian axes

     site n.     atom                  positions (alat units)
         1           O0  tau(   1) = (   0.0000000   0.0000000   1.7181625  )
         2           O0  tau(   2) = (   0.0000000   0.5339875   1.8008551  )
         3           Cr1 tau(   3) = (   0.2500000   0.5339875   2.0300096  )
         4           Cr1 tau(   4) = (   0.0000000   0.0000000   2.0413454  )
         5           O0  tau(   5) = (   0.2500000   0.8543801   2.0369195  )
         6           O0  tau(   6) = (   0.2500000   0.2135950   2.0378227  )
         7           O0  tau(   7) = (   0.0000000   0.5339875   2.2471058  )
         8           O0  tau(   8) = (   0.0000000   0.0000000   2.3700833  )
         9           Cr1 tau(   9) = (   0.2500000   0.0000000   2.6079543  )
        10           Cr1 tau(  10) = (   0.0000000   0.5339875   2.5535334  )
        11           O0  tau(  11) = (   0.2500000   0.7475825   2.5983798  )
        12           O0  tau(  12) = (   0.2500000   0.3203925   2.5982895  )
        13           O0  tau(  13) = (   0.0000000   0.0000000   2.7910882  )
        14           O0  tau(  14) = (   0.5000000   0.0000000   1.7181625  )
        15           O0  tau(  15) = (   0.5000000   0.5339875   1.8008551  )
        16           Cr1 tau(  16) = (   0.7500000   0.5339875   2.0300096  )
        17           Cr1 tau(  17) = (   0.5000000   0.0000000   2.0413454  )
        18           O0  tau(  18) = (   0.7500000   0.8543801   2.0369195  )
        19           O0  tau(  19) = (   0.7500000   0.2135950   2.0378227  )
        20           O0  tau(  20) = (   0.5000000   0.5339875   2.2471058  )
        21           O0  tau(  21) = (   0.5000000   0.0000000   2.3700833  )
        22           Cr1 tau(  22) = (   0.7500000   0.0000000   2.6079543  )
        23           Cr1 tau(  23) = (   0.5000000   0.5339875   2.5535334  )
        24           O0  tau(  24) = (   0.7500000   0.7475825   2.5983798  )
        25           O0  tau(  25) = (   0.7500000   0.3203925   2.5982895  )
        26           O0  tau(  26) = (   0.5000000   0.0000000   2.7910882  )
        27           H2  tau(  27) = (  -0.0006900   0.6851274   1.7196980  )
        28           H2  tau(  28) = (   0.4993100   0.6851274   1.7196980  )
        29           H2  tau(  29) = (   0.1573400   0.0316548   1.6594512  )
        30           H2  tau(  30) = (   0.6573500   0.0316548   1.6594512  )

     number of k points=    20  Methfessel-Paxton smearing, width (Ry)=  0.0100
                       cart. coord. in units 2pi/alat
        k(    1) = (   0.0000000   0.0000000   0.0000000), wk =   0.0625000
        k(    2) = (   0.0000000   0.2340879   0.0000000), wk =   0.1250000
        k(    3) = (   0.0000000  -0.4681757   0.0000000), wk =   0.0625000
        k(    4) = (   0.2500000   0.0000000   0.0000000), wk =   0.1250000
        k(    5) = (   0.2500000   0.2340879   0.0000000), wk =   0.1250000
        k(    6) = (   0.2500000  -0.4681757   0.0000000), wk =   0.1250000
        k(    7) = (  -0.5000000   0.0000000   0.0000000), wk =   0.0625000
        k(    8) = (  -0.5000000   0.2340879   0.0000000), wk =   0.1250000
        k(    9) = (  -0.5000000  -0.4681757   0.0000000), wk =   0.0625000
        k(   10) = (  -0.2500000   0.2340879   0.0000000), wk =   0.1250000
        k(   11) = (   0.0000000   0.0000000   0.0000000), wk =   0.0625000
        k(   12) = (   0.0000000   0.2340879   0.0000000), wk =   0.1250000
        k(   13) = (   0.0000000  -0.4681757   0.0000000), wk =   0.0625000
        k(   14) = (   0.2500000   0.0000000   0.0000000), wk =   0.1250000
        k(   15) = (   0.2500000   0.2340879   0.0000000), wk =   0.1250000
        k(   16) = (   0.2500000  -0.4681757   0.0000000), wk =   0.1250000
        k(   17) = (  -0.5000000   0.0000000   0.0000000), wk =   0.0625000
        k(   18) = (  -0.5000000   0.2340879   0.0000000), wk =   0.1250000
        k(   19) = (  -0.5000000  -0.4681757   0.0000000), wk =   0.0625000
        k(   20) = (  -0.2500000   0.2340879   0.0000000), wk =   0.1250000

     Dense  grid:  1198649 G-vectors     FFT dimensions: (  80,  90, 360)

     Smooth grid:   216969 G-vectors     FFT dimensions: (  45,  48, 200)

     Largest allocated arrays     est. size (Mb)     dimensions
        Kohn-Sham Wavefunctions        34.03 Mb     (   6884,  324)
        Atomic wavefunctions           16.39 Mb     (   6884,  156)
        NL pseudopotentials            40.55 Mb     (   6884,  386)
        Each V/rho on FFT grid         19.78 Mb     ( 648000,   2)
        Each G-vector array             2.29 Mb     ( 299662)
        G-vector shells                 0.99 Mb     ( 129803)
     Largest temporary arrays     est. size (Mb)     dimensions
        Auxiliary wavefunctions       136.13 Mb     (   6884, 1296)
        Each subspace H/S matrix       25.63 Mb     (1296,1296)
        Each <psi_i|beta_j> matrix      1.91 Mb     (    386,  324)
        Arrays for rho mixing          79.10 Mb     ( 648000,   8)

     Check: negative/imaginary core charge=   -0.000012    0.000000

     Initial potential from superposition of free atoms
     Check: negative starting charge=(component1):   -0.001590
     Check: negative starting charge=(component2):   -0.000511

     starting charge  215.99984, renormalised to  224.00000

     negative rho (up, down):  0.165E-02 0.530E-03
     Number of +U iterations with fixed ns =  0
     Starting occupations:
 --- enter write_ns ---
 LDA+U parameters:
U( 2)     =  0.50000000
alpha( 2) =  0.00000000
atom    3   Tr[ns(na)] (up, down, total) =   5.00000  0.00000  5.00000
   spin  1
    eigenvalues: 
  1.000  1.000  1.000  1.000  1.000
    eigenvectors:
  1.000  0.000  0.000  0.000  0.000
  0.000  1.000  0.000  0.000  0.000
  0.000  0.000  1.000  0.000  0.000
  0.000  0.000  0.000  1.000  0.000
  0.000  0.000  0.000  0.000  1.000
    occupations:
  1.000  0.000  0.000  0.000  0.000
  0.000  1.000  0.000  0.000  0.000
  0.000  0.000  1.000  0.000  0.000
  0.000  0.000  0.000  1.000  0.000
  0.000  0.000  0.000  0.000  1.000
   spin  2
    eigenvalues: 
  0.000  0.000  0.000  0.000  0.000
    eigenvectors:
  1.000  0.000  0.000  0.000  0.000
  0.000  1.000  0.000  0.000  0.000
  0.000  0.000  1.000  0.000  0.000
  0.000  0.000  0.000  1.000  0.000
  0.000  0.000  0.000  0.000  1.000
    occupations:
  0.000  0.000  0.000  0.000  0.000
  0.000  0.000  0.000  0.000  0.000
  0.000  0.000  0.000  0.000  0.000
  0.000  0.000  0.000  0.000  0.000
  0.000  0.000  0.000  0.000  0.000
atomic mag. moment =     5.000000
atom    4   Tr[ns(na)] (up, down, total) =   5.00000  0.00000  5.00000
   spin  1
    eigenvalues: 
  1.000  1.000  1.000  1.000  1.000
    eigenvectors:
  1.000  0.000  0.000  0.000  0.000
  0.000  1.000  0.000  0.000  0.000
  0.000  0.000  1.000  0.000  0.000
  0.000  0.000  0.000  1.000  0.000
  0.000  0.000  0.000  0.000  1.000
    occupations:
  1.000  0.000  0.000  0.000  0.000
  0.000  1.000  0.000  0.000  0.000
  0.000  0.000  1.000  0.000  0.000
  0.000  0.000  0.000  1.000  0.000
  0.000  0.000  0.000  0.000  1.000
   spin  2
    eigenvalues: 
  0.000  0.000  0.000  0.000  0.000
    eigenvectors:
  1.000  0.000  0.000  0.000  0.000
  0.000  1.000  0.000  0.000  0.000
  0.000  0.000  1.000  0.000  0.000
  0.000  0.000  0.000  1.000  0.000
  0.000  0.000  0.000  0.000  1.000
    occupations:
  0.000  0.000  0.000  0.000  0.000
  0.000  0.000  0.000  0.000  0.000
  0.000  0.000  0.000  0.000  0.000
  0.000  0.000  0.000  0.000  0.000
  0.000  0.000  0.000  0.000  0.000
atomic mag. moment =     5.000000
atom    9   Tr[ns(na)] (up, down, total) =   5.00000  0.00000  5.00000
   spin  1
    eigenvalues: 
  1.000  1.000  1.000  1.000  1.000
    eigenvectors:
  1.000  0.000  0.000  0.000  0.000
  0.000  1.000  0.000  0.000  0.000
  0.000  0.000  1.000  0.000  0.000
  0.000  0.000  0.000  1.000  0.000
  0.000  0.000  0.000  0.000  1.000
    occupations:
  1.000  0.000  0.000  0.000  0.000
  0.000  1.000  0.000  0.000  0.000
  0.000  0.000  1.000  0.000  0.000
  0.000  0.000  0.000  1.000  0.000
  0.000  0.000  0.000  0.000  1.000
   spin  2
    eigenvalues: 
  0.000  0.000  0.000  0.000  0.000
    eigenvectors:
  1.000  0.000  0.000  0.000  0.000
  0.000  1.000  0.000  0.000  0.000
  0.000  0.000  1.000  0.000  0.000
  0.000  0.000  0.000  1.000  0.000
  0.000  0.000  0.000  0.000  1.000
    occupations:
  0.000  0.000  0.000  0.000  0.000
  0.000  0.000  0.000  0.000  0.000
  0.000  0.000  0.000  0.000  0.000
  0.000  0.000  0.000  0.000  0.000
  0.000  0.000  0.000  0.000  0.000
atomic mag. moment =     5.000000
atom   10   Tr[ns(na)] (up, down, total) =   5.00000  0.00000  5.00000
   spin  1
    eigenvalues: 
  1.000  1.000  1.000  1.000  1.000
    eigenvectors:
  1.000  0.000  0.000  0.000  0.000
  0.000  1.000  0.000  0.000  0.000
  0.000  0.000  1.000  0.000  0.000
  0.000  0.000  0.000  1.000  0.000
  0.000  0.000  0.000  0.000  1.000
    occupations:
  1.000  0.000  0.000  0.000  0.000
  0.000  1.000  0.000  0.000  0.000
  0.000  0.000  1.000  0.000  0.000
  0.000  0.000  0.000  1.000  0.000
  0.000  0.000  0.000  0.000  1.000
   spin  2
    eigenvalues: 
  0.000  0.000  0.000  0.000  0.000
    eigenvectors:
  1.000  0.000  0.000  0.000  0.000
  0.000  1.000  0.000  0.000  0.000
  0.000  0.000  1.000  0.000  0.000
  0.000  0.000  0.000  1.000  0.000
  0.000  0.000  0.000  0.000  1.000
    occupations:
  0.000  0.000  0.000  0.000  0.000
  0.000  0.000  0.000  0.000  0.000
  0.000  0.000  0.000  0.000  0.000
  0.000  0.000  0.000  0.000  0.000
  0.000  0.000  0.000  0.000  0.000
atomic mag. moment =     5.000000
atom   16   Tr[ns(na)] (up, down, total) =   5.00000  0.00000  5.00000
   spin  1
    eigenvalues: 
  1.000  1.000  1.000  1.000  1.000
    eigenvectors:
  1.000  0.000  0.000  0.000  0.000
  0.000  1.000  0.000  0.000  0.000
  0.000  0.000  1.000  0.000  0.000
  0.000  0.000  0.000  1.000  0.000
  0.000  0.000  0.000  0.000  1.000
    occupations:
  1.000  0.000  0.000  0.000  0.000
  0.000  1.000  0.000  0.000  0.000
  0.000  0.000  1.000  0.000  0.000
  0.000  0.000  0.000  1.000  0.000
  0.000  0.000  0.000  0.000  1.000
   spin  2
    eigenvalues: 
  0.000  0.000  0.000  0.000  0.000
    eigenvectors:
  1.000  0.000  0.000  0.000  0.000
  0.000  1.000  0.000  0.000  0.000
  0.000  0.000  1.000  0.000  0.000
  0.000  0.000  0.000  1.000  0.000
  0.000  0.000  0.000  0.000  1.000
    occupations:
  0.000  0.000  0.000  0.000  0.000
  0.000  0.000  0.000  0.000  0.000
  0.000  0.000  0.000  0.000  0.000
  0.000  0.000  0.000  0.000  0.000
  0.000  0.000  0.000  0.000  0.000
atomic mag. moment =     5.000000
atom   17   Tr[ns(na)] (up, down, total) =   5.00000  0.00000  5.00000
   spin  1
    eigenvalues: 
  1.000  1.000  1.000  1.000  1.000
    eigenvectors:
  1.000  0.000  0.000  0.000  0.000
  0.000  1.000  0.000  0.000  0.000
  0.000  0.000  1.000  0.000  0.000
  0.000  0.000  0.000  1.000  0.000
  0.000  0.000  0.000  0.000  1.000
    occupations:
  1.000  0.000  0.000  0.000  0.000
  0.000  1.000  0.000  0.000  0.000
  0.000  0.000  1.000  0.000  0.000
  0.000  0.000  0.000  1.000  0.000
  0.000  0.000  0.000  0.000  1.000
   spin  2
    eigenvalues: 
  0.000  0.000  0.000  0.000  0.000
    eigenvectors:
  1.000  0.000  0.000  0.000  0.000
  0.000  1.000  0.000  0.000  0.000
  0.000  0.000  1.000  0.000  0.000
  0.000  0.000  0.000  1.000  0.000
  0.000  0.000  0.000  0.000  1.000
    occupations:
  0.000  0.000  0.000  0.000  0.000
  0.000  0.000  0.000  0.000  0.000
  0.000  0.000  0.000  0.000  0.000
  0.000  0.000  0.000  0.000  0.000
  0.000  0.000  0.000  0.000  0.000
atomic mag. moment =     5.000000
atom   22   Tr[ns(na)] (up, down, total) =   5.00000  0.00000  5.00000
   spin  1
    eigenvalues: 
  1.000  1.000  1.000  1.000  1.000
    eigenvectors:
  1.000  0.000  0.000  0.000  0.000
  0.000  1.000  0.000  0.000  0.000
  0.000  0.000  1.000  0.000  0.000
  0.000  0.000  0.000  1.000  0.000
  0.000  0.000  0.000  0.000  1.000
    occupations:
  1.000  0.000  0.000  0.000  0.000
  0.000  1.000  0.000  0.000  0.000
  0.000  0.000  1.000  0.000  0.000
  0.000  0.000  0.000  1.000  0.000
  0.000  0.000  0.000  0.000  1.000
   spin  2
    eigenvalues: 
  0.000  0.000  0.000  0.000  0.000
    eigenvectors:
  1.000  0.000  0.000  0.000  0.000
  0.000  1.000  0.000  0.000  0.000
  0.000  0.000  1.000  0.000  0.000
  0.000  0.000  0.000  1.000  0.000
  0.000  0.000  0.000  0.000  1.000
    occupations:
  0.000  0.000  0.000  0.000  0.000
  0.000  0.000  0.000  0.000  0.000
  0.000  0.000  0.000  0.000  0.000
  0.000  0.000  0.000  0.000  0.000
  0.000  0.000  0.000  0.000  0.000
atomic mag. moment =     5.000000
atom   23   Tr[ns(na)] (up, down, total) =   5.00000  0.00000  5.00000
   spin  1
    eigenvalues: 
  1.000  1.000  1.000  1.000  1.000
    eigenvectors:
  1.000  0.000  0.000  0.000  0.000
  0.000  1.000  0.000  0.000  0.000
  0.000  0.000  1.000  0.000  0.000
  0.000  0.000  0.000  1.000  0.000
  0.000  0.000  0.000  0.000  1.000
    occupations:
  1.000  0.000  0.000  0.000  0.000
  0.000  1.000  0.000  0.000  0.000
  0.000  0.000  1.000  0.000  0.000
  0.000  0.000  0.000  1.000  0.000
  0.000  0.000  0.000  0.000  1.000
   spin  2
    eigenvalues: 
  0.000  0.000  0.000  0.000  0.000
    eigenvectors:
  1.000  0.000  0.000  0.000  0.000
  0.000  1.000  0.000  0.000  0.000
  0.000  0.000  1.000  0.000  0.000
  0.000  0.000  0.000  1.000  0.000
  0.000  0.000  0.000  0.000  1.000
    occupations:
  0.000  0.000  0.000  0.000  0.000
  0.000  0.000  0.000  0.000  0.000
  0.000  0.000  0.000  0.000  0.000
  0.000  0.000  0.000  0.000  0.000
  0.000  0.000  0.000  0.000  0.000
atomic mag. moment =     5.000000
N of occupied +U levels =  40.0000000
 --- exit write_ns ---
 Atomic wfc used for LDA+U Projector are NOT orthogonalized
     Starting wfc are  156 randomized atomic wfcs

     total cpu time spent up to now is      136.1 secs

     per-process dynamical memory:   460.3 Mb

     Self-consistent Calculation

     iteration #  1     ecut=    40.00 Ry     beta=0.70
     Davidson diagonalization with overlap
     ethr =  1.00E-02,  avg # of iterations =  5.2
 --- enter write_ns ---
 LDA+U parameters:
U( 2)     =  0.50000000
alpha( 2) =  0.00000000
atom    3   Tr[ns(na)] (up, down, total) =   2.39832  0.68596  3.08429
   spin  1
    eigenvalues: 
  0.410  0.449  0.473  0.526  0.539
    eigenvectors:
  0.582  0.004  0.370  0.039  0.005
  0.000  0.374  0.000  0.104  0.522
  0.000  0.001  0.101  0.768  0.130
  0.416  0.000  0.528  0.047  0.009
  0.001  0.622  0.001  0.041  0.335
    occupations:
  0.439  0.000  0.011  0.034 -0.000
  0.000  0.504 -0.002  0.000  0.043
  0.011 -0.002  0.523  0.012 -0.005
  0.034  0.000  0.012  0.450 -0.003
 -0.000  0.043 -0.005 -0.003  0.482
   spin  2
    eigenvalues: 
  0.072  0.081  0.085  0.213  0.235
    eigenvectors:
  0.613  0.000  0.199  0.000  0.188
  0.000  0.001  0.000  0.999  0.000
  0.239  0.000  0.761  0.000  0.000
  0.148  0.000  0.040  0.000  0.812
  0.000  0.999  0.000  0.001  0.000
    occupations:
  0.105 -0.000 -0.004  0.062 -0.000
 -0.000  0.213 -0.000  0.000  0.005
 -0.004 -0.000  0.082  0.004  0.000
  0.062  0.000  0.004  0.205 -0.000
 -0.000  0.005  0.000 -0.000  0.081
atomic mag. moment =     1.712363
atom    4   Tr[ns(na)] (up, down, total) =   2.49507  0.73609  3.23116
   spin  1
    eigenvalues: 
  0.372  0.444  0.456  0.594  0.629
    eigenvectors:
  0.007  0.005  0.476  0.002  0.510
  0.000  0.007  0.484  0.030  0.479
  0.004  0.001  0.025  0.963  0.007
  0.989  0.000  0.002  0.004  0.005
  0.000  0.987  0.013  0.000  0.000
    occupations:
  0.544  0.084  0.016  0.016  0.000
  0.084  0.543 -0.014  0.007  0.002
  0.016 -0.014  0.590  0.015  0.002
  0.016  0.007  0.015  0.374 -0.000
  0.000  0.002  0.002 -0.000  0.444
   spin  2
    eigenvalues: 
  0.074  0.089  0.105  0.219  0.251
    eigenvectors:
  0.009  0.002  0.000  0.000  0.989
  0.006  0.909  0.082  0.000  0.003
  0.001  0.082  0.917  0.000  0.000
  0.985  0.007  0.000  0.000  0.008
  0.000  0.000  0.000  1.000  0.000
    occupations:
  0.249  0.009  0.002 -0.016  0.000
  0.009  0.090 -0.004  0.000 -0.000
  0.002 -0.004  0.103  0.000  0.000
 -0.016  0.000  0.000  0.075  0.000
  0.000 -0.000  0.000  0.000  0.219
atomic mag. moment =     1.758982
atom    9   Tr[ns(na)] (up, down, total) =   4.14263  0.78571  4.92835
   spin  1
    eigenvalues: 
  0.583  0.606  0.977  0.981  0.995
    eigenvectors:
  0.146  0.003  0.850  0.000  0.000
  0.017  0.983  0.000  0.000  0.000
  0.000  0.000  0.000  0.000  1.000
  0.837  0.014  0.149  0.000  0.000
  0.000  0.000  0.000  1.000  0.000
    occupations:
  0.919 -0.000 -0.000 -0.140  0.000
 -0.000  0.605 -0.000 -0.003 -0.000
 -0.000 -0.000  0.995 -0.000  0.000
 -0.140 -0.003 -0.000  0.643 -0.000
  0.000 -0.000  0.000 -0.000  0.981
   spin  2
    eigenvalues: 
  0.089  0.102  0.105  0.244  0.246
    eigenvectors:
  0.000  0.882  0.000  0.000  0.118
  0.000  0.000  0.000  1.000  0.000
  1.000  0.000  0.000  0.000  0.000
  0.000  0.118  0.000  0.000  0.882
  0.000  0.000  1.000  0.000  0.000
    occupations:
  0.119 -0.000 -0.000  0.047  0.000
 -0.000  0.244  0.000 -0.000  0.000
 -0.000  0.000  0.089 -0.000 -0.000
  0.047 -0.000 -0.000  0.229 -0.000
  0.000  0.000 -0.000 -0.000  0.105
atomic mag. moment =     3.356922
atom   10   Tr[ns(na)] (up, down, total) =   4.77804  0.65979  5.43783
   spin  1
    eigenvalues: 
  0.878  0.933  0.986  0.990  0.991
    eigenvectors:
  0.002  0.944  0.050  0.003  0.000
  0.000  0.000  0.000  0.040  0.960
  0.000  0.001  0.025  0.937  0.038
  0.000  0.053  0.925  0.020  0.002
  0.998  0.002  0.000  0.000  0.000
    occupations:
  0.935  0.000 -0.001  0.012  0.003
  0.000  0.991  0.000 -0.000  0.000
 -0.001  0.000  0.990 -0.000  0.001
  0.012 -0.000 -0.000  0.984 -0.000
  0.003  0.000  0.001 -0.000  0.878
   spin  2
    eigenvalues: 
  0.070  0.091  0.097  0.191  0.212
    eigenvectors:
  0.014  0.000  0.000  0.986  0.000
  0.000  0.000  1.000  0.000  0.000
  0.000  1.000  0.000  0.000  0.000
  0.986  0.000  0.000  0.014  0.000
  0.000  0.000  0.000  0.000  1.000
    occupations:
  0.189 -0.000 -0.000 -0.014 -0.000
 -0.000  0.097 -0.000 -0.000 -0.000
 -0.000 -0.000  0.091  0.000  0.000
 -0.014 -0.000  0.000  0.072  0.000
 -0.000 -0.000  0.000  0.000  0.212
atomic mag. moment =     4.118254
atom   16   Tr[ns(na)] (up, down, total) =   2.39833  0.68596  3.08429
   spin  1
    eigenvalues: 
  0.410  0.449  0.473  0.526  0.539
    eigenvectors:
  0.582  0.004  0.370  0.039  0.005
  0.000  0.374  0.000  0.104  0.522
  0.000  0.001  0.101  0.769  0.130
  0.416  0.000  0.528  0.047  0.009
  0.001  0.622  0.001  0.041  0.335
    occupations:
  0.439  0.000  0.011  0.034  0.000
  0.000  0.504 -0.002  0.000  0.043
  0.011 -0.002  0.523  0.012 -0.005
  0.034  0.000  0.012  0.450 -0.003
  0.000  0.043 -0.005 -0.003  0.482
   spin  2
    eigenvalues: 
  0.072  0.081  0.085  0.213  0.235
    eigenvectors:
  0.613  0.000  0.199  0.000  0.188
  0.000  0.001  0.000  0.999  0.000
  0.239  0.000  0.761  0.000  0.000
  0.148  0.000  0.040  0.000  0.812
  0.000  0.999  0.000  0.001  0.000
    occupations:
  0.105 -0.000 -0.004  0.062 -0.000
 -0.000  0.213 -0.000  0.000  0.005
 -0.004 -0.000  0.082  0.004  0.000
  0.062  0.000  0.004  0.205 -0.000
 -0.000  0.005  0.000 -0.000  0.081
atomic mag. moment =     1.712366
atom   17   Tr[ns(na)] (up, down, total) =   2.49507  0.73609  3.23116
   spin  1
    eigenvalues: 
  0.372  0.444  0.456  0.594  0.629
    eigenvectors:
  0.007  0.005  0.476  0.002  0.510
  0.000  0.007  0.484  0.030  0.479
  0.004  0.001  0.025  0.963  0.007
  0.989  0.000  0.002  0.004  0.005
  0.000  0.987  0.013  0.000  0.000
    occupations:
  0.544  0.084  0.016  0.016  0.000
  0.084  0.543 -0.014  0.007  0.002
  0.016 -0.014  0.590  0.015  0.002
  0.016  0.007  0.015  0.374 -0.000
  0.000  0.002  0.002 -0.000  0.444
   spin  2
    eigenvalues: 
  0.073  0.089  0.105  0.219  0.251
    eigenvectors:
  0.009  0.002  0.000  0.000  0.989
  0.006  0.909  0.082  0.000  0.003
  0.001  0.082  0.917  0.000  0.000
  0.985  0.007  0.000  0.000  0.008
  0.000  0.000  0.000  1.000  0.000
    occupations:
  0.249  0.009  0.002 -0.016  0.000
  0.009  0.090 -0.004  0.000 -0.000
  0.002 -0.004  0.103  0.000  0.000
 -0.016  0.000  0.000  0.075  0.000
  0.000 -0.000  0.000  0.000  0.219
atomic mag. moment =     1.758985
atom   22   Tr[ns(na)] (up, down, total) =   4.14264  0.78572  4.92836
   spin  1
    eigenvalues: 
  0.583  0.606  0.977  0.981  0.995
    eigenvectors:
  0.146  0.003  0.850  0.000  0.000
  0.017  0.983  0.000  0.000  0.000
  0.000  0.000  0.000  0.000  1.000
  0.837  0.014  0.149  0.000  0.000
  0.000  0.000  0.000  1.000  0.000
    occupations:
  0.919 -0.000 -0.000 -0.140  0.000
 -0.000  0.605 -0.000 -0.003 -0.000
 -0.000 -0.000  0.995 -0.000  0.000
 -0.140 -0.003 -0.000  0.643 -0.000
  0.000 -0.000  0.000 -0.000  0.981
   spin  2
    eigenvalues: 
  0.089  0.102  0.105  0.244  0.246
    eigenvectors:
  0.000  0.882  0.000  0.000  0.118
  0.000  0.000  0.000  1.000  0.000
  1.000  0.000  0.000  0.000  0.000
  0.000  0.118  0.000  0.000  0.882
  0.000  0.000  1.000  0.000  0.000
    occupations:
  0.119 -0.000 -0.000  0.047  0.000
 -0.000  0.244  0.000 -0.000  0.000
 -0.000  0.000  0.089 -0.000 -0.000
  0.047 -0.000 -0.000  0.229 -0.000
  0.000  0.000 -0.000 -0.000  0.105
atomic mag. moment =     3.356926
atom   23   Tr[ns(na)] (up, down, total) =   4.77804  0.65979  5.43782
   spin  1
    eigenvalues: 
  0.878  0.933  0.986  0.990  0.991
    eigenvectors:
  0.002  0.944  0.050  0.003  0.000
  0.000  0.000  0.000  0.040  0.960
  0.000  0.001  0.025  0.936  0.038
  0.000  0.053  0.925  0.020  0.002
  0.998  0.002  0.000  0.000  0.000
    occupations:
  0.935  0.000 -0.001  0.012  0.003
  0.000  0.991  0.000 -0.000  0.000
 -0.001  0.000  0.990 -0.000  0.001
  0.012 -0.000 -0.000  0.984 -0.000
  0.003  0.000  0.001 -0.000  0.878
   spin  2
    eigenvalues: 
  0.070  0.091  0.097  0.191  0.212
    eigenvectors:
  0.014  0.000  0.000  0.986  0.000
  0.000  0.000  1.000  0.000  0.000
  0.000  1.000  0.000  0.000  0.000
  0.986  0.000  0.000  0.014  0.000
  0.000  0.000  0.000  0.000  1.000
    occupations:
  0.189  0.000 -0.000 -0.014 -0.000
  0.000  0.097 -0.000 -0.000 -0.000
 -0.000 -0.000  0.091  0.000  0.000
 -0.014 -0.000  0.000  0.072  0.000
 -0.000 -0.000  0.000  0.000  0.212
atomic mag. moment =     4.118249
N of occupied +U levels =  33.3632548
 --- exit write_ns ---

     negative rho (up, down):  0.241E-02 0.124E-02

     total cpu time spent up to now is      584.9 secs

     total energy              =   -1956.94953142 Ry
     Harris-Foulkes estimate   =   -1990.88464184 Ry
     estimated scf accuracy    <      49.03377072 Ry

     total magnetization       =    16.00 Bohr mag/cell
     absolute magnetization    =    29.23 Bohr mag/cell

     iteration #  2     ecut=    40.00 Ry     beta=0.70
     Davidson diagonalization with overlap
     ethr =  1.00E-02,  avg # of iterations =  7.2

     negative rho (up, down):  0.186E-01 0.118E-01

     total cpu time spent up to now is     1075.4 secs

     total energy              =   -1766.56382910 Ry
     Harris-Foulkes estimate   =   -2385.33310054 Ry
     estimated scf accuracy    <    6365.91412751 Ry

     total magnetization       =    16.00 Bohr mag/cell
     absolute magnetization    =    16.08 Bohr mag/cell

     iteration #  3     ecut=    40.00 Ry     beta=0.70
     Davidson diagonalization with overlap
     ethr =  1.00E-02,  avg # of iterations =  6.0

     negative rho (up, down):  0.117E-01 0.112E-01

     total cpu time spent up to now is     1604.2 secs

     total energy              =   -1976.74526797 Ry
     Harris-Foulkes estimate   =   -2009.21971996 Ry
     estimated scf accuracy    <     326.52992562 Ry

     total magnetization       =    16.00 Bohr mag/cell
     absolute magnetization    =    16.38 Bohr mag/cell

     iteration #  4     ecut=    40.00 Ry     beta=0.70
     Davidson diagonalization with overlap
     ethr =  1.00E-02,  avg # of iterations =  4.0

     negative rho (up, down):  0.944E-02 0.505E-02

     total cpu time spent up to now is     1878.7 secs

     total energy              =   -1989.38408572 Ry
     Harris-Foulkes estimate   =   -1995.30018272 Ry
     estimated scf accuracy    <      21.55962792 Ry

     total magnetization       =    16.00 Bohr mag/cell
     absolute magnetization    =    27.07 Bohr mag/cell

     iteration #  5     ecut=    40.00 Ry     beta=0.70
     Davidson diagonalization with overlap
     ethr =  9.62E-03,  avg # of iterations =  2.1

     negative rho (up, down):  0.126E-01 0.358E-02

     total cpu time spent up to now is     2124.4 secs

     total energy              =   -1991.18892769 Ry
     Harris-Foulkes estimate   =   -1994.87570471 Ry
     estimated scf accuracy    <      18.43492664 Ry

     total magnetization       =    16.00 Bohr mag/cell
     absolute magnetization    =    19.79 Bohr mag/cell

     iteration #  6     ecut=    40.00 Ry     beta=0.70
     Davidson diagonalization with overlap
     ethr =  8.23E-03,  avg # of iterations =  1.4

     negative rho (up, down):  0.812E-02 0.234E-02

     total cpu time spent up to now is     2365.0 secs

     total energy              =   -1991.92722476 Ry
     Harris-Foulkes estimate   =   -1994.98544757 Ry
     estimated scf accuracy    <      18.52880200 Ry

     total magnetization       =    16.00 Bohr mag/cell
     absolute magnetization    =    18.90 Bohr mag/cell

     iteration #  7     ecut=    40.00 Ry     beta=0.70
     Davidson diagonalization with overlap
     ethr =  8.23E-03,  avg # of iterations =  1.0

     negative rho (up, down):  0.581E-02 0.235E-02

     total cpu time spent up to now is     2600.0 secs

     total energy              =   -1992.34298041 Ry
     Harris-Foulkes estimate   =   -1993.89998995 Ry
     estimated scf accuracy    <      13.14330147 Ry

     total magnetization       =    16.00 Bohr mag/cell
     absolute magnetization    =    22.23 Bohr mag/cell

     iteration #  8     ecut=    40.00 Ry     beta=0.70
     Davidson diagonalization with overlap
     ethr =  5.87E-03,  avg # of iterations =  1.0

     negative rho (up, down):  0.135E-01 0.208E-02

     total cpu time spent up to now is     2839.8 secs

     total energy              =   -1993.17725577 Ry
     Harris-Foulkes estimate   =   -1993.90978884 Ry
     estimated scf accuracy    <       7.75508231 Ry

     total magnetization       =    16.00 Bohr mag/cell
     absolute magnetization    =    19.09 Bohr mag/cell

     iteration #  9     ecut=    40.00 Ry     beta=0.70
     Davidson diagonalization with overlap
     ethr =  3.46E-03,  avg # of iterations =  1.7

     negative rho (up, down):  0.884E-02 0.173E-02

     total cpu time spent up to now is     3087.6 secs

     total energy              =   -1993.38963933 Ry
     Harris-Foulkes estimate   =   -1993.62982341 Ry
     estimated scf accuracy    <       3.38202786 Ry

     total magnetization       =    16.00 Bohr mag/cell
     absolute magnetization    =    19.50 Bohr mag/cell

     iteration # 10     ecut=    40.00 Ry     beta=0.70
     Davidson diagonalization with overlap
     ethr =  1.51E-03,  avg # of iterations =  4.8

     negative rho (up, down):  0.697E-02 0.167E-02

     total cpu time spent up to now is     3363.5 secs

     total energy              =   -1993.42799056 Ry
     Harris-Foulkes estimate   =   -1993.55588373 Ry
     estimated scf accuracy    <       1.83671851 Ry

     total magnetization       =    16.00 Bohr mag/cell
     absolute magnetization    =    20.30 Bohr mag/cell

     iteration # 11     ecut=    40.00 Ry     beta=0.70
     Davidson diagonalization with overlap
     ethr =  8.20E-04,  avg # of iterations =  2.4

     negative rho (up, down):  0.526E-02 0.166E-02

     total cpu time spent up to now is     3614.5 secs

     total energy              =   -1993.41099204 Ry
     Harris-Foulkes estimate   =   -1993.49873495 Ry
     estimated scf accuracy    <       1.47434526 Ry

     total magnetization       =    16.00 Bohr mag/cell
     absolute magnetization    =    19.75 Bohr mag/cell

     iteration # 12     ecut=    40.00 Ry     beta=0.70
     Davidson diagonalization with overlap
     ethr =  6.58E-04,  avg # of iterations =  4.2

     negative rho (up, down):  0.540E-02 0.167E-02

     total cpu time spent up to now is     3903.7 secs

     total energy              =   -1993.41527526 Ry
     Harris-Foulkes estimate   =   -1993.46416890 Ry
     estimated scf accuracy    <       0.28094555 Ry

     total magnetization       =    16.00 Bohr mag/cell
     absolute magnetization    =    19.83 Bohr mag/cell

     iteration # 13     ecut=    40.00 Ry     beta=0.70
     Davidson diagonalization with overlap
     ethr =  1.25E-04,  avg # of iterations =  4.6

     negative rho (up, down):  0.610E-02 0.164E-02

     total cpu time spent up to now is     4202.6 secs

     total energy              =   -1993.42418597 Ry
     Harris-Foulkes estimate   =   -1993.45888724 Ry
     estimated scf accuracy    <       0.39572185 Ry

     total magnetization       =    16.00 Bohr mag/cell
     absolute magnetization    =    19.42 Bohr mag/cell

     iteration # 14     ecut=    40.00 Ry     beta=0.70
     Davidson diagonalization with overlap
     ethr =  1.25E-04,  avg # of iterations =  1.0

     negative rho (up, down):  0.577E-02 0.163E-02

     total cpu time spent up to now is     4458.8 secs

     total energy              =   -1993.43505958 Ry
     Harris-Foulkes estimate   =   -1993.44705410 Ry
     estimated scf accuracy    <       0.09567658 Ry

     total magnetization       =    16.00 Bohr mag/cell
     absolute magnetization    =    19.52 Bohr mag/cell

     iteration # 15     ecut=    40.00 Ry     beta=0.70
     Davidson diagonalization with overlap
     ethr =  4.27E-05,  avg # of iterations =  1.0

     negative rho (up, down):  0.547E-02 0.166E-02

     total cpu time spent up to now is     4716.1 secs

     total energy              =   -1993.43564359 Ry
     Harris-Foulkes estimate   =   -1993.44931337 Ry
     estimated scf accuracy    <       0.16312722 Ry

     total magnetization       =    16.00 Bohr mag/cell
     absolute magnetization    =    19.48 Bohr mag/cell

     iteration # 16     ecut=    40.00 Ry     beta=0.70
     Davidson diagonalization with overlap
     ethr =  4.27E-05,  avg # of iterations =  1.0

     negative rho (up, down):  0.503E-02 0.185E-02

     total cpu time spent up to now is     4975.4 secs

     total energy              =   -1993.43952920 Ry
     Harris-Foulkes estimate   =   -1993.44405107 Ry
     estimated scf accuracy    <       0.01547452 Ry

     total magnetization       =    16.00 Bohr mag/cell
     absolute magnetization    =    19.45 Bohr mag/cell

     iteration # 17     ecut=    40.00 Ry     beta=0.70
     Davidson diagonalization with overlap
     ethr =  6.91E-06,  avg # of iterations =  6.2

     negative rho (up, down):  0.684E-02 0.185E-02

     total cpu time spent up to now is     5298.7 secs

     total energy              =   -1993.41873349 Ry
     Harris-Foulkes estimate   =   -1993.46849446 Ry
     estimated scf accuracy    <       0.45262891 Ry

     total magnetization       =    16.00 Bohr mag/cell
     absolute magnetization    =    19.17 Bohr mag/cell

     iteration # 18     ecut=    40.00 Ry     beta=0.70
     Davidson diagonalization with overlap
     ethr =  6.91E-06,  avg # of iterations =  3.5

     negative rho (up, down):  0.519E-02 0.185E-02

     total cpu time spent up to now is     5583.8 secs

     total energy              =   -1993.44299226 Ry
     Harris-Foulkes estimate   =   -1993.44465870 Ry
     estimated scf accuracy    <       0.01124982 Ry

     total magnetization       =    16.00 Bohr mag/cell
     absolute magnetization    =    19.25 Bohr mag/cell

     iteration # 19     ecut=    40.00 Ry     beta=0.70
     Davidson diagonalization with overlap
     ethr =  5.02E-06,  avg # of iterations =  1.8

     negative rho (up, down):  0.508E-02 0.184E-02

     total cpu time spent up to now is     5856.0 secs

     total energy              =   -1993.44254438 Ry
     Harris-Foulkes estimate   =   -1993.44568445 Ry
     estimated scf accuracy    <       0.01960062 Ry

     total magnetization       =    16.00 Bohr mag/cell
     absolute magnetization    =    19.21 Bohr mag/cell

     iteration # 20     ecut=    40.00 Ry     beta=0.70
     Davidson diagonalization with overlap
     ethr =  5.02E-06,  avg # of iterations =  1.0

     negative rho (up, down):  0.499E-02 0.182E-02

     total cpu time spent up to now is     6113.0 secs

     total energy              =   -1993.44400326 Ry
     Harris-Foulkes estimate   =   -1993.44454201 Ry
     estimated scf accuracy    <       0.00517183 Ry

     total magnetization       =    16.00 Bohr mag/cell
     absolute magnetization    =    19.22 Bohr mag/cell

     iteration # 21     ecut=    40.00 Ry     beta=0.70
     Davidson diagonalization with overlap
     ethr =  2.31E-06,  avg # of iterations =  1.2

     negative rho (up, down):  0.502E-02 0.183E-02

     total cpu time spent up to now is     6360.6 secs

     total energy              =   -1993.44399890 Ry
     Harris-Foulkes estimate   =   -1993.44459789 Ry
     estimated scf accuracy    <       0.00504670 Ry

     total magnetization       =    16.00 Bohr mag/cell
     absolute magnetization    =    19.20 Bohr mag/cell

     iteration # 22     ecut=    40.00 Ry     beta=0.70
     Davidson diagonalization with overlap
     ethr =  2.25E-06,  avg # of iterations =  1.0

     negative rho (up, down):  0.500E-02 0.184E-02

     total cpu time spent up to now is     6605.0 secs

     total energy              =   -1993.44414110 Ry
     Harris-Foulkes estimate   =   -1993.44440127 Ry
     estimated scf accuracy    <       0.00147196 Ry

     total magnetization       =    16.00 Bohr mag/cell
     absolute magnetization    =    19.17 Bohr mag/cell

     iteration # 23     ecut=    40.00 Ry     beta=0.70
     Davidson diagonalization with overlap
     ethr =  6.57E-07,  avg # of iterations =  2.5

     negative rho (up, down):  0.501E-02 0.183E-02

     total cpu time spent up to now is     6865.0 secs

     total energy              =   -1993.44338401 Ry
     Harris-Foulkes estimate   =   -1993.44516337 Ry
     estimated scf accuracy    <       0.01456612 Ry

     total magnetization       =    16.00 Bohr mag/cell
     absolute magnetization    =    19.18 Bohr mag/cell

     iteration # 24     ecut=    40.00 Ry     beta=0.70
     Davidson diagonalization with overlap
     ethr =  6.57E-07,  avg # of iterations =  2.8

     negative rho (up, down):  0.497E-02 0.183E-02

     total cpu time spent up to now is     7124.3 secs

     total energy              =   -1993.44402019 Ry
     Harris-Foulkes estimate   =   -1993.44463638 Ry
     estimated scf accuracy    <       0.00624193 Ry

     total magnetization       =    16.00 Bohr mag/cell
     absolute magnetization    =    19.16 Bohr mag/cell

     iteration # 25     ecut=    40.00 Ry     beta=0.70
     Davidson diagonalization with overlap
     ethr =  6.57E-07,  avg # of iterations =  1.0

     negative rho (up, down):  0.498E-02 0.182E-02

     total cpu time spent up to now is     7370.4 secs

     total energy              =   -1993.44417038 Ry
     Harris-Foulkes estimate   =   -1993.44450357 Ry
     estimated scf accuracy    <       0.00389013 Ry

     total magnetization       =    16.00 Bohr mag/cell
     absolute magnetization    =    19.15 Bohr mag/cell

     iteration # 26     ecut=    40.00 Ry     beta=0.70
     Davidson diagonalization with overlap
     ethr =  6.57E-07,  avg # of iterations =  1.0

     negative rho (up, down):  0.496E-02 0.182E-02

     total cpu time spent up to now is     7615.7 secs

     total energy              =   -1993.44433439 Ry
     Harris-Foulkes estimate   =   -1993.44435906 Ry
     estimated scf accuracy    <       0.00028752 Ry

     total magnetization       =    16.00 Bohr mag/cell
     absolute magnetization    =    19.15 Bohr mag/cell

     iteration # 27     ecut=    40.00 Ry     beta=0.70
     Davidson diagonalization with overlap
     ethr =  1.28E-07,  avg # of iterations =  1.0

     negative rho (up, down):  0.496E-02 0.182E-02

     total cpu time spent up to now is     7860.2 secs

     total energy              =   -1993.44430272 Ry
     Harris-Foulkes estimate   =   -1993.44441369 Ry
     estimated scf accuracy    <       0.00088667 Ry

     total magnetization       =    16.00 Bohr mag/cell
     absolute magnetization    =    19.13 Bohr mag/cell

     iteration # 28     ecut=    40.00 Ry     beta=0.70
     Davidson diagonalization with overlap
     ethr =  1.28E-07,  avg # of iterations =  1.0

     negative rho (up, down):  0.496E-02 0.182E-02

     total cpu time spent up to now is     8108.1 secs

     total energy              =   -1993.44435428 Ry
     Harris-Foulkes estimate   =   -1993.44436603 Ry
     estimated scf accuracy    <       0.00010583 Ry

     total magnetization       =    16.00 Bohr mag/cell
     absolute magnetization    =    19.13 Bohr mag/cell

     iteration # 29     ecut=    40.00 Ry     beta=0.70
     Davidson diagonalization with overlap
     ethr =  4.72E-08,  avg # of iterations =  1.0

     negative rho (up, down):  0.496E-02 0.182E-02

     total cpu time spent up to now is     8356.0 secs

     total energy              =   -1993.44434641 Ry
     Harris-Foulkes estimate   =   -1993.44437137 Ry
     estimated scf accuracy    <       0.00013832 Ry

     total magnetization       =    16.00 Bohr mag/cell
     absolute magnetization    =    19.12 Bohr mag/cell

     iteration # 30     ecut=    40.00 Ry     beta=0.70
     Davidson diagonalization with overlap
     ethr =  4.72E-08,  avg # of iterations =  1.3

     negative rho (up, down):  0.496E-02 0.182E-02

     total cpu time spent up to now is     8603.0 secs

     total energy              =   -1993.44432420 Ry
     Harris-Foulkes estimate   =   -1993.44439606 Ry
     estimated scf accuracy    <       0.00054247 Ry

     total magnetization       =    16.00 Bohr mag/cell
     absolute magnetization    =    19.12 Bohr mag/cell

     iteration # 31     ecut=    40.00 Ry     beta=0.70
     Davidson diagonalization with overlap
     ethr =  4.72E-08,  avg # of iterations =  1.0

     negative rho (up, down):  0.495E-02 0.182E-02

     total cpu time spent up to now is     8851.2 secs

     total energy              =   -1993.44436130 Ry
     Harris-Foulkes estimate   =   -1993.44436795 Ry
     estimated scf accuracy    <       0.00006144 Ry

     total magnetization       =    16.00 Bohr mag/cell
     absolute magnetization    =    19.12 Bohr mag/cell

     iteration # 32     ecut=    40.00 Ry     beta=0.70
     Davidson diagonalization with overlap
     ethr =  2.74E-08,  avg # of iterations =  1.0

     negative rho (up, down):  0.495E-02 0.182E-02

     total cpu time spent up to now is     9098.5 secs

     total energy              =   -1993.44436423 Ry
     Harris-Foulkes estimate   =   -1993.44436833 Ry
     estimated scf accuracy    <       0.00004766 Ry

     total magnetization       =    16.00 Bohr mag/cell
     absolute magnetization    =    19.11 Bohr mag/cell

     iteration # 33     ecut=    40.00 Ry     beta=0.70
     Davidson diagonalization with overlap
     ethr =  2.13E-08,  avg # of iterations =  1.0

     negative rho (up, down):  0.495E-02 0.182E-02

     total cpu time spent up to now is     9344.9 secs

     total energy              =   -1993.44436215 Ry
     Harris-Foulkes estimate   =   -1993.44437289 Ry
     estimated scf accuracy    <       0.00009380 Ry

     total magnetization       =    16.00 Bohr mag/cell
     absolute magnetization    =    19.11 Bohr mag/cell

     iteration # 34     ecut=    40.00 Ry     beta=0.70
     Davidson diagonalization with overlap
     ethr =  2.13E-08,  avg # of iterations =  1.0

     negative rho (up, down):  0.495E-02 0.182E-02

     total cpu time spent up to now is     9596.0 secs

     total energy              =   -1993.44436574 Ry
     Harris-Foulkes estimate   =   -1993.44436901 Ry
     estimated scf accuracy    <       0.00001860 Ry

     total magnetization       =    16.00 Bohr mag/cell
     absolute magnetization    =    19.10 Bohr mag/cell

     iteration # 35     ecut=    40.00 Ry     beta=0.70
     Davidson diagonalization with overlap
     ethr =  8.31E-09,  avg # of iterations =  1.5

     negative rho (up, down):  0.495E-02 0.182E-02

     total cpu time spent up to now is     9852.6 secs

     total energy              =   -1993.44435526 Ry
     Harris-Foulkes estimate   =   -1993.44437774 Ry
     estimated scf accuracy    <       0.00023150 Ry

     total magnetization       =    16.00 Bohr mag/cell
     absolute magnetization    =    19.11 Bohr mag/cell

     iteration # 36     ecut=    40.00 Ry     beta=0.70
     Davidson diagonalization with overlap
     ethr =  8.31E-09,  avg # of iterations =  1.7

     negative rho (up, down):  0.495E-02 0.182E-02

     total cpu time spent up to now is    10107.7 secs

     total energy              =   -1993.44436129 Ry
     Harris-Foulkes estimate   =   -1993.44437424 Ry
     estimated scf accuracy    <       0.00009381 Ry

     total magnetization       =    16.00 Bohr mag/cell
     absolute magnetization    =    19.11 Bohr mag/cell

     iteration # 37     ecut=    40.00 Ry     beta=0.70
     Davidson diagonalization with overlap
     ethr =  8.31E-09,  avg # of iterations =  1.3

     negative rho (up, down):  0.495E-02 0.182E-02

     total cpu time spent up to now is    10361.0 secs

     total energy              =   -1993.44436739 Ry
     Harris-Foulkes estimate   =   -1993.44436873 Ry
     estimated scf accuracy    <       0.00001104 Ry

     total magnetization       =    16.00 Bohr mag/cell
     absolute magnetization    =    19.10 Bohr mag/cell

     iteration # 38     ecut=    40.00 Ry     beta=0.70
     Davidson diagonalization with overlap
     ethr =  4.93E-09,  avg # of iterations =  1.0

     negative rho (up, down):  0.495E-02 0.182E-02

     total cpu time spent up to now is    10606.6 secs

     total energy              =   -1993.44436764 Ry
     Harris-Foulkes estimate   =   -1993.44436866 Ry
     estimated scf accuracy    <       0.00000701 Ry

     total magnetization       =    16.00 Bohr mag/cell
     absolute magnetization    =    19.10 Bohr mag/cell

     iteration # 39     ecut=    40.00 Ry     beta=0.70
     Davidson diagonalization with overlap
     ethr =  3.13E-09,  avg # of iterations =  1.0

     negative rho (up, down):  0.495E-02 0.182E-02

     total cpu time spent up to now is    10854.5 secs

     total energy              =   -1993.44436820 Ry
     Harris-Foulkes estimate   =   -1993.44436849 Ry
     estimated scf accuracy    <       0.00000371 Ry

     total magnetization       =    16.00 Bohr mag/cell
     absolute magnetization    =    19.10 Bohr mag/cell

     iteration # 40     ecut=    40.00 Ry     beta=0.70
     Davidson diagonalization with overlap
     ethr =  1.66E-09,  avg # of iterations =  1.0

     negative rho (up, down):  0.495E-02 0.182E-02

     total cpu time spent up to now is    11101.6 secs

     total energy              =   -1993.44436800 Ry
     Harris-Foulkes estimate   =   -1993.44436866 Ry
     estimated scf accuracy    <       0.00000425 Ry

     total magnetization       =    16.00 Bohr mag/cell
     absolute magnetization    =    19.10 Bohr mag/cell

     iteration # 41     ecut=    40.00 Ry     beta=0.70
     Davidson diagonalization with overlap
     ethr =  1.66E-09,  avg # of iterations =  1.0

     negative rho (up, down):  0.495E-02 0.182E-02

     total cpu time spent up to now is    11347.8 secs

     total energy              =   -1993.44436724 Ry
     Harris-Foulkes estimate   =   -1993.44436950 Ry
     estimated scf accuracy    <       0.00001725 Ry

     total magnetization       =    16.00 Bohr mag/cell
     absolute magnetization    =    19.10 Bohr mag/cell

     iteration # 42     ecut=    40.00 Ry     beta=0.70
     Davidson diagonalization with overlap
     ethr =  1.66E-09,  avg # of iterations =  1.0

     negative rho (up, down):  0.495E-02 0.182E-02

     total cpu time spent up to now is    11594.3 secs

     total energy              =   -1993.44436822 Ry
     Harris-Foulkes estimate   =   -1993.44436856 Ry
     estimated scf accuracy    <       0.00000370 Ry

     total magnetization       =    16.00 Bohr mag/cell
     absolute magnetization    =    19.10 Bohr mag/cell

     iteration # 43     ecut=    40.00 Ry     beta=0.70
     Davidson diagonalization with overlap
     ethr =  1.65E-09,  avg # of iterations =  1.0

     negative rho (up, down):  0.495E-02 0.182E-02

     total cpu time spent up to now is    11849.8 secs

     total energy              =   -1993.44436818 Ry
     Harris-Foulkes estimate   =   -1993.44436880 Ry
     estimated scf accuracy    <       0.00000588 Ry

     total magnetization       =    16.00 Bohr mag/cell
     absolute magnetization    =    19.10 Bohr mag/cell

     iteration # 44     ecut=    40.00 Ry     beta=0.70
     Davidson diagonalization with overlap
     ethr =  1.65E-09,  avg # of iterations =  1.0

     negative rho (up, down):  0.495E-02 0.182E-02

     total cpu time spent up to now is    12110.0 secs

     total energy              =   -1993.44436842 Ry
     Harris-Foulkes estimate   =   -1993.44436856 Ry
     estimated scf accuracy    <       0.00000140 Ry

     total magnetization       =    16.00 Bohr mag/cell
     absolute magnetization    =    19.10 Bohr mag/cell

     iteration # 45     ecut=    40.00 Ry     beta=0.70
     Davidson diagonalization with overlap
     ethr =  6.27E-10,  avg # of iterations =  1.0

     negative rho (up, down):  0.495E-02 0.182E-02

     total cpu time spent up to now is    12365.4 secs

     total energy              =   -1993.44436843 Ry
     Harris-Foulkes estimate   =   -1993.44436856 Ry
     estimated scf accuracy    <       0.00000114 Ry

     total magnetization       =    16.00 Bohr mag/cell
     absolute magnetization    =    19.10 Bohr mag/cell

     iteration # 46     ecut=    40.00 Ry     beta=0.70
     Davidson diagonalization with overlap
     ethr =  5.10E-10,  avg # of iterations =  1.0

     negative rho (up, down):  0.495E-02 0.182E-02

     total cpu time spent up to now is    12615.5 secs

     total energy              =   -1993.44436838 Ry
     Harris-Foulkes estimate   =   -1993.44436863 Ry
     estimated scf accuracy    <       0.00000254 Ry

     total magnetization       =    16.00 Bohr mag/cell
     absolute magnetization    =    19.10 Bohr mag/cell

     iteration # 47     ecut=    40.00 Ry     beta=0.70
     Davidson diagonalization with overlap
     ethr =  5.10E-10,  avg # of iterations =  1.0

     negative rho (up, down):  0.495E-02 0.182E-02

     total cpu time spent up to now is    12864.6 secs

     total energy              =   -1993.44436837 Ry
     Harris-Foulkes estimate   =   -1993.44436865 Ry
     estimated scf accuracy    <       0.00000251 Ry

     total magnetization       =    16.00 Bohr mag/cell
     absolute magnetization    =    19.10 Bohr mag/cell

     iteration # 48     ecut=    40.00 Ry     beta=0.70
     Davidson diagonalization with overlap
     ethr =  5.10E-10,  avg # of iterations =  1.0

     negative rho (up, down):  0.495E-02 0.182E-02

     total cpu time spent up to now is    13107.6 secs

     End of self-consistent calculation
 --- enter write_ns ---
 LDA+U parameters:
U( 2)     =  0.50000000
alpha( 2) =  0.00000000
atom    3   Tr[ns(na)] (up, down, total) =   3.51151  1.18412  4.69563
   spin  1
    eigenvalues: 
  0.456  0.500  0.697  0.897  0.962
    eigenvectors:
  0.000  0.228  0.003  0.000  0.769
  0.999  0.000  0.000  0.001  0.000
  0.000  0.000  0.995  0.000  0.004
  0.000  0.772  0.001  0.000  0.227
  0.001  0.000  0.000  0.999  0.000
    occupations:
  0.856 -0.000  0.016 -0.194 -0.000
 -0.000  0.457 -0.000 -0.000 -0.011
  0.016 -0.000  0.698 -0.008  0.001
 -0.194 -0.000 -0.008  0.605 -0.000
 -0.000 -0.011  0.001 -0.000  0.896
   spin  2
    eigenvalues: 
  0.117  0.146  0.187  0.353  0.382
    eigenvectors:
  0.763  0.000  0.014  0.000  0.223
  0.000  0.003  0.000  0.997  0.000
  0.014  0.000  0.985  0.000  0.001
  0.222  0.000  0.001  0.000  0.776
  0.000  0.997  0.000  0.003  0.000
    occupations:
  0.177 -0.000 -0.005  0.110 -0.000
 -0.000  0.352 -0.000 -0.000  0.011
 -0.005 -0.000  0.186  0.008  0.000
  0.110 -0.000  0.008  0.323 -0.000
 -0.000  0.011  0.000 -0.000  0.146
atomic mag. moment =     2.327390
atom    4   Tr[ns(na)] (up, down, total) =   3.36558  1.34082  4.70640
   spin  1
    eigenvalues: 
  0.480  0.524  0.598  0.787  0.977
    eigenvectors:
  0.001  0.995  0.001  0.001  0.003
  0.000  0.001  0.013  0.986  0.000
  0.000  0.001  0.986  0.013  0.000
  0.000  0.003  0.000  0.000  0.997
  0.999  0.001  0.000  0.000  0.000
    occupations:
  0.525 -0.008 -0.003  0.023  0.001
 -0.008  0.785  0.021  0.001  0.001
 -0.003  0.021  0.601  0.002 -0.000
  0.023  0.001  0.002  0.976  0.000
  0.001  0.001 -0.000  0.000  0.480
   spin  2
    eigenvalues: 
  0.129  0.176  0.230  0.386  0.419
    eigenvectors:
  0.002  0.004  0.000  0.000  0.994
  0.001  0.966  0.029  0.000  0.004
  0.000  0.029  0.971  0.000  0.000
  0.997  0.001  0.000  0.000  0.002
  0.000  0.000  0.000  1.000  0.000
    occupations:
  0.418  0.015  0.003 -0.013  0.001
  0.015  0.179 -0.009  0.001 -0.000
  0.003 -0.009  0.229  0.000 -0.000
 -0.013  0.001  0.000  0.130 -0.000
  0.001 -0.000 -0.000 -0.000  0.386
atomic mag. moment =     2.024757
atom    9   Tr[ns(na)] (up, down, total) =   3.28121  1.49015  4.77136
   spin  1
    eigenvalues: 
  0.520  0.530  0.683  0.760  0.788
    eigenvectors:
  0.001  0.181  0.001  0.811  0.005
  0.994  0.006  0.000  0.000  0.000
  0.000  0.000  0.998  0.001  0.000
  0.005  0.813  0.000  0.181  0.001
  0.000  0.000  0.000  0.007  0.993
    occupations:
  0.718  0.001 -0.003 -0.089  0.002
  0.001  0.520  0.002  0.000  0.000
 -0.003  0.002  0.683  0.001 -0.000
 -0.089  0.000  0.001  0.572 -0.001
  0.002  0.000 -0.000 -0.001  0.787
   spin  2
    eigenvalues: 
  0.213  0.215  0.219  0.418  0.427
    eigenvectors:
  0.833  0.021  0.001  0.146  0.000
  0.000  0.000  0.000  0.001  0.999
  0.024  0.976  0.000  0.000  0.000
  0.142  0.004  0.000  0.853  0.001
  0.001  0.000  0.999  0.000  0.000
    occupations:
  0.243 -0.000  0.000  0.072 -0.000
 -0.000  0.427 -0.000 -0.000  0.000
  0.000 -0.000  0.214 -0.000  0.000
  0.072 -0.000 -0.000  0.388  0.000
 -0.000  0.000  0.000  0.000  0.219
atomic mag. moment =     1.791056
atom   10   Tr[ns(na)] (up, down, total) =   3.52218  1.15696  4.67914
   spin  1
    eigenvalues: 
  0.472  0.479  0.748  0.861  0.962
    eigenvectors:
  0.000  0.998  0.000  0.000  0.002
  0.000  0.000  0.000  1.000  0.000
  0.000  0.000  1.000  0.000  0.000
  0.000  0.002  0.000  0.000  0.998
  1.000  0.000  0.000  0.000  0.000
    occupations:
  0.480  0.000  0.002  0.023 -0.000
  0.000  0.861 -0.001 -0.000 -0.001
  0.002 -0.001  0.749 -0.003  0.000
  0.023 -0.000 -0.003  0.960 -0.000
 -0.000 -0.001  0.000 -0.000  0.472
   spin  2
    eigenvalues: 
  0.116  0.172  0.190  0.312  0.367
    eigenvectors:
  0.006  0.000  0.000  0.994  0.000
  0.000  1.000  0.000  0.000  0.000
  0.000  0.000  1.000  0.000  0.000
  0.994  0.000  0.000  0.006  0.000
  0.000  0.000  0.000  0.000  1.000
    occupations:
  0.311 -0.000 -0.000 -0.015 -0.000
 -0.000  0.172 -0.000 -0.000 -0.000
 -0.000 -0.000  0.190  0.000  0.000
 -0.015 -0.000  0.000  0.118  0.000
 -0.000 -0.000  0.000  0.000  0.367
atomic mag. moment =     2.365229
atom   16   Tr[ns(na)] (up, down, total) =   3.51103  1.18399  4.69503
   spin  1
    eigenvalues: 
  0.456  0.500  0.696  0.896  0.962
    eigenvectors:
  0.000  0.228  0.003  0.000  0.769
  0.999  0.000  0.000  0.001  0.000
  0.000  0.000  0.995  0.000  0.004
  0.000  0.772  0.001  0.000  0.227
  0.001  0.000  0.000  0.999  0.000
    occupations:
  0.856 -0.000  0.016 -0.194 -0.000
 -0.000  0.456 -0.000 -0.000 -0.011
  0.016 -0.000  0.697 -0.008  0.001
 -0.194 -0.000 -0.008  0.605 -0.000
 -0.000 -0.011  0.001 -0.000  0.896
   spin  2
    eigenvalues: 
  0.117  0.146  0.187  0.353  0.382
    eigenvectors:
  0.763  0.000  0.014  0.000  0.223
  0.000  0.003  0.000  0.997  0.000
  0.014  0.000  0.985  0.000  0.001
  0.222  0.000  0.001  0.000  0.776
  0.000  0.997  0.000  0.003  0.000
    occupations:
  0.177 -0.000 -0.005  0.110 -0.000
 -0.000  0.352 -0.000 -0.000  0.011
 -0.005 -0.000  0.186  0.008  0.000
  0.110 -0.000  0.008  0.323 -0.000
 -0.000  0.011  0.000 -0.000  0.146
atomic mag. moment =     2.327037
atom   17   Tr[ns(na)] (up, down, total) =   3.36564  1.34084  4.70649
   spin  1
    eigenvalues: 
  0.480  0.524  0.598  0.787  0.977
    eigenvectors:
  0.001  0.995  0.001  0.001  0.003
  0.000  0.001  0.013  0.986  0.000
  0.000  0.001  0.986  0.013  0.000
  0.000  0.003  0.000  0.000  0.997
  0.999  0.001  0.000  0.000  0.000
    occupations:
  0.525 -0.008 -0.003  0.023  0.001
 -0.008  0.785  0.021  0.001  0.001
 -0.003  0.021  0.601  0.002 -0.000
  0.023  0.001  0.002  0.976  0.000
  0.001  0.001 -0.000  0.000  0.480
   spin  2
    eigenvalues: 
  0.129  0.176  0.230  0.386  0.419
    eigenvectors:
  0.002  0.004  0.000  0.000  0.994
  0.001  0.966  0.029  0.000  0.004
  0.000  0.029  0.971  0.000  0.000
  0.997  0.001  0.000  0.000  0.002
  0.000  0.000  0.000  1.000  0.000
    occupations:
  0.418  0.015  0.003 -0.013  0.001
  0.015  0.179 -0.009  0.001 -0.000
  0.003 -0.009  0.229  0.000 -0.000
 -0.013  0.001  0.000  0.130 -0.000
  0.001 -0.000 -0.000 -0.000  0.386
atomic mag. moment =     2.024799
atom   22   Tr[ns(na)] (up, down, total) =   3.28122  1.49015  4.77137
   spin  1
    eigenvalues: 
  0.520  0.530  0.683  0.760  0.788
    eigenvectors:
  0.001  0.181  0.001  0.811  0.005
  0.994  0.006  0.000  0.000  0.000
  0.000  0.000  0.998  0.001  0.000
  0.005  0.813  0.000  0.181  0.001
  0.000  0.000  0.000  0.007  0.993
    occupations:
  0.718  0.001 -0.003 -0.089  0.002
  0.001  0.520  0.002  0.000  0.000
 -0.003  0.002  0.683  0.001 -0.000
 -0.089  0.000  0.001  0.572 -0.001
  0.002  0.000 -0.000 -0.001  0.787
   spin  2
    eigenvalues: 
  0.213  0.215  0.219  0.418  0.427
    eigenvectors:
  0.833  0.021  0.001  0.146  0.000
  0.000  0.000  0.000  0.001  0.999
  0.024  0.976  0.000  0.000  0.000
  0.142  0.004  0.000  0.853  0.001
  0.001  0.000  0.999  0.000  0.000
    occupations:
  0.243 -0.000  0.000  0.072 -0.000
 -0.000  0.427 -0.000 -0.000  0.000
  0.000 -0.000  0.214 -0.000  0.000
  0.072 -0.000 -0.000  0.388  0.000
 -0.000  0.000  0.000  0.000  0.219
atomic mag. moment =     1.791074
atom   23   Tr[ns(na)] (up, down, total) =   3.52247  1.15703  4.67950
   spin  1
    eigenvalues: 
  0.472  0.479  0.749  0.861  0.962
    eigenvectors:
  0.000  0.998  0.000  0.000  0.002
  0.000  0.000  0.000  1.000  0.000
  0.000  0.000  1.000  0.000  0.000
  0.000  0.002  0.000  0.000  0.998
  1.000  0.000  0.000  0.000  0.000
    occupations:
  0.480  0.000  0.002  0.023 -0.000
  0.000  0.861 -0.001 -0.000 -0.001
  0.002 -0.001  0.749 -0.003  0.000
  0.023 -0.000 -0.003  0.961 -0.000
 -0.000 -0.001  0.000 -0.000  0.472
   spin  2
    eigenvalues: 
  0.116  0.172  0.190  0.312  0.367
    eigenvectors:
  0.006  0.000  0.000  0.994  0.000
  0.000  1.000  0.000  0.000  0.000
  0.000  0.000  1.000  0.000  0.000
  0.994  0.000  0.000  0.006  0.000
  0.000  0.000  0.000  0.000  1.000
    occupations:
  0.311 -0.000 -0.000 -0.015 -0.000
 -0.000  0.172 -0.000 -0.000 -0.000
 -0.000 -0.000  0.190  0.000  0.000
 -0.015 -0.000  0.000  0.118  0.000
 -0.000 -0.000  0.000  0.000  0.367
atomic mag. moment =     2.365440
N of occupied +U levels =  37.7049069
 --- exit write_ns ---

 ------ SPIN UP ------------


          k = 0.0000 0.0000 0.0000 ( 27003 PWs)   bands (ev):

   -75.2311 -75.2157 -75.1623 -75.1480 -75.0503 -75.0361 -75.0272 -75.0127
   -46.6395 -46.6256 -46.6176 -46.5742 -46.5559 -46.5212 -46.5023 -46.4913
   -46.4328 -46.4184 -46.4090 -46.4066 -46.4031 -46.3816 -46.3798 -46.3713
   -46.3435 -46.3334 -46.3315 -46.3177 -46.3136 -46.2948 -46.2563 -46.2353
   -21.4920 -20.9475 -20.8144 -20.5487 -20.3106 -20.2333 -19.9489 -19.8142
   -19.7837 -19.6958 -19.6411 -19.5422 -19.5130 -19.5009 -19.3207 -19.2452
   -19.0251 -18.8812  -9.3867  -9.1047  -8.9730  -8.7987  -8.6515  -8.2053
    -7.9567  -7.9292  -7.9011  -7.8293  -7.8018  -7.7399  -7.6091  -7.3896
    -7.2629  -7.0291  -7.0105  -7.0005  -6.9410  -6.8976  -6.8831  -6.8362
    -6.5860  -6.3018  -6.2003  -5.9983  -5.8197  -5.7801  -5.5714  -5.4536
    -5.3791  -5.3131  -5.2647  -5.1864  -5.1230  -4.9286  -4.8923  -4.8171
    -4.7798  -4.5758  -4.4764  -4.3604  -4.2788  -4.0966  -4.0258  -4.0061
    -3.9171  -3.7778  -3.7554  -3.5924  -3.4500  -3.3213  -3.2681  -3.1645
    -3.1248  -2.8807  -2.8486  -2.8382  -2.6413  -2.4342  -2.3425  -2.3254
    -2.3167  -2.2569  -2.1269  -2.0751  -1.8355  -1.7708  -1.7067  -1.6206
    -1.6084  -1.5343  -1.1519  -1.1129  -1.0923  -0.7286  -0.6950  -0.6936
    -0.5007  -0.2137   0.5421   0.7705   1.1976   1.2730   1.2753   1.4416
     1.4916   1.6129   1.6518   1.8354   2.2171   2.2301   2.3239   2.5537
     3.1707   3.2704   3.6748   4.1548   4.6592   5.4415   6.0032   6.3473
     6.7450   6.9669   7.0782   7.1260   7.1964   7.1973   7.2854   7.5075
     7.5912   7.5914   7.7505   8.0335   8.0456   8.1289   8.1402   8.2998
     8.4279   8.4817   8.5822   8.7334   8.7416   8.8947   9.1867   9.2119
     9.3452   9.3476   9.3559   9.5009   9.6514   9.8214   9.8342   9.9346
    10.1267  10.2477  10.2544  10.4597  10.6161  10.6239  11.0197  11.0264
    11.1073  11.1780  11.2613  11.2838  11.3324  11.3394  11.4962  11.4996
    11.6110  11.7657  11.8488  11.9840  12.0024  12.0232  12.0336  12.1277
    12.2716  12.2867  12.3455  12.4034  12.4399  12.4426  12.5011  12.6096
    12.6768  12.8636  12.9039  12.9350  12.9483  13.0295  13.1102  13.1197
    13.2710  13.2909  13.4195  13.4289  13.5286  13.6765  13.7145  13.8030
    13.8548  14.0240  14.0448  14.2744  14.2799  14.4261  14.4700  14.5151
    14.8088  14.8188  14.8864  14.8876  14.9183  14.9744  15.0047  15.0602
    15.2360  15.2770  15.4151  15.4219  15.4530  15.5477  15.7080  15.8300
    16.0865  16.1046  16.2100  16.3347  16.4188  16.4399  16.6985  16.7476
    16.9070  16.9343  17.0225  17.0421  17.1198  17.1475  17.3190  17.5482
    17.5500  17.6317  17.7641  17.8278  17.8983  18.0706  18.0996  18.1727
    18.2963  18.3524  18.4840  18.4884  18.6993  18.7551  18.8031  18.8368
    18.9254  18.9698  19.0293  19.2007  19.2374  19.3207  19.3359  19.4322
    19.5115  19.6139  19.6722  19.7295  19.7562  19.8650  19.8925  19.9388
    20.0777  20.1917  20.1994  20.3568  20.3671  20.4326  20.4780  20.4950
    20.5885  20.8123  20.9596  21.0156  21.0688  21.1435  21.1639  21.1828
    21.2794  21.3237  21.3256  21.4498

          k = 0.0000 0.2341 0.0000 ( 27088 PWs)   bands (ev):

   -75.2311 -75.2157 -75.1623 -75.1480 -75.0503 -75.0361 -75.0273 -75.0127
   -46.6396 -46.6255 -46.6179 -46.5718 -46.5590 -46.5213 -46.4991 -46.4914
   -46.4327 -46.4189 -46.4150 -46.4064 -46.4005 -46.3796 -46.3755 -46.3712
   -46.3434 -46.3335 -46.3318 -46.3188 -46.3177 -46.2944 -46.2558 -46.2358
   -21.4275 -20.8476 -20.8114 -20.5474 -20.3434 -20.2305 -19.9475 -19.9465
   -19.8173 -19.7734 -19.6406 -19.5754 -19.4606 -19.4207 -19.3955 -19.2449
   -19.0275 -18.8768  -9.3411  -8.9131  -8.7669  -8.6706  -8.6062  -8.2972
    -8.2127  -7.8737  -7.8519  -7.7769  -7.7254  -7.6227  -7.4598  -7.2483
    -7.1833  -7.0053  -6.9873  -6.9793  -6.8680  -6.8450  -6.8321  -6.5588
    -6.4310  -6.3996  -6.2555  -6.1441  -6.0638  -6.0567  -5.7898  -5.7659
    -5.4557  -5.3132  -5.2789  -5.2023  -5.0626  -4.9701  -4.9418  -4.7899
    -4.6736  -4.5660  -4.5238  -4.4863  -4.4064  -4.3052  -4.2972  -4.2417
    -4.1001  -3.9102  -3.6809  -3.6250  -3.5493  -3.3569  -3.1859  -2.9231
    -2.7993  -2.7681  -2.7067  -2.6214  -2.5922  -2.4337  -2.4283  -2.3744
    -2.3005  -2.2814  -2.2723  -2.1380  -2.0627  -1.9593  -1.8194  -1.6591
    -1.5121  -1.2147  -1.1594  -1.0684  -0.9505  -0.7719  -0.7330  -0.6762
    -0.6263   0.0124   0.3798   0.5272   0.5726   1.0920   1.2840   1.4909
     1.6622   1.7182   2.0619   2.2749   2.3065   2.3388   2.4516   2.4523
     3.4421   3.4978   3.9243   4.3801   4.8881   5.3425   5.5744   5.7887
     6.0082   6.2750   6.4871   6.9198   7.0207   7.0869   7.3464   7.3550
     7.5766   7.7375   7.8335   8.2204   8.2663   8.2838   8.3578   8.5150
     8.5478   8.7690   8.7991   8.9377   9.0172   9.2080   9.2206   9.4962
     9.5133   9.6216   9.6382   9.7810  10.0048  10.0232  10.0621  10.0976
    10.1068  10.1866  10.2428  10.2438  10.3458  10.3953  10.5819  10.6260
    10.7059  10.7663  10.9808  11.0412  11.1856  11.3040  11.3341  11.3355
    11.4721  11.4844  11.5395  11.6433  11.7457  11.8218  11.8815  12.2640
    12.3014  12.3543  12.4980  12.5737  12.6684  12.7013  12.8075  12.8236
    12.8394  13.0056  13.1996  13.3232  13.3287  13.5248  13.5899  13.6224
    13.6589  13.7745  13.9272  13.9333  14.0461  14.0718  14.1845  14.2071
    14.3226  14.3265  14.3756  14.4683  14.5106  14.5228  14.5874  14.6149
    14.8486  14.8498  14.9895  15.0305  15.0406  15.0644  15.1713  15.1916
    15.3468  15.3667  15.4493  15.4620  15.5344  15.5853  15.7783  15.8503
    15.8719  15.8881  16.0063  16.0683  16.1498  16.2042  16.3993  16.4265
    16.5504  16.5805  16.8022  16.8904  16.9294  17.0529  17.0863  17.2077
    17.2526  17.3078  17.4004  17.4881  17.5909  17.6467  17.7481  17.9933
    18.0196  18.0908  18.1262  18.1390  18.3894  18.5726  18.5995  18.6545
    18.8482  18.9368  18.9508  18.9778  19.0332  19.1506  19.1698  19.2038
    19.2781  19.5496  19.6088  19.6547  19.7385  19.9033  19.9327  19.9574
    20.0850  20.1444  20.1700  20.1835  20.2298  20.2959  20.3775  20.4563
    20.4813  20.6484  20.6541  20.7279  20.7745  20.8052  20.8830  20.9297
    20.9747  21.0867  21.2135  21.2287

          k = 0.0000-0.4682 0.0000 ( 27136 PWs)   bands (ev):

   -75.2311 -75.2157 -75.1623 -75.1480 -75.0502 -75.0361 -75.0273 -75.0128
   -46.6397 -46.6253 -46.6182 -46.5692 -46.5618 -46.5213 -46.4961 -46.4915
   -46.4326 -46.4197 -46.4192 -46.4088 -46.3947 -46.3793 -46.3710 -46.3710
   -46.3434 -46.3336 -46.3325 -46.3244 -46.3177 -46.2939 -46.2552 -46.2364
   -21.3532 -20.8084 -20.6821 -20.6023 -20.3262 -20.2276 -20.1817 -19.9431
   -19.8473 -19.7691 -19.6417 -19.5907 -19.4888 -19.4291 -19.3695 -19.2447
   -19.0299 -18.8741  -9.3097  -9.0005  -8.5703  -8.5025  -8.2878  -8.2559
    -8.2332  -7.8332  -7.7951  -7.6767  -7.5564  -7.4524  -7.3679  -7.3468
    -7.0248  -6.9999  -6.9640  -6.8835  -6.8119  -6.7705  -6.7434  -6.6323
    -6.5508  -6.5130  -6.3470  -6.3451  -6.2834  -5.9891  -5.9549  -5.8354
    -5.6840  -5.4814  -5.3191  -5.2856  -5.2771  -5.1204  -4.9479  -4.8437
    -4.7923  -4.6505  -4.5579  -4.5298  -4.4388  -4.4317  -4.1134  -4.1055
    -4.0557  -3.8040  -3.7535  -3.7422  -3.5469  -3.2419  -3.0616  -2.9324
    -2.8768  -2.8329  -2.8281  -2.7255  -2.7195  -2.5769  -2.4995  -2.4333
    -2.3157  -2.3082  -2.2698  -1.9235  -1.8474  -1.7137  -1.6627  -1.5710
    -1.4491  -1.3772  -1.3217  -1.2016  -0.8649  -0.8616  -0.7910  -0.5782
    -0.5331   0.0382   0.1268   0.2120   0.5961   1.2951   1.4036   1.4716
     1.4943   1.8768   1.8825   2.2394   2.3360   2.3485   2.7849   2.8131
     3.9110   4.0050   4.3935   4.5223   4.6571   4.8311   5.0927   5.3397
     5.6797   5.9628   6.4052   6.7536   7.0256   7.1176   7.2340   7.3949
     7.7082   7.8560   7.8790   7.9588   8.0125   8.2267   8.5779   8.7534
     8.8931   8.9555   8.9939   9.0373   9.0490   9.1199   9.2131   9.3938
     9.4173   9.4835   9.5107   9.5846   9.6533   9.7675   9.8384   9.9373
    10.0349  10.1845  10.2545  10.3685  10.5702  10.6218  10.7585  10.9400
    10.9460  10.9890  10.9903  11.1201  11.1339  11.3958  11.5257  11.5629
    11.7116  11.8579  11.9401  11.9508  12.0100  12.1160  12.1868  12.3717
    12.3732  12.4417  12.5739  12.6631  12.6808  12.7643  12.8104  12.8905
    12.9916  13.1177  13.2525  13.2838  13.3579  13.3635  13.4904  13.5122
    13.5670  13.6514  13.7340  13.8373  13.9908  14.0847  14.1713  14.2135
    14.2960  14.3268  14.4155  14.5111  14.5852  14.5887  14.6311  14.6965
    14.7814  14.8066  14.9573  14.9887  15.2181  15.2993  15.3337  15.3688
    15.4742  15.4896  15.5836  15.7556  15.8677  15.9216  15.9438  15.9521
    15.9828  16.2607  16.2766  16.3918  16.5125  16.5588  16.6125  16.6843
    16.7820  16.8533  16.8629  16.9450  16.9965  17.0204  17.0626  17.0994
    17.2423  17.3928  17.4027  17.5344  17.5856  17.6825  17.7501  17.8191
    17.8727  17.9159  18.0669  18.0869  18.2029  18.2056  18.2294  18.3158
    18.4119  18.4295  18.4472  18.4556  18.4946  18.5592  18.7302  18.7812
    18.8024  18.9436  18.9881  19.1254  19.1383  19.2229  19.2609  19.3749
    19.5543  19.6509  19.7709  19.8966  19.9531  20.0341  20.0973  20.1477
    20.2363  20.3005  20.3278  20.3676  20.5361  20.6404  20.7366  20.7655
    20.8301  20.8750  20.9393  21.0665

          k = 0.2500 0.0000 0.0000 ( 27178 PWs)   bands (ev):

   -75.2288 -75.2180 -75.1602 -75.1500 -75.0482 -75.0381 -75.0251 -75.0148
   -46.6374 -46.6274 -46.5914 -46.5715 -46.5585 -46.5176 -46.4956 -46.4776
   -46.4596 -46.4030 -46.3997 -46.3952 -46.3853 -46.3842 -46.3832 -46.3681
   -46.3576 -46.3474 -46.3299 -46.3193 -46.3111 -46.2976 -46.2803 -46.2604
   -21.3767 -20.8755 -20.8461 -20.4710 -20.3725 -20.2746 -20.0565 -19.9061
   -19.7542 -19.6218 -19.6199 -19.5448 -19.5204 -19.4876 -19.3495 -19.2722
   -19.0428 -18.9152  -9.2356  -8.9446  -8.8279  -8.8238  -8.4378  -8.1275
    -8.0217  -7.9088  -7.8855  -7.8715  -7.7506  -7.7261  -7.6514  -7.3977
    -7.3485  -7.3074  -7.1306  -6.9950  -6.9756  -6.8627  -6.8026  -6.6784
    -6.6177  -6.1385  -6.0709  -5.9989  -5.7599  -5.7062  -5.6206  -5.5035
    -5.4211  -5.3398  -5.2635  -5.2456  -5.2068  -5.0639  -4.9857  -4.8229
    -4.7516  -4.6994  -4.6002  -4.5517  -4.3728  -4.2140  -4.1700  -4.1316
    -4.1053  -4.0476  -3.9078  -3.7175  -3.5218  -3.2635  -3.2388  -3.1344
    -3.0190  -2.7854  -2.7091  -2.6369  -2.5244  -2.4304  -2.3439  -2.2985
    -2.2404  -2.1211  -1.9913  -1.9203  -1.8716  -1.7825  -1.7295  -1.5751
    -1.5058  -1.2865  -1.2595  -1.1969  -1.0948  -0.7977  -0.7831  -0.5973
    -0.4934  -0.1484   0.6737   0.8773   1.1175   1.2020   1.2246   1.3487
     1.4433   1.6401   1.6933   1.7108   1.8995   1.9829   2.2273   2.5564
     3.4919   3.5759   3.9686   4.4431   4.9663   5.5306   5.6604   5.7145
     6.1721   6.2902   6.5618   6.6885   7.0689   7.3579   7.3876   7.4605
     7.5185   7.5891   7.7925   7.8661   8.0377   8.0423   8.3275   8.4284
     8.6157   8.7113   8.8191   8.9781   9.0380   9.2127   9.3414   9.3859
     9.4648   9.6824   9.6841   9.7937   9.8973   9.9135   9.9745   9.9855
    10.0255  10.1457  10.2399  10.3832  10.4838  10.5182  10.5211  10.6445
    10.8792  10.8967  10.9163  11.1783  11.2741  11.2930  11.3783  11.4062
    11.4376  11.5708  11.6164  11.7480  11.7592  11.8289  12.0110  12.1692
    12.2754  12.3997  12.5170  12.5309  12.6287  12.6618  12.7454  12.8216
    12.8664  13.0070  13.1122  13.2446  13.2490  13.3229  13.4210  13.4821
    13.6373  13.7241  13.8556  13.9353  13.9944  14.1363  14.3404  14.3906
    14.4236  14.4523  14.4818  14.4941  14.6037  14.6443  14.7649  14.7815
    14.8115  14.9212  14.9695  15.1375  15.2276  15.2469  15.2895  15.3136
    15.4374  15.5351  15.6350  15.7228  15.7403  15.8078  15.9635  16.0103
    16.0694  16.2664  16.2817  16.3673  16.4468  16.5204  16.5788  16.7222
    16.7646  16.8735  16.9231  16.9308  17.0967  17.1785  17.2380  17.2480
    17.4464  17.5042  17.5278  17.5599  17.6094  17.7049  17.7550  17.8474
    17.9679  17.9796  18.0015  18.2721  18.4398  18.5083  18.6219  18.7509
    18.7612  18.8502  18.9015  18.9592  19.0018  19.0657  19.1837  19.2577
    19.4954  19.5311  19.5667  19.6417  19.6428  19.6796  19.6999  19.7525
    19.8943  19.8975  20.0248  20.0954  20.1508  20.2386  20.3312  20.4115
    20.4588  20.5532  20.6001  20.6397  20.7183  20.7654  20.8115  21.0287
    21.0680  21.1360  21.1818  21.2327

          k = 0.2500 0.2341 0.0000 ( 27132 PWs)   bands (ev):

   -75.2288 -75.2179 -75.1602 -75.1500 -75.0482 -75.0381 -75.0251 -75.0148
   -46.6375 -46.6274 -46.5916 -46.5695 -46.5600 -46.5176 -46.4955 -46.4758
   -46.4596 -46.4025 -46.3981 -46.3976 -46.3948 -46.3835 -46.3717 -46.3680
   -46.3575 -46.3474 -46.3301 -46.3194 -46.3156 -46.2977 -46.2796 -46.2608
   -21.3220 -20.8696 -20.7551 -20.4441 -20.3508 -20.3143 -20.0275 -19.8766
   -19.8761 -19.7248 -19.6803 -19.6303 -19.4535 -19.4382 -19.4058 -19.2690
   -19.0407 -18.9106  -9.2050  -8.8452  -8.6018  -8.5059  -8.4129  -8.1119
    -8.0338  -7.8498  -7.8416  -7.8050  -7.7746  -7.6823  -7.4874  -7.3972
    -7.2313  -7.2271  -7.1081  -7.0041  -6.8975  -6.8615  -6.6775  -6.6550
    -6.5897  -6.2690  -6.2010  -6.1106  -5.8194  -5.7982  -5.6814  -5.6492
    -5.6177  -5.5278  -5.4582  -5.3310  -5.3172  -5.2083  -5.1205  -4.9992
    -4.8388  -4.7584  -4.6894  -4.5498  -4.4229  -4.3725  -4.3116  -4.1738
    -4.1271  -3.9245  -3.8348  -3.5929  -3.5543  -3.2148  -3.1653  -3.0464
    -2.8625  -2.6997  -2.6067  -2.5325  -2.4402  -2.3887  -2.3644  -2.2743
    -2.2100  -2.1611  -2.1160  -2.0682  -1.9044  -1.8367  -1.7660  -1.5969
    -1.3393  -1.2661  -1.2191  -1.1978  -1.0031  -0.8724  -0.8503  -0.7536
    -0.3813   0.0454   0.4638   0.6418   0.7196   1.1076   1.1972   1.2517
     1.3726   1.6940   1.9055   1.9844   2.0338   2.3684   2.4260   2.5236
     3.7426   3.7902   4.2110   4.6625   5.1733   5.6018   5.7218   5.8146
     5.8513   6.0813   6.2923   6.3961   6.5873   6.7531   6.7941   7.1604
     7.3088   7.4924   7.6416   7.8822   7.9047   8.1506   8.2383   8.3512
     8.5200   8.6568   8.8405   8.8763   9.0625   9.1360   9.1476   9.3742
     9.3967   9.5608   9.6532   9.7936   9.9495  10.0057  10.0991  10.2169
    10.3261  10.3569  10.4540  10.5531  10.7371  10.8468  10.9761  11.0006
    11.0832  11.2749  11.3386  11.3803  11.4667  11.4982  11.6088  11.6846
    11.7705  11.7784  11.9949  12.0360  12.1083  12.2085  12.2432  12.4561
    12.5253  12.5370  12.6854  12.7215  12.7800  12.8205  12.8622  12.9030
    12.9776  13.0661  13.1376  13.1702  13.3580  13.4308  13.4415  13.6232
    13.7129  13.7144  13.8392  13.8657  13.9488  14.0335  14.1477  14.2247
    14.3547  14.3805  14.4451  14.4872  14.5661  14.6848  14.7002  14.7423
    14.9093  15.0117  15.0291  15.0519  15.1176  15.2122  15.4018  15.4083
    15.5026  15.5362  15.7198  15.7455  15.7699  15.8798  15.9733  16.0241
    16.1109  16.1700  16.2179  16.3268  16.4036  16.4749  16.6356  16.6848
    16.7315  16.7360  16.7830  16.9129  16.9838  17.0704  17.1686  17.1808
    17.2671  17.3143  17.3804  17.4442  17.4789  17.5096  17.6118  17.6216
    17.7607  17.8214  17.9069  17.9359  18.0827  18.1158  18.1755  18.1804
    18.2757  18.4430  18.4439  18.5537  18.6512  18.7346  18.8283  18.8340
    18.9569  18.9700  19.1209  19.1839  19.2912  19.3091  19.3785  19.4152
    19.4903  19.5221  19.6077  19.6364  19.7045  19.7944  19.8455  19.9684
    19.9730  20.1434  20.2478  20.3070  20.3836  20.4179  20.4620  20.6293
    20.6424  20.7335  20.9032  20.9472

          k = 0.2500-0.4682 0.0000 ( 27150 PWs)   bands (ev):

   -75.2288 -75.2179 -75.1602 -75.1500 -75.0481 -75.0381 -75.0251 -75.0148
   -46.6376 -46.6274 -46.5918 -46.5675 -46.5614 -46.5176 -46.4955 -46.4740
   -46.4597 -46.4043 -46.4026 -46.3959 -46.3932 -46.3836 -46.3679 -46.3656
   -46.3575 -46.3473 -46.3305 -46.3208 -46.3193 -46.2981 -46.2790 -46.2609
   -21.2617 -20.8632 -20.5864 -20.5209 -20.3278 -20.2373 -20.1366 -19.9888
   -19.7903 -19.7603 -19.7465 -19.7089 -19.5256 -19.4352 -19.3677 -19.2664
   -19.0389 -18.9075  -9.1774  -8.8805  -8.3615  -8.2010  -8.1294  -8.0679
    -8.0389  -7.8501  -7.8290  -7.7201  -7.5544  -7.4985  -7.3377  -7.1915
    -7.1791  -7.1646  -7.1514  -6.9866  -6.9757  -6.8533  -6.7098  -6.6267
    -6.4867  -6.3980  -6.3702  -6.2383  -6.0957  -6.0431  -5.9710  -5.8192
    -5.7262  -5.7035  -5.6250  -5.5942  -5.4028  -5.2707  -5.1986  -5.1437
    -4.9713  -4.9440  -4.6516  -4.5616  -4.5357  -4.4083  -4.2218  -4.0308
    -3.8821  -3.7797  -3.6248  -3.6099  -3.4176  -3.2519  -3.2288  -2.9813
    -2.9230  -2.7979  -2.7056  -2.6647  -2.5489  -2.4415  -2.3605  -2.3143
    -2.2191  -2.1725  -2.0962  -1.8388  -1.7348  -1.6299  -1.5228  -1.5009
    -1.4205  -1.3688  -1.2269  -1.1877  -1.1713  -0.9558  -0.9124  -0.6635
    -0.2910   0.1208   0.2073   0.2338   0.7375   1.0903   1.2093   1.2835
     1.3640   1.4793   1.9554   2.1239   2.2026   2.4163   2.6730   2.7462
     4.1614   4.2713   4.6730   4.8015   4.9312   5.1159   5.3681   5.6309
     5.9526   6.0309   6.0564   6.2691   6.6887   6.7380   6.9742   7.0689
     7.1070   7.2739   7.3413   7.4733   7.7478   7.7678   7.9993   8.1886
     8.3448   8.3891   8.5903   8.6058   8.9146   9.0243   9.2745   9.2789
     9.3023   9.4883   9.7526   9.8625   9.9046  10.1065  10.1717  10.3335
    10.4566  10.6198  10.8528  10.9659  11.1828  11.2982  11.3165  11.4535
    11.5556  11.6442  11.7094  11.7271  11.8366  11.8376  11.8848  11.9863
    12.0233  12.2444  12.2608  12.2746  12.4270  12.4712  12.6277  12.6281
    12.7051  12.7848  12.8172  12.8277  12.9083  12.9531  13.0510  13.1441
    13.1727  13.1757  13.4056  13.4729  13.5011  13.5569  13.6436  13.6655
    13.7049  13.8147  13.8493  13.9384  13.9676  14.0147  14.1530  14.1860
    14.2015  14.2640  14.3404  14.6185  14.6552  14.7114  14.8025  14.8283
    14.8680  14.9187  14.9375  14.9969  15.1011  15.1503  15.1876  15.2398
    15.2461  15.2924  15.3369  15.4282  15.4742  15.4766  15.6094  15.6585
    15.7405  15.7630  15.8479  15.8693  16.0890  16.2161  16.2424  16.2480
    16.4093  16.4180  16.5196  16.5995  16.6625  16.7841  16.8475  16.9958
    17.0431  17.1829  17.3860  17.4295  17.4912  17.5399  17.6103  17.6807
    17.8126  17.8249  17.9867  18.0240  18.0642  18.1931  18.2420  18.2947
    18.3271  18.3938  18.4904  18.5047  18.5913  18.6499  18.6843  18.7763
    18.8025  18.8569  18.9257  18.9617  19.2207  19.2948  19.3065  19.3200
    19.3725  19.3762  19.5027  19.5399  19.5933  19.7187  19.7364  19.8044
[...]
    -5.1874  -5.1873  -4.9436  -4.9435  -4.7321  -4.7321  -4.6905  -4.6904
    -4.5615  -4.5614  -4.5469  -4.5469  -4.2538  -4.2536  -4.1044  -4.1044
    -3.9546  -3.9545  -3.4070  -3.4069  -3.2171  -3.2170  -3.0952  -3.0951
    -0.3694  -0.3694  -0.0089  -0.0089   0.0287   0.0288   0.0895   0.0896
     0.2422   0.2423   0.3106   0.3106   0.3442   0.3443   0.4729   0.4729
     0.6291   0.6291   0.7524   0.7525   0.8090   0.8090   1.1151   1.1152
     1.3782   1.3782   2.1256   2.1257   2.2617   2.2618   2.5602   2.5603
     2.6545   2.6546   2.8146   2.8148   2.9834   2.9834   3.4640   3.4642
     4.3875   4.3875   4.5044   4.5044   4.8659   4.8659   5.3208   5.3208
     5.8912   5.8912   6.5506   6.5507   7.1169   7.1170   7.6031   7.6033
     8.1737   8.1738   8.2142   8.2142   8.2931   8.2932   8.4823   8.4823
     8.6606   8.6606   8.6965   8.6965   8.8732   8.8733   9.1587   9.1587
     9.2884   9.2885   9.5136   9.5136   9.8104   9.8104  10.1161  10.1162
    10.2132  10.2133  10.4357  10.4357  10.6114  10.6114  10.9160  10.9160
    11.1005  11.1005  11.3128  11.3129  11.5494  11.5494  11.7463  11.7464
    11.9292  11.9292  11.9892  11.9892  12.3308  12.3308  12.5729  12.5730
    12.7368  12.7368  12.8662  12.8662  13.0515  13.0516  13.2514  13.2515
    13.3556  13.3557  13.5968  13.5969  13.7127  13.7127  13.7457  13.7457
    14.1268  14.1269  14.2151  14.2152  14.3252  14.3252  14.4208  14.4209
    14.7993  14.7993  14.8783  14.8783  15.0308  15.0308  15.1394  15.1394
    15.2345  15.2345  15.3005  15.3006  15.4331  15.4332  15.7425  15.7425
    15.8617  15.8618  16.1481  16.1482  16.1876  16.1877  16.4911  16.4912
    16.6706  16.6706  16.8184  16.8184  17.0053  17.0053  17.2266  17.2267
    17.3247  17.3248  17.4379  17.4379  17.5262  17.5262  17.5453  17.5453
    17.5910  17.5910  17.6385  17.6386  17.7761  17.7762  17.9491  17.9491
    18.0164  18.0164  18.0976  18.0976  18.2290  18.2291  18.5363  18.5363
    18.6195  18.6195  18.7641  18.7641  19.0706  19.0707  19.1255  19.1255
    19.2070  19.2070  19.2410  19.2410  19.4266  19.4266  19.6291  19.6292
    19.7253  19.7254  19.9700  19.9700  20.0804  20.0804  20.2826  20.2826
    20.3057  20.3057  20.4168  20.4169  20.4521  20.4521  20.5783  20.5783
    20.6656  20.6657  20.6924  20.6925

          k =-0.5000 0.2341 0.0000 ( 27132 PWs)   bands (ev):

   -73.2008 -73.2007 -72.7760 -72.7758 -72.5402 -72.5400 -72.4849 -72.4848
   -44.5971 -44.5970 -44.5518 -44.5518 -44.5295 -44.5295 -44.3962 -44.3958
   -44.1912 -44.1910 -44.1009 -44.0981 -44.0396 -44.0356 -43.9019 -43.9018
   -43.8875 -43.8863 -43.8227 -43.8225 -43.7645 -43.7644 -43.6363 -43.6362
   -21.0678 -21.0670 -20.6022 -20.6017 -20.2798 -20.2786 -20.2103 -20.2094
   -19.7936 -19.7935 -19.6904 -19.6858 -19.5621 -19.5576 -19.4916 -19.4914
   -19.1963 -19.1961  -8.7123  -8.7047  -7.8453  -7.8366  -7.8121  -7.7851
    -7.6434  -7.6198  -7.4854  -7.4710  -7.2823  -7.2776  -7.1303  -7.1160
    -7.0322  -7.0095  -6.7422  -6.7239  -6.4194  -6.4132  -6.3237  -6.2491
    -6.1252  -6.0610  -5.8817  -5.8613  -5.7778  -5.7340  -5.6159  -5.6131
    -5.2750  -5.2598  -5.0895  -5.0881  -4.9808  -4.9382  -4.8853  -4.8840
    -4.7560  -4.7327  -4.5296  -4.5264  -4.2251  -4.1836  -3.9633  -3.9134
    -3.8296  -3.8242  -3.4503  -3.4253  -3.2853  -3.2588  -3.0285  -2.9451
    -0.4492  -0.4438  -0.0795  -0.0704   0.0376   0.0386   0.0960   0.0967
     0.2865   0.2951   0.4147   0.4151   0.4876   0.4878   0.5307   0.5363
     0.5715   0.5737   0.7523   0.7564   0.9655   0.9701   1.0718   1.0822
     1.4995   1.4997   2.1270   2.1272   2.1893   2.1910   2.3411   2.3452
     2.4130   2.4131   2.7740   2.7815   3.2556   3.2563   3.5588   3.5637
     4.6075   4.6115   4.7032   4.7033   5.0894   5.0904   5.5296   5.5297
     6.0346   6.0441   6.3915   6.4127   6.6808   6.6872   6.9548   6.9602
     7.1214   7.1334   7.4867   7.5078   7.6825   7.7120   8.1650   8.1977
     8.4962   8.5250   8.7362   8.7381   9.0388   9.0686   9.3538   9.3606
     9.6978   9.7251   9.9013   9.9469  10.3533  10.3626  10.4722  10.4749
    10.6042  10.6062  10.8601  10.8612  11.0019  11.0125  11.2191  11.2212
    11.4435  11.4671  11.5809  11.5858  11.7585  11.7729  11.9589  11.9747
    12.2397  12.2407  12.4309  12.4332  12.6343  12.6375  12.7961  12.8310
    12.9174  12.9176  13.0461  13.0921  13.2026  13.2154  13.4296  13.4401
    13.4935  13.5620  13.7061  13.7566  13.8818  13.8970  13.9960  14.0083
    14.1428  14.1771  14.3455  14.3506  14.4317  14.4574  14.5418  14.5626
    14.6278  14.6391  14.8174  14.8400  14.9604  14.9768  15.0393  15.0438
    15.3349  15.3566  15.4721  15.4911  15.6442  15.6721  15.7817  15.7876
    15.8394  15.8402  15.9126  15.9304  16.0098  16.0221  16.0925  16.0940
    16.1865  16.2079  16.3511  16.3513  16.5350  16.5541  16.5908  16.5944
    16.6766  16.6810  16.7764  16.8148  16.8487  16.8511  16.9659  16.9958
    17.2051  17.2269  17.2807  17.3103  17.3805  17.4111  17.5270  17.5330
    17.6813  17.6816  17.8345  17.8441  17.8655  17.9363  18.0018  18.0259
    18.2616  18.2652  18.4368  18.4473  18.4919  18.4976  18.6418  18.6535
    18.9270  18.9411  19.0547  19.0666  19.2448  19.2787  19.5083  19.5129
    19.6176  19.6179  19.6804  19.6899  19.8339  19.8367  19.9003  19.9111
    19.9864  20.0039  20.1254  20.1337  20.1702  20.1802  20.3843  20.3972
    20.4532  20.4735  20.6769  20.6958

          k =-0.5000-0.4682 0.0000 ( 27168 PWs)   bands (ev):

   -73.2008 -73.2007 -72.7760 -72.7758 -72.5402 -72.5400 -72.4849 -72.4849
   -44.5969 -44.5968 -44.5518 -44.5518 -44.5296 -44.5295 -44.3962 -44.3958
   -44.1912 -44.1910 -44.0940 -44.0937 -44.0444 -44.0444 -43.9019 -43.9018
   -43.8860 -43.8858 -43.8231 -43.8229 -43.7643 -43.7642 -43.6362 -43.6361
   -21.0358 -21.0357 -20.5222 -20.5221 -20.3060 -20.3059 -20.0932 -20.0931
   -19.9966 -19.9966 -19.7056 -19.7056 -19.6104 -19.6104 -19.4657 -19.4657
   -19.1917 -19.1916  -8.6830  -8.6829  -7.7321  -7.7318  -7.6241  -7.6240
    -7.2806  -7.2806  -7.2399  -7.2399  -7.1009  -7.1009  -6.9835  -6.9835
    -6.8822  -6.8822  -6.7205  -6.7205  -6.5857  -6.5857  -6.5043  -6.5042
    -6.2811  -6.2811  -6.1371  -6.1370  -5.8786  -5.8786  -5.7625  -5.7624
    -5.4907  -5.4907  -5.3668  -5.3667  -5.1041  -5.1041  -4.9834  -4.9833
    -4.8545  -4.8545  -4.5300  -4.5299  -4.1229  -4.1229  -3.7179  -3.7179
    -3.6725  -3.6724  -3.4855  -3.4854  -3.3947  -3.3947  -2.8824  -2.8822
    -0.5112  -0.5112  -0.2414  -0.2413   0.0627   0.0627   0.1228   0.1228
     0.3559   0.3559   0.4409   0.4410   0.4929   0.4930   0.6499   0.6499
     0.7105   0.7106   0.8890   0.8891   1.1014   1.1014   1.1256   1.1256
     1.5795   1.5796   1.8184   1.8185   1.9302   1.9303   2.2118   2.2118
     2.3902   2.3902   2.9102   2.9105   3.4934   3.4934   3.5226   3.5227
     5.0559   5.0559   5.0836   5.0837   5.5102   5.5102   5.6403   5.6403
     5.7810   5.7810   5.9610   5.9610   6.2149   6.2149   6.4777   6.4777
     6.8012   6.8013   7.1433   7.1434   7.5399   7.5399   7.9582   7.9582
     8.2548   8.2549   8.7032   8.7032   9.1013   9.1013   9.2705   9.2705
     9.5022   9.5023   9.8280   9.8280  10.1060  10.1061  10.7753  10.7754
    10.9643  10.9644  11.1802  11.1802  11.3100  11.3101  11.7897  11.7897
    12.2055  12.2056  12.4538  12.4538  12.6115  12.6116  12.8284  12.8285
    12.8625  12.8626  12.9921  12.9921  13.1233  13.1234  13.2411  13.2411
    13.5105  13.5105  13.5653  13.5653  13.5939  13.5940  13.6134  13.6134
    13.7148  13.7149  13.8200  13.8200  13.9353  13.9354  14.0253  14.0253
    14.1119  14.1119  14.2853  14.2853  14.4612  14.4612  14.5822  14.5822
    14.6263  14.6263  14.7076  14.7077  14.7238  14.7239  14.7788  14.7789
    14.9007  14.9007  15.0600  15.0601  15.1880  15.1880  15.2330  15.2330
    15.3277  15.3277  15.3991  15.3992  15.5740  15.5741  15.5851  15.5851
    15.7236  15.7237  15.9140  15.9141  15.9447  15.9448  16.1039  16.1039
    16.2313  16.2314  16.3894  16.3894  16.6412  16.6412  16.7552  16.7552
    16.8418  16.8418  17.0035  17.0036  17.0513  17.0513  17.1389  17.1390
    17.2552  17.2552  17.5619  17.5620  17.7605  17.7605  17.8705  17.8705
    17.9573  17.9573  18.0351  18.0351  18.1828  18.1829  18.3704  18.3704
    18.7245  18.7245  18.7613  18.7613  19.0232  19.0232  19.0576  19.0577
    19.1220  19.1221  19.4038  19.4039  19.7240  19.7240  20.0782  20.0782
    20.1312  20.1313  20.2773  20.2774  20.3296  20.3296  20.7602  20.7603
    20.9240  20.9240  21.2482  21.2483

          k =-0.2500 0.2341 0.0000 ( 27132 PWs)   bands (ev):

   -73.2066 -73.1948 -72.7815 -72.7703 -72.5457 -72.5345 -72.4903 -72.4794
   -44.6184 -44.6025 -44.5914 -44.5513 -44.5242 -44.4681 -44.4008 -44.3913
   -44.1971 -44.1852 -44.1128 -44.0893 -44.0397 -44.0351 -43.9508 -43.9137
   -43.8904 -43.8353 -43.8328 -43.8196 -43.8098 -43.7031 -43.6952 -43.5687
   -21.3237 -20.8537 -20.7904 -20.4797 -20.4261 -20.3887 -20.0667 -19.9479
   -19.9317 -19.7741 -19.7302 -19.6891 -19.5216 -19.5106 -19.4915 -19.4324
   -19.2468 -19.1214  -8.9138  -8.6236  -8.1734  -8.1277  -8.0286  -7.7250
    -7.5851  -7.5424  -7.5379  -7.4336  -7.3852  -7.2865  -7.1186  -7.0397
    -6.9465  -6.8356  -6.7830  -6.6465  -6.6142  -6.5407  -6.4502  -6.2893
    -6.2680  -5.9882  -5.8931  -5.8736  -5.5770  -5.4697  -5.3903  -5.3565
    -5.3117  -5.2340  -5.1611  -5.0919  -4.9837  -4.9811  -4.8552  -4.6459
    -4.5637  -4.5499  -4.4230  -4.3065  -4.2012  -4.1590  -4.0160  -3.9585
    -3.8922  -3.7330  -3.6540  -3.5275  -3.3770  -3.1285  -3.1245  -2.8099
    -0.4700  -0.3495  -0.2019  -0.1550  -0.0985  -0.0169   0.0286   0.1085
     0.1510   0.2193   0.2580   0.4004   0.4380   0.4660   0.5546   0.6396
     0.6446   0.7190   0.7723   0.8340   0.9324   1.0582   1.1086   1.1656
     1.3430   1.4597   1.7618   1.9678   2.0334   2.3009   2.4523   2.4961
     2.6285   2.8146   2.8897   3.0554   3.0779   3.4024   3.5165   3.5795
     3.8310   3.9354   4.2664   4.7318   5.2561   5.6722   5.7872   5.8857
     5.9632   6.1252   6.3207   6.4355   6.6676   6.8068   6.8411   7.1931
     7.3681   7.5478   7.7216   7.9597   7.9928   8.2222   8.2749   8.4096
     8.6006   8.7067   8.9301   8.9909   9.2219   9.2532   9.2776   9.4248
     9.5317   9.6915   9.7846   9.8481  10.0308  10.0787  10.2635  10.2669
    10.4154  10.4752  10.6173  10.7200  10.7633  10.9526  11.0405  11.0934
    11.1610  11.3438  11.5004  11.5473  11.5868  11.6231  11.7970  11.8345
    11.8853  12.0221  12.0755  12.1617  12.2765  12.3145  12.4094  12.5801
    12.6652  12.6982  12.8129  12.9076  12.9252  12.9966  13.0726  13.1030
    13.1054  13.1928  13.2500  13.3234  13.5546  13.6455  13.7144  13.8034
    13.8550  13.9079  13.9802  14.0144  14.1171  14.2631  14.3588  14.4477
    14.5335  14.5609  14.6232  14.7019  14.7909  14.8641  14.9052  15.0546
    15.1813  15.2751  15.3857  15.4512  15.5006  15.5053  15.5972  15.6272
    15.7808  15.8137  15.9135  15.9194  16.0300  16.0886  16.1688  16.1709
    16.2509  16.2917  16.3979  16.5585  16.6199  16.6608  16.8119  16.8316
    16.8847  16.9517  17.0051  17.1120  17.1963  17.2238  17.3855  17.3916
    17.4407  17.4548  17.5413  17.6229  17.6361  17.7254  17.7577  17.8531
    17.9150  18.0069  18.0520  18.1474  18.2203  18.2862  18.3537  18.3680
    18.4340  18.6252  18.6312  18.7547  18.7904  18.8654  18.9270  19.0678
    19.1029  19.1680  19.2740  19.3439  19.3783  19.4152  19.4893  19.5666
    19.6215  19.6541  19.7365  19.7840  19.8281  19.9463  20.1079  20.1233
    20.2609  20.3383  20.4002  20.4686  20.5166  20.6561  20.7108  20.8233
    20.8531  20.9096  21.1046  21.1072

     the spin up/dw Fermi energies are    -1.4969   -2.6689 ev

!    total energy              =   -1993.44442692 Ry
     Harris-Foulkes estimate   =   -1993.44442693 Ry
     estimated scf accuracy    <          7.4E-09 Ry

     The total energy is the sum of the following terms:

     one-electron contribution =  -23561.37630400 Ry
     hartree contribution      =   11797.43149519 Ry
     xc contribution           =    -314.98103306 Ry
     ewald contribution        =   10085.21314372 Ry
     Hubbard energy            =       0.26729232 Ry
     smearing contrib. (-TS)   =       0.00097891 Ry

     total magnetization       =    16.00 Bohr mag/cell
     absolute magnetization    =    19.11 Bohr mag/cell

     convergence has been achieved in  21 iterations

     Forces acting on atoms (Ry/au):


     negative rho (up, down):  0.496E-02 0.182E-02
     atom    1 type  1   force =    -0.00423127   -0.01454279   -0.00042243
     atom    2 type  1   force =    -0.00005784    0.01251131   -0.00048826
     atom    3 type  2   force =    -0.00013811   -0.00511000    0.00015595
     atom    4 type  2   force =     0.00128920    0.00796023   -0.00022033
     atom    5 type  1   force =     0.00313186    0.00674320   -0.00018015
     atom    6 type  1   force =    -0.00052279   -0.00645715   -0.00028656
     atom    7 type  1   force =    -0.00010832   -0.00080178    0.00054758
     atom    8 type  1   force =     0.00045998   -0.00065755    0.00034286
     atom    9 type  2   force =     0.00053973   -0.00019928    0.00088250
     atom   10 type  2   force =     0.00002987   -0.00052645   -0.00026659
     atom   11 type  1   force =    -0.00010085   -0.05785779    0.00011888
     atom   12 type  1   force =     0.00021462    0.05829280    0.00012291
     atom   13 type  1   force =    -0.00068662    0.00018380    0.00078475
     atom   14 type  1   force =    -0.00427960   -0.01455547   -0.00034679
     atom   15 type  1   force =    -0.00005306    0.01250674   -0.00047323
     atom   16 type  2   force =    -0.00015858   -0.00511096    0.00015844
     atom   17 type  2   force =     0.00129197    0.00796091   -0.00023330
     atom   18 type  1   force =     0.00311599    0.00674127   -0.00017776
     atom   19 type  1   force =    -0.00053929   -0.00645364   -0.00028364
     atom   20 type  1   force =    -0.00009920   -0.00080146    0.00055324
     atom   21 type  1   force =     0.00046478   -0.00065770    0.00029343
     atom   22 type  2   force =     0.00050065   -0.00019921    0.00088075
     atom   23 type  2   force =     0.00003526   -0.00052647   -0.00026401
     atom   24 type  1   force =    -0.00011473   -0.05785760    0.00011792
     atom   25 type  1   force =     0.00020083    0.05829232    0.00012182
     atom   26 type  1   force =    -0.00068702    0.00018376    0.00078700
     atom   27 type  3   force =     0.00007792    0.00012178   -0.00086165
     atom   28 type  3   force =     0.00007800    0.00012947   -0.00086625
     atom   29 type  3   force =     0.00014972    0.00033847   -0.00023503
     atom   30 type  3   force =     0.00019688    0.00034927   -0.00026204

     Total force =     0.002626     Total SCF correction =     0.000169

     bfgs converged in   3 scf cycles and   2 bfgs steps
     (criteria: energy < 0.10E-03, force < 0.10E-02)

     End of BFGS Geometry Optimization

     Final energy   =   -1993.4444269242 Ry
Begin final coordinates

ATOMIC_POSITIONS (crystal)
O0       0.000000000   0.000000000   0.380395425    0   0   1
O0       0.000000000   0.500000000   0.398695839    0   0   1
Cr1      0.250000000   0.500000000   0.449448734    0   0   1
Cr1      0.000000000   0.000000000   0.451971656    0   0   1
O0       0.250000000   0.800000000   0.451024765    0   0   1
O0       0.250000000   0.200000000   0.451216057    0   0   1
O0       0.000000000   0.500000000   0.497522504    0   0   1
O0       0.000000000   0.000000000   0.524797114    0   0   1
Cr1      0.250000000   0.000000000   0.577456470    0   0   1
Cr1      0.000000000   0.500000000   0.565527910    0   0   1
O0       0.250000000   0.700000000   0.575331401    0   0   1
O0       0.250000000   0.300000000   0.575311685    0   0   1
O0       0.000000000   0.000000000   0.618144117    0   0   1
O0       0.500000000   0.000000000   0.380391445    0   0   1
O0       0.500000000   0.500000000   0.398695215    0   0   1
Cr1      0.750000000   0.500000000   0.449448622    0   0   1
Cr1      0.500000000   0.000000000   0.451970771    0   0   1
O0       0.750000000   0.800000000   0.451024327    0   0   1
O0       0.750000000   0.200000000   0.451215656    0   0   1
O0       0.500000000   0.500000000   0.497523052    0   0   1
O0       0.500000000   0.000000000   0.524800432    0   0   1
Cr1      0.750000000   0.000000000   0.577455726    0   0   1
Cr1      0.500000000   0.500000000   0.565528293    0   0   1
O0       0.750000000   0.700000000   0.575331382    0   0   1
O0       0.750000000   0.300000000   0.575311666    0   0   1
O0       0.500000000   0.000000000   0.618144495    0   0   1
H2      -0.000666364   0.641396777   0.380753202
H2       0.499333781   0.641397346   0.380753082
H2       0.157353936   0.029720867   0.367434156
H2       0.657356169   0.029719332   0.367434801
End final coordinates



     init_run     :    129.08s CPU    131.84s WALL (       1 calls)
     electrons    :  20647.53s CPU  21329.17s WALL (       3 calls)
     update_pot   :     36.08s CPU     37.37s WALL (       2 calls)
     forces       :    647.84s CPU    662.46s WALL (       3 calls)

     Called by init_run:
     wfcinit      :     48.54s CPU     49.68s WALL (       1 calls)
     potinit      :      8.04s CPU      8.40s WALL (       1 calls)

     Called by electrons:
     c_bands      :  10566.52s CPU  10922.80s WALL (      81 calls)
     sum_band     :   4865.55s CPU   5002.76s WALL (      81 calls)
     v_of_rho     :    197.00s CPU    224.61s WALL (      83 calls)
     newd         :   5076.76s CPU   5126.47s WALL (      83 calls)
     mix_rho      :     34.58s CPU     35.46s WALL (      81 calls)

     Called by c_bands:
     init_us_2    :     26.06s CPU     26.35s WALL (     860 calls)
     cegterg      :  10431.22s CPU  10743.99s WALL (     405 calls)

     Called by *egterg:
     h_psi        :   6209.62s CPU   6392.55s WALL (    1162 calls)
     s_psi        :    592.64s CPU    601.36s WALL (    1192 calls)
     g_psi        :     13.47s CPU     13.50s WALL (     752 calls)
     cdiaghg      :    902.48s CPU    905.29s WALL (    1142 calls)

     Called by h_psi:
     add_vuspsi   :    584.39s CPU    593.72s WALL (    1162 calls)
     vhpsi        :    578.88s CPU    586.66s WALL (    1162 calls)

     General routines
     calbec       :   1318.15s CPU   1333.66s WALL (    7244 calls)
     fft          :    244.42s CPU    320.95s WALL (    2608 calls)
     ffts         :      2.47s CPU      2.65s WALL (     328 calls)
     fftw         :   3461.39s CPU   3661.96s WALL (  696118 calls)
     interpolate  :     27.51s CPU     28.14s WALL (     328 calls)
     davcio       :      0.06s CPU     13.98s WALL (     875 calls)

     Parallel routines
     fft_scatter  :   1548.85s CPU   1820.39s WALL (  699054 calls)
     Hubbard U routines
     new_ns       :    120.76s CPU    128.26s WALL (      81 calls)
     vhpsi        :    578.88s CPU    586.66s WALL (    1162 calls)
     force_hub    :    142.37s CPU    147.00s WALL (       3 calls)

     PWSCF        :     5h59m CPU        6h11m WALL


   This run was terminated on:   0:56:26  10May2014            

=------------------------------------------------------------------------------=
   JOB DONE.
=------------------------------------------------------------------------------=
---------------------------------------
Running PBS batch system epilogue script
Job id: 340911.audhumbla.fysik.dtu.dk
Username: zhonxu
Groupname: campgst
Jobname: CrO2/Eads-2-layers/bare-U-0.5
Sessionid: 14878
Resources limits: neednodes=2:ppn=8:xeon8,nodes=2:ppn=8:xeon8,walltime=48:00:00
Resources used: cput=99:00:15,mem=17069168kb,vmem=21146300kb,walltime=06:11:38
Queuename: verylong
Accounting:
This job has allocated the following 16 nodes:
a028 a028 a028 a028 a028 a028 a028 a028 a026 a026 a026 a026 a026 a026 a026 a026
Finished epilogue job 340911.audhumbla.fysik.dtu.dk for zhonxu
