
     Program PWSCF v.5.0.2 (svn rev. 9656) starts on 23Jan2014 at 20:47:20 

     This program is part of the open-source Quantum ESPRESSO suite
     for quantum simulation of materials; please cite
         "P. Giannozzi et al., J. Phys.:Condens. Matter 21 395502 (2009);
          URL http://www.quantum-espresso.org", 
     in publications or presentations arising from this work. More details at
     http://www.quantum-espresso.org/quote.php

     Parallel version (MPI), running on     4 processors
     R & G space division:  proc/nbgrp/npool/nimage =       4

     Current dimensions of program PWSCF are:
     Max number of different atomic species (ntypx) = 10
     Max number of k-points (npk) =  40000
     Max angular momentum in pseudopotentials (lmaxx) =  3
     Reading input from MoO2-v-0.9.in

     Subspace diagonalization in iterative solution of the eigenvalue problem:
     a serial algorithm will be used


     Parallelization info
     --------------------
     sticks:   dense  smooth     PW     G-vecs:    dense   smooth      PW
     Min         696     221     68                17781     3210     529
     Max         697     222     70                17782     3215     530
     Sum        2785     885    277                71127    12849    2119



     bravais-lattice index     =            0
     lattice parameter (alat)  =       8.3602  a.u.
     unit-cell volume          =     376.5571 (a.u.)^3
     number of atoms/cell      =            6
     number of atomic types    =            2
     number of electrons       =        52.00
     number of Kohn-Sham states=           78
     kinetic-energy cutoff     =      40.0000  Ry
     charge density cutoff     =     500.0000  Ry
     convergence threshold     =      1.0E-06
     mixing beta               =       0.7000
     number of iterations used =            8  plain     mixing
     Exchange-correlation      = SLA  PW   PBE  PBE ( 1 4 3 4 0)
     EXX-fraction              =        0.00
     nstep                     =           50


     celldm(1)=   8.360170  celldm(2)=   0.000000  celldm(3)=   0.000000
     celldm(4)=   0.000000  celldm(5)=   0.000000  celldm(6)=   0.000000

     crystal axes: (cart. coord. in units of alat)
               a(1) = (   1.000000   0.000000   0.000000 )  
               a(2) = (   0.000000   1.000000   0.000000 )  
               a(3) = (   0.000000   0.000000   0.644444 )  

     reciprocal axes: (cart. coord. in units 2 pi/alat)
               b(1) = (  1.000000  0.000000  0.000000 )  
               b(2) = (  0.000000  1.000000  0.000000 )  
               b(3) = (  0.000000  0.000000  1.551724 )  


     PseudoPot. # 1 for Mo read from file:
     /home/camp/zhonxu/pseudo/mo_pbe_v1.uspp.F.UPF
     MD5 check sum: 30c4dcd161f5d35cd49bb5239c51a633
     Pseudo is Ultrasoft + core correction, Zval = 14.0
     Generated by new atomic code, or converted to UPF format
     Using radial grid of  889 points,  6 beta functions with: 
                l(1) =   0
                l(2) =   0
                l(3) =   1
                l(4) =   1
                l(5) =   2
                l(6) =   2
     Q(r) pseudized with  6 coefficients,  rinner =    1.000   1.000   1.000
                                                       1.000   1.000

     PseudoPot. # 2 for O  read from file:
     /home/camp/zhonxu/pseudo/o_pbe_v1.01.uspp.F.UPF
     MD5 check sum: 2bcb18d16ea4b960afae9ec6d52f22d2
     Pseudo is Ultrasoft + core correction, Zval =  6.0
     Generated by new atomic code, or converted to UPF format
     Using radial grid of  737 points,  5 beta functions with: 
                l(1) =   0
                l(2) =   0
                l(3) =   1
                l(4) =   1
                l(5) =   2
     Q(r) pseudized with  8 coefficients,  rinner =    0.900   0.900   0.900
                                                       0.900   0.900

     atomic species   valence    mass     pseudopotential
        Mo0           14.00    95.94000     Mo( 1.00)
        O1             6.00    15.99940     O ( 1.00)

     Starting magnetic structure 
     atomic species   magnetization
        Mo0          0.600
        O1           0.000

     16 Sym. Ops., with inversion, found ( 8 have fractional translation)



   Cartesian axes

     site n.     atom                  positions (alat units)
         1           Mo0 tau(   1) = (   0.0000000   0.0000000   0.0000000  )
         2           Mo0 tau(   2) = (   0.5000000   0.5000000   0.3222222  )
         3           O1  tau(   3) = (   0.3050000   0.3050000   0.0000000  )
         4           O1  tau(   4) = (  -0.3050000  -0.3050000   0.0000000  )
         5           O1  tau(   5) = (   0.8050000   0.1950000   0.3222222  )
         6           O1  tau(   6) = (   0.1950000   0.8050000   0.3222222  )

     number of k points=    36  Methfessel-Paxton smearing, width (Ry)=  0.0100
                       cart. coord. in units 2pi/alat
        k(    1) = (   0.0000000   0.0000000   0.0000000), wk =   0.0080000
        k(    2) = (   0.0000000   0.0000000   0.3103448), wk =   0.0160000
        k(    3) = (   0.0000000   0.0000000   0.6206897), wk =   0.0160000
        k(    4) = (   0.0000000   0.2000000   0.0000000), wk =   0.0320000
        k(    5) = (   0.0000000   0.2000000   0.3103448), wk =   0.0640000
        k(    6) = (   0.0000000   0.2000000   0.6206897), wk =   0.0640000
        k(    7) = (   0.0000000   0.4000000   0.0000000), wk =   0.0320000
        k(    8) = (   0.0000000   0.4000000   0.3103448), wk =   0.0640000
        k(    9) = (   0.0000000   0.4000000   0.6206897), wk =   0.0640000
        k(   10) = (   0.2000000   0.2000000   0.0000000), wk =   0.0320000
        k(   11) = (   0.2000000   0.2000000   0.3103448), wk =   0.0640000
        k(   12) = (   0.2000000   0.2000000   0.6206897), wk =   0.0640000
        k(   13) = (   0.2000000   0.4000000   0.0000000), wk =   0.0640000
        k(   14) = (   0.2000000   0.4000000   0.3103448), wk =   0.1280000
        k(   15) = (   0.2000000   0.4000000   0.6206897), wk =   0.1280000
        k(   16) = (   0.4000000   0.4000000   0.0000000), wk =   0.0320000
        k(   17) = (   0.4000000   0.4000000   0.3103448), wk =   0.0640000
        k(   18) = (   0.4000000   0.4000000   0.6206897), wk =   0.0640000
        k(   19) = (   0.0000000   0.0000000   0.0000000), wk =   0.0080000
        k(   20) = (   0.0000000   0.0000000   0.3103448), wk =   0.0160000
        k(   21) = (   0.0000000   0.0000000   0.6206897), wk =   0.0160000
        k(   22) = (   0.0000000   0.2000000   0.0000000), wk =   0.0320000
        k(   23) = (   0.0000000   0.2000000   0.3103448), wk =   0.0640000
        k(   24) = (   0.0000000   0.2000000   0.6206897), wk =   0.0640000
        k(   25) = (   0.0000000   0.4000000   0.0000000), wk =   0.0320000
        k(   26) = (   0.0000000   0.4000000   0.3103448), wk =   0.0640000
        k(   27) = (   0.0000000   0.4000000   0.6206897), wk =   0.0640000
        k(   28) = (   0.2000000   0.2000000   0.0000000), wk =   0.0320000
        k(   29) = (   0.2000000   0.2000000   0.3103448), wk =   0.0640000
        k(   30) = (   0.2000000   0.2000000   0.6206897), wk =   0.0640000
        k(   31) = (   0.2000000   0.4000000   0.0000000), wk =   0.0640000
        k(   32) = (   0.2000000   0.4000000   0.3103448), wk =   0.1280000
        k(   33) = (   0.2000000   0.4000000   0.6206897), wk =   0.1280000
        k(   34) = (   0.4000000   0.4000000   0.0000000), wk =   0.0320000
        k(   35) = (   0.4000000   0.4000000   0.3103448), wk =   0.0640000
        k(   36) = (   0.4000000   0.4000000   0.6206897), wk =   0.0640000

     Dense  grid:    71127 G-vectors     FFT dimensions: (  60,  60,  40)

     Smooth grid:    12849 G-vectors     FFT dimensions: (  36,  36,  24)

     Largest allocated arrays     est. size (Mb)     dimensions
        Kohn-Sham Wavefunctions         0.49 Mb     (    410,   78)
        NL pseudopotentials             0.55 Mb     (    410,   88)
        Each V/rho on FFT grid          1.10 Mb     (  36000,   2)
        Each G-vector array             0.14 Mb     (  17782)
        G-vector shells                 0.14 Mb     (  17782)
     Largest temporary arrays     est. size (Mb)     dimensions
        Auxiliary wavefunctions         1.95 Mb     (    410,  312)
        Each subspace H/S matrix        1.49 Mb     ( 312, 312)
        Each <psi_i|beta_j> matrix      0.10 Mb     (     88,   78)
        Arrays for rho mixing           4.39 Mb     (  36000,   8)

     Check: negative/imaginary core charge=   -0.000008    0.000000

     Initial potential from superposition of free atoms

     starting charge   51.99787, renormalised to   52.00000
     Starting wfc are   42 randomized atomic wfcs

     total cpu time spent up to now is        9.0 secs

     per-process dynamical memory:    43.2 Mb

     Self-consistent Calculation

     iteration #  1     ecut=    40.00 Ry     beta=0.70
     Davidson diagonalization with overlap
     ethr =  1.00E-02,  avg # of iterations =  5.2

     negative rho (up, down):  0.000E+00 0.144E-02

     total cpu time spent up to now is       51.1 secs

     total energy              =    -406.57194985 Ry
     Harris-Foulkes estimate   =    -406.88076423 Ry
     estimated scf accuracy    <       2.44528697 Ry

     total magnetization       =     4.00 Bohr mag/cell
     absolute magnetization    =     4.75 Bohr mag/cell

     iteration #  2     ecut=    40.00 Ry     beta=0.70
     Davidson diagonalization with overlap
     ethr =  4.70E-03,  avg # of iterations =  1.2

     negative rho (up, down):  0.000E+00 0.705E-03

     total cpu time spent up to now is       66.2 secs

     total energy              =    -406.57114649 Ry
     Harris-Foulkes estimate   =    -408.13684480 Ry
     estimated scf accuracy    <       3.67701451 Ry

     total magnetization       =     3.24 Bohr mag/cell
     absolute magnetization    =     3.54 Bohr mag/cell

     iteration #  3     ecut=    40.00 Ry     beta=0.70
     Davidson diagonalization with overlap
     ethr =  4.70E-03,  avg # of iterations =  1.0

     negative rho (up, down):  0.000E+00 0.112E-02

     total cpu time spent up to now is       80.8 secs

     total energy              =    -407.48856860 Ry
     Harris-Foulkes estimate   =    -407.50073233 Ry
     estimated scf accuracy    <       0.21906901 Ry

     total magnetization       =     3.45 Bohr mag/cell
     absolute magnetization    =     3.55 Bohr mag/cell

     iteration #  4     ecut=    40.00 Ry     beta=0.70
     Davidson diagonalization with overlap
     ethr =  4.21E-04,  avg # of iterations =  1.0

     negative rho (up, down):  0.000E+00 0.809E-03

     total cpu time spent up to now is       95.3 secs

     total energy              =    -407.54434817 Ry
     Harris-Foulkes estimate   =    -407.53074035 Ry
     estimated scf accuracy    <       0.00995991 Ry

     total magnetization       =     2.50 Bohr mag/cell
     absolute magnetization    =     2.54 Bohr mag/cell

     iteration #  5     ecut=    40.00 Ry     beta=0.70
     Davidson diagonalization with overlap
     ethr =  1.92E-05,  avg # of iterations =  3.1

     negative rho (up, down):  0.000E+00 0.366E-03

     total cpu time spent up to now is      113.8 secs

     total energy              =    -407.55440127 Ry
     Harris-Foulkes estimate   =    -407.55116575 Ry
     estimated scf accuracy    <       0.00187073 Ry

     total magnetization       =     1.86 Bohr mag/cell
     absolute magnetization    =     1.88 Bohr mag/cell

     iteration #  6     ecut=    40.00 Ry     beta=0.70
     Davidson diagonalization with overlap
     ethr =  3.60E-06,  avg # of iterations =  2.9

     negative rho (up, down):  0.000E+00 0.231E-03

     total cpu time spent up to now is      133.9 secs

     total energy              =    -407.55909720 Ry
     Harris-Foulkes estimate   =    -407.55826714 Ry
     estimated scf accuracy    <       0.00055127 Ry

     total magnetization       =     1.37 Bohr mag/cell
     absolute magnetization    =     1.38 Bohr mag/cell

     iteration #  7     ecut=    40.00 Ry     beta=0.70
     Davidson diagonalization with overlap
     ethr =  1.06E-06,  avg # of iterations =  1.3

     negative rho (up, down):  0.000E+00 0.872E-04

     total cpu time spent up to now is      148.8 secs

     total energy              =    -407.55930600 Ry
     Harris-Foulkes estimate   =    -407.55934038 Ry
     estimated scf accuracy    <       0.00022270 Ry

     total magnetization       =     1.26 Bohr mag/cell
     absolute magnetization    =     1.26 Bohr mag/cell

     iteration #  8     ecut=    40.00 Ry     beta=0.70
     Davidson diagonalization with overlap
     ethr =  4.28E-07,  avg # of iterations =  2.5

     negative rho (up, down):  0.000E+00 0.850E-04

     total cpu time spent up to now is      167.9 secs

     total energy              =    -407.56070393 Ry
     Harris-Foulkes estimate   =    -407.56065117 Ry
     estimated scf accuracy    <       0.00008464 Ry

     total magnetization       =     0.92 Bohr mag/cell
     absolute magnetization    =     0.93 Bohr mag/cell

     iteration #  9     ecut=    40.00 Ry     beta=0.70
     Davidson diagonalization with overlap
     ethr =  1.63E-07,  avg # of iterations =  1.0

     negative rho (up, down):  0.000E+00 0.568E-04

     total cpu time spent up to now is      182.9 secs

     total energy              =    -407.56029385 Ry
     Harris-Foulkes estimate   =    -407.56071032 Ry
     estimated scf accuracy    <       0.00006995 Ry

     total magnetization       =     0.90 Bohr mag/cell
     absolute magnetization    =     0.90 Bohr mag/cell

     iteration # 10     ecut=    40.00 Ry     beta=0.70
     Davidson diagonalization with overlap
     ethr =  1.35E-07,  avg # of iterations =  2.1

     negative rho (up, down):  0.000E+00 0.537E-04

     total cpu time spent up to now is      201.7 secs

     total energy              =    -407.56120056 Ry
     Harris-Foulkes estimate   =    -407.56118836 Ry
     estimated scf accuracy    <       0.00001170 Ry

     total magnetization       =     0.63 Bohr mag/cell
     absolute magnetization    =     0.63 Bohr mag/cell

     iteration # 11     ecut=    40.00 Ry     beta=0.70
     Davidson diagonalization with overlap
     ethr =  2.25E-08,  avg # of iterations =  2.0

     negative rho (up, down):  0.000E+00 0.470E-04

     total cpu time spent up to now is      219.1 secs

     total energy              =    -407.56118042 Ry
     Harris-Foulkes estimate   =    -407.56121571 Ry
     estimated scf accuracy    <       0.00000256 Ry

     total magnetization       =     0.60 Bohr mag/cell
     absolute magnetization    =     0.60 Bohr mag/cell

     iteration # 12     ecut=    40.00 Ry     beta=0.70
     Davidson diagonalization with overlap
     ethr =  4.92E-09,  avg # of iterations =  2.8

     negative rho (up, down):  0.000E+00 0.473E-04

     total cpu time spent up to now is      239.5 secs

     End of self-consistent calculation

 ------ SPIN UP ------------


          k = 0.0000 0.0000 0.0000 (  1623 PWs)   bands (ev):

   -45.1003 -45.0603 -19.6002 -19.6002 -19.2961 -19.2012 -19.1961 -19.1961
    -4.9083  -4.1131  -2.1247  -2.1247   6.5701   6.9710   7.5835   8.6488
     8.6488  11.3616  11.3616  12.0344  13.0104  13.0901  13.0901  13.7525
    15.9809  16.5258  16.9977  17.0642  17.0642  21.0064  21.1897  22.6377
    24.4216  24.4216  26.1827  26.2493  26.2493  29.9628  32.3949  32.9288
    33.1047  34.3962  35.1532  35.1532  37.6125  38.1082  38.3805  38.3805
    39.1472  39.1472  40.3625  44.8249  44.8249  45.1649  45.3846  46.3964
    48.1181  48.8938  48.8938  49.1192  49.6808  49.6808  50.2864  50.6417
    52.0773  52.2011  52.2011  52.5041  54.1742  56.0038  57.1722  57.1722
    57.7832  57.9889  58.4510  58.4510  59.3167  59.3171

          k = 0.0000 0.0000 0.3103 (  1607 PWs)   bands (ev):

   -45.0632 -45.0305 -19.6845 -19.6131 -19.5023 -19.5023 -19.1739 -19.1739
    -4.2591  -3.5867  -2.6850  -2.6850   7.2961   7.8471   8.1237   8.7171
     8.7171  10.7217  11.4431  11.7129  11.7129  12.4844  12.4844  13.4425
    16.6644  17.0035  17.2372  17.6909  17.6909  20.3257  22.0356  23.5214
    23.7676  23.7676  25.6708  28.2223  28.2223  30.2173  31.0167  32.3399
    32.9170  34.2752  34.2814  34.2814  36.2521  39.1011  39.1011  39.2190
    39.7497  39.7497  43.2041  43.5093  43.9390  44.0931  44.4367  44.5143
    44.5143  46.0541  46.3981  46.3981  51.6221  51.6221  52.0733  52.1400
    53.0212  53.1569  53.1569  54.5364  55.3756  55.8141  56.3517  56.3517
    57.0363  57.9252  57.9252  59.4780  60.4966  61.0675

          k = 0.0000 0.0000 0.6207 (  1595 PWs)   bands (ev):

   -44.9985 -44.9860 -20.2574 -20.2328 -19.3240 -19.3240 -19.1523 -19.1523
    -3.5141  -3.5141  -3.1304  -2.8502   8.3440   8.6788   9.0246   9.0246
     9.6530   9.8770  10.1304  10.9374  10.9374  11.7905  12.6296  12.6296
    17.1878  17.8279  18.6043  18.6588  18.6588  18.7393  22.8540  23.0002
    23.8278  23.8278  26.6205  28.6014  30.7727  30.7727  30.9199  31.6739
    32.6996  32.6996  33.1214  33.4200  34.7615  36.0272  39.2769  39.2769
    41.2365  41.2365  41.8668  42.5752  42.8992  43.2963  44.4503  44.4503
    45.3510  46.6496  46.6496  49.6900  50.5493  51.2306  51.2306  53.3136
    53.3136  53.3782  53.3782  53.5153  54.5212  54.5730  55.8005  57.2329
    57.2329  58.3767  58.4433  60.0217  60.1941  60.1941

          k = 0.0000 0.2000 0.0000 (  1613 PWs)   bands (ev):

   -45.0965 -45.0641 -19.5671 -19.5636 -19.2870 -19.2391 -19.2353 -19.2101
    -4.7104  -4.0097  -2.3775  -2.3159   6.9362   7.3170   7.9241   8.6853
     8.6951  10.8853  11.1185  11.9337  12.2753  12.6919  12.7049  13.5812
    16.3912  16.9549  17.3716  17.4325  17.4613  20.5737  21.5808  23.1519
    24.1405  24.1714  25.6699  26.3176  26.6494  29.7386  31.8091  32.0758
    33.4292  33.9705  35.0457  36.2728  36.9977  37.5919  37.7532  38.5227
    39.7412  40.2229  42.0440  43.0840  44.8837  45.0568  45.8788  46.9695
    47.7549  48.4248  48.4831  48.9695  49.8262  50.7472  50.9018  51.2398
    52.1211  52.5328  52.9312  53.4762  54.2545  54.8997  56.3103  56.8095
    56.9054  57.5902  57.9141  57.9537  58.1332  58.2435

          k = 0.0000 0.2000 0.3103 (  1610 PWs)   bands (ev):

   -45.0600 -45.0337 -19.6921 -19.6311 -19.4675 -19.4608 -19.2045 -19.2012
    -4.1130  -3.5177  -2.8391  -2.7899   7.5646   7.9825   8.2445   8.7325
     9.0760  10.4138  10.6126  11.8742  11.8990  12.2005  12.2257  13.3053
    16.6492  17.4699  17.4868  17.6786  18.1275  20.0321  22.2677  22.8785
    23.4511  24.6392  25.3180  27.8249  28.4645  30.4238  31.0835  31.9745
    32.3014  33.5319  34.0605  35.8989  36.5473  38.1349  38.8757  39.4833
    39.5247  40.4652  42.9261  43.2274  43.3590  43.7208  44.2804  44.9550
    46.0155  46.3428  47.1318  47.8110  51.0397  51.7635  51.9643  52.4211
    53.2831  53.5870  53.6875  54.1277  55.0566  55.8125  55.9193  56.2433
    56.4940  56.8536  58.1465  58.8566  59.6001  60.4293

          k = 0.0000 0.2000 0.6207 (  1622 PWs)   bands (ev):

   -44.9974 -44.9872 -20.2629 -20.2427 -19.3097 -19.3073 -19.1611 -19.1589
    -3.8322  -3.7837  -2.7428  -2.5601   8.0701   8.2263   8.7744   9.1277
     9.8274   9.9223  10.6842  11.0885  11.3719  12.1208  12.3610  12.3656
    16.6677  17.7257  18.0526  18.6007  18.9874  19.2399  22.4680  22.7638
    23.9984  24.5495  26.4754  28.1191  29.9251  30.7991  30.8681  31.5378
    32.2962  32.6867  33.7902  34.1742  35.4299  36.1663  38.7898  38.9873
    40.2856  41.1217  42.2696  42.3779  43.2895  43.8924  44.6301  45.4731
    46.1117  46.2727  46.9690  50.0870  51.1619  51.3418  51.7493  51.7701
    53.0840  53.1223  53.3027  54.2888  54.4358  55.0345  55.3950  56.7124
    56.9451  58.1534  58.2794  59.9185  60.4297  60.7555

          k = 0.0000 0.4000 0.0000 (  1619 PWs)   bands (ev):

   -45.0863 -45.0740 -19.4778 -19.4693 -19.3436 -19.3345 -19.2632 -19.2337
    -4.2131  -3.8598  -2.8349  -2.7234   7.7622   7.9433   8.7559   8.7673
     8.9806  10.0194  10.2635  10.6968  11.8682  12.1471  12.6768  13.1154
    17.0336  17.3069  17.9180  17.9757  18.4653  19.5885  22.7472  23.6786
    23.7133  24.1432  24.5667  25.7080  27.8292  29.2608  31.0247  31.2548
    33.6586  34.7313  34.8369  34.9004  35.4542  36.6926  39.3934  40.1807
    40.5508  41.7015  42.8160  43.5649  44.8016  45.0780  45.1169  45.4760
    47.4062  47.9650  48.5533  49.3220  50.3057  50.7161  51.2693  51.7840
    52.8558  52.9783  53.7729  54.1672  54.3793  54.6461  56.1843  56.4470
    56.6918  56.9970  57.2185  57.3715  58.1695  58.3391

          k = 0.0000 0.4000 0.3103 (  1605 PWs)   bands (ev):

   -45.0518 -45.0417 -19.6901 -19.6651 -19.3848 -19.3714 -19.2840 -19.2738
    -3.7287  -3.3394  -3.2204  -3.0410   8.1582   8.2694   8.6005   8.7624
     9.5811   9.7433  10.3604  11.1775  11.2183  11.6129  12.7131  13.0443
    17.1148  17.5300  17.9561  18.1154  18.8008  19.3695  22.3465  22.4360
    23.4145  24.4239  25.7761  26.8670  29.3277  30.5736  31.0448  31.4753
    31.9917  32.3269  34.1928  35.5380  37.4680  38.7627  39.2565  39.2578
    39.5736  41.0991  41.9882  42.2610  43.3018  43.4894  44.8905  45.0617
    46.9217  48.1848  48.5343  49.3375  50.4022  51.0472  51.7533  52.4601
    53.3858  53.4117  53.8362  54.2210  54.8561  54.9565  55.9223  55.9810
    56.8805  57.5923  58.2331  58.7877  59.2631  60.0717

          k = 0.0000 0.4000 0.6207 (  1599 PWs)   bands (ev):

   -44.9941 -44.9902 -20.2687 -20.2609 -19.2808 -19.2774 -19.1783 -19.1750
    -4.0799  -4.0580  -2.3504  -2.2810   7.8029   7.8152   8.5438   8.6673
    10.3800  10.5793  11.0154  11.5027  11.7158  11.8601  12.0496  12.6518
    16.0955  16.6239  18.4154  18.5974  19.3271  19.4078  22.1658  22.3991
    24.5742  25.0271  26.5674  27.2681  29.6896  30.0912  30.5371  30.7689
    32.4024  33.2517  34.1988  35.0476  36.2956  36.4201  37.8774  38.2573
    40.7838  41.0643  42.2220  42.5605  43.5714  43.8778  45.6313  45.8733
    46.7451  46.7993  49.1665  49.4741  49.4797  50.8497  51.9242  52.0592
    52.8358  53.1785  53.8167  54.3012  54.7991  54.8263  55.8453  56.7155
    57.5439  57.9539  58.5802  59.2691  59.6545  60.0023

          k = 0.2000 0.2000 0.0000 (  1612 PWs)   bands (ev):

   -45.0932 -45.0671 -19.6130 -19.4631 -19.3480 -19.2796 -19.2173 -19.1879
    -4.6245  -3.8957  -2.7598  -2.1762   6.7569   7.9432   8.2179   8.6189
     8.7722  10.2688  11.1977  11.8632  11.9100  12.6187  12.6782  13.4450
    16.1473  17.0799  17.2657  17.8643  17.9449  20.3220  21.7246  23.6983
    23.8362  24.4131  25.1730  26.5329  26.8133  29.3425  30.9871  31.2979
    33.9272  34.0299  35.1152  37.2522  37.6356  37.6392  38.3512  38.7427
    39.0673  39.8609  41.6479  42.7329  44.2007  45.3804  45.7040  45.9248
    47.7047  48.7676  49.0840  50.4578  50.4957  50.8976  51.4886  51.5354
    52.1322  52.2958  52.9466  54.2473  54.5597  54.8247  55.5778  56.2333
    56.5558  56.8058  57.4058  58.4250  58.4780  58.5938

          k = 0.2000 0.2000 0.3103 (  1614 PWs)   bands (ev):

   -45.0574 -45.0361 -19.6886 -19.6375 -19.5133 -19.3697 -19.2859 -19.1675
    -4.0282  -3.4217  -3.0926  -2.7288   7.5426   8.2183   8.2366   8.9763
     9.1795   9.9177  11.0740  11.2946  11.5320  12.4243  12.4277  13.1295
    16.6894  17.0560  17.6827  18.2201  18.2494  19.7908  22.2960  22.5838
    23.7154  24.9475  25.1133  27.6814  28.3601  30.2931  30.7489  31.4360
    32.4652  33.6815  34.6529  35.4165  36.9812  38.2210  38.3867  39.6198
    39.6510  40.7996  42.6486  42.7809  43.3933  43.5017  44.9895  45.5359
    46.1754  46.8263  48.1400  48.3940  50.7219  51.1221  51.6270  52.2755
    53.5301  53.8032  54.0165  54.2240  55.1142  55.3004  56.0082  56.3715
    56.4485  56.8900  57.0979  57.7577  60.0886  60.5958

          k = 0.2000 0.2000 0.6207 (  1610 PWs)   bands (ev):

   -44.9963 -44.9881 -20.2659 -20.2437 -19.3288 -19.2770 -19.1774 -19.1517
    -4.0683  -3.5498  -2.9527  -2.3107   7.8972   8.3964   8.5018   9.0707
     9.4822  10.5286  10.9271  11.0433  11.6314  11.8694  12.2933  12.6083
    16.4226  17.9526  18.0591  18.2452  18.6834  19.5537  22.1322  23.2427
    23.7889  24.7621  26.3747  28.0345  28.5706  30.3675  30.8772  31.7611
    32.8910  33.2842  33.7155  34.2000  36.0072  36.3177  37.9140  38.8694
    40.2881  40.9309  41.7037  43.5967  43.8405  44.7431  45.1329  45.8174
    46.3171  46.3630  47.5269  50.3891  50.5999  51.1471  51.5218  51.9862
    52.5684  53.2732  53.3288  53.5325  54.6679  55.0698  55.4772  56.3877
    56.8345  57.5477  58.8005  59.1336  59.8397  60.2106

          k = 0.2000 0.4000 0.0000 (  1626 PWs)   bands (ev):

   -45.0851 -45.0751 -19.5854 -19.4909 -19.3241 -19.2603 -19.2365 -19.2234
    -4.3441  -3.9584  -2.8150  -2.4158   7.1308   7.9023   8.6483   8.7437
     9.1096  10.1730  10.5521  11.5239  11.9857  12.2731  12.3806  12.8869
    16.5823  17.1748  17.4218  17.9573  18.7119  19.6181  22.6560  23.6900
    24.0004  24.1441  24.9563  26.0271  27.8966  28.9431  30.0457  30.1806
    34.0344  34.6463  35.3248  36.7190  36.9771  37.0832  39.1902  39.9679
    40.4942  40.7929  41.8142  42.4800  43.6089  43.9215  44.4916  46.3016
    47.5698  47.9861  49.5380  50.4966  50.8500  50.8687  52.0476  52.6057
    52.9398  53.2433  53.9269  54.5008  54.9529  55.1294  55.1913  55.7391
    56.6535  56.6862  57.2185  58.1627  58.2309  59.1311

          k = 0.2000 0.4000 0.3103 (  1608 PWs)   bands (ev):

   -45.0508 -45.0426 -19.6803 -19.6604 -19.4799 -19.3910 -19.2670 -19.1921
    -3.7954  -3.4658  -3.1544  -2.8753   7.7954   8.2258   8.3798   8.7346
     9.7543  10.0039  10.6791  11.3078  11.3919  12.0393  12.4026  12.7596
    17.1184  17.3625  17.6656  18.1460  18.6637  19.2157  22.4077  22.9420
    23.4883  24.2641  25.9768  26.8605  29.0591  30.1436  30.3686  30.6549
    32.6731  33.1135  34.6679  35.5696  37.0725  37.7072  39.2184  40.1064
    40.3364  41.0904  42.0729  42.3410  43.5991  44.1981  44.7709  45.5282
    46.9619  47.6291  48.7231  49.4567  50.5185  51.1710  51.7069  52.3038
    52.8322  53.5859  54.0327  54.2629  54.3988  55.1647  55.3903  55.8009
    56.7155  57.2831  57.7174  58.0667  58.8304  59.4735

          k = 0.2000 0.4000 0.6207 (  1595 PWs)   bands (ev):

   -44.9937 -44.9905 -20.2638 -20.2527 -19.3153 -19.2824 -19.1754 -19.1585
    -4.0745  -3.8268  -2.6204  -2.3017   7.7912   7.9993   8.6132   9.0252
     9.6538  10.5224  11.0373  11.3721  11.4946  12.0084  12.4594  12.8653
    16.2703  16.9351  18.3397  18.5194  18.7975  19.3413  22.2429  22.8258
    24.3055  24.8041  26.4292  27.1125  28.3980  29.2721  30.9111  31.6491
    33.0052  33.3953  34.1638  35.0364  36.0358  36.5884  37.4131  38.2739
    41.2071  41.4464  42.0017  43.4732  44.5114  44.9181  45.8975  46.0139
    46.9508  47.7796  49.1091  49.3691  49.6420  50.9831  51.3039  52.1275
    52.4218  52.7186  52.9736  53.7702  54.5590  55.5348  55.5879  56.2308
    56.6542  56.7861  58.0969  58.4462  59.4150  59.9403

          k = 0.4000 0.4000 0.0000 (  1610 PWs)   bands (ev):

   -45.0819 -45.0781 -19.6338 -19.5977 -19.2529 -19.2437 -19.2147 -19.1748
    -4.4094  -4.2487  -2.4595  -2.2549   6.8025   7.1570   8.5701   8.6231
     9.8252  10.6872  10.8953  11.6020  12.0966  12.3557  12.5881  12.8152
    16.0978  16.5618  17.1085  17.4377  19.1913  19.5303  22.9441  23.4569
    24.1370  24.3988  25.7085  26.1720  28.2553  28.3981  28.9774  29.3959
    34.1950  34.4983  36.7102  37.8659  38.6567  39.0040  39.0498  39.7209
    39.7361  39.8037  40.2960  41.1438  42.7937  43.8295  44.3904  46.1390
    47.0550  47.8796  49.0137  49.7434  50.9129  51.9484  52.8791  53.1845
    53.2233  53.4390  54.3911  55.2609  55.3875  56.0845  56.0864  56.2670
    56.4482  57.3152  57.3565  57.9658  58.4602  58.6774

          k = 0.4000 0.4000 0.3103 (  1605 PWs)   bands (ev):

   -45.0482 -45.0451 -19.6612 -19.6498 -19.5308 -19.4888 -19.1855 -19.1572
    -3.8168  -3.6991  -2.9157  -2.7963   7.6068   7.8147   8.2661   8.4143
    10.5148  10.5684  11.1147  11.2459  11.8093  11.9166  12.0937  12.5438
    17.0256  17.3223  17.4243  17.6675  18.6384  18.8770  23.0523  23.4106
    23.6202  23.8702  26.3093  26.6416  28.9978  29.4830  30.0302  30.2620
    32.5982  32.6878  35.5670  36.0506  36.4210  37.3402  39.7268  40.7389
    41.0130  41.1424  42.3805  42.7829  44.0869  44.6348  45.2252  46.0985
    47.2321  47.2831  48.6158  48.8088  50.4233  51.5186  51.6231  52.0826
    52.4178  52.6120  53.1092  53.6089  53.6784  55.1255  55.5672  55.7858
    56.5677  56.8067  58.4144  58.7271  59.2994  59.4987

          k = 0.4000 0.4000 0.6207 (  1591 PWs)   bands (ev):

   -44.9927 -44.9914 -20.2506 -20.2442 -19.3367 -19.3195 -19.1576 -19.1506
    -3.8414  -3.6057  -2.8700  -2.5930   7.9590   8.2274   9.0450   9.0516
     9.4250   9.7498  10.8760  11.1599  11.7180  12.0091  12.9475  13.1051
    16.8000  17.4780  18.0152  18.3244  18.4142  18.7376  22.7651  23.4548
    23.6930  24.2752  26.1184  26.3803  28.4683  29.5036  29.7533  30.8820
    33.5134  33.6945  34.7252  35.1693  35.9761  36.5183  37.7719  38.2296
    42.2149  42.2450  42.5064  43.6981  45.4021  45.4952  46.7401  47.3864
    47.5471  49.0802  49.3731  50.0371  50.2971  50.6970  50.7094  51.3259
    51.8545  51.8707  52.5157  52.7005  53.2958  53.8081  54.2245  55.8666
    56.7974  57.0126  57.1589  58.2956  58.5377  58.8865

 ------ SPIN DOWN ----------


          k = 0.0000 0.0000 0.0000 (  1623 PWs)   bands (ev):

   -44.9391 -44.8989 -19.4447 -19.4447 -19.0905 -19.0301 -19.0301 -18.9948
    -4.8817  -4.0862  -2.0987  -2.0987   6.6337   7.0516   7.6301   8.7103
     8.7103  11.3882  11.3882  12.0664  13.0398  13.1120  13.1120  13.7714
    16.1958  16.6911  17.1464  17.3566  17.3566  21.1268  21.3126  22.6957
    24.5288  24.5288  26.2732  26.3243  26.3243  29.9895  32.4754  32.9778
    33.1749  34.5211  35.2177  35.2177  37.6887  38.2659  38.5296  38.5296
    39.2425  39.2425  40.3912  44.8878  44.8878  45.3101  45.4419  46.4603
    48.1547  48.9437  48.9437  49.2735  49.7275  49.7275  50.3526  50.7291
    52.1013  52.2804  52.2804  52.6303  54.3097  56.1239  57.2578  57.2578
    57.9229  58.1429  58.5385  58.5385  59.3870  59.3910

          k = 0.0000 0.0000 0.3103 (  1607 PWs)   bands (ev):

   -44.9019 -44.8691 -19.4829 -19.4110 -19.3434 -19.3434 -19.0103 -19.0103
    -4.2297  -3.5571  -2.6581  -2.6581   7.3563   7.9228   8.1693   8.7799
     8.7799  10.7649  11.4977  11.7567  11.7567  12.5260  12.5260  13.4546
    16.8190  17.1674  17.4407  17.9247  17.9247  20.4462  22.1622  23.5752
    23.8844  23.8844  25.7609  28.3019  28.3019  30.2456  31.0881  32.3805
    32.9980  34.3487  34.3487  34.3950  36.3982  39.1886  39.1886  39.2833
    39.9017  39.9017  43.3196  43.5424  44.0361  44.1667  44.5614  44.5690
    44.5690  46.1541  46.4738  46.4738  51.7088  51.7088  52.1052  52.2370
    53.1314  53.1986  53.1986  54.6301  55.4463  55.9430  56.4236  56.4236
    57.1147  58.0097  58.0097  59.5564  60.5612  61.1575

          k = 0.0000 0.0000 0.6207 (  1595 PWs)   bands (ev):

   -44.8371 -44.8245 -20.0610 -20.0363 -19.1532 -19.1532 -18.9988 -18.9988
    -3.4866  -3.4866  -3.0980  -2.8178   8.4018   8.7445   9.1106   9.1106
     9.6942   9.9205  10.1829  10.9925  10.9925  11.8195  12.6564  12.6564
    17.3243  18.0143  18.8210  18.8631  18.8651  18.8651  22.9900  23.1012
    23.9349  23.9349  26.6707  28.6597  30.8591  30.8591  30.9503  31.7070
    32.7721  32.7721  33.2118  33.5208  34.8931  36.1412  39.3533  39.3533
    41.3068  41.3068  41.9627  42.6562  42.9955  43.3735  44.5865  44.5865
    45.4502  46.7923  46.7923  49.7667  50.6008  51.3121  51.3121  53.3657
    53.3657  53.4710  53.4710  53.5593  54.6777  54.7319  55.8515  57.3263
    57.3263  58.4501  58.4806  60.1025  60.2759  60.2759

          k = 0.0000 0.2000 0.0000 (  1613 PWs)   bands (ev):

   -44.9352 -44.9026 -19.4118 -19.4083 -19.0813 -19.0729 -19.0691 -19.0037
    -4.6834  -3.9827  -2.3508  -2.2894   6.9996   7.3959   7.9709   8.7453
     8.7548  10.9215  11.1536  11.9771  12.3128  12.7278  12.7371  13.5988
    16.5918  17.1207  17.6016  17.6573  17.7142  20.6950  21.6951  23.2054
    24.2445  24.2754  25.7606  26.3820  26.7285  29.7822  31.8806  32.1537
    33.4791  34.0866  35.1142  36.3718  37.0675  37.6628  37.8562  38.6784
    39.8511  40.3419  42.1453  43.1451  44.9512  45.1176  45.9914  47.0513
    47.7938  48.4897  48.5361  49.0733  49.8866  50.8289  50.9626  51.3494
    52.1507  52.6361  53.0012  53.5470  54.3864  55.0095  56.3922  56.8777
    56.9882  57.6800  58.0041  58.1014  58.2638  58.2981

          k = 0.0000 0.2000 0.3103 (  1610 PWs)   bands (ev):

   -44.8987 -44.8722 -19.4936 -19.4308 -19.3081 -19.2991 -19.0405 -19.0364
    -4.0837  -3.4884  -2.8117  -2.7625   7.6243   8.0524   8.2966   8.7954
     9.1367  10.4650  10.6686  11.9081  11.9326  12.2482  12.2818  13.3211
    16.8288  17.6343  17.6808  17.9156  18.3397  20.1592  22.3874  22.9738
    23.5608  24.7082  25.4086  27.8829  28.5466  30.4743  31.1602  32.0425
    32.3501  33.5965  34.1798  35.9988  36.6623  38.2439  38.9545  39.5913
    39.6420  40.5673  43.0211  43.3063  43.4699  43.7771  44.3836  45.0515
    46.0726  46.4298  47.2007  47.8785  51.0937  51.8516  52.0460  52.5023
    53.3737  53.6621  53.7569  54.2208  55.1514  55.9018  55.9859  56.3344
    56.5716  56.9362  58.2266  58.9436  59.6701  60.5128

          k = 0.0000 0.2000 0.6207 (  1622 PWs)   bands (ev):

   -44.8360 -44.8258 -20.0670 -20.0467 -19.1379 -19.1348 -19.0086 -19.0057
    -3.8045  -3.7561  -2.7110  -2.5280   8.1417   8.3042   8.8358   9.1978
     9.8771   9.9643  10.7335  11.1432  11.4241  12.1463  12.3918  12.3972
    16.8273  17.8911  18.2449  18.8174  19.1784  19.4100  22.5758  22.8929
    24.1044  24.6502  26.5239  28.1741  29.9698  30.8777  30.9148  31.6115
    32.3751  32.7613  33.8881  34.2663  35.5440  36.2826  38.8759  39.0739
    40.3817  41.2051  42.3436  42.4652  43.3767  43.9584  44.7605  45.5854
    46.2630  46.4086  47.0678  50.1545  51.2205  51.4157  51.8185  51.8488
    53.1838  53.2026  53.3668  54.4044  54.4947  55.1768  55.4767  56.8132
    57.0361  58.2107  58.3643  60.0023  60.5168  60.8202

          k = 0.0000 0.4000 0.0000 (  1619 PWs)   bands (ev):

   -44.9250 -44.9126 -19.3257 -19.3179 -19.1737 -19.1655 -19.0572 -19.0275
    -4.1856  -3.8323  -2.8076  -2.6962   7.8270   8.0148   8.8128   8.8237
     9.0301  10.0638  10.3101  10.7475  11.9283  12.2089  12.6953  13.1331
    17.2201  17.4835  18.1968  18.2519  18.5965  19.7130  22.8466  23.7752
    23.8102  24.2111  24.6368  25.7539  27.9172  29.3477  31.0828  31.3158
    33.7730  34.8445  34.8884  34.9706  35.5294  36.7479  39.5409  40.3091
    40.6249  41.7939  42.9262  43.6378  44.8802  45.1730  45.1821  45.5564
    47.4928  48.0266  48.6173  49.4258  50.3837  50.7744  51.3297  51.8578
    52.9564  53.0403  53.8931  54.2204  54.5088  54.7066  56.2741  56.5283
    56.7717  57.0932  57.3006  57.4982  58.2382  58.4860

          k = 0.0000 0.4000 0.3103 (  1605 PWs)   bands (ev):

   -44.8904 -44.8803 -19.4927 -19.4664 -19.2285 -19.2125 -19.1160 -19.1045
    -3.6999  -3.3115  -3.1911  -3.0126   8.2155   8.3285   8.6641   8.8286
     9.6365   9.7994  10.4214  11.2215  11.2598  11.6670  12.7458  13.0697
    17.3224  17.7637  18.1282  18.2839  18.9958  19.5234  22.4433  22.5414
    23.5097  24.5132  25.8306  26.9136  29.4160  30.6659  31.1024  31.5425
    32.0418  32.3847  34.3107  35.6590  37.5813  38.8812  39.3420  39.3516
    39.6645  41.2009  42.0777  42.3474  43.3764  43.5791  44.9675  45.1286
    47.0187  48.2870  48.5929  49.4231  50.4718  51.1377  51.8324  52.5487
    53.4811  53.4958  53.9181  54.3054  54.9339  55.0145  56.0341  56.0691
    56.9704  57.6677  58.3135  58.8829  59.3431  60.1424

          k = 0.0000 0.4000 0.6207 (  1599 PWs)   bands (ev):

   -44.8327 -44.8288 -20.0736 -20.0657 -19.1049 -19.0997 -19.0301 -19.0251
    -4.0529  -4.0309  -2.3183  -2.2488   7.8825   7.8956   8.6020   8.7261
    10.4251  10.6197  11.0582  11.5390  11.7623  11.8982  12.0921  12.6715
    16.2841  16.8025  18.6179  18.8100  19.5078  19.5836  22.2804  22.5209
    24.6709  25.1217  26.6156  27.3179  29.7343  30.1363  30.6065  30.8366
    32.4913  33.3382  34.2921  35.1420  36.4114  36.5440  37.9702  38.3506
    40.8842  41.1631  42.3271  42.6650  43.6510  43.9561  45.6946  45.9580
    46.8339  46.9391  49.2630  49.5622  49.5817  50.9194  52.0333  52.1466
    52.9041  53.2599  53.9009  54.3761  54.8984  54.9465  55.9199  56.8182
    57.6202  58.0421  58.6701  59.3555  59.7386  60.0660

          k = 0.2000 0.2000 0.0000 (  1612 PWs)   bands (ev):

   -44.9320 -44.9057 -19.4574 -19.3125 -19.1774 -19.0738 -19.0220 -19.0110
    -4.5976  -3.8684  -2.7326  -2.1501   6.8260   8.0174   8.2630   8.6805
     8.8288  10.3168  11.2321  11.9185  11.9310  12.6519  12.7150  13.4622
    16.3477  17.3722  17.4408  17.9968  18.2221  20.4429  21.8287  23.7952
    23.8925  24.5197  25.2652  26.5887  26.8950  29.3956  31.0546  31.3840
    33.9778  34.1517  35.1946  37.3064  37.7078  37.7084  38.4644  38.8927
    39.1709  39.9685  41.7416  42.8345  44.2756  45.4580  45.7740  45.9987
    47.7569  48.8416  49.1722  50.5162  50.5631  50.9950  51.6097  51.6156
    52.2083  52.3196  53.0529  54.3111  54.6943  54.8982  55.6490  56.2964
    56.6387  56.9548  57.4680  58.5072  58.5679  58.7260

          k = 0.2000 0.2000 0.3103 (  1614 PWs)   bands (ev):

   -44.8961 -44.8747 -19.4895 -19.4369 -19.3544 -19.2129 -19.1163 -19.0039
    -3.9988  -3.3928  -3.0641  -2.7018   7.6061   8.2732   8.2987   9.0466
     9.2319   9.9789  11.1235  11.3348  11.5772  12.4632  12.4698  13.1491
    16.8782  17.2502  17.9083  18.4058  18.4498  19.9212  22.4060  22.6807
    23.8273  25.0321  25.1807  27.7269  28.4405  30.3615  30.8209  31.5141
    32.5132  33.7919  34.7193  35.5203  37.0896  38.3532  38.4810  39.6984
    39.7371  40.8990  42.7397  42.8894  43.4646  43.6034  45.0730  45.6579
    46.2650  46.8902  48.1921  48.4515  50.8025  51.1948  51.6928  52.3699
    53.6162  53.8906  54.1198  54.2836  55.1903  55.3949  56.1004  56.4701
    56.5182  56.9676  57.1680  57.8429  60.1734  60.7161

          k = 0.2000 0.2000 0.6207 (  1610 PWs)   bands (ev):

   -44.8350 -44.8267 -20.0704 -20.0475 -19.1584 -19.0997 -19.0289 -18.9979
    -4.0413  -3.5224  -2.9203  -2.2786   7.9774   8.4578   8.5791   9.1234
     9.5388  10.5720  10.9792  11.0864  11.6654  11.9251  12.3132  12.6413
    16.5904  18.0869  18.2541  18.4708  18.8894  19.7343  22.2494  23.3594
    23.8948  24.8594  26.4223  28.0904  28.6101  30.4230  30.9570  31.8453
    32.9518  33.3757  33.8311  34.2589  36.1219  36.4297  37.9995  38.9565
    40.4013  41.0247  41.7795  43.6797  43.9195  44.8881  45.1834  45.9623
    46.4453  46.4509  47.6444  50.4614  50.6785  51.2033  51.6096  52.0524
    52.6387  53.3459  53.4179  53.6169  54.7426  55.2159  55.6027  56.4640
    56.9166  57.6168  58.8935  59.2067  59.9311  60.3086

          k = 0.2000 0.4000 0.0000 (  1626 PWs)   bands (ev):

   -44.9238 -44.9137 -19.4300 -19.3379 -19.1560 -19.0575 -19.0544 -19.0304
    -4.3170  -3.9310  -2.7877  -2.3891   7.2001   7.9723   8.7084   8.8005
     9.1529  10.2158  10.6007  11.5635  12.0447  12.3004  12.4265  12.9088
    16.7706  17.3554  17.7058  18.2349  18.8367  19.7396  22.7543  23.7864
    24.0960  24.2474  25.0038  26.0698  27.9843  29.0239  30.1151  30.2525
    34.1496  34.7467  35.3766  36.7783  37.0533  37.1397  39.3365  40.0943
    40.5817  40.8802  41.8869  42.5686  43.6847  44.0029  44.5913  46.3988
    47.6358  48.0510  49.6188  50.5726  50.9472  50.9508  52.1096  52.6962
    52.9977  53.3527  54.0000  54.6086  55.0201  55.1928  55.3132  55.8042
    56.7195  56.8196  57.2926  58.2905  58.3133  59.2063

          k = 0.2000 0.4000 0.3103 (  1608 PWs)   bands (ev):

   -44.8894 -44.8812 -19.4823 -19.4622 -19.3188 -19.2316 -19.0995 -19.0278
    -3.7661  -3.4371  -3.1258  -2.8477   7.8585   8.2837   8.4401   8.8024
     9.8067  10.0574  10.7346  11.3540  11.4372  12.0874  12.4365  12.7872
    17.3308  17.5686  17.8750  18.3247  18.8388  19.3615  22.5063  23.0466
    23.5860  24.3582  26.0288  26.9032  29.1401  30.2181  30.4400  30.7381
    32.7363  33.1977  34.7590  35.6799  37.1787  37.8133  39.3104  40.1910
    40.4189  41.1893  42.1629  42.4333  43.6907  44.2828  44.8610  45.6090
    47.0701  47.7256  48.7869  49.5461  50.5804  51.2496  51.7857  52.3833
    52.9116  53.6696  54.1046  54.3660  54.4850  55.2418  55.4799  55.8638
    56.8059  57.3788  57.7977  58.1586  58.9120  59.5716

          k = 0.2000 0.4000 0.6207 (  1595 PWs)   bands (ev):

   -44.8323 -44.8291 -20.0685 -20.0568 -19.1439 -19.1064 -19.0256 -19.0052
    -4.0474  -3.7993  -2.5883  -2.2694   7.8705   8.0755   8.6728   9.0844
     9.7030  10.5656  11.0826  11.4135  11.5433  12.0390  12.4946  12.8874
    16.4518  17.1083  18.5424  18.7334  18.9816  19.5253  22.3592  22.9404
    24.4057  24.8979  26.4745  27.1557  28.4511  29.3318  30.9823  31.7210
    33.0961  33.4977  34.2483  35.1190  36.1483  36.6852  37.5034  38.3648
    41.3156  41.5516  42.1034  43.5717  44.6106  45.0165  45.9726  46.0995
    47.0582  47.8636  49.2145  49.4532  49.7212  51.0697  51.4103  52.2058
    52.4949  52.7965  53.0492  53.8714  54.6403  55.6283  55.7015  56.3321
    56.7625  56.8491  58.1932  58.5279  59.4933  60.0052

          k = 0.4000 0.4000 0.0000 (  1610 PWs)   bands (ev):

   -44.9205 -44.9168 -19.4782 -19.4423 -19.0490 -19.0468 -19.0376 -19.0090
    -4.3824  -4.2215  -2.4328  -2.2286   6.8726   7.2269   8.6319   8.6833
     9.8640  10.7135  10.9438  11.6358  12.1330  12.3992  12.6195  12.8412
    16.2962  16.7484  17.4008  17.7218  19.3094  19.6478  23.0497  23.5613
    24.2399  24.5045  25.7462  26.2028  28.3437  28.4780  29.0535  29.4796
    34.3030  34.6014  36.7605  37.9221  38.7008  39.1034  39.1499  39.8261
    39.8460  39.8956  40.3928  41.2169  42.8498  43.9395  44.5223  46.2210
    47.1111  47.9425  49.1038  49.8265  50.9996  52.0362  52.9675  53.2993
    53.3264  53.5290  54.4223  55.3050  55.5535  56.1629  56.2481  56.3236
    56.5237  57.3800  57.4305  58.0387  58.5251  58.7429

          k = 0.4000 0.4000 0.3103 (  1605 PWs)   bands (ev):

   -44.8868 -44.8837 -19.4625 -19.4488 -19.3721 -19.3266 -19.0212 -18.9936
    -3.7872  -3.6697  -2.8881  -2.7692   7.6715   7.8778   8.3261   8.4765
    10.5593  10.6218  11.1670  11.2926  11.8511  11.9600  12.1306  12.5758
    17.2226  17.5556  17.6163  17.9092  18.7693  19.0061  23.1555  23.5153
    23.7234  23.9710  26.3537  26.6786  29.0807  29.5588  30.1107  30.3473
    32.6732  32.7728  35.6942  36.1812  36.4834  37.4044  39.8117  40.8124
    41.1069  41.2378  42.4554  42.8685  44.1873  44.7169  45.3600  46.2024
    47.3466  47.3764  48.6696  48.8869  50.5069  51.5791  51.6984  52.1697
    52.5037  52.7020  53.2129  53.6653  53.7932  55.1769  55.6425  55.8406
    56.6446  56.8909  58.5100  58.8268  59.3685  59.5845

          k = 0.4000 0.4000 0.6207 (  1591 PWs)   bands (ev):

   -44.8312 -44.8300 -20.0545 -20.0478 -19.1668 -19.1484 -19.0040 -18.9964
    -3.8139  -3.5782  -2.8374  -2.5607   8.0346   8.3034   9.0990   9.1081
     9.4817   9.8036  10.9252  11.2094  11.7554  12.0422  12.9743  13.1275
    16.9669  17.6078  18.2429  18.5369  18.6216  18.9332  22.8772  23.5648
    23.7946  24.3718  26.1589  26.4176  28.5327  29.5949  29.8003  30.9532
    33.6288  33.8132  34.8100  35.2738  36.0365  36.5856  37.8640  38.3195
    42.3347  42.3534  42.6154  43.7916  45.4908  45.5727  46.8704  47.4641
    47.6679  49.1691  49.4512  50.1204  50.3644  50.7750  50.7783  51.4027
    51.9482  51.9565  52.5884  52.8242  53.3841  53.9133  54.3370  55.9407
    56.8647  57.1007  57.2890  58.3584  58.6337  58.9609

     the Fermi energy is    17.5695 ev

!    total energy              =    -407.56123050 Ry
     Harris-Foulkes estimate   =    -407.56123026 Ry
     estimated scf accuracy    <       0.00000085 Ry

     The total energy is the sum of the following terms:

     one-electron contribution =     -84.31149889 Ry
     hartree contribution      =      77.96753904 Ry
     xc contribution           =     -68.49948842 Ry
     ewald contribution        =    -332.71784009 Ry
     smearing contrib. (-TS)   =       0.00005787 Ry

     total magnetization       =     0.54 Bohr mag/cell
     absolute magnetization    =     0.54 Bohr mag/cell

     convergence has been achieved in  12 iterations

     Forces acting on atoms (Ry/au):


     negative rho (up, down):  0.000E+00 0.473E-04
     atom    1 type  1   force =     0.00000000    0.00000000    0.00000000
     atom    2 type  1   force =     0.00000000    0.00000000   -0.00000000
     atom    3 type  2   force =    -0.08678638   -0.08678638    0.00000000
     atom    4 type  2   force =     0.08678638    0.08678638    0.00000000
     atom    5 type  2   force =    -0.08678638    0.08678638    0.00000000
     atom    6 type  2   force =     0.08678638   -0.08678638    0.00000000

     Total force =     0.245469     Total SCF correction =     0.000629


     entering subroutine stress ...


     negative rho (up, down):  0.000E+00 0.473E-04
          total   stress  (Ry/bohr**3)                   (kbar)     P=  804.50
   0.00529762   0.00000000   0.00000000        779.31      0.00      0.00
   0.00000000   0.00529762   0.00000000          0.00    779.31      0.00
   0.00000000   0.00000000   0.00581134          0.00      0.00    854.88

     Volume is kept fixed: isostatic pressure set to zero

     BFGS Geometry Optimization

     number of scf cycles    =   1
     number of bfgs steps    =   0

     enthalpy new            =    -407.5612304968 Ry

     new trust radius        =       0.1227344759 bohr
     new conv_thr            =       0.0000010000 Ry

     new unit-cell volume =    376.55707 a.u.^3 (    55.80000 Ang^3 )

CELL_PARAMETERS (alat=  8.36016997)
   0.995737202   0.000000000   0.000000000
   0.000000000   0.995737202   0.000000000
   0.000000000   0.000000000   0.649974050

ATOMIC_POSITIONS (crystal)
Mo0      0.000000000   0.000000000   0.000000000    0   0   0
Mo0      0.500000000   0.500000000   0.500000000    0   0   0
O1       0.294619065   0.294619065   0.000000000    1   1   0
O1      -0.294619065  -0.294619065   0.000000000    1   1   0
O1       0.794619065   0.205380935   0.500000000    1   1   0
O1       0.205380935   0.794619065   0.500000000    1   1   0


     NEW-OLD atomic charge density approx. for the potential
     NEW k-points:
        k(    1) = (   0.0000000   0.0000000   0.0000000), wk =   0.0080000
        k(    2) = (   0.0000000   0.0000000   0.3077046), wk =   0.0160000
        k(    3) = (   0.0000000   0.0000000   0.6154092), wk =   0.0160000
        k(    4) = (   0.0000000   0.2008562   0.0000000), wk =   0.0320000
        k(    5) = (   0.0000000   0.2008562   0.3077046), wk =   0.0640000
        k(    6) = (   0.0000000   0.2008562   0.6154092), wk =   0.0640000
        k(    7) = (   0.0000000   0.4017124   0.0000000), wk =   0.0320000
        k(    8) = (   0.0000000   0.4017124   0.3077046), wk =   0.0640000
        k(    9) = (   0.0000000   0.4017124   0.6154092), wk =   0.0640000
        k(   10) = (   0.2008562   0.2008562   0.0000000), wk =   0.0320000
        k(   11) = (   0.2008562   0.2008562   0.3077046), wk =   0.0640000
        k(   12) = (   0.2008562   0.2008562   0.6154092), wk =   0.0640000
        k(   13) = (   0.2008562   0.4017124   0.0000000), wk =   0.0640000
        k(   14) = (   0.2008562   0.4017124   0.3077046), wk =   0.1280000
        k(   15) = (   0.2008562   0.4017124   0.6154092), wk =   0.1280000
        k(   16) = (   0.4017124   0.4017124   0.0000000), wk =   0.0320000
        k(   17) = (   0.4017124   0.4017124   0.3077046), wk =   0.0640000
        k(   18) = (   0.4017124   0.4017124   0.6154092), wk =   0.0640000
        k(   19) = (   0.0000000   0.0000000   0.0000000), wk =   0.0080000
        k(   20) = (   0.0000000   0.0000000   0.3077046), wk =   0.0160000
        k(   21) = (   0.0000000   0.0000000   0.6154092), wk =   0.0160000
        k(   22) = (   0.0000000   0.2008562   0.0000000), wk =   0.0320000
        k(   23) = (   0.0000000   0.2008562   0.3077046), wk =   0.0640000
        k(   24) = (   0.0000000   0.2008562   0.6154092), wk =   0.0640000
        k(   25) = (   0.0000000   0.4017124   0.0000000), wk =   0.0320000
        k(   26) = (   0.0000000   0.4017124   0.3077046), wk =   0.0640000
        k(   27) = (   0.0000000   0.4017124   0.6154092), wk =   0.0640000
        k(   28) = (   0.2008562   0.2008562   0.0000000), wk =   0.0320000
        k(   29) = (   0.2008562   0.2008562   0.3077046), wk =   0.0640000
        k(   30) = (   0.2008562   0.2008562   0.6154092), wk =   0.0640000
        k(   31) = (   0.2008562   0.4017124   0.0000000), wk =   0.0640000
        k(   32) = (   0.2008562   0.4017124   0.3077046), wk =   0.1280000
        k(   33) = (   0.2008562   0.4017124   0.6154092), wk =   0.1280000
        k(   34) = (   0.4017124   0.4017124   0.0000000), wk =   0.0320000
        k(   35) = (   0.4017124   0.4017124   0.3077046), wk =   0.0640000
        k(   36) = (   0.4017124   0.4017124   0.6154092), wk =   0.0640000

     Check: negative/imaginary core charge=   -0.000008    0.000000

     negative rho (up, down):  0.000E+00 0.476E-04

     total cpu time spent up to now is      270.0 secs

     per-process dynamical memory:    44.9 Mb

     Self-consistent Calculation

     iteration #  1     ecut=    40.00 Ry     beta=0.70
     Davidson diagonalization with overlap
     ethr =  1.00E-06,  avg # of iterations =  5.6

     negative rho (up, down):  0.000E+00 0.407E-04

     total cpu time spent up to now is      311.7 secs

     total energy              =    -407.58719932 Ry
     Harris-Foulkes estimate   =    -407.59307894 Ry
     estimated scf accuracy    <       0.01182434 Ry

     total magnetization       =     0.35 Bohr mag/cell
     absolute magnetization    =     0.36 Bohr mag/cell

     iteration #  2     ecut=    40.00 Ry     beta=0.70
     Davidson diagonalization with overlap
     ethr =  2.27E-05,  avg # of iterations =  2.0

     negative rho (up, down):  0.000E+00 0.312E-04

     total cpu time spent up to now is      327.9 secs

     total energy              =    -407.58882768 Ry
     Harris-Foulkes estimate   =    -407.58965981 Ry
     estimated scf accuracy    <       0.00161009 Ry

     total magnetization       =     0.26 Bohr mag/cell
     absolute magnetization    =     0.27 Bohr mag/cell

     iteration #  3     ecut=    40.00 Ry     beta=0.70
     Davidson diagonalization with overlap
     ethr =  3.10E-06,  avg # of iterations =  1.8

     negative rho (up, down):  0.000E+00 0.286E-04

     total cpu time spent up to now is      343.9 secs

     total energy              =    -407.58930302 Ry
     Harris-Foulkes estimate   =    -407.59002632 Ry
     estimated scf accuracy    <       0.00194773 Ry

     total magnetization       =     0.21 Bohr mag/cell
     absolute magnetization    =     0.22 Bohr mag/cell

     iteration #  4     ecut=    40.00 Ry     beta=0.70
     Davidson diagonalization with overlap
     ethr =  3.10E-06,  avg # of iterations =  1.0

     negative rho (up, down):  0.000E+00 0.218E-04

     total cpu time spent up to now is      358.5 secs

     total energy              =    -407.58976858 Ry
     Harris-Foulkes estimate   =    -407.58968032 Ry
     estimated scf accuracy    <       0.00004991 Ry

     total magnetization       =     0.17 Bohr mag/cell
     absolute magnetization    =     0.18 Bohr mag/cell

     iteration #  5     ecut=    40.00 Ry     beta=0.70
     Davidson diagonalization with overlap
     ethr =  9.60E-08,  avg # of iterations =  1.8

     negative rho (up, down):  0.000E+00 0.132E-04

     total cpu time spent up to now is      374.6 secs

     total energy              =    -407.58984621 Ry
     Harris-Foulkes estimate   =    -407.58981010 Ry
     estimated scf accuracy    <       0.00001982 Ry

     total magnetization       =     0.13 Bohr mag/cell
     absolute magnetization    =     0.13 Bohr mag/cell

     iteration #  6     ecut=    40.00 Ry     beta=0.70
     Davidson diagonalization with overlap
     ethr =  3.81E-08,  avg # of iterations =  2.0

     negative rho (up, down):  0.343E-05 0.727E-05

     total cpu time spent up to now is      392.0 secs

     total energy              =    -407.58990631 Ry
     Harris-Foulkes estimate   =    -407.58991048 Ry
     estimated scf accuracy    <       0.00000474 Ry

     total magnetization       =     0.06 Bohr mag/cell
     absolute magnetization    =     0.07 Bohr mag/cell

     iteration #  7     ecut=    40.00 Ry     beta=0.70
     Davidson diagonalization with overlap
     ethr =  9.11E-09,  avg # of iterations =  2.0

     negative rho (up, down):  0.391E-05 0.680E-05

     total cpu time spent up to now is      410.5 secs

     End of self-consistent calculation

 ------ SPIN UP ------------


          k = 0.0000 0.0000 0.0000 (  1623 PWs)   bands (ev):

   -45.0773 -45.0359 -19.6984 -19.6984 -19.1904 -19.1904 -19.1338 -19.0302
    -4.8004  -3.9970  -2.0727  -2.0727   6.6990   7.2477   7.4841   9.0674
     9.0674  11.5630  11.5630  11.9237  12.9918  13.1939  13.1939  13.9985
    15.8500  16.0337  16.7738  17.1351  17.1351  21.1193  21.5846  22.6400
    23.7614  23.7614  25.9548  25.9548  26.7072  30.3653  32.1840  32.6611
    32.9875  34.4052  35.5745  35.5745  38.0136  38.1338  38.6544  38.6544
    39.2322  39.2322  40.0314  44.7414  44.7414  45.5248  45.6699  45.7460
    47.8712  48.3195  49.4277  49.4277  50.2796  50.2796  50.4586  50.9211
    51.3285  51.6325  51.9901  51.9901  53.5385  56.2176  57.0190  57.0190
    57.4111  57.6655  58.7862  58.9796  58.9796  59.1130

          k = 0.0000 0.0000 0.3077 (  1607 PWs)   bands (ev):

   -45.0454 -45.0116 -19.6347 -19.6347 -19.4597 -19.3811 -19.1523 -19.1523
    -4.2679  -3.6012  -2.5106  -2.5106   7.3242   8.0054   8.0272   8.9466
     8.9466  10.7259  11.5279  12.0419  12.0419  12.4704  12.4704  13.4119
    16.6645  16.8013  17.1129  17.6999  17.6999  20.5261  22.3544  23.2970
    23.2970  23.8158  26.0117  27.8794  27.8794  30.5340  31.2675  31.9871
    32.4707  34.2342  34.5946  34.5946  36.4226  39.1849  39.3450  39.3450
    39.9897  39.9897  43.0119  43.2176  43.5705  44.2644  44.3459  44.7589
    44.7589  46.0893  46.6272  46.6272  51.6163  51.7662  51.7662  51.7837
    52.1967  53.2020  53.2020  54.0490  55.3593  56.2496  56.8482  56.8482
    57.1800  57.8720  57.8720  59.8764  60.4099  61.3281

          k = 0.0000 0.0000 0.6154 (  1595 PWs)   bands (ev):

   -44.9891 -44.9761 -19.9447 -19.9173 -19.5329 -19.5329 -19.0853 -19.0853
    -3.3285  -3.1779  -3.1779  -3.0599   8.2227   8.6208   9.0961   9.0961
     9.4806   9.9749  10.2605  11.0859  11.0859  11.5687  12.7029  12.7029
    17.6175  17.9747  18.6322  18.6322  18.6999  19.1029  23.1370  23.2924
    23.2924  23.7958  26.4803  28.8605  30.7670  30.7670  30.9705  31.4022
    32.6068  32.9497  32.9497  33.2551  34.8969  35.9621  39.8022  39.8022
    41.4759  41.4759  41.9494  42.6150  42.6176  43.1491  44.6874  44.6874
    45.0002  46.2254  46.2254  48.8440  50.2524  51.8673  51.8673  52.9313
    52.9313  53.3291  53.3291  53.8720  53.9257  54.7109  56.0993  58.1958
    58.1958  58.4187  59.1262  59.9399  60.0236  60.0236

          k = 0.0000 0.2009 0.0000 (  1613 PWs)   bands (ev):

   -45.0734 -45.0398 -19.6715 -19.6687 -19.2271 -19.2239 -19.1239 -19.0401
    -4.5780  -3.8555  -2.3721  -2.2960   7.1149   7.6149   7.8615   9.1254
     9.1452  10.9844  11.2239  11.7697  12.3914  12.5999  12.8100  13.8032
    16.2355  16.5296  17.2825  17.5257  17.6133  20.6218  21.9315  23.0878
    23.4081  23.4567  26.1146  26.2335  26.5997  30.0900  31.7370  31.9890
    33.1734  34.0322  35.2789  36.5217  36.9028  37.9147  37.9674  38.4888
    39.8801  40.3145  42.1000  42.9941  44.9136  45.0907  46.3030  46.5318
    47.7818  48.5502  48.6303  48.7847  50.4973  50.7490  51.1338  51.2599
    51.5984  52.0246  52.7623  53.2422  53.4257  55.1474  56.3673  56.5883
    56.7265  57.5978  58.0001  58.3279  58.3619  58.7904

          k = 0.0000 0.2009 0.3077 (  1610 PWs)   bands (ev):

   -45.0421 -45.0148 -19.6370 -19.6241 -19.4305 -19.3864 -19.1755 -19.1692
    -4.1160  -3.5357  -2.6633  -2.6256   7.6071   8.1153   8.2232   8.9813
     9.3005  10.4715  10.7355  11.8643  11.9170  12.3548  12.4167  13.3936
    16.6909  17.1474  17.3301  17.7027  18.2362  20.1978  22.5930  22.6816
    22.9866  24.4059  25.8914  27.7262  28.2040  30.6228  31.2316  31.7101
    32.0400  33.6017  34.1226  36.0756  36.6730  38.2380  39.0478  39.4626
    39.6101  40.5878  42.8255  43.2398  43.4064  43.8857  44.1928  45.0595
    45.9715  46.4831  47.5728  47.8040  50.9258  51.9220  52.1675  52.2066
    52.4028  52.6765  53.6548  54.4024  55.0452  55.7720  56.2032  56.2251
    57.0948  57.2982  58.1477  59.1513  59.3554  60.4188

          k = 0.0000 0.2009 0.6154 (  1622 PWs)   bands (ev):

   -44.9879 -44.9775 -19.9619 -19.9393 -19.5113 -19.5096 -19.0888 -19.0874
    -3.7432  -3.6491  -2.6896  -2.5612   7.9906   8.2516   8.6577   9.0965
     9.8297   9.9259  10.7828  11.2490  11.5324  12.0706  12.3696  12.4800
    16.9794  17.8328  18.1698  18.6496  19.0938  19.4092  22.4635  22.7049
    23.8863  24.7838  26.4318  28.3695  30.0013  30.6521  30.8873  31.5475
    31.9215  32.6184  33.8310  34.3089  35.4817  36.2478  39.1068  39.2662
    40.3224  41.1871  42.2069  42.2631  43.3023  44.0419  44.9866  45.4701
    45.9508  46.2186  46.6297  49.3011  51.0622  51.4037  51.8725  52.1380
    52.5955  52.9729  53.3910  54.0430  54.3868  54.7827  55.8672  57.5462
    57.7895  58.1783  58.6847  59.9857  60.5894  60.6458

          k = 0.0000 0.4017 0.0000 (  1619 PWs)   bands (ev):

   -45.0629 -45.0501 -19.6136 -19.6095 -19.2972 -19.2927 -19.0979 -19.0659
    -3.9854  -3.5236  -3.0251  -2.8084   8.1290   8.3396   9.0378   9.2470
     9.2717   9.9036  10.0941  10.7655  11.6276  11.9394  12.8518  13.3197
    16.8003  16.9795  18.2529  18.3412  18.3548  19.5390  22.7977  22.8575
    22.9323  23.7458  25.4746  26.0389  27.8451  29.4162  31.0429  31.3021
    33.6732  34.6269  34.7819  34.8954  35.3230  36.6527  39.5258  40.4362
    40.6283  41.7159  42.7045  43.5393  45.1217  45.3406  45.4593  45.4958
    47.4520  48.3418  48.3771  48.9827  50.6183  50.8956  50.8988  51.6199
    52.1936  52.4505  53.7732  54.3019  54.5778  54.6468  55.7630  55.9329
    57.1970  57.3218  57.9529  58.0699  58.1056  58.1577

          k = 0.0000 0.4017 0.3077 (  1605 PWs)   bands (ev):

   -45.0336 -45.0232 -19.6294 -19.6163 -19.3822 -19.3809 -19.2182 -19.2085
    -3.7301  -3.4277  -2.9777  -2.8846   8.2240   8.3776   8.7142   9.0658
     9.8203   9.8959  10.3005  11.0818  11.1404  11.7190  12.9190  13.2160
    17.1192  17.4234  17.7807  18.0121  18.9761  19.5062  21.9917  22.1304
    23.5390  24.4478  26.1394  27.0184  29.2749  30.6714  31.1471  31.3761
    31.8436  32.2397  34.0906  35.5419  37.5148  38.8068  39.3313  39.3697
    39.3932  41.2706  41.7334  42.1399  43.6077  43.7840  45.1415  45.2102
    47.0765  48.3275  48.8757  49.4024  50.1893  50.8188  51.4929  52.1601
    52.8179  53.1771  54.0708  54.1822  54.7360  55.1161  55.6695  56.3581
    57.5155  57.7573  58.5471  58.7637  59.2923  59.7379

          k = 0.0000 0.4017 0.6154 (  1599 PWs)   bands (ev):

   -44.9846 -44.9806 -19.9831 -19.9743 -19.4778 -19.4759 -19.0937 -19.0921
    -4.0035  -3.9711  -2.2776  -2.2217   7.7712   7.8319   8.3669   8.5337
    10.4686  10.5325  11.1590  11.5273  11.8875  11.9052  12.3210  12.6926
    16.2775  16.7147  18.5037  18.6526  19.4561  19.5225  21.9873  22.1881
    24.7525  25.2940  26.7475  27.5194  29.7714  30.0622  30.4252  30.6561
    32.2511  33.3413  33.9370  35.0226  36.3541  36.6418  38.1518  38.4698
    40.7961  40.8666  41.9907  42.5448  43.6415  43.9123  46.0127  46.1181
    46.6428  46.7947  49.1722  49.3155  49.6234  50.2221  51.4690  52.0665
    52.3896  52.4471  53.9589  54.5828  54.9470  55.1635  56.5364  57.4928
    57.6093  58.0707  58.4476  59.3003  59.6101  60.3389

          k = 0.2009 0.2009 0.0000 (  1612 PWs)   bands (ev):

   -45.0700 -45.0430 -19.7102 -19.6064 -19.2985 -19.1837 -19.1158 -19.0481
    -4.4944  -3.6426  -2.8811  -2.1288   6.9352   8.1483   8.4032   9.0295
     9.2750  10.1391  11.3370  11.6393  12.0204  12.6113  12.7983  13.5837
    15.9086  16.9339  17.1621  17.7227  18.2928  20.3520  21.9690  22.8315
    23.7484  23.7782  25.6878  26.3901  27.0181  29.6411  31.0345  31.1867
    33.6819  33.9178  35.3757  37.1960  37.7428  37.9404  38.6706  38.7501
    38.9154  39.9653  41.6509  42.7890  44.2668  45.5362  45.7340  45.7507
    47.8311  48.9354  49.2282  50.6209  50.7135  50.7896  50.8490  51.5671
    52.3511  52.4816  52.4940  53.7671  54.1133  54.8944  55.2238  56.3965
    56.4110  57.7016  58.0542  58.2265  58.3152  58.4463

          k = 0.2009 0.2009 0.3077 (  1614 PWs)   bands (ev):

   -45.0394 -45.0174 -19.6438 -19.6202 -19.4321 -19.3688 -19.2152 -19.1481
    -4.0295  -3.4604  -2.9043  -2.5595   7.6218   8.2722   8.3453   9.2568
     9.3313  10.0004  11.1470  11.1932  11.7241  12.4188  12.5950  13.2990
    16.6595  16.8549  17.4755  18.3186  18.3239  19.9355  22.0516  22.7877
    23.2478  24.7389  25.7738  27.6112  28.3414  30.2702  30.7518  31.3777
    32.3487  33.6099  34.8296  35.5097  36.9840  38.1603  38.4934  39.7150
    39.8260  40.7881  42.6958  42.7967  43.3486  43.4689  45.0830  45.6395
    46.4712  46.8512  48.4053  48.4340  50.5206  51.1873  51.8377  52.1022
    52.5495  53.0604  54.3216  54.5688  55.0509  55.3493  56.0866  56.2927
    56.3143  57.6285  57.6444  57.8365  60.1909  60.3625

          k = 0.2009 0.2009 0.6154 (  1610 PWs)   bands (ev):

   -44.9869 -44.9783 -19.9772 -19.9324 -19.5367 -19.4753 -19.0928 -19.0862
    -3.9921  -3.2188  -3.1468  -2.2450   7.9093   8.2241   8.5118   9.0020
     9.5368  10.4144  11.0419  11.3304  11.5707  12.2343  12.3121  12.4708
    16.7212  17.9817  18.2606  18.2658  18.8210  19.6887  21.9752  23.2594
    23.7368  25.0061  26.3922  28.2798  28.5770  30.4698  30.6598  31.8020
    32.7581  32.9699  33.8565  34.3265  36.0592  36.4670  38.0591  39.0395
    40.2239  40.8890  41.7624  43.5620  43.9197  44.7342  45.5880  45.7094
    46.1097  46.4173  47.4511  49.5609  50.6800  51.3855  51.6295  51.8145
    52.2206  52.8754  53.1846  54.1460  54.2169  54.7150  56.0761  56.5667
    57.8979  58.1488  59.1598  59.2100  59.8480  60.1611

          k = 0.2009 0.4017 0.0000 (  1626 PWs)   bands (ev):

   -45.0616 -45.0513 -19.6875 -19.6210 -19.2881 -19.2148 -19.0948 -19.0689
    -4.1857  -3.6736  -2.9597  -2.4111   7.3577   8.3114   9.0774   9.0805
     9.2346  10.1526  10.5107  11.6699  11.7689  12.2575  12.3868  12.9974
    16.3380  16.8922  17.6030  18.3148  18.6301  19.5930  22.8174  22.8210
    23.4144  23.9499  25.5311  26.2666  28.0290  29.0710  29.9875  30.3354
    33.8592  34.6055  35.1212  36.7786  37.0554  37.1209  39.3254  40.1656
    40.3194  40.7399  41.8848  42.5362  43.7799  43.8609  44.5445  46.4051
    47.6296  48.5652  49.7711  50.4649  50.8448  50.8661  51.5469  52.3471
    52.5299  52.8409  54.1786  54.5585  54.7962  55.2022  55.4246  55.8322
    56.6662  56.7058  57.6722  58.1653  58.3074  59.5652

          k = 0.2009 0.4017 0.3077 (  1608 PWs)   bands (ev):

   -45.0325 -45.0241 -19.6428 -19.6262 -19.4166 -19.3754 -19.2102 -19.1661
    -3.7945  -3.4979  -2.9696  -2.7142   7.8827   8.3080   8.5564   9.0329
     9.8604  10.0549  10.6838  11.3091  11.3852  12.0664  12.5903  12.9581
    17.0516  17.2433  17.4914  18.1434  18.8082  19.3384  22.0373  22.7587
    23.5094  24.4288  26.2185  26.9809  29.1606  30.1484  30.2592  30.5858
    32.7232  33.1029  34.5985  35.5798  37.1137  37.7601  39.0584  39.9991
    40.4143  41.0958  42.0189  42.2822  43.6423  44.3707  44.9322  45.8926
    47.2079  47.8626  48.7296  49.5373  50.4203  51.1619  51.2484  51.8809
    52.8725  53.3083  53.7433  54.4526  54.7921  55.1259  55.7546  56.1070
    56.7291  57.3103  57.7118  58.3708  58.6526  59.5532

          k = 0.2009 0.4017 0.6154 (  1595 PWs)   bands (ev):

   -44.9841 -44.9809 -19.9768 -19.9517 -19.5153 -19.4783 -19.0934 -19.0891
    -3.9876  -3.6916  -2.6183  -2.2429   7.8083   7.9919   8.4427   8.8901
     9.7400  10.6142  11.0790  11.4519  11.6916  11.9682  12.6485  12.8822
    16.4820  17.0341  18.4457  18.5488  18.9440  19.4438  22.0460  22.6721
    24.4826  25.0304  26.5464  27.2223  28.5248  29.3508  30.8514  31.6527
    32.8821  33.4348  34.0759  34.9828  36.1428  36.6051  37.5304  38.3874
    41.0046  41.5476  42.1007  43.2957  44.5718  44.8969  46.0001  46.2538
    47.0895  47.8157  48.7879  49.3330  49.6938  50.5182  50.9881  51.7116
    51.8309  52.5002  53.5648  54.4313  54.9479  55.3824  55.5720  56.4397
    56.8230  57.4755  58.0667  58.4848  59.4584  60.1464

          k = 0.4017 0.4017 0.0000 (  1610 PWs)   bands (ev):

   -45.0582 -45.0543 -19.7295 -19.6984 -19.2080 -19.1726 -19.0867 -19.0767
    -4.2803  -4.0892  -2.4608  -2.2140   6.9760   7.3763   8.9685   9.0479
     9.8541  10.8690  10.9474  11.8101  12.0619  12.2395  12.5286  12.8281
    15.8383  16.3068  17.2087  17.6286  19.1632  19.5234  23.1573  23.4031
    23.6762  23.7277  26.0102  26.3134  28.3696  28.3958  29.0428  29.5788
    34.1095  34.5330  36.5273  37.8294  38.7651  39.1691  39.2412  39.4283
    39.7091  39.8487  40.0170  41.1537  42.7547  43.8525  44.5337  46.2244
    46.8411  48.1951  49.6860  50.0107  51.3009  52.1230  52.3480  52.3690
    53.1825  53.8094  54.5487  54.9521  55.1141  55.6623  55.8195  56.7612
    56.7867  57.2506  57.7368  57.9179  58.6268  58.9541

          k = 0.4017 0.4017 0.3077 (  1605 PWs)   bands (ev):

   -45.0298 -45.0266 -19.6588 -19.6494 -19.4242 -19.4045 -19.1622 -19.1412
    -3.8145  -3.6977  -2.7575  -2.6346   7.6984   7.8998   8.4488   8.6460
    10.5476  10.6509  11.1377  11.2680  11.9036  12.0507  12.1824  12.6384
    16.8348  17.2085  17.3293  17.7376  18.7492  18.9804  22.7291  23.1614
    23.7238  24.1377  26.4306  26.7166  29.2011  29.5624  29.7658  30.0574
    32.8908  32.8948  35.6800  36.1137  36.2525  37.2273  39.4683  40.6031
    40.6721  40.9327  42.4983  42.9542  44.1026  44.6109  45.4108  46.4509
    47.5908  47.7995  48.3676  48.7365  50.5449  51.2500  51.6139  51.8663
    52.2111  52.5124  52.9438  54.1037  54.4748  55.3426  55.6693  56.1337
    56.2283  56.3728  58.1879  58.8360  59.3386  59.5456

          k = 0.4017 0.4017 0.6154 (  1591 PWs)   bands (ev):

   -44.9830 -44.9818 -19.9481 -19.9306 -19.5429 -19.5180 -19.0898 -19.0877
    -3.6944  -3.2823  -3.0645  -2.6052   7.9804   8.2502   8.8915   8.9818
     9.4803   9.8850  11.0124  11.3568  11.5935  11.9109  13.0813  13.1553
    17.0109  17.7901  17.9171  18.4318  18.5418  18.8142  22.6115  23.1783
    24.0303  24.4578  26.1332  26.3566  28.6696  29.4308  30.0574  30.9750
    33.4835  33.7303  34.8885  35.3788  35.6682  36.3089  37.6851  38.1557
    42.1045  42.6432  42.8195  43.2702  45.5597  45.6112  46.6706  47.1519
    47.8956  48.5542  49.0672  49.5304  50.4758  50.5622  51.0507  51.1403
    51.5350  51.5387  52.4223  53.5311  53.7634  54.2872  54.6441  55.4721
    56.5754  56.9750  57.7982  58.1174  58.7846  58.8246

 ------ SPIN DOWN ----------


          k = 0.0000 0.0000 0.0000 (  1623 PWs)   bands (ev):

   -45.0701 -45.0287 -19.6931 -19.6931 -19.1812 -19.1812 -19.1246 -19.0210
    -4.7993  -3.9958  -2.0717  -2.0717   6.7030   7.2531   7.4856   9.0687
     9.0687  11.5642  11.5642  11.9238  12.9916  13.1957  13.1957  13.9985
    15.8696  16.0481  16.7787  17.1429  17.1429  21.1230  21.5930  22.6434
    23.7641  23.7641  25.9603  25.9603  26.7121  30.3667  32.1902  32.6613
    32.9938  34.4122  35.5784  35.5784  38.0171  38.1345  38.6666  38.6666
    39.2382  39.2382  40.0340  44.7423  44.7423  45.5269  45.6721  45.7516
    47.8756  48.3246  49.4280  49.4280  50.2810  50.2810  50.4637  50.9273
    51.3286  51.6381  51.9922  51.9922  53.5482  56.2193  57.0253  57.0253
    57.4191  57.6770  58.7856  58.9834  58.9834  59.1143

          k = 0.0000 0.0000 0.3077 (  1607 PWs)   bands (ev):

   -45.0382 -45.0044 -19.6298 -19.6298 -19.4506 -19.3720 -19.1426 -19.1426
    -4.2667  -3.5998  -2.5097  -2.5097   7.3279   8.0068   8.0322   8.9484
     8.9484  10.7277  11.5311  12.0427  12.0427  12.4730  12.4730  13.4121
    16.6778  16.8060  17.1301  17.7064  17.7064  20.5298  22.3631  23.3008
    23.3008  23.8185  26.0166  27.8844  27.8844  30.5354  31.2719  31.9877
    32.4772  34.2406  34.5991  34.5991  36.4264  39.1891  39.3493  39.3493
    40.0013  40.0013  43.0172  43.2196  43.5786  44.2659  44.3481  44.7607
    44.7607  46.0940  46.6298  46.6298  51.6215  51.7680  51.7680  51.7906
    52.1976  53.2033  53.2033  54.0537  55.3626  56.2588  56.8510  56.8510
    57.1833  57.8781  57.8781  59.8790  60.4122  61.3355

          k = 0.0000 0.0000 0.6154 (  1595 PWs)   bands (ev):

   -44.9819 -44.9689 -19.9358 -19.9084 -19.5287 -19.5287 -19.0748 -19.0748
    -3.3271  -3.1772  -3.1772  -3.0585   8.2264   8.6252   9.0984   9.0984
     9.4818   9.9773  10.2638  11.0888  11.0888  11.5696  12.7035  12.7035
    17.6216  17.9894  18.6381  18.6381  18.7179  19.1067  23.1457  23.2961
    23.2961  23.8006  26.4828  28.8633  30.7725  30.7725  30.9718  31.4032
    32.6131  32.9545  32.9545  33.2603  34.9018  35.9684  39.8044  39.8044
    41.4783  41.4783  41.9563  42.6163  42.6191  43.1554  44.6979  44.6979
    45.0046  46.2328  46.2328  48.8501  50.2541  51.8694  51.8694  52.9355
    52.9355  53.3318  53.3318  53.8806  53.9276  54.7188  56.1030  58.1993
    58.1993  58.4205  59.1285  59.9440  60.0296  60.0296

          k = 0.0000 0.2009 0.0000 (  1613 PWs)   bands (ev):

   -45.0662 -45.0326 -19.6663 -19.6636 -19.2177 -19.2145 -19.1147 -19.0308
    -4.5770  -3.8543  -2.3710  -2.2949   7.1189   7.6197   7.8636   9.1266
     9.1464  10.9862  11.2261  11.7701  12.3939  12.6004  12.8112  13.8033
    16.2540  16.5446  17.2872  17.5332  17.6207  20.6256  21.9389  23.0913
    23.4107  23.4592  26.1197  26.2385  26.6048  30.0921  31.7425  31.9957
    33.1736  34.0391  35.2828  36.5288  36.9074  37.9223  37.9680  38.4922
    39.8894  40.3224  42.1015  42.9989  44.9146  45.0932  46.3052  46.5389
    47.7856  48.5546  48.6337  48.7851  50.5009  50.7511  51.1386  51.2608
    51.6007  52.0297  52.7646  53.2449  53.4342  55.1513  56.3725  56.5951
    56.7277  57.6041  58.0105  58.3311  58.3654  58.7950

          k = 0.0000 0.2009 0.3077 (  1610 PWs)   bands (ev):

   -45.0349 -45.0076 -19.6318 -19.6193 -19.4218 -19.3772 -19.1657 -19.1595
    -4.1148  -3.5343  -2.6623  -2.6246   7.6107   8.1185   8.2257   8.9834
     9.3032  10.4731  10.7376  11.8665  11.9183  12.3583  12.4180  13.3937
    16.6971  17.1614  17.3461  17.7094  18.2425  20.2017  22.5999  22.6852
    22.9910  24.4089  25.8960  27.7301  28.2091  30.6253  31.2363  31.7144
    32.0425  33.6057  34.1290  36.0804  36.6773  38.2440  39.0532  39.4697
    39.6153  40.5952  42.8282  43.2438  43.4119  43.8871  44.2006  45.0625
    45.9748  46.4869  47.5746  47.8066  50.9287  51.9247  52.1700  52.2120
    52.4083  52.6800  53.6569  54.4087  55.0494  55.7757  56.2060  56.2291
    57.0984  57.3035  58.1527  59.1548  59.3590  60.4215

          k = 0.0000 0.2009 0.6154 (  1622 PWs)   bands (ev):

   -44.9807 -44.9703 -19.9532 -19.9306 -19.5069 -19.5052 -19.0783 -19.0768
    -3.7421  -3.6481  -2.6885  -2.5600   7.9942   8.2551   8.6607   9.0993
     9.8313   9.9283  10.7846  11.2522  11.5351  12.0720  12.3703  12.4807
    16.9845  17.8381  18.1853  18.6659  19.1008  19.4139  22.4674  22.7099
    23.8927  24.7885  26.4341  28.3723  30.0038  30.6548  30.8920  31.5523
    31.9266  32.6225  33.8361  34.3134  35.4866  36.2536  39.1094  39.2691
    40.3269  41.1908  42.2145  42.2678  43.3039  44.0478  44.9930  45.4750
    45.9576  46.2248  46.6377  49.3064  51.0639  51.4076  51.8742  52.1400
    52.6010  52.9776  53.3950  54.0461  54.3936  54.7895  55.8712  57.5499
    57.7934  58.1806  58.6882  59.9893  60.5914  60.6492

          k = 0.0000 0.4017 0.0000 (  1619 PWs)   bands (ev):

   -45.0557 -45.0429 -19.6092 -19.6052 -19.2870 -19.2826 -19.0887 -19.0567
    -3.9843  -3.5225  -3.0239  -2.8071   8.1333   8.3437   9.0408   9.2481
     9.2728   9.9057  10.0969  10.7686  11.6287  11.9405  12.8522  13.3199
    16.8178  16.9962  18.2603  18.3486  18.3592  19.5430  22.7999  22.8597
    22.9381  23.7503  25.4785  26.0426  27.8504  29.4207  31.0487  31.3072
    33.6804  34.6272  34.7900  34.8995  35.3277  36.6531  39.5287  40.4384
    40.6331  41.7227  42.7122  43.5439  45.1230  45.3453  45.4657  45.4976
    47.4584  48.3471  48.3778  48.9846  50.6225  50.8983  50.9022  51.6245
    52.1983  52.4536  53.7799  54.3096  54.5813  54.6502  55.7667  55.9376
    57.2015  57.3266  57.9575  58.0738  58.1093  58.1642

          k = 0.0000 0.4017 0.3077 (  1605 PWs)   bands (ev):

   -45.0264 -45.0160 -19.6242 -19.6114 -19.3741 -19.3723 -19.2078 -19.1983
    -3.7289  -3.4265  -2.9767  -2.8835   8.2268   8.3803   8.7168   9.0692
     9.8222   9.8999  10.3026  11.0833  11.1418  11.7221  12.9199  13.2164
    17.1291  17.4367  17.7928  18.0211  18.9823  19.5109  21.9949  22.1336
    23.5449  24.4523  26.1424  27.0211  29.2800  30.6763  31.1512  31.3810
    31.8457  32.2427  34.0974  35.5485  37.5188  38.8114  39.3362  39.3752
    39.3981  41.2765  41.7369  42.1437  43.6107  43.7875  45.1465  45.2134
    47.0834  48.3329  48.8786  49.4063  50.1922  50.8238  51.4963  52.1633
    52.8232  53.1827  54.0752  54.1856  54.7386  55.1209  55.6749  56.3613
    57.5190  57.7613  58.5505  58.7674  59.2951  59.7407

          k = 0.0000 0.4017 0.6154 (  1599 PWs)   bands (ev):

   -44.9774 -44.9734 -19.9747 -19.9658 -19.4731 -19.4713 -19.0831 -19.0815
    -4.0026  -3.9701  -2.2765  -2.2205   7.7748   7.8354   8.3698   8.5366
    10.4706  10.5341  11.1614  11.5285  11.8895  11.9082  12.3222  12.6930
    16.2841  16.7210  18.5202  18.6695  19.4617  19.5275  21.9911  22.1922
    24.7581  25.2989  26.7499  27.5220  29.7739  30.0646  30.4297  30.6604
    32.2562  33.3460  33.9423  35.0277  36.3583  36.6463  38.1555  38.4739
    40.7989  40.8716  42.0007  42.5528  43.6447  43.9171  46.0167  46.1205
    46.6462  46.8003  49.1761  49.3234  49.6275  50.2270  51.4739  52.0722
    52.3942  52.4497  53.9641  54.5886  54.9498  55.1681  56.5395  57.4965
    57.6121  58.0742  58.4504  59.3040  59.6130  60.3416

          k = 0.2009 0.2009 0.0000 (  1612 PWs)   bands (ev):

   -45.0628 -45.0358 -19.7048 -19.6022 -19.2882 -19.1746 -19.1066 -19.0388
    -4.4933  -3.6414  -2.8799  -2.1277   6.9396   8.1497   8.4085   9.0308
     9.2760  10.1421  11.3382  11.6402  12.0212  12.6115  12.8005  13.5841
    15.9264  16.9506  17.1700  17.7270  18.3002  20.3557  21.9755  22.8338
    23.7510  23.7826  25.6924  26.3950  27.0230  29.6439  31.0409  31.1923
    33.6822  33.9251  35.3806  37.1992  37.7479  37.9411  38.6795  38.7532
    38.9243  39.9712  41.6520  42.7912  44.2731  45.5391  45.7405  45.7518
    47.8359  48.9380  49.2345  50.6233  50.7174  50.7907  50.8540  51.5690
    52.3565  52.4856  52.4950  53.7751  54.1166  54.8954  55.2278  56.4052
    56.4159  57.7048  58.0599  58.2298  58.3160  58.4556

          k = 0.2009 0.2009 0.3077 (  1614 PWs)   bands (ev):

   -45.0322 -45.0102 -19.6388 -19.6152 -19.4232 -19.3603 -19.2049 -19.1386
    -4.0283  -3.4592  -2.9033  -2.5585   7.6257   8.2738   8.3484   9.2585
     9.3355  10.0027  11.1495  11.1947  11.7251  12.4214  12.5967  13.2992
    16.6654  16.8702  17.4905  18.3273  18.3292  19.9395  22.0548  22.7946
    23.2514  24.7429  25.7778  27.6146  28.3460  30.2742  30.7565  31.3828
    32.3500  33.6158  34.8328  35.5153  36.9891  38.1673  38.4982  39.7203
    39.8301  40.7945  42.7011  42.7992  43.3528  43.4754  45.0854  45.6474
    46.4749  46.8531  48.4070  48.4363  50.5243  51.1899  51.8398  52.1076
    52.5542  53.0667  54.3283  54.5706  55.0558  55.3524  56.0903  56.2956
    56.3186  57.6323  57.6486  57.8402  60.1925  60.3683

          k = 0.2009 0.2009 0.6154 (  1610 PWs)   bands (ev):

   -44.9797 -44.9711 -19.9688 -19.9235 -19.5325 -19.4707 -19.0821 -19.0757
    -3.9911  -3.2180  -3.1454  -2.2439   7.9129   8.2276   8.5139   9.0048
     9.5402  10.4158  11.0446  11.3323  11.5725  12.2368  12.3126  12.4717
    16.7263  17.9906  18.2699  18.2766  18.8365  19.6939  21.9794  23.2630
    23.7435  25.0111  26.3947  28.2827  28.5794  30.4736  30.6645  31.8069
    32.7610  32.9756  33.8622  34.3292  36.0641  36.4723  38.0617  39.0435
    40.2326  40.8912  41.7674  43.5644  43.9242  44.7451  45.5959  45.7114
    46.1149  46.4206  47.4587  49.5662  50.6830  51.3878  51.6353  51.8167
    52.2227  52.8790  53.1906  54.1495  54.2210  54.7230  56.0809  56.5699
    57.9022  58.1511  59.1644  59.2142  59.8509  60.1656

          k = 0.2009 0.4017 0.0000 (  1626 PWs)   bands (ev):

   -45.0544 -45.0441 -19.6823 -19.6165 -19.2781 -19.2056 -19.0856 -19.0597
    -4.1845  -3.6725  -2.9585  -2.4100   7.3621   8.3161   9.0788   9.0817
     9.2357  10.1550  10.5132  11.6727  11.7699  12.2580  12.3878  12.9980
    16.3551  16.9093  17.6106  18.3222  18.6341  19.5968  22.8196  22.8270
    23.4169  23.9556  25.5345  26.2703  28.0339  29.0754  29.9937  30.3402
    33.8667  34.6124  35.1215  36.7822  37.0558  37.1261  39.3284  40.1678
    40.3260  40.7467  41.8885  42.5377  43.7809  43.8667  44.5533  46.4128
    47.6332  48.5697  49.7731  50.4691  50.8474  50.8706  51.5509  52.3527
    52.5326  52.8438  54.1827  54.5654  54.7998  55.2083  55.4270  55.8364
    56.6716  56.7106  57.6750  58.1703  58.3121  59.5704

          k = 0.2009 0.4017 0.3077 (  1608 PWs)   bands (ev):

   -45.0253 -45.0169 -19.6378 -19.6212 -19.4076 -19.3669 -19.2000 -19.1565
    -3.7932  -3.4967  -2.9685  -2.7132   7.8863   8.3106   8.5585   9.0365
     9.8627  10.0568  10.6858  11.3109  11.3873  12.0698  12.5911  12.9585
    17.0632  17.2537  17.5057  18.1518  18.8135  19.3429  22.0405  22.7622
    23.5154  24.4342  26.2213  26.9835  29.1651  30.1528  30.2639  30.5914
    32.7257  33.1071  34.6033  35.5853  37.1182  37.7643  39.0634  40.0039
    40.4190  41.1016  42.0228  42.2868  43.6464  44.3760  44.9358  45.8962
    47.2150  47.8672  48.7333  49.5412  50.4232  51.1659  51.2515  51.8853
    52.8751  53.3143  53.7484  54.4560  54.7954  55.1301  55.7590  56.1106
    56.7325  57.3135  57.7169  58.3757  58.6558  59.5578

          k = 0.2009 0.4017 0.6154 (  1595 PWs)   bands (ev):

   -44.9769 -44.9737 -19.9684 -19.9430 -19.5109 -19.4737 -19.0827 -19.0786
    -3.9866  -3.6906  -2.6172  -2.2417   7.8116   7.9948   8.4457   8.8933
     9.7425  10.6161  11.0807  11.4544  11.6948  11.9691  12.6492  12.8826
    16.4879  17.0404  18.4623  18.5633  18.9520  19.4491  22.0500  22.6761
    24.4882  25.0354  26.5491  27.2248  28.5278  29.3545  30.8555  31.6569
    32.8870  33.4402  34.0797  34.9867  36.1467  36.6090  37.5348  38.3922
    41.0123  41.5504  42.1062  43.3037  44.5770  44.9028  46.0045  46.2578
    47.0927  47.8191  48.7935  49.3371  49.6990  50.5236  50.9932  51.7142
    51.8343  52.5053  53.5696  54.4354  54.9518  55.3881  55.5758  56.4439
    56.8263  57.4791  58.0708  58.4887  59.4620  60.1495

          k = 0.4017 0.4017 0.0000 (  1610 PWs)   bands (ev):

   -45.0510 -45.0471 -19.7241 -19.6931 -19.1988 -19.1636 -19.0774 -19.0675
    -4.2791  -4.0880  -2.4597  -2.2129   6.9805   7.3808   8.9698   9.0491
     9.8553  10.8700  10.9488  11.8111  12.0650  12.2399  12.5286  12.8304
    15.8560  16.3238  17.2165  17.6362  19.1669  19.5270  23.1642  23.4056
    23.6831  23.7303  26.0133  26.3167  28.3742  28.4003  29.0485  29.5834
    34.1171  34.5405  36.5277  37.8300  38.7669  39.1721  39.2441  39.4356
    39.7100  39.8514  40.0244  41.1545  42.7579  43.8614  44.5450  46.2317
[...]
    23.3343  23.6781  26.3834  26.7270  29.2228  29.4984  31.3634  31.4648
    33.1950  33.3933  35.0621  36.0427  36.3806  36.6705  39.1310  40.6415
    41.2151  41.7694  41.8618  42.9445  43.0995  43.8122  44.3992  45.5949
    46.4353  47.2927  49.4565  49.8941  50.5618  50.5782  51.9890  52.3506
    52.6280  52.8224  53.0264  53.7475  54.2169  54.3517  54.7994  54.8168
    55.6110  57.1083  57.9044  58.4632  59.5650  59.9609

          k = 0.3770 0.3770 0.6988 (  1611 PWs)   bands (ev):

   -45.2966 -45.2959 -20.5547 -20.5505 -19.9205 -19.9126 -19.4427 -19.4406
    -3.5765  -3.2213  -2.9344  -2.5174   7.7718   8.1553   8.5223   8.8566
     9.3912   9.6368   9.9868  11.0868  11.4781  11.7459  12.9109  13.0391
    16.3456  16.5561  17.6658  18.1039  20.0315  20.1623  22.1760  23.2484
    23.7261  24.4954  26.4472  26.6248  28.7420  28.8331  31.4475  31.5692
    33.5617  33.8957  35.2184  35.4015  36.5679  36.8588  37.9022  38.3692
    41.8747  41.8930  42.2250  42.7786  44.3541  45.2460  45.8668  46.3993
    47.8441  48.1811  48.6076  49.0405  49.7948  50.2710  50.9831  51.0071
    51.6464  52.2313  52.5761  53.2538  53.9142  53.9644  54.7491  54.8383
    56.2558  57.3465  59.8606  60.4009  60.6477  61.2457

 ------ SPIN DOWN ----------


          k = 0.0000 0.0000 0.0000 (  1577 PWs)   bands (ev):

   -45.5586 -45.5339 -20.2032 -20.2032 -19.7777 -19.7777 -18.7226 -18.6701
    -4.7834  -4.0334  -2.3173  -2.3173   6.7847   7.2465   7.6903  10.8690
    10.8690  11.1828  11.1828  12.9413  12.9413  13.0882  13.3878  13.7465
    13.8441  13.9858  16.0154  17.9598  17.9598  20.7917  21.0920  22.5437
    22.6847  22.6847  25.7996  26.5722  26.5722  29.4830  30.9553  32.6141
    34.1289  34.5042  34.5042  36.2126  36.2126  36.9709  37.3903  37.3903
    39.7567  40.3268  42.2018  43.4962  44.9066  46.3915  46.3915  47.1064
    47.1064  47.1573  48.1179  49.6405  49.7917  49.7917  50.4004  52.3578
    52.9405  53.1209  53.1209  54.7389  56.0480  56.0480  56.0980  56.6201
    56.6201  56.9549  57.2154  58.2748  58.6965  59.2455

          k = 0.0000 0.0000 0.3494 (  1602 PWs)   bands (ev):

   -45.4624 -45.4423 -20.0908 -20.0908 -19.6576 -19.6576 -19.4688 -19.4322
    -4.1936  -3.5737  -2.6084  -2.6084   7.6334   7.9059   8.6742   9.1440
     9.1440  10.9918  11.6401  12.0990  12.0990  12.3157  12.3157  13.7842
    15.4177  15.9063  16.0167  17.5653  17.5653  20.2863  21.8168  22.6422
    22.6422  24.1055  25.4836  29.2363  29.2363  29.6539  31.2813  31.6299
    33.0660  33.9380  34.1085  34.1085  37.2428  37.2428  37.3092  38.6649
    38.6649  41.9666  42.5115  42.7528  44.6547  44.7886  44.7886  47.0741
    47.6824  47.8436  47.8592  47.8592  48.4888  48.4888  51.8181  51.8819
    53.7276  53.8972  53.8972  54.9087  55.2810  56.2311  56.2311  56.9838
    56.9838  57.5349  58.0749  59.0493  59.5772  60.4002

          k = 0.0000 0.0000 0.6988 (  1594 PWs)   bands (ev):

   -45.3002 -45.2924 -20.5567 -20.5450 -19.9163 -19.9163 -19.4402 -19.4402
    -3.1557  -3.1557  -3.1398  -2.8837   8.2759   8.5111   8.6138   8.6138
     9.7318  10.0502  10.0564  10.1337  10.1337  12.1307  12.4892  12.4892
    17.0599  17.4219  17.4219  18.8367  19.8544  19.9767  22.2159  23.3253
    23.3253  24.2467  26.9570  29.3669  30.1546  30.8613  31.8233  32.1586
    32.1586  32.2347  33.2816  33.2816  34.8062  38.2488  38.8607  38.8607
    39.6781  39.9245  40.2490  40.2490  42.8470  42.9584  45.0523  45.0523
    48.3131  48.3131  49.0088  50.7670  50.7670  51.7007  52.2258  52.7344
    53.9127  53.9127  54.4032  54.5774  55.3070  55.3070  55.6619  58.4081
    58.4081  58.8947  59.9518  60.0288  60.0288  61.7796

          k = 0.0000 0.1885 0.0000 (  1594 PWs)   bands (ev):

   -45.5562 -45.5363 -20.1807 -20.1794 -19.8059 -19.8045 -18.7177 -18.6752
    -4.5808  -3.8993  -2.5898  -2.5118   7.1497   7.5518   8.0370  10.6353
    10.7226  10.9332  10.9491  11.9924  12.5375  12.9374  13.4579  13.8075
    14.0973  14.2332  16.6833  18.2949  18.3479  20.3108  21.4157  22.3945
    22.4260  22.9575  25.3594  26.6074  26.9796  29.3962  30.8436  32.1328
    32.7148  34.6732  34.8850  35.5307  37.0979  37.2946  37.4000  38.5521
    40.8363  41.1815  42.0131  44.1334  44.4472  44.5524  45.9259  46.7759
    47.3355  48.0740  48.3914  48.6639  49.9460  49.9753  50.5282  51.7531
    51.8134  52.8937  53.8760  54.4017  55.0962  55.5615  55.7034  56.0657
    56.0945  56.8509  57.5807  58.3134  58.6090  58.8518

          k = 0.0000 0.1885 0.3494 (  1605 PWs)   bands (ev):

   -45.4605 -45.4442 -20.0788 -20.0769 -19.6791 -19.6752 -19.4621 -19.4305
    -4.0590  -3.5151  -2.7385  -2.6983   7.7516   8.1343   8.4171   9.2505
     9.5887  10.9278  10.9414  11.8566  11.9085  12.3585  12.3646  13.6597
    15.8285  15.9072  16.4288  17.4896  17.9190  19.9699  21.8025  22.1137
    22.6907  24.4167  25.4672  28.1702  29.4512  30.6022  31.2839  31.5188
    32.8299  33.4194  33.5336  35.3325  36.6110  37.7523  37.7630  39.0917
    39.1072  41.5717  42.2056  42.9519  44.3059  44.5418  45.3726  47.0053
    47.6260  47.9499  47.9813  48.1235  48.6219  49.1853  50.9361  52.0522
    52.6325  53.6284  54.1395  55.0520  55.9386  56.0385  56.1959  56.3139
    56.7763  57.5773  57.6500  58.3498  58.5622  59.1900

          k = 0.0000 0.1885 0.6988 (  1615 PWs)   bands (ev):

   -45.2995 -45.2931 -20.5605 -20.5509 -19.9094 -19.9090 -19.4426 -19.4423
    -3.6092  -3.5322  -2.6011  -2.4663   7.7092   8.0468   8.1829   8.8250
     9.3938   9.7676  10.4649  11.1585  11.3647  12.0953  12.3322  12.4248
    16.2184  16.8397  17.9525  18.8665  20.0248  20.1010  21.9922  22.2822
    23.7984  25.1626  26.9034  28.9968  29.7488  30.2466  31.0716  31.2753
    33.0569  33.2434  33.6493  34.1249  35.0422  37.9293  38.1577  38.5980
    39.3433  39.7360  41.4273  42.0109  42.8251  42.8412  45.1578  45.3892
    47.4669  48.6563  49.6462  50.2344  50.8812  51.3820  51.6864  52.2259
    53.7313  53.8699  54.6029  54.8907  55.1587  55.6055  55.8269  57.3744
    57.9557  58.5713  59.4073  59.9531  60.5968  60.7272

          k = 0.0000 0.3770 0.0000 (  1598 PWs)   bands (ev):

   -45.5500 -45.5424 -20.1338 -20.1321 -19.8600 -19.8581 -18.7046 -18.6883
    -4.0337  -3.5705  -3.2065  -2.9719   8.0916   8.3287   8.9510   9.5436
     9.6066  10.4674  11.0706  11.0922  12.7519  12.7563  12.9531  13.3013
    14.6161  14.6248  17.9156  18.9454  19.0058  19.2024  21.8467  21.8902
    22.3097  23.2762  25.0944  26.0659  27.9359  29.0083  30.8480  31.2064
    32.3961  33.5604  34.6143  34.6842  38.6466  38.9099  39.2019  40.5212
    40.6740  41.2040  42.0797  43.2628  43.4556  44.3992  45.8573  46.8609
    47.5974  47.7213  47.9616  49.2342  49.6599  50.3929  50.4897  51.1249
    51.4619  51.5045  51.9655  52.9808  54.5021  54.7422  55.4294  55.5901
    56.5676  57.0790  57.2419  58.0515  59.2768  59.6271

          k = 0.0000 0.3770 0.3494 (  1599 PWs)   bands (ev):

   -45.4554 -45.4492 -20.0554 -20.0531 -19.7125 -19.7084 -19.4471 -19.4340
    -3.7181  -3.4393  -2.9909  -2.9059   7.9879   8.1689   8.8151   9.4129
    10.0767  10.1491  10.6952  11.0377  11.7645  12.1651  12.8053  13.2886
    15.9582  16.0930  17.3698  17.7127  18.6069  19.2362  21.2257  21.2385
    23.4350  24.2740  25.9707  27.0014  30.1788  30.9149  31.1091  31.6198
    32.5460  32.5772  33.4823  35.0274  37.6739  38.6963  38.8771  39.6665
    40.4591  40.5047  40.6970  42.2340  44.4162  44.8648  46.0697  46.4017
    46.8060  47.3782  48.0641  48.0942  49.8151  50.9363  51.1430  51.9153
    53.0410  53.4388  54.3479  54.6566  55.1133  55.1310  55.2380  55.8169
    55.8910  56.6413  57.2762  57.4610  58.7719  59.4522

          k = 0.0000 0.3770 0.6988 (  1615 PWs)   bands (ev):

   -45.2974 -45.2950 -20.5652 -20.5615 -19.8980 -19.8976 -19.4462 -19.4459
    -3.8536  -3.8245  -2.1865  -2.1316   7.3618   7.5149   7.7312   7.9670
    10.3308  10.3335  11.0845  11.3036  12.0409  12.1466  12.3048  12.7590
    15.3974  15.8130  18.4322  18.7468  20.2462  20.5068  21.2203  21.4114
    24.8529  25.5757  27.2036  28.0013  29.8391  29.8610  30.2778  30.3102
    33.1457  33.1623  35.0437  35.6271  35.9825  37.1854  37.5229  38.3518
    39.5028  39.5978  42.6962  43.1854  43.4871  43.5728  44.7526  45.4080
    46.9249  47.9349  49.8678  50.0734  50.8438  51.0123  51.2764  51.4011
    54.0738  54.1948  54.8653  54.9881  55.2929  55.4561  56.0543  56.4559
    57.9947  58.3166  58.7498  58.8221  60.1134  60.3270

          k = 0.1885 0.1885 0.0000 (  1607 PWs)   bands (ev):

   -45.5543 -45.5382 -20.2107 -20.1298 -19.8615 -19.7728 -18.7136 -18.6792
    -4.5108  -3.6896  -3.0632  -2.3584   7.0985   7.8687   8.6024   9.7403
    10.8507  10.8919  11.0891  11.9156  12.3192  12.7780  13.4931  13.5810
    13.6257  14.6196  17.2671  17.9763  18.9713  20.0545  21.6220  21.8716
    22.6761  23.3188  25.0518  26.7147  27.1867  29.2483  30.4570  31.3931
    32.7508  34.2389  35.8660  36.0822  37.3429  37.6300  37.8279  38.1092
    41.0336  41.9326  42.0734  43.8211  44.1142  44.4991  45.3262  46.3545
    46.4656  47.8977  48.7164  48.8358  49.0225  50.4446  51.2397  51.3409
    51.8933  53.1172  53.5895  53.9572  54.9251  55.1680  55.6025  56.4543
    56.6405  56.9467  57.3948  57.9544  58.3481  58.6034

          k = 0.1885 0.1885 0.3494 (  1601 PWs)   bands (ev):

   -45.4589 -45.4457 -20.0960 -20.0524 -19.7117 -19.6546 -19.4580 -19.4328
    -3.9876  -3.4538  -2.9356  -2.6429   7.8619   8.3109   8.3339   9.2837
     9.7074  10.5704  11.3180  11.5833  11.7077  12.1841  12.4640  13.5139
    15.7039  16.1051  16.4738  17.9764  18.0159  19.7241  21.1645  22.6153
    22.6612  24.5136  25.4868  27.7804  29.3164  30.7956  31.1182  31.5915
    32.9267  33.1916  33.8605  35.5951  36.5649  37.7059  37.7610  38.9031
    39.9074  41.7234  42.4707  42.6917  43.5848  44.9752  45.8347  46.5880
    46.8574  47.6320  48.2783  48.9639  49.3122  49.6962  50.8217  51.3433
    52.6330  53.5114  53.7065  54.6607  55.3136  55.4349  56.1111  56.4093
    56.4580  57.1314  57.8490  57.9979  58.7781  59.9811

          k = 0.1885 0.1885 0.6988 (  1618 PWs)   bands (ev):

   -45.2988 -45.2937 -20.5635 -20.5506 -19.9179 -19.8973 -19.4460 -19.4404
    -3.8417  -3.1811  -2.9852  -2.1544   7.4701   7.7681   8.3433   8.8118
     9.4572   9.9347  10.5685  11.0013  11.7014  12.2132  12.2157  12.5964
    16.1035  16.5923  17.8558  18.9152  20.0003  20.2766  21.1966  23.3044
    23.4106  25.3002  26.7688  28.4100  29.1273  30.0551  30.9872  31.9825
    32.8855  33.5980  33.7335  34.5783  35.3722  37.7466  37.8184  38.7371
    39.0567  40.7526  41.4628  42.1658  43.3707  43.5055  45.5894  45.6247
    46.9682  48.5018  49.7176  49.7688  50.9360  51.0479  51.7362  51.9340
    53.5410  53.6176  53.8741  54.8896  55.0627  55.5647  55.6393  55.8656
    57.8696  58.1571  59.2171  59.3130  60.5583  60.8463

          k = 0.1885 0.3770 0.0000 (  1615 PWs)   bands (ev):

   -45.5493 -45.5431 -20.1909 -20.1388 -19.8544 -19.7974 -18.7030 -18.6899
    -4.2322  -3.7449  -3.1116  -2.6048   7.4936   8.3704   8.7463   9.9071
    10.0436  10.9154  11.0692  11.2534  12.2006  12.8445  12.8902  13.2309
    14.1280  14.6025  18.3226  18.3429  18.9869  19.3228  21.8611  22.3348
    22.3985  23.2269  25.3117  26.2683  27.9490  28.8504  30.0605  30.4234
    32.9029  33.6723  35.6564  36.1223  38.3579  39.0692  39.3919  39.8984
    40.8901  41.0359  41.8133  42.6258  42.8741  44.0678  45.1726  46.3958
    46.6414  46.8853  47.7796  49.3764  49.8058  50.1152  51.0917  52.0632
    52.0771  52.7251  52.9031  53.8385  54.0411  54.4286  55.0552  55.2585
    56.2603  57.6073  58.3436  58.6979  59.1186  60.0347

          k = 0.1885 0.3770 0.3494 (  1605 PWs)   bands (ev):

   -45.4548 -45.4498 -20.0852 -20.0576 -19.7084 -19.6726 -19.4479 -19.4384
    -3.7823  -3.5137  -2.9736  -2.7651   8.0211   8.1407   8.8634   9.4133
     9.8642  10.3374  10.8024  11.1961  11.8325  12.0716  12.6397  13.1088
    15.8943  16.0632  17.0797  17.8516  18.5292  19.1313  21.1937  22.0588
    23.3617  24.1155  26.0749  26.9381  29.6103  30.2025  31.4390  31.7274
    32.7360  33.0210  33.9720  35.4725  37.2677  37.4415  38.5120  40.2810
    40.6576  41.0044  41.7160  42.6260  43.7374  44.7161  45.1055  45.6656
    47.5037  47.8657  48.2682  48.5606  50.1058  51.0345  51.4470  51.9735
    52.2637  52.8141  53.7464  54.3702  54.7002  55.1885  55.2540  55.5543
    55.6144  56.2449  57.3014  58.7982  58.9208  59.8247

          k = 0.1885 0.3770 0.6988 (  1615 PWs)   bands (ev):

   -45.2972 -45.2953 -20.5627 -20.5558 -19.9113 -19.8986 -19.4461 -19.4426
    -3.8405  -3.5723  -2.5272  -2.1539   7.4510   7.7026   7.9045   8.5346
     9.4676  10.3349  10.9334  11.2865  11.7393  11.9780  12.5229  12.8790
    15.7513  16.0473  18.1067  18.6169  20.1422  20.4308  21.1975  22.2883
    24.5184  25.2405  26.8383  27.3960  29.0645  29.3619  31.0703  31.4030
    33.0684  33.4318  34.9869  35.3586  36.2384  36.9969  37.7157  38.4540
    40.0410  40.7522  42.1459  42.8450  44.4264  44.6372  44.9794  45.6153
    47.1341  48.1918  49.1580  49.6745  50.0886  50.5739  51.3823  51.8600
    53.1851  53.4106  53.9901  54.1167  54.8069  54.8491  55.1935  56.2159
    56.8654  58.0902  58.8841  59.4055  59.9501  60.6748

          k = 0.3770 0.3770 0.0000 (  1620 PWs)   bands (ev):

   -45.5474 -45.5450 -20.2228 -20.1977 -19.7925 -19.7645 -18.6989 -18.6939
    -4.3306  -4.1522  -2.6423  -2.4218   7.1732   7.5203   9.5058  10.3299
    10.8228  10.8999  10.9355  11.5765  11.6404  12.3419  13.2212  13.4467
    13.5846  14.0973  18.0037  18.3580  18.9861  19.3519  22.3910  22.5872
    22.6636  22.9563  25.9132  26.3397  28.2203  28.6424  29.1636  29.4277
    33.4980  33.9201  37.1999  37.8127  38.1580  38.9603  40.0348  40.3094
    40.8072  41.4622  41.4971  41.7150  42.4793  42.5249  43.5448  44.1973
    45.1204  46.5006  47.5174  48.4319  50.0782  51.3194  51.8583  52.2114
    52.9879  53.2744  54.3206  54.7761  55.0970  55.1538  55.2943  56.1625
    56.9345  57.5169  58.9436  59.4629  60.0202  60.1585

          k = 0.3770 0.3770 0.3494 (  1615 PWs)   bands (ev):

   -45.4532 -45.4513 -20.1046 -20.0898 -19.6699 -19.6494 -19.4494 -19.4463
    -3.8087  -3.7015  -2.7962  -2.6968   8.0846   8.1238   8.8525   9.1541
    10.2055  10.8042  10.8227  11.2599  11.7009  11.7397  12.5869  12.8418
    15.7707  15.9451  17.1738  17.4628  18.6463  18.8850  22.0219  22.5653
    23.3343  23.6781  26.3834  26.7269  29.2228  29.4984  31.3634  31.4648
    33.1950  33.3932  35.0620  36.0426  36.3806  36.6704  39.1309  40.6414
    41.2151  41.7694  41.8619  42.9445  43.0995  43.8122  44.3991  45.5948
    46.4352  47.2927  49.4565  49.8941  50.5617  50.5782  51.9890  52.3506
    52.6280  52.8224  53.0264  53.7474  54.2170  54.3518  54.7994  54.8167
    55.6110  57.1083  57.9044  58.4632  59.5649  59.9608

          k = 0.3770 0.3770 0.6988 (  1611 PWs)   bands (ev):

   -45.2966 -45.2959 -20.5546 -20.5505 -19.9204 -19.9125 -19.4427 -19.4407
    -3.5765  -3.2212  -2.9343  -2.5174   7.7718   8.1553   8.5223   8.8566
     9.3912   9.6368   9.9868  11.0868  11.4782  11.7460  12.9110  13.0391
    16.3457  16.5563  17.6658  18.1040  20.0315  20.1624  22.1760  23.2484
    23.7261  24.4954  26.4471  26.6247  28.7421  28.8332  31.4475  31.5691
    33.5617  33.8956  35.2183  35.4015  36.5679  36.8588  37.9022  38.3693
    41.8746  41.8930  42.2249  42.7785  44.3541  45.2460  45.8668  46.3993
    47.8441  48.1811  48.6076  49.0404  49.7948  50.2709  50.9830  51.0071
    51.6464  52.2313  52.5761  53.2539  53.9142  53.9645  54.7491  54.8383
    56.2558  57.3465  59.8606  60.4009  60.6477  61.2457

     the Fermi energy is    16.5812 ev

!    total energy              =    -407.68010076 Ry
     Harris-Foulkes estimate   =    -407.68010076 Ry
     estimated scf accuracy    <          1.0E-09 Ry

     The total energy is the sum of the following terms:

     one-electron contribution =     -88.24704128 Ry
     hartree contribution      =      79.54474634 Ry
     xc contribution           =     -68.41876133 Ry
     ewald contribution        =    -330.55889034 Ry
     smearing contrib. (-TS)   =      -0.00015415 Ry

     total magnetization       =     0.00 Bohr mag/cell
     absolute magnetization    =     0.00 Bohr mag/cell

     convergence has been achieved in  11 iterations

     Forces acting on atoms (Ry/au):


     negative rho (up, down):  0.149E-04 0.149E-04
     atom    1 type  1   force =     0.00000000    0.00000000   -0.00000000
     atom    2 type  1   force =     0.00000000    0.00000000   -0.00000000
     atom    3 type  2   force =    -0.00002946   -0.00002946    0.00000000
     atom    4 type  2   force =     0.00002946    0.00002946    0.00000000
     atom    5 type  2   force =    -0.00002946    0.00002946    0.00000000
     atom    6 type  2   force =     0.00002946   -0.00002946    0.00000000

     Total force =     0.000083     Total SCF correction =     0.000008


     entering subroutine stress ...


     negative rho (up, down):  0.149E-04 0.149E-04
          total   stress  (Ry/bohr**3)                   (kbar)     P=  692.96
   0.00472079   0.00000000   0.00000000        694.45      0.00      0.00
   0.00000000   0.00472079   0.00000000          0.00    694.45      0.00
   0.00000000   0.00000000   0.00469030          0.00      0.00    689.97


     init_run     :     15.66s CPU     15.78s WALL (       2 calls)
     electrons    :   2214.71s CPU   2313.99s WALL (      17 calls)
     update_pot   :     54.02s CPU     54.88s WALL (      15 calls)
     forces       :    111.48s CPU    111.82s WALL (      17 calls)
     stress       :    279.43s CPU    280.53s WALL (      17 calls)

     Called by init_run:
     wfcinit      :     12.57s CPU     12.67s WALL (       3 calls)
     potinit      :      2.47s CPU      2.49s WALL (       3 calls)

     Called by electrons:
     c_bands      :   1830.68s CPU   1887.69s WALL (     112 calls)
     sum_band     :    250.77s CPU    253.02s WALL (     112 calls)
     v_of_rho     :     23.31s CPU     23.54s WALL (     128 calls)
     newd         :    125.08s CPU    125.43s WALL (     128 calls)
     mix_rho      :      2.14s CPU      2.14s WALL (     112 calls)

     Called by c_bands:
     init_us_2    :      9.59s CPU      9.62s WALL (    9396 calls)
     cegterg      :   1800.85s CPU   1857.67s WALL (    4032 calls)

     Called by *egterg:
     h_psi        :    778.00s CPU    795.21s WALL (   13326 calls)
     s_psi        :     59.12s CPU     59.36s WALL (   13326 calls)
     g_psi        :      4.98s CPU      5.02s WALL (    9186 calls)
     cdiaghg      :    548.34s CPU    550.59s WALL (   12642 calls)

     Called by h_psi:
     add_vuspsi   :     59.91s CPU     60.22s WALL (   13326 calls)

     General routines
     calbec       :    105.35s CPU    114.34s WALL (   18582 calls)
     fft          :     19.06s CPU     19.33s WALL (    4554 calls)
     ffts         :      0.34s CPU      0.37s WALL (     480 calls)
     fftw         :    661.53s CPU    666.27s WALL ( 1867434 calls)
     interpolate  :      2.51s CPU      2.64s WALL (     480 calls)

     Parallel routines
     fft_scatter  :    192.06s CPU    187.80s WALL ( 1872468 calls)

     PWSCF        : 44m57.33s CPU    46m39.31s WALL


   This run was terminated on:  21:34: 0  23Jan2014            

=------------------------------------------------------------------------------=
   JOB DONE.
=------------------------------------------------------------------------------=
---------------------------------------
Running PBS batch system epilogue script
Job id: 251177.audhumbla.fysik.dtu.dk
Username: zhonxu
Groupname: campgst
Jobname: MoO2/coarse-EOS/MoO2-v-0.9
Sessionid: 27832
Resources limits: neednodes=1:ppn=4:opteron4,nodes=1:ppn=4:opteron4,walltime=18:00:00
Resources used: cput=03:05:38,mem=301472kb,vmem=1190420kb,walltime=00:46:41
Queuename: verylong
Accounting:
This job has allocated the following 4 nodes:
q005 q005 q005 q005
Finished epilogue job 251177.audhumbla.fysik.dtu.dk for zhonxu
