
     Program PWSCF v.5.0.2 (svn rev. 9656) starts on 28May2014 at  5:10:17 

     This program is part of the open-source Quantum ESPRESSO suite
     for quantum simulation of materials; please cite
         "P. Giannozzi et al., J. Phys.:Condens. Matter 21 395502 (2009);
          URL http://www.quantum-espresso.org", 
     in publications or presentations arising from this work. More details at
     http://www.quantum-espresso.org/quote.php

     Parallel version (MPI), running on    16 processors
     K-points division:     npool     =       4
     R & G space division:  proc/nbgrp/npool/nimage =       4

     Current dimensions of program PWSCF are:
     Max number of different atomic species (ntypx) = 10
     Max number of k-points (npk) =  40000
     Max angular momentum in pseudopotentials (lmaxx) =  3
     Reading input from pwscf.in
Warning: card &CELL ignored
Warning: card / ignored

     Subspace diagonalization in iterative solution of the eigenvalue problem:
     a serial algorithm will be used


     Parallelization info
     --------------------
     sticks:   dense  smooth     PW     G-vecs:    dense   smooth      PW
     Min        1450     467    129               343652    62241    9199
     Max        1451     468    130               343665    62278    9208
     Sum        5803    1869    517              1374641   249013   36807



     bravais-lattice index     =            0
     lattice parameter (alat)  =      12.0187  a.u.
     unit-cell volume          =    7280.5819 (a.u.)^3
     number of atoms/cell      =           33
     number of atomic types    =            3
     number of electrons       =       245.00
     number of Kohn-Sham states=          367
     kinetic-energy cutoff     =      40.0000  Ry
     charge density cutoff     =     500.0000  Ry
     convergence threshold     =      1.0E-06
     mixing beta               =       0.7000
     number of iterations used =            8  plain     mixing
     Exchange-correlation      = SLA  PW   PBE  PBE ( 1 4 3 4 0)
     EXX-fraction              =        0.00
     nstep                     =           50


     celldm(1)=  12.018658  celldm(2)=   0.000000  celldm(3)=   0.000000
     celldm(4)=   0.000000  celldm(5)=   0.000000  celldm(6)=   0.000000

     crystal axes: (cart. coord. in units of alat)
               a(1) = (   1.000000   0.000000   0.000000 )  
               a(2) = (   0.000000   1.009517   0.000000 )  
               a(3) = (   0.000000   0.000000   4.154171 )  

     reciprocal axes: (cart. coord. in units 2 pi/alat)
               b(1) = (  1.000000  0.000000  0.000000 )  
               b(2) = (  0.000000  0.990572  0.000000 )  
               b(3) = (  0.000000  0.000000  0.240722 )  


     PseudoPot. # 1 for O  read from file:
     /home/camp/zhonxu/pseudo/o_pbe_v1.01.uspp.F.UPF
     MD5 check sum: 2bcb18d16ea4b960afae9ec6d52f22d2
     Pseudo is Ultrasoft + core correction, Zval =  6.0
     Generated by new atomic code, or converted to UPF format
     Using radial grid of  737 points,  5 beta functions with: 
                l(1) =   0
                l(2) =   0
                l(3) =   1
                l(4) =   1
                l(5) =   2
     Q(r) pseudized with  8 coefficients,  rinner =    0.900   0.900   0.900
                                                       0.900   0.900

     PseudoPot. # 2 for Ir read from file:
     /home/camp/zhonxu/pseudo/ir_pbe_v1.uspp.F.UPF
     MD5 check sum: abf987a9674477536ede83817f8f8b70
     Pseudo is Ultrasoft + core correction, Zval = 15.0
     Generated by new atomic code, or converted to UPF format
     Using radial grid of  983 points,  7 beta functions with: 
                l(1) =   0
                l(2) =   0
                l(3) =   1
                l(4) =   1
                l(5) =   1
                l(6) =   2
                l(7) =   2
     Q(r) pseudized with  8 coefficients,  rinner =    1.350   1.350   1.350
                                                       1.350   1.350

     PseudoPot. # 3 for H  read from file:
     /home/camp/zhonxu/pseudo/h_pbe_v1.uspp.F.UPF
     MD5 check sum: 3408e3ff4ec8b0a4e358431e7e038a48
     Pseudo is Ultrasoft, Zval =  1.0
     Generated by new atomic code, or converted to UPF format
     Using radial grid of  615 points,  2 beta functions with: 
                l(1) =   0
                l(2) =   0
     Q(r) pseudized with  8 coefficients,  rinner =    0.700

     atomic species   valence    mass     pseudopotential
        O0             6.00    15.99940     O ( 1.00)
        Ir1           15.00   192.22000     Ir( 1.00)
        H2             1.00     1.00794     H ( 1.00)


     Simplified LDA+U calculation (l_max = 2) with parameters (eV):
     atomic species    L          U    alpha       J0     beta
        Ir1            2     0.0000   0.0000   0.0000   0.0000



     No symmetry found



   Cartesian axes

     site n.     atom                  positions (alat units)
         1           O0  tau(   1) = (   0.0000000   0.0000000   1.5694875  )
         2           O0  tau(   2) = (   0.0000000   0.5047586   1.6702677  )
         3           Ir1 tau(   3) = (   0.2500000   0.5047586   1.8805934  )
         4           Ir1 tau(   4) = (   0.0000000   0.0000000   1.8807595  )
         5           O0  tau(   5) = (   0.2500000   0.8177090   1.8801779  )
         6           O0  tau(   6) = (   0.2500000   0.1918083   1.8787655  )
         7           O0  tau(   7) = (   0.0000000   0.5047586   2.0695666  )
         8           O0  tau(   8) = (   0.0000000   0.0000000   2.1948564  )
         9           Ir1 tau(   9) = (   0.2500000   0.0000000   2.3901025  )
        10           Ir1 tau(  10) = (   0.0000000   0.5047586   2.3742751  )
        11           O0  tau(  11) = (   0.2500000   0.6965669   2.3856575  )
        12           O0  tau(  12) = (   0.2500000   0.3129503   2.3949628  )
        13           O0  tau(  13) = (   0.0000000   0.0000000   2.5754200  )
        14           O0  tau(  14) = (   0.5000000   0.0000000   1.5694875  )
        15           O0  tau(  15) = (   0.5000000   0.5047586   1.6704338  )
        16           Ir1 tau(  16) = (   0.7500000   0.5047586   1.8805934  )
        17           Ir1 tau(  17) = (   0.5000000   0.0000000   1.8805518  )
        18           O0  tau(  18) = (   0.7500000   0.8177090   1.8801364  )
        19           O0  tau(  19) = (   0.7500000   0.1918083   1.8788486  )
        20           O0  tau(  20) = (   0.5000000   0.5047586   2.0759640  )
        21           O0  tau(  21) = (   0.5000000   0.0000000   2.1945241  )
        22           Ir1 tau(  22) = (   0.7500000   0.0000000   2.3900609  )
        23           Ir1 tau(  23) = (   0.5000000   0.5047586   2.3998648  )
        24           O0  tau(  24) = (   0.7500000   0.6965669   2.3856575  )
        25           O0  tau(  25) = (   0.7500000   0.3129503   2.3949628  )
        26           O0  tau(  26) = (   0.5000000   0.0000000   2.5728445  )
        27           H2  tau(  27) = (   0.0000400   0.6420328   1.5957418  )
        28           H2  tau(  28) = (   0.4999400   0.6424971   1.5965311  )
        29           H2  tau(  29) = (   0.1432100   0.0360095   1.5217560  )
        30           H2  tau(  30) = (   0.6436700   0.0339703   1.5215899  )
        31           O0  tau(  31) = (   0.4997900   0.5432313   2.6993805  )
        32           O0  tau(  32) = (   0.5001800   0.3480815   2.8224271  )
        33           H2  tau(  33) = (   0.4999800   0.4114489   2.9642920  )

     number of k points=    10  Methfessel-Paxton smearing, width (Ry)=  0.0100
                       cart. coord. in units 2pi/alat
        k(    1) = (   0.0000000   0.0000000   0.0000000), wk =   0.1250000
        k(    2) = (   0.0000000   0.2476431   0.0000000), wk =   0.2500000
        k(    3) = (   0.0000000  -0.4952862   0.0000000), wk =   0.1250000
        k(    4) = (   0.2500000   0.0000000   0.0000000), wk =   0.2500000
        k(    5) = (   0.2500000   0.2476431   0.0000000), wk =   0.2500000
        k(    6) = (   0.2500000  -0.4952862   0.0000000), wk =   0.2500000
        k(    7) = (  -0.5000000   0.0000000   0.0000000), wk =   0.1250000
        k(    8) = (  -0.5000000   0.2476431   0.0000000), wk =   0.2500000
        k(    9) = (  -0.5000000  -0.4952862   0.0000000), wk =   0.1250000
        k(   10) = (  -0.2500000   0.2476431   0.0000000), wk =   0.2500000

     Dense  grid:  1374641 G-vectors     FFT dimensions: (  90,  90, 360)

     Smooth grid:   249013 G-vectors     FFT dimensions: (  50,  50, 216)

     Largest allocated arrays     est. size (Mb)     dimensions
        Kohn-Sham Wavefunctions        44.06 Mb     (   7867,  367)
        Atomic wavefunctions           21.73 Mb     (   7867,  181)
        NL pseudopotentials            52.58 Mb     (   7867,  438)
        Each V/rho on FFT grid         11.12 Mb     ( 729000)
        Each G-vector array             2.62 Mb     ( 343661)
        G-vector shells                 1.13 Mb     ( 148760)
     Largest temporary arrays     est. size (Mb)     dimensions
        Auxiliary wavefunctions       176.22 Mb     (   7867, 1468)
        Each subspace H/S matrix       32.88 Mb     (1468,1468)
        Each <psi_i|beta_j> matrix      2.45 Mb     (    438,  367)
        Arrays for rho mixing          88.99 Mb     ( 729000,   8)

     Check: negative/imaginary core charge=   -0.000003    0.000000

     Initial potential from superposition of free atoms
     Check: negative starting charge=   -3.336869

     starting charge  240.99967, renormalised to  245.00000

     negative rho (up, down):  0.339E+01 0.000E+00
     Number of +U iterations with fixed ns =  0
     Starting occupations:
 --- enter write_ns ---
 LDA+U parameters:
U( 2)     =  0.00000000
alpha( 2) =  0.00000000
atom    3   Tr[ns(na)] =   7.00000
    eigenvalues: 
  0.700  0.700  0.700  0.700  0.700
    eigenvectors:
  1.000  0.000  0.000  0.000  0.000
  0.000  1.000  0.000  0.000  0.000
  0.000  0.000  1.000  0.000  0.000
  0.000  0.000  0.000  1.000  0.000
  0.000  0.000  0.000  0.000  1.000
    occupations:
  0.700  0.000  0.000  0.000  0.000
  0.000  0.700  0.000  0.000  0.000
  0.000  0.000  0.700  0.000  0.000
  0.000  0.000  0.000  0.700  0.000
  0.000  0.000  0.000  0.000  0.700
atom    4   Tr[ns(na)] =   7.00000
    eigenvalues: 
  0.700  0.700  0.700  0.700  0.700
    eigenvectors:
  1.000  0.000  0.000  0.000  0.000
  0.000  1.000  0.000  0.000  0.000
  0.000  0.000  1.000  0.000  0.000
  0.000  0.000  0.000  1.000  0.000
  0.000  0.000  0.000  0.000  1.000
    occupations:
  0.700  0.000  0.000  0.000  0.000
  0.000  0.700  0.000  0.000  0.000
  0.000  0.000  0.700  0.000  0.000
  0.000  0.000  0.000  0.700  0.000
  0.000  0.000  0.000  0.000  0.700
atom    9   Tr[ns(na)] =   7.00000
    eigenvalues: 
  0.700  0.700  0.700  0.700  0.700
    eigenvectors:
  1.000  0.000  0.000  0.000  0.000
  0.000  1.000  0.000  0.000  0.000
  0.000  0.000  1.000  0.000  0.000
  0.000  0.000  0.000  1.000  0.000
  0.000  0.000  0.000  0.000  1.000
    occupations:
  0.700  0.000  0.000  0.000  0.000
  0.000  0.700  0.000  0.000  0.000
  0.000  0.000  0.700  0.000  0.000
  0.000  0.000  0.000  0.700  0.000
  0.000  0.000  0.000  0.000  0.700
atom   10   Tr[ns(na)] =   7.00000
    eigenvalues: 
  0.700  0.700  0.700  0.700  0.700
    eigenvectors:
  1.000  0.000  0.000  0.000  0.000
  0.000  1.000  0.000  0.000  0.000
  0.000  0.000  1.000  0.000  0.000
  0.000  0.000  0.000  1.000  0.000
  0.000  0.000  0.000  0.000  1.000
    occupations:
  0.700  0.000  0.000  0.000  0.000
  0.000  0.700  0.000  0.000  0.000
  0.000  0.000  0.700  0.000  0.000
  0.000  0.000  0.000  0.700  0.000
  0.000  0.000  0.000  0.000  0.700
atom   16   Tr[ns(na)] =   7.00000
    eigenvalues: 
  0.700  0.700  0.700  0.700  0.700
    eigenvectors:
  1.000  0.000  0.000  0.000  0.000
  0.000  1.000  0.000  0.000  0.000
  0.000  0.000  1.000  0.000  0.000
  0.000  0.000  0.000  1.000  0.000
  0.000  0.000  0.000  0.000  1.000
    occupations:
  0.700  0.000  0.000  0.000  0.000
  0.000  0.700  0.000  0.000  0.000
  0.000  0.000  0.700  0.000  0.000
  0.000  0.000  0.000  0.700  0.000
  0.000  0.000  0.000  0.000  0.700
atom   17   Tr[ns(na)] =   7.00000
    eigenvalues: 
  0.700  0.700  0.700  0.700  0.700
    eigenvectors:
  1.000  0.000  0.000  0.000  0.000
  0.000  1.000  0.000  0.000  0.000
  0.000  0.000  1.000  0.000  0.000
  0.000  0.000  0.000  1.000  0.000
  0.000  0.000  0.000  0.000  1.000
    occupations:
  0.700  0.000  0.000  0.000  0.000
  0.000  0.700  0.000  0.000  0.000
  0.000  0.000  0.700  0.000  0.000
  0.000  0.000  0.000  0.700  0.000
  0.000  0.000  0.000  0.000  0.700
atom   22   Tr[ns(na)] =   7.00000
    eigenvalues: 
  0.700  0.700  0.700  0.700  0.700
    eigenvectors:
  1.000  0.000  0.000  0.000  0.000
  0.000  1.000  0.000  0.000  0.000
  0.000  0.000  1.000  0.000  0.000
  0.000  0.000  0.000  1.000  0.000
  0.000  0.000  0.000  0.000  1.000
    occupations:
  0.700  0.000  0.000  0.000  0.000
  0.000  0.700  0.000  0.000  0.000
  0.000  0.000  0.700  0.000  0.000
  0.000  0.000  0.000  0.700  0.000
  0.000  0.000  0.000  0.000  0.700
atom   23   Tr[ns(na)] =   7.00000
    eigenvalues: 
  0.700  0.700  0.700  0.700  0.700
    eigenvectors:
  1.000  0.000  0.000  0.000  0.000
  0.000  1.000  0.000  0.000  0.000
  0.000  0.000  1.000  0.000  0.000
  0.000  0.000  0.000  1.000  0.000
  0.000  0.000  0.000  0.000  1.000
    occupations:
  0.700  0.000  0.000  0.000  0.000
  0.000  0.700  0.000  0.000  0.000
  0.000  0.000  0.700  0.000  0.000
  0.000  0.000  0.000  0.700  0.000
  0.000  0.000  0.000  0.000  0.700
N of occupied +U levels =  56.0000000
 --- exit write_ns ---
 Atomic wfc used for LDA+U Projector are NOT orthogonalized
     Starting wfc are  181 randomized atomic wfcs

     total cpu time spent up to now is      119.2 secs

     per-process dynamical memory:   438.7 Mb

     Self-consistent Calculation

     iteration #  1     ecut=    40.00 Ry     beta=0.70
     Davidson diagonalization with overlap
     ethr =  1.00E-02,  avg # of iterations = 10.2
 --- enter write_ns ---
 LDA+U parameters:
U( 2)     =  0.00000000
alpha( 2) =  0.00000000
atom    3   Tr[ns(na)] =   6.85341
    eigenvalues: 
  0.416  0.457  0.707  0.917  0.929
    eigenvectors:
  0.000  0.182  0.003  0.808  0.007
  0.998  0.002  0.000  0.000  0.000
  0.000  0.000  0.994  0.003  0.003
  0.001  0.816  0.001  0.180  0.002
  0.000  0.000  0.002  0.009  0.988
    occupations:
  0.833  0.001  0.011 -0.178 -0.000
  0.001  0.417  0.000  0.001 -0.006
  0.011  0.000  0.708 -0.006 -0.011
 -0.178  0.001 -0.006  0.541  0.000
 -0.000 -0.006 -0.011  0.000  0.928
atom    4   Tr[ns(na)] =   6.53095
    eigenvalues: 
  0.445  0.467  0.653  0.779  0.922
    eigenvectors:
  0.000  0.987  0.000  0.000  0.012
  0.000  0.000  0.031  0.969  0.000
  0.000  0.000  0.969  0.031  0.000
  0.000  0.012  0.000  0.000  0.987
  1.000  0.000  0.000  0.000  0.000
    occupations:
  0.472 -0.003  0.000  0.050  0.000
 -0.003  0.775  0.022 -0.001 -0.001
  0.000  0.022  0.657  0.006  0.000
  0.050 -0.001  0.006  0.916 -0.000
  0.000 -0.001  0.000 -0.000  0.445
atom    9   Tr[ns(na)] =   6.84340
    eigenvalues: 
  0.452  0.475  0.731  0.809  0.955
    eigenvectors:
  0.001  0.150  0.001  0.000  0.848
  0.995  0.005  0.000  0.000  0.000
  0.000  0.000  0.960  0.039  0.000
  0.004  0.844  0.000  0.000  0.151
  0.000  0.000  0.039  0.961  0.000
    occupations:
  0.882 -0.002  0.002 -0.172  0.001
 -0.002  0.452  0.001 -0.001 -0.000
  0.002  0.001  0.734 -0.006 -0.015
 -0.172 -0.001 -0.006  0.548  0.000
  0.001 -0.000 -0.015  0.000  0.806
atom   10   Tr[ns(na)] =   7.17395
    eigenvalues: 
  0.424  0.446  0.883  0.889  0.945
    eigenvectors:
  0.996  0.000  0.000  0.000  0.004
  0.000  0.001  0.999  0.000  0.000
  0.000  0.000  0.000  0.999  0.001
  0.004  0.000  0.000  0.001  0.995
  0.000  0.999  0.001  0.000  0.000
    occupations:
  0.426  0.000  0.000  0.034  0.000
  0.000  0.882  0.000 -0.000 -0.011
  0.000  0.000  0.889 -0.002  0.000
  0.034 -0.000 -0.002  0.942  0.000
  0.000 -0.011  0.000  0.000  0.446
atom   16   Tr[ns(na)] =   6.85352
    eigenvalues: 
  0.416  0.457  0.707  0.917  0.929
    eigenvectors:
  0.000  0.182  0.003  0.802  0.012
  0.998  0.002  0.000  0.000  0.000
  0.000  0.000  0.994  0.003  0.003
  0.001  0.816  0.001  0.179  0.003
  0.000  0.000  0.002  0.016  0.982
    occupations:
  0.833 -0.001  0.011 -0.178  0.001
 -0.001  0.417 -0.000 -0.001 -0.006
  0.011 -0.000  0.708 -0.006  0.011
 -0.178 -0.001 -0.006  0.541 -0.000
  0.001 -0.006  0.011 -0.000  0.929
atom   17   Tr[ns(na)] =   6.51298
    eigenvalues: 
  0.444  0.467  0.645  0.782  0.918
    eigenvectors:
  0.000  0.987  0.000  0.000  0.013
  0.000  0.000  0.023  0.977  0.000
  0.000  0.000  0.977  0.023  0.001
  0.000  0.013  0.001  0.000  0.987
  1.000  0.000  0.000  0.000  0.000
    occupations:
  0.472 -0.003  0.001  0.050  0.000
 -0.003  0.779  0.020 -0.001 -0.001
  0.001  0.020  0.649  0.007  0.000
  0.050 -0.001  0.007  0.912  0.000
  0.000 -0.001  0.000  0.000  0.444
atom   22   Tr[ns(na)] =   6.84379
    eigenvalues: 
  0.452  0.475  0.731  0.809  0.955
    eigenvectors:
  0.001  0.150  0.001  0.000  0.848
  0.993  0.007  0.000  0.000  0.000
  0.000  0.000  0.962  0.037  0.000
  0.006  0.843  0.000  0.000  0.151
  0.000  0.000  0.037  0.963  0.000
    occupations:
  0.882  0.002  0.002 -0.172  0.001
  0.002  0.452  0.000  0.001 -0.000
  0.002  0.000  0.734 -0.006  0.015
 -0.172  0.001 -0.006  0.548 -0.000
  0.001 -0.000  0.015 -0.000  0.806
atom   23   Tr[ns(na)] =   6.76467
    eigenvalues: 
  0.439  0.478  0.688  0.843  0.935
    eigenvectors:
  0.000  0.991  0.000  0.002  0.007
  0.001  0.000  0.999  0.000  0.000
  0.000  0.001  0.000  0.965  0.034
  0.000  0.008  0.000  0.033  0.959
  0.999  0.000  0.001  0.000  0.000
    occupations:
  0.482 -0.000  0.007  0.041  0.000
 -0.000  0.688  0.000 -0.000 -0.007
  0.007  0.000  0.846 -0.017  0.000
  0.041 -0.000 -0.017  0.928 -0.000
  0.000 -0.007  0.000 -0.000  0.439
N of occupied +U levels =  54.3766727
 --- exit write_ns ---

     negative rho (up, down):  0.292E+01 0.000E+00

     total cpu time spent up to now is      536.2 secs

     total energy              =   -2128.20416175 Ry
     Harris-Foulkes estimate   =   -2144.44824721 Ry
     estimated scf accuracy    <      19.87725864 Ry

     iteration #  2     ecut=    40.00 Ry     beta=0.70
     Davidson diagonalization with overlap
     ethr =  8.11E-03,  avg # of iterations =  3.1

     negative rho (up, down):  0.271E+01 0.000E+00

     total cpu time spent up to now is      779.4 secs

     total energy              =   -2089.46865008 Ry
     Harris-Foulkes estimate   =   -2170.20641719 Ry
     estimated scf accuracy    <     494.16835146 Ry

     iteration #  3     ecut=    40.00 Ry     beta=0.70
     Davidson diagonalization with overlap
     ethr =  8.11E-03,  avg # of iterations =  4.0

     negative rho (up, down):  0.237E+01 0.000E+00

     total cpu time spent up to now is     1063.6 secs

     total energy              =   -2084.04461181 Ry
     Harris-Foulkes estimate   =   -2188.69034089 Ry
     estimated scf accuracy    <    1841.89545108 Ry

     iteration #  4     ecut=    40.00 Ry     beta=0.70
     Davidson diagonalization with overlap
     ethr =  8.11E-03,  avg # of iterations =  4.0

     negative rho (up, down):  0.246E+01 0.000E+00

     total cpu time spent up to now is     1337.7 secs

     total energy              =   -2137.57644889 Ry
     Harris-Foulkes estimate   =   -2141.42318317 Ry
     estimated scf accuracy    <      14.18805610 Ry

     iteration #  5     ecut=    40.00 Ry     beta=0.70
     Davidson diagonalization with overlap
     ethr =  5.79E-03,  avg # of iterations =  1.0

     negative rho (up, down):  0.260E+01 0.000E+00

     total cpu time spent up to now is     1526.5 secs

     total energy              =   -2138.83772893 Ry
     Harris-Foulkes estimate   =   -2140.64499426 Ry
     estimated scf accuracy    <       9.08390550 Ry

     iteration #  6     ecut=    40.00 Ry     beta=0.70
     Davidson diagonalization with overlap
     ethr =  3.71E-03,  avg # of iterations =  2.2

     negative rho (up, down):  0.266E+01 0.000E+00

     total cpu time spent up to now is     1726.4 secs

     total energy              =   -2139.51286370 Ry
     Harris-Foulkes estimate   =   -2140.03313971 Ry
     estimated scf accuracy    <       3.22133733 Ry

     iteration #  7     ecut=    40.00 Ry     beta=0.70
     Davidson diagonalization with overlap
     ethr =  1.31E-03,  avg # of iterations =  1.9

     negative rho (up, down):  0.269E+01 0.000E+00

     total cpu time spent up to now is     1920.9 secs

     total energy              =   -2139.56369867 Ry
     Harris-Foulkes estimate   =   -2139.78945412 Ry
     estimated scf accuracy    <       1.93543742 Ry

     iteration #  8     ecut=    40.00 Ry     beta=0.70
     Davidson diagonalization with overlap
     ethr =  7.90E-04,  avg # of iterations =  1.1

     negative rho (up, down):  0.274E+01 0.000E+00

     total cpu time spent up to now is     2110.8 secs

     total energy              =   -2139.57009344 Ry
     Harris-Foulkes estimate   =   -2139.72231331 Ry
     estimated scf accuracy    <       1.06124624 Ry

     iteration #  9     ecut=    40.00 Ry     beta=0.70
     Davidson diagonalization with overlap
     ethr =  4.33E-04,  avg # of iterations =  1.4

     negative rho (up, down):  0.281E+01 0.000E+00

     total cpu time spent up to now is     2302.4 secs

     total energy              =   -2139.53940261 Ry
     Harris-Foulkes estimate   =   -2139.66143902 Ry
     estimated scf accuracy    <       0.75962932 Ry

     iteration # 10     ecut=    40.00 Ry     beta=0.70
     Davidson diagonalization with overlap
     ethr =  3.10E-04,  avg # of iterations =  3.9

     negative rho (up, down):  0.296E+01 0.000E+00

     total cpu time spent up to now is     2510.0 secs

     total energy              =   -2139.48174705 Ry
     Harris-Foulkes estimate   =   -2139.57836512 Ry
     estimated scf accuracy    <       0.25192615 Ry

     iteration # 11     ecut=    40.00 Ry     beta=0.70
     Davidson diagonalization with overlap
     ethr =  1.03E-04,  avg # of iterations =  5.9

     negative rho (up, down):  0.308E+01 0.000E+00

     total cpu time spent up to now is     2747.7 secs

     total energy              =   -2139.44101468 Ry
     Harris-Foulkes estimate   =   -2139.54053111 Ry
     estimated scf accuracy    <       0.64236134 Ry

     iteration # 12     ecut=    40.00 Ry     beta=0.70
     Davidson diagonalization with overlap
     ethr =  1.03E-04,  avg # of iterations =  4.1

     negative rho (up, down):  0.310E+01 0.000E+00

     total cpu time spent up to now is     2968.4 secs

     total energy              =   -2139.42550758 Ry
     Harris-Foulkes estimate   =   -2139.49861740 Ry
     estimated scf accuracy    <       0.28676955 Ry

     iteration # 13     ecut=    40.00 Ry     beta=0.70
     Davidson diagonalization with overlap
     ethr =  1.03E-04,  avg # of iterations =  4.8

     negative rho (up, down):  0.310E+01 0.000E+00

     total cpu time spent up to now is     3197.1 secs

     total energy              =   -2139.33570647 Ry
     Harris-Foulkes estimate   =   -2139.60602781 Ry
     estimated scf accuracy    <       4.33407250 Ry

     iteration # 14     ecut=    40.00 Ry     beta=0.70
     Davidson diagonalization with overlap
     ethr =  1.03E-04,  avg # of iterations =  4.3

     negative rho (up, down):  0.310E+01 0.000E+00

     total cpu time spent up to now is     3415.3 secs

     total energy              =   -2139.45012357 Ry
     Harris-Foulkes estimate   =   -2139.49226415 Ry
     estimated scf accuracy    <       0.13810334 Ry

     iteration # 15     ecut=    40.00 Ry     beta=0.70
     Davidson diagonalization with overlap
     ethr =  5.64E-05,  avg # of iterations =  1.9

     negative rho (up, down):  0.312E+01 0.000E+00

     total cpu time spent up to now is     3610.2 secs

     total energy              =   -2139.44508634 Ry
     Harris-Foulkes estimate   =   -2139.50565338 Ry
     estimated scf accuracy    <       0.36147570 Ry

     iteration # 16     ecut=    40.00 Ry     beta=0.70
     Davidson diagonalization with overlap
     ethr =  5.64E-05,  avg # of iterations =  3.1

     negative rho (up, down):  0.312E+01 0.000E+00

     total cpu time spent up to now is     3812.7 secs

     total energy              =   -2139.46664776 Ry
     Harris-Foulkes estimate   =   -2139.48313502 Ry
     estimated scf accuracy    <       0.07206625 Ry

     iteration # 17     ecut=    40.00 Ry     beta=0.70
     Davidson diagonalization with overlap
     ethr =  2.94E-05,  avg # of iterations =  2.5

     negative rho (up, down):  0.312E+01 0.000E+00

     total cpu time spent up to now is     4012.4 secs

     total energy              =   -2139.47382412 Ry
     Harris-Foulkes estimate   =   -2139.47622483 Ry
     estimated scf accuracy    <       0.01457974 Ry

     iteration # 18     ecut=    40.00 Ry     beta=0.70
     Davidson diagonalization with overlap
     ethr =  5.95E-06,  avg # of iterations =  5.1

     negative rho (up, down):  0.313E+01 0.000E+00

     total cpu time spent up to now is     4236.6 secs

     total energy              =   -2139.47380752 Ry
     Harris-Foulkes estimate   =   -2139.47690977 Ry
     estimated scf accuracy    <       0.02401602 Ry

     iteration # 19     ecut=    40.00 Ry     beta=0.70
     Davidson diagonalization with overlap
     ethr =  5.95E-06,  avg # of iterations =  1.0

     negative rho (up, down):  0.312E+01 0.000E+00

     total cpu time spent up to now is     4438.1 secs

     total energy              =   -2139.47483939 Ry
     Harris-Foulkes estimate   =   -2139.47590702 Ry
     estimated scf accuracy    <       0.00723597 Ry

     iteration # 20     ecut=    40.00 Ry     beta=0.70
     Davidson diagonalization with overlap
     ethr =  2.95E-06,  avg # of iterations =  1.5

     negative rho (up, down):  0.313E+01 0.000E+00

     total cpu time spent up to now is     4641.0 secs

     total energy              =   -2139.47520114 Ry
     Harris-Foulkes estimate   =   -2139.47558132 Ry
     estimated scf accuracy    <       0.00200617 Ry

     iteration # 21     ecut=    40.00 Ry     beta=0.70
     Davidson diagonalization with overlap
     ethr =  8.19E-07,  avg # of iterations =  1.0

     negative rho (up, down):  0.313E+01 0.000E+00

     total cpu time spent up to now is     4843.4 secs

     total energy              =   -2139.47533622 Ry
     Harris-Foulkes estimate   =   -2139.47551607 Ry
     estimated scf accuracy    <       0.00122149 Ry

     iteration # 22     ecut=    40.00 Ry     beta=0.70
     Davidson diagonalization with overlap
     ethr =  4.99E-07,  avg # of iterations =  1.6

     negative rho (up, down):  0.313E+01 0.000E+00

     total cpu time spent up to now is     5046.6 secs

     total energy              =   -2139.47538012 Ry
     Harris-Foulkes estimate   =   -2139.47547080 Ry
     estimated scf accuracy    <       0.00037907 Ry

     iteration # 23     ecut=    40.00 Ry     beta=0.70
     Davidson diagonalization with overlap
     ethr =  1.55E-07,  avg # of iterations =  1.0

     negative rho (up, down):  0.313E+01 0.000E+00

     total cpu time spent up to now is     5248.4 secs

     total energy              =   -2139.47538894 Ry
     Harris-Foulkes estimate   =   -2139.47548037 Ry
     estimated scf accuracy    <       0.00084911 Ry

     iteration # 24     ecut=    40.00 Ry     beta=0.70
     Davidson diagonalization with overlap
     ethr =  1.55E-07,  avg # of iterations =  1.0

     negative rho (up, down):  0.313E+01 0.000E+00

     total cpu time spent up to now is     5453.5 secs

     total energy              =   -2139.47543327 Ry
     Harris-Foulkes estimate   =   -2139.47543791 Ry
     estimated scf accuracy    <       0.00001867 Ry

     iteration # 25     ecut=    40.00 Ry     beta=0.70
     Davidson diagonalization with overlap
     ethr =  7.62E-09,  avg # of iterations =  1.2

     negative rho (up, down):  0.313E+01 0.000E+00

     total cpu time spent up to now is     5655.0 secs

     total energy              =   -2139.47543200 Ry
     Harris-Foulkes estimate   =   -2139.47544009 Ry
     estimated scf accuracy    <       0.00005409 Ry

     iteration # 26     ecut=    40.00 Ry     beta=0.70
     Davidson diagonalization with overlap
     ethr =  7.62E-09,  avg # of iterations =  1.0

     negative rho (up, down):  0.313E+01 0.000E+00

     total cpu time spent up to now is     5854.0 secs

     total energy              =   -2139.47543551 Ry
     Harris-Foulkes estimate   =   -2139.47543675 Ry
     estimated scf accuracy    <       0.00000543 Ry

     iteration # 27     ecut=    40.00 Ry     beta=0.70
     Davidson diagonalization with overlap
     ethr =  2.22E-09,  avg # of iterations =  1.0

     negative rho (up, down):  0.313E+01 0.000E+00

     total cpu time spent up to now is     6052.9 secs

     total energy              =   -2139.47543584 Ry
     Harris-Foulkes estimate   =   -2139.47543653 Ry
     estimated scf accuracy    <       0.00000463 Ry

     iteration # 28     ecut=    40.00 Ry     beta=0.70
     Davidson diagonalization with overlap
     ethr =  1.89E-09,  avg # of iterations =  1.0

     negative rho (up, down):  0.313E+01 0.000E+00

     total cpu time spent up to now is     6251.9 secs

     total energy              =   -2139.47543600 Ry
     Harris-Foulkes estimate   =   -2139.47543642 Ry
     estimated scf accuracy    <       0.00000201 Ry

     iteration # 29     ecut=    40.00 Ry     beta=0.70
     Davidson diagonalization with overlap
     ethr =  8.21E-10,  avg # of iterations =  1.0

     negative rho (up, down):  0.313E+01 0.000E+00

     total cpu time spent up to now is     6450.7 secs

     total energy              =   -2139.47543609 Ry
     Harris-Foulkes estimate   =   -2139.47543637 Ry
     estimated scf accuracy    <       0.00000246 Ry

     iteration # 30     ecut=    40.00 Ry     beta=0.70
     Davidson diagonalization with overlap
     ethr =  8.21E-10,  avg # of iterations =  1.0

     negative rho (up, down):  0.313E+01 0.000E+00

     total cpu time spent up to now is     6656.4 secs

     End of self-consistent calculation
 --- enter write_ns ---
 LDA+U parameters:
U( 2)     =  0.00000000
alpha( 2) =  0.00000000
atom    3   Tr[ns(na)] =   8.03860
    eigenvalues: 
  0.606  0.632  0.864  0.951  0.967
    eigenvectors:
  0.005  0.183  0.003  0.003  0.806
  0.979  0.020  0.000  0.000  0.000
  0.000  0.000  0.993  0.004  0.003
  0.016  0.796  0.000  0.001  0.187
  0.000  0.000  0.003  0.993  0.004
    occupations:
  0.903 -0.004  0.005 -0.131 -0.002
 -0.004  0.607 -0.000 -0.002 -0.006
  0.005 -0.000  0.864 -0.004  0.005
 -0.131 -0.002 -0.004  0.694 -0.000
 -0.002 -0.006  0.005 -0.000  0.950
atom    4   Tr[ns(na)] =   8.01824
    eigenvalues: 
  0.618  0.662  0.852  0.900  0.977
    eigenvectors:
  0.000  0.990  0.000  0.000  0.009
  0.000  0.000  0.048  0.952  0.000
  0.000  0.000  0.952  0.048  0.000
  0.000  0.009  0.000  0.000  0.991
  1.000  0.000  0.000  0.000  0.000
    occupations:
  0.665 -0.003 -0.001  0.030  0.001
 -0.003  0.897  0.010  0.000 -0.001
 -0.001  0.010  0.854 -0.000  0.000
  0.030  0.000 -0.000  0.974  0.000
  0.001 -0.001  0.000  0.000  0.618
atom    9   Tr[ns(na)] =   7.99226
    eigenvalues: 
  0.650  0.666  0.832  0.875  0.973
    eigenvectors:
  0.000  0.142  0.001  0.000  0.857
  0.999  0.001  0.000  0.000  0.000
  0.000  0.000  0.993  0.006  0.001
  0.001  0.857  0.000  0.000  0.142
  0.000  0.000  0.007  0.993  0.000
    occupations:
  0.929 -0.001  0.002 -0.107 -0.002
 -0.001  0.650 -0.000  0.001 -0.000
  0.002 -0.000  0.832 -0.004 -0.004
 -0.107  0.001 -0.004  0.710  0.001
 -0.002 -0.000 -0.004  0.001  0.875
atom   10   Tr[ns(na)] =   8.00294
    eigenvalues: 
  0.604  0.608  0.902  0.911  0.976
    eigenvectors:
  0.992  0.000  0.000  0.000  0.008
  0.000  0.001  0.001  0.999  0.000
  0.000  0.000  0.999  0.001  0.000
  0.008  0.000  0.000  0.000  0.992
  0.000  0.999  0.000  0.001  0.000
    occupations:
  0.607  0.000  0.006  0.033 -0.000
  0.000  0.911 -0.000  0.000 -0.008
  0.006 -0.000  0.901  0.000  0.000
  0.033  0.000  0.000  0.973  0.000
 -0.000 -0.008  0.000  0.000  0.609
atom   16   Tr[ns(na)] =   8.03857
    eigenvalues: 
  0.607  0.632  0.864  0.951  0.967
    eigenvectors:
  0.005  0.183  0.003  0.003  0.805
  0.980  0.019  0.000  0.000  0.000
  0.000  0.000  0.995  0.002  0.003
  0.015  0.797  0.000  0.001  0.187
  0.000  0.000  0.002  0.994  0.004
    occupations:
  0.903  0.004  0.005 -0.131  0.001
  0.004  0.607 -0.000  0.002 -0.006
  0.005 -0.000  0.864 -0.004 -0.003
 -0.131  0.002 -0.004  0.694 -0.000
  0.001 -0.006 -0.003 -0.000  0.951
atom   17   Tr[ns(na)] =   8.01636
    eigenvalues: 
  0.618  0.663  0.850  0.900  0.978
    eigenvectors:
  0.000  0.990  0.000  0.000  0.009
  0.000  0.000  0.034  0.966  0.000
  0.000  0.000  0.966  0.034  0.000
  0.000  0.009  0.000  0.000  0.991
  1.000  0.000  0.000  0.000  0.000
    occupations:
  0.666 -0.003 -0.001  0.031  0.001
 -0.003  0.898  0.009  0.000 -0.001
 -0.001  0.009  0.852 -0.000  0.000
  0.031  0.000 -0.000  0.975  0.000
  0.001 -0.001  0.000  0.000  0.618
atom   22   Tr[ns(na)] =   7.99239
    eigenvalues: 
  0.650  0.666  0.831  0.875  0.973
    eigenvectors:
  0.000  0.142  0.001  0.000  0.857
  1.000  0.000  0.000  0.000  0.000
  0.000  0.000  0.994  0.006  0.000
  0.000  0.858  0.000  0.000  0.142
  0.000  0.000  0.006  0.994  0.000
    occupations:
  0.930  0.002  0.002 -0.107  0.000
  0.002  0.650  0.001 -0.001 -0.000
  0.002  0.001  0.832 -0.004  0.003
 -0.107 -0.001 -0.004  0.710  0.000
  0.000 -0.000  0.003  0.000  0.875
atom   23   Tr[ns(na)] =   8.03285
    eigenvalues: 
  0.616  0.656  0.842  0.928  0.974
    eigenvectors:
  0.000  0.993  0.000  0.003  0.004
  0.001  0.000  0.998  0.000  0.000
  0.000  0.003  0.000  0.996  0.001
  0.000  0.004  0.000  0.001  0.995
  0.999  0.000  0.001  0.000  0.000
    occupations:
  0.658 -0.000  0.014  0.020 -0.000
 -0.000  0.841 -0.000 -0.000 -0.009
  0.014 -0.000  0.927 -0.002  0.000
  0.020 -0.000 -0.002  0.973 -0.000
 -0.000 -0.009  0.000 -0.000  0.617
N of occupied +U levels =  64.1322142
 --- exit write_ns ---

          k = 0.0000 0.0000 0.0000 ( 31045 PWs)   bands (ev):

   -50.8116 -50.8058 -50.8044 -50.7113 -50.6881 -50.6692 -50.6599 -50.6448
   -50.6095 -50.5646 -50.4883 -50.4862 -50.4638 -50.4593 -50.4383 -50.4346
   -50.4097 -50.3308 -50.3257 -50.3125 -50.3103 -50.2977 -50.2956 -50.1476
   -22.9424 -21.2334 -20.8039 -20.6725 -20.6029 -20.1475 -19.9598 -19.8809
   -19.8481 -19.7726 -19.6826 -19.5398 -19.3339 -19.2655 -19.2117 -19.1640
   -19.0619 -18.2115 -18.0743 -17.0736  -9.7947  -9.7747  -9.3144  -8.5105
    -8.3956  -8.3188  -8.2749  -8.2430  -8.2373  -8.1805  -8.1343  -8.0380
    -8.0261  -7.8732  -7.7168  -7.5968  -7.5305  -7.4888  -7.4415  -7.3870
    -7.0534  -6.7623  -6.7123  -6.5570  -6.4863  -6.3799  -5.9317  -5.8716
    -5.7914  -5.6139  -5.3369  -5.2726  -5.1886  -5.0299  -4.8903  -4.8472
    -4.7968  -4.7742  -4.7000  -4.5904  -4.5150  -4.3771  -4.3523  -4.2576
    -4.1463  -4.0950  -3.9934  -3.9830  -3.7481  -3.6066  -3.5497  -3.4067
    -3.3839  -3.1200  -3.0906  -2.9535  -2.9072  -2.6833  -2.6416  -2.5384
    -2.4840  -2.4248  -2.4144  -2.1598  -2.1091  -2.0402  -2.0078  -1.9290
    -1.8054  -1.6506  -1.3956  -1.3689  -1.1801  -1.0994  -1.0522  -0.9845
    -0.5298  -0.5234  -0.3138  -0.1266   0.0130   0.0768   0.3470   0.6109
     1.2255   1.6974   1.8354   1.8744   1.9404   2.0893   2.4789   2.7611
     2.9135   3.0435   3.4295   3.5922   3.6607   3.7828   3.8284   3.8432
     4.2285   4.3535   4.4993   4.9385   4.9723   5.8380   6.1201   6.5572
     6.7277   6.7631   7.2455   7.2958   7.5687   7.6231   7.6734   7.7295
     7.8455   8.0457   8.0906   8.1228   8.1783   8.1811   8.3258   8.3642
     8.4099   8.4451   8.4765   8.6176   8.6618   8.7828   8.7894   8.9389
     9.0344   9.0797   9.2274   9.2460   9.2511   9.2606   9.2754   9.2775
     9.3348   9.3385   9.4267   9.4316   9.4323   9.4872   9.4958   9.7601
     9.9088  10.0017  10.0300  10.1676  10.2051  10.2733  10.4992  10.5080
    10.6518  10.6926  10.7304  10.8663  11.0699  11.1912  11.2112  11.2433
    11.3448  11.3608  11.4411  11.4786  11.5225  11.5707  11.6214  11.7588
    11.7704  11.8164  11.8459  11.8967  11.9533  11.9965  12.1728  12.2583
    12.2761  12.3251  12.3681  12.4753  12.5326  12.5616  12.6187  12.7080
    12.8048  12.8435  12.8548  12.9306  13.0168  13.0944  13.3182  13.3781
    13.5894  13.6790  13.7704  13.7918  13.8868  13.9638  14.0410  14.1704
    14.1940  14.3893  14.3989  14.4970  14.5755  14.6401  14.8384  14.9114
    14.9280  15.1041  15.3516  15.4401  15.4744  15.5173  15.5849  15.6487
    15.6666  15.7249  15.8410  15.8915  16.0322  16.1121  16.2185  16.2970
    16.4490  16.4956  16.5426  16.7330  16.8759  16.9573  17.0205  17.0517
    17.2102  17.3521  17.3658  17.3719  17.4641  17.5006  17.5505  17.7338
    17.7686  17.8161  17.9277  18.1007  18.1410  18.1818  18.2120  18.4153
    18.4388  18.5251  18.5609  18.5921  18.7072  18.7936  18.9330  18.9460
    18.9617  19.0619  19.0679  19.1265  19.1368  19.2177  19.2482  19.2720
    19.3623  19.4081  19.4293  19.4787  19.5023  19.6095  19.6517  19.7207
    19.7344  19.8029  19.8233  19.9832  20.0412  20.0583  20.1663  20.1954
    20.3509  20.4535  20.4880  20.5134  20.5462  20.6114  20.6731  20.6823
    20.7760  20.8318  20.8537  21.0072  21.0631  21.1174  21.2266  21.2828
    21.3131  21.3405  21.4230  21.5551  21.6791  21.7530  21.7935  21.8169
    21.9338  21.9709  22.0022  22.0628  22.1522  22.1661  22.2080  22.2588
    22.3041  22.3158  22.3722  22.4036  22.5043  22.5431  22.5541

          k = 0.0000 0.2476 0.0000 ( 31078 PWs)   bands (ev):

   -50.8134 -50.8111 -50.7970 -50.7117 -50.6881 -50.6693 -50.6600 -50.6448
   -50.6094 -50.5646 -50.4863 -50.4843 -50.4640 -50.4592 -50.4391 -50.4378
   -50.4092 -50.3308 -50.3257 -50.3125 -50.3105 -50.2977 -50.2956 -50.1477
   -22.9419 -21.1553 -20.7032 -20.6395 -20.6002 -20.1455 -20.0540 -19.9845
   -19.9104 -19.6639 -19.5904 -19.5383 -19.4426 -19.3582 -19.2699 -19.1824
   -19.0630 -18.2128 -18.0717 -17.0707  -9.4110  -9.2835  -9.2111  -8.7790
    -8.4201  -8.3344  -8.2738  -8.2621  -8.1950  -8.1648  -8.0823  -8.0648
    -7.9894  -7.8506  -7.6357  -7.5945  -7.5611  -7.5193  -7.4940  -6.9890
    -6.8367  -6.6147  -6.5820  -6.5673  -6.4338  -6.1694  -6.0301  -5.9877
    -5.9096  -5.7507  -5.7148  -5.5806  -5.4028  -5.3794  -5.2255  -5.0608
    -4.8568  -4.8018  -4.7284  -4.6324  -4.6087  -4.5333  -4.4689  -4.3535
    -4.2793  -4.1847  -3.9143  -3.8677  -3.8369  -3.7148  -3.5545  -3.4966
    -3.4595  -3.3335  -2.9916  -2.9272  -2.8321  -2.5296  -2.5231  -2.2548
    -2.2289  -2.2103  -2.1033  -2.0850  -2.0770  -2.0219  -1.9512  -1.9240
    -1.9036  -1.8598  -1.7639  -1.6125  -1.3055  -1.0804  -0.9897  -0.8218
    -0.4891  -0.4352  -0.2163  -0.0347   0.0978   0.1728   0.2827   0.4395
     1.0992   1.1772   1.4948   1.8593   2.0304   2.5774   2.8690   3.0389
     3.3797   3.5230   3.5682   3.5731   3.6343   3.7002   3.7613   4.0118
     4.2319   4.3788   4.6130   5.1116   5.1590   5.7850   5.9343   6.1838
     6.3343   6.5300   6.8744   6.9375   7.0206   7.3322   7.4262   7.6665
     7.7084   7.8675   7.8682   7.9940   8.2116   8.2956   8.3935   8.4449
     8.6053   8.6367   8.7863   8.8157   8.9199   8.9413   9.0997   9.2258
     9.2461   9.2518   9.2601   9.2633   9.2759   9.2779   9.3372   9.4268
     9.4314   9.4320   9.4866   9.5273   9.5648   9.6223   9.6945   9.7635
     9.8402   9.8786   9.9402  10.0727  10.1837  10.2046  10.2881  10.3991
    10.4693  10.4828  10.5403  10.5825  10.6828  10.7871  10.9179  10.9308
    10.9945  11.1624  11.2240  11.3169  11.4322  11.5117  11.5940  11.6551
    11.7157  11.9642  11.9811  12.2137  12.3073  12.3911  12.4487  12.4906
    12.5341  12.5993  12.7167  12.7851  12.9054  12.9851  13.0245  13.0600
    13.1715  13.2801  13.4386  13.5542  13.6109  13.6631  13.7103  13.7808
    13.7861  13.8890  13.9922  14.0245  14.1347  14.2635  14.2719  14.2873
    14.3473  14.3950  14.5338  14.5976  14.6265  14.7113  14.8371  14.8971
    14.9969  15.0426  15.2046  15.3175  15.4673  15.4929  15.5584  15.7170
    15.7661  15.8046  15.8366  15.9010  15.9975  16.0160  16.1694  16.2493
    16.3388  16.3668  16.4478  16.4980  16.6621  16.6795  16.7800  16.8149
    16.9132  16.9870  17.0383  17.1827  17.2136  17.3303  17.4291  17.4572
    17.4921  17.5441  17.6638  17.7008  17.7191  17.8914  17.9887  18.0715
    18.0981  18.2038  18.2746  18.3316  18.3701  18.6039  18.6381  18.7114
    18.7157  18.8123  18.8902  18.9947  19.0399  19.0784  19.1238  19.1782
    19.2159  19.2610  19.3490  19.3895  19.4294  19.5064  19.5339  19.5501
    19.6282  19.6615  19.6907  19.7277  19.7778  19.8809  19.9077  19.9701
    19.9917  20.0651  20.1126  20.1555  20.1951  20.3140  20.3841  20.4370
    20.5087  20.5856  20.6336  20.7107  20.8000  20.8529  20.9227  20.9452
    21.0002  21.0257  21.0576  21.1256  21.1553  21.2046  21.2264  21.2717
    21.3109  21.4256  21.4675  21.5351  21.5638  21.6723  21.7383  21.8190
    21.8311  21.8805  21.9435  21.9556  22.0831  22.1622  22.1865

          k = 0.0000-0.4953 0.0000 ( 31160 PWs)   bands (ev):

   -50.8167 -50.8108 -50.7938 -50.7121 -50.6881 -50.6694 -50.6600 -50.6448
   -50.6093 -50.5646 -50.4863 -50.4796 -50.4638 -50.4591 -50.4448 -50.4374
   -50.4087 -50.3308 -50.3257 -50.3125 -50.3107 -50.2977 -50.2956 -50.1479
   -22.9414 -21.0675 -20.6385 -20.6217 -20.4806 -20.1228 -20.1160 -20.0576
   -20.0464 -19.6146 -19.6015 -19.5344 -19.5279 -19.4479 -19.2903 -19.1846
   -19.0643 -18.2141 -18.0697 -17.0677  -9.3353  -8.9502  -8.6063  -8.5575
    -8.4911  -8.3531  -8.2550  -8.2459  -8.2006  -8.0875  -7.9945  -7.9030
    -7.8982  -7.7684  -7.6165  -7.5782  -7.5663  -7.5628  -7.4442  -6.8916
    -6.8799  -6.8447  -6.8092  -6.6638  -6.5405  -6.3966  -6.1540  -6.0836
    -6.0560  -5.8266  -5.6500  -5.5195  -5.4784  -5.4477  -5.4079  -5.3288
    -5.2101  -5.1578  -4.9158  -4.7176  -4.5257  -4.4991  -4.4507  -4.3609
    -4.1858  -4.0920  -3.9078  -3.8313  -3.7598  -3.6610  -3.5498  -3.5368
    -3.4926  -3.4354  -2.9259  -2.8602  -2.8417  -2.7652  -2.5221  -2.4910
    -2.4545  -2.4369  -2.1497  -2.0795  -1.9853  -1.9222  -1.9110  -1.8010
    -1.7237  -1.6306  -1.5791  -1.4457  -1.0945  -1.0400  -0.9245  -0.7775
    -0.7301  -0.5326  -0.3336  -0.0445   0.2111   0.2817   0.3484   0.3798
     0.7108   0.7900   1.6146   1.8786   2.5342   2.6242   3.0292   3.2470
     3.2507   3.3097   3.6768   3.7572   3.8446   3.8738   4.1543   4.2377
     4.4245   4.4817   4.9411   5.2001   5.3010   5.5102   5.6078   5.8131
     6.0370   6.2239   6.4340   6.8154   6.9690   7.0519   7.2353   7.3830
     7.7540   7.8005   7.9765   8.0741   8.2485   8.2503   8.4584   8.7457
     8.8331   8.9055   8.9203   8.9467   9.0673   9.0797   9.1209   9.1363
     9.1728   9.2300   9.2437   9.2490   9.2535   9.2627   9.2752   9.2771
     9.3167   9.4187   9.4266   9.4283   9.4315   9.4853   9.5038   9.6377
     9.6523   9.7870   9.8636   9.9346   9.9531  10.0799  10.2318  10.2967
    10.3284  10.4091  10.5583  10.6217  10.6757  10.9674  11.1805  11.2723
    11.3402  11.3840  11.5231  11.5934  11.6486  11.7414  11.7552  11.8593
    11.9313  12.1689  12.3321  12.3866  12.4736  12.5568  12.6075  12.6414
    12.7419  12.8556  12.9067  13.0197  13.0576  13.0665  13.0862  13.1275
    13.2239  13.3486  13.4270  13.4909  13.5053  13.6056  13.6460  13.7257
    13.8239  13.8502  14.1183  14.1570  14.2186  14.2956  14.3294  14.4621
    14.5889  14.6704  14.7407  14.8414  14.8824  15.0065  15.2123  15.3418
    15.3695  15.4670  15.5799  15.6097  15.6547  15.7312  15.7470  15.7911
    15.9053  15.9660  16.1077  16.1294  16.1712  16.1825  16.2537  16.2668
    16.3462  16.3765  16.3959  16.4160  16.4440  16.4869  16.5615  16.6777
    16.7833  16.8685  16.8911  16.9107  16.9222  16.9776  17.0449  17.1411
    17.1654  17.2228  17.3330  17.3786  17.5053  17.6362  17.6926  17.8125
    17.8640  17.8978  17.9407  17.9874  18.0591  18.1051  18.2007  18.2797
    18.2935  18.3258  18.3689  18.4434  18.4972  18.5387  18.6014  18.6685
    18.7384  18.8858  18.9385  18.9715  19.0631  19.1637  19.2360  19.3144
    19.3646  19.4505  19.4923  19.6177  19.6962  19.8223  19.8709  19.9088
    19.9334  19.9597  20.0371  20.0586  20.1205  20.1710  20.2111  20.2806
    20.3431  20.4487  20.4717  20.4971  20.5217  20.5807  20.5992  20.6627
    20.6974  20.7541  20.7718  20.8172  20.8585  20.9367  20.9868  21.0269
    21.1206  21.1795  21.2250  21.2718  21.2999  21.3690  21.4218  21.5021
    21.5546  21.6595  21.7360  21.7888  21.8218  21.9104  21.9382

          k = 0.2500 0.0000 0.0000 ( 31106 PWs)   bands (ev):

   -50.8106 -50.8054 -50.8022 -50.6969 -50.6881 -50.6618 -50.6541 -50.6436
   -50.6235 -50.5797 -50.4862 -50.4858 -50.4677 -50.4632 -50.4372 -50.4346
   -50.3966 -50.3387 -50.3233 -50.3106 -50.3100 -50.3036 -50.2998 -50.1478
   -22.9421 -21.1194 -20.7027 -20.6592 -20.5533 -20.2395 -20.0624 -20.0095
   -19.7647 -19.7053 -19.6165 -19.5292 -19.3478 -19.2960 -19.2605 -19.2098
   -19.0922 -18.2570 -18.1297 -17.0735  -9.6129  -9.6020  -9.1835  -8.6602
    -8.5813  -8.5266  -8.4094  -8.2697  -8.2084  -8.1093  -8.0604  -7.9898
    -7.8660  -7.7312  -7.5510  -7.5346  -7.4236  -7.3171  -7.2711  -7.2313
    -7.0788  -6.8463  -6.6390  -6.6170  -6.5061  -6.1780  -5.9812  -5.7404
    -5.6932  -5.6020  -5.5502  -5.5002  -5.4232  -5.2989  -5.2115  -5.1124
    -5.0285  -5.0211  -4.7703  -4.6792  -4.5760  -4.4573  -4.3641  -4.3252
    -4.2897  -4.1720  -4.1319  -4.0472  -3.9587  -3.8435  -3.7685  -3.5627
    -3.4245  -3.2315  -3.1187  -2.8890  -2.8073  -2.7887  -2.4551  -2.3265
    -2.2625  -2.2312  -2.1764  -2.0952  -1.9776  -1.9171  -1.6803  -1.6140
    -1.5839  -1.3328  -1.3198  -1.2692  -1.1704  -1.0975  -0.8156  -0.6777
    -0.6550  -0.6047  -0.3482  -0.3029  -0.0842   0.1276   0.2132   0.4620
     1.4060   1.8229   2.0109   2.0763   2.1327   2.2102   2.4764   2.5851
     2.7775   3.0328   3.3845   3.4167   3.5202   3.5867   3.7495   3.8433
     4.0373   4.4357   4.6428   5.1626   5.2117   5.7752   5.8014   6.2486
     6.3677   6.5348   6.8410   6.9572   7.2410   7.4376   7.5537   7.7547
     7.8653   7.8993   7.9622   8.0777   8.2586   8.3470   8.3591   8.5764
     8.6297   8.6804   8.7245   8.7338   8.8308   8.9266   9.0677   9.2219
     9.2457   9.2502   9.2554   9.2666   9.2754   9.2774   9.3730   9.4263
     9.4302   9.4318   9.4457   9.5696   9.6234   9.6736   9.7312   9.8187
     9.9034  10.0140  10.0826  10.1564  10.1991  10.2283  10.2919  10.3231
    10.4468  10.5056  10.5592  10.6053  10.6899  10.8024  10.8805  11.0594
    11.0935  11.2397  11.3090  11.3244  11.3572  11.4562  11.4959  11.5821
    11.6844  11.8635  11.9886  12.0928  12.2035  12.2432  12.2881  12.4240
    12.4447  12.4552  12.4952  12.5939  12.7625  12.8650  12.9734  13.0064
    13.1709  13.3058  13.4498  13.6078  13.6683  13.7235  13.7744  13.8173
    13.8592  13.9276  13.9520  14.0341  14.0971  14.1979  14.2231  14.2630
    14.4533  14.4783  14.5712  14.6607  14.6899  14.7350  14.7725  14.8012
    14.9470  15.1014  15.1528  15.3112  15.4297  15.4659  15.4857  15.5408
    15.6255  15.7173  15.8058  15.8685  15.9206  15.9442  16.0318  16.1059
    16.2244  16.2360  16.2746  16.3552  16.4916  16.5385  16.5787  16.6685
    16.7679  16.9062  17.0451  17.1489  17.2398  17.3260  17.3548  17.4064
    17.5982  17.6280  17.6809  17.7385  17.8023  17.8331  18.0307  18.0645
    18.2423  18.2835  18.3893  18.4091  18.6108  18.6588  18.7715  18.8266
    18.8486  18.9346  19.0879  19.1057  19.1523  19.2122  19.2512  19.3009
    19.3185  19.3263  19.3775  19.4468  19.4696  19.5306  19.5787  19.6662
    19.6856  19.7268  19.8201  19.8541  19.9367  19.9570  20.0010  20.0741
    20.0930  20.1614  20.2368  20.3293  20.3785  20.4323  20.4832  20.5257
    20.5355  20.5938  20.6269  20.7357  20.7675  20.8478  20.8678  20.9147
    20.9482  20.9721  21.0954  21.1205  21.1542  21.2345  21.2677  21.3381
    21.3713  21.3965  21.4909  21.5530  21.5851  21.6293  21.7028  21.7560
    21.8338  21.9269  22.0025  22.0176  22.0677  22.1279  22.1952

          k = 0.2500 0.2476 0.0000 ( 31099 PWs)   bands (ev):

   -50.8124 -50.8093 -50.7961 -50.6972 -50.6881 -50.6618 -50.6541 -50.6436
   -50.6236 -50.5796 -50.4861 -50.4821 -50.4669 -50.4631 -50.4392 -50.4373
   -50.3962 -50.3387 -50.3233 -50.3107 -50.3101 -50.3036 -50.2998 -50.1479
   -22.9416 -21.0531 -20.6673 -20.5930 -20.5069 -20.2204 -20.0527 -20.0041
   -19.8287 -19.7484 -19.6430 -19.5116 -19.4995 -19.3995 -19.2667 -19.2026
   -19.0933 -18.2588 -18.1275 -17.0706  -9.2481  -9.1305  -9.0812  -8.7411
    -8.4389  -8.3716  -8.3149  -8.2735  -8.1561  -8.1205  -8.0098  -7.9702
    -7.8901  -7.8146  -7.6614  -7.5307  -7.4737  -7.3145  -7.1943  -7.0481
    -6.9264  -6.8076  -6.6633  -6.6340  -6.5623  -6.2522  -5.9621  -5.8500
    -5.7802  -5.7336  -5.6690  -5.5854  -5.5166  -5.4724  -5.4217  -5.3941
    -5.3195  -5.1256  -4.9916  -4.8498  -4.7927  -4.7373  -4.5542  -4.4627
    -4.2414  -4.1837  -4.0979  -3.9872  -3.8791  -3.8286  -3.6571  -3.5324
    -3.3980  -3.2405  -3.1503  -2.8771  -2.8155  -2.6832  -2.4657  -2.3072
    -2.0472  -2.0059  -1.9312  -1.9107  -1.8241  -1.7823  -1.7253  -1.6730
    -1.5914  -1.5608  -1.5246  -1.2942  -1.2704  -1.0024  -0.7850  -0.6565
    -0.5774  -0.5050  -0.3080  -0.1838  -0.0778   0.0462   0.2028   0.4207
     1.3320   1.4055   1.6031   2.0349   2.1081   2.5552   2.6100   2.9066
     3.0355   3.2116   3.2409   3.5168   3.5496   3.7167   3.7975   4.0705
     4.1906   4.4446   4.8581   5.3452   5.3910   5.9014   5.9545   6.0612
     6.3505   6.4910   6.6123   6.7365   6.8297   7.1005   7.2329   7.3401
     7.5571   7.6633   7.7958   7.9092   8.0150   8.1456   8.2305   8.3409
     8.3484   8.5439   8.6983   8.7921   8.8673   9.0095   9.0485   9.1643
     9.2042   9.2462   9.2514   9.2611   9.2750   9.2769   9.3486   9.4261
     9.4299   9.4322   9.5139   9.5558   9.6058   9.7313   9.8033   9.9013
     9.9896  10.1288  10.2118  10.2578  10.3610  10.3994  10.5038  10.5462
    10.6323  10.7078  10.8134  10.9041  10.9610  11.0209  11.1393  11.1825
    11.2710  11.4267  11.4491  11.5919  11.6229  11.7342  11.8321  11.8950
    11.9618  12.0480  12.1945  12.2574  12.3346  12.4392  12.4931  12.5391
    12.5670  12.6938  12.7771  12.8601  12.9317  13.0194  13.0442  13.1251
    13.1751  13.2886  13.3694  13.4143  13.5301  13.6206  13.6651  13.7626
    13.8677  13.9493  13.9980  14.0452  14.0992  14.2299  14.2935  14.3795
    14.4589  14.5037  14.6299  14.6628  14.8379  14.8786  15.0331  15.0816
    15.1761  15.2392  15.3837  15.4449  15.4844  15.5883  15.6479  15.7198
    15.7323  15.7703  15.8693  15.9279  15.9651  16.0167  16.0770  16.1231
    16.1989  16.2401  16.3298  16.3787  16.4807  16.5178  16.5541  16.6020
    16.6782  16.7569  16.7886  16.8229  16.8683  16.9905  17.1382  17.2077
    17.2366  17.3564  17.4143  17.5073  17.5761  17.5794  17.6664  17.6826
    17.7401  17.7970  17.8672  17.9147  17.9350  18.0029  18.0474  18.0998
    18.2442  18.3464  18.3787  18.4779  18.5951  18.7038  18.7587  18.7660
    18.8582  18.8867  18.9770  18.9886  19.0610  19.1555  19.2058  19.3159
    19.3560  19.3997  19.4941  19.6244  19.6771  19.7741  19.8064  19.8339
    19.9420  19.9959  20.0417  20.1285  20.2052  20.2670  20.4515  20.5016
    20.5516  20.6187  20.7277  20.7726  20.8164  20.8514  20.9318  20.9863
    21.0942  21.1330  21.1675  21.2166  21.2617  21.3042  21.3352  21.4272
    21.5079  21.5309  21.6314  21.6771  21.7085  21.7872  21.8532  21.9143
    21.9311  21.9925  22.0510  22.0984  22.1902  22.2379  22.3800

          k = 0.2500-0.4953 0.0000 ( 31088 PWs)   bands (ev):

   -50.8152 -50.8094 -50.7931 -50.6976 -50.6881 -50.6618 -50.6542 -50.6436
   -50.6236 -50.5796 -50.4861 -50.4785 -50.4649 -50.4629 -50.4436 -50.4384
   -50.3959 -50.3387 -50.3233 -50.3108 -50.3102 -50.3036 -50.2998 -50.1481
   -22.9412 -20.9832 -20.6563 -20.5101 -20.3881 -20.1683 -20.0234 -20.0096
   -19.9837 -19.7908 -19.6981 -19.6550 -19.5000 -19.4832 -19.2649 -19.2010
   -19.0943 -18.2607 -18.1259 -17.0678  -9.1894  -8.7871  -8.4019  -8.3367
    -8.2830  -8.2757  -8.2593  -8.1458  -8.1271  -8.0847  -8.0601  -7.9960
    -7.9621  -7.8088  -7.7037  -7.6119  -7.4975  -7.3227  -7.1171  -6.9702
    -6.9010  -6.7666  -6.6349  -6.5613  -6.5453  -6.5186  -6.4751  -6.2965
    -6.2497  -6.0251  -5.8302  -5.7534  -5.7036  -5.5413  -5.5082  -5.4028
    -5.3066  -5.2276  -5.0293  -4.9780  -4.8576  -4.8006  -4.7198  -4.3911
    -4.2796  -4.2452  -4.0657  -3.9387  -3.7533  -3.6566  -3.4973  -3.4034
    -3.3146  -3.2282  -3.2058  -3.0926  -2.8755  -2.5482  -2.5224  -2.3034
    -2.2110  -2.1015  -1.9910  -1.9119  -1.7731  -1.7703  -1.6663  -1.6127
    -1.5879  -1.2957  -1.2431  -1.1949  -1.0226  -0.9616  -0.8164  -0.6734
    -0.6519  -0.5823  -0.3782  -0.1536  -0.0074   0.1048   0.1131   0.5139
     0.9110   0.9892   1.6694   2.0532   2.4534   2.5596   2.6743   2.7136
     2.8143   3.3175   3.5985   3.6040   3.7318   3.8760   3.9241   4.0668
     4.5987   4.7632   5.2057   5.4299   5.5276   5.7225   5.7544   6.0519
     6.2682   6.2827   6.5033   6.5445   6.9339   6.9878   7.1198   7.2193
     7.2716   7.4034   7.4862   7.6326   7.7553   7.9013   8.0858   8.2044
     8.3275   8.3885   8.4794   8.5502   8.7373   8.8036   8.9242   9.1258
     9.1828   9.2465   9.2514   9.2610   9.2707   9.2760   9.2779   9.4234
     9.4272   9.4315   9.4425   9.6153   9.6466   9.8151   9.9243  10.0285
    10.1661  10.2179  10.2277  10.3433  10.4096  10.4351  10.5680  10.7194
    10.7856  10.8790  11.0111  11.0884  11.1824  11.3319  11.5154  11.6148
    11.6433  11.7018  11.7304  11.9212  11.9513  12.0200  12.1009  12.1504
    12.2015  12.3423  12.3789  12.4750  12.5276  12.7619  12.8064  12.8164
    12.8641  12.8964  12.9944  13.0258  13.1058  13.1795  13.2144  13.2636
    13.3085  13.4014  13.4916  13.5486  13.6559  13.7526  13.7679  13.8183
    13.9276  13.9693  14.0343  14.1810  14.2503  14.2955  14.3692  14.4678
    14.5483  14.5796  14.6461  14.7039  14.7751  14.7884  14.8503  14.9019
    14.9634  15.0263  15.0743  15.1587  15.2231  15.3105  15.3540  15.4343
    15.4644  15.6164  15.6375  15.7846  15.8201  15.8605  15.9140  16.0560
    16.1313  16.2259  16.2934  16.3616  16.4160  16.4829  16.5115  16.5379
    16.6111  16.6470  16.6906  16.7522  16.8314  16.9152  16.9537  16.9983
    17.0678  17.1244  17.1966  17.2169  17.3251  17.4017  17.4230  17.5015
    17.5277  17.7229  17.8151  17.8227  17.8714  17.8974  17.9777  18.0400
    18.1083  18.1712  18.2542  18.3039  18.3690  18.4733  18.5421  18.5869
    18.6653  18.7111  18.7435  18.7855  18.8606  18.9229  18.9798  19.0460
    19.0992  19.1646  19.2434  19.2774  19.3917  19.4238  19.5116  19.5825
    19.6136  19.6726  19.7819  19.8421  19.8848  19.9134  20.0148  20.0259
    20.0875  20.3553  20.3824  20.4813  20.5988  20.6781  20.7689  20.7865
    20.8189  20.9081  20.9430  20.9896  21.0854  21.1804  21.2333  21.2490
    21.2878  21.3961  21.4986  21.5638  21.7502  21.8159  21.9080  21.9335
    21.9601  22.0143  22.0675  22.1425  22.1837  22.2692  22.3279

          k =-0.5000 0.0000 0.0000 ( 31104 PWs)   bands (ev):

   -50.8086 -50.8074 -50.7986 -50.6880 -50.6674 -50.6627 -50.6540 -50.6448
   -50.6166 -50.6142 -50.4859 -50.4821 -50.4729 -50.4671 -50.4362 -50.4346
   -50.3678 -50.3632 -50.3173 -50.3144 -50.3100 -50.3063 -50.3039 -50.1479
   -22.9418 -20.8614 -20.8486 -20.4638 -20.4415 -20.3119 -20.3075 -20.1512
   -19.6127 -19.5978 -19.5296 -19.5286 -19.4412 -19.4381 -19.2566 -19.1851
   -19.1775 -18.2933 -18.1957 -17.0735  -9.1518  -9.1416  -9.1315  -9.1170
    -8.9181  -8.8576  -8.4240  -8.1905  -8.1342  -8.1256  -7.9487  -7.9376
    -7.8548  -7.6908  -7.6721  -7.3424  -7.2577  -7.1589  -6.9295  -6.7659
    -6.7383  -6.5933  -6.5559  -6.4565  -6.4433  -6.3857  -6.3282  -6.2549
    -6.0196  -5.9067  -5.6851  -5.6617  -5.6218  -5.3806  -5.3718  -5.0456
    -5.0050  -4.9903  -4.8732  -4.8457  -4.8407  -4.7508  -4.6005  -4.5641
    -4.4572  -4.3173  -4.2258  -4.0252  -3.9285  -3.9026  -3.7962  -3.4642
    -3.3407  -3.2868  -3.0094  -3.0012  -2.9118  -2.7982  -2.2508  -2.2344
    -2.1244  -2.0906  -2.0853  -2.0612  -1.9266  -1.6337  -1.5310  -1.3676
    -1.2933  -1.2564  -1.1809  -1.1437  -1.0030  -0.9615  -0.7486  -0.6059
    -0.5891  -0.5296  -0.4914  -0.3337  -0.2799   0.0372   0.0964   0.3584
     1.7360   2.0436   2.0501   2.1937   2.4566   2.6404   2.6472   2.6532
     2.6884   2.6940   2.7317   2.7638   3.1599   3.6882   3.6995   3.9671
     4.6398   4.6962   4.7157   5.0481   5.3517   5.3529   5.7509   5.8416
     6.0323   6.2563   6.7208   6.8969   6.9850   7.1544   7.4233   7.5823
     7.8209   7.9520   8.3562   8.4047   8.4803   8.4965   8.5090   8.5603
     8.6545   8.6764   8.9259   8.9400   8.9831   9.0532   9.2417   9.2455
     9.2507   9.2608   9.2747   9.2770   9.3016   9.3023   9.3318   9.3648
     9.4266   9.4291   9.4316   9.4380   9.4829   9.5186   9.6245   9.7502
     9.8628   9.8924   9.9115   9.9995  10.1041  10.1264  10.1948  10.2939
    10.3333  10.3587  10.4997  10.5174  10.7024  10.9340  10.9913  11.0516
    11.2137  11.2427  11.3625  11.5299  11.6539  11.7270  11.8095  11.8989
    12.0573  12.0700  12.3203  12.3537  12.4026  12.5022  12.5476  12.5749
    12.6710  12.7229  12.8128  12.8532  12.9366  13.0277  13.1405  13.2467
    13.2975  13.3099  13.3888  13.4760  13.5020  13.5864  13.6203  13.6350
    13.8378  13.8472  13.9724  14.0771  14.1833  14.3124  14.3257  14.3835
    14.4188  14.5087  14.5165  14.5903  14.7286  14.8469  14.9047  14.9201
    15.0372  15.1527  15.1888  15.2560  15.4348  15.5534  15.5949  15.6229
    15.8156  15.8753  15.9909  16.0623  16.1484  16.2432  16.2688  16.2970
    16.3619  16.4024  16.4323  16.4537  16.5303  16.5627  16.6428  16.6826
    16.6899  16.7195  16.7682  16.8134  16.8256  16.9219  17.0049  17.0610
    17.2032  17.2700  17.3001  17.4158  17.4754  17.5463  17.6294  17.7449
    17.8846  17.9575  18.0346  18.1658  18.2160  18.2412  18.2988  18.5112
    18.5581  18.6582  18.6823  18.7061  18.7211  18.7611  18.9241  18.9475
    19.0844  19.1339  19.1434  19.1581  19.2029  19.3513  19.3645  19.4223
    19.7054  19.7232  19.7901  19.8025  19.8205  19.8301  19.8353  19.8477
    19.9271  20.0417  20.0707  20.1066  20.2194  20.2357  20.2810  20.3208
    20.3539  20.3869  20.4307  20.4441  20.5229  20.5868  20.6415  20.7068
    20.8137  20.9110  20.9884  21.0568  21.1053  21.1237  21.1263  21.1883
    21.2552  21.2681  21.3511  21.3712  21.4179  21.4670  21.5162  21.5291
    21.5915  21.5999  21.7265  21.7750  21.8225  21.9449  22.0741

          k =-0.5000 0.2476 0.0000 ( 31120 PWs)   bands (ev):

   -50.8117 -50.8079 -50.7946 -50.6881 -50.6675 -50.6628 -50.6541 -50.6449
   -50.6166 -50.6143 -50.4860 -50.4798 -50.4699 -50.4670 -50.4387 -50.4373
   -50.3677 -50.3630 -50.3173 -50.3144 -50.3102 -50.3063 -50.3039 -50.1481
   -22.9414 -20.8251 -20.8231 -20.4051 -20.3554 -20.2348 -20.2186 -20.1321
   -19.7364 -19.7095 -19.6110 -19.6091 -19.5166 -19.5072 -19.2372 -19.1838
   -19.1742 -18.2946 -18.1944 -17.0706  -8.9094  -8.8447  -8.7678  -8.7665
    -8.7588  -8.7485  -8.3990  -8.1574  -8.1347  -8.1212  -7.8885  -7.8122
    -7.7912  -7.6051  -7.5941  -7.3655  -7.3109  -7.2199  -7.0652  -6.9333
    -6.9165  -6.8526  -6.8143  -6.5644  -6.5298  -6.4567  -6.3057  -6.2107
    -5.9779  -5.8692  -5.7766  -5.7118  -5.6568  -5.3929  -5.3076  -5.2897
    -5.2630  -5.2329  -5.2204  -5.1138  -5.0612  -4.9118  -4.8638  -4.5240
    -4.4258  -4.2523  -4.2098  -4.0893  -4.0168  -3.8083  -3.7187  -3.4765
    -3.2232  -3.1671  -3.1128  -3.0247  -2.9460  -2.8678  -2.2050  -2.1447
    -2.0043  -1.8765  -1.7576  -1.6903  -1.6566  -1.6500  -1.5491  -1.4847
    -1.4424  -1.3326  -1.2134  -0.9566  -0.9388  -0.9247  -0.7363  -0.6127
    -0.5365  -0.4836  -0.4771  -0.3569  -0.3327  -0.0830  -0.0439   0.4938
     1.7574   1.9529   1.9932   2.0097   2.0818   2.1490   2.4351   2.5316
     2.6965   2.9712   3.1055   3.2884   3.3046   3.7165   3.7767   4.0755
     4.7528   4.9312   4.9411   5.2228   5.5529   5.5735   5.9280   6.0381
     6.2383   6.4615   6.6564   6.7095   6.8741   6.9350   7.1145   7.2640
     7.2700   7.4423   7.4568   7.5133   7.8520   7.9626   8.0755   8.3111
     8.3284   8.5105   8.5337   8.6446   8.8105   8.8736   9.0146   9.1276
     9.2459   9.2514   9.2609   9.2752   9.2771   9.3273   9.4263   9.4301
     9.4314   9.4611   9.5781   9.6729   9.8760   9.9183   9.9550  10.0650
    10.0893  10.2134  10.2241  10.2565  10.4345  10.4614  10.6073  10.7800
    10.7912  10.8836  10.9347  11.0518  11.0834  11.1013  11.3543  11.4377
    11.5021  11.5110  11.7708  11.8049  11.9261  11.9588  11.9928  12.1302
    12.3182  12.3418  12.4087  12.4812  12.5579  12.5829  12.6329  12.7624
    12.8472  12.8973  12.9896  13.0709  13.1817  13.2296  13.3402  13.3682
    13.4408  13.4616  13.5351  13.6400  13.7411  13.7632  13.7732  13.8073
    13.9768  14.0573  14.1563  14.2071  14.2712  14.3474  14.3679  14.4345
    14.4760  14.5013  14.5519  14.5743  14.6772  14.7167  14.7358  14.7778
    14.8554  14.8944  14.9677  15.0154  15.0696  15.1168  15.1830  15.2447
    15.3699  15.5041  15.5494  15.5767  15.6732  15.7222  15.8096  15.8927
    15.9772  16.1084  16.2156  16.2740  16.3350  16.4111  16.4553  16.4848
    16.6671  16.6750  16.6893  16.7384  16.7636  16.8017  16.9215  16.9804
    17.1104  17.2089  17.2496  17.2714  17.3971  17.4448  17.5029  17.5911
    17.6464  17.6688  17.8385  17.8974  17.9445  17.9772  18.1092  18.1423
    18.1730  18.2215  18.2568  18.3576  18.4524  18.5315  18.5842  18.6248
    18.6621  18.7323  18.7901  18.8177  18.8474  18.9743  19.0768  19.1842
    19.2720  19.3541  19.4130  19.4827  19.5048  19.6075  19.6727  19.7066
    19.7747  19.7968  19.8831  19.9145  20.0039  20.0372  20.1340  20.1452
    20.3171  20.3534  20.4482  20.5016  20.5551  20.6185  20.7426  20.8572
    20.9151  20.9830  21.0401  21.0803  21.1342  21.2297  21.2758  21.4384
    21.5568  21.5968  21.6482  21.7011  21.7518  21.8457  21.8905  21.9593
    21.9870  22.0460  22.1648  22.2152  22.2538  22.2761  22.3196

          k =-0.5000-0.4953 0.0000 ( 31140 PWs)   bands (ev):

   -50.8142 -50.8079 -50.7920 -50.6881 -50.6676 -50.6630 -50.6542 -50.6449
   -50.6166 -50.6143 -50.4860 -50.4772 -50.4668 -50.4665 -50.4412 -50.4407
   -50.3676 -50.3629 -50.3173 -50.3144 -50.3104 -50.3063 -50.3039 -50.1482
   -22.9410 -20.8000 -20.7898 -20.3187 -20.1914 -20.1891 -20.0578 -19.9578
   -19.8947 -19.8869 -19.8671 -19.8208 -19.5307 -19.5147 -19.2201 -19.1901
   -19.1731 -18.2960 -18.1932 -17.0677  -8.8947  -8.8244  -8.3857  -8.1819
    -8.1610  -8.1423  -8.1389  -8.0874  -8.0414  -8.0342  -7.8205  -7.7139
    -7.6897  -7.6765  -7.6510  -7.5041  -7.4506  -7.3792  -7.3598  -7.3395
    -7.2701  -7.0804  -6.9227  -6.5574  -6.4929  -6.4323  -6.2038  -6.1356
    -6.0164  -6.0112  -5.9699  -5.9599  -5.8891  -5.8008  -5.6844  -5.6259
    -5.6020  -5.5070  -5.3360  -5.2002  -5.1069  -4.9556  -4.8331  -4.4495
    -4.3476  -4.1783  -4.0948  -3.9303  -3.8926  -3.6704  -3.5403  -3.5061
    -3.4557  -3.3085  -3.0153  -2.9890  -2.7313  -2.7097  -2.2162  -2.1892
    -2.0668  -1.9454  -1.8919  -1.7502  -1.6360  -1.4106  -1.3829  -1.3625
    -1.3032  -1.2966  -1.1268  -0.8381  -0.8063  -0.7863  -0.6913  -0.6232
    -0.6123  -0.4692  -0.4193  -0.2949  -0.2548  -0.2400  -0.1752   0.5888
     1.5465   1.5651   1.6110   1.6893   1.8860   2.1490   2.5717   2.6020
     2.7632   3.2385   3.2572   3.4301   3.5162   3.8809   3.9014   3.9710
     4.9089   5.3889   5.4039   5.5339   5.8981   5.9013   6.1007   6.1156
     6.1511   6.2565   6.4186   6.4553   6.5016   6.7352   6.8301   6.9690
     7.0111   7.1568   7.2524   7.4237   7.5499   7.7594   7.7867   7.9795
     7.9887   8.0043   8.1878   8.3946   8.6907   8.9659   8.9915   9.1233
     9.1845   9.2301   9.2461   9.2541   9.2618   9.2752   9.2773   9.4233
     9.4275   9.4313   9.4323   9.4919   9.7189   9.7421   9.9545  10.2638
    10.2973  10.3200  10.4962  10.5794  10.6267  10.6865  10.7701  10.8956
    11.0970  11.1405  11.2392  11.2852  11.5587  11.5831  11.7430  11.9452
    12.0555  12.3292  12.4224  12.4803  12.5136  12.6053  12.7357  12.7393
    12.7534  12.8313  12.8590  12.8966  13.0715  13.0976  13.1943  13.2217
    13.2707  13.3077  13.3977  13.4653  13.4683  13.4935  13.5234  13.5453
    13.5624  13.5720  13.6660  13.6865  13.7277  13.7557  13.7786  13.8428
    13.8526  13.9094  13.9361  13.9471  13.9719  14.0271  14.0383  14.1695
    14.2100  14.2450  14.2592  14.2782  14.3793  14.4851  14.5460  14.5592
    14.6011  14.6069  14.7227  14.7856  14.8472  14.9927  15.1245  15.1472
    15.2302  15.2823  15.3209  15.3503  15.4041  15.4174  15.4348  15.4892
    15.5057  15.6122  15.7443  15.7677  15.8377  15.9231  15.9747  16.0763
    16.1395  16.2137  16.2273  16.3150  16.5398  16.5531  16.6128  16.6497
    16.7104  16.7788  16.9015  16.9489  16.9935  17.0146  17.1047  17.1377
    17.2263  17.3666  17.4774  17.4930  17.6563  17.7189  17.8594  17.9219
    18.0792  18.1520  18.3060  18.3295  18.3777  18.5275  18.5643  18.6405
    18.6879  18.8001  18.8386  18.9699  19.0040  19.1133  19.2675  19.3124
    19.3755  19.4170  19.4433  19.5588  19.6524  19.8686  19.9117  20.0072
    20.1370  20.2275  20.2340  20.3244  20.3432  20.3974  20.4194  20.5109
    20.6536  20.7138  20.7677  20.8362  20.9121  20.9491  20.9722  21.0422
    21.0443  21.1053  21.1424  21.1634  21.2207  21.2448  21.2538  21.3256
    21.4703  21.4931  21.5136  21.5634  21.6227  21.6335  21.6964  21.7412
    21.7626  21.7920  21.8482  21.9181  21.9580  21.9760  22.1078

          k =-0.2500 0.2476 0.0000 ( 31099 PWs)   bands (ev):

   -50.8125 -50.8093 -50.7961 -50.6973 -50.6881 -50.6618 -50.6541 -50.6436
   -50.6234 -50.5797 -50.4861 -50.4829 -50.4662 -50.4631 -50.4386 -50.4378
   -50.3963 -50.3387 -50.3233 -50.3107 -50.3101 -50.3036 -50.2998 -50.1479
   -22.9416 -21.0533 -20.6671 -20.5929 -20.5066 -20.2203 -20.0523 -20.0042
   -19.8283 -19.7514 -19.6427 -19.5099 -19.4992 -19.3989 -19.2685 -19.2018
   -19.0930 -18.2588 -18.1275 -17.0706  -9.2449  -9.1307  -9.0824  -8.7430
    -8.4387  -8.3733  -8.3254  -8.2730  -8.1540  -8.1068  -8.0174  -7.9661
    -7.8932  -7.8108  -7.6620  -7.5367  -7.4742  -7.3282  -7.1940  -7.0472
    -6.9319  -6.8212  -6.6672  -6.5653  -6.5268  -6.2527  -5.9876  -5.9070
    -5.7625  -5.7351  -5.6759  -5.6029  -5.5401  -5.4705  -5.4345  -5.4046
    -5.2548  -5.1226  -4.9903  -4.8612  -4.7831  -4.7145  -4.5558  -4.4516
    -4.2632  -4.1881  -4.1332  -3.9809  -3.8787  -3.7778  -3.6638  -3.5777
    -3.4072  -3.2178  -3.1501  -2.8737  -2.8234  -2.6175  -2.4581  -2.3064
    -2.0684  -2.0355  -1.9576  -1.9179  -1.8123  -1.7900  -1.7012  -1.6751
    -1.6333  -1.5666  -1.5137  -1.2912  -1.2064  -1.0224  -0.7859  -0.6603
    -0.5612  -0.5240  -0.3193  -0.1812  -0.0641   0.0440   0.2009   0.4202
     1.3302   1.4056   1.6029   2.0345   2.1102   2.5555   2.6101   2.9102
     3.0271   3.2147   3.2451   3.5154   3.5534   3.7132   3.7940   4.0704
     4.1895   4.4454   4.8580   5.3474   5.3906   5.9104   5.9754   6.0758
     6.3508   6.4849   6.6149   6.7383   6.8274   7.0738   7.2314   7.3173
     7.5342   7.6569   7.7914   7.9021   8.0147   8.1325   8.2576   8.3416
     8.3663   8.5377   8.7021   8.7750   8.8653   9.0078   9.0773   9.1661
     9.1900   9.2460   9.2513   9.2611   9.2748   9.2769   9.3335   9.4262
     9.4297   9.4322   9.5178   9.5617   9.6334   9.7438   9.8180   9.9205
     9.9894  10.1313  10.2029  10.2493  10.3476  10.3996  10.5044  10.5400
    10.6241  10.7098  10.8091  10.8595  10.9572  11.0180  11.1413  11.1843
    11.3172  11.3977  11.4478  11.5919  11.6372  11.7617  11.8020  11.9113
    11.9798  12.0553  12.2020  12.2563  12.3418  12.4418  12.4840  12.5376
    12.5819  12.6965  12.7773  12.8544  12.9304  13.0146  13.0529  13.1193
    13.1953  13.3081  13.3576  13.4295  13.5260  13.6501  13.6697  13.7690
    13.8750  13.9406  14.0260  14.0571  14.0973  14.1630  14.2775  14.3818
    14.4630  14.5058  14.6244  14.6940  14.8323  14.8758  14.9964  15.0648
    15.1233  15.2322  15.3768  15.4432  15.4735  15.6090  15.6601  15.6838
    15.7341  15.7615  15.8642  15.8735  15.9546  16.0073  16.0744  16.0979
    16.2209  16.2522  16.3482  16.3785  16.4588  16.5071  16.5439  16.5778
    16.6932  16.7495  16.7822  16.8185  16.8739  16.9591  17.1477  17.2378
    17.2923  17.3497  17.4072  17.5087  17.5554  17.5869  17.6166  17.6811
    17.7486  17.8224  17.8731  17.9043  17.9214  18.0197  18.0605  18.1427
    18.2434  18.3398  18.3743  18.5108  18.6082  18.7098  18.7366  18.7877
    18.8410  18.8700  18.9990  19.0306  19.0746  19.1629  19.2309  19.3418
    19.3759  19.3964  19.5332  19.6168  19.6743  19.7548  19.7828  19.8391
    19.9098  19.9827  20.1228  20.1311  20.2280  20.3077  20.4458  20.5102
    20.5433  20.6198  20.7126  20.7585  20.7995  20.8513  20.9024  21.0336
    21.0809  21.1410  21.1622  21.2406  21.2691  21.2947  21.3428  21.4118
    21.4967  21.5340  21.6152  21.6714  21.7523  21.7849  21.8422  21.8896
    21.9651  21.9809  22.0575  22.1179  22.1841  22.2637  22.3757

     the Fermi energy is    -0.3777 ev

!    total energy              =   -2139.47543599 Ry
     Harris-Foulkes estimate   =   -2139.47543626 Ry
     estimated scf accuracy    <       0.00000028 Ry

     The total energy is the sum of the following terms:

     one-electron contribution =  -23085.70737066 Ry
     hartree contribution      =   11591.85658451 Ry
     xc contribution           =    -584.09710210 Ry
     ewald contribution        =    9938.47202558 Ry
     Hubbard energy            =       0.00000000 Ry
     smearing contrib. (-TS)   =       0.00042668 Ry

     convergence has been achieved in  30 iterations

     Forces acting on atoms (Ry/au):


     negative rho (up, down):  0.313E+01 0.000E+00
     atom    1 type  1   force =    -0.00736166   -0.01396661   -0.00000679
     atom    2 type  1   force =     0.00018165    0.00689480    0.00052753
     atom    3 type  2   force =     0.03022352    0.00380750   -0.00005446
     atom    4 type  2   force =     0.00909032    0.00787077    0.00023796
     atom    5 type  1   force =    -0.00246583   -0.02094847   -0.00012612
     atom    6 type  1   force =     0.00249933    0.01961617    0.00012389
     atom    7 type  1   force =    -0.00025581   -0.00300137    0.00012287
     atom    8 type  1   force =    -0.00305145    0.00022359    0.00041789
     atom    9 type  2   force =     0.00700469    0.00186669    0.00008543
     atom   10 type  2   force =    -0.00010792   -0.00126399    0.00014202
     atom   11 type  1   force =    -0.00733084    0.01144503   -0.00035883
     atom   12 type  1   force =    -0.00159323   -0.00599313    0.00018085
     atom   13 type  1   force =    -0.00094746   -0.00297331   -0.00002173
     atom   14 type  1   force =    -0.00728495   -0.01418775   -0.00025994
     atom   15 type  1   force =     0.00013222    0.00713689    0.00017695
     atom   16 type  2   force =    -0.03031229    0.00369455   -0.00017966
     atom   17 type  2   force =     0.00915905    0.00849360   -0.00025028
     atom   18 type  1   force =    -0.00113820   -0.02131259   -0.00007222
     atom   19 type  1   force =     0.00346166    0.01930107    0.00014782
     atom   20 type  1   force =    -0.00025582   -0.00601752   -0.00096856
     atom   21 type  1   force =    -0.00327943    0.00120893    0.00031413
     atom   22 type  2   force =    -0.00451275    0.00164371    0.00027753
     atom   23 type  2   force =    -0.00015354    0.00216772   -0.00055787
     atom   24 type  1   force =     0.00724611    0.01144523   -0.00037797
     atom   25 type  1   force =     0.00208467   -0.00610691    0.00016143
     atom   26 type  1   force =    -0.00104419   -0.01042602    0.00022875
     atom   27 type  3   force =    -0.00000642   -0.00048926    0.00011515
     atom   28 type  3   force =    -0.00000345   -0.00037563    0.00011897
     atom   29 type  3   force =    -0.00015547   -0.00008393   -0.00018567
     atom   30 type  3   force =     0.00017116    0.00008031   -0.00013742
     atom   31 type  1   force =    -0.00014640   -0.00012876    0.00093264
     atom   32 type  1   force =     0.00014872    0.00030122   -0.00006648
     atom   33 type  3   force =     0.00000401    0.00007744   -0.00068784

     Total force =     0.002156     Total SCF correction =     0.001054
     SCF correction compared to forces is large: reduce conv_thr to get better values


     entering subroutine stress ...


     negative rho (up, down):  0.313E+01 0.000E+00
          total   stress  (Ry/bohr**3)                   (kbar)     P=  -12.45
  -0.00009311   0.00000457   0.00000387        -13.70      0.67      0.57
   0.00000457  -0.00011372   0.00000537          0.67    -16.73      0.79
   0.00000387   0.00000537  -0.00004715          0.57      0.79     -6.94


     BFGS Geometry Optimization

     bfgs converged in   1 scf cycles and   0 bfgs steps
     (criteria: energy < 0.10E-03, force < 0.10E-02)

     End of BFGS Geometry Optimization

     Final energy   =   -2139.4754359916 Ry
Begin final coordinates

ATOMIC_POSITIONS (crystal)
O0       0.000000000   0.000000000   0.377810000    0   0   1
O0       0.000000000   0.500000000   0.402070000    0   0   1
Ir1      0.250000000   0.500000000   0.452700000    0   0   1
Ir1      0.000000000   0.000000000   0.452740000    0   0   1
O0       0.250000000   0.810000000   0.452600000    0   0   1
O0       0.250000000   0.190000000   0.452260000    0   0   1
O0       0.000000000   0.500000000   0.498190000    0   0   1
O0       0.000000000   0.000000000   0.528350000    0   0   1
Ir1      0.250000000   0.000000000   0.575350000    0   0   1
Ir1      0.000000000   0.500000000   0.571540000    0   0   1
O0       0.250000000   0.690000000   0.574280000    0   0   1
O0       0.250000000   0.310000000   0.576520000    0   0   1
O0       0.000000000   0.000000000   0.619960000    0   0   1
O0       0.500000000   0.000000000   0.377810000    0   0   1
O0       0.500000000   0.500000000   0.402110000    0   0   1
Ir1      0.750000000   0.500000000   0.452700000    0   0   1
Ir1      0.500000000   0.000000000   0.452690000    0   0   1
O0       0.750000000   0.810000000   0.452590000    0   0   1
O0       0.750000000   0.190000000   0.452280000    0   0   1
O0       0.500000000   0.500000000   0.499730000    0   0   1
O0       0.500000000   0.000000000   0.528270000    0   0   1
Ir1      0.750000000   0.000000000   0.575340000    0   0   1
Ir1      0.500000000   0.500000000   0.577700000    0   0   1
O0       0.750000000   0.690000000   0.574280000    0   0   1
O0       0.750000000   0.310000000   0.576520000    0   0   1
O0       0.500000000   0.000000000   0.619340000    0   0   1
H2       0.000040000   0.635980000   0.384130000
H2       0.499940000   0.636440000   0.384320000
H2       0.143210000   0.035670000   0.366320000
H2       0.643670000   0.033650000   0.366280000
O0       0.499790000   0.538110000   0.649800000
O0       0.500180000   0.344800000   0.679420000
H2       0.499980000   0.407570000   0.713570000
End final coordinates



     init_run     :    115.36s CPU    116.71s WALL (       1 calls)
     electrons    :   6332.31s CPU   6537.13s WALL (       1 calls)
     forces       :    143.97s CPU    146.85s WALL (       1 calls)
     stress       :    776.16s CPU    794.66s WALL (       1 calls)

     Called by init_run:
     wfcinit      :     39.02s CPU     39.75s WALL (       1 calls)
     potinit      :      7.56s CPU      7.78s WALL (       1 calls)

     Called by electrons:
     c_bands      :   3413.13s CPU   3533.43s WALL (      30 calls)
     sum_band     :   1175.03s CPU   1215.16s WALL (      30 calls)
     v_of_rho     :     33.66s CPU     35.36s WALL (      31 calls)
     newd         :   1734.35s CPU   1750.26s WALL (      31 calls)
     mix_rho      :      6.57s CPU      6.71s WALL (      30 calls)

     Called by c_bands:
     init_us_2    :      7.46s CPU      7.52s WALL (     222 calls)
     cegterg      :   3341.95s CPU   3422.01s WALL (      90 calls)

     Called by *egterg:
     h_psi        :   1806.81s CPU   1852.77s WALL (     348 calls)
     s_psi        :    221.52s CPU    224.51s WALL (     381 calls)
     g_psi        :      4.05s CPU      4.05s WALL (     255 calls)
     cdiaghg      :    432.94s CPU    433.71s WALL (     345 calls)

     Called by h_psi:
     add_vuspsi   :    192.72s CPU    195.77s WALL (     348 calls)
     vhpsi        :    176.04s CPU    178.06s WALL (     348 calls)

     General routines
     calbec       :    490.65s CPU    496.88s WALL (    1863 calls)
     fft          :     45.33s CPU     55.13s WALL (     517 calls)
     ffts         :      0.57s CPU      0.58s WALL (      61 calls)
     fftw         :   1039.55s CPU   1093.41s WALL (  180872 calls)
     interpolate  :      5.31s CPU      5.36s WALL (      61 calls)
     davcio       :      0.03s CPU      3.98s WALL (     249 calls)

     Parallel routines
     fft_scatter  :    389.14s CPU    451.29s WALL (  181450 calls)
     Hubbard U routines
     new_ns       :     39.25s CPU     41.28s WALL (      30 calls)
     vhpsi        :    176.04s CPU    178.06s WALL (     348 calls)
     force_hub    :     41.27s CPU     43.36s WALL (       1 calls)
     stres_hub    :    403.49s CPU    413.54s WALL (       1 calls)

     PWSCF        :     2h 2m CPU        2h 6m WALL


   This run was terminated on:   7:16:55  28May2014            

=------------------------------------------------------------------------------=
   JOB DONE.
=------------------------------------------------------------------------------=
