
     Program PWSCF v.5.0.2 (svn rev. 9656) starts on 31Jan2014 at 16: 5:23 

     This program is part of the open-source Quantum ESPRESSO suite
     for quantum simulation of materials; please cite
         "P. Giannozzi et al., J. Phys.:Condens. Matter 21 395502 (2009);
          URL http://www.quantum-espresso.org", 
     in publications or presentations arising from this work. More details at
     http://www.quantum-espresso.org/quote.php

     Parallel version (MPI), running on     1 processors

     Current dimensions of program PWSCF are:
     Max number of different atomic species (ntypx) = 10
     Max number of k-points (npk) =  40000
     Max angular momentum in pseudopotentials (lmaxx) =  3
     Waiting for input...
     Reading input from standard input

     Subspace diagonalization in iterative solution of the eigenvalue problem:
     a serial algorithm will be used


     G-vector sticks info
     --------------------
     sticks:   dense  smooth     PW     G-vecs:    dense   smooth      PW
     Sum        3133     997    293                85133    15363    2521



     bravais-lattice index     =            0
     lattice parameter (alat)  =       8.8753  a.u.
     unit-cell volume          =     450.5458 (a.u.)^3
     number of atoms/cell      =            6
     number of atomic types    =            2
     number of electrons       =        52.00
     number of Kohn-Sham states=           78
     kinetic-energy cutoff     =      40.0000  Ry
     charge density cutoff     =     500.0000  Ry
     convergence threshold     =      1.0E-06
     mixing beta               =       0.3000
     number of iterations used =            8  plain     mixing
     Exchange-correlation      = SLA  PW   PBE  PBE ( 1 4 3 4 0)
     EXX-fraction              =        0.00
     nstep                     =           50


     celldm(1)=   8.875330  celldm(2)=   0.000000  celldm(3)=   0.000000
     celldm(4)=   0.000000  celldm(5)=   0.000000  celldm(6)=   0.000000

     crystal axes: (cart. coord. in units of alat)
               a(1) = (   1.000000   0.000000   0.000000 )  
               a(2) = (   0.000000   1.000000   0.000000 )  
               a(3) = (   0.000000   0.000000   0.644444 )  

     reciprocal axes: (cart. coord. in units 2 pi/alat)
               b(1) = (  1.000000  0.000000  0.000000 )  
               b(2) = (  0.000000  1.000000  0.000000 )  
               b(3) = (  0.000000  0.000000  1.551724 )  


     PseudoPot. # 1 for Mo read from file:
     /home/camp/zhonxu/pseudo/mo_pbe_v1.uspp.F.UPF
     MD5 check sum: 30c4dcd161f5d35cd49bb5239c51a633
     Pseudo is Ultrasoft + core correction, Zval = 14.0
     Generated by new atomic code, or converted to UPF format
     Using radial grid of  889 points,  6 beta functions with: 
                l(1) =   0
                l(2) =   0
                l(3) =   1
                l(4) =   1
                l(5) =   2
                l(6) =   2
     Q(r) pseudized with  6 coefficients,  rinner =    1.000   1.000   1.000
                                                       1.000   1.000

     PseudoPot. # 2 for O  read from file:
     /home/camp/zhonxu/pseudo/o_pbe_v1.01.uspp.F.UPF
     MD5 check sum: 2bcb18d16ea4b960afae9ec6d52f22d2
     Pseudo is Ultrasoft + core correction, Zval =  6.0
     Generated by new atomic code, or converted to UPF format
     Using radial grid of  737 points,  5 beta functions with: 
                l(1) =   0
                l(2) =   0
                l(3) =   1
                l(4) =   1
                l(5) =   2
     Q(r) pseudized with  8 coefficients,  rinner =    0.900   0.900   0.900
                                                       0.900   0.900

     atomic species   valence    mass     pseudopotential
        Mo0           14.00    95.94000     Mo( 1.00)
        O1             6.00    15.99940     O ( 1.00)

     Starting magnetic structure 
     atomic species   magnetization
        Mo0          0.000
        O1           0.000

      8 Sym. Ops., with inversion, found
          (note:  8 additional sym.ops. were found but ignored
           their fractional translations are incommensurate with FFT grid)


   Cartesian axes

     site n.     atom                  positions (alat units)
         1           Mo0 tau(   1) = (   0.0000000   0.0000000   0.0000000  )
         2           Mo0 tau(   2) = (   0.5000000   0.5000000   0.3222222  )
         3           O1  tau(   3) = (   0.3050000   0.3050000   0.0000000  )
         4           O1  tau(   4) = (  -0.3050000  -0.3050000   0.0000000  )
         5           O1  tau(   5) = (   0.8050000   0.1950000   0.3222222  )
         6           O1  tau(   6) = (   0.1950000   0.8050000   0.3222222  )

     number of k points=    54  Methfessel-Paxton smearing, width (Ry)=  0.0100
                       cart. coord. in units 2pi/alat
        k(    1) = (   0.0000000   0.0000000   0.0000000), wk =   0.0080000
        k(    2) = (   0.0000000   0.0000000   0.3103448), wk =   0.0160000
        k(    3) = (   0.0000000   0.0000000   0.6206897), wk =   0.0160000
        k(    4) = (   0.0000000   0.2000000   0.0000000), wk =   0.0320000
        k(    5) = (   0.0000000   0.2000000   0.3103448), wk =   0.0640000
        k(    6) = (   0.0000000   0.2000000   0.6206897), wk =   0.0640000
        k(    7) = (   0.0000000   0.4000000   0.0000000), wk =   0.0320000
        k(    8) = (   0.0000000   0.4000000   0.3103448), wk =   0.0640000
        k(    9) = (   0.0000000   0.4000000   0.6206897), wk =   0.0640000
        k(   10) = (   0.2000000   0.2000000   0.0000000), wk =   0.0160000
        k(   11) = (   0.2000000   0.2000000   0.3103448), wk =   0.0320000
        k(   12) = (   0.2000000   0.2000000   0.6206897), wk =   0.0320000
        k(   13) = (   0.2000000   0.4000000   0.0000000), wk =   0.0320000
        k(   14) = (   0.2000000   0.4000000   0.3103448), wk =   0.0640000
        k(   15) = (   0.2000000   0.4000000   0.6206897), wk =   0.0640000
        k(   16) = (   0.4000000   0.4000000   0.0000000), wk =   0.0160000
        k(   17) = (   0.4000000   0.4000000   0.3103448), wk =   0.0320000
        k(   18) = (   0.4000000   0.4000000   0.6206897), wk =   0.0320000
        k(   19) = (  -0.2000000   0.2000000   0.0000000), wk =   0.0160000
        k(   20) = (  -0.2000000   0.2000000  -0.3103448), wk =   0.0320000
        k(   21) = (  -0.2000000   0.2000000  -0.6206897), wk =   0.0320000
        k(   22) = (  -0.2000000   0.4000000   0.0000000), wk =   0.0320000
        k(   23) = (  -0.2000000   0.4000000  -0.3103448), wk =   0.0640000
        k(   24) = (  -0.2000000   0.4000000  -0.6206897), wk =   0.0640000
        k(   25) = (  -0.4000000   0.4000000   0.0000000), wk =   0.0160000
        k(   26) = (  -0.4000000   0.4000000  -0.3103448), wk =   0.0320000
        k(   27) = (  -0.4000000   0.4000000  -0.6206897), wk =   0.0320000
        k(   28) = (   0.0000000   0.0000000   0.0000000), wk =   0.0080000
        k(   29) = (   0.0000000   0.0000000   0.3103448), wk =   0.0160000
        k(   30) = (   0.0000000   0.0000000   0.6206897), wk =   0.0160000
        k(   31) = (   0.0000000   0.2000000   0.0000000), wk =   0.0320000
        k(   32) = (   0.0000000   0.2000000   0.3103448), wk =   0.0640000
        k(   33) = (   0.0000000   0.2000000   0.6206897), wk =   0.0640000
        k(   34) = (   0.0000000   0.4000000   0.0000000), wk =   0.0320000
        k(   35) = (   0.0000000   0.4000000   0.3103448), wk =   0.0640000
        k(   36) = (   0.0000000   0.4000000   0.6206897), wk =   0.0640000
        k(   37) = (   0.2000000   0.2000000   0.0000000), wk =   0.0160000
        k(   38) = (   0.2000000   0.2000000   0.3103448), wk =   0.0320000
        k(   39) = (   0.2000000   0.2000000   0.6206897), wk =   0.0320000
        k(   40) = (   0.2000000   0.4000000   0.0000000), wk =   0.0320000
        k(   41) = (   0.2000000   0.4000000   0.3103448), wk =   0.0640000
        k(   42) = (   0.2000000   0.4000000   0.6206897), wk =   0.0640000
        k(   43) = (   0.4000000   0.4000000   0.0000000), wk =   0.0160000
        k(   44) = (   0.4000000   0.4000000   0.3103448), wk =   0.0320000
        k(   45) = (   0.4000000   0.4000000   0.6206897), wk =   0.0320000
        k(   46) = (  -0.2000000   0.2000000   0.0000000), wk =   0.0160000
        k(   47) = (  -0.2000000   0.2000000  -0.3103448), wk =   0.0320000
        k(   48) = (  -0.2000000   0.2000000  -0.6206897), wk =   0.0320000
        k(   49) = (  -0.2000000   0.4000000   0.0000000), wk =   0.0320000
        k(   50) = (  -0.2000000   0.4000000  -0.3103448), wk =   0.0640000
        k(   51) = (  -0.2000000   0.4000000  -0.6206897), wk =   0.0640000
        k(   52) = (  -0.4000000   0.4000000   0.0000000), wk =   0.0160000
        k(   53) = (  -0.4000000   0.4000000  -0.3103448), wk =   0.0320000
        k(   54) = (  -0.4000000   0.4000000  -0.6206897), wk =   0.0320000

     Dense  grid:    85133 G-vectors     FFT dimensions: (  64,  64,  45)

     Smooth grid:    15363 G-vectors     FFT dimensions: (  36,  36,  24)

     Largest allocated arrays     est. size (Mb)     dimensions
        Kohn-Sham Wavefunctions         2.31 Mb     (   1939,   78)
        NL pseudopotentials             2.60 Mb     (   1939,   88)
        Each V/rho on FFT grid          5.63 Mb     ( 184320,   2)
        Each G-vector array             0.65 Mb     (  85133)
        G-vector shells                 0.65 Mb     (  85133)
     Largest temporary arrays     est. size (Mb)     dimensions
        Auxiliary wavefunctions         9.23 Mb     (   1939,  312)
        Each subspace H/S matrix        1.49 Mb     ( 312, 312)
        Each <psi_i|beta_j> matrix      0.10 Mb     (     88,   78)
        Arrays for rho mixing          22.50 Mb     ( 184320,   8)

     Check: negative/imaginary core charge=   -0.000007    0.000000

     Initial potential from superposition of free atoms

     starting charge   51.99787, renormalised to   52.00000
     Starting wfc are   42 randomized atomic wfcs

     total cpu time spent up to now is       45.0 secs

     per-process dynamical memory:   200.8 Mb

     Self-consistent Calculation

     iteration #  1     ecut=    40.00 Ry     beta=0.30
     Davidson diagonalization with overlap
     ethr =  1.00E-02,  avg # of iterations =  5.4

     total cpu time spent up to now is      213.5 secs

     total energy              =    -407.42219588 Ry
     Harris-Foulkes estimate   =    -408.13975877 Ry
     estimated scf accuracy    <       1.65086438 Ry

     total magnetization       =     0.00 Bohr mag/cell
     absolute magnetization    =     0.00 Bohr mag/cell

     iteration #  2     ecut=    40.00 Ry     beta=0.30
     Davidson diagonalization with overlap
     ethr =  3.17E-03,  avg # of iterations =  1.0

     total cpu time spent up to now is      293.8 secs

     total energy              =    -407.74747083 Ry
     Harris-Foulkes estimate   =    -407.77072176 Ry
     estimated scf accuracy    <       0.08759421 Ry

     total magnetization       =    -0.00 Bohr mag/cell
     absolute magnetization    =     0.00 Bohr mag/cell

     iteration #  3     ecut=    40.00 Ry     beta=0.30
     Davidson diagonalization with overlap
     ethr =  1.68E-04,  avg # of iterations =  1.0

     total cpu time spent up to now is      374.2 secs

     total energy              =    -407.75869245 Ry
     Harris-Foulkes estimate   =    -407.75955579 Ry
     estimated scf accuracy    <       0.01887082 Ry

     total magnetization       =    -0.00 Bohr mag/cell
     absolute magnetization    =     0.00 Bohr mag/cell

     iteration #  4     ecut=    40.00 Ry     beta=0.30
     Davidson diagonalization with overlap
     ethr =  3.63E-05,  avg # of iterations =  1.5

     total cpu time spent up to now is      456.1 secs

     total energy              =    -407.75961950 Ry
     Harris-Foulkes estimate   =    -407.76039317 Ry
     estimated scf accuracy    <       0.00352242 Ry

     total magnetization       =    -0.00 Bohr mag/cell
     absolute magnetization    =     0.00 Bohr mag/cell

     iteration #  5     ecut=    40.00 Ry     beta=0.30
     Davidson diagonalization with overlap
     ethr =  6.77E-06,  avg # of iterations =  2.6

     total cpu time spent up to now is      541.6 secs

     total energy              =    -407.76039100 Ry
     Harris-Foulkes estimate   =    -407.76055468 Ry
     estimated scf accuracy    <       0.00216691 Ry

     total magnetization       =    -0.00 Bohr mag/cell
     absolute magnetization    =     0.00 Bohr mag/cell

     iteration #  6     ecut=    40.00 Ry     beta=0.30
     Davidson diagonalization with overlap
     ethr =  4.17E-06,  avg # of iterations =  1.0

     total cpu time spent up to now is      622.3 secs

     total energy              =    -407.76029346 Ry
     Harris-Foulkes estimate   =    -407.76049576 Ry
     estimated scf accuracy    <       0.00066128 Ry

     total magnetization       =    -0.00 Bohr mag/cell
     absolute magnetization    =     0.00 Bohr mag/cell

     iteration #  7     ecut=    40.00 Ry     beta=0.30
     Davidson diagonalization with overlap
     ethr =  1.27E-06,  avg # of iterations =  1.2

     total cpu time spent up to now is      703.8 secs

     total energy              =    -407.76041663 Ry
     Harris-Foulkes estimate   =    -407.76040891 Ry
     estimated scf accuracy    <       0.00001683 Ry

     total magnetization       =    -0.00 Bohr mag/cell
     absolute magnetization    =     0.00 Bohr mag/cell

     iteration #  8     ecut=    40.00 Ry     beta=0.30
     Davidson diagonalization with overlap
     ethr =  3.24E-08,  avg # of iterations =  1.0

     total cpu time spent up to now is      784.3 secs

     total energy              =    -407.76041810 Ry
     Harris-Foulkes estimate   =    -407.76041765 Ry
     estimated scf accuracy    <       0.00000720 Ry

     total magnetization       =    -0.00 Bohr mag/cell
     absolute magnetization    =     0.00 Bohr mag/cell

     iteration #  9     ecut=    40.00 Ry     beta=0.30
     Davidson diagonalization with overlap
     ethr =  1.38E-08,  avg # of iterations =  1.0

     total cpu time spent up to now is      864.5 secs

     End of self-consistent calculation

 ------ SPIN UP ------------


          k = 0.0000 0.0000 0.0000 (  1931 PWs)   bands (ev):

   -48.8701 -48.8552 -23.0439 -23.0439 -22.9570 -22.9145 -22.8621 -22.8621
    -7.2768  -6.5183  -5.3901  -5.3900   4.6155   4.7188   5.7281   6.3327
     6.3327   8.4146   8.4146   8.9081   9.8603  10.0267  10.0267  10.6171
    12.5173  12.8198  13.2730  13.3525  13.3525  16.1482  16.2983  18.0456
    19.0691  19.0691  20.3899  22.0201  22.0201  25.3540  27.2797  27.7317
    28.2566  29.0036  29.6440  29.6440  32.1530  32.4350  33.2804  33.2804
    34.1679  34.1679  35.4332  38.7187  38.7187  38.8688  39.6344  39.9323
    41.4819  42.4317  42.4317  42.6592  42.8677  43.0363  43.0363  43.0871
    43.9598  44.8281  44.8281  45.7818  47.1249  49.2001  49.2001  49.4576
    49.8138  50.4631  50.4631  50.7671  51.2622  51.7813

          k = 0.0000 0.0000 0.3103 (  1911 PWs)   bands (ev):

   -48.8542 -48.8421 -23.1511 -23.1183 -22.9996 -22.9996 -22.8487 -22.8487
    -6.8563  -6.2182  -5.6854  -5.6853   5.1405   5.3759   6.1786   6.3189
     6.3189   7.8341   8.5489   8.8830   8.8831   9.3144   9.3144  10.4044
    13.0297  13.1967  13.4502  13.8542  13.8543  15.7994  16.8659  18.5166
    18.5167  18.8181  20.1596  23.6173  23.6174  25.5815  26.4179  27.7246
    27.9064  28.1379  29.1351  29.1351  30.2973  33.6922  33.8649  33.8649
    34.2768  34.2768  36.3948  38.0063  38.0516  38.3723  38.6131  38.6131
    39.1266  39.9719  39.9719  39.9920  44.4305  44.4905  44.4906  45.8388
    46.1029  46.4834  46.4834  46.5493  47.5707  48.2944  48.4927  48.4927
    49.5056  50.1886  50.1886  51.9185  52.5072  52.8993

          k = 0.0000 0.0000 0.6207 (  1900 PWs)   bands (ev):

   -48.8269 -48.8222 -23.4484 -23.4369 -22.9252 -22.9252 -22.8284 -22.8284
    -6.1404  -6.1403  -6.0801  -5.8185   5.9288   6.1735   6.6823   6.6823
     6.9515   7.2913   7.4407   8.0490   8.0490   9.1570   9.4017   9.4017
    13.4192  13.8743  14.4542  14.6073  14.6073  14.6089  17.6170  17.9434
    18.3356  18.3357  21.9251  24.1098  25.9108  25.9108  26.2343  27.1053
    27.7207  27.9879  27.9879  28.0252  28.7425  30.4749  33.6075  33.6075
    35.1316  35.1316  36.4122  36.9976  37.1837  37.6627  38.6796  38.6796
    38.7492  40.5900  40.5900  42.0041  44.2808  44.2809  44.5396  46.2212
    46.2213  46.7550  46.8455  46.8455  47.3583  47.4815  48.3932  49.8840
    49.8840  50.6322  51.0098  51.8211  52.4424  52.4424

          k = 0.0000 0.2000 0.0000 (  1934 PWs)   bands (ev):

   -48.8687 -48.8566 -23.0280 -23.0267 -22.9530 -22.9185 -22.8809 -22.8797
    -7.1415  -6.4734  -5.5422  -5.4841   4.8684   4.9933   5.9861   6.3588
     6.3673   8.0602   8.1718   8.8631   9.3455   9.6080   9.7641  10.4804
    12.7983  13.1575  13.5672  13.6181  13.6334  15.9924  16.5116  18.5734
    18.8796  18.9050  19.9747  21.8768  22.3336  25.3274  26.7914  27.0215
    27.8294  29.4230  29.8033  30.5603  32.3022  32.4180  32.5019  32.5475
    34.2243  34.9599  36.6533  37.5538  38.6989  38.7309  39.7112  40.3058
    41.2076  41.3791  42.2368  42.8269  42.8965  43.4032  44.0750  44.2245
    44.9486  45.0436  45.5321  46.1484  47.0811  48.2084  48.7830  49.0360
    49.4051  49.6360  49.9085  50.0160  50.5859  51.1380

          k = 0.0000 0.2000 0.3103 (  1919 PWs)   bands (ev):

   -48.8530 -48.8432 -23.1520 -23.1250 -22.9844 -22.9829 -22.8623 -22.8615
    -6.7507  -6.1755  -5.8031  -5.7439   5.3603   5.5340   6.1419   6.3094
     6.7015   7.6496   7.9558   8.7363   8.7822   9.2783   9.3166  10.2820
    13.0351  13.5623  13.6431  13.8249  14.1571  15.5883  17.0838  17.9108
    18.3365  19.5763  20.0059  23.1392  23.8221  25.8402  26.4263  26.9957
    27.8508  27.9973  28.5375  30.2226  30.8299  32.8165  33.6163  33.7081
    34.1472  34.6900  37.0290  37.4342  37.5235  37.7882  38.4682  39.2543
    39.7979  40.2462  40.6506  41.6410  44.5386  44.6437  44.7232  45.1249
    45.8190  46.2851  46.5997  46.7156  48.1030  48.1944  48.2884  48.3983
    48.7792  49.7700  50.5120  51.3806  51.8964  52.4935

          k = 0.0000 0.2000 0.6207 (  1923 PWs)   bands (ev):

   -48.8265 -48.8227 -23.4504 -23.4410 -22.9199 -22.9192 -22.8315 -22.8308
    -6.3664  -6.3037  -5.8147  -5.6641   5.8495   6.0059   6.2416   6.6128
     7.0787   7.3826   7.8536   8.2334   8.4003   9.1755   9.2276   9.4251
    13.0418  13.8628  14.0440  14.4580  14.8311  15.0115  17.2987  17.4363
    18.6356  19.0996  21.8963  23.6853  25.2462  25.9522  26.3548  26.7320
    27.4275  27.8127  28.1641  28.5225  29.9052  30.4402  33.2217  33.4374
    34.6031  35.1324  36.3009  36.5754  37.8699  37.9411  38.7961  39.3032
    40.1531  40.1584  40.4422  42.7662  44.2542  44.6206  44.8619  45.1980
    45.9932  46.1177  46.4399  47.2551  47.6566  47.9159  48.2393  49.3920
    49.6741  50.6319  51.0022  51.9478  52.8496  53.0157

          k = 0.0000 0.4000 0.0000 (  1928 PWs)   bands (ev):

   -48.8649 -48.8603 -22.9849 -22.9816 -22.9422 -22.9291 -22.9287 -22.9255
    -6.7939  -6.4729  -5.7844  -5.6943   5.4471   5.5350   6.4099   6.4196
     6.7748   7.4199   7.4816   8.0205   8.8795   9.1548   9.7598  10.1083
    13.2427  13.4278  13.9556  14.0042  14.4064  15.2668  17.5537  18.5719
    18.5998  18.8817  19.8068  21.0936  23.2972  24.6964  26.3406  26.4160
    27.9220  29.3343  29.9887  30.5742  30.7213  31.9148  33.3446  34.5071
    34.5182  35.8109  36.6936  37.5411  38.6324  38.6580  38.7678  38.8849
    41.1961  41.3781  42.3895  43.0656  43.7138  43.9414  44.4567  44.7842
    45.9365  46.0459  46.9873  47.0139  47.1491  47.4568  48.2570  48.2695
    48.5132  49.0538  49.3799  49.7744  50.1595  50.3999

          k = 0.0000 0.4000 0.3103 (  1920 PWs)   bands (ev):

   -48.8500 -48.8463 -23.1493 -23.1386 -22.9475 -22.9444 -22.8970 -22.8946
    -6.4697  -6.1226  -6.0380  -5.8879   5.8874   5.8963   6.2545   6.2738
     7.0354   7.2457   7.7653   8.2155   8.2282   8.7700   9.7202  10.0227
    13.3828  13.6898  13.9932  14.0812  14.6561  15.0973  17.3561  17.4156
    18.3542  19.1311  20.9479  22.1210  24.5380  25.6591  26.3441  26.5497
    27.6002  27.6275  28.5805  30.0229  31.6104  32.5753  33.4222  34.0441
    34.2654  35.1246  36.4584  36.6197  37.5950  37.7580  38.7609  38.9520
    40.3489  41.7325  42.1293  42.9389  43.6754  44.2793  45.0558  45.2072
    45.8411  46.3062  46.5867  46.6179  47.7337  48.0918  48.1544  48.2984
    49.3843  50.0508  50.4824  51.3716  51.5494  52.3845

          k = 0.0000 0.4000 0.6207 (  1913 PWs)   bands (ev):

   -48.8253 -48.8238 -23.4524 -23.4488 -22.9100 -22.9092 -22.8368 -22.8361
    -6.4993  -6.4729  -5.5918  -5.5356   5.7125   5.7139   6.1242   6.2376
     7.4161   7.8245   7.9421   8.5817   8.7151   8.8053   9.2550   9.7294
    12.6346  13.0405  14.3055  14.4485  15.0776  15.1329  16.9336  17.0821
    19.2450  19.5706  22.1099  22.8216  25.0882  25.4761  26.0845  26.2561
    27.2103  27.8054  29.0413  29.2283  30.1296  30.5281  32.7124  33.0942
    34.9313  35.2515  36.3734  36.4297  38.0617  38.1605  39.2401  39.4859
    40.4499  40.5928  42.6355  43.0038  43.0746  43.7168  44.9676  45.0161
    45.9813  46.0418  46.4512  47.1506  47.6085  47.6171  48.9609  49.7669
    50.5582  50.8058  51.3319  51.5071  52.0288  52.3597

          k = 0.2000 0.2000 0.0000 (  1925 PWs)   bands (ev):

   -48.8675 -48.8577 -23.0490 -22.9787 -22.9496 -22.9311 -22.9217 -22.8586
    -7.0606  -6.4442  -5.7365  -5.4235   4.6682   5.5254   6.2203   6.3107
     6.4226   7.4666   8.3809   8.8482   9.1360   9.5593   9.5863  10.3583
    12.5999  13.3634  13.3962  13.9475  13.9798  15.8083  16.6799  18.5868
    19.0641  19.1724  19.5638  22.0626  22.3124  25.2016  25.8803  26.7134
    27.8688  29.5398  29.8418  32.0186  32.3620  32.4146  32.7493  33.1908
    33.2203  34.6557  36.6404  36.7079  38.3051  39.2646  39.2766  39.6418
    41.0555  41.9775  42.2883  43.5008  43.6475  44.1306  44.5354  44.6818
    44.6826  45.1276  45.8418  47.0499  47.1754  47.5253  47.5800  48.7054
    48.8801  49.2293  49.8989  50.3771  51.4846  51.5110

          k = 0.2000 0.2000 0.3103 (  1918 PWs)   bands (ev):

   -48.8521 -48.8441 -23.1505 -23.1280 -23.0038 -22.9428 -22.8985 -22.8461
    -6.6794  -6.1241  -5.9641  -5.7151   5.2519   5.8831   6.0402   6.4176
     6.8917   7.3228   8.2087   8.2428   8.7887   9.2569   9.4632  10.1239
    13.0732  13.2902  13.7980  14.2024  14.2352  15.4164  17.1652  17.6473
    18.4868  19.4981  20.2990  23.0932  23.5801  25.9100  26.1659  26.3570
    27.7685  27.9581  29.6512  29.9107  31.0993  32.3208  33.1295  34.0962
    34.3381  34.9921  36.6598  37.1385  37.6381  37.7708  39.0047  39.3661
    39.7234  40.6387  41.9672  41.9798  44.0716  44.1029  44.7743  45.1430
    45.6552  46.3976  46.6882  47.4491  47.7689  48.1367  48.1448  48.5722
    48.6908  49.2881  49.8941  50.5755  52.5451  52.6958

          k = 0.2000 0.2000 0.6207 (  1930 PWs)   bands (ev):

   -48.8261 -48.8230 -23.4515 -23.4416 -22.9269 -22.9090 -22.8366 -22.8283
    -6.4894  -6.1652  -5.9288  -5.5522   5.7620   6.0644   6.2974   6.3490
     6.7864   7.8726   7.9202   8.2439   8.5341   8.9438   9.3445   9.6212
    12.8489  14.0349  14.0691  14.2746  14.5175  15.2479  16.9097  17.9990
    18.3058  19.3795  21.9162  23.6354  24.2436  25.7849  26.0750  26.5937
    27.5936  28.0059  28.2798  29.3610  29.9163  30.8593  32.6880  33.3386
    34.4415  35.0031  35.6372  37.6166  38.0676  38.8676  39.1805  39.8207
    40.1007  40.1495  40.9701  43.0452  43.7918  44.3925  44.9233  45.3486
    45.3730  45.9338  46.3702  46.9518  47.3899  47.9382  48.4431  49.2743
    49.4453  50.4519  51.4205  51.6134  52.2082  52.5242

          k = 0.2000 0.4000 0.0000 (  1923 PWs)   bands (ev):

   -48.8645 -48.8607 -23.0353 -22.9906 -22.9410 -22.9303 -22.9205 -22.8744
    -6.8361  -6.5535  -5.7611  -5.5533   4.9306   5.5065   6.3326   6.4020
     6.9024   7.4754   7.9402   8.5805   8.9812   9.3032   9.4272   9.9116
    12.9098  13.3352  13.6052  13.9868  14.5959  15.2824  17.4558  18.5755
    18.5827  18.8860  20.3247  21.4302  23.2019  24.5195  25.4203  25.8206
    28.2133  29.0697  30.9859  31.6943  31.8334  32.1886  33.2533  34.2834
    34.3890  34.7978  35.8969  36.9438  37.7174  37.9155  38.5253  39.7293
    41.2784  41.4031  42.8826  43.3352  43.9943  44.0632  45.2433  45.4269
    45.8712  46.0614  46.2640  47.4854  47.6028  47.7658  47.9863  48.3028
    48.9005  49.1603  49.4998  50.0078  50.3684  51.2862

          k = 0.2000 0.4000 0.3103 (  1925 PWs)   bands (ev):

   -48.8496 -48.8466 -23.1457 -23.1368 -22.9900 -22.9511 -22.8913 -22.8575
    -6.4888  -6.2333  -5.9703  -5.8057   5.4563   5.9116   6.0907   6.2314
     7.2496   7.4908   7.9839   8.3149   8.5700   8.9469   9.4713   9.7837
    13.3945  13.5458  13.7660  14.1258  14.5701  14.9919  17.4014  17.7628
    18.3821  18.9381  21.2413  22.2446  24.1443  25.1945  25.9853  26.0594
    27.8501  27.8953  29.4408  30.0798  31.3740  32.0129  33.3995  34.6127
    34.6988  35.1757  36.4889  36.5248  37.8027  38.2547  38.7280  39.3435
    40.3468  41.2659  42.2133  42.8521  43.6492  44.5673  44.6914  45.2737
    45.4043  46.4159  46.6705  46.9975  47.3193  47.9803  48.0670  48.3861
    49.4190  49.6746  50.4189  50.6528  51.0747  51.8670

          k = 0.2000 0.4000 0.6207 (  1924 PWs)   bands (ev):

   -48.8251 -48.8240 -23.4504 -23.4455 -22.9218 -22.9105 -22.8362 -22.8308
    -6.4900  -6.3422  -5.7281  -5.5541   5.6846   5.8468   6.1918   6.4012
     6.9465   7.5899   8.1041   8.3393   8.7230   9.0932   9.4491   9.8300
    12.7597  13.2901  14.2534  14.3984  14.6880  15.0969  16.9847  17.5043
    18.9180  19.4154  22.1588  22.8588  24.0784  24.8172  26.0051  26.5161
    27.5419  27.8157  28.9716  29.6143  30.2903  31.2241  32.3483  33.1007
    35.0307  35.3689  35.7867  37.0656  38.6768  38.9996  39.6039  39.8175
    40.8404  41.4660  42.3237  42.9804  43.1029  43.7000  44.7112  44.8978
    45.3211  45.7083  45.9560  46.5786  47.6755  48.3965  48.6859  48.9790
    49.3275  49.9153  50.7573  51.1026  52.0114  52.5741

          k = 0.4000 0.4000 0.0000 (  1928 PWs)   bands (ev):

   -48.8633 -48.8619 -23.0573 -23.0403 -22.9376 -22.9335 -22.8709 -22.8531
    -6.8444  -6.7331  -5.5832  -5.4760   4.6790   4.9382   6.2751   6.3141
     7.4592   7.9868   8.3231   8.7956   9.1267   9.2593   9.4338   9.6996
    12.5501  12.8889  13.3827  13.6158  14.9524  15.2070  17.5966  18.0261
    18.8816  19.0560  21.1899  21.7299  23.2690  23.9912  24.7160  24.9353
    28.6579  29.0827  32.1320  32.6959  33.1742  33.1777  33.3240  33.5085
    33.8677  34.0243  35.0718  36.0439  36.7461  38.0616  38.7458  39.8452
    40.5957  41.5473  42.0261  42.5805  43.8936  44.8209  45.5802  45.8454
    45.9599  46.0573  47.2624  47.7773  48.0389  48.3394  48.3737  48.8201
    49.1949  49.4162  50.1971  50.2668  50.5053  51.0392

          k = 0.4000 0.4000 0.3103 (  1936 PWs)   bands (ev):

   -48.8487 -48.8475 -23.1384 -23.1345 -23.0106 -22.9939 -22.8548 -22.8418
    -6.4796  -6.3896  -5.8342  -5.7619   5.2649   5.4635   5.9992   6.0772
     7.8481   8.0139   8.2254   8.6286   8.8952   8.9794   9.1025   9.3433
    13.2686  13.5641  13.5783  13.8217  14.5576  14.7423  17.8481  18.0680
    18.4346  18.5617  21.8120  22.2792  23.7961  24.3327  25.7876  25.8484
    27.7445  27.8922  29.6931  30.0954  31.4048  32.2707  33.7397  34.9262
    34.9757  35.1863  36.6630  37.1292  38.0349  38.7136  39.2293  39.6872
    40.6040  40.6569  42.0136  42.0871  43.6432  44.2152  44.8549  44.9264
    45.4771  45.4912  45.9860  46.6308  47.0632  48.1929  48.3612  48.8128
    49.3882  49.6060  50.8527  50.9874  51.4024  51.8722

          k = 0.4000 0.4000 0.6207 (  1939 PWs)   bands (ev):

   -48.8248 -48.8243 -23.4450 -23.4423 -22.9295 -22.9232 -22.8306 -22.8280
    -6.3519  -6.2047  -5.8715  -5.7103   5.7950   6.0400   6.2907   6.4306
     6.7499   7.1164   7.9461   8.1283   9.0273   9.2146   9.7599   9.9317
    13.1809  13.7033  14.1280  14.2525  14.3072  14.6677  17.4739  18.1868
    18.2427  18.9145  22.1998  22.5170  23.8834  24.6290  25.1771  25.9082
    27.4217  27.6096  29.7485  29.9508  30.9557  31.4729  32.5624  33.0248
    35.8387  35.8446  35.8579  37.0119  38.9830  39.0813  40.8451  41.0662
    41.5384  41.7124  42.6149  43.0558  43.7107  43.7386  44.4963  44.5150
    44.9700  45.0298  45.6258  45.7931  46.7469  46.9239  47.0884  49.0849
    49.4416  49.9482  50.2338  50.9687  51.2323  51.3299

          k =-0.2000 0.2000 0.0000 (  1925 PWs)   bands (ev):

   -48.8675 -48.8577 -23.0490 -22.9786 -22.9496 -22.9311 -22.9217 -22.8586
    -7.0607  -6.4441  -5.7364  -5.4236   4.6682   5.5254   6.2203   6.3106
     6.4226   7.4667   8.3809   8.8483   9.1359   9.5592   9.5863  10.3583
    12.5999  13.3634  13.3962  13.9475  13.9798  15.8083  16.6799  18.5869
    19.0640  19.1724  19.5638  22.0626  22.3124  25.2016  25.8803  26.7134
    27.8688  29.5398  29.8418  32.0186  32.3620  32.4146  32.7493  33.1908
    33.2203  34.6557  36.6404  36.7079  38.3051  39.2646  39.2766  39.6418
    41.0555  41.9774  42.2883  43.5008  43.6475  44.1306  44.5354  44.6818
    44.6826  45.1276  45.8418  47.0499  47.1754  47.5253  47.5800  48.7055
    48.8801  49.2293  49.8989  50.3771  51.4847  51.5110

          k =-0.2000 0.2000-0.3103 (  1918 PWs)   bands (ev):

   -48.8521 -48.8441 -23.1505 -23.1280 -23.0038 -22.9427 -22.8985 -22.8461
    -6.6795  -6.1240  -5.9640  -5.7152   5.2519   5.8832   6.0402   6.4177
     6.8916   7.3229   8.2087   8.2429   8.7887   9.2568   9.4631  10.1239
    13.0732  13.2902  13.7980  14.2024  14.2352  15.4164  17.1652  17.6473
    18.4868  19.4982  20.2990  23.0932  23.5801  25.9100  26.1659  26.3570
    27.7685  27.9582  29.6512  29.9107  31.0993  32.3208  33.1295  34.0963
    34.3381  34.9921  36.6598  37.1385  37.6381  37.7708  39.0046  39.3661
    39.7234  40.6387  41.9672  41.9798  44.0716  44.1029  44.7743  45.1430
    45.6552  46.3976  46.6883  47.4491  47.7689  48.1367  48.1448  48.5722
    48.6908  49.2881  49.8941  50.5755  52.5451  52.6958

          k =-0.2000 0.2000-0.6207 (  1930 PWs)   bands (ev):

   -48.8261 -48.8230 -23.4515 -23.4416 -22.9269 -22.9090 -22.8366 -22.8283
    -6.4893  -6.1653  -5.9289  -5.5521   5.7620   6.0645   6.2974   6.3490
     6.7863   7.8725   7.9203   8.2439   8.5341   8.9438   9.3445   9.6212
    12.8489  14.0349  14.0691  14.2746  14.5175  15.2479  16.9097  17.9990
    18.3058  19.3796  21.9162  23.6354  24.2435  25.7849  26.0750  26.5937
    27.5936  28.0059  28.2798  29.3610  29.9163  30.8593  32.6880  33.3386
    34.4415  35.0031  35.6372  37.6166  38.0676  38.8676  39.1805  39.8207
    40.1007  40.1495  40.9701  43.0452  43.7918  44.3925  44.9233  45.3485
    45.3730  45.9338  46.3702  46.9518  47.3899  47.9382  48.4431  49.2743
    49.4453  50.4519  51.4205  51.6134  52.2082  52.5242

          k =-0.2000 0.4000 0.0000 (  1923 PWs)   bands (ev):

   -48.8645 -48.8607 -23.0354 -22.9906 -22.9410 -22.9303 -22.9205 -22.8744
    -6.8362  -6.5535  -5.7610  -5.5534   4.9305   5.5066   6.3325   6.4021
     6.9024   7.4754   7.9402   8.5804   8.9813   9.3031   9.4272   9.9116
    12.9098  13.3353  13.6052  13.9868  14.5959  15.2824  17.4558  18.5755
    18.5828  18.8859  20.3247  21.4302  23.2019  24.5195  25.4203  25.8206
    28.2134  29.0697  30.9859  31.6943  31.8334  32.1886  33.2533  34.2834
    34.3890  34.7978  35.8969  36.9438  37.7174  37.9154  38.5253  39.7293
    41.2784  41.4031  42.8826  43.3352  43.9943  44.0632  45.2433  45.4269
    45.8712  46.0614  46.2641  47.4854  47.6028  47.7658  47.9862  48.3028
    48.9005  49.1603  49.4998  50.0078  50.3684  51.2862

          k =-0.2000 0.4000-0.3103 (  1925 PWs)   bands (ev):

   -48.8496 -48.8466 -23.1457 -23.1368 -22.9900 -22.9511 -22.8913 -22.8575
    -6.4888  -6.2332  -5.9702  -5.8058   5.4562   5.9116   6.0907   6.2315
     7.2496   7.4907   7.9839   8.3150   8.5700   8.9468   9.4713   9.7836
    13.3945  13.5458  13.7660  14.1258  14.5701  14.9919  17.4014  17.7628
    18.3821  18.9381  21.2413  22.2446  24.1443  25.1945  25.9853  26.0594
    27.8501  27.8953  29.4408  30.0798  31.3740  32.0129  33.3995  34.6127
    34.6988  35.1757  36.4889  36.5248  37.8027  38.2548  38.7280  39.3435
    40.3468  41.2659  42.2133  42.8521  43.6492  44.5673  44.6914  45.2737
    45.4043  46.4159  46.6705  46.9975  47.3193  47.9803  48.0670  48.3861
    49.4190  49.6746  50.4189  50.6528  51.0747  51.8670

          k =-0.2000 0.4000-0.6207 (  1924 PWs)   bands (ev):

   -48.8251 -48.8240 -23.4504 -23.4455 -22.9218 -22.9105 -22.8362 -22.8308
    -6.4899  -6.3423  -5.7282  -5.5540   5.6846   5.8468   6.1919   6.4011
     6.9465   7.5899   8.1041   8.3393   8.7230   9.0932   9.4491   9.8300
    12.7597  13.2901  14.2534  14.3984  14.6880  15.0970  16.9847  17.5043
    18.9180  19.4154  22.1588  22.8588  24.0784  24.8172  26.0051  26.5161
    27.5419  27.8157  28.9716  29.6143  30.2903  31.2241  32.3483  33.1007
    35.0308  35.3689  35.7867  37.0656  38.6768  38.9995  39.6039  39.8175
    40.8404  41.4660  42.3237  42.9804  43.1029  43.7000  44.7112  44.8978
    45.3210  45.7083  45.9560  46.5786  47.6755  48.3965  48.6859  48.9790
    49.3275  49.9153  50.7573  51.1026  52.0113  52.5742

          k =-0.4000 0.4000 0.0000 (  1928 PWs)   bands (ev):

   -48.8633 -48.8619 -23.0573 -23.0403 -22.9376 -22.9335 -22.8709 -22.8531
    -6.8445  -6.7330  -5.5831  -5.4761   4.6789   4.9383   6.2750   6.3141
     7.4592   7.9868   8.3231   8.7955   9.1267   9.2594   9.4337   9.6996
    12.5501  12.8889  13.3827  13.6158  14.9524  15.2069  17.5966  18.0261
    18.8816  19.0559  21.1899  21.7299  23.2690  23.9912  24.7160  24.9353
    28.6579  29.0827  32.1320  32.6959  33.1742  33.1777  33.3240  33.5085
    33.8677  34.0243  35.0718  36.0438  36.7461  38.0616  38.7458  39.8452
    40.5957  41.5473  42.0261  42.5806  43.8936  44.8209  45.5802  45.8454
    45.9599  46.0573  47.2624  47.7773  48.0389  48.3394  48.3737  48.8201
    49.1949  49.4162  50.1971  50.2668  50.5053  51.0393

          k =-0.4000 0.4000-0.3103 (  1936 PWs)   bands (ev):

   -48.8487 -48.8475 -23.1384 -23.1345 -23.0107 -22.9939 -22.8548 -22.8418
    -6.4797  -6.3895  -5.8341  -5.7620   5.2648   5.4635   5.9992   6.0773
     7.8481   8.0138   8.2253   8.6287   8.8953   8.9794   9.1024   9.3432
    13.2685  13.5641  13.5783  13.8217  14.5576  14.7423  17.8481  18.0680
    18.4345  18.5617  21.8120  22.2792  23.7961  24.3327  25.7876  25.8484
    27.7445  27.8922  29.6931  30.0954  31.4048  32.2707  33.7398  34.9262
    34.9756  35.1863  36.6630  37.1292  38.0349  38.7136  39.2293  39.6872
    40.6040  40.6569  42.0136  42.0870  43.6432  44.2151  44.8549  44.9264
    45.4771  45.4912  45.9861  46.6308  47.0632  48.1929  48.3612  48.8128
    49.3882  49.6060  50.8527  50.9874  51.4024  51.8722

          k =-0.4000 0.4000-0.6207 (  1939 PWs)   bands (ev):

   -48.8248 -48.8243 -23.4450 -23.4423 -22.9295 -22.9232 -22.8306 -22.8280
    -6.3518  -6.2048  -5.8716  -5.7103   5.7950   6.0400   6.2906   6.4306
     6.7499   7.1164   7.9460   8.1284   9.0272   9.2147   9.7599   9.9317
    13.1809  13.7032  14.1280  14.2525  14.3072  14.6678  17.4739  18.1868
    18.2427  18.9145  22.1998  22.5170  23.8834  24.6290  25.1771  25.9082
    27.4217  27.6095  29.7485  29.9508  30.9557  31.4729  32.5624  33.0247
    35.8387  35.8446  35.8579  37.0119  38.9831  39.0812  40.8451  41.0662
    41.5384  41.7124  42.6149  43.0558  43.7108  43.7386  44.4963  44.5150
    44.9700  45.0298  45.6258  45.7931  46.7470  46.9239  47.0884  49.0849
    49.4416  49.9482  50.2338  50.9687  51.2323  51.3299

 ------ SPIN DOWN ----------


          k = 0.0000 0.0000 0.0000 (  1931 PWs)   bands (ev):

   -48.8701 -48.8552 -23.0439 -23.0439 -22.9571 -22.9146 -22.8621 -22.8621
    -7.2768  -6.5183  -5.3901  -5.3900   4.6154   4.7188   5.7281   6.3326
     6.3327   8.4146   8.4146   8.9081   9.8603  10.0267  10.0267  10.6171
    12.5172  12.8198  13.2730  13.3524  13.3524  16.1482  16.2983  18.0456
    19.0691  19.0691  20.3899  22.0201  22.0201  25.3540  27.2797  27.7316
    28.2566  29.0036  29.6440  29.6440  32.1529  32.4350  33.2804  33.2804
    34.1679  34.1679  35.4332  38.7187  38.7187  38.8688  39.6344  39.9322
    41.4819  42.4317  42.4317  42.6592  42.8677  43.0363  43.0363  43.0870
    43.9598  44.8281  44.8281  45.7818  47.1249  49.2001  49.2001  49.4576
    49.8138  50.4631  50.4631  50.7671  51.2622  51.7810

          k = 0.0000 0.0000 0.3103 (  1911 PWs)   bands (ev):

   -48.8542 -48.8421 -23.1511 -23.1184 -22.9996 -22.9996 -22.8487 -22.8487
    -6.8563  -6.2182  -5.6854  -5.6853   5.1405   5.3759   6.1786   6.3188
     6.3189   7.8341   8.5489   8.8830   8.8831   9.3143   9.3144  10.4044
    13.0296  13.1967  13.4501  13.8542  13.8542  15.7993  16.8658  18.5166
    18.5166  18.8181  20.1596  23.6173  23.6174  25.5815  26.4179  27.7246
    27.9064  28.1379  29.1351  29.1351  30.2973  33.6922  33.8649  33.8649
    34.2768  34.2768  36.3948  38.0062  38.0516  38.3723  38.6131  38.6131
    39.1266  39.9719  39.9719  39.9920  44.4304  44.4905  44.4906  45.8388
    46.1029  46.4834  46.4834  46.5493  47.5707  48.2944  48.4927  48.4927
    49.5056  50.1886  50.1886  51.9185  52.5071  52.8993

          k = 0.0000 0.0000 0.6207 (  1900 PWs)   bands (ev):

   -48.8269 -48.8223 -23.4484 -23.4369 -22.9253 -22.9253 -22.8284 -22.8284
    -6.1404  -6.1403  -6.0801  -5.8185   5.9288   6.1735   6.6823   6.6823
     6.9514   7.2913   7.4407   8.0489   8.0490   9.1570   9.4017   9.4017
    13.4191  13.8743  14.4541  14.6072  14.6073  14.6089  17.6170  17.9434
    18.3356  18.3357  21.9251  24.1097  25.9107  25.9108  26.2343  27.1053
    27.7207  27.9879  27.9879  28.0251  28.7425  30.4749  33.6075  33.6075
    35.1315  35.1316  36.4122  36.9975  37.1837  37.6627  38.6796  38.6796
    38.7491  40.5900  40.5900  42.0041  44.2808  44.2809  44.5396  46.2212
    46.2213  46.7550  46.8455  46.8455  47.3583  47.4814  48.3932  49.8840
    49.8840  50.6322  51.0098  51.8210  52.4424  52.4424

          k = 0.0000 0.2000 0.0000 (  1934 PWs)   bands (ev):

   -48.8687 -48.8566 -23.0280 -23.0267 -22.9530 -22.9185 -22.8809 -22.8797
    -7.1415  -6.4734  -5.5422  -5.4841   4.8684   4.9932   5.9860   6.3588
     6.3673   8.0602   8.1718   8.8631   9.3455   9.6080   9.7641  10.4804
    12.7983  13.1575  13.5672  13.6181  13.6334  15.9924  16.5115  18.5734
    18.8796  18.9050  19.9747  21.8768  22.3336  25.3274  26.7914  27.0215
    27.8294  29.4230  29.8033  30.5603  32.3021  32.4180  32.5019  32.5475
    34.2242  34.9599  36.6533  37.5538  38.6989  38.7309  39.7112  40.3058
    41.2076  41.3791  42.2368  42.8269  42.8964  43.4032  44.0750  44.2245
    44.9485  45.0436  45.5321  46.1484  47.0810  48.2084  48.7830  49.0360
    49.4051  49.6360  49.9085  50.0160  50.5859  51.1380

          k = 0.0000 0.2000 0.3103 (  1919 PWs)   bands (ev):

   -48.8531 -48.8432 -23.1521 -23.1250 -22.9844 -22.9829 -22.8624 -22.8615
    -6.7507  -6.1756  -5.8031  -5.7439   5.3603   5.5340   6.1419   6.3094
     6.7015   7.6496   7.9558   8.7362   8.7822   9.2783   9.3166  10.2820
    13.0351  13.5623  13.6430  13.8248  14.1570  15.5883  17.0838  17.9108
    18.3364  19.5763  20.0059  23.1392  23.8220  25.8402  26.4263  26.9957
    27.8507  27.9973  28.5375  30.2225  30.8298  32.8165  33.6163  33.7081
    34.1472  34.6900  37.0290  37.4342  37.5235  37.7882  38.4682  39.2543
    39.7978  40.2462  40.6505  41.6410  44.5386  44.6437  44.7232  45.1249
    45.8190  46.2851  46.5997  46.7156  48.1030  48.1944  48.2884  48.3983
    48.7792  49.7700  50.5120  51.3806  51.8964  52.4935

          k = 0.0000 0.2000 0.6207 (  1923 PWs)   bands (ev):

   -48.8265 -48.8227 -23.4505 -23.4411 -22.9199 -22.9193 -22.8315 -22.8309
    -6.3664  -6.3037  -5.8147  -5.6641   5.8495   6.0059   6.2416   6.6128
     7.0787   7.3825   7.8536   8.2334   8.4003   9.1754   9.2276   9.4251
    13.0417  13.8628  14.0440  14.4579  14.8311  15.0114  17.2987  17.4362
    18.6356  19.0996  21.8963  23.6853  25.2462  25.9521  26.3548  26.7320
    27.4274  27.8127  28.1641  28.5224  29.9052  30.4402  33.2217  33.4373
    34.6031  35.1324  36.3009  36.5754  37.8699  37.9411  38.7960  39.3031
    40.1531  40.1584  40.4421  42.7662  44.2542  44.6206  44.8619  45.1980
    45.9932  46.1177  46.4399  47.2551  47.6566  47.9159  48.2393  49.3920
    49.6741  50.6319  51.0022  51.9478  52.8503  53.0159

          k = 0.0000 0.4000 0.0000 (  1928 PWs)   bands (ev):

   -48.8649 -48.8603 -22.9849 -22.9816 -22.9423 -22.9291 -22.9287 -22.9255
    -6.7939  -6.4729  -5.7844  -5.6943   5.4471   5.5350   6.4099   6.4196
     6.7748   7.4199   7.4816   8.0205   8.8795   9.1548   9.7598  10.1083
    13.2426  13.4278  13.9555  14.0042  14.4064  15.2668  17.5537  18.5719
    18.5998  18.8817  19.8068  21.0936  23.2972  24.6964  26.3406  26.4160
    27.9220  29.3342  29.9886  30.5742  30.7213  31.9148  33.3445  34.5071
    34.5182  35.8109  36.6935  37.5411  38.6324  38.6580  38.7678  38.8849
    41.1961  41.3781  42.3895  43.0656  43.7138  43.9414  44.4567  44.7842
    45.9365  46.0459  46.9873  47.0139  47.1491  47.4568  48.2570  48.2694
    48.5132  49.0538  49.3799  49.7744  50.1595  50.3999

          k = 0.0000 0.4000 0.3103 (  1920 PWs)   bands (ev):

   -48.8500 -48.8463 -23.1494 -23.1386 -22.9475 -22.9445 -22.8971 -22.8946
    -6.4697  -6.1226  -6.0380  -5.8879   5.8874   5.8962   6.2545   6.2738
     7.0354   7.2457   7.7653   8.2155   8.2282   8.7700   9.7202  10.0227
    13.3828  13.6897  13.9932  14.0812  14.6560  15.0973  17.3561  17.4156
    18.3542  19.1311  20.9478  22.1210  24.5380  25.6591  26.3441  26.5497
    27.6002  27.6275  28.5805  30.0229  31.6104  32.5753  33.4222  34.0440
    34.2654  35.1246  36.4584  36.6197  37.5949  37.7580  38.7609  38.9520
    40.3488  41.7325  42.1293  42.9389  43.6754  44.2793  45.0558  45.2072
    45.8410  46.3061  46.5867  46.6179  47.7337  48.0918  48.1544  48.2984
    49.3843  50.0508  50.4823  51.3716  51.5494  52.3845

          k = 0.0000 0.4000 0.6207 (  1913 PWs)   bands (ev):

   -48.8253 -48.8239 -23.4525 -23.4488 -22.9100 -22.9092 -22.8368 -22.8361
    -6.4993  -6.4729  -5.5918  -5.5356   5.7125   5.7139   6.1242   6.2376
     7.4161   7.8245   7.9420   8.5817   8.7151   8.8053   9.2550   9.7294
    12.6346  13.0404  14.3054  14.4485  15.0776  15.1329  16.9336  17.0820
    19.2449  19.5706  22.1099  22.8216  25.0882  25.4761  26.0845  26.2561
    27.2103  27.8054  29.0413  29.2283  30.1296  30.5281  32.7124  33.0942
    34.9312  35.2515  36.3734  36.4297  38.0617  38.1605  39.2401  39.4859
    40.4499  40.5928  42.6355  43.0038  43.0746  43.7168  44.9676  45.0161
    45.9813  46.0418  46.4511  47.1506  47.6085  47.6171  48.9609  49.7669
    50.5582  50.8058  51.3318  51.5071  52.0288  52.3597

          k = 0.2000 0.2000 0.0000 (  1925 PWs)   bands (ev):

   -48.8675 -48.8578 -23.0490 -22.9787 -22.9497 -22.9311 -22.9218 -22.8586
    -7.0606  -6.4442  -5.7365  -5.4235   4.6682   5.5253   6.2203   6.3107
     6.4226   7.4666   8.3809   8.8482   9.1360   9.5593   9.5863  10.3583
    12.5999  13.3634  13.3961  13.9475  13.9797  15.8083  16.6799  18.5868
    19.0641  19.1724  19.5638  22.0625  22.3124  25.2016  25.8803  26.7134
    27.8688  29.5398  29.8418  32.0186  32.3620  32.4146  32.7493  33.1908
    33.2203  34.6557  36.6404  36.7079  38.3051  39.2646  39.2766  39.6418
    41.0555  41.9774  42.2883  43.5008  43.6475  44.1306  44.5354  44.6818
    44.6826  45.1276  45.8418  47.0499  47.1754  47.5253  47.5800  48.7054
    48.8801  49.2292  49.8989  50.3771  51.4846  51.5109

          k = 0.2000 0.2000 0.3103 (  1918 PWs)   bands (ev):

   -48.8521 -48.8442 -23.1506 -23.1281 -23.0038 -22.9428 -22.8986 -22.8461
    -6.6794  -6.1241  -5.9641  -5.7151   5.2519   5.8831   6.0402   6.4176
     6.8917   7.3228   8.2087   8.2428   8.7887   9.2569   9.4632  10.1239
    13.0732  13.2902  13.7979  14.2023  14.2351  15.4164  17.1652  17.6472
    18.4868  19.4981  20.2990  23.0932  23.5801  25.9100  26.1658  26.3570
    27.7685  27.9581  29.6512  29.9107  31.0993  32.3208  33.1295  34.0962
    34.3381  34.9921  36.6598  37.1385  37.6381  37.7708  39.0046  39.3661
    39.7234  40.6387  41.9672  41.9797  44.0716  44.1029  44.7743  45.1430
    45.6552  46.3976  46.6882  47.4491  47.7688  48.1367  48.1448  48.5721
    48.6908  49.2881  49.8941  50.5755  52.5451  52.6957

          k = 0.2000 0.2000 0.6207 (  1930 PWs)   bands (ev):

   -48.8261 -48.8231 -23.4515 -23.4417 -22.9269 -22.9091 -22.8366 -22.8283
    -6.4894  -6.1652  -5.9288  -5.5522   5.7620   6.0644   6.2974   6.3490
     6.7864   7.8725   7.9202   8.2439   8.5341   8.9438   9.3445   9.6212
    12.8488  14.0349  14.0691  14.2745  14.5175  15.2479  16.9097  17.9990
    18.3058  19.3795  21.9162  23.6353  24.2436  25.7849  26.0750  26.5937
    27.5936  28.0059  28.2798  29.3610  29.9163  30.8592  32.6880  33.3386
    34.4415  35.0031  35.6372  37.6166  38.0676  38.8676  39.1805  39.8207
    40.1007  40.1495  40.9700  43.0452  43.7918  44.3925  44.9233  45.3485
    45.3730  45.9337  46.3702  46.9518  47.3899  47.9382  48.4431  49.2743
    49.4453  50.4519  51.4205  51.6133  52.2082  52.5241

          k = 0.2000 0.4000 0.0000 (  1923 PWs)   bands (ev):

   -48.8645 -48.8608 -23.0354 -22.9906 -22.9410 -22.9303 -22.9206 -22.8745
    -6.8361  -6.5535  -5.7611  -5.5533   4.9306   5.5065   6.3326   6.4020
     6.9024   7.4754   7.9402   8.5805   8.9812   9.3032   9.4272   9.9116
    12.9098  13.3352  13.6052  13.9867  14.5959  15.2823  17.4558  18.5755
    18.5827  18.8860  20.3247  21.4302  23.2019  24.5195  25.4203  25.8205
    28.2133  29.0697  30.9859  31.6943  31.8334  32.1886  33.2533  34.2834
    34.3889  34.7978  35.8969  36.9438  37.7174  37.9154  38.5253  39.7293
    41.2784  41.4031  42.8826  43.3352  43.9943  44.0632  45.2433  45.4269
    45.8712  46.0614  46.2640  47.4854  47.6028  47.7657  47.9862  48.3028
    48.9005  49.1603  49.4998  50.0078  50.3684  51.2862

          k = 0.2000 0.4000 0.3103 (  1925 PWs)   bands (ev):

   -48.8496 -48.8466 -23.1457 -23.1369 -22.9900 -22.9512 -22.8913 -22.8575
    -6.4888  -6.2333  -5.9703  -5.8057   5.4563   5.9116   6.0907   6.2314
     7.2496   7.4907   7.9839   8.3149   8.5700   8.9469   9.4713   9.7836
    13.3944  13.5458  13.7659  14.1258  14.5701  14.9919  17.4014  17.7628
    18.3821  18.9381  21.2413  22.2446  24.1443  25.1945  25.9853  26.0594
    27.8501  27.8953  29.4408  30.0797  31.3740  32.0129  33.3995  34.6127
    34.6988  35.1757  36.4889  36.5248  37.8026  38.2547  38.7280  39.3435
    40.3468  41.2659  42.2133  42.8521  43.6492  44.5673  44.6914  45.2737
    45.4043  46.4159  46.6705  46.9975  47.3193  47.9803  48.0670  48.3861
    49.4190  49.6746  50.4189  50.6528  51.0746  51.8670

          k = 0.2000 0.4000 0.6207 (  1924 PWs)   bands (ev):

   -48.8252 -48.8240 -23.4504 -23.4456 -22.9218 -22.9106 -22.8362 -22.8308
    -6.4900  -6.3422  -5.7281  -5.5541   5.6846   5.8468   6.1918   6.4012
     6.9465   7.5899   8.1041   8.3393   8.7230   9.0932   9.4491   9.8300
    12.7597  13.2901  14.2534  14.3984  14.6880  15.0969  16.9847  17.5043
    18.9180  19.4154  22.1588  22.8588  24.0784  24.8172  26.0051  26.5161
    27.5418  27.8157  28.9716  29.6143  30.2902  31.2241  32.3483  33.1007
    35.0307  35.3689  35.7867  37.0655  38.6768  38.9995  39.6039  39.8174
    40.8404  41.4660  42.3236  42.9804  43.1028  43.7000  44.7112  44.8978
    45.3210  45.7082  45.9560  46.5786  47.6754  48.3965  48.6859  48.9790
    49.3274  49.9153  50.7573  51.1026  52.0114  52.5742

          k = 0.4000 0.4000 0.0000 (  1928 PWs)   bands (ev):

   -48.8633 -48.8619 -23.0573 -23.0403 -22.9377 -22.9336 -22.8709 -22.8531
    -6.8444  -6.7331  -5.5832  -5.4760   4.6790   4.9382   6.2751   6.3141
     7.4592   7.9868   8.3230   8.7955   9.1267   9.2593   9.4338   9.6996
    12.5500  12.8889  13.3826  13.6157  14.9524  15.2069  17.5966  18.0261
    18.8816  19.0559  21.1899  21.7299  23.2689  23.9912  24.7160  24.9352
    28.6579  29.0827  32.1320  32.6959  33.1742  33.1777  33.3240  33.5085
    33.8677  34.0243  35.0718  36.0438  36.7461  38.0615  38.7458  39.8452
    40.5957  41.5473  42.0261  42.5805  43.8936  44.8209  45.5802  45.8454
    45.9599  46.0573  47.2624  47.7772  48.0389  48.3394  48.3737  48.8201
    49.1949  49.4161  50.1971  50.2668  50.5053  51.0393

          k = 0.4000 0.4000 0.3103 (  1936 PWs)   bands (ev):

   -48.8487 -48.8476 -23.1384 -23.1345 -23.0107 -22.9939 -22.8548 -22.8419
    -6.4796  -6.3896  -5.8342  -5.7619   5.2649   5.4634   5.9992   6.0772
     7.8481   8.0139   8.2254   8.6286   8.8952   8.9794   9.1025   9.3433
    13.2685  13.5640  13.5782  13.8216  14.5576  14.7423  17.8481  18.0680
    18.4345  18.5617  21.8120  22.2792  23.7961  24.3326  25.7876  25.8483
    27.7445  27.8922  29.6931  30.0954  31.4048  32.2707  33.7397  34.9262
    34.9756  35.1863  36.6629  37.1292  38.0349  38.7136  39.2293  39.6872
    40.6039  40.6569  42.0136  42.0870  43.6432  44.2151  44.8549  44.9264
    45.4771  45.4912  45.9860  46.6307  47.0632  48.1929  48.3612  48.8128
    49.3882  49.6060  50.8527  50.9874  51.4024  51.8722

          k = 0.4000 0.4000 0.6207 (  1939 PWs)   bands (ev):

   -48.8248 -48.8243 -23.4450 -23.4423 -22.9295 -22.9232 -22.8307 -22.8280
    -6.3519  -6.2047  -5.8715  -5.7103   5.7950   6.0400   6.2907   6.4306
     6.7499   7.1164   7.9461   8.1283   9.0273   9.2146   9.7599   9.9317
    13.1808  13.7032  14.1280  14.2525  14.3071  14.6677  17.4738  18.1868
    18.2427  18.9145  22.1998  22.5170  23.8834  24.6290  25.1771  25.9082
    27.4217  27.6095  29.7485  29.9508  30.9557  31.4729  32.5623  33.0247
    35.8387  35.8446  35.8578  37.0119  38.9830  39.0813  40.8451  41.0662
    41.5384  41.7123  42.6149  43.0558  43.7107  43.7386  44.4962  44.5150
    44.9700  45.0297  45.6258  45.7931  46.7469  46.9239  47.0884  49.0849
    49.4416  49.9481  50.2338  50.9687  51.2323  51.3299

          k =-0.2000 0.2000 0.0000 (  1925 PWs)   bands (ev):

   -48.8675 -48.8578 -23.0490 -22.9787 -22.9497 -22.9311 -22.9218 -22.8587
    -7.0607  -6.4441  -5.7364  -5.4236   4.6682   5.5254   6.2203   6.3106
     6.4226   7.4667   8.3809   8.8483   9.1359   9.5592   9.5863  10.3583
    12.5998  13.3633  13.3961  13.9475  13.9797  15.8083  16.6799  18.5868
    19.0640  19.1724  19.5638  22.0625  22.3124  25.2016  25.8802  26.7134
    27.8688  29.5398  29.8418  32.0186  32.3620  32.4146  32.7493  33.1908
    33.2203  34.6557  36.6404  36.7079  38.3051  39.2646  39.2766  39.6417
    41.0555  41.9774  42.2883  43.5008  43.6475  44.1306  44.5354  44.6818
    44.6826  45.1276  45.8418  47.0499  47.1754  47.5252  47.5800  48.7054
    48.8800  49.2292  49.8989  50.3771  51.4846  51.5109

          k =-0.2000 0.2000-0.3103 (  1918 PWs)   bands (ev):

   -48.8521 -48.8442 -23.1506 -23.1281 -23.0038 -22.9428 -22.8985 -22.8461
    -6.6795  -6.1240  -5.9640  -5.7152   5.2519   5.8831   6.0401   6.4176
     6.8916   7.3229   8.2087   8.2429   8.7887   9.2568   9.4631  10.1239
    13.0732  13.2901  13.7979  14.2024  14.2351  15.4164  17.1652  17.6472
    18.4868  19.4981  20.2990  23.0932  23.5801  25.9100  26.1658  26.3570
    27.7685  27.9581  29.6512  29.9107  31.0993  32.3208  33.1295  34.0962
    34.3381  34.9921  36.6598  37.1385  37.6381  37.7708  39.0046  39.3661
    39.7234  40.6387  41.9672  41.9797  44.0716  44.1029  44.7743  45.1430
    45.6552  46.3976  46.6882  47.4491  47.7689  48.1367  48.1448  48.5722
    48.6907  49.2881  49.8941  50.5755  52.5451  52.6958

          k =-0.2000 0.2000-0.6207 (  1930 PWs)   bands (ev):

   -48.8261 -48.8231 -23.4515 -23.4417 -22.9270 -22.9090 -22.8366 -22.8283
    -6.4894  -6.1653  -5.9289  -5.5521   5.7620   6.0644   6.2974   6.3490
     6.7863   7.8725   7.9203   8.2438   8.5341   8.9438   9.3445   9.6212
    12.8488  14.0349  14.0690  14.2745  14.5175  15.2479  16.9097  17.9990
    18.3058  19.3795  21.9162  23.6354  24.2435  25.7849  26.0750  26.5937
    27.5936  28.0059  28.2798  29.3610  29.9163  30.8593  32.6880  33.3386
    34.4415  35.0031  35.6372  37.6166  38.0676  38.8676  39.1805  39.8207
    40.1007  40.1495  40.9700  43.0452  43.7918  44.3925  44.9233  45.3485
    45.3730  45.9337  46.3701  46.9518  47.3899  47.9382  48.4431  49.2743
    49.4453  50.4519  51.4205  51.6133  52.2082  52.5241

          k =-0.2000 0.4000 0.0000 (  1923 PWs)   bands (ev):

   -48.8645 -48.8608 -23.0354 -22.9906 -22.9410 -22.9303 -22.9205 -22.8745
    -6.8362  -6.5535  -5.7610  -5.5534   4.9305   5.5065   6.3325   6.4021
     6.9024   7.4754   7.9402   8.5804   8.9813   9.3031   9.4272   9.9116
    12.9098  13.3352  13.6051  13.9868  14.5959  15.2823  17.4557  18.5755
    18.5827  18.8859  20.3247  21.4302  23.2019  24.5195  25.4203  25.8206
    28.2133  29.0697  30.9859  31.6943  31.8334  32.1886  33.2533  34.2834
    34.3890  34.7978  35.8969  36.9438  37.7174  37.9154  38.5253  39.7293
    41.2784  41.4031  42.8826  43.3352  43.9943  44.0632  45.2433  45.4269
    45.8712  46.0614  46.2640  47.4854  47.6028  47.7657  47.9862  48.3028
    48.9005  49.1603  49.4998  50.0078  50.3684  51.2862

          k =-0.2000 0.4000-0.3103 (  1925 PWs)   bands (ev):

   -48.8496 -48.8466 -23.1457 -23.1369 -22.9901 -22.9511 -22.8913 -22.8575
    -6.4888  -6.2332  -5.9702  -5.8058   5.4562   5.9116   6.0907   6.2315
     7.2496   7.4907   7.9839   8.3150   8.5700   8.9468   9.4713   9.7836
    13.3944  13.5457  13.7659  14.1258  14.5701  14.9919  17.4014  17.7628
    18.3821  18.9381  21.2413  22.2446  24.1443  25.1945  25.9852  26.0594
    27.8501  27.8953  29.4408  30.0797  31.3740  32.0129  33.3995  34.6127
    34.6988  35.1757  36.4889  36.5248  37.8026  38.2547  38.7280  39.3435
    40.3468  41.2659  42.2133  42.8521  43.6492  44.5673  44.6914  45.2737
    45.4043  46.4159  46.6705  46.9975  47.3193  47.9803  48.0670  48.3861
    49.4190  49.6746  50.4189  50.6528  51.0747  51.8670

          k =-0.2000 0.4000-0.6207 (  1924 PWs)   bands (ev):

   -48.8252 -48.8240 -23.4504 -23.4456 -22.9218 -22.9106 -22.8362 -22.8308
    -6.4899  -6.3423  -5.7282  -5.5540   5.6846   5.8468   6.1919   6.4011
     6.9465   7.5899   8.1041   8.3393   8.7230   9.0932   9.4491   9.8300
    12.7597  13.2901  14.2534  14.3984  14.6879  15.0969  16.9847  17.5043
    18.9180  19.4154  22.1588  22.8588  24.0784  24.8172  26.0051  26.5161
    27.5419  27.8157  28.9716  29.6143  30.2902  31.2241  32.3483  33.1006
    35.0307  35.3689  35.7867  37.0655  38.6768  38.9995  39.6038  39.8175
    40.8403  41.4660  42.3236  42.9804  43.1028  43.7000  44.7112  44.8978
    45.3210  45.7082  45.9560  46.5786  47.6755  48.3965  48.6859  48.9790
    49.3274  49.9153  50.7573  51.1026  52.0113  52.5741

          k =-0.4000 0.4000 0.0000 (  1928 PWs)   bands (ev):

   -48.8633 -48.8619 -23.0573 -23.0403 -22.9377 -22.9336 -22.8709 -22.8531
    -6.8445  -6.7330  -5.5831  -5.4761   4.6789   4.9383   6.2750   6.3141
     7.4592   7.9868   8.3231   8.7955   9.1267   9.2594   9.4337   9.6996
    12.5500  12.8889  13.3826  13.6158  14.9524  15.2069  17.5966  18.0261
    18.8816  19.0559  21.1899  21.7299  23.2689  23.9912  24.7160  24.9353
    28.6579  29.0827  32.1320  32.6959  33.1742  33.1777  33.3240  33.5085
    33.8677  34.0243  35.0718  36.0438  36.7461  38.0616  38.7457  39.8452
    40.5957  41.5473  42.0261  42.5805  43.8936  44.8209  45.5802  45.8454
    45.9599  46.0573  47.2623  47.7773  48.0389  48.3394  48.3737  48.8201
    49.1949  49.4162  50.1971  50.2668  50.5053  51.0395

          k =-0.4000 0.4000-0.3103 (  1936 PWs)   bands (ev):

   -48.8487 -48.8476 -23.1384 -23.1345 -23.0107 -22.9939 -22.8548 -22.8419
    -6.4797  -6.3895  -5.8341  -5.7620   5.2648   5.4635   5.9992   6.0773
     7.8481   8.0138   8.2253   8.6286   8.8953   8.9794   9.1024   9.3432
    13.2685  13.5641  13.5782  13.8216  14.5576  14.7423  17.8481  18.0680
    18.4345  18.5617  21.8120  22.2792  23.7961  24.3326  25.7876  25.8484
    27.7445  27.8922  29.6931  30.0954  31.4048  32.2707  33.7397  34.9262
    34.9756  35.1863  36.6629  37.1292  38.0349  38.7136  39.2293  39.6872
    40.6039  40.6569  42.0136  42.0870  43.6432  44.2151  44.8549  44.9264
    45.4771  45.4911  45.9860  46.6308  47.0632  48.1929  48.3612  48.8128
    49.3881  49.6060  50.8527  50.9874  51.4024  51.8722

          k =-0.4000 0.4000-0.6207 (  1939 PWs)   bands (ev):

   -48.8248 -48.8243 -23.4450 -23.4423 -22.9296 -22.9232 -22.8306 -22.8280
    -6.3518  -6.2048  -5.8716  -5.7103   5.7950   6.0400   6.2906   6.4306
     6.7499   7.1164   7.9460   8.1284   9.0272   9.2147   9.7599   9.9317
    13.1808  13.7032  14.1280  14.2524  14.3071  14.6677  17.4739  18.1867
    18.2426  18.9145  22.1998  22.5169  23.8834  24.6290  25.1771  25.9082
    27.4217  27.6095  29.7485  29.9508  30.9557  31.4729  32.5624  33.0247
    35.8386  35.8446  35.8579  37.0119  38.9830  39.0812  40.8451  41.0661
    41.5384  41.7124  42.6149  43.0558  43.7107  43.7386  44.4962  44.5150
    44.9700  45.0298  45.6258  45.7931  46.7469  46.9239  47.0884  49.0848
    49.4416  49.9482  50.2338  50.9686  51.2323  51.3299

     the Fermi energy is    13.6245 ev

!    total energy              =    -407.76042230 Ry
     Harris-Foulkes estimate   =    -407.76041930 Ry
     estimated scf accuracy    <       0.00000012 Ry

     The total energy is the sum of the following terms:

     one-electron contribution =    -112.10400807 Ry
     hartree contribution      =      85.24426148 Ry
     xc contribution           =     -67.49470881 Ry
     ewald contribution        =    -313.40556580 Ry
     smearing contrib. (-TS)   =      -0.00040110 Ry

     total magnetization       =    -0.00 Bohr mag/cell
     absolute magnetization    =     0.00 Bohr mag/cell

     convergence has been achieved in   9 iterations

     Forces acting on atoms (Ry/au):

     atom    1 type  1   force =     0.00000000    0.00000000    0.00000000
     atom    2 type  1   force =     0.00000000    0.00000000    0.00000000
     atom    3 type  2   force =    -0.04287186   -0.04287186   -0.00000000
     atom    4 type  2   force =     0.04287186    0.04287186   -0.00000000
     atom    5 type  2   force =    -0.04286921    0.04286921    0.00000000
     atom    6 type  2   force =     0.04286921   -0.04286921    0.00000000

     Total force =     0.121256     Total SCF correction =     0.000171


     entering subroutine stress ...

          total   stress  (Ry/bohr**3)                   (kbar)     P=   58.80
   0.00059927  -0.00000019   0.00000000         88.16     -0.03      0.00
  -0.00000019   0.00059927   0.00000000         -0.03     88.16      0.00
   0.00000000   0.00000000   0.00000054          0.00      0.00      0.08

     Volume is kept fixed: isostatic pressure set to zero

     BFGS Geometry Optimization

     number of scf cycles    =   1
     number of bfgs steps    =   0

     enthalpy new            =    -407.7604223018 Ry

     new trust radius        =       0.0606299603 bohr
     new conv_thr            =       0.0000010000 Ry

     new unit-cell volume =    450.54581 a.u.^3 (    66.76400 Ang^3 )

CELL_PARAMETERS (alat=  8.87532960)
   1.005014564  -0.000004688   0.000000000
  -0.000004688   1.005014564   0.000000000
   0.000000000   0.000000000   0.638029521

ATOMIC_POSITIONS (crystal)
Mo0      0.000000000   0.000000000   0.000000000    0   0   0
Mo0      0.500000000   0.500000000   0.500000000    0   0   0
O1       0.300169548   0.300169548   0.000000000    1   1   0
O1      -0.300169548  -0.300169548   0.000000000    1   1   0
O1       0.800169846   0.199830154   0.500000000    1   1   0
O1       0.199830154   0.800169846   0.500000000    1   1   0


     NEW-OLD atomic charge density approx. for the potential
     NEW k-points:
        k(    1) = (   0.0000000   0.0000000   0.0000000), wk =   0.0080000
        k(    2) = (   0.0000000   0.0000000   0.3134651), wk =   0.0160000
        k(    3) = (   0.0000000   0.0000000   0.6269302), wk =   0.0160000
        k(    4) = (   0.0000009   0.1990021   0.0000000), wk =   0.0320000
        k(    5) = (   0.0000009   0.1990021   0.3134651), wk =   0.0640000
        k(    6) = (   0.0000009   0.1990021   0.6269302), wk =   0.0640000
        k(    7) = (   0.0000019   0.3980042   0.0000000), wk =   0.0320000
        k(    8) = (   0.0000019   0.3980042   0.3134651), wk =   0.0640000
        k(    9) = (   0.0000019   0.3980042   0.6269302), wk =   0.0640000
        k(   10) = (   0.1990030   0.1990030   0.0000000), wk =   0.0160000
        k(   11) = (   0.1990030   0.1990030   0.3134651), wk =   0.0320000
        k(   12) = (   0.1990030   0.1990030   0.6269302), wk =   0.0320000
        k(   13) = (   0.1990039   0.3980051   0.0000000), wk =   0.0320000
        k(   14) = (   0.1990039   0.3980051   0.3134651), wk =   0.0640000
        k(   15) = (   0.1990039   0.3980051   0.6269302), wk =   0.0640000
        k(   16) = (   0.3980060   0.3980060   0.0000000), wk =   0.0160000
        k(   17) = (   0.3980060   0.3980060   0.3134651), wk =   0.0320000
        k(   18) = (   0.3980060   0.3980060   0.6269302), wk =   0.0320000
        k(   19) = (  -0.1990012   0.1990012   0.0000000), wk =   0.0160000
        k(   20) = (  -0.1990012   0.1990012  -0.3134651), wk =   0.0320000
        k(   21) = (  -0.1990012   0.1990012  -0.6269302), wk =   0.0320000
        k(   22) = (  -0.1990002   0.3980033   0.0000000), wk =   0.0320000
        k(   23) = (  -0.1990002   0.3980033  -0.3134651), wk =   0.0640000
        k(   24) = (  -0.1990002   0.3980033  -0.6269302), wk =   0.0640000
        k(   25) = (  -0.3980023   0.3980023   0.0000000), wk =   0.0160000
        k(   26) = (  -0.3980023   0.3980023  -0.3134651), wk =   0.0320000
        k(   27) = (  -0.3980023   0.3980023  -0.6269302), wk =   0.0320000
        k(   28) = (   0.0000000   0.0000000   0.0000000), wk =   0.0080000
        k(   29) = (   0.0000000   0.0000000   0.3134651), wk =   0.0160000
        k(   30) = (   0.0000000   0.0000000   0.6269302), wk =   0.0160000
        k(   31) = (   0.0000009   0.1990021   0.0000000), wk =   0.0320000
        k(   32) = (   0.0000009   0.1990021   0.3134651), wk =   0.0640000
        k(   33) = (   0.0000009   0.1990021   0.6269302), wk =   0.0640000
        k(   34) = (   0.0000019   0.3980042   0.0000000), wk =   0.0320000
        k(   35) = (   0.0000019   0.3980042   0.3134651), wk =   0.0640000
        k(   36) = (   0.0000019   0.3980042   0.6269302), wk =   0.0640000
        k(   37) = (   0.1990030   0.1990030   0.0000000), wk =   0.0160000
        k(   38) = (   0.1990030   0.1990030   0.3134651), wk =   0.0320000
        k(   39) = (   0.1990030   0.1990030   0.6269302), wk =   0.0320000
        k(   40) = (   0.1990039   0.3980051   0.0000000), wk =   0.0320000
        k(   41) = (   0.1990039   0.3980051   0.3134651), wk =   0.0640000
        k(   42) = (   0.1990039   0.3980051   0.6269302), wk =   0.0640000
        k(   43) = (   0.3980060   0.3980060   0.0000000), wk =   0.0160000
        k(   44) = (   0.3980060   0.3980060   0.3134651), wk =   0.0320000
        k(   45) = (   0.3980060   0.3980060   0.6269302), wk =   0.0320000
        k(   46) = (  -0.1990012   0.1990012   0.0000000), wk =   0.0160000
        k(   47) = (  -0.1990012   0.1990012  -0.3134651), wk =   0.0320000
        k(   48) = (  -0.1990012   0.1990012  -0.6269302), wk =   0.0320000
        k(   49) = (  -0.1990002   0.3980033   0.0000000), wk =   0.0320000
        k(   50) = (  -0.1990002   0.3980033  -0.3134651), wk =   0.0640000
        k(   51) = (  -0.1990002   0.3980033  -0.6269302), wk =   0.0640000
        k(   52) = (  -0.3980023   0.3980023   0.0000000), wk =   0.0160000
        k(   53) = (  -0.3980023   0.3980023  -0.3134651), wk =   0.0320000
        k(   54) = (  -0.3980023   0.3980023  -0.6269302), wk =   0.0320000

     Check: negative/imaginary core charge=   -0.000007    0.000000

     total cpu time spent up to now is      978.2 secs

     per-process dynamical memory:   222.9 Mb

     Self-consistent Calculation

     iteration #  1     ecut=    40.00 Ry     beta=0.30
     Davidson diagonalization with overlap
     ethr =  1.00E-06,  avg # of iterations =  5.2

     total cpu time spent up to now is     1170.0 secs

     total energy              =    -407.77652262 Ry
     Harris-Foulkes estimate   =    -407.77683954 Ry
     estimated scf accuracy    <       0.00178343 Ry

     total magnetization       =    -0.00 Bohr mag/cell
     absolute magnetization    =     0.00 Bohr mag/cell

     iteration #  2     ecut=    40.00 Ry     beta=0.30
     Davidson diagonalization with overlap
     ethr =  3.43E-06,  avg # of iterations =  1.0

     total cpu time spent up to now is     1250.7 secs

     total energy              =    -407.77648520 Ry
     Harris-Foulkes estimate   =    -407.77658901 Ry
     estimated scf accuracy    <       0.00058763 Ry

     total magnetization       =    -0.00 Bohr mag/cell
     absolute magnetization    =     0.00 Bohr mag/cell

     iteration #  3     ecut=    40.00 Ry     beta=0.30
     Davidson diagonalization with overlap
     ethr =  1.13E-06,  avg # of iterations =  1.0

     total cpu time spent up to now is     1331.6 secs

     total energy              =    -407.77654140 Ry
     Harris-Foulkes estimate   =    -407.77652883 Ry
     estimated scf accuracy    <       0.00008669 Ry

     total magnetization       =    -0.00 Bohr mag/cell
     absolute magnetization    =     0.00 Bohr mag/cell

     iteration #  4     ecut=    40.00 Ry     beta=0.30
     Davidson diagonalization with overlap
     ethr =  1.67E-07,  avg # of iterations =  1.0

     total cpu time spent up to now is     1412.3 secs

     total energy              =    -407.77655186 Ry
     Harris-Foulkes estimate   =    -407.77655483 Ry
     estimated scf accuracy    <       0.00010948 Ry

     total magnetization       =    -0.00 Bohr mag/cell
     absolute magnetization    =     0.00 Bohr mag/cell

     iteration #  5     ecut=    40.00 Ry     beta=0.30
     Davidson diagonalization with overlap
     ethr =  1.67E-07,  avg # of iterations =  1.0

     total cpu time spent up to now is     1493.1 secs

     total energy              =    -407.77656603 Ry
     Harris-Foulkes estimate   =    -407.77656232 Ry
     estimated scf accuracy    <       0.00002732 Ry

     total magnetization       =    -0.00 Bohr mag/cell
     absolute magnetization    =     0.00 Bohr mag/cell

     iteration #  6     ecut=    40.00 Ry     beta=0.30
     Davidson diagonalization with overlap
     ethr =  5.25E-08,  avg # of iterations =  1.0

     total cpu time spent up to now is     1573.9 secs

     End of self-consistent calculation

 ------ SPIN UP ------------


          k = 0.0000 0.0000 0.0000 (  1931 PWs)   bands (ev):

   -48.9205 -48.9061 -23.1220 -23.1220 -22.9489 -22.9141 -22.9141 -22.9080
    -7.2423  -6.4764  -5.4105  -5.4105   4.6261   4.7630   5.6658   6.5378
     6.5379   8.3886   8.3887   8.9633   9.8993  10.0075  10.0075  10.6809
    12.3473  12.4950  13.1520  13.3606  13.3606  16.1827  16.3086  18.0322
    18.7922  18.7923  20.3982  21.9703  21.9704  25.3916  27.0008  27.6039
    28.2098  29.2556  29.6649  29.6650  32.3137  32.8713  33.1787  33.1789
    33.9697  33.9700  35.3335  38.7737  38.9271  38.9272  39.2558  40.0871
    41.6641  42.8206  42.8207  42.9493  43.0617  43.1027  43.1641  43.1644
    43.9252  44.4786  44.4789  45.3503  47.3712  48.9774  48.9777  49.5115
    50.2390  50.2391  50.2667  51.2200  51.2306  51.6826

          k = 0.0000 0.0000 0.3135 (  1911 PWs)   bands (ev):

   -48.9035 -48.8917 -23.1493 -23.1178 -23.0863 -23.0863 -22.8895 -22.8895
    -6.8401  -6.1992  -5.6824  -5.6823   5.1481   5.4224   6.1218   6.3760
     6.3761   7.8651   8.5631   8.9545   8.9545   9.2502   9.2502  10.4341
    12.9729  12.9972  13.3448  13.7929  13.7929  15.8246  16.9002  18.3497
    18.3498  19.0151  20.0666  23.6212  23.6212  25.6024  26.5068  27.4025
    27.7298  28.1821  29.1889  29.1891  30.4009  33.7348  33.7349  34.0135
    34.1852  34.1854  36.4774  37.7930  37.8424  38.6348  38.7040  38.7041
    38.9312  40.0354  40.2217  40.2217  44.3361  44.3365  44.5281  45.7913
    45.8247  46.6410  46.6412  46.8109  47.7986  48.3472  48.3474  48.3507
    49.3582  50.0916  50.0917  52.0030  52.3588  53.3363

          k = 0.0000 0.0000 0.6269 (  1900 PWs)   bands (ev):

   -48.8743 -48.8698 -23.4567 -23.4457 -23.0321 -23.0320 -22.8448 -22.8447
    -6.1071  -6.1071  -6.0961  -5.8356   5.9029   6.1422   6.6469   6.6470
     6.9956   7.3011   7.3984   7.9470   7.9471   9.1349   9.4196   9.4196
    13.4482  14.0166  14.4717  14.4717  14.6177  14.6527  17.6404  18.0980
    18.3047  18.3047  21.9057  24.1860  26.0901  26.0902  26.2117  27.0483
    27.5080  27.7231  28.0591  28.0592  28.5968  30.3724  33.5826  33.5826
    35.1308  35.1308  36.3330  36.8602  36.8754  37.2743  38.7137  38.7137
    39.0584  40.6296  40.6296  42.2935  44.4694  44.4698  44.9223  46.0463
    46.0464  46.7247  46.8493  46.8494  47.2408  47.4266  48.2681  50.3249
    50.3252  50.8964  51.2332  52.0807  52.3118  52.3121

          k = 0.0000 0.1990 0.0000 (  1934 PWs)   bands (ev):

   -48.9192 -48.9075 -23.1084 -23.1074 -22.9450 -22.9303 -22.9293 -22.9118
    -7.1032  -6.4214  -5.5736  -5.5079   4.8879   5.0444   5.9275   6.5691
     6.5793   8.0097   8.1013   8.9034   9.3167   9.6347   9.7693  10.5387
    12.6227  12.8628  13.5402  13.5933  13.6492  15.9896  16.5284  18.5367
    18.5891  18.6172  19.9981  21.8620  22.3003  25.3503  26.6023  27.0538
    27.5713  29.6721  29.8672  30.4582  32.1864  32.4546  32.6811  32.8277
    34.0850  34.7700  36.8252  37.5447  38.4507  38.9868  40.0140  40.0480
    41.2254  41.5694  42.5287  42.9202  42.9365  43.5639  44.1973  44.3156
    44.6220  45.0518  45.2354  46.0264  47.1208  48.4996  48.5185  48.9005
    49.2507  49.5632  49.6724  50.4105  50.5785  51.3536

          k = 0.0000 0.1990 0.3135 (  1919 PWs)   bands (ev):

   -48.9023 -48.8928 -23.1551 -23.1297 -23.0689 -23.0680 -22.8999 -22.8991
    -6.7348  -6.1570  -5.7989  -5.7395   5.3633   5.5609   6.1471   6.3668
     6.7148   7.6865   7.9860   8.6991   8.7552   9.2820   9.3554  10.3252
    12.9731  13.3761  13.5328  13.7620  14.1192  15.6070  17.1084  17.8197
    18.1757  19.7422  19.8470  23.1604  23.8353  25.8582  26.5324  26.8025
    27.6288  28.0277  28.5779  30.3044  30.7807  32.6978  33.5680  33.8886
    34.0991  34.7586  37.0610  37.3522  37.4114  37.9928  38.4562  39.1856
    40.0103  40.3505  40.7487  41.6133  44.3095  44.6271  44.7612  45.1516
    45.7893  46.0268  46.8810  46.9662  48.0232  48.0484  48.2414  48.3610
    48.7865  49.6615  50.3567  51.4162  51.7871  52.3185

          k = 0.0000 0.1990 0.6269 (  1923 PWs)   bands (ev):

   -48.8739 -48.8702 -23.4594 -23.4504 -23.0273 -23.0270 -22.8464 -22.8461
    -6.3652  -6.2940  -5.7966  -5.6552   5.7964   5.9876   6.1572   6.5915
     7.0229   7.3917   7.8376   8.1766   8.3925   9.1876   9.2640   9.4080
    13.0341  13.8137  14.1683  14.5663  14.7812  14.9614  17.3093  17.4230
    18.6503  19.1918  21.8996  23.8018  25.2936  26.1394  26.3226  26.7177
    27.1417  27.7160  28.1588  28.5265  29.7926  30.3780  33.1320  33.3732
    34.5918  35.1296  36.2511  36.4330  37.6389  37.7956  38.8527  39.4739
    40.1194  40.3241  40.5066  43.0011  44.3677  44.8125  44.8670  45.1984
    45.8172  46.0526  46.5576  47.2523  47.5942  47.9495  48.2008  49.6995
    49.9099  50.7025  51.0952  52.0517  52.8162  52.9531

          k = 0.0000 0.3980 0.0000 (  1928 PWs)   bands (ev):

   -48.9155 -48.9111 -23.0783 -23.0768 -22.9635 -22.9620 -22.9347 -22.9220
    -6.7402  -6.3940  -5.8449  -5.7318   5.5092   5.6191   6.6311   6.6431
     6.7272   7.3037   7.3375   7.9804   8.8947   9.1657   9.8028  10.1625
    13.0437  13.1853  14.0182  14.0723  14.3478  15.2371  17.5223  18.2538
    18.2858  18.7728  19.9073  21.1352  23.2777  24.6759  26.3045  26.3386
    27.6945  29.1840  30.0200  30.6848  30.8257  32.2282  33.5687  34.3408
    34.7449  35.6478  36.4970  37.4022  38.5064  38.7501  39.0056  39.2540
    41.0576  41.6173  42.5048  43.0972  43.7800  43.9804  44.3484  44.6486
    45.6100  45.8697  46.9426  47.0521  47.3608  47.6215  47.9418  48.4160
    48.5138  48.5615  49.6361  49.7037  50.1441  50.5392

          k = 0.0000 0.3980 0.3135 (  1920 PWs)   bands (ev):

   -48.8994 -48.8958 -23.1567 -23.1465 -23.0418 -23.0401 -22.9201 -22.9189
    -6.4549  -6.1012  -6.0362  -5.8803   5.8670   5.8824   6.3277   6.3359
     7.0547   7.2593   7.7349   8.2028   8.2171   8.7713   9.7681  10.0754
    13.3005  13.5693  13.9043  13.9990  14.6454  15.1008  17.2506  17.2781
    18.3014  19.1214  20.9679  22.1532  24.5672  25.6870  26.3510  26.4201
    27.6438  27.6589  28.4099  29.9208  31.6732  32.6384  33.3433  34.1688
    34.2770  35.1734  36.3706  36.5271  37.8089  37.8529  38.8302  38.9142
    40.4039  41.6694  42.2885  42.9572  43.6412  44.1646  44.9983  45.1904
    45.8436  46.3261  46.7054  46.7417  47.6785  47.8971  47.9019  48.1757
    49.3282  49.8647  50.5172  51.2562  51.3026  52.4218

          k = 0.0000 0.3980 0.6269 (  1913 PWs)   bands (ev):

   -48.8727 -48.8713 -23.4623 -23.4588 -23.0193 -23.0190 -22.8488 -22.8485
    -6.5026  -6.4742  -5.5655  -5.5116   5.6770   5.7043   5.9602   6.0961
     7.4444   7.8768   7.9189   8.5721   8.7574   8.8031   9.2983   9.7395
    12.5833  12.9743  14.4423  14.5821  15.0199  15.0656  16.8800  17.0281
    19.3139  19.6723  22.1758  22.9410  25.1404  25.5557  26.0046  26.1493
    27.1051  27.7958  28.9335  29.2128  30.1206  30.4263  32.6051  33.0080
    34.9498  35.1975  36.2889  36.4141  38.0221  38.1924  39.2809  39.3819
    40.6739  40.7782  42.4954  42.9775  43.0357  43.8293  44.9997  45.2438
    45.7415  45.8163  46.6535  47.3572  47.6695  47.8447  49.0206  49.8229
    50.4267  50.9636  51.2243  51.3998  51.7881  52.3018

          k = 0.1990 0.1990 0.0000 (  1925 PWs)   bands (ev):

   -48.9180 -48.9086 -23.1265 -23.0753 -22.9645 -22.9418 -22.9149 -22.9112
    -7.0216  -6.3763  -5.7879  -5.4438   4.6902   5.6053   6.1663   6.5160
     6.6452   7.3336   8.3502   8.8730   9.1607   9.5444   9.5936  10.3937
    12.3789  13.1496  13.3731  13.8784  14.0449  15.8019  16.6888  18.2709
    18.7868  19.0671  19.6431  22.0473  22.3186  25.2221  25.7779  26.6928
    27.6349  29.5106  30.0878  31.9529  32.2365  32.7503  32.9975  33.0209
    33.1609  34.4853  36.7918  36.9333  38.3558  39.0680  39.2855  39.6383
    41.2741  42.1223  42.5712  43.1404  43.5680  44.1051  44.5408  44.7120
    44.7895  45.2821  45.7648  46.5916  47.1969  47.4619  47.8532  48.6245
    48.7100  49.7221  49.7788  50.0008  51.4465  51.8040

          k = 0.1990 0.1990 0.3135 (  1918 PWs)   bands (ev):

   -48.9014 -48.8937 -23.1553 -23.1299 -23.0897 -23.0395 -22.9204 -22.8876
    -6.6635  -6.1047  -5.9591  -5.7119   5.2740   5.8712   6.0725   6.4956
     6.8697   7.3527   8.2216   8.2409   8.8270   9.1760   9.4962  10.1750
    13.0085  13.1482  13.6459  14.1636  14.2058  15.4305  17.1158  17.6022
    18.3212  19.5497  20.2616  23.1080  23.6119  25.9388  26.0526  26.4515
    27.5531  28.0212  29.6047  30.0103  31.0052  32.2697  33.0310  34.2296
    34.3142  35.0971  36.6673  37.2021  37.5380  37.7032  39.2064  39.3741
    40.0132  40.5088  41.9809  42.0425  43.8798  44.1504  44.8210  45.0822
    45.5618  46.4508  46.6902  47.5494  47.5858  48.0267  48.0994  48.5892
    48.6254  49.1917  49.9186  50.4820  52.3534  52.7498

          k = 0.1990 0.1990 0.6269 (  1930 PWs)   bands (ev):

   -48.8735 -48.8705 -23.4612 -23.4505 -23.0333 -23.0188 -22.8487 -22.8450
    -6.4926  -6.1318  -5.9437  -5.5285   5.7457   5.9224   6.2781   6.3381
     6.7522   7.7625   8.0212   8.1929   8.4897   9.0210   9.3447   9.6035
    12.8371  14.0577  14.0606  14.2487  14.6803  15.1812  16.8497  18.0996
    18.2768  19.4657  21.9268  23.7534  24.2800  25.8926  25.9198  26.6620
    27.5412  28.0039  28.1109  29.3236  29.8713  30.7449  32.5872  33.2569
    34.4685  34.9443  35.6406  37.3880  38.0393  38.7530  39.2127  39.8787
    40.2264  40.2709  40.9648  43.2257  43.9138  44.2578  45.0280  45.3418
    45.5412  45.7101  46.3292  47.1852  47.2817  47.9263  48.6644  49.2385
    49.4926  50.5659  51.4030  51.6707  52.3451  52.5146

          k = 0.1990 0.3980 0.0000 (  1923 PWs)   bands (ev):

   -48.9151 -48.9115 -23.1147 -23.0816 -22.9595 -22.9335 -22.9251 -22.9232
    -6.7912  -6.4881  -5.8100  -5.5796   4.9593   5.5758   6.5435   6.6241
     6.8581   7.3757   7.8750   8.5228   8.9987   9.3322   9.4402   9.9333
    12.6901  13.1088  13.6356  14.0532  14.5565  15.2622  17.4353  18.2662
    18.5199  18.5962  20.3729  21.4678  23.1873  24.4757  25.3953  25.7941
    28.0326  28.9696  31.2342  31.6471  31.7724  32.5035  33.4768  34.0712
    34.6055  34.6990  35.7257  37.1695  37.4564  38.2064  38.4531  39.6731
    41.1772  41.6514  43.1662  43.1696  43.9652  44.2058  45.1838  45.2722
    45.6603  46.0039  46.2148  47.3880  47.5888  47.8793  47.9078  48.3774
    48.8920  49.2957  49.5808  49.7498  50.6372  51.1201

          k = 0.1990 0.3980 0.3135 (  1925 PWs)   bands (ev):

   -48.8990 -48.8961 -23.1526 -23.1422 -23.0729 -23.0428 -22.9179 -22.8966
    -6.4728  -6.2173  -5.9627  -5.8008   5.4680   5.8867   6.1491   6.3212
     7.2557   7.4825   7.9765   8.3220   8.5332   8.9095   9.5204   9.8383
    13.2941  13.4530  13.6230  14.0780  14.5623  14.9960  17.2718  17.7232
    18.2851  18.9311  21.2553  22.2744  24.1469  25.1343  26.0109  26.1336
    27.7439  27.9411  29.4182  30.0320  31.3999  31.9782  33.3035  34.5489
    34.7793  35.2764  36.4793  36.4982  37.8108  38.2642  38.7990  39.4579
    40.4649  41.2454  42.2818  42.9418  43.6673  44.4298  44.5565  45.2537
    45.4552  46.3677  46.6368  47.0735  47.2748  47.8162  47.9206  48.2934
    49.2448  49.5850  50.2676  50.6085  51.1252  51.8993

          k = 0.1990 0.3980 0.6269 (  1924 PWs)   bands (ev):

   -48.8726 -48.8714 -23.4603 -23.4548 -23.0287 -23.0198 -22.8487 -22.8464
    -6.4916  -6.3334  -5.7178  -5.5305   5.6659   5.8196   6.0363   6.3311
     6.9494   7.6067   8.0887   8.3449   8.6972   9.0743   9.4965   9.8450
    12.7229  13.2315  14.3913  14.4707  14.6847  15.0211  16.9294  17.5023
    18.9885  19.5044  22.2022  22.9352  24.1202  24.7970  25.9723  26.5098
    27.5345  27.7690  28.9955  29.5868  30.2090  31.1053  32.2157  32.9863
    34.9896  35.3749  35.8356  36.9294  38.7711  39.0579  39.6077  39.7363
    40.9396  41.5681  42.2815  43.0166  43.0527  43.6643  44.6777  45.0625
    45.2316  45.5042  46.0143  46.8045  47.6663  48.2236  48.7066  49.0063
    49.4374  50.0466  50.6085  51.1919  52.0592  52.5784

          k = 0.3980 0.3980 0.0000 (  1928 PWs)   bands (ev):

   -48.9139 -48.9126 -23.1339 -23.1189 -22.9302 -22.9263 -22.9222 -22.9064
    -6.8058  -6.6888  -5.6099  -5.4960   4.6966   4.9636   6.4806   6.5250
     7.4412   8.0014   8.2729   8.7840   9.0508   9.2935   9.4781   9.6294
    12.3199  12.6637  13.3949  13.6475  14.9360  15.1964  17.5840  18.0050
    18.5916  18.7781  21.2335  21.7712  23.2419  23.9300  24.6999  24.9098
    28.5670  29.0416  32.3799  32.9957  33.0563  33.1463  33.4078  33.4083
    33.7447  34.2604  35.2359  36.2628  36.5116  37.8300  38.6663  39.8027
    40.1433  41.5105  42.1843  42.5240  44.2409  45.0943  45.6652  45.7830
    45.9985  46.1360  47.1424  47.8625  48.1055  48.1180  48.5493  48.8620
    48.8641  49.2855  49.9584  50.4387  50.5849  50.7954

          k = 0.3980 0.3980 0.3135 (  1936 PWs)   bands (ev):

   -48.8981 -48.8970 -23.1427 -23.1338 -23.0953 -23.0753 -22.8948 -22.8845
    -6.4627  -6.3729  -5.8292  -5.7584   5.2857   5.4729   6.0618   6.1495
[...]
    34.9736  35.4440  35.6751  36.7308  37.3266  38.2143  40.2760  40.8203
    41.1547  41.2458  41.3696  42.8691  43.5395  43.9275  43.9821  44.0847
    44.8130  44.8173  45.5113  46.2193  46.7499  46.7677  48.5944  48.6021
    48.8856  49.2369  49.9976  50.4529  51.3333  51.4879

          k =-0.0000 0.3796 0.3445 (  1920 PWs)   bands (ev):

   -49.2622 -49.2597 -23.5742 -23.5738 -23.2830 -23.2819 -23.1897 -23.1835
    -6.4437  -6.1719  -5.9364  -5.8544   5.6507   5.7235   6.5262   6.6374
     7.1325   7.4382   7.8321   8.2452   8.6109   8.9649   9.8002  10.1844
    12.4448  12.5560  13.4958  13.7094  14.4175  14.9142  16.4000  16.4367
    18.1272  18.9247  21.1492  22.3055  25.0539  25.4797  25.7882  26.4880
    28.0549  28.2208  28.2579  29.6580  32.0177  32.9249  33.1838  33.8462
    34.9132  35.1604  35.1669  36.2255  38.5348  38.8455  39.4690  39.4777
    40.5412  40.9665  41.8003  41.8785  43.2664  44.2304  44.4304  44.8047
    45.8658  46.3747  46.9038  46.9241  47.2622  47.5759  48.2173  48.5201
    48.9412  49.3162  49.7536  49.7770  51.0053  52.1461

          k =-0.0000 0.3796 0.6891 (  1926 PWs)   bands (ev):

   -49.1948 -49.1938 -23.7772 -23.7754 -23.5022 -23.5021 -23.1611 -23.1611
    -6.4094  -6.3786  -5.4335  -5.3858   5.2304   5.2726   5.6055   5.7270
     7.4533   7.6735   8.1273   8.4889   8.7552   8.8569   9.3865   9.8083
    12.0107  12.3517  14.3308  14.5542  15.4103  15.7080  16.2076  16.4225
    19.3378  19.8618  22.4844  23.3011  25.0507  25.2547  25.8159  25.8694
    27.8119  28.0180  29.4214  29.4824  30.3575  30.4828  31.9579  32.6447
    34.0843  34.1340  36.3996  36.9791  37.6616  37.8438  38.4983  39.0190
    41.1975  41.9925  42.5331  42.9322  43.5794  43.9149  44.2421  44.3748
    46.8610  46.9211  47.5199  47.6838  48.2685  48.3409  48.9039  48.9111
    50.5681  50.7528  51.0589  51.2714  52.2233  52.6045

          k = 0.1898 0.1898 0.0000 (  1929 PWs)   bands (ev):

   -49.3048 -49.2984 -23.6311 -23.6093 -23.3534 -23.3300 -22.8188 -22.8027
    -6.9811  -6.2987  -5.9758  -5.5825   4.7633   5.7811   5.9265   6.8761
     7.8644   8.0415   8.0489   9.1405   9.2384   9.5363  10.1587  10.4436
    10.6766  11.4210  13.4620  13.7527  14.4972  15.5608  16.4231  17.1227
    17.6826  18.4588  19.7846  22.1718  22.5106  25.0556  25.1030  26.1050
    27.4052  28.8868  31.0844  31.2831  32.2874  32.4206  32.8392  33.1400
    34.6310  35.7919  36.5523  37.6163  38.5024  38.7427  38.8796  39.8194
    40.4926  41.3934  42.0330  42.7326  42.8392  43.3838  43.8043  45.0602
    45.1975  46.0183  46.1019  46.7059  47.3649  47.6363  48.2381  48.5650
    48.9756  49.5672  49.8032  50.3556  51.2282  51.5729

          k = 0.1898 0.1898 0.3445 (  1926 PWs)   bands (ev):

   -49.2636 -49.2583 -23.5846 -23.5736 -23.2827 -23.2671 -23.1944 -23.1824
    -6.6262  -6.1303  -5.9035  -5.7248   5.4196   5.7200   6.1971   6.7891
     6.7944   7.6651   8.3740   8.5857   8.8447   8.9586   9.5018  10.3514
    12.1855  12.5806  12.7602  13.9135  13.9596  15.2789  16.3383  17.3884
    17.5679  19.2744  20.5021  23.2969  24.0323  25.3960  26.3012  26.3274
    27.8641  28.5129  29.0214  30.2080  30.9662  32.2788  32.4459  33.8225
    34.1701  36.3242  36.6492  37.1353  37.1578  37.8998  39.5049  39.7913
    40.3466  41.3830  42.0579  42.1339  42.6744  43.2641  44.4259  44.6896
    45.1505  46.4337  46.7836  47.1755  47.3872  47.9299  48.5246  48.6081
    48.9429  49.8753  50.0421  50.6631  51.2331  52.2018

          k = 0.1898 0.1898 0.6891 (  1935 PWs)   bands (ev):

   -49.1953 -49.1933 -23.7763 -23.7687 -23.5116 -23.5020 -23.1611 -23.1597
    -6.3989  -5.9811  -5.8875  -5.4018   5.2577   5.6332   6.0860   6.2943
     6.6173   7.1785   8.0659   8.1259   8.3877   9.1301   9.2399   9.7021
    12.4875  13.0225  13.8634  14.6810  15.2444  15.5522  16.2175  17.9967
    18.0177  19.6445  22.1540  24.0347  24.3179  25.0748  26.5794  26.8309
    28.1280  28.1423  28.5782  28.8279  29.7024  31.0513  32.0923  32.8806
    33.8088  34.8106  35.7966  35.8541  37.5814  37.6251  39.3349  39.8068
    40.3328  41.3351  42.6282  43.3333  43.9773  44.4613  44.7325  44.8848
    46.2022  46.3284  46.5754  47.1940  48.0959  48.4382  48.5196  48.5982
    50.1664  50.8332  51.4717  51.6064  52.8064  52.8785

          k = 0.1898 0.3796 0.0000 (  1934 PWs)   bands (ev):

   -49.3029 -49.3004 -23.6250 -23.6113 -23.3521 -23.3374 -22.8139 -22.8077
    -6.7579  -6.4274  -5.9746  -5.7144   5.0275   5.6913   6.6041   7.0336
     7.5254   7.9125   8.0258   8.2011   9.3703   9.6105   9.9115   9.9290
    11.0321  11.4054  14.0315  14.2581  14.5059  15.0138  17.0639  17.1172
    17.4869  17.9452  20.5002  21.5646  23.2506  24.2650  25.1635  25.5085
    27.6171  28.4799  30.9676  31.2577  32.7523  33.8965  33.9002  34.2881
    35.1780  35.3736  35.4118  36.5382  36.9856  38.1702  39.1422  40.3322
    40.3967  40.8984  41.3070  42.9849  43.6101  43.7057  44.3758  45.0247
    45.1336  45.9461  46.3259  46.5270  46.7217  47.1011  47.6376  47.9523
    49.0368  50.1094  50.6175  50.7797  50.9975  51.6641

          k = 0.1898 0.3796 0.3445 (  1919 PWs)   bands (ev):

   -49.2619 -49.2600 -23.5817 -23.5748 -23.2821 -23.2724 -23.1898 -23.1854
    -6.4551  -6.2387  -5.9088  -5.7940   5.5332   5.6920   6.4252   6.6746
     7.2454   7.5483   8.0501   8.3766   8.6769   8.9149   9.6225   9.9990
    12.3642  12.5374  13.2154  13.8304  14.3662  14.8370  16.3931  17.0717
    18.0171  18.7130  21.3822  22.4006  24.2445  24.7887  26.4541  26.7826
    27.7537  28.1864  29.1986  30.1949  31.6395  31.8184  32.8249  34.5606
    34.9633  35.5196  36.0730  36.6155  37.8296  38.0132  38.8279  39.6041
    41.1856  41.3202  41.8622  42.0990  43.4829  44.1521  44.4725  45.1435
    45.3135  45.9376  46.5079  47.0038  47.2611  47.5569  47.7067  48.1435
    48.3957  49.1974  49.8984  51.0458  51.3816  52.1741

          k = 0.1898 0.3796 0.6891 (  1924 PWs)   bands (ev):

   -49.1947 -49.1939 -23.7761 -23.7718 -23.5082 -23.5024 -23.1611 -23.1603
    -6.3955  -6.2270  -5.6143  -5.4055   5.2583   5.5551   5.6676   6.0623
     6.8576   7.4700   7.9976   8.3731   8.6480   8.9414   9.5404   9.8866
    12.2558  12.5522  14.0787  14.4725  15.3713  15.6085  16.2484  17.1115
    19.0013  19.6350  22.4227  23.1653  24.0714  24.3224  26.4768  26.6008
    28.1547  28.3201  29.2691  29.3368  30.2657  30.9342  31.8647  32.7006
    34.4537  34.8477  35.9095  36.6751  38.4558  38.6836  38.9510  39.1804
    41.2977  41.9718  42.3737  42.7702  43.1910  43.6939  44.2839  44.6078
    46.2126  46.3409  46.5692  46.8302  47.5448  47.7190  47.9955  48.7608
    49.6670  50.9210  51.3909  51.7442  51.9879  52.7321

          k = 0.3796 0.3796 0.0000 (  1920 PWs)   bands (ev):

   -49.3021 -49.3012 -23.6345 -23.6268 -23.3362 -23.3278 -22.8120 -22.8096
    -6.7855  -6.6659  -5.7397  -5.6243   4.7688   5.0268   7.2322   7.8425
     7.8802   7.9007   7.9411   8.5925   8.7801   9.3385   9.9103  10.0929
    10.6442  11.0071  13.7712  14.0415  14.7325  15.0063  17.1793  17.4821
    17.5237  17.6749  21.3077  21.8677  23.1499  23.6930  24.7221  24.8748
    28.3114  28.7850  32.0137  32.3245  32.4512  33.1436  34.4182  34.9756
    35.2396  35.4375  35.7302  36.1762  36.5414  37.1130  38.0779  38.3886
    38.7885  40.0459  41.7897  42.6724  43.7637  44.3346  44.9528  45.8969
    46.1430  46.2939  46.5566  47.1735  47.2571  47.5302  47.7390  49.0310
    49.4882  49.5553  51.7080  51.7616  52.0448  52.1830

          k = 0.3796 0.3796 0.3445 (  1904 PWs)   bands (ev):

   -49.2613 -49.2605 -23.5870 -23.5829 -23.2718 -23.2659 -23.1901 -23.1888
    -6.4419  -6.3621  -5.8155  -5.7613   5.4553   5.5375   6.3919   6.5145
     7.7487   7.9545   8.2915   8.3627   8.7013   8.7497   9.4254   9.6566
    12.2379  12.4085  13.2817  13.5125  14.4559  14.6454  17.0533  17.5351
    17.8650  18.2406  21.9336  22.4345  23.6195  23.9728  26.6783  26.7220
    28.0107  28.3616  30.3649  30.5481  30.8302  31.1537  33.3392  35.0727
    35.1756  35.7188  36.3608  36.9561  37.2761  37.8343  38.0802  39.5571
    40.0668  40.9899  43.0072  43.0558  43.8294  44.0207  44.3894  44.6862
    45.6668  46.1793  46.3182  46.6796  46.8506  47.0135  47.2639  47.3838
    48.8530  49.9249  50.5551  50.8408  51.7398  52.5396

          k = 0.3796 0.3796 0.6891 (  1928 PWs)   bands (ev):

   -49.1944 -49.1942 -23.7713 -23.7687 -23.5123 -23.5086 -23.1604 -23.1599
    -6.2304  -6.0094  -5.8519  -5.6071   5.5631   5.9274   6.0478   6.3468
     6.5427   7.0189   7.1590   7.8857   8.8011   8.9886   9.8395   9.9794
    12.7166  12.9619  13.7244  14.0897  15.3197  15.4085  17.0501  17.9554
    18.2824  19.0209  22.4612  22.8117  23.3758  23.5175  26.5899  26.6416
    28.8210  28.8958  29.1706  29.3998  30.6034  31.0463  32.0312  32.5612
    35.4103  35.7174  36.1804  36.5283  38.2331  38.7842  40.0363  40.3770
    41.3074  41.6297  42.2974  43.0835  43.2073  43.7239  43.9016  44.7121
    45.1143  45.2145  45.2797  46.0919  46.4632  46.6526  47.2475  47.3373
    48.7898  49.8997  52.5769  52.6130  53.1065  53.3421

          k =-0.1898 0.1898 0.0000 (  1929 PWs)   bands (ev):

   -49.3048 -49.2984 -23.6311 -23.6093 -23.3534 -23.3300 -22.8188 -22.8027
    -6.9811  -6.2987  -5.9759  -5.5824   4.7633   5.7811   5.9265   6.8761
     7.8645   8.0414   8.0489   9.1405   9.2384   9.5363  10.1588  10.4436
    10.6765  11.4211  13.4620  13.7527  14.4972  15.5608  16.4231  17.1228
    17.6825  18.4589  19.7846  22.1718  22.5106  25.0556  25.1030  26.1050
    27.4052  28.8868  31.0844  31.2832  32.2874  32.4206  32.8392  33.1400
    34.6310  35.7919  36.5523  37.6164  38.5023  38.7426  38.8796  39.8193
    40.4929  41.3934  42.0330  42.7326  42.8391  43.3839  43.8043  45.0603
    45.1975  46.0182  46.1018  46.7059  47.3650  47.6363  48.2382  48.5650
    48.9756  49.5672  49.8032  50.3555  51.2281  51.5728

          k =-0.1898 0.1898-0.3445 (  1926 PWs)   bands (ev):

   -49.2636 -49.2583 -23.5846 -23.5735 -23.2828 -23.2671 -23.1944 -23.1824
    -6.6262  -6.1303  -5.9036  -5.7248   5.4197   5.7200   6.1971   6.7890
     6.7944   7.6650   8.3741   8.5857   8.8447   8.9587   9.5019  10.3514
    12.1854  12.5807  12.7602  13.9135  13.9596  15.2789  16.3383  17.3884
    17.5679  19.2744  20.5022  23.2969  24.0323  25.3959  26.3012  26.3274
    27.8641  28.5129  29.0214  30.2081  30.9663  32.2788  32.4458  33.8225
    34.1701  36.3242  36.6492  37.1352  37.1578  37.8998  39.5049  39.7913
    40.3466  41.3831  42.0578  42.1339  42.6745  43.2641  44.4259  44.6896
    45.1505  46.4338  46.7836  47.1754  47.3872  47.9299  48.5246  48.6081
    48.9429  49.8753  50.0421  50.6631  51.2331  52.2018

          k =-0.1898 0.1898-0.6891 (  1935 PWs)   bands (ev):

   -49.1953 -49.1933 -23.7764 -23.7686 -23.5116 -23.5020 -23.1611 -23.1597
    -6.3990  -5.9810  -5.8874  -5.4019   5.2577   5.6332   6.0860   6.2943
     6.6174   7.1786   8.0659   8.1258   8.3877   9.1301   9.2399   9.7021
    12.4875  13.0225  13.8634  14.6810  15.2444  15.5522  16.2175  17.9965
    18.0177  19.6445  22.1541  24.0347  24.3179  25.0748  26.5794  26.8309
    28.1280  28.1423  28.5781  28.8279  29.7024  31.0513  32.0923  32.8807
    33.8088  34.8106  35.7966  35.8541  37.5815  37.6251  39.3349  39.8069
    40.3327  41.3350  42.6282  43.3333  43.9774  44.4612  44.7324  44.8847
    46.2022  46.3284  46.5754  47.1940  48.0958  48.4383  48.5196  48.5983
    50.1664  50.8332  51.4717  51.6064  52.8065  52.8784

          k =-0.1898 0.3796 0.0000 (  1934 PWs)   bands (ev):

   -49.3029 -49.3004 -23.6250 -23.6113 -23.3521 -23.3374 -22.8139 -22.8077
    -6.7579  -6.4275  -5.9747  -5.7143   5.0275   5.6912   6.6041   7.0336
     7.5254   7.9126   8.0256   8.2012   9.3703   9.6105   9.9115   9.9291
    11.0321  11.4055  14.0315  14.2581  14.5059  15.0138  17.0639  17.1173
    17.4868  17.9452  20.5002  21.5646  23.2506  24.2649  25.1635  25.5085
    27.6171  28.4799  30.9676  31.2577  32.7523  33.8965  33.9002  34.2880
    35.1781  35.3735  35.4118  36.5383  36.9855  38.1702  39.1422  40.3321
    40.3967  40.8984  41.3071  42.9849  43.6101  43.7057  44.3758  45.0248
    45.1336  45.9461  46.3258  46.5269  46.7218  47.1012  47.6376  47.9523
    49.0367  50.1094  50.6175  50.7797  50.9975  51.6641

          k =-0.1898 0.3796-0.3445 (  1919 PWs)   bands (ev):

   -49.2619 -49.2600 -23.5817 -23.5748 -23.2821 -23.2724 -23.1898 -23.1854
    -6.4551  -6.2387  -5.9089  -5.7940   5.5332   5.6920   6.4253   6.6745
     7.2454   7.5483   8.0501   8.3766   8.6769   8.9150   9.6225   9.9990
    12.3642  12.5374  13.2154  13.8304  14.3662  14.8370  16.3931  17.0716
    18.0171  18.7130  21.3823  22.4006  24.2445  24.7887  26.4541  26.7826
    27.7537  28.1864  29.1986  30.1949  31.6395  31.8184  32.8249  34.5606
    34.9633  35.5195  36.0730  36.6155  37.8296  38.0132  38.8279  39.6041
    41.1856  41.3203  41.8621  42.0990  43.4829  44.1520  44.4725  45.1434
    45.3135  45.9377  46.5079  47.0038  47.2612  47.5569  47.7066  48.1435
    48.3956  49.1974  49.8984  51.0457  51.3816  52.1741

          k =-0.1898 0.3796-0.6891 (  1924 PWs)   bands (ev):

   -49.1947 -49.1939 -23.7761 -23.7717 -23.5082 -23.5023 -23.1611 -23.1603
    -6.3956  -6.2270  -5.6142  -5.4056   5.2583   5.5552   5.6676   6.0623
     6.8576   7.4700   7.9977   8.3731   8.6480   8.9414   9.5405   9.8866
    12.2558  12.5521  14.0788  14.4725  15.3713  15.6085  16.2485  17.1115
    19.0013  19.6350  22.4227  23.1653  24.0713  24.3224  26.4768  26.6008
    28.1547  28.3201  29.2692  29.3367  30.2657  30.9342  31.8647  32.7006
    34.4537  34.8476  35.9095  36.6751  38.4558  38.6836  38.9510  39.1804
    41.2977  41.9718  42.3737  42.7702  43.1911  43.6938  44.2840  44.6077
    46.2126  46.3408  46.5692  46.8302  47.5449  47.7189  47.9955  48.7609
    49.6670  50.9210  51.3909  51.7443  51.9878  52.7322

          k =-0.3796 0.3796 0.0000 (  1920 PWs)   bands (ev):

   -49.3021 -49.3012 -23.6345 -23.6268 -23.3362 -23.3278 -22.8120 -22.8096
    -6.7854  -6.6660  -5.7398  -5.6242   4.7689   5.0268   7.2322   7.8426
     7.8801   7.9006   7.9411   8.5925   8.7801   9.3385   9.9102  10.0930
    10.6441  11.0071  13.7712  14.0415  14.7324  15.0064  17.1793  17.4822
    17.5237  17.6749  21.3078  21.8677  23.1499  23.6930  24.7221  24.8748
    28.3114  28.7850  32.0137  32.3245  32.4511  33.1437  34.4183  34.9756
    35.2396  35.4375  35.7301  36.1762  36.5414  37.1129  38.0779  38.3887
    38.7884  40.0460  41.7897  42.6724  43.7636  44.3348  44.9529  45.8970
    46.1428  46.2939  46.5566  47.1735  47.2571  47.5303  47.7391  49.0311
    49.4880  49.5553  51.7079  51.7617  52.0448  52.1830

          k =-0.3796 0.3796-0.3445 (  1904 PWs)   bands (ev):

   -49.2613 -49.2605 -23.5870 -23.5829 -23.2718 -23.2659 -23.1901 -23.1888
    -6.4418  -6.3622  -5.8156  -5.7612   5.4554   5.5375   6.3920   6.5145
     7.7487   7.9545   8.2915   8.3628   8.7013   8.7497   9.4254   9.6566
    12.2379  12.4085  13.2818  13.5125  14.4559  14.6454  17.0534  17.5350
    17.8650  18.2406  21.9336  22.4345  23.6195  23.9728  26.6783  26.7220
    28.0107  28.3616  30.3650  30.5481  30.8302  31.1536  33.3392  35.0727
    35.1756  35.7188  36.3607  36.9562  37.2761  37.8343  38.0802  39.5572
    40.0668  40.9899  43.0071  43.0559  43.8295  44.0206  44.3893  44.6863
    45.6668  46.1793  46.3182  46.6796  46.8507  47.0135  47.2639  47.3838
    48.8530  49.9249  50.5551  50.8408  51.7398  52.5397

          k =-0.3796 0.3796-0.6891 (  1928 PWs)   bands (ev):

   -49.1944 -49.1942 -23.7714 -23.7687 -23.5123 -23.5086 -23.1604 -23.1599
    -6.2304  -6.0093  -5.8519  -5.6072   5.5631   5.9274   6.0478   6.3468
     6.5427   7.0188   7.1591   7.8857   8.8011   8.9885   9.8395   9.9794
    12.7166  12.9619  13.7244  14.0897  15.3197  15.4085  17.0501  17.9553
    18.2824  19.0209  22.4613  22.8117  23.3757  23.5175  26.5899  26.6416
    28.8210  28.8958  29.1707  29.3998  30.6034  31.0462  32.0312  32.5612
    35.4103  35.7174  36.1804  36.5282  38.2330  38.7842  40.0364  40.3769
    41.3074  41.6298  42.2974  43.0834  43.2073  43.7239  43.9016  44.7121
    45.1143  45.2144  45.2796  46.0920  46.4632  46.6527  47.2475  47.3373
    48.7898  49.8997  52.5770  52.6130  53.1064  53.3420

     the Fermi energy is    12.9930 ev

!    total energy              =    -407.83278809 Ry
     Harris-Foulkes estimate   =    -407.83278737 Ry
     estimated scf accuracy    <          6.0E-09 Ry

     The total energy is the sum of the following terms:

     one-electron contribution =    -115.09330483 Ry
     hartree contribution      =      86.35454853 Ry
     xc contribution           =     -67.41077797 Ry
     ewald contribution        =    -311.68320755 Ry
     smearing contrib. (-TS)   =      -0.00004628 Ry

     total magnetization       =    -0.00 Bohr mag/cell
     absolute magnetization    =     0.00 Bohr mag/cell

     convergence has been achieved in  11 iterations

     Forces acting on atoms (Ry/au):

     atom    1 type  1   force =     0.00000000    0.00000000    0.00000000
     atom    2 type  1   force =     0.00000000    0.00000000    0.00000000
     atom    3 type  2   force =    -0.00005628   -0.00005628    0.00000000
     atom    4 type  2   force =     0.00005628    0.00005628    0.00000000
     atom    5 type  2   force =    -0.00006194    0.00006194   -0.00000000
     atom    6 type  2   force =     0.00006194   -0.00006194   -0.00000000

     Total force =     0.000167     Total SCF correction =     0.000006


     entering subroutine stress ...

          total   stress  (Ry/bohr**3)                   (kbar)     P=  -16.45
  -0.00010757  -0.00000002   0.00000000        -15.82     -0.00      0.00
  -0.00000002  -0.00010757   0.00000000         -0.00    -15.82      0.00
   0.00000000   0.00000000  -0.00012043          0.00      0.00    -17.72


     init_run     :     81.86s CPU     82.66s WALL (       2 calls)
     electrons    :   7152.79s CPU   7283.38s WALL (      10 calls)
     update_pot   :    137.55s CPU    137.98s WALL (       8 calls)
     forces       :    234.35s CPU    235.06s WALL (      10 calls)
     stress       :    680.61s CPU    681.78s WALL (      10 calls)

     Called by init_run:
     wfcinit      :     54.60s CPU     55.12s WALL (       2 calls)
     potinit      :      6.18s CPU      6.25s WALL (       2 calls)

     Called by electrons:
     c_bands      :   5587.12s CPU   5707.02s WALL (      74 calls)
     sum_band     :   1211.38s CPU   1218.52s WALL (      74 calls)
     v_of_rho     :     71.89s CPU     72.36s WALL (      82 calls)
     newd         :    316.56s CPU    316.99s WALL (      82 calls)
     mix_rho      :      6.93s CPU      6.97s WALL (      74 calls)

     Called by c_bands:
     init_us_2    :     31.21s CPU     31.47s WALL (    9180 calls)
     cegterg      :   5469.15s CPU   5588.57s WALL (    3996 calls)

     Called by *egterg:
     h_psi        :   3389.37s CPU   3422.17s WALL (   11403 calls)
     s_psi        :    240.60s CPU    241.17s WALL (   11403 calls)
     g_psi        :     21.70s CPU     21.78s WALL (    7299 calls)
     cdiaghg      :    430.22s CPU    431.92s WALL (   10755 calls)

     Called by h_psi:
     add_vuspsi   :    240.88s CPU    241.91s WALL (   11403 calls)

     General routines
     calbec       :    370.33s CPU    382.69s WALL (   16479 calls)
     fft          :     57.88s CPU     58.16s WALL (    2898 calls)
     ffts         :      0.49s CPU      0.50s WALL (     312 calls)
     fftw         :   2332.28s CPU   2320.27s WALL ( 1778250 calls)
     interpolate  :      7.59s CPU      7.62s WALL (     312 calls)

     Parallel routines
     fft_scatter  :    337.90s CPU    314.06s WALL ( 1781460 calls)

     PWSCF        :     2h18m CPU        2h20m WALL


   This run was terminated on:  18:26:16  31Jan2014            

=------------------------------------------------------------------------------=
   JOB DONE.
=------------------------------------------------------------------------------=
