ScientificPython/2.8-dl160g6-numpy-1.7.1-1(15):ERROR:151: Module 'ScientificPython/2.8-dl160g6-numpy-1.7.1-1' depends on one of the module(s) 'numpy/1.7.1-dl160g6-gfortran-internal-1'
ScientificPython/2.8-dl160g6-numpy-1.7.1-1(15):ERROR:102: Tcl command execution failed: prereq numpy/1.7.1-dl160g6-gfortran-internal-1


     Program PWSCF v.5.0.2 (svn rev. 9656) starts on 31May2014 at 13:40:52 

     This program is part of the open-source Quantum ESPRESSO suite
     for quantum simulation of materials; please cite
         "P. Giannozzi et al., J. Phys.:Condens. Matter 21 395502 (2009);
          URL http://www.quantum-espresso.org", 
     in publications or presentations arising from this work. More details at
     http://www.quantum-espresso.org/quote.php

     Parallel version (MPI), running on    16 processors
     K-points division:     npool     =       4
     R & G space division:  proc/nbgrp/npool/nimage =       4

     Current dimensions of program PWSCF are:
     Max number of different atomic species (ntypx) = 10
     Max number of k-points (npk) =  40000
     Max angular momentum in pseudopotentials (lmaxx) =  3
     Reading input from pwscf.in
Warning: card &CELL ignored
Warning: card / ignored

     Subspace diagonalization in iterative solution of the eigenvalue problem:
     a serial algorithm will be used


     Parallelization info
     --------------------
     sticks:   dense  smooth     PW     G-vecs:    dense   smooth      PW
     Min        1386     442    124               330660    59845    8892
     Max        1388     443    125               330662    59871    8899
     Sum        5547    1771    497              1322643   239441   35575



     bravais-lattice index     =            0
     lattice parameter (alat)  =      11.2250  a.u.
     unit-cell volume          =    7005.5484 (a.u.)^3
     number of atoms/cell      =           33
     number of atomic types    =            3
     number of electrons       =       221.00
     number of Kohn-Sham states=          319
     kinetic-energy cutoff     =      40.0000  Ry
     charge density cutoff     =     500.0000  Ry
     convergence threshold     =      1.0E-06
     mixing beta               =       0.7000
     number of iterations used =            8  plain     mixing
     Exchange-correlation      = SLA  PW   PBE  PBE ( 1 4 3 4 0)
     EXX-fraction              =        0.00
     nstep                     =           50


     celldm(1)=  11.224973  celldm(2)=   0.000000  celldm(3)=   0.000000
     celldm(4)=   0.000000  celldm(5)=   0.000000  celldm(6)=   0.000000

     crystal axes: (cart. coord. in units of alat)
               a(1) = (   1.000000   0.000000   0.000000 )  
               a(2) = (   0.000000   1.107086   0.000000 )  
               a(3) = (   0.000000   0.000000   4.474090 )  

     reciprocal axes: (cart. coord. in units 2 pi/alat)
               b(1) = (  1.000000  0.000000  0.000000 )  
               b(2) = (  0.000000  0.903272  0.000000 )  
               b(3) = (  0.000000  0.000000  0.223509 )  


     PseudoPot. # 1 for O  read from file:
     /home/camp/zhonxu/pseudo/o_pbe_v1.01.uspp.F.UPF
     MD5 check sum: 2bcb18d16ea4b960afae9ec6d52f22d2
     Pseudo is Ultrasoft + core correction, Zval =  6.0
     Generated by new atomic code, or converted to UPF format
     Using radial grid of  737 points,  5 beta functions with: 
                l(1) =   0
                l(2) =   0
                l(3) =   1
                l(4) =   1
                l(5) =   2
     Q(r) pseudized with  8 coefficients,  rinner =    0.900   0.900   0.900
                                                       0.900   0.900

     PseudoPot. # 2 for Ti read from file:
     /home/camp/zhonxu/pseudo/ti_pbe_v1.uspp.F.UPF
     MD5 check sum: bcc8f6961b3b91f0cac3ca967d22d0fb
     Pseudo is Ultrasoft + core correction, Zval = 12.0
     Generated by new atomic code, or converted to UPF format
     Using radial grid of  851 points,  6 beta functions with: 
                l(1) =   0
                l(2) =   0
                l(3) =   1
                l(4) =   1
                l(5) =   2
                l(6) =   2
     Q(r) pseudized with  6 coefficients,  rinner =    1.000   1.000   1.000
                                                       1.000   1.000

     PseudoPot. # 3 for H  read from file:
     /home/camp/zhonxu/pseudo/h_pbe_v1.uspp.F.UPF
     MD5 check sum: 3408e3ff4ec8b0a4e358431e7e038a48
     Pseudo is Ultrasoft, Zval =  1.0
     Generated by new atomic code, or converted to UPF format
     Using radial grid of  615 points,  2 beta functions with: 
                l(1) =   0
                l(2) =   0
     Q(r) pseudized with  8 coefficients,  rinner =    0.700

     atomic species   valence    mass     pseudopotential
        O0             6.00    15.99940     O ( 1.00)
        Ti1           12.00    47.88000     Ti( 1.00)
        H2             1.00     1.00794     H ( 1.00)


     Simplified LDA+U calculation (l_max = 2) with parameters (eV):
     atomic species    L          U    alpha       J0     beta
        Ti1            2     1.0000   0.0000   0.0000   0.0000



     No symmetry found



   Cartesian axes

     site n.     atom                  positions (alat units)
         1           O0  tau(   1) = (   0.0000000   0.0000000   1.6912954  )
         2           O0  tau(   2) = (   0.0000000   0.5535432   1.7865040  )
         3           Ti1 tau(   3) = (   0.2500000   0.5535432   2.0182619  )
         4           Ti1 tau(   4) = (   0.0000000   0.0000000   2.0215280  )
         5           O0  tau(   5) = (   0.2500000   0.8967400   2.0132062  )
         6           O0  tau(   6) = (   0.2500000   0.2103464   2.0173223  )
         7           O0  tau(   7) = (   0.0000000   0.5535432   2.2297074  )
         8           O0  tau(   8) = (   0.0000000   0.0000000   2.3520737  )
         9           Ti1 tau(   9) = (   0.2500000   0.0000000   2.5974328  )
        10           Ti1 tau(  10) = (   0.0000000   0.5535432   2.5411040  )
        11           O0  tau(  11) = (   0.2500000   0.7638896   2.5876345  )
        12           O0  tau(  12) = (   0.2500000   0.3431968   2.5923323  )
        13           O0  tau(  13) = (   0.0000000   0.0000000   2.7826601  )
        14           O0  tau(  14) = (   0.5000000   0.0000000   1.6946510  )
        15           O0  tau(  15) = (   0.5000000   0.5535432   1.7849381  )
        16           Ti1 tau(  16) = (   0.7500000   0.5535432   2.0183066  )
        17           Ti1 tau(  17) = (   0.5000000   0.0000000   2.0277470  )
        18           O0  tau(  18) = (   0.7500000   0.8967400   2.0129377  )
        19           O0  tau(  19) = (   0.7500000   0.2103464   2.0175013  )
        20           O0  tau(  20) = (   0.5000000   0.5535432   2.2179405  )
        21           O0  tau(  21) = (   0.5000000   0.0000000   2.3528791  )
        22           Ti1 tau(  22) = (   0.7500000   0.0000000   2.5974328  )
        23           Ti1 tau(  23) = (   0.5000000   0.5535432   2.6181478  )
        24           O0  tau(  24) = (   0.7500000   0.7638896   2.5875898  )
        25           O0  tau(  25) = (   0.7500000   0.3431968   2.5922429  )
        26           O0  tau(  26) = (   0.5000000   0.0000000   2.7811837  )
        27           H2  tau(  27) = (  -0.0004600   0.6930693   1.6949194  )
        28           H2  tau(  28) = (   0.4997200   0.6918293   1.6916086  )
        29           H2  tau(  29) = (   0.1490000   0.0365781   1.6268238  )
        30           H2  tau(  30) = (   0.6482800   0.0381834   1.6297319  )
        31           O0  tau(  31) = (   0.5003100   0.5833902   2.9430115  )
        32           O0  tau(  32) = (   0.4991200   0.3876242   3.0783974  )
        33           H2  tau(  33) = (   0.5003600   0.4575034   3.2295322  )

     number of k points=    10  Methfessel-Paxton smearing, width (Ry)=  0.0100
                       cart. coord. in units 2pi/alat
        k(    1) = (   0.0000000   0.0000000   0.0000000), wk =   0.1250000
        k(    2) = (   0.0000000   0.2258180   0.0000000), wk =   0.2500000
        k(    3) = (   0.0000000  -0.4516359   0.0000000), wk =   0.1250000
        k(    4) = (   0.2500000   0.0000000   0.0000000), wk =   0.2500000
        k(    5) = (   0.2500000   0.2258180   0.0000000), wk =   0.2500000
        k(    6) = (   0.2500000  -0.4516359   0.0000000), wk =   0.2500000
        k(    7) = (  -0.5000000   0.0000000   0.0000000), wk =   0.1250000
        k(    8) = (  -0.5000000   0.2258180   0.0000000), wk =   0.2500000
        k(    9) = (  -0.5000000  -0.4516359   0.0000000), wk =   0.1250000
        k(   10) = (  -0.2500000   0.2258180   0.0000000), wk =   0.2500000

     Dense  grid:  1322643 G-vectors     FFT dimensions: (  80,  90, 360)

     Smooth grid:   239441 G-vectors     FFT dimensions: (  45,  54, 216)

     Largest allocated arrays     est. size (Mb)     dimensions
        Kohn-Sham Wavefunctions        36.83 Mb     (   7566,  319)
        Atomic wavefunctions           19.05 Mb     (   7566,  165)
        NL pseudopotentials            47.80 Mb     (   7566,  414)
        Each V/rho on FFT grid          9.89 Mb     ( 648000)
        Each G-vector array             2.52 Mb     ( 330661)
        G-vector shells                 1.08 Mb     ( 141764)
     Largest temporary arrays     est. size (Mb)     dimensions
        Auxiliary wavefunctions       147.31 Mb     (   7566, 1276)
        Each subspace H/S matrix       24.84 Mb     (1276,1276)
        Each <psi_i|beta_j> matrix      2.02 Mb     (    414,  319)
        Arrays for rho mixing          79.10 Mb     ( 648000,   8)

     Check: negative/imaginary core charge=   -0.000006    0.000000

     Initial potential from superposition of free atoms
     Check: negative starting charge=   -0.102033

     starting charge  212.99957, renormalised to  221.00000

     negative rho (up, down):  0.106E+00 0.000E+00
     Number of +U iterations with fixed ns =  0
     Starting occupations:
 --- enter write_ns ---
 LDA+U parameters:
U( 2)     =  1.00000000
alpha( 2) =  0.00000000
atom    3   Tr[ns(na)] =   2.00000
    eigenvalues: 
  0.200  0.200  0.200  0.200  0.200
    eigenvectors:
  1.000  0.000  0.000  0.000  0.000
  0.000  1.000  0.000  0.000  0.000
  0.000  0.000  1.000  0.000  0.000
  0.000  0.000  0.000  1.000  0.000
  0.000  0.000  0.000  0.000  1.000
    occupations:
  0.200  0.000  0.000  0.000  0.000
  0.000  0.200  0.000  0.000  0.000
  0.000  0.000  0.200  0.000  0.000
  0.000  0.000  0.000  0.200  0.000
  0.000  0.000  0.000  0.000  0.200
atom    4   Tr[ns(na)] =   2.00000
    eigenvalues: 
  0.200  0.200  0.200  0.200  0.200
    eigenvectors:
  1.000  0.000  0.000  0.000  0.000
  0.000  1.000  0.000  0.000  0.000
  0.000  0.000  1.000  0.000  0.000
  0.000  0.000  0.000  1.000  0.000
  0.000  0.000  0.000  0.000  1.000
    occupations:
  0.200  0.000  0.000  0.000  0.000
  0.000  0.200  0.000  0.000  0.000
  0.000  0.000  0.200  0.000  0.000
  0.000  0.000  0.000  0.200  0.000
  0.000  0.000  0.000  0.000  0.200
atom    9   Tr[ns(na)] =   2.00000
    eigenvalues: 
  0.200  0.200  0.200  0.200  0.200
    eigenvectors:
  1.000  0.000  0.000  0.000  0.000
  0.000  1.000  0.000  0.000  0.000
  0.000  0.000  1.000  0.000  0.000
  0.000  0.000  0.000  1.000  0.000
  0.000  0.000  0.000  0.000  1.000
    occupations:
  0.200  0.000  0.000  0.000  0.000
  0.000  0.200  0.000  0.000  0.000
  0.000  0.000  0.200  0.000  0.000
  0.000  0.000  0.000  0.200  0.000
  0.000  0.000  0.000  0.000  0.200
atom   10   Tr[ns(na)] =   2.00000
    eigenvalues: 
  0.200  0.200  0.200  0.200  0.200
    eigenvectors:
  1.000  0.000  0.000  0.000  0.000
  0.000  1.000  0.000  0.000  0.000
  0.000  0.000  1.000  0.000  0.000
  0.000  0.000  0.000  1.000  0.000
  0.000  0.000  0.000  0.000  1.000
    occupations:
  0.200  0.000  0.000  0.000  0.000
  0.000  0.200  0.000  0.000  0.000
  0.000  0.000  0.200  0.000  0.000
  0.000  0.000  0.000  0.200  0.000
  0.000  0.000  0.000  0.000  0.200
atom   16   Tr[ns(na)] =   2.00000
    eigenvalues: 
  0.200  0.200  0.200  0.200  0.200
    eigenvectors:
  1.000  0.000  0.000  0.000  0.000
  0.000  1.000  0.000  0.000  0.000
  0.000  0.000  1.000  0.000  0.000
  0.000  0.000  0.000  1.000  0.000
  0.000  0.000  0.000  0.000  1.000
    occupations:
  0.200  0.000  0.000  0.000  0.000
  0.000  0.200  0.000  0.000  0.000
  0.000  0.000  0.200  0.000  0.000
  0.000  0.000  0.000  0.200  0.000
  0.000  0.000  0.000  0.000  0.200
atom   17   Tr[ns(na)] =   2.00000
    eigenvalues: 
  0.200  0.200  0.200  0.200  0.200
    eigenvectors:
  1.000  0.000  0.000  0.000  0.000
  0.000  1.000  0.000  0.000  0.000
  0.000  0.000  1.000  0.000  0.000
  0.000  0.000  0.000  1.000  0.000
  0.000  0.000  0.000  0.000  1.000
    occupations:
  0.200  0.000  0.000  0.000  0.000
  0.000  0.200  0.000  0.000  0.000
  0.000  0.000  0.200  0.000  0.000
  0.000  0.000  0.000  0.200  0.000
  0.000  0.000  0.000  0.000  0.200
atom   22   Tr[ns(na)] =   2.00000
    eigenvalues: 
  0.200  0.200  0.200  0.200  0.200
    eigenvectors:
  1.000  0.000  0.000  0.000  0.000
  0.000  1.000  0.000  0.000  0.000
  0.000  0.000  1.000  0.000  0.000
  0.000  0.000  0.000  1.000  0.000
  0.000  0.000  0.000  0.000  1.000
    occupations:
  0.200  0.000  0.000  0.000  0.000
  0.000  0.200  0.000  0.000  0.000
  0.000  0.000  0.200  0.000  0.000
  0.000  0.000  0.000  0.200  0.000
  0.000  0.000  0.000  0.000  0.200
atom   23   Tr[ns(na)] =   2.00000
    eigenvalues: 
  0.200  0.200  0.200  0.200  0.200
    eigenvectors:
  1.000  0.000  0.000  0.000  0.000
  0.000  1.000  0.000  0.000  0.000
  0.000  0.000  1.000  0.000  0.000
  0.000  0.000  0.000  1.000  0.000
  0.000  0.000  0.000  0.000  1.000
    occupations:
  0.200  0.000  0.000  0.000  0.000
  0.000  0.200  0.000  0.000  0.000
  0.000  0.000  0.200  0.000  0.000
  0.000  0.000  0.000  0.200  0.000
  0.000  0.000  0.000  0.000  0.200
N of occupied +U levels =  16.0000000
 --- exit write_ns ---
 Atomic wfc used for LDA+U Projector are NOT orthogonalized
     Starting wfc are  165 randomized atomic wfcs

     total cpu time spent up to now is       99.1 secs

     per-process dynamical memory:   384.2 Mb

     Self-consistent Calculation

     iteration #  1     ecut=    40.00 Ry     beta=0.70
     Davidson diagonalization with overlap
     ethr =  1.00E-02,  avg # of iterations =  6.0
 --- enter write_ns ---
 LDA+U parameters:
U( 2)     =  1.00000000
alpha( 2) =  0.00000000
atom    3   Tr[ns(na)] =   2.07937
    eigenvalues: 
  0.119  0.135  0.155  0.293  0.337
    eigenvectors:
  0.104  0.048  0.698  0.149  0.001
  0.001  0.003  0.001  0.022  0.974
  0.833  0.010  0.156  0.001  0.000
  0.028  0.009  0.113  0.828  0.021
  0.033  0.931  0.032  0.000  0.004
    occupations:
  0.171  0.002 -0.010  0.052  0.002
  0.002  0.335  0.001 -0.008  0.012
 -0.010  0.001  0.125  0.010 -0.004
  0.052 -0.008  0.010  0.272 -0.001
  0.002  0.012 -0.004 -0.001  0.136
atom    4   Tr[ns(na)] =   2.48712
    eigenvalues: 
  0.135  0.172  0.232  0.328  0.376
    eigenvectors:
  0.010  0.014  0.000  0.000  0.976
  0.010  0.902  0.073  0.000  0.015
  0.001  0.071  0.927  0.000  0.001
  0.980  0.013  0.000  0.000  0.008
  0.000  0.000  0.000  1.000  0.000
    occupations:
  0.371  0.025  0.007 -0.021  0.000
  0.025  0.179 -0.015  0.001 -0.001
  0.007 -0.015  0.228 -0.000  0.000
 -0.021  0.001 -0.000  0.137 -0.000
  0.000 -0.001  0.000 -0.000  0.328
atom    9   Tr[ns(na)] =   2.41845
    eigenvalues: 
  0.160  0.187  0.192  0.318  0.352
    eigenvectors:
  0.000  0.079  0.870  0.051  0.000
  0.000  0.000  0.000  0.003  0.997
  0.944  0.050  0.006  0.000  0.000
  0.000  0.005  0.046  0.946  0.003
  0.056  0.866  0.078  0.000  0.000
    occupations:
  0.198  0.000  0.001  0.028  0.001
  0.000  0.352  0.000 -0.002  0.000
  0.001  0.000  0.161  0.000  0.006
  0.028 -0.002  0.000  0.312 -0.001
  0.001  0.000  0.006 -0.001  0.186
atom   10   Tr[ns(na)] =   2.70013
    eigenvalues: 
  0.156  0.214  0.258  0.325  0.397
    eigenvectors:
  0.001  0.000  0.992  0.000  0.007
  0.000  1.000  0.000  0.000  0.000
  0.996  0.000  0.001  0.000  0.003
  0.003  0.000  0.007  0.000  0.990
  0.000  0.000  0.000  1.000  0.000
    occupations:
  0.259  0.000 -0.002  0.012 -0.000
  0.000  0.214 -0.000  0.001  0.001
 -0.002 -0.000  0.156  0.014 -0.000
  0.012  0.001  0.014  0.395 -0.000
 -0.000  0.001 -0.000 -0.000  0.325
atom   16   Tr[ns(na)] =   2.07993
    eigenvalues: 
  0.119  0.135  0.156  0.293  0.337
    eigenvectors:
  0.105  0.051  0.694  0.149  0.001
  0.001  0.003  0.001  0.022  0.974
  0.829  0.011  0.159  0.001  0.000
  0.028  0.010  0.113  0.828  0.022
  0.037  0.925  0.034  0.000  0.004
    occupations:
  0.171 -0.002 -0.010  0.052 -0.002
 -0.002  0.335 -0.001  0.008  0.012
 -0.010 -0.001  0.125  0.010  0.004
  0.052  0.008  0.010  0.272  0.001
 -0.002  0.012  0.004  0.001  0.136
atom   17   Tr[ns(na)] =   2.47653
    eigenvalues: 
  0.134  0.172  0.229  0.327  0.376
    eigenvectors:
  0.010  0.013  0.000  0.000  0.977
  0.009  0.898  0.080  0.000  0.014
  0.000  0.078  0.920  0.000  0.001
  0.981  0.011  0.000  0.000  0.008
  0.000  0.000  0.000  1.000  0.000
    occupations:
  0.371  0.024  0.007 -0.022  0.000
  0.024  0.179 -0.015  0.001 -0.001
  0.007 -0.015  0.225 -0.000  0.000
 -0.022  0.001 -0.000  0.137 -0.000
  0.000 -0.001  0.000 -0.000  0.327
atom   22   Tr[ns(na)] =   2.41871
    eigenvalues: 
  0.160  0.188  0.192  0.318  0.352
    eigenvectors:
  0.000  0.067  0.882  0.051  0.000
  0.000  0.000  0.000  0.002  0.998
  0.945  0.050  0.005  0.000  0.000
  0.000  0.004  0.047  0.947  0.002
  0.055  0.879  0.067  0.000  0.000
    occupations:
  0.198 -0.000  0.001  0.028 -0.001
 -0.000  0.352 -0.000  0.002  0.000
  0.001 -0.000  0.161  0.000 -0.006
  0.028  0.002  0.000  0.312  0.001
 -0.001  0.000 -0.006  0.001  0.186
atom   23   Tr[ns(na)] =   2.59252
    eigenvalues: 
  0.163  0.185  0.199  0.315  0.435
    eigenvectors:
  0.029  0.042  0.000  0.000  0.928
  0.000  0.000  1.000  0.000  0.000
  0.666  0.268  0.000  0.000  0.066
  0.304  0.689  0.000  0.000  0.006
  0.000  0.000  0.000  1.000  0.000
    occupations:
  0.416  0.001  0.065  0.017 -0.000
  0.001  0.199  0.000  0.000 -0.001
  0.065  0.000  0.186  0.015 -0.000
  0.017  0.000  0.015  0.179 -0.000
 -0.000 -0.001 -0.000 -0.000  0.315
N of occupied +U levels =  19.2527773
 --- exit write_ns ---

     negative rho (up, down):  0.111E+00 0.000E+00

     total cpu time spent up to now is      404.1 secs

     total energy              =   -1593.27274960 Ry
     Harris-Foulkes estimate   =   -1601.71870312 Ry
     estimated scf accuracy    <      10.19173370 Ry

     iteration #  2     ecut=    40.00 Ry     beta=0.70
     Davidson diagonalization with overlap
     ethr =  4.61E-03,  avg # of iterations =  5.7

     negative rho (up, down):  0.108E+00 0.000E+00

     total cpu time spent up to now is      641.9 secs

     total energy              =   -1537.49229355 Ry
     Harris-Foulkes estimate   =   -1628.71100444 Ry
     estimated scf accuracy    <    1006.73814945 Ry

     iteration #  3     ecut=    40.00 Ry     beta=0.70
     Davidson diagonalization with overlap
     ethr =  4.61E-03,  avg # of iterations =  5.0

     negative rho (up, down):  0.105E+00 0.000E+00

     total cpu time spent up to now is      902.3 secs

     total energy              =   -1577.07990830 Ry
     Harris-Foulkes estimate   =   -1612.32253250 Ry
     estimated scf accuracy    <     455.74548852 Ry

     iteration #  4     ecut=    40.00 Ry     beta=0.70
     Davidson diagonalization with overlap
     ethr =  4.61E-03,  avg # of iterations =  3.5

     negative rho (up, down):  0.922E-01 0.000E+00

     total cpu time spent up to now is     1096.7 secs

     total energy              =   -1588.43937599 Ry
     Harris-Foulkes estimate   =   -1607.18504632 Ry
     estimated scf accuracy    <     373.35144868 Ry

     iteration #  5     ecut=    40.00 Ry     beta=0.70
     Davidson diagonalization with overlap
     ethr =  4.61E-03,  avg # of iterations =  3.8

     negative rho (up, down):  0.913E-01 0.000E+00

     total cpu time spent up to now is     1278.3 secs

     total energy              =   -1599.79800341 Ry
     Harris-Foulkes estimate   =   -1601.56983007 Ry
     estimated scf accuracy    <       6.28937094 Ry

     iteration #  6     ecut=    40.00 Ry     beta=0.70
     Davidson diagonalization with overlap
     ethr =  2.85E-03,  avg # of iterations =  3.1

     negative rho (up, down):  0.920E-01 0.000E+00

     total cpu time spent up to now is     1449.0 secs

     total energy              =   -1600.10893791 Ry
     Harris-Foulkes estimate   =   -1600.40960378 Ry
     estimated scf accuracy    <       2.20496764 Ry

     iteration #  7     ecut=    40.00 Ry     beta=0.70
     Davidson diagonalization with overlap
     ethr =  9.98E-04,  avg # of iterations =  3.9

     negative rho (up, down):  0.941E-01 0.000E+00

     total cpu time spent up to now is     1620.6 secs

     total energy              =   -1600.05809372 Ry
     Harris-Foulkes estimate   =   -1600.23117058 Ry
     estimated scf accuracy    <       1.36640592 Ry

     iteration #  8     ecut=    40.00 Ry     beta=0.70
     Davidson diagonalization with overlap
     ethr =  6.18E-04,  avg # of iterations =  1.3

     negative rho (up, down):  0.953E-01 0.000E+00

     total cpu time spent up to now is     1783.5 secs

     total energy              =   -1600.00510603 Ry
     Harris-Foulkes estimate   =   -1600.13547724 Ry
     estimated scf accuracy    <       1.20747484 Ry

     iteration #  9     ecut=    40.00 Ry     beta=0.70
     Davidson diagonalization with overlap
     ethr =  5.46E-04,  avg # of iterations =  2.8

     negative rho (up, down):  0.966E-01 0.000E+00

     total cpu time spent up to now is     1951.0 secs

     total energy              =   -1599.97991564 Ry
     Harris-Foulkes estimate   =   -1600.04782323 Ry
     estimated scf accuracy    <       1.05482543 Ry

     iteration # 10     ecut=    40.00 Ry     beta=0.70
     Davidson diagonalization with overlap
     ethr =  4.77E-04,  avg # of iterations =  2.6

     negative rho (up, down):  0.982E-01 0.000E+00

     total cpu time spent up to now is     2117.1 secs

     total energy              =   -1599.92340958 Ry
     Harris-Foulkes estimate   =   -1600.00694521 Ry
     estimated scf accuracy    <       1.04871475 Ry

     iteration # 11     ecut=    40.00 Ry     beta=0.70
     Davidson diagonalization with overlap
     ethr =  4.75E-04,  avg # of iterations =  4.1

     negative rho (up, down):  0.110E+00 0.000E+00

     total cpu time spent up to now is     2290.0 secs

     total energy              =   -1599.63210092 Ry
     Harris-Foulkes estimate   =   -1599.96273084 Ry
     estimated scf accuracy    <       0.74994278 Ry

     iteration # 12     ecut=    40.00 Ry     beta=0.70
     Davidson diagonalization with overlap
     ethr =  3.39E-04,  avg # of iterations =  6.9

     negative rho (up, down):  0.100E+00 0.000E+00

     total cpu time spent up to now is     2521.5 secs

     total energy              =   -1599.39848220 Ry
     Harris-Foulkes estimate   =   -1600.00710409 Ry
     estimated scf accuracy    <       2.04327909 Ry

     iteration # 13     ecut=    40.00 Ry     beta=0.70
     Davidson diagonalization with overlap
     ethr =  3.39E-04,  avg # of iterations =  3.4

     negative rho (up, down):  0.996E-01 0.000E+00

     total cpu time spent up to now is     2698.8 secs

     total energy              =   -1599.65647750 Ry
     Harris-Foulkes estimate   =   -1599.82690776 Ry
     estimated scf accuracy    <       0.57827187 Ry

     iteration # 14     ecut=    40.00 Ry     beta=0.70
     Davidson diagonalization with overlap
     ethr =  2.62E-04,  avg # of iterations =  4.9

     negative rho (up, down):  0.100E+00 0.000E+00

     total cpu time spent up to now is     2885.1 secs

     total energy              =   -1599.65077746 Ry
     Harris-Foulkes estimate   =   -1599.85275107 Ry
     estimated scf accuracy    <       0.77750079 Ry

     iteration # 15     ecut=    40.00 Ry     beta=0.70
     Davidson diagonalization with overlap
     ethr =  2.62E-04,  avg # of iterations =  4.4

     negative rho (up, down):  0.101E+00 0.000E+00

     total cpu time spent up to now is     3065.6 secs

     total energy              =   -1599.73009358 Ry
     Harris-Foulkes estimate   =   -1599.77544185 Ry
     estimated scf accuracy    <       0.24700690 Ry

     iteration # 16     ecut=    40.00 Ry     beta=0.70
     Davidson diagonalization with overlap
     ethr =  1.12E-04,  avg # of iterations =  3.5

     negative rho (up, down):  0.101E+00 0.000E+00

     total cpu time spent up to now is     3239.8 secs

     total energy              =   -1599.74259729 Ry
     Harris-Foulkes estimate   =   -1599.75792277 Ry
     estimated scf accuracy    <       0.05467235 Ry

     iteration # 17     ecut=    40.00 Ry     beta=0.70
     Davidson diagonalization with overlap
     ethr =  2.47E-05,  avg # of iterations =  2.9

     negative rho (up, down):  0.101E+00 0.000E+00

     total cpu time spent up to now is     3404.8 secs

     total energy              =   -1599.74854260 Ry
     Harris-Foulkes estimate   =   -1599.75372742 Ry
     estimated scf accuracy    <       0.02199116 Ry

     iteration # 18     ecut=    40.00 Ry     beta=0.70
     Davidson diagonalization with overlap
     ethr =  9.95E-06,  avg # of iterations =  3.1

     negative rho (up, down):  0.102E+00 0.000E+00

     total cpu time spent up to now is     3576.0 secs

     total energy              =   -1599.74973667 Ry
     Harris-Foulkes estimate   =   -1599.75197715 Ry
     estimated scf accuracy    <       0.04733072 Ry

     iteration # 19     ecut=    40.00 Ry     beta=0.70
     Davidson diagonalization with overlap
     ethr =  9.95E-06,  avg # of iterations =  1.0

     negative rho (up, down):  0.103E+00 0.000E+00

     total cpu time spent up to now is     3738.9 secs

     total energy              =   -1599.75026326 Ry
     Harris-Foulkes estimate   =   -1599.75132635 Ry
     estimated scf accuracy    <       0.00952885 Ry

     iteration # 20     ecut=    40.00 Ry     beta=0.70
     Davidson diagonalization with overlap
     ethr =  4.31E-06,  avg # of iterations =  5.5

     negative rho (up, down):  0.102E+00 0.000E+00

     total cpu time spent up to now is     3917.1 secs

     total energy              =   -1599.74872150 Ry
     Harris-Foulkes estimate   =   -1599.75262852 Ry
     estimated scf accuracy    <       0.04953965 Ry

     iteration # 21     ecut=    40.00 Ry     beta=0.70
     Davidson diagonalization with overlap
     ethr =  4.31E-06,  avg # of iterations =  1.3

     negative rho (up, down):  0.103E+00 0.000E+00

     total cpu time spent up to now is     4082.3 secs

     total energy              =   -1599.75078116 Ry
     Harris-Foulkes estimate   =   -1599.75104277 Ry
     estimated scf accuracy    <       0.00220641 Ry

     iteration # 22     ecut=    40.00 Ry     beta=0.70
     Davidson diagonalization with overlap
     ethr =  9.98E-07,  avg # of iterations =  2.0

     negative rho (up, down):  0.103E+00 0.000E+00

     total cpu time spent up to now is     4251.6 secs

     total energy              =   -1599.75075158 Ry
     Harris-Foulkes estimate   =   -1599.75104134 Ry
     estimated scf accuracy    <       0.00191424 Ry

     iteration # 23     ecut=    40.00 Ry     beta=0.70
     Davidson diagonalization with overlap
     ethr =  8.66E-07,  avg # of iterations =  1.4

     negative rho (up, down):  0.103E+00 0.000E+00

     total cpu time spent up to now is     4421.0 secs

     total energy              =   -1599.75083405 Ry
     Harris-Foulkes estimate   =   -1599.75100639 Ry
     estimated scf accuracy    <       0.00417438 Ry

     iteration # 24     ecut=    40.00 Ry     beta=0.70
     Davidson diagonalization with overlap
     ethr =  8.66E-07,  avg # of iterations =  1.0

     negative rho (up, down):  0.103E+00 0.000E+00

     total cpu time spent up to now is     4588.5 secs

     total energy              =   -1599.75090857 Ry
     Harris-Foulkes estimate   =   -1599.75092083 Ry
     estimated scf accuracy    <       0.00010769 Ry

     iteration # 25     ecut=    40.00 Ry     beta=0.70
     Davidson diagonalization with overlap
     ethr =  4.87E-08,  avg # of iterations =  1.0

     negative rho (up, down):  0.103E+00 0.000E+00

     total cpu time spent up to now is     4750.5 secs

     total energy              =   -1599.75090925 Ry
     Harris-Foulkes estimate   =   -1599.75091670 Ry
     estimated scf accuracy    <       0.00004075 Ry

     iteration # 26     ecut=    40.00 Ry     beta=0.70
     Davidson diagonalization with overlap
     ethr =  1.84E-08,  avg # of iterations =  1.7

     negative rho (up, down):  0.103E+00 0.000E+00

     total cpu time spent up to now is     4914.2 secs

     total energy              =   -1599.75090462 Ry
     Harris-Foulkes estimate   =   -1599.75092436 Ry
     estimated scf accuracy    <       0.00015006 Ry

     iteration # 27     ecut=    40.00 Ry     beta=0.70
     Davidson diagonalization with overlap
     ethr =  1.84E-08,  avg # of iterations =  1.0

     negative rho (up, down):  0.103E+00 0.000E+00

     total cpu time spent up to now is     5076.1 secs

     total energy              =   -1599.75091402 Ry
     Harris-Foulkes estimate   =   -1599.75091480 Ry
     estimated scf accuracy    <       0.00000391 Ry

     iteration # 28     ecut=    40.00 Ry     beta=0.70
     Davidson diagonalization with overlap
     ethr =  1.77E-09,  avg # of iterations =  1.1

     negative rho (up, down):  0.103E+00 0.000E+00

     total cpu time spent up to now is     5232.9 secs

     total energy              =   -1599.75091406 Ry
     Harris-Foulkes estimate   =   -1599.75091480 Ry
     estimated scf accuracy    <       0.00000591 Ry

     iteration # 29     ecut=    40.00 Ry     beta=0.70
     Davidson diagonalization with overlap
     ethr =  1.77E-09,  avg # of iterations =  1.0

     negative rho (up, down):  0.103E+00 0.000E+00

     total cpu time spent up to now is     5389.3 secs

     total energy              =   -1599.75091436 Ry
     Harris-Foulkes estimate   =   -1599.75091451 Ry
     estimated scf accuracy    <       0.00000301 Ry

     iteration # 30     ecut=    40.00 Ry     beta=0.70
     Davidson diagonalization with overlap
     ethr =  1.36E-09,  avg # of iterations =  1.0

     negative rho (up, down):  0.103E+00 0.000E+00

     total cpu time spent up to now is     5546.3 secs

     End of self-consistent calculation
 --- enter write_ns ---
 LDA+U parameters:
U( 2)     =  1.00000000
alpha( 2) =  0.00000000
atom    3   Tr[ns(na)] =   2.83219
    eigenvalues: 
  0.188  0.197  0.221  0.390  0.420
    eigenvectors:
  0.663  0.111  0.038  0.172  0.017
  0.003  0.001  0.001  0.149  0.846
  0.143  0.245  0.612  0.001  0.000
  0.159  0.022  0.006  0.679  0.135
  0.032  0.621  0.343  0.000  0.002
    occupations:
  0.229  0.005 -0.005  0.079  0.002
  0.005  0.414  0.002 -0.014  0.011
 -0.005  0.002  0.211  0.007 -0.012
  0.079 -0.014  0.007  0.357 -0.001
  0.002  0.011 -0.012 -0.001  0.206
atom    4   Tr[ns(na)] =   2.93427
    eigenvalues: 
  0.179  0.214  0.233  0.415  0.426
    eigenvectors:
  0.006  0.003  0.000  0.000  0.991
  0.001  0.912  0.084  0.000  0.003
  0.000  0.083  0.916  0.000  0.000
  0.993  0.002  0.000  0.000  0.006
  0.000  0.000  0.000  1.000  0.000
    occupations:
  0.424  0.012  0.004 -0.019 -0.000
  0.012  0.216 -0.005  0.000 -0.002
  0.004 -0.005  0.232  0.001 -0.000
 -0.019  0.000  0.001  0.180 -0.000
 -0.000 -0.002 -0.000 -0.000  0.415
atom    9   Tr[ns(na)] =   2.92273
    eigenvalues: 
  0.186  0.226  0.244  0.376  0.431
    eigenvectors:
  0.000  0.000  0.921  0.078  0.000
  0.000  0.000  0.000  0.000  1.000
  1.000  0.000  0.000  0.000  0.000
  0.000  0.000  0.078  0.921  0.000
  0.000  0.999  0.001  0.000  0.000
    occupations:
  0.254  0.000  0.001  0.036  0.000
  0.000  0.430 -0.000 -0.001  0.000
  0.001 -0.000  0.186  0.001 -0.000
  0.036 -0.001  0.001  0.365 -0.000
  0.000  0.000 -0.000 -0.000  0.226
atom   10   Tr[ns(na)] =   2.86863
    eigenvalues: 
  0.187  0.233  0.244  0.342  0.428
    eigenvectors:
  0.015  0.000  0.000  0.985  0.000
  0.000  0.000  1.000  0.000  0.000
  0.000  1.000  0.000  0.000  0.000
  0.985  0.000  0.000  0.015  0.000
  0.000  0.000  0.000  0.000  1.000
    occupations:
  0.339 -0.000 -0.001 -0.019 -0.000
 -0.000  0.244 -0.000 -0.000  0.002
 -0.001 -0.000  0.233 -0.001  0.000
 -0.019 -0.000 -0.001  0.190  0.000
 -0.000  0.002  0.000  0.000  0.428
atom   16   Tr[ns(na)] =   2.83245
    eigenvalues: 
  0.188  0.197  0.221  0.390  0.420
    eigenvectors:
  0.674  0.100  0.038  0.172  0.017
  0.003  0.001  0.001  0.148  0.847
  0.134  0.250  0.615  0.000  0.000
  0.162  0.019  0.006  0.679  0.134
  0.027  0.630  0.341  0.000  0.002
    occupations:
  0.229 -0.005 -0.005  0.079 -0.002
 -0.005  0.414 -0.002  0.014  0.011
 -0.005 -0.002  0.211  0.007  0.011
  0.079  0.014  0.007  0.357  0.001
 -0.002  0.011  0.011  0.001  0.206
atom   17   Tr[ns(na)] =   2.93318
    eigenvalues: 
  0.178  0.215  0.234  0.411  0.428
    eigenvectors:
  0.006  0.003  0.000  0.000  0.991
  0.001  0.921  0.076  0.000  0.003
  0.000  0.076  0.924  0.000  0.000
  0.993  0.001  0.000  0.000  0.005
  0.000  0.000  0.000  1.000  0.000
    occupations:
  0.426  0.011  0.004 -0.018 -0.000
  0.011  0.217 -0.005  0.000 -0.002
  0.004 -0.005  0.233  0.001 -0.000
 -0.018  0.000  0.001  0.179 -0.000
 -0.000 -0.002 -0.000 -0.000  0.411
atom   22   Tr[ns(na)] =   2.92272
    eigenvalues: 
  0.186  0.226  0.244  0.376  0.431
    eigenvectors:
  0.000  0.000  0.922  0.078  0.000
  0.000  0.000  0.000  0.000  1.000
  1.000  0.000  0.000  0.000  0.000
  0.000  0.000  0.078  0.922  0.000
  0.000  1.000  0.000  0.000  0.000
    occupations:
  0.254 -0.001  0.001  0.036 -0.000
 -0.001  0.430  0.000  0.001  0.000
  0.001  0.000  0.186  0.001  0.000
  0.036  0.001  0.001  0.365  0.000
 -0.000  0.000  0.000  0.000  0.226
atom   23   Tr[ns(na)] =   2.85157
    eigenvalues: 
  0.184  0.190  0.255  0.365  0.432
    eigenvectors:
  0.006  0.001  0.000  0.993  0.000
  0.000  0.000  1.000  0.000  0.000
  0.546  0.453  0.000  0.001  0.000
  0.448  0.545  0.000  0.006  0.000
  0.000  0.000  0.000  0.000  1.000
    occupations:
  0.364 -0.000  0.006 -0.014 -0.000
 -0.000  0.255 -0.000 -0.000 -0.001
  0.006 -0.000  0.187  0.002  0.000
 -0.014 -0.000  0.002  0.189 -0.000
 -0.000 -0.001  0.000 -0.000  0.432
N of occupied +U levels =  23.0977579
 --- exit write_ns ---

          k = 0.0000 0.0000 0.0000 ( 29975 PWs)   bands (ev):

   -59.8361 -59.7980 -59.6124 -59.3968 -58.7135 -58.6698 -58.4094 -58.3688
   -36.3821 -36.1022 -36.0190 -35.9769 -35.9710 -35.9688 -35.9352 -35.9295
   -35.7996 -35.6604 -35.6229 -35.5383 -35.3353 -35.0432 -34.9383 -34.9073
   -34.8820 -34.8372 -34.7941 -34.7218 -34.6931 -34.6586 -34.5634 -34.4344
   -24.7149 -21.1625 -20.8435 -20.1759 -19.7853 -19.7297 -19.1633 -19.0196
   -19.0169 -18.9529 -18.8826 -18.8660 -18.7107 -18.5723 -18.4604 -18.4467
   -17.9913 -17.7143 -17.5788 -17.5660  -9.5565  -8.9322  -8.5089  -7.8933
    -7.5727  -7.5310  -7.4849  -7.1882  -7.1369  -6.6155  -6.5905  -6.4315
    -6.3766  -6.3059  -6.2626  -6.2121  -6.1724  -6.1214  -6.0948  -5.9355
    -5.9018  -5.8067  -5.7216  -5.6877  -5.4135  -5.0511  -5.0167  -4.8770
    -4.8175  -4.7858  -4.7715  -4.5548  -4.5520  -4.3711  -4.3239  -4.2977
    -4.1878  -4.1286  -4.0293  -4.0030  -3.7636  -3.6942  -3.6869  -3.6231
    -3.5428  -3.3319  -3.2956  -3.2330  -3.0989  -2.9441  -2.8733  -2.8304
    -2.6651  -2.5570  -2.5032  -2.4439  -2.3207  -2.2300  -2.1273  -0.4318
    -0.1752  -0.0713  -0.0454   0.1241   0.2276   0.4459   0.4725   0.5221
     0.7627   0.7750   1.0483   1.0666   1.1149   1.2942   1.2987   1.4218
     1.4830   1.5329   1.6767   1.8190   1.9359   2.0297   2.1887   2.3833
     2.5350   2.6700   2.6948   2.7395   2.9769   3.2073   3.2727   3.3159
     3.5320   3.5800   3.6180   3.8632   4.0552   4.1107   4.1301   4.2212
     4.6963   4.7016   4.7635   4.9897   5.2773   5.3577   5.6931   6.1531
     6.2116   6.5510   6.5982   6.7891   6.9017   7.0236   7.1182   7.1584
     7.1749   7.2311   7.4531   7.6295   7.7017   7.8373   7.8393   8.1480
     8.2006   8.3214   8.3471   8.4025   8.5325   8.7634   8.8472   8.9509
     9.0614   9.0951   9.3461   9.4058   9.4739   9.5461   9.5525   9.6426
     9.8614   9.8814  10.0433  10.1451  10.1822  10.2028  10.3344  10.3913
    10.7067  10.7330  10.7594  10.8572  10.9681  11.0262  11.0662  11.1532
    11.2054  11.2409  11.2702  11.3134  11.3543  11.4301  11.4486  11.5416
    11.7560  11.7864  11.8714  11.9342  12.0318  12.0619  12.1001  12.1567
    12.1639  12.2825  12.4294  12.4455  12.4716  12.5093  12.6108  12.6684
    12.8062  12.8233  12.8776  12.9028  13.1463  13.1866  13.2397  13.4479
    13.5936  13.6083  13.6158  13.6725  13.7051  13.7843  14.0384  14.0925
    14.2750  14.2948  14.4187  14.5021  14.5101  14.6516  14.7030  14.8147
    14.9014  14.9527  15.0205  15.0626  15.1054  15.2055  15.4156  15.5350
    15.6214  15.6472  15.7385  15.7990  15.8405  15.9155  16.0944  16.2184
    16.2391  16.3824  16.3972  16.5366  16.6399  16.8388  16.8889  16.9113
    16.9358  16.9881  17.0323  17.1055  17.2226  17.3456  17.3713  17.4036
    17.5134  17.6007  17.6062  17.6421  17.8074  17.9041  18.0099  18.0412
    18.0861  18.1562  18.2950  18.3560  18.3885  18.4859  18.4954  18.5820
    18.7155  18.7727  18.7834  18.9750  18.9899  19.0277  19.0493  19.1474
    19.2095  19.3169  19.3681  19.4668  19.5523  19.5985  19.6424

          k = 0.0000 0.2258 0.0000 ( 29933 PWs)   bands (ev):

   -59.8362 -59.7980 -59.6124 -59.3968 -58.7135 -58.6698 -58.4094 -58.3688
   -36.3823 -36.1022 -36.0190 -35.9768 -35.9696 -35.9686 -35.9371 -35.9296
   -35.7981 -35.6603 -35.6227 -35.5384 -35.3327 -35.0462 -34.9382 -34.9070
   -34.8821 -34.8372 -34.7941 -34.7243 -34.6917 -34.6585 -34.5634 -34.4345
   -24.7148 -21.1539 -20.8429 -20.1609 -19.7319 -19.6626 -19.1473 -19.1340
   -19.0784 -19.0353 -18.8759 -18.7765 -18.7423 -18.5917 -18.5359 -18.3556
   -17.9923 -17.7185 -17.5743 -17.5646  -9.5517  -8.9318  -8.5175  -7.9022
    -7.5166  -7.3575  -7.2335  -7.1879  -7.0595  -6.7753  -6.6710  -6.6089
    -6.4150  -6.3372  -6.1906  -6.1431  -6.0877  -5.9888  -5.9495  -5.9002
    -5.8136  -5.6847  -5.6035  -5.5304  -5.3912  -5.1023  -5.0511  -4.9644
    -4.9470  -4.8385  -4.7478  -4.6539  -4.5564  -4.5413  -4.4562  -4.3775
    -4.2614  -4.1439  -4.0576  -3.8638  -3.7785  -3.7533  -3.7294  -3.6368
    -3.5918  -3.5378  -3.3707  -3.2372  -3.1535  -2.9654  -2.9136  -2.8535
    -2.8344  -2.6936  -2.5685  -2.4318  -2.3182  -2.2564  -2.1528  -0.4072
    -0.2393  -0.1144   0.1506   0.1637   0.4107   0.4763   0.5255   0.5945
     0.6976   0.7418   0.7943   1.0961   1.2608   1.2635   1.4235   1.4893
     1.5987   1.6971   1.7716   1.7774   1.9199   1.9985   2.1757   2.4009
     2.4758   2.4793   2.7988   2.8206   2.8464   3.0523   3.3062   3.4524
     3.5912   3.6798   3.8015   3.9912   4.0284   4.3135   4.3887   4.4528
     4.5826   4.6247   4.9308   5.0305   5.0685   5.2813   5.3490   5.5352
     5.7110   6.0269   6.2578   6.6346   6.6708   6.8101   7.2365   7.3058
     7.3442   7.5190   7.7062   7.8492   8.0116   8.0371   8.1293   8.2302
     8.2938   8.4569   8.5772   8.6188   8.8611   8.9091   8.9794   9.0399
     9.0489   9.1361   9.3023   9.4555   9.4759   9.5598   9.6145   9.6894
     9.7145   9.7751   9.8354   9.9063   9.9754  10.0681  10.2008  10.2251
    10.2807  10.4282  10.5163  10.7661  10.8627  10.9151  10.9565  10.9989
    11.1269  11.1692  11.2399  11.2740  11.4097  11.4582  11.5008  11.8193
    11.8511  11.9220  12.0414  12.0772  12.1567  12.3091  12.3590  12.4160
    12.5209  12.6119  12.6453  12.7704  12.8521  12.9580  12.9911  13.1190
    13.1410  13.2215  13.2919  13.3002  13.3488  13.4027  13.5490  13.5986
    13.7010  13.7674  13.8175  13.9085  13.9777  14.0093  14.0890  14.1492
    14.2023  14.2385  14.2430  14.3841  14.4807  14.5696  14.6449  14.7392
    14.7998  14.8131  14.8996  14.9632  15.1010  15.1099  15.1725  15.2601
    15.3425  15.3840  15.4066  15.5399  15.6157  15.7013  15.8138  15.8540
    15.9538  16.0560  16.1745  16.2342  16.3614  16.4046  16.5165  16.5520
    16.7146  16.7570  16.8899  16.9196  17.0038  17.0617  17.1346  17.2618
    17.2963  17.3875  17.5540  17.6057  17.6742  17.7293  17.8302  17.9105
    18.1112  18.1347  18.1920  18.2776  18.3023  18.3684  18.4391  18.4920
    18.5294  18.5744  18.6289  18.7484  18.8494  18.8694  19.0369  19.1202
    19.1591  19.2636  19.2911  19.3115  19.3467  19.4129  19.4938

          k = 0.0000-0.4516 0.0000 ( 29906 PWs)   bands (ev):

   -59.8362 -59.7980 -59.6124 -59.3968 -58.7135 -58.6698 -58.4095 -58.3688
   -36.3824 -36.1022 -36.0191 -35.9768 -35.9704 -35.9663 -35.9392 -35.9297
   -35.7966 -35.6602 -35.6225 -35.5384 -35.3302 -35.0492 -34.9382 -34.9068
   -34.8821 -34.8372 -34.7940 -34.7269 -34.6904 -34.6585 -34.5634 -34.4345
   -24.7147 -21.1455 -20.8423 -20.1477 -19.6750 -19.5615 -19.2031 -19.1541
   -19.0908 -19.0814 -18.9662 -18.8762 -18.6700 -18.6193 -18.5117 -18.3164
   -17.9934 -17.7224 -17.5712 -17.5623  -9.5469  -8.9298  -8.5264  -7.9117
    -7.5005  -7.2234  -7.1881  -6.9300  -6.9087  -6.8584  -6.7882  -6.6040
    -6.4037  -6.2980  -6.1279  -6.0756  -5.9705  -5.9011  -5.8632  -5.8122
    -5.7559  -5.7003  -5.5968  -5.3367  -5.2718  -5.1922  -5.1142  -5.0497
    -4.9724  -4.9433  -4.9286  -4.7861  -4.7065  -4.5601  -4.5275  -4.5200
    -4.3729  -4.2368  -4.0566  -3.9781  -3.8269  -3.8209  -3.7645  -3.7195
    -3.4882  -3.4575  -3.4209  -3.2752  -3.0721  -3.0381  -3.0289  -2.9510
    -2.9280  -2.7358  -2.5855  -2.3956  -2.3173  -2.2869  -2.1569  -0.3956
    -0.3172  -0.2990   0.2702   0.3243   0.3418   0.4938   0.5251   0.6012
     0.7427   0.7967   0.9098   1.1733   1.1927   1.4238   1.4864   1.4953
     1.6055   1.7739   1.8041   1.8106   1.8897   2.0842   2.1602   2.3326
     2.3816   2.4588   2.5721   2.8850   3.0125   3.2102   3.3026   3.6115
     3.6426   3.7976   3.8470   4.0327   4.2357   4.3280   4.4260   4.4564
     4.6435   4.6973   4.7890   4.8417   4.9856   5.0792   5.2844   5.3172
     5.5141   5.8187   6.0274   6.5357   6.7650   6.7783   7.0290   7.1354
     7.6168   7.6653   7.6864   7.7425   7.9501   8.0608   8.2937   8.3011
     8.4842   8.5939   8.6325   8.7202   8.7508   8.8394   8.9239   8.9902
     9.0825   9.2116   9.2856   9.2934   9.4227   9.5271   9.5945   9.6598
     9.7964   9.9188  10.0093  10.0536  10.0822  10.1322  10.2775  10.4332
    10.5847  10.6492  10.6847  10.7486  10.8815  10.9192  11.0254  11.1563
    11.2747  11.3252  11.3503  11.3957  11.4759  11.5662  11.6631  11.6848
    11.7734  11.8667  11.9000  12.0147  12.0315  12.2771  12.3034  12.3950
    12.4668  12.5119  12.5842  12.8135  12.8842  12.9525  12.9844  13.0345
    13.1253  13.2189  13.2948  13.3110  13.4103  13.5573  13.6552  13.7235
    13.7415  13.8431  13.8497  13.9975  14.0433  14.2229  14.3039  14.3769
    14.4106  14.5090  14.5749  14.6197  14.7977  14.8176  14.8560  14.9439
    15.0863  15.1633  15.1964  15.2915  15.3347  15.4212  15.4352  15.4758
    15.5078  15.5360  15.5617  15.5800  15.6026  15.6739  15.7477  15.7535
    15.7866  15.8416  15.8905  15.9823  16.1196  16.2156  16.2343  16.2599
    16.2701  16.3583  16.4518  16.4828  16.6420  16.7009  16.7337  16.8725
    16.9903  17.0503  17.0875  17.2347  17.2687  17.4263  17.5921  17.6207
    17.7078  17.7569  17.8030  17.8650  17.8945  17.9380  17.9593  18.0029
    18.0580  18.2149  18.3197  18.4713  18.5048  18.5448  18.7072  18.7611
    18.8250  18.9676  19.0349  19.1674  19.1792  19.2634  19.3445

          k = 0.2500 0.0000 0.0000 ( 29937 PWs)   bands (ev):

   -59.8308 -59.8038 -59.6119 -59.3977 -58.7084 -58.6753 -58.4036 -58.3749
   -36.3239 -36.0917 -36.0498 -35.9792 -35.9716 -35.9656 -35.9397 -35.9206
   -35.7921 -35.6652 -35.6269 -35.5858 -35.2707 -35.0291 -34.9532 -34.9490
   -34.8465 -34.8324 -34.7959 -34.7175 -34.6972 -34.6490 -34.5755 -34.5011
   -24.7149 -21.0882 -20.8550 -20.1934 -19.6872 -19.6070 -19.1632 -19.0448
   -18.9971 -18.9722 -18.9523 -18.8812 -18.7629 -18.6372 -18.5280 -18.3287
   -17.9461 -17.7136 -17.6816 -17.6311  -9.5566  -8.8634  -8.5753  -7.8920
    -7.4034  -7.3303  -7.3193  -7.2090  -7.0146  -6.6382  -6.6293  -6.4880
    -6.4108  -6.3750  -6.3405  -6.2368  -6.2166  -6.1781  -6.0813  -6.0497
    -5.8266  -5.7418  -5.6530  -5.5430  -5.2656  -5.0998  -4.9943  -4.9584
    -4.8259  -4.7489  -4.6525  -4.4829  -4.4102  -4.3776  -4.3505  -4.2499
    -4.2243  -4.1689  -4.0647  -4.0343  -3.9257  -3.8701  -3.7898  -3.7304
    -3.5553  -3.4762  -3.4293  -3.3279  -3.0816  -2.9726  -2.9522  -2.8006
    -2.7335  -2.7109  -2.6262  -2.4518  -2.3254  -2.2417  -2.2097  -0.2387
    -0.1287   0.0387   0.1316   0.1451   0.3446   0.3904   0.4218   0.5393
     0.7440   0.7809   0.9792   1.0115   1.1070   1.2756   1.2941   1.3293
     1.5522   1.6235   1.6922   1.9684   1.9846   2.0295   2.1953   2.2681
     2.4271   2.7515   2.7863   2.8894   3.0224   3.0441   3.3021   3.5490
     3.6691   3.7093   3.8384   3.9075   3.9815   4.0623   4.1068   4.4043
     4.4502   4.6341   4.8603   4.9499   5.0532   5.1648   5.5384   5.8090
     5.9158   6.1851   6.4359   6.5126   6.6418   6.8561   7.0369   7.1475
     7.2941   7.3465   7.3705   7.4942   7.6963   7.8646   7.9392   8.1606
     8.3505   8.4054   8.5026   8.5984   8.7660   8.8008   8.8617   9.0966
     9.1630   9.1791   9.2607   9.3466   9.3812   9.4685   9.4985   9.5979
     9.7758   9.8492   9.8829   9.9328   9.9773  10.0618  10.1446  10.2471
    10.4150  10.4723  10.5572  10.7526  10.8338  10.8598  10.9520  11.1246
    11.1656  11.2339  11.2844  11.4019  11.4757  11.5923  11.6586  11.8228
    11.9384  11.9595  12.0499  12.1393  12.2433  12.2515  12.3053  12.4555
    12.5712  12.6062  12.6743  12.7741  12.9527  12.9966  13.0750  13.1384
    13.1968  13.3818  13.4205  13.5497  13.5753  13.5965  13.7130  13.7387
    13.8145  13.8564  13.9538  14.0277  14.0733  14.1022  14.2216  14.3145
    14.3912  14.4952  14.5501  14.6585  14.7486  14.8184  14.9455  14.9916
    15.1003  15.1140  15.2740  15.3453  15.4011  15.4949  15.5285  15.5461
    15.6350  15.7372  15.7626  15.8699  15.9197  15.9956  16.1165  16.1798
    16.2755  16.3460  16.3917  16.4807  16.5284  16.5678  16.6835  16.7283
    16.8035  16.8319  16.8872  16.9419  17.0493  17.0944  17.1525  17.2943
    17.3396  17.4280  17.5086  17.5916  17.6363  17.6805  17.7222  17.7629
    17.8144  17.8805  17.9609  18.0743  18.1354  18.2037  18.2392  18.2605
    18.4156  18.5154  18.5507  18.6621  18.6986  18.7962  18.8609  18.8696
    18.9550  19.0560  19.1027  19.1150  19.2330  19.2729  19.3122

          k = 0.2500 0.2258 0.0000 ( 29912 PWs)   bands (ev):

   -59.8308 -59.8037 -59.6119 -59.3976 -58.7084 -58.6753 -58.4037 -58.3749
   -36.3240 -36.0916 -36.0498 -35.9792 -35.9716 -35.9638 -35.9410 -35.9213
   -35.7908 -35.6648 -35.6267 -35.5861 -35.2686 -35.0317 -34.9536 -34.9487
   -34.8464 -34.8324 -34.7959 -34.7194 -34.6964 -34.6490 -34.5755 -34.5011
   -24.7148 -21.0819 -20.8543 -20.1850 -19.6241 -19.5453 -19.1664 -19.0964
   -19.0433 -19.0002 -18.9459 -18.8469 -18.7860 -18.6752 -18.6048 -18.2816
   -17.9464 -17.7260 -17.6735 -17.6263  -9.5517  -8.8603  -8.5711  -7.8994
    -7.3230  -7.2637  -7.0844  -7.0782  -6.9914  -6.6706  -6.6319  -6.4414
    -6.3998  -6.3638  -6.3079  -6.2409  -6.1832  -6.1419  -6.1064  -5.8071
    -5.7668  -5.7191  -5.6193  -5.5189  -5.3765  -5.1560  -5.0043  -4.9229
    -4.8072  -4.7814  -4.6799  -4.6375  -4.5279  -4.4867  -4.4152  -4.3352
    -4.2354  -4.2007  -4.1676  -4.1210  -4.0779  -3.9298  -3.8219  -3.7563
    -3.6952  -3.5791  -3.4096  -3.3217  -3.1552  -3.0161  -2.9916  -2.8170
    -2.7710  -2.7044  -2.6826  -2.4371  -2.3135  -2.2483  -2.1841  -0.2209
    -0.1417  -0.0514   0.1355   0.2888   0.3665   0.4489   0.5107   0.7068
     0.7430   0.8063   0.8805   1.0538   1.1790   1.3294   1.3866   1.4220
     1.6238   1.6926   1.7894   1.8822   2.0340   2.0603   2.1319   2.3051
     2.3729   2.5958   2.7990   2.8591   2.9324   3.0478   3.1411   3.6293
     3.7225   3.7672   3.8054   4.0415   4.0918   4.2625   4.3288   4.3760
     4.5701   4.6453   4.9138   4.9789   5.1773   5.2144   5.5112   5.6142
     5.6643   5.9099   6.0307   6.1950   6.3977   6.5571   6.6728   7.0294
     7.0788   7.2602   7.4980   7.5541   7.6937   7.8938   7.9567   8.0938
     8.2010   8.3213   8.4976   8.5886   8.6585   8.7949   8.8925   9.0255
     9.1156   9.2030   9.2637   9.3715   9.4557   9.6280   9.7192   9.7939
     9.8705   9.9870  10.1852  10.2558  10.3317  10.3994  10.4873  10.5152
    10.6695  10.7870  10.9119  10.9861  11.0131  11.1009  11.2130  11.3020
    11.3753  11.4716  11.5318  11.5859  11.6263  11.7180  11.8042  11.9169
    11.9950  12.1046  12.1927  12.2470  12.3002  12.3448  12.4188  12.5127
    12.5460  12.6315  12.6984  12.8286  12.8464  12.9576  13.0092  13.0540
    13.1558  13.2616  13.3112  13.3478  13.4423  13.5633  13.6662  13.8043
    13.8647  13.9455  14.0596  14.1362  14.1748  14.2304  14.2960  14.3145
    14.3654  14.4589  14.5421  14.6146  14.7037  14.7604  14.8570  14.9269
    14.9551  15.0606  15.1347  15.2017  15.3000  15.3326  15.3913  15.4507
    15.5043  15.5438  15.6462  15.6776  15.7278  15.8422  15.9180  15.9660
    16.0153  16.1342  16.1735  16.1997  16.2528  16.3764  16.4346  16.5016
    16.5553  16.5917  16.7049  16.7244  16.7875  16.7958  16.8876  17.0213
    17.0874  17.1609  17.2059  17.2802  17.3426  17.3991  17.4444  17.4811
    17.5674  17.6561  17.7110  17.8337  17.8811  17.9376  18.0069  18.0966
    18.1639  18.2600  18.3192  18.4008  18.4173  18.5129  18.5669  18.6084
    18.6615  18.7644  18.8275  18.8355  18.9436  19.0693  19.1141

          k = 0.2500-0.4516 0.0000 ( 29882 PWs)   bands (ev):

   -59.8308 -59.8037 -59.6119 -59.3976 -58.7084 -58.6753 -58.4037 -58.3749
   -36.3242 -36.0916 -36.0498 -35.9792 -35.9716 -35.9620 -35.9423 -35.9220
   -35.7896 -35.6645 -35.6264 -35.5863 -35.2667 -35.0340 -34.9539 -34.9486
   -34.8462 -34.8324 -34.7959 -34.7214 -34.6956 -34.6490 -34.5755 -34.5010
   -24.7147 -21.0758 -20.8535 -20.1772 -19.5501 -19.4589 -19.1560 -19.1510
   -19.0349 -19.0259 -18.9724 -18.9602 -18.7994 -18.6876 -18.6201 -18.2529
   -17.9467 -17.7349 -17.6692 -17.6213  -9.5469  -8.8560  -8.5683  -7.9071
    -7.3034  -7.2453  -7.0159  -6.8065  -6.7405  -6.6384  -6.6135  -6.5430
    -6.4008  -6.3180  -6.2157  -6.1422  -6.1113  -6.0726  -6.0517  -5.7726
    -5.7210  -5.6715  -5.5326  -5.4785  -5.3897  -5.1689  -5.1265  -4.9487
    -4.8754  -4.8295  -4.7993  -4.7375  -4.6880  -4.6373  -4.5476  -4.5170
    -4.4061  -4.3393  -4.3067  -4.2232  -4.1463  -3.8823  -3.8481  -3.8110
    -3.6997  -3.5986  -3.3147  -3.2388  -3.2253  -3.0065  -2.9901  -2.8921
    -2.7943  -2.7172  -2.6839  -2.4612  -2.3150  -2.2332  -2.1598  -0.2255
    -0.2126  -0.1359   0.2302   0.2626   0.4360   0.5048   0.5370   0.6383
     0.6918   0.9411   1.1082   1.1514   1.2134   1.4186   1.4286   1.5360
     1.6588   1.7539   1.7845   1.9807   2.0164   2.0954   2.1090   2.2860
     2.3380   2.4271   2.5407   2.8527   2.9902   3.0653   3.3076   3.4285
     3.7748   3.8191   3.8684   4.0717   4.3562   4.4496   4.4720   4.5259
     4.6433   4.6764   4.8341   4.9355   5.0245   5.1172   5.2583   5.4462
     5.5877   5.8714   5.9046   6.2213   6.4870   6.5600   6.6531   6.7957
     6.9030   7.0083   7.1404   7.3082   7.4823   7.5986   7.8147   7.9259
     8.0334   8.2856   8.3933   8.4180   8.6069   8.7367   8.9506   9.0757
     9.1509   9.2086   9.3491   9.5133   9.8055   9.8837  10.0219  10.1050
    10.1415  10.2221  10.4303  10.5177  10.6812  10.7505  10.8885  10.9774
    11.0689  11.1414  11.2017  11.2798  11.2865  11.3722  11.4493  11.5116
    11.5552  11.6079  11.6338  11.6969  11.8881  11.9359  11.9699  12.0763
    12.1322  12.1913  12.2399  12.3275  12.3892  12.4821  12.5275  12.5329
    12.6474  12.6706  12.7646  12.8567  12.9085  12.9438  13.0053  13.1158
    13.1506  13.2783  13.3754  13.4364  13.4789  13.5146  13.6120  13.6279
    13.6710  13.7424  13.7696  13.8734  13.9222  13.9715  13.9900  14.0759
    14.1629  14.2138  14.3485  14.4200  14.5311  14.5742  14.6179  14.7330
    14.7514  14.8306  14.8532  14.9127  15.0207  15.0565  15.1169  15.2233
    15.3620  15.4234  15.4693  15.5061  15.6153  15.6534  15.7274  15.7509
    15.8114  15.8735  15.9144  16.1387  16.2211  16.2928  16.4310  16.5435
    16.5870  16.5951  16.6539  16.7332  16.7585  16.8188  17.0392  17.0519
    17.1393  17.1897  17.2101  17.2207  17.3584  17.4277  17.4685  17.5019
    17.5739  17.6119  17.6760  17.7404  17.8105  17.8767  17.9010  17.9303
    17.9507  18.0653  18.1214  18.1755  18.1870  18.2926  18.3983  18.4240
    18.5219  18.6270  18.6794  18.7905  18.8039  18.9354  18.9807

          k =-0.5000 0.0000 0.0000 ( 29982 PWs)   bands (ev):

   -59.8185 -59.8165 -59.6114 -59.3985 -58.7004 -58.6837 -58.3895 -58.3894
   -36.1951 -36.1738 -36.0407 -36.0381 -35.9705 -35.9537 -35.9516 -35.8558
   -35.7836 -35.6701 -35.6591 -35.6259 -35.1183 -35.1061 -35.0008 -34.9808
   -34.8264 -34.8108 -34.7076 -34.7071 -34.6906 -34.6844 -34.5980 -34.5946
   -24.7148 -20.9684 -20.9080 -20.2210 -19.4760 -19.3376 -19.3110 -19.2939
   -19.0757 -18.9428 -18.8764 -18.8109 -18.7794 -18.7006 -18.7000 -18.0456
   -18.0404 -17.7530 -17.7494 -17.7128  -9.5567  -8.7601  -8.6707  -7.8909
    -7.2720  -7.0289  -7.0108  -6.9390  -6.8972  -6.8885  -6.7169  -6.7016
    -6.6689  -6.6578  -6.4683  -6.3118  -6.2617  -5.9835  -5.8496  -5.7302
    -5.7112  -5.6825  -5.5326  -5.4031  -5.1873  -5.1375  -5.1344  -4.9346
    -4.8993  -4.8286  -4.8178  -4.5586  -4.5571  -4.4837  -4.3788  -4.3293
    -4.2244  -4.1419  -4.0016  -3.9480  -3.8234  -3.7582  -3.7554  -3.7346
    -3.6673  -3.6338  -3.6134  -3.5024  -3.2240  -3.1812  -3.0837  -3.0266
    -2.5602  -2.5426  -2.5017  -2.4798  -2.4114  -2.4067  -2.2347  -0.1245
     0.0409   0.0725   0.2135   0.2261   0.3261   0.4303   0.4362   0.7205
     0.7467   0.8083   0.8305   0.9081   0.9414   1.1946   1.3566   1.3684
     1.3802   1.7568   1.9147   1.9768   2.0742   2.1278   2.1338   2.1983
     2.1989   2.7389   2.8165   3.0065   3.0135   3.2406   3.4273   3.6863
     3.8264   3.9236   4.0306   4.0545   4.1078   4.1256   4.1707   4.1987
     4.4051   4.4199   4.6135   4.6485   4.9733   4.9846   5.1994   5.2553
     5.7733   5.8664   6.3823   6.5763   6.8582   6.8736   7.1827   7.3044
     7.4699   7.5775   7.6087   7.6638   7.8726   7.9205   7.9794   8.0683
     8.0834   8.1296   8.1699   8.2378   8.3258   8.5195   8.5668   8.6773
     8.7902   8.8117   9.0403   9.2586   9.3639   9.3993   9.5447   9.5891
     9.7131   9.8202   9.8518  10.0437  10.1034  10.2038  10.3605  10.4534
    10.5177  10.5590  10.6225  10.8815  10.9373  11.0165  11.0822  11.1421
    11.2724  11.2904  11.4527  11.7253  11.8129  11.8757  12.0125  12.0258
    12.1369  12.1810  12.2868  12.4358  12.4877  12.5419  12.7118  12.7852
    12.8222  12.9065  13.0367  13.0581  13.1019  13.1419  13.2171  13.2790
    13.4297  13.4840  13.6020  13.6274  13.6637  13.7817  13.9436  13.9981
    14.1256  14.2594  14.2792  14.3434  14.4236  14.4437  14.5089  14.5470
    14.5784  14.6250  14.7256  14.8459  15.0345  15.0489  15.0920  15.1540
    15.4636  15.5324  15.5482  15.5891  15.6987  15.7245  15.8434  15.8782
    15.9006  15.9339  16.0163  16.1074  16.1276  16.1494  16.2621  16.2918
    16.3868  16.4380  16.4624  16.4807  16.5120  16.5481  16.5681  16.6152
    16.6382  16.6855  16.7490  16.8001  16.8686  16.9475  16.9637  17.0136
    17.0192  17.1330  17.1559  17.2363  17.2647  17.3977  17.4188  17.5887
    17.6231  17.6304  17.6723  17.7170  17.8117  17.8582  18.0914  18.1256
    18.1639  18.2567  18.2995  18.3452  18.3739  18.4103  18.4382  18.4539
    18.5099  18.5435  18.5857  18.6187  18.6969  18.7069  18.8169

          k =-0.5000 0.2258 0.0000 ( 29954 PWs)   bands (ev):

   -59.8185 -59.8165 -59.6114 -59.3985 -58.7004 -58.6837 -58.3896 -58.3894
   -36.1952 -36.1739 -36.0407 -36.0381 -35.9706 -35.9533 -35.9512 -35.8564
   -35.7827 -35.6693 -35.6597 -35.6256 -35.1173 -35.1052 -35.0022 -34.9822
   -34.8265 -34.8108 -34.7079 -34.7078 -34.6905 -34.6844 -34.5980 -34.5946
   -24.7147 -20.9661 -20.9058 -20.2164 -19.4145 -19.3033 -19.2606 -19.2328
   -19.0965 -18.9342 -18.8902 -18.8801 -18.8500 -18.7578 -18.7479 -18.0406
   -18.0340 -17.7641 -17.7523 -17.6970  -9.5519  -8.7510  -8.6612  -7.8972
    -7.2693  -6.9781  -6.8954  -6.8600  -6.7139  -6.6701  -6.6462  -6.6212
    -6.6071  -6.5349  -6.3812  -6.2583  -6.2132  -5.9879  -5.8598  -5.7423
    -5.6753  -5.6209  -5.5915  -5.4191  -5.3522  -5.3103  -5.2532  -5.1114
    -5.0016  -4.8509  -4.8126  -4.5928  -4.5755  -4.4924  -4.4188  -4.3739
    -4.1986  -4.1903  -4.1113  -4.0942  -4.0530  -4.0228  -3.8808  -3.8725
    -3.7107  -3.6536  -3.5975  -3.5272  -3.1028  -3.0815  -3.0364  -2.9869
    -2.6833  -2.6059  -2.5269  -2.4526  -2.4008  -2.3188  -2.1919  -0.1035
     0.0266   0.0359   0.1764   0.2242   0.3729   0.4281   0.5874   0.6887
     0.8135   0.8819   0.9733   1.0933   1.1545   1.1578   1.3379   1.4901
     1.5366   1.7552   1.9042   1.9245   2.0038   2.1482   2.1591   2.1886
     2.2577   2.7602   2.7998   2.8751   2.9445   3.0326   3.2553   3.3666
     3.9101   3.9164   4.0246   4.1591   4.1884   4.2940   4.3226   4.4038
     4.5537   4.5850   4.8066   4.8187   4.9926   5.0337   5.3605   5.4182
     5.8839   5.8915   6.1342   6.2066   6.2832   6.3915   6.6397   6.6767
     6.7510   6.9920   7.1334   7.2927   7.3209   7.5112   7.7766   7.8618
     8.0760   8.2669   8.3031   8.5376   8.6736   8.7118   8.9250   8.9443
     9.1911   9.2724   9.3391   9.4722   9.6416   9.7564   9.8901   9.9791
    10.0471  10.0553  10.1061  10.1926  10.3510  10.4412  10.5287  10.5676
    10.8223  10.8871  10.9426  11.0578  11.2180  11.2539  11.3323  11.4624
    11.5245  11.6900  11.7785  11.8763  12.0054  12.0424  12.1744  12.2485
    12.3361  12.4587  12.4831  12.5465  12.6429  12.7015  12.8509  12.8637
    12.9652  13.0308  13.1734  13.2268  13.2650  13.3132  13.4156  13.4489
    13.5141  13.5920  13.6440  13.6786  13.7901  13.8256  13.9497  14.0173
    14.0607  14.1093  14.1769  14.2229  14.3113  14.3319  14.4020  14.4126
    14.5476  14.5897  14.6547  14.6814  14.8508  14.8796  14.9540  14.9747
    15.0047  15.0098  15.0727  15.0919  15.1422  15.1788  15.1976  15.2415
    15.3479  15.4262  15.4573  15.5020  15.6066  15.6581  15.7176  15.7513
    15.7989  15.8168  15.8760  15.9192  16.0670  16.1224  16.1744  16.2424
    16.3276  16.3960  16.4691  16.5323  16.5796  16.6208  16.7472  16.8253
    16.8748  16.9081  16.9716  17.0070  17.1097  17.1532  17.2326  17.2762
    17.3466  17.3986  17.4516  17.4729  17.5899  17.6892  17.7656  17.8299
    17.8859  17.9212  18.0422  18.1773  18.2515  18.3852  18.4558  18.5166
    18.5565  18.6121  18.6485  18.7256  18.7735  18.7995  18.8557

          k =-0.5000-0.4516 0.0000 ( 29868 PWs)   bands (ev):

   -59.8185 -59.8165 -59.6114 -59.3985 -58.7004 -58.6837 -58.3896 -58.3894
   -36.1952 -36.1740 -36.0407 -36.0381 -35.9706 -35.9530 -35.9508 -35.8569
   -35.7819 -35.6686 -35.6604 -35.6252 -35.1163 -35.1042 -35.0036 -34.9835
   -34.8264 -34.8108 -34.7086 -34.7080 -34.6904 -34.6843 -34.5980 -34.5946
   -24.7146 -20.9638 -20.9036 -20.2118 -19.3041 -19.2642 -19.2489 -19.0935
   -19.0565 -19.0461 -19.0153 -18.9043 -18.8514 -18.8407 -18.8047 -18.0362
   -18.0283 -17.7738 -17.7517 -17.6862  -9.5469  -8.7417  -8.6516  -7.9034
    -7.2674  -6.9743  -6.8609  -6.8311  -6.6860  -6.4659  -6.3672  -6.3017
    -6.2831  -6.2755  -6.2577  -6.2202  -6.1620  -5.9701  -5.8337  -5.8179
    -5.7869  -5.6964  -5.6299  -5.6199  -5.5189  -5.4696  -5.4178  -5.1760
    -5.0154  -4.8712  -4.7435  -4.6493  -4.6437  -4.6102  -4.5575  -4.5179
    -4.4186  -4.3925  -4.2848  -4.2420  -4.1793  -4.1591  -4.0384  -3.7485
    -3.6917  -3.6084  -3.5520  -3.4912  -3.0510  -3.0386  -2.9560  -2.9345
    -2.7813  -2.6913  -2.5013  -2.4673  -2.3268  -2.2865  -2.1578  -0.0741
    -0.0012   0.0110   0.1465   0.2609   0.3854   0.4217   0.6322   0.6651
     0.9056   0.9195   1.0018   1.1166   1.4320   1.4635   1.4696   1.6042
     1.6277   1.6949   1.9182   1.9245   1.9750   2.1701   2.1731   2.1915
     2.3095   2.6247   2.6370   2.6742   2.8354   2.9219   2.9407   3.4575
     3.9946   4.0027   4.0720   4.0740   4.1597   4.4228   4.4408   4.8133
     4.8274   4.8778   4.9985   5.0126   5.2334   5.2577   5.4245   5.4330
     5.5109   5.5234   5.7684   5.7897   5.9689   6.0280   6.2731   6.3704
     6.4905   6.7190   6.8873   7.1156   7.1931   7.5436   7.6029   7.8603
     7.8810   7.9762   8.2646   8.3818   8.5189   8.7018   8.7421   8.8966
     9.0925   9.1718   9.4547   9.5134   9.7159   9.8020  10.1344  10.2594
    10.5502  10.5814  10.7238  10.7537  10.7794  10.9164  10.9699  11.2644
    11.4231  11.5721  11.5893  11.7511  11.8288  11.8499  11.8967  12.0854
    12.0953  12.1858  12.2987  12.3204  12.3576  12.4164  12.4297  12.4312
    12.5241  12.6887  12.7099  12.7323  12.7677  12.7860  12.8526  12.9022
    13.0235  13.0315  13.0984  13.0997  13.1803  13.1935  13.2898  13.3382
    13.4154  13.4539  13.5247  13.5762  13.6111  13.6552  13.6759  13.7517
    13.7591  13.8129  13.9261  13.9346  13.9851  14.0098  14.1111  14.1223
    14.1974  14.2432  14.2697  14.3179  14.3359  14.3930  14.4650  14.4878
    14.5064  14.5383  14.6302  14.6796  14.7667  14.8046  14.8553  14.9793
    15.0011  15.0557  15.0639  15.1285  15.1552  15.1656  15.2583  15.3466
    15.4682  15.4886  15.6742  15.7931  15.8356  15.8627  15.9290  16.0298
    16.0936  16.0988  16.2146  16.2351  16.2604  16.2900  16.5611  16.6099
    16.7002  16.8880  16.9615  16.9870  17.0119  17.0346  17.0830  17.2042
    17.2488  17.2834  17.4048  17.4480  17.5036  17.5858  17.6066  17.6383
    17.8768  17.9809  18.0651  18.1137  18.1876  18.2044  18.3012  18.3681
    18.3722  18.5878  18.6768  18.7118  18.7975  18.8110  18.9214

          k =-0.2500 0.2258 0.0000 ( 29912 PWs)   bands (ev):

   -59.8308 -59.8037 -59.6119 -59.3976 -58.7084 -58.6753 -58.4037 -58.3749
   -36.3240 -36.0916 -36.0498 -35.9792 -35.9716 -35.9638 -35.9410 -35.9213
   -35.7909 -35.6648 -35.6267 -35.5860 -35.2687 -35.0314 -34.9535 -34.9490
   -34.8464 -34.8324 -34.7959 -34.7194 -34.6964 -34.6490 -34.5755 -34.5011
   -24.7148 -21.0820 -20.8542 -20.1849 -19.6244 -19.5453 -19.1655 -19.0964
   -19.0400 -18.9992 -18.9527 -18.8469 -18.7861 -18.6735 -18.6047 -18.2816
   -17.9464 -17.7260 -17.6735 -17.6263  -9.5518  -8.8601  -8.5727  -7.8994
    -7.3094  -7.2685  -7.0902  -7.0766  -6.9964  -6.6669  -6.6314  -6.4446
    -6.4260  -6.3731  -6.3123  -6.2247  -6.1773  -6.1144  -6.0942  -5.8444
    -5.7654  -5.6991  -5.5956  -5.5157  -5.3934  -5.1519  -5.0028  -4.9160
    -4.8374  -4.7950  -4.6574  -4.6241  -4.5637  -4.4998  -4.4257  -4.3186
    -4.2509  -4.2253  -4.1723  -4.0903  -4.0554  -3.8990  -3.8579  -3.7612
    -3.7087  -3.5811  -3.3984  -3.2815  -3.1422  -2.9747  -2.9661  -2.8540
    -2.7839  -2.7211  -2.6885  -2.4608  -2.3297  -2.2301  -2.1862  -0.2210
    -0.1434  -0.0339   0.1353   0.2886   0.3618   0.4482   0.5102   0.7027
     0.7407   0.8050   0.8799   1.0514   1.1780   1.3376   1.3896   1.4168
     1.6186   1.6972   1.7892   1.8917   2.0209   2.0618   2.1340   2.3054
     2.3725   2.5955   2.7988   2.8587   2.9318   3.0484   3.1414   3.6294
     3.7219   3.7672   3.8050   4.0420   4.0934   4.2629   4.3298   4.3763
     4.5727   4.6439   4.9149   4.9814   5.1783   5.2124   5.5168   5.6154
     5.6713   5.9156   6.0285   6.1920   6.3997   6.5554   6.6643   7.0063
     7.0816   7.2488   7.4996   7.5499   7.6890   7.8918   7.9691   8.1058
     8.1886   8.3398   8.4819   8.5668   8.6644   8.8105   8.9048   9.0154
     9.1111   9.2139   9.2569   9.3727   9.4732   9.6537   9.7098   9.7853
     9.8606  10.0003  10.1869  10.2572  10.3220  10.3824  10.4822  10.5185
    10.6748  10.7757  10.9187  10.9680  11.0081  11.1336  11.2111  11.3001
    11.3657  11.4595  11.5164  11.5962  11.6273  11.7292  11.8043  11.9235
    12.0087  12.1341  12.1679  12.2615  12.3057  12.3419  12.4289  12.5138
    12.5452  12.6348  12.7165  12.8178  12.8511  12.9641  13.0132  13.0559
    13.1555  13.2700  13.3115  13.3609  13.4785  13.5734  13.6644  13.7851
    13.8505  13.9498  14.0228  14.0912  14.1438  14.2235  14.2952  14.3163
    14.3733  14.4630  14.5275  14.6213  14.6765  14.7609  14.8353  14.9128
    14.9445  15.0713  15.1367  15.2051  15.2942  15.3409  15.4034  15.4519
    15.5223  15.5827  15.6487  15.7055  15.7182  15.8495  15.9040  15.9656
    16.0157  16.1518  16.1768  16.2193  16.2702  16.3731  16.4305  16.5039
    16.5429  16.5754  16.6600  16.7222  16.7668  16.7984  16.8830  16.9819
    17.0755  17.1360  17.2197  17.2509  17.3061  17.3625  17.4353  17.4721
    17.5768  17.6376  17.7120  17.8417  17.8951  17.9873  18.0532  18.1147
    18.1873  18.2345  18.3364  18.3723  18.4305  18.5109  18.5622  18.6116
    18.6598  18.7531  18.8191  18.8787  18.9565  19.0768  19.1231

     the Fermi energy is    -2.1706 ev

!    total energy              =   -1599.75091409 Ry
     Harris-Foulkes estimate   =   -1599.75091450 Ry
     estimated scf accuracy    <       0.00000044 Ry

     The total energy is the sum of the following terms:

     one-electron contribution =  -19200.50126776 Ry
     hartree contribution      =    9624.66962804 Ry
     xc contribution           =    -284.67797484 Ry
     ewald contribution        =    8260.18478952 Ry
     Hubbard energy            =       0.57538018 Ry
     smearing contrib. (-TS)   =      -0.00146924 Ry

     convergence has been achieved in  30 iterations

     Forces acting on atoms (Ry/au):


     negative rho (up, down):  0.103E+00 0.000E+00
     atom    1 type  1   force =    -0.00071256   -0.01211185   -0.00261760
     atom    2 type  1   force =     0.00010909    0.01769794   -0.00214987
     atom    3 type  2   force =     0.05866512   -0.01141619   -0.00197445
     atom    4 type  2   force =    -0.00373694    0.00665555   -0.00112723
     atom    5 type  1   force =    -0.00178033   -0.08142445    0.00008525
     atom    6 type  1   force =    -0.00584395    0.08252688    0.00014860
     atom    7 type  1   force =     0.00009586   -0.00044784   -0.00307000
     atom    8 type  1   force =     0.00234854   -0.00042796    0.00119336
     atom    9 type  2   force =     0.00026876   -0.00048703   -0.00273702
     atom   10 type  2   force =    -0.00003907    0.00123620    0.00475162
     atom   11 type  1   force =    -0.01939794   -0.01757847   -0.00027080
     atom   12 type  1   force =    -0.01545365    0.02151037    0.00045262
     atom   13 type  1   force =     0.00035295   -0.00174936    0.00389670
     atom   14 type  1   force =    -0.00212437   -0.01166188   -0.00351948
     atom   15 type  1   force =     0.00014372    0.01594164   -0.00184420
     atom   16 type  2   force =    -0.05843616   -0.01195048   -0.00197620
     atom   17 type  2   force =    -0.00420818    0.00578031   -0.00074110
     atom   18 type  1   force =     0.00792172   -0.08129511    0.00006205
     atom   19 type  1   force =     0.00487664    0.08295894    0.00026672
     atom   20 type  1   force =    -0.00009028   -0.00015296    0.00336837
     atom   21 type  1   force =     0.00245152    0.00003721    0.00194599
     atom   22 type  2   force =    -0.00136192   -0.00041117   -0.00270229
     atom   23 type  2   force =    -0.00000370   -0.00298764   -0.00259240
     atom   24 type  1   force =     0.01962051   -0.01755058   -0.00024970
     atom   25 type  1   force =     0.01533401    0.02136173    0.00044337
     atom   26 type  1   force =     0.00041221   -0.00449551    0.00394919
     atom   27 type  3   force =     0.00000076    0.00003913    0.00047847
     atom   28 type  3   force =    -0.00006831   -0.00015003    0.00090433
     atom   29 type  3   force =     0.00018974   -0.00031954    0.00134615
     atom   30 type  3   force =     0.00046330   -0.00040072    0.00080002
     atom   31 type  1   force =     0.00012333    0.00144327    0.00372894
     atom   32 type  1   force =    -0.00013841   -0.00032265    0.00032264
     atom   33 type  3   force =     0.00001802    0.00015227   -0.00057204

     Total force =     0.012610     Total SCF correction =     0.001448
     SCF correction compared to forces is large: reduce conv_thr to get better values


     entering subroutine stress ...


     negative rho (up, down):  0.103E+00 0.000E+00
          total   stress  (Ry/bohr**3)                   (kbar)     P=   -1.06
   0.00002316  -0.00000202   0.00000326          3.41     -0.30      0.48
  -0.00000202  -0.00002689  -0.00000004         -0.30     -3.96     -0.01
   0.00000326  -0.00000004  -0.00001797          0.48     -0.01     -2.64


     BFGS Geometry Optimization

     number of scf cycles    =   1
     number of bfgs steps    =   0

     energy   new            =   -1599.7509140940 Ry

     new trust radius        =       0.0047516207 bohr
     new conv_thr            =       0.0000010000 Ry


ATOMIC_POSITIONS (crystal)
O0       0.000000000   0.000000000   0.377967879    0   0   1
O0       0.000000000   0.500000000   0.399257192    0   0   1
Ti1      0.250000000   0.500000000   0.451060685    0   0   1
Ti1      0.000000000   0.000000000   0.451807555    0   0   1
O0       0.250000000   0.810000000   0.449971697    0   0   1
O0       0.250000000   0.190000000   0.450892959    0   0   1
O0       0.000000000   0.500000000   0.498298871    0   0   1
O0       0.000000000   0.000000000   0.525733762    0   0   1
Ti1      0.250000000   0.000000000   0.580495501    0   0   1
Ti1      0.000000000   0.500000000   0.568054613    0   0   1
O0       0.250000000   0.690000000   0.578354608    0   0   1
O0       0.250000000   0.310000000   0.579419012    0   0   1
O0       0.000000000   0.000000000   0.622027590    0   0   1
O0       0.500000000   0.000000000   0.378699921    0   0   1
O0       0.500000000   0.500000000   0.398913279    0   0   1
Ti1      0.750000000   0.500000000   0.451070650    0   0   1
Ti1      0.500000000   0.000000000   0.453205243    0   0   1
O0       0.750000000   0.810000000   0.449911236    0   0   1
O0       0.750000000   0.190000000   0.450935311    0   0   1
O0       0.500000000   0.500000000   0.495797070    0   0   1
O0       0.500000000   0.000000000   0.525928748    0   0   1
Ti1      0.750000000   0.000000000   0.580496193    0   0   1
Ti1      0.500000000   0.500000000   0.585128381    0   0   1
O0       0.750000000   0.690000000   0.578345028    0   0   1
O0       0.750000000   0.310000000   0.579398828    0   0   1
O0       0.500000000   0.000000000   0.621698635    0   0   1
H2      -0.000459932   0.626033149   0.378839527
H2       0.499713914   0.624897927   0.378108007
H2       0.149016903   0.033014287   0.363636804
H2       0.648321274   0.034457754   0.364275930
O0       0.500320987   0.527076140   0.657864250
O0       0.499107669   0.350104036   0.688056424
H2       0.500361605   0.413262254   0.721818610


     Check: negative starting charge=   -0.102033
     NEW-OLD atomic charge density approx. for the potential

     Check: negative/imaginary core charge=   -0.000006    0.000000
     Check: negative starting charge=   -0.102051

     negative rho (up, down):  0.103E+00 0.000E+00
 Atomic wfc used for LDA+U Projector are NOT orthogonalized

     total cpu time spent up to now is     6350.2 secs

     per-process dynamical memory:   405.4 Mb

     Self-consistent Calculation

     iteration #  1     ecut=    40.00 Ry     beta=0.70
     Davidson diagonalization with overlap
     ethr =  1.00E-06,  avg # of iterations =  3.0
 --- enter write_ns ---
 LDA+U parameters:
U( 2)     =  1.00000000
alpha( 2) =  0.00000000
atom    3   Tr[ns(na)] =   2.83078
    eigenvalues: 
  0.188  0.197  0.221  0.390  0.419
    eigenvectors:
  0.671  0.103  0.038  0.172  0.016
  0.003  0.001  0.001  0.145  0.850
  0.136  0.247  0.616  0.000  0.000
  0.161  0.020  0.006  0.682  0.131
  0.029  0.630  0.339  0.000  0.002
    occupations:
  0.228  0.004 -0.005  0.079  0.002
  0.004  0.414  0.002 -0.014  0.011
 -0.005  0.002  0.211  0.007 -0.011
  0.079 -0.014  0.007  0.356 -0.001
  0.002  0.011 -0.011 -0.001  0.206
atom    4   Tr[ns(na)] =   2.93158
    eigenvalues: 
  0.179  0.213  0.233  0.415  0.426
    eigenvectors:
  0.006  0.003  0.000  0.000  0.991
  0.001  0.911  0.085  0.000  0.003
  0.000  0.085  0.915  0.000  0.000
  0.993  0.002  0.000  0.000  0.006
  0.000  0.000  0.000  1.000  0.000
    occupations:
  0.424  0.012  0.004 -0.019 -0.000
  0.012  0.216 -0.005  0.000 -0.002
  0.004 -0.005  0.231  0.001 -0.000
 -0.019  0.000  0.001  0.180 -0.000
 -0.000 -0.002 -0.000 -0.000  0.415
atom    9   Tr[ns(na)] =   2.92218
    eigenvalues: 
  0.186  0.226  0.243  0.376  0.431
    eigenvectors:
  0.000  0.000  0.920  0.080  0.000
  0.000  0.000  0.000  0.000  1.000
  1.000  0.000  0.000  0.000  0.000
  0.000  0.000  0.080  0.920  0.000
  0.000  0.999  0.001  0.000  0.000
    occupations:
  0.254  0.000  0.001  0.036  0.000
  0.000  0.431 -0.000 -0.001  0.000
  0.001 -0.000  0.186  0.001 -0.000
  0.036 -0.001  0.001  0.365 -0.000
  0.000  0.000 -0.000 -0.000  0.226
atom   10   Tr[ns(na)] =   2.86404
    eigenvalues: 
  0.188  0.232  0.243  0.341  0.428
    eigenvectors:
  0.015  0.000  0.000  0.985  0.000
  0.000  0.000  1.000  0.000  0.000
  0.000  1.000  0.000  0.000  0.000
  0.985  0.000  0.000  0.015  0.000
  0.000  0.000  0.000  0.000  1.000
    occupations:
  0.338 -0.000 -0.001 -0.019 -0.000
 -0.000  0.243 -0.000 -0.000  0.002
 -0.001 -0.000  0.232 -0.001  0.000
 -0.019 -0.000 -0.001  0.190  0.000
 -0.000  0.002  0.000  0.000  0.428
atom   16   Tr[ns(na)] =   2.83099
    eigenvalues: 
  0.188  0.198  0.221  0.390  0.419
    eigenvectors:
  0.681  0.093  0.038  0.172  0.016
  0.003  0.001  0.001  0.145  0.851
  0.129  0.252  0.619  0.000  0.000
  0.164  0.017  0.006  0.682  0.131
  0.024  0.637  0.336  0.000  0.002
    occupations:
  0.228 -0.004 -0.005  0.079 -0.002
 -0.004  0.414 -0.002  0.014  0.011
 -0.005 -0.002  0.211  0.007  0.011
  0.079  0.014  0.007  0.356  0.001
 -0.002  0.011  0.011  0.001  0.206
atom   17   Tr[ns(na)] =   2.92960
    eigenvalues: 
  0.178  0.215  0.234  0.411  0.428
    eigenvectors:
  0.006  0.003  0.000  0.000  0.991
  0.001  0.919  0.078  0.000  0.003
  0.000  0.077  0.922  0.000  0.000
  0.993  0.001  0.000  0.000  0.005
  0.000  0.000  0.000  1.000  0.000
    occupations:
  0.426  0.011  0.004 -0.018 -0.000
  0.011  0.217 -0.005  0.000 -0.002
  0.004 -0.005  0.232  0.001 -0.000
 -0.018  0.000  0.001  0.179 -0.000
 -0.000 -0.002 -0.000 -0.000  0.411
atom   22   Tr[ns(na)] =   2.92221
    eigenvalues: 
  0.186  0.226  0.243  0.376  0.431
    eigenvectors:
  0.000  0.000  0.920  0.080  0.000
  0.000  0.000  0.000  0.000  1.000
  1.000  0.000  0.000  0.000  0.000
  0.000  0.000  0.080  0.920  0.000
  0.000  1.000  0.000  0.000  0.000
    occupations:
  0.254 -0.001  0.001  0.036 -0.000
 -0.001  0.431  0.000  0.001  0.000
  0.001  0.000  0.186  0.001  0.000
  0.036  0.001  0.001  0.365  0.000
 -0.000  0.000  0.000  0.000  0.226
atom   23   Tr[ns(na)] =   2.84478
    eigenvalues: 
  0.184  0.190  0.253  0.364  0.432
    eigenvectors:
  0.006  0.002  0.000  0.993  0.000
  0.000  0.000  1.000  0.000  0.000
  0.595  0.404  0.000  0.001  0.000
  0.399  0.594  0.000  0.007  0.000
  0.000  0.000  0.000  0.000  1.000
    occupations:
  0.363 -0.000  0.006 -0.014 -0.000
 -0.000  0.253 -0.000 -0.000 -0.001
  0.006 -0.000  0.186  0.002  0.000
 -0.014 -0.000  0.002  0.188 -0.000
 -0.000 -0.001  0.000 -0.000  0.432
N of occupied +U levels =  23.0761585
 --- exit write_ns ---

     negative rho (up, down):  0.103E+00 0.000E+00

     total cpu time spent up to now is     6559.8 secs

     total energy              =   -1599.74787874 Ry
     Harris-Foulkes estimate   =   -1599.75107974 Ry
     estimated scf accuracy    <       0.00367514 Ry

     iteration #  2     ecut=    40.00 Ry     beta=0.70
     Davidson diagonalization with overlap
     ethr =  1.66E-06,  avg # of iterations =  5.3

     negative rho (up, down):  0.103E+00 0.000E+00

     total cpu time spent up to now is     6772.0 secs

     total energy              =   -1599.74414514 Ry
     Harris-Foulkes estimate   =   -1599.78850174 Ry
     estimated scf accuracy    <       0.40092424 Ry

     iteration #  3     ecut=    40.00 Ry     beta=0.70
     Davidson diagonalization with overlap
     ethr =  1.66E-06,  avg # of iterations =  6.0

     negative rho (up, down):  0.103E+00 0.000E+00

     total cpu time spent up to now is     6990.6 secs

     total energy              =   -1599.74993807 Ry
     Harris-Foulkes estimate   =   -1599.75416534 Ry
     estimated scf accuracy    <       0.11830339 Ry

     iteration #  4     ecut=    40.00 Ry     beta=0.70
     Davidson diagonalization with overlap
     ethr =  1.66E-06,  avg # of iterations =  4.8

     negative rho (up, down):  0.103E+00 0.000E+00

     total cpu time spent up to now is     7170.9 secs

     total energy              =   -1599.75093794 Ry
     Harris-Foulkes estimate   =   -1599.75132917 Ry
     estimated scf accuracy    <       0.02246899 Ry

     iteration #  5     ecut=    40.00 Ry     beta=0.70
     Davidson diagonalization with overlap
     ethr =  1.66E-06,  avg # of iterations =  1.0

     negative rho (up, down):  0.103E+00 0.000E+00

     total cpu time spent up to now is     7332.8 secs

     total energy              =   -1599.75094868 Ry
     Harris-Foulkes estimate   =   -1599.75109121 Ry
     estimated scf accuracy    <       0.00438113 Ry

     iteration #  6     ecut=    40.00 Ry     beta=0.70
     Davidson diagonalization with overlap
     ethr =  1.66E-06,  avg # of iterations =  1.0

     negative rho (up, down):  0.103E+00 0.000E+00

     total cpu time spent up to now is     7494.9 secs

     total energy              =   -1599.75102831 Ry
     Harris-Foulkes estimate   =   -1599.75103821 Ry
     estimated scf accuracy    <       0.00020896 Ry

     iteration #  7     ecut=    40.00 Ry     beta=0.70
     Davidson diagonalization with overlap
     ethr =  9.46E-08,  avg # of iterations =  1.0

     negative rho (up, down):  0.103E+00 0.000E+00

     total cpu time spent up to now is     7657.1 secs

     total energy              =   -1599.75102990 Ry
     Harris-Foulkes estimate   =   -1599.75103654 Ry
     estimated scf accuracy    <       0.00034090 Ry

     iteration #  8     ecut=    40.00 Ry     beta=0.70
     Davidson diagonalization with overlap
     ethr =  9.46E-08,  avg # of iterations =  1.0

     negative rho (up, down):  0.103E+00 0.000E+00

     total cpu time spent up to now is     7818.9 secs

     total energy              =   -1599.75103037 Ry
     Harris-Foulkes estimate   =   -1599.75103264 Ry
     estimated scf accuracy    <       0.00007117 Ry

     iteration #  9     ecut=    40.00 Ry     beta=0.70
     Davidson diagonalization with overlap
     ethr =  3.22E-08,  avg # of iterations =  1.0

     negative rho (up, down):  0.103E+00 0.000E+00

     total cpu time spent up to now is     7981.5 secs

     total energy              =   -1599.75103162 Ry
     Harris-Foulkes estimate   =   -1599.75103173 Ry
     estimated scf accuracy    <       0.00000247 Ry

     iteration # 10     ecut=    40.00 Ry     beta=0.70
     Davidson diagonalization with overlap
     ethr =  1.12E-09,  avg # of iterations =  1.0

     negative rho (up, down):  0.103E+00 0.000E+00

     total cpu time spent up to now is     8143.1 secs

     total energy              =   -1599.75103163 Ry
[...]
     4.4059   4.4212   4.6160   4.6456   4.9504   4.9548   5.2040   5.2556
     5.7736   5.8698   6.3820   6.5802   6.8564   6.8781   7.1941   7.3072
     7.4639   7.5717   7.6048   7.6616   7.8722   7.9345   7.9863   8.0712
     8.0892   8.1346   8.1705   8.2442   8.3241   8.5173   8.5722   8.6839
     8.7974   8.8138   9.0408   9.2570   9.3639   9.3987   9.5416   9.5915
     9.7058   9.8143   9.8481  10.0405  10.1000  10.1973  10.3527  10.4500
    10.5165  10.5566  10.6187  10.8767  10.9287  11.0053  11.0705  11.1255
    11.2652  11.2842  11.4408  11.7199  11.8100  11.8728  12.0032  12.0195
    12.1357  12.1824  12.2762  12.4283  12.4750  12.5237  12.6973  12.7667
    12.8151  12.8959  13.0351  13.0599  13.0982  13.1437  13.2222  13.2802
    13.4240  13.4730  13.6021  13.6226  13.6611  13.7805  13.9334  13.9923
    14.1175  14.2506  14.2779  14.3449  14.4191  14.4381  14.5031  14.5427
    14.5725  14.6145  14.7126  14.8340  15.0268  15.0407  15.0837  15.1508
    15.4334  15.5264  15.5439  15.5773  15.6878  15.7151  15.8366  15.8708
    15.8912  15.9231  15.9993  16.0947  16.1198  16.1400  16.2554  16.2738
    16.3830  16.4311  16.4585  16.4756  16.5024  16.5435  16.5597  16.6127
    16.6369  16.6856  16.7466  16.7899  16.8577  16.9534  16.9649  17.0156
    17.0211  17.1321  17.1591  17.2382  17.2669  17.3959  17.4159  17.5907
    17.6225  17.6299  17.6739  17.7195  17.8173  17.8565  18.0988  18.1333
    18.1675  18.2570  18.2978  18.3413  18.3759  18.4130  18.4382  18.4580
    18.5110  18.5419  18.5840  18.6200  18.6974  18.7100  18.8174

          k =-0.5000 0.2258 0.0000 ( 29954 PWs)   bands (ev):

   -59.8450 -59.8431 -59.6416 -59.4355 -58.7246 -58.7119 -58.3956 -58.3951
   -36.2194 -36.1973 -36.0636 -36.0610 -35.9954 -35.9793 -35.9774 -35.8865
   -35.8127 -35.7010 -35.6990 -35.6565 -35.1419 -35.1330 -35.0261 -35.0102
   -34.8457 -34.8319 -34.7163 -34.7159 -34.6909 -34.6851 -34.6010 -34.5981
   -24.7511 -20.9730 -20.9254 -20.2165 -19.4305 -19.3148 -19.2756 -19.2548
   -19.1047 -18.9465 -18.9158 -18.8950 -18.8678 -18.7764 -18.7656 -18.0295
   -18.0244 -17.7568 -17.7392 -17.6970  -9.5649  -8.7470  -8.6719  -7.9115
    -7.2730  -6.9784  -6.8961  -6.8643  -6.7281  -6.6939  -6.6700  -6.6353
    -6.6216  -6.5376  -6.3930  -6.2795  -6.2309  -5.9913  -5.8692  -5.7458
    -5.6769  -5.6327  -5.6016  -5.4350  -5.3667  -5.3219  -5.2619  -5.1241
    -5.0156  -4.8565  -4.8142  -4.5961  -4.5800  -4.4951  -4.4312  -4.3785
    -4.2121  -4.2060  -4.1242  -4.1072  -4.0703  -4.0360  -3.8988  -3.8863
    -3.7165  -3.6570  -3.6036  -3.5301  -3.0985  -3.0758  -3.0369  -2.9855
    -2.6836  -2.6059  -2.5302  -2.4559  -2.4087  -2.3260  -2.1959  -0.1250
     0.0010   0.0118   0.1509   0.1944   0.3420   0.3846   0.5665   0.6586
     0.7619   0.8581   0.9357   1.0737   1.1297   1.1415   1.3198   1.4710
     1.5172   1.7203   1.8794   1.8999   1.9865   2.1280   2.1397   2.1673
     2.2200   2.7345   2.7682   2.8477   2.8988   3.0100   3.2369   3.3405
     3.8851   3.8933   4.0009   4.1339   4.1608   4.2791   4.3062   4.3978
     4.5602   4.5898   4.8071   4.8093   4.9631   5.0219   5.3648   5.4198
     5.8865   5.8943   6.1390   6.2073   6.2914   6.4021   6.6429   6.6819
     6.7551   6.9964   7.1351   7.2983   7.3224   7.5060   7.7771   7.8657
     8.0690   8.2657   8.3019   8.5292   8.6754   8.7130   8.9212   8.9405
     9.1903   9.2658   9.3409   9.4695   9.6405   9.7513   9.8919   9.9778
    10.0467  10.0505  10.1090  10.1897  10.3455  10.4348  10.5254  10.5641
    10.8134  10.8877  10.9419  11.0560  11.2108  11.2505  11.3267  11.4558
    11.5123  11.6848  11.7722  11.8693  12.0006  12.0346  12.1705  12.2437
    12.3305  12.4518  12.4735  12.5420  12.6350  12.6887  12.8419  12.8587
    12.9592  13.0182  13.1718  13.2245  13.2651  13.3136  13.4092  13.4444
    13.5065  13.5900  13.6386  13.6715  13.7817  13.8165  13.9440  14.0084
    14.0579  14.1083  14.1652  14.2096  14.3034  14.3249  14.3948  14.4086
    14.5408  14.5811  14.6499  14.6741  14.8514  14.8798  14.9509  14.9623
    14.9884  15.0046  15.0685  15.0864  15.1446  15.1765  15.1954  15.2395
    15.3461  15.4290  15.4573  15.5008  15.6040  15.6558  15.7148  15.7500
    15.7988  15.8149  15.8738  15.9099  16.0567  16.1169  16.1707  16.2313
    16.3215  16.3943  16.4684  16.5317  16.5709  16.6159  16.7317  16.8239
    16.8694  16.9010  16.9633  17.0006  17.1110  17.1461  17.2243  17.2749
    17.3432  17.3941  17.4435  17.4695  17.5862  17.6864  17.7670  17.8315
    17.8843  17.9218  18.0376  18.1675  18.2504  18.3797  18.4576  18.5190
    18.5584  18.6153  18.6508  18.7290  18.7734  18.7945  18.8479

          k =-0.5000-0.4516 0.0000 ( 29868 PWs)   bands (ev):

   -59.8450 -59.8431 -59.6416 -59.4355 -58.7246 -58.7119 -58.3956 -58.3952
   -36.2195 -36.1974 -36.0636 -36.0610 -35.9955 -35.9790 -35.9770 -35.8870
   -35.8119 -35.7004 -35.6994 -35.6563 -35.1409 -35.1320 -35.0275 -35.0115
   -34.8457 -34.8319 -34.7169 -34.7163 -34.6908 -34.6851 -34.6010 -34.5981
   -24.7510 -20.9707 -20.9233 -20.2118 -19.3201 -19.2733 -19.2541 -19.1172
   -19.0757 -19.0705 -19.0376 -18.9219 -18.8648 -18.8554 -18.8181 -18.0254
   -18.0191 -17.7679 -17.7386 -17.6849  -9.5598  -8.7375  -8.6623  -7.9181
    -7.2711  -6.9745  -6.8551  -6.8304  -6.7038  -6.4691  -6.3848  -6.3239
    -6.3037  -6.2969  -6.2798  -6.2391  -6.1773  -5.9734  -5.8421  -5.8327
    -5.8004  -5.6999  -5.6450  -5.6364  -5.5173  -5.4893  -5.4179  -5.1847
    -5.0219  -4.8761  -4.7574  -4.6521  -4.6502  -4.6188  -4.5711  -4.5229
    -4.4255  -4.4018  -4.3056  -4.2617  -4.1842  -4.1657  -4.0576  -3.7505
    -3.7046  -3.6173  -3.5615  -3.4979  -3.0452  -3.0338  -2.9546  -2.9307
    -2.7834  -2.6878  -2.5043  -2.4704  -2.3363  -2.2931  -2.1622  -0.0954
    -0.0287  -0.0116   0.1207   0.2333   0.3494   0.3804   0.6096   0.6381
     0.8515   0.8992   0.9648   1.1017   1.4142   1.4414   1.4503   1.5818
     1.6066   1.6658   1.8979   1.9018   1.9527   2.1492   2.1504   2.1692
     2.2751   2.5978   2.6065   2.6523   2.8095   2.8885   2.9043   3.4259
     3.9751   3.9763   4.0402   4.0469   4.1319   4.4078   4.4261   4.8026
     4.8183   4.8699   4.9935   5.0014   5.2317   5.2567   5.4305   5.4412
     5.5207   5.5311   5.7736   5.7947   5.9723   6.0350   6.2789   6.3767
     6.4926   6.7239   6.8902   7.1207   7.1963   7.5460   7.6034   7.8555
     7.8799   7.9810   8.2555   8.3748   8.5082   8.6999   8.7376   8.8812
     9.0911   9.1705   9.4507   9.5065   9.7165   9.8013  10.1262  10.2530
    10.5432  10.5711  10.7190  10.7445  10.7736  10.9054  10.9627  11.2593
    11.4231  11.5744  11.5830  11.7482  11.8279  11.8509  11.8988  12.0800
    12.0865  12.1835  12.2977  12.3115  12.3613  12.4193  12.4290  12.4363
    12.5090  12.6866  12.7079  12.7334  12.7601  12.7842  12.8497  12.9017
    13.0164  13.0217  13.0889  13.0968  13.1718  13.1877  13.2755  13.3335
    13.4120  13.4555  13.5208  13.5773  13.6134  13.6475  13.6706  13.7414
    13.7543  13.8061  13.9198  13.9372  13.9861  14.0068  14.1031  14.1091
    14.1845  14.2379  14.2638  14.3146  14.3234  14.3909  14.4573  14.4818
    14.5007  14.5315  14.6310  14.6825  14.7596  14.7959  14.8515  14.9765
    15.0005  15.0545  15.0666  15.1281  15.1503  15.1604  15.2547  15.3433
    15.4686  15.4883  15.6741  15.7900  15.8343  15.8592  15.9297  16.0283
    16.0910  16.0941  16.2121  16.2325  16.2595  16.2869  16.5584  16.5994
    16.6832  16.8813  16.9459  16.9814  17.0005  17.0223  17.0733  17.1942
    17.2454  17.2801  17.3951  17.4483  17.4944  17.5661  17.5990  17.6323
    17.8732  17.9789  18.0615  18.1174  18.1793  18.1967  18.3018  18.3629
    18.3746  18.5823  18.6661  18.7051  18.7968  18.8086  18.9246

          k =-0.2500 0.2258 0.0000 ( 29912 PWs)   bands (ev):

   -59.8573 -59.8304 -59.6421 -59.4346 -58.7337 -58.7024 -58.4095 -58.3809
   -36.3469 -36.1138 -36.0747 -36.0037 -35.9961 -35.9898 -35.9671 -35.9536
   -35.8212 -35.6951 -35.6587 -35.6223 -35.2948 -35.0569 -34.9799 -34.9753
   -34.8544 -34.8475 -34.8128 -34.7277 -34.7047 -34.6517 -34.5783 -34.5035
   -24.7511 -21.0925 -20.8684 -20.1868 -19.6392 -19.5657 -19.1769 -19.1200
   -19.0514 -19.0090 -18.9595 -18.8705 -18.8059 -18.6893 -18.6232 -18.2725
   -17.9369 -17.7297 -17.6624 -17.6143  -9.5647  -8.8614  -8.5793  -7.9140
    -7.3165  -7.2762  -7.1071  -7.0954  -7.0050  -6.6744  -6.6498  -6.4583
    -6.4171  -6.3829  -6.3251  -6.2412  -6.1958  -6.1273  -6.0987  -5.8561
    -5.7825  -5.7009  -5.5978  -5.5230  -5.4026  -5.1455  -4.9995  -4.9178
    -4.8493  -4.8070  -4.6707  -4.6362  -4.5768  -4.5135  -4.4385  -4.3348
    -4.2609  -4.2399  -4.1925  -4.1021  -4.0720  -3.9117  -3.8720  -3.7790
    -3.7134  -3.5857  -3.4012  -3.2793  -3.1384  -2.9763  -2.9632  -2.8524
    -2.7797  -2.7227  -2.6892  -2.4639  -2.3367  -2.2347  -2.1936  -0.2537
    -0.1729  -0.0583   0.1090   0.2566   0.3404   0.4213   0.4830   0.6658
     0.7038   0.7782   0.8487   1.0210   1.1617   1.3127   1.3652   1.3921
     1.5909   1.6826   1.7703   1.8690   1.9944   2.0471   2.1034   2.2775
     2.3506   2.5681   2.7733   2.8375   2.9019   3.0048   3.1169   3.6107
     3.7212   3.7481   3.7837   4.0349   4.0749   4.2386   4.3104   4.3601
     4.5594   4.6319   4.8930   4.9559   5.1715   5.2075   5.5160   5.6234
     5.6767   5.9183   6.0289   6.1968   6.4009   6.5568   6.6681   7.0102
     7.0859   7.2535   7.4951   7.5505   7.6920   7.8953   7.9688   8.1053
     8.1878   8.3364   8.4800   8.5606   8.6625   8.8090   8.9047   9.0088
     9.1077   9.2092   9.2535   9.3667   9.4752   9.6521   9.7098   9.7788
     9.8544   9.9967  10.1799  10.2554  10.3251  10.3871  10.4785  10.5198
    10.6671  10.7790  10.9136  10.9651  11.0041  11.1286  11.2061  11.2995
    11.3666  11.4543  11.5131  11.5949  11.6273  11.7305  11.8015  11.9177
    12.0065  12.1319  12.1672  12.2572  12.2948  12.3335  12.4256  12.5044
    12.5404  12.6307  12.7111  12.8099  12.8409  12.9649  13.0092  13.0548
    13.1470  13.2667  13.3047  13.3562  13.4726  13.5703  13.6596  13.7826
    13.8487  13.9473  14.0095  14.0857  14.1374  14.2204  14.2909  14.3115
    14.3648  14.4502  14.5214  14.6143  14.6690  14.7483  14.8253  14.9043
    14.9372  15.0679  15.1223  15.1997  15.2732  15.3411  15.3976  15.4391
    15.5107  15.5770  15.6475  15.7003  15.7125  15.8406  15.8942  15.9591
    16.0099  16.1468  16.1740  16.2114  16.2649  16.3623  16.4302  16.5011
    16.5333  16.5726  16.6596  16.7202  16.7690  16.8025  16.8833  16.9775
    17.0728  17.1330  17.2134  17.2507  17.3086  17.3544  17.4322  17.4726
    17.5744  17.6337  17.7002  17.8358  17.8964  17.9852  18.0527  18.1095
    18.1829  18.2292  18.3293  18.3719  18.4279  18.5111  18.5636  18.6136
    18.6605  18.7525  18.8168  18.8784  18.9569  19.0790  19.1214

     the Fermi energy is    -2.1773 ev

!    total energy              =   -1599.75117700 Ry
     Harris-Foulkes estimate   =   -1599.75117700 Ry
     estimated scf accuracy    <          3.7E-09 Ry

     The total energy is the sum of the following terms:

     one-electron contribution =  -19182.22896324 Ry
     hartree contribution      =    9615.41021849 Ry
     xc contribution           =    -284.64098812 Ry
     ewald contribution        =    8251.13519974 Ry
     Hubbard energy            =       0.57487130 Ry
     smearing contrib. (-TS)   =      -0.00151515 Ry

     convergence has been achieved in  10 iterations

     Forces acting on atoms (Ry/au):


     negative rho (up, down):  0.103E+00 0.000E+00
     atom    1 type  1   force =    -0.00011398   -0.01216840    0.00007971
     atom    2 type  1   force =     0.00010422    0.01807094    0.00032074
     atom    3 type  2   force =     0.05790984   -0.01152114   -0.00031619
     atom    4 type  2   force =    -0.00382433    0.00673138    0.00012975
     atom    5 type  1   force =    -0.00140197   -0.08147860   -0.00025804
     atom    6 type  1   force =    -0.00569479    0.08246115   -0.00029779
     atom    7 type  1   force =     0.00009327   -0.00047908   -0.00039474
     atom    8 type  1   force =     0.00229253   -0.00038216   -0.00004106
     atom    9 type  2   force =     0.00028253   -0.00042092   -0.00038060
     atom   10 type  2   force =    -0.00005578    0.00108187    0.00045284
     atom   11 type  1   force =    -0.01940676   -0.01813498    0.00013806
     atom   12 type  1   force =    -0.01554683    0.02223407    0.00029429
     atom   13 type  1   force =     0.00035944   -0.00190935    0.00024217
     atom   14 type  1   force =    -0.00150132   -0.01176921    0.00030421
     atom   15 type  1   force =     0.00011391    0.01611869    0.00025909
     atom   16 type  2   force =    -0.05769405   -0.01209773   -0.00032328
     atom   17 type  2   force =    -0.00413623    0.00591507    0.00035960
     atom   18 type  1   force =     0.00769309   -0.08133119   -0.00028662
     atom   19 type  1   force =     0.00443299    0.08291971   -0.00024425
     atom   20 type  1   force =    -0.00010162   -0.00013038   -0.00030792
     atom   21 type  1   force =     0.00233531    0.00008379   -0.00007930
     atom   22 type  2   force =    -0.00134674   -0.00032634   -0.00038132
     atom   23 type  2   force =     0.00000855   -0.00278943    0.00010592
     atom   24 type  1   force =     0.01961794   -0.01811032    0.00013363
     atom   25 type  1   force =     0.01544634    0.02203989    0.00027093
     atom   26 type  1   force =     0.00038378   -0.00466041    0.00022592
     atom   27 type  3   force =     0.00000788   -0.00019790    0.00031803
     atom   28 type  3   force =    -0.00002006   -0.00001319    0.00052589
     atom   29 type  3   force =    -0.00003136   -0.00033640    0.00018099
     atom   30 type  3   force =    -0.00018463   -0.00044484    0.00002665
     atom   31 type  1   force =     0.00012101    0.00041799   -0.00022086
     atom   32 type  1   force =    -0.00016863    0.00035062   -0.00084857
     atom   33 type  3   force =     0.00002647    0.00027678    0.00001214

     Total force =     0.001993     Total SCF correction =     0.000247
     SCF correction compared to forces is large: reduce conv_thr to get better values


     entering subroutine stress ...


     negative rho (up, down):  0.103E+00 0.000E+00
          total   stress  (Ry/bohr**3)                   (kbar)     P=   -2.28
   0.00001687  -0.00000227   0.00000309          2.48     -0.33      0.45
  -0.00000227  -0.00002784   0.00000007         -0.33     -4.10      0.01
   0.00000309   0.00000007  -0.00003557          0.45      0.01     -5.23


     bfgs converged in   7 scf cycles and   6 bfgs steps
     (criteria: energy < 0.10E-03, force < 0.10E-02)

     End of BFGS Geometry Optimization

     Final energy   =   -1599.7511769988 Ry
Begin final coordinates

ATOMIC_POSITIONS (crystal)
O0       0.000000000   0.000000000   0.377778937    0   0   1
O0       0.000000000   0.500000000   0.399059314    0   0   1
Ti1      0.250000000   0.500000000   0.450996407    0   0   1
Ti1      0.000000000   0.000000000   0.451565821    0   0   1
O0       0.250000000   0.810000000   0.449916617    0   0   1
O0       0.250000000   0.190000000   0.450845186    0   0   1
O0       0.000000000   0.500000000   0.498273853    0   0   1
O0       0.000000000   0.000000000   0.525812875    0   0   1
Ti1      0.250000000   0.000000000   0.580604288    0   0   1
Ti1      0.000000000   0.500000000   0.568125790    0   0   1
O0       0.250000000   0.690000000   0.578382764    0   0   1
O0       0.250000000   0.310000000   0.579568546    0   0   1
O0       0.000000000   0.000000000   0.622232177    0   0   1
O0       0.500000000   0.000000000   0.378423171    0   0   1
O0       0.500000000   0.500000000   0.398814136    0   0   1
Ti1      0.750000000   0.500000000   0.451005363    0   0   1
Ti1      0.500000000   0.000000000   0.453052154    0   0   1
O0       0.750000000   0.810000000   0.449850848    0   0   1
O0       0.750000000   0.190000000   0.450909759    0   0   1
O0       0.500000000   0.500000000   0.496006201    0   0   1
O0       0.500000000   0.000000000   0.526004280    0   0   1
Ti1      0.750000000   0.000000000   0.580610375    0   0   1
Ti1      0.500000000   0.500000000   0.584797521    0   0   1
O0       0.750000000   0.690000000   0.578376542    0   0   1
O0       0.750000000   0.310000000   0.579544644    0   0   1
O0       0.500000000   0.000000000   0.621889453    0   0   1
H2      -0.000457386   0.626679292   0.378811335
H2       0.499655641   0.625526322   0.378168348
H2       0.149856944   0.032852752   0.363773841
H2       0.649213576   0.034185711   0.364317215
O0       0.500454455   0.528066959   0.658038658
O0       0.498941963   0.350657485   0.688020234
H2       0.500380207   0.412901893   0.721893346
End final coordinates



     init_run     :     97.22s CPU     98.54s WALL (       1 calls)
     electrons    :  17250.87s CPU  17740.68s WALL (       7 calls)
     update_pot   :    108.74s CPU    111.20s WALL (       6 calls)
     forces       :    833.53s CPU    845.21s WALL (       7 calls)
     stress       :   4046.44s CPU   4193.60s WALL (       7 calls)

     Called by init_run:
     wfcinit      :     32.91s CPU     33.54s WALL (       1 calls)
     potinit      :      6.74s CPU      6.86s WALL (       1 calls)

     Called by electrons:
     c_bands      :   9093.50s CPU   9308.20s WALL (     103 calls)
     sum_band     :   3382.90s CPU   3475.48s WALL (     103 calls)
     v_of_rho     :    105.90s CPU    113.39s WALL (     108 calls)
     newd         :   4859.21s CPU   4901.41s WALL (     108 calls)
     mix_rho      :     19.52s CPU     19.96s WALL (     103 calls)

     Called by c_bands:
     init_us_2    :     35.60s CPU     35.93s WALL (     894 calls)
     cegterg      :   8967.97s CPU   9153.22s WALL (     309 calls)

     Called by *egterg:
     h_psi        :   5315.70s CPU   5407.48s WALL (    1100 calls)
     s_psi        :    671.77s CPU    680.33s WALL (    1331 calls)
     g_psi        :     11.14s CPU     11.16s WALL (     788 calls)
     cdiaghg      :    937.43s CPU    939.64s WALL (    1073 calls)

     Called by h_psi:
     add_vuspsi   :    510.60s CPU    518.14s WALL (    1100 calls)
     vhpsi        :    582.23s CPU    585.95s WALL (    1100 calls)

     General routines
     calbec       :   1540.31s CPU   1555.65s WALL (    9727 calls)
     fft          :    150.85s CPU    190.53s WALL (    1889 calls)
     ffts         :      1.81s CPU      1.86s WALL (     211 calls)
     fftw         :   2901.05s CPU   2997.47s WALL (  525235 calls)
     interpolate  :     15.92s CPU     16.18s WALL (     211 calls)
     davcio       :      0.08s CPU     15.40s WALL (    1083 calls)

     Parallel routines
     fft_scatter  :   1054.12s CPU   1183.64s WALL (  527335 calls)
     Hubbard U routines
     new_ns       :    105.55s CPU    112.24s WALL (     103 calls)
     vhpsi        :    582.23s CPU    585.95s WALL (    1100 calls)
     force_hub    :    237.08s CPU    243.14s WALL (       7 calls)
     stres_hub    :   2075.34s CPU   2120.89s WALL (       7 calls)

     PWSCF        :     6h17m CPU        6h28m WALL


   This run was terminated on:  20: 9:12  31May2014            

=------------------------------------------------------------------------------=
   JOB DONE.
=------------------------------------------------------------------------------=
---------------------------------------
Running PBS batch system epilogue script
Job id: 373326.audhumbla.fysik.dtu.dk
Username: zhonxu
Groupname: campgst
Jobname: TiO2/Eads-2-layers/OOH-U-1.0
Sessionid: 6567
Resources limits: neednodes=2:ppn=8:xeon8,nodes=2:ppn=8:xeon8,walltime=48:00:00
Resources used: cput=103:28:32,mem=15476688kb,vmem=19041268kb,walltime=06:28:23
Queuename: verylong
Accounting:
This job has allocated the following 16 nodes:
c060 c060 c060 c060 c060 c060 c060 c060 c031 c031 c031 c031 c031 c031 c031 c031
Finished epilogue job 373326.audhumbla.fysik.dtu.dk for zhonxu
