
     Program PWSCF v.5.0.2 (svn rev. 9656) starts on 24Jan2014 at 15:30:38 

     This program is part of the open-source Quantum ESPRESSO suite
     for quantum simulation of materials; please cite
         "P. Giannozzi et al., J. Phys.:Condens. Matter 21 395502 (2009);
          URL http://www.quantum-espresso.org", 
     in publications or presentations arising from this work. More details at
     http://www.quantum-espresso.org/quote.php

     Parallel version (MPI), running on     4 processors
     R & G space division:  proc/nbgrp/npool/nimage =       4

     Current dimensions of program PWSCF are:
     Max number of different atomic species (ntypx) = 10
     Max number of k-points (npk) =  40000
     Max angular momentum in pseudopotentials (lmaxx) =  3
     Reading input from MnO2-v-0.90.in

     Subspace diagonalization in iterative solution of the eigenvalue problem:
     a serial algorithm will be used


     Parallelization info
     --------------------
     sticks:   dense  smooth     PW     G-vecs:    dense   smooth      PW
     Min         654     211     62                16338     2975     489
     Max         655     212     64                16341     2984     490
     Sum        2617     845    253                65357    11921    1959



     bravais-lattice index     =            0
     lattice parameter (alat)  =       8.1289  a.u.
     unit-cell volume          =     346.1653 (a.u.)^3
     number of atoms/cell      =            6
     number of atomic types    =            2
     number of electrons       =        54.00
     number of Kohn-Sham states=           78
     kinetic-energy cutoff     =      40.0000  Ry
     charge density cutoff     =     500.0000  Ry
     convergence threshold     =      1.0E-06
     mixing beta               =       0.3000
     number of iterations used =            8  plain     mixing
     Exchange-correlation      = SLA  PW   PBE  PBE ( 1 4 3 4 0)
     EXX-fraction              =        0.00
     nstep                     =           50


     celldm(1)=   8.128917  celldm(2)=   0.000000  celldm(3)=   0.000000
     celldm(4)=   0.000000  celldm(5)=   0.000000  celldm(6)=   0.000000

     crystal axes: (cart. coord. in units of alat)
               a(1) = (   1.000000   0.000000   0.000000 )  
               a(2) = (   0.000000   1.000000   0.000000 )  
               a(3) = (   0.000000   0.000000   0.644444 )  

     reciprocal axes: (cart. coord. in units 2 pi/alat)
               b(1) = (  1.000000  0.000000  0.000000 )  
               b(2) = (  0.000000  1.000000  0.000000 )  
               b(3) = (  0.000000  0.000000  1.551724 )  


     PseudoPot. # 1 for Mn read from file:
     /home/camp/zhonxu/pseudo/mn_pbe_v1.uspp.F.UPF
     MD5 check sum: 5fd7c7b5c956fd19902447332617373a
     Pseudo is Ultrasoft + core correction, Zval = 15.0
     Generated by new atomic code, or converted to UPF format
     Using radial grid of  859 points,  6 beta functions with: 
                l(1) =   0
                l(2) =   0
                l(3) =   1
                l(4) =   1
                l(5) =   2
                l(6) =   2
     Q(r) pseudized with  6 coefficients,  rinner =    1.150   1.150   1.150
                                                       1.150   1.150

     PseudoPot. # 2 for O  read from file:
     /home/camp/zhonxu/pseudo/o_pbe_v1.01.uspp.F.UPF
     MD5 check sum: 2bcb18d16ea4b960afae9ec6d52f22d2
     Pseudo is Ultrasoft + core correction, Zval =  6.0
     Generated by new atomic code, or converted to UPF format
     Using radial grid of  737 points,  5 beta functions with: 
                l(1) =   0
                l(2) =   0
                l(3) =   1
                l(4) =   1
                l(5) =   2
     Q(r) pseudized with  8 coefficients,  rinner =    0.900   0.900   0.900
                                                       0.900   0.900

     atomic species   valence    mass     pseudopotential
        Mn0           15.00    54.93800     Mn( 1.00)
        O1             6.00    15.99940     O ( 1.00)

     Starting magnetic structure 
     atomic species   magnetization
        Mn0          0.600
        O1           0.000

     16 Sym. Ops., with inversion, found ( 8 have fractional translation)



   Cartesian axes

     site n.     atom                  positions (alat units)
         1           Mn0 tau(   1) = (   0.0000000   0.0000000   0.0000000  )
         2           Mn0 tau(   2) = (   0.5000000   0.5000000   0.3222222  )
         3           O1  tau(   3) = (   0.3050000   0.3050000   0.0000000  )
         4           O1  tau(   4) = (  -0.3050000  -0.3050000   0.0000000  )
         5           O1  tau(   5) = (   0.8050000   0.1950000   0.3222222  )
         6           O1  tau(   6) = (   0.1950000   0.8050000   0.3222222  )

     number of k points=    36  Methfessel-Paxton smearing, width (Ry)=  0.0100
                       cart. coord. in units 2pi/alat
        k(    1) = (   0.0000000   0.0000000   0.0000000), wk =   0.0080000
        k(    2) = (   0.0000000   0.0000000   0.3103448), wk =   0.0160000
        k(    3) = (   0.0000000   0.0000000   0.6206897), wk =   0.0160000
        k(    4) = (   0.0000000   0.2000000   0.0000000), wk =   0.0320000
        k(    5) = (   0.0000000   0.2000000   0.3103448), wk =   0.0640000
        k(    6) = (   0.0000000   0.2000000   0.6206897), wk =   0.0640000
        k(    7) = (   0.0000000   0.4000000   0.0000000), wk =   0.0320000
        k(    8) = (   0.0000000   0.4000000   0.3103448), wk =   0.0640000
        k(    9) = (   0.0000000   0.4000000   0.6206897), wk =   0.0640000
        k(   10) = (   0.2000000   0.2000000   0.0000000), wk =   0.0320000
        k(   11) = (   0.2000000   0.2000000   0.3103448), wk =   0.0640000
        k(   12) = (   0.2000000   0.2000000   0.6206897), wk =   0.0640000
        k(   13) = (   0.2000000   0.4000000   0.0000000), wk =   0.0640000
        k(   14) = (   0.2000000   0.4000000   0.3103448), wk =   0.1280000
        k(   15) = (   0.2000000   0.4000000   0.6206897), wk =   0.1280000
        k(   16) = (   0.4000000   0.4000000   0.0000000), wk =   0.0320000
        k(   17) = (   0.4000000   0.4000000   0.3103448), wk =   0.0640000
        k(   18) = (   0.4000000   0.4000000   0.6206897), wk =   0.0640000
        k(   19) = (   0.0000000   0.0000000   0.0000000), wk =   0.0080000
        k(   20) = (   0.0000000   0.0000000   0.3103448), wk =   0.0160000
        k(   21) = (   0.0000000   0.0000000   0.6206897), wk =   0.0160000
        k(   22) = (   0.0000000   0.2000000   0.0000000), wk =   0.0320000
        k(   23) = (   0.0000000   0.2000000   0.3103448), wk =   0.0640000
        k(   24) = (   0.0000000   0.2000000   0.6206897), wk =   0.0640000
        k(   25) = (   0.0000000   0.4000000   0.0000000), wk =   0.0320000
        k(   26) = (   0.0000000   0.4000000   0.3103448), wk =   0.0640000
        k(   27) = (   0.0000000   0.4000000   0.6206897), wk =   0.0640000
        k(   28) = (   0.2000000   0.2000000   0.0000000), wk =   0.0320000
        k(   29) = (   0.2000000   0.2000000   0.3103448), wk =   0.0640000
        k(   30) = (   0.2000000   0.2000000   0.6206897), wk =   0.0640000
        k(   31) = (   0.2000000   0.4000000   0.0000000), wk =   0.0640000
        k(   32) = (   0.2000000   0.4000000   0.3103448), wk =   0.1280000
        k(   33) = (   0.2000000   0.4000000   0.6206897), wk =   0.1280000
        k(   34) = (   0.4000000   0.4000000   0.0000000), wk =   0.0320000
        k(   35) = (   0.4000000   0.4000000   0.3103448), wk =   0.0640000
        k(   36) = (   0.4000000   0.4000000   0.6206897), wk =   0.0640000

     Dense  grid:    65357 G-vectors     FFT dimensions: (  60,  60,  40)

     Smooth grid:    11921 G-vectors     FFT dimensions: (  36,  36,  24)

     Largest allocated arrays     est. size (Mb)     dimensions
        Kohn-Sham Wavefunctions         0.45 Mb     (    378,   78)
        NL pseudopotentials             0.51 Mb     (    378,   88)
        Each V/rho on FFT grid          1.10 Mb     (  36000,   2)
        Each G-vector array             0.12 Mb     (  16340)
        G-vector shells                 0.12 Mb     (  16340)
     Largest temporary arrays     est. size (Mb)     dimensions
        Auxiliary wavefunctions         1.80 Mb     (    378,  312)
        Each subspace H/S matrix        1.49 Mb     ( 312, 312)
        Each <psi_i|beta_j> matrix      0.10 Mb     (     88,   78)
        Arrays for rho mixing           4.39 Mb     (  36000,   8)

     Check: negative/imaginary core charge=   -0.000063    0.000000

     Initial potential from superposition of free atoms

     starting charge   51.99998, renormalised to   54.00000
     Starting wfc are   42 randomized atomic wfcs

     total cpu time spent up to now is        8.7 secs

     per-process dynamical memory:    42.1 Mb

     Self-consistent Calculation

     iteration #  1     ecut=    40.00 Ry     beta=0.30
     Davidson diagonalization with overlap
     ethr =  1.00E-02,  avg # of iterations =  4.9

     total cpu time spent up to now is       47.4 secs

     total energy              =    -553.79422848 Ry
     Harris-Foulkes estimate   =    -554.25081748 Ry
     estimated scf accuracy    <       3.96005950 Ry

     total magnetization       =     6.00 Bohr mag/cell
     absolute magnetization    =     7.14 Bohr mag/cell

     iteration #  2     ecut=    40.00 Ry     beta=0.30
     Davidson diagonalization with overlap
     ethr =  7.33E-03,  avg # of iterations =  1.0

     total cpu time spent up to now is       61.7 secs

     total energy              =    -554.38938173 Ry
     Harris-Foulkes estimate   =    -554.43944567 Ry
     estimated scf accuracy    <       1.30304783 Ry

     total magnetization       =     6.30 Bohr mag/cell
     absolute magnetization    =     7.84 Bohr mag/cell

     iteration #  3     ecut=    40.00 Ry     beta=0.30
     Davidson diagonalization with overlap
     ethr =  2.41E-03,  avg # of iterations =  1.0

     total cpu time spent up to now is       76.1 secs

     total energy              =    -554.82022633 Ry
     Harris-Foulkes estimate   =    -554.56445925 Ry
     estimated scf accuracy    <       0.65989037 Ry

     total magnetization       =     6.00 Bohr mag/cell
     absolute magnetization    =     7.23 Bohr mag/cell

     iteration #  4     ecut=    40.00 Ry     beta=0.30
     Davidson diagonalization with overlap
     ethr =  1.22E-03,  avg # of iterations =  1.0

     total cpu time spent up to now is       90.4 secs

     total energy              =    -554.90961482 Ry
     Harris-Foulkes estimate   =    -554.95789845 Ry
     estimated scf accuracy    <       0.41938535 Ry

     total magnetization       =     5.58 Bohr mag/cell
     absolute magnetization    =     6.01 Bohr mag/cell

     iteration #  5     ecut=    40.00 Ry     beta=0.30
     Davidson diagonalization with overlap
     ethr =  7.77E-04,  avg # of iterations =  1.0

     total cpu time spent up to now is      104.7 secs

     total energy              =    -554.92494955 Ry
     Harris-Foulkes estimate   =    -554.92681018 Ry
     estimated scf accuracy    <       0.06596407 Ry

     total magnetization       =     5.72 Bohr mag/cell
     absolute magnetization    =     6.03 Bohr mag/cell

     iteration #  6     ecut=    40.00 Ry     beta=0.30
     Davidson diagonalization with overlap
     ethr =  1.22E-04,  avg # of iterations =  1.3

     total cpu time spent up to now is      119.4 secs

     total energy              =    -554.92121310 Ry
     Harris-Foulkes estimate   =    -554.92680101 Ry
     estimated scf accuracy    <       0.03287249 Ry

     total magnetization       =     5.94 Bohr mag/cell
     absolute magnetization    =     6.22 Bohr mag/cell

     iteration #  7     ecut=    40.00 Ry     beta=0.30
     Davidson diagonalization with overlap
     ethr =  6.09E-05,  avg # of iterations =  1.1

     total cpu time spent up to now is      133.8 secs

     total energy              =    -554.92840456 Ry
     Harris-Foulkes estimate   =    -554.92866037 Ry
     estimated scf accuracy    <       0.00159063 Ry

     total magnetization       =     5.97 Bohr mag/cell
     absolute magnetization    =     6.10 Bohr mag/cell

     iteration #  8     ecut=    40.00 Ry     beta=0.30
     Davidson diagonalization with overlap
     ethr =  2.95E-06,  avg # of iterations =  2.8

     total cpu time spent up to now is      150.7 secs

     total energy              =    -554.92867769 Ry
     Harris-Foulkes estimate   =    -554.92870446 Ry
     estimated scf accuracy    <       0.00016515 Ry

     total magnetization       =     5.93 Bohr mag/cell
     absolute magnetization    =     6.06 Bohr mag/cell

     iteration #  9     ecut=    40.00 Ry     beta=0.30
     Davidson diagonalization with overlap
     ethr =  3.06E-07,  avg # of iterations =  1.4

     total cpu time spent up to now is      165.4 secs

     total energy              =    -554.92878574 Ry
     Harris-Foulkes estimate   =    -554.92875681 Ry
     estimated scf accuracy    <       0.00003951 Ry

     total magnetization       =     5.93 Bohr mag/cell
     absolute magnetization    =     6.04 Bohr mag/cell

     iteration # 10     ecut=    40.00 Ry     beta=0.30
     Davidson diagonalization with overlap
     ethr =  7.32E-08,  avg # of iterations =  1.3

     total cpu time spent up to now is      179.9 secs

     total energy              =    -554.92880945 Ry
     Harris-Foulkes estimate   =    -554.92880572 Ry
     estimated scf accuracy    <       0.00002708 Ry

     total magnetization       =     5.93 Bohr mag/cell
     absolute magnetization    =     6.05 Bohr mag/cell

     iteration # 11     ecut=    40.00 Ry     beta=0.30
     Davidson diagonalization with overlap
     ethr =  5.01E-08,  avg # of iterations =  1.0

     total cpu time spent up to now is      193.7 secs

     End of self-consistent calculation

 ------ SPIN UP ------------


          k = 0.0000 0.0000 0.0000 (  1471 PWs)   bands (ev):

   -69.7531 -69.7491 -38.4841 -38.4721 -38.4268 -38.4268 -38.3644 -38.3644
    -8.4816  -6.4140  -5.8794  -5.8794   3.5521   4.1931   4.7782   5.8682
     5.8682   7.7238   7.7238   8.5080   9.4439   9.5622   9.7742   9.7742
     9.9415  10.4440  10.8550  10.8550  11.5200  12.3955  12.4110  15.4810
    15.4810  16.2852  20.6307  23.7872  23.7872  26.4879  27.5290  28.0329
    31.0140  31.8570  31.8570  32.2486  32.7354  36.9347  37.3614  37.5599
    37.5599  38.7431  38.7431  39.1637  39.8682  39.8682  40.0625  41.4942
    43.3708  44.1471  47.4182  47.4182  47.5169  47.5169  47.5940  49.0573
    50.8386  52.5194  52.5194  52.8975  54.4431  54.6704  54.6704  55.5639
    57.2033  57.6405  59.0612  59.0612  59.8889  59.8890

          k = 0.0000 0.0000 0.3103 (  1475 PWs)   bands (ev):

   -69.7475 -69.7442 -38.5416 -38.5313 -38.4156 -38.4156 -38.3622 -38.3622
    -8.0335  -6.2625  -5.9777  -5.9777   4.1379   4.6121   5.2855   5.6084
     5.6084   7.0447   8.1234   8.2938   8.2938   8.8833   8.8833   9.6379
    10.1224  10.7360  10.9515  11.6082  11.6082  12.1746  13.0676  14.8239
    14.8239  15.6228  21.8414  25.3262  25.3262  26.9539  27.5025  28.5221
    30.3929  30.5247  30.9611  31.3303  31.3303  35.6288  35.6288  36.7670
    37.4444  38.6272  38.6272  38.7830  39.7762  43.4932  43.4932  43.6299
    45.0479  45.0479  45.4495  46.7257  47.3512  48.8618  48.8618  49.5153
    49.9828  53.5479  53.5479  53.9447  54.4807  54.7528  54.8951  54.8951
    55.0363  56.5682  57.6980  57.6980  59.6719  60.5427

          k = 0.0000 0.0000 0.6207 (  1490 PWs)   bands (ev):

   -69.7381 -69.7368 -38.6327 -38.6290 -38.3961 -38.3961 -38.3592 -38.3592
    -7.0130  -6.2618  -6.1406  -6.1406   5.1017   5.2288   5.7968   5.7968
     5.9287   6.4881   6.6962   7.4785   7.4785   8.5859   8.8885   8.8885
    10.1336  10.6034  10.8590  11.5728  12.1932  12.1932  13.6743  14.2923
    14.5205  14.5205  24.2157  26.2892  27.5704  27.5704  27.6664  28.5143
    29.1854  29.6466  29.9483  29.9483  30.5481  32.7752  34.7514  34.7514
    39.2311  39.2311  39.9181  40.5225  41.2501  43.2419  43.9375  43.9375
    44.6556  46.6154  46.6154  47.4003  49.6468  49.9944  49.9944  50.4182
    51.9117  52.8634  52.9799  52.9799  53.4238  54.3241  54.3241  55.0157
    56.1898  56.7354  56.7354  58.2673  59.3375  61.6472

          k = 0.0000 0.2000 0.0000 (  1486 PWs)   bands (ev):

   -69.7527 -69.7495 -38.4832 -38.4730 -38.4249 -38.4247 -38.3674 -38.3670
    -8.3084  -6.6015  -5.9509  -5.8990   3.8478   4.3281   5.0922   5.8896
     5.9031   7.3066   7.5115   8.3514   8.9697   9.2579   9.7977   9.8284
    10.1323  10.7340  10.8300  10.8375  11.4380  12.2621  13.1028  15.3657
    15.4033  16.0727  21.1614  23.8388  24.0185  26.4229  27.4483  28.2988
    30.7805  31.6211  31.8009  32.7091  33.1272  35.0571  36.4518  36.6100
    37.4407  37.5219  38.6797  39.1330  39.8340  39.8341  41.9139  43.9825
    44.8171  44.9910  45.9006  45.9536  47.5687  47.8156  48.1568  50.1416
    51.5079  52.2706  53.0158  53.7388  53.8908  54.1258  54.6468  55.7484
    56.4853  56.7142  58.0323  58.7698  58.8555  59.6894

          k = 0.0000 0.2000 0.3103 (  1480 PWs)   bands (ev):

   -69.7472 -69.7446 -38.5412 -38.5324 -38.4141 -38.4139 -38.3640 -38.3636
    -7.8796  -6.3992  -6.0512  -5.9939   4.3809   4.7751   5.2682   5.5694
     5.9927   6.8962   7.4684   8.2113   8.2793   8.6625   8.7647   9.6826
    10.5267  10.8505  11.0618  11.3887  11.5862  12.0568  13.5004  14.4095
    14.8262  15.8148  22.2575  25.1846  25.4793  27.0835  27.5260  28.7001
    30.0925  30.1429  30.8105  31.0683  32.1658  34.1252  34.3727  37.0541
    38.3458  38.4554  39.1235  39.2279  40.0494  42.3224  42.8493  43.4007
    44.7665  45.2661  46.4861  47.7929  48.4593  48.5934  49.5864  50.0561
    50.7170  51.9944  52.9755  53.8552  54.3247  54.4601  54.8385  55.1874
    55.2518  57.1530  58.4947  58.8913  59.1899  59.3924

          k = 0.0000 0.2000 0.6207 (  1472 PWs)   bands (ev):

   -69.7379 -69.7370 -38.6325 -38.6294 -38.3957 -38.3956 -38.3591 -38.3589
    -6.9329  -6.2940  -6.1805  -6.1504   5.0384   5.2477   5.2687   5.5910
     6.3460   6.5060   7.1598   7.5298   7.7216   8.5565   8.6440   8.9582
    10.2421  10.6348  10.6484  11.3161  12.2169  12.2263  13.4450  13.4700
    15.0217  15.4020  24.2705  26.0337  27.1446  27.7666  28.1022  28.2001
    29.2575  29.5167  29.8364  29.8799  30.7549  32.0122  34.4272  35.1711
    39.3129  39.5241  40.4262  40.6625  41.9441  42.6578  42.9523  43.8216
    44.8467  46.6066  46.7113  46.9853  48.4972  50.2965  50.5015  50.7252
    51.5306  52.6204  53.4736  53.6010  54.7358  54.8553  55.5782  55.6701
    56.6572  56.8127  56.9034  58.7517  59.1984  60.5014

          k = 0.0000 0.4000 0.0000 (  1492 PWs)   bands (ev):

   -69.7517 -69.7505 -38.4802 -38.4757 -38.4214 -38.4213 -38.3712 -38.3711
    -7.8277  -7.1698  -5.9799  -5.9440   4.3607   4.5426   5.9363   5.9512
     6.0836   6.7796   7.0249   7.6502   8.2985   8.6302   9.9130  10.0975
    10.6440  10.6556  10.7353  11.0517  11.5500  11.9236  14.3219  15.2045
    15.2448  15.4014  22.3540  23.4684  24.8071  25.8473  27.8559  28.5386
    30.4310  30.7679  31.6890  33.0353  33.8915  34.2472  35.5182  35.6831
    36.0347  37.0553  38.7352  39.3541  40.2847  40.4587  41.3088  42.2085
    46.4347  47.1002  47.1581  47.6902  47.6943  48.5427  50.2136  50.4626
    51.4866  52.1023  52.5957  53.1018  53.3939  53.7246  54.5156  55.3339
    56.6020  56.8869  57.5110  57.5190  58.1503  59.3299

          k = 0.0000 0.4000 0.3103 (  1476 PWs)   bands (ev):

   -69.7464 -69.7454 -38.5386 -38.5354 -38.4113 -38.4112 -38.3664 -38.3663
    -7.4555  -6.8833  -6.0664  -6.0320   4.8509   5.0422   5.4742   5.5491
     6.4861   6.7384   6.9603   7.5619   7.7412   8.2056   9.2373   9.5731
    10.9387  11.0651  11.1493  11.3213  11.6023  11.7796  13.9042  13.9894
    15.1462  15.6969  23.2827  24.4452  26.1082  26.9757  27.9728  28.7592
    29.5077  29.9350  30.1389  31.2143  32.2548  32.9985  34.1179  36.2020
    38.5346  38.6824  39.4690  40.0960  40.3003  41.3544  42.6894  43.4076
    44.1530  45.3235  46.4553  47.6416  49.1282  49.5117  51.0982  51.3937
    51.5493  53.0823  53.4697  53.7788  54.3539  54.9460  55.0942  55.2123
    55.6866  56.4130  57.1423  58.6591  59.3922  59.6065

          k = 0.0000 0.4000 0.6207 (  1479 PWs)   bands (ev):

   -69.7377 -69.7373 -38.6319 -38.6308 -38.3953 -38.3952 -38.3597 -38.3595
    -6.7242  -6.4711  -6.1928  -6.1730   4.7317   4.8707   5.4745   5.6863
     6.3254   6.8299   7.1132   7.8585   7.9926   8.1738   8.7345   9.5427
    10.1009  10.4425  10.6589  10.6967  12.2805  12.2845  13.0070  13.1151
    15.7513  15.9560  24.6220  25.3478  26.9542  27.3431  28.3926  28.8737
    29.2533  29.2611  29.5156  29.6597  30.7713  30.8670  34.8192  35.6883
    39.9029  40.1014  40.6193  40.9666  41.2801  42.3347  42.5416  43.2149
    44.1951  44.2686  48.0555  48.3716  49.2440  50.2544  51.0746  51.3098
    51.6146  52.4267  53.9552  54.2316  54.5269  54.6905  56.3125  56.5064
    57.9055  57.9964  58.1015  58.9440  59.8973  60.4769

          k = 0.2000 0.2000 0.0000 (  1489 PWs)   bands (ev):

   -69.7524 -69.7498 -38.4824 -38.4738 -38.4278 -38.4210 -38.3712 -38.3647
    -8.1545  -6.7402  -5.9700  -5.9663   3.8578   4.5527   5.3491   5.8436
     5.9537   6.9605   7.6458   8.2787   9.1902   9.2623   9.5280   9.5913
     9.7791  10.6048  10.9125  11.0319  11.5881  12.2924  13.3420  15.2239
    15.4685  15.8344  21.6439  23.9996  24.1808  26.4252  27.3012  28.2580
    30.5590  31.2866  32.1334  33.1031  33.4780  35.0415  35.1389  36.0796
    36.3924  36.9833  37.6156  39.1710  40.9192  41.3923  43.3594  44.1943
    44.5800  45.5130  45.8247  45.9426  46.6316  47.4630  49.4877  49.6571
    51.6722  52.4931  52.9070  53.3420  53.9428  54.7811  55.0802  55.5148
    56.8129  56.9740  57.4893  58.9944  59.3198  59.5711

          k = 0.2000 0.2000 0.3103 (  1474 PWs)   bands (ev):

   -69.7469 -69.7448 -38.5401 -38.5335 -38.4162 -38.4109 -38.3665 -38.3618
    -7.7425  -6.5075  -6.0643  -6.0553   4.3339   5.0342   5.1861   5.6461
     6.2046   6.7042   7.6620   7.7143   8.1166   8.8315   8.9746   9.6472
    10.3422  10.8384  11.0189  11.3119  11.7891  12.0247  13.6690  14.2667
    14.8717  15.8028  22.6153  25.3173  25.3809  27.1861  27.5493  28.3202
    29.9511  29.9988  30.8716  31.6921  31.8748  33.3245  34.1834  37.0390
    37.8441  38.5341  38.9011  39.2397  40.7964  42.3689  42.5596  44.0967
    44.5758  45.4168  46.3236  47.2322  49.2037  49.3831  49.8281  50.5279
    51.4704  51.9809  53.1468  53.4542  54.1543  54.4292  54.4592  55.0639
    55.2233  57.6247  58.0927  58.3643  59.3314  60.5184

          k = 0.2000 0.2000 0.6207 (  1482 PWs)   bands (ev):

   -69.7379 -69.7371 -38.6325 -38.6299 -38.3965 -38.3951 -38.3595 -38.3592
    -6.8598  -6.3112  -6.1989  -6.1824   4.8537   5.2210   5.2972   5.5603
     5.8700   7.0007   7.3133   7.5675   7.8405   8.2566   8.7376   9.2990
    10.2696  10.4871  10.6626  11.3661  11.8813  12.3569  12.9532  14.2811
    14.5473  15.7933  24.2179  26.0384  26.3207  27.9375  28.0707  28.7290
    28.8813  29.0686  29.7682  30.5411  30.5970  32.4143  33.5456  35.8336
    38.8543  39.0321  40.0522  41.6554  41.8880  42.7732  43.1362  43.6335
    45.9968  46.1760  47.2686  47.3406  47.8753  49.3001  49.7619  51.0855
    52.4786  52.6079  53.8796  53.9443  54.4676  54.4829  55.5399  56.6342
    56.7873  57.2536  58.2018  58.6073  59.3545  60.7997

          k = 0.2000 0.4000 0.0000 (  1467 PWs)   bands (ev):

   -69.7515 -69.7505 -38.4792 -38.4759 -38.4259 -38.4215 -38.3703 -38.3664
    -7.7337  -7.1804  -6.0237  -6.0041   4.0913   4.4819   5.8621   5.9297
     6.1582   7.0594   7.2817   8.1939   8.4378   8.9455   9.3305   9.7463
    10.3682  10.4952  10.5393  10.9234  11.9075  12.1827  14.1722  15.1414
    15.2198  15.3727  22.7280  23.7675  24.9052  25.9563  27.5466  28.0966
    30.2272  30.5756  32.2353  33.2446  34.1146  34.4583  35.2597  35.5046
    35.5380  35.6553  38.0802  39.9136  40.1569  42.0005  42.5736  43.1341
    45.8225  46.2763  46.5762  46.6537  47.3953  48.6070  49.1916  51.3061
    51.7647  51.7680  52.7076  53.0767  53.3682  55.5682  55.5825  56.3100
    56.4985  57.1418  57.7257  58.2398  58.2401  59.2791

          k = 0.2000 0.4000 0.3103 (  1479 PWs)   bands (ev):

   -69.7463 -69.7455 -38.5382 -38.5355 -38.4149 -38.4118 -38.3662 -38.3632
    -7.3702  -6.8858  -6.1004  -6.0859   4.5513   4.9654   5.2481   5.4667
     6.7073   6.9632   7.3118   7.7841   7.9210   8.4379   9.0748   9.4114
    10.6852  10.8329  10.8868  11.1997  11.8355  11.9220  13.9769  14.2395
    15.0404  15.5394  23.5140  24.5881  26.0633  27.0663  27.7352  28.0403
    29.5330  29.8544  30.5993  31.1671  32.2785  32.9469  34.2862  36.3848
    37.6970  38.1575  39.4326  39.5849  40.9737  41.4646  42.7935  43.9286
    45.0480  45.5741  46.7881  47.2275  48.5283  49.9175  50.3793  51.2978
    52.2974  52.9046  53.7782  54.0864  54.3136  54.4904  55.3693  55.6619
    56.0591  56.6677  57.1924  58.2896  59.1802  59.9051

          k = 0.2000 0.4000 0.6207 (  1474 PWs)   bands (ev):

   -69.7376 -69.7373 -38.6316 -38.6308 -38.3962 -38.3952 -38.3595 -38.3593
    -6.6710  -6.4481  -6.2207  -6.2038   4.6904   4.8823   5.3236   5.5491
     6.0699   6.7490   7.3729   7.5657   8.0533   8.4554   9.0206   9.7647
    10.2108  10.3873  10.5682  10.8955  11.9834  12.2443  13.0958  13.6805
    15.3543  15.8864  24.3873  25.1279  26.4079  27.2329  28.2502  28.7045
    29.0062  29.3987  29.5443  30.0928  31.0222  31.8496  34.4181  36.2550
    38.4090  39.0967  39.5803  40.4149  42.5672  42.8360  43.0817  44.3191
    45.0989  46.1563  48.0136  48.1922  49.0031  49.5716  49.7741  50.9955
    51.9147  52.9126  53.1822  54.2457  54.4011  55.5258  55.8516  56.3855
    57.6963  58.1980  58.2665  58.7354  59.6915  60.2428

          k = 0.4000 0.4000 0.0000 (  1486 PWs)   bands (ev):

   -69.7513 -69.7509 -38.4783 -38.4770 -38.4292 -38.4269 -38.3659 -38.3639
    -7.5014  -7.2741  -6.1091  -6.0905   3.9280   4.1138   5.8041   5.8410
     6.7655   7.5438   7.5741   8.3134   8.9188   8.9888   9.4951   9.5694
     9.7885  10.0434  10.2960  10.3991  12.2953  12.3882  14.1228  14.5529
    15.3624  15.4502  23.5641  24.2017  25.1311  25.8662  27.2779  27.5541
    29.9896  30.2072  32.3343  32.7571  34.5774  34.5942  34.6466  35.0722
    35.1532  35.6097  39.1300  40.4340  40.8239  41.3599  42.6392  43.7278
    44.9489  45.6519  45.6773  46.3356  47.6956  48.0425  50.4074  51.6470
    51.9287  52.4044  52.6986  53.1673  54.6227  56.4485  56.5558  57.1442
    57.4811  57.8763  58.0312  58.1630  58.2915  58.5765

          k = 0.4000 0.4000 0.3103 (  1477 PWs)   bands (ev):

   -69.7460 -69.7457 -38.5368 -38.5359 -38.4173 -38.4156 -38.3630 -38.3614
    -7.1593  -6.9571  -6.1755  -6.1584   4.3654   4.5636   5.1481   5.2324
     7.3643   7.4107   7.6650   7.8791   8.3654   8.5972   8.7971   9.1861
    10.2941  10.6771  10.7610  10.7761  12.0131  12.0442  14.2983  14.4714
    14.9120  15.1559  24.1021  24.6730  26.0399  26.6843  27.7684  27.8670
    29.4436  29.6006  30.1669  30.5644  32.8166  33.2844  34.9659  36.5352
    36.7862  36.9340  39.9301  40.1537  41.5645  41.6710  42.2660  42.8635
    45.4279  45.8315  47.3994  47.9366  48.9702  49.4021  50.3347  50.7293
    53.1186  53.7544  53.7746  54.4857  54.7170  55.4215  55.9203  56.0137
    56.6853  56.7029  57.4805  58.1092  58.3839  59.1423

          k = 0.4000 0.4000 0.6207 (  1489 PWs)   bands (ev):

   -69.7375 -69.7374 -38.6312 -38.6307 -38.3970 -38.3967 -38.3595 -38.3591
    -6.5399  -6.4265  -6.2904  -6.2586   4.7038   4.9071   5.0407   5.1507
     6.1794   6.4647   7.3969   7.4351   8.3655   8.5483   9.5496   9.8955
    10.3323  10.4044  10.7178  11.3138  11.4899  11.9149  13.7215  14.5695
    14.5778  15.4010  24.2063  24.5452  26.2119  26.6482  27.9283  28.1653
    29.2282  29.4257  30.1302  30.4399  31.6178  32.0435  35.1910  37.0249
    37.4172  37.9924  38.5692  39.2701  43.4509  43.5570  43.6819  44.4755
    46.8023  47.2166  47.7714  48.7948  49.2450  49.3555  50.1882  50.7367
    51.1353  52.0835  53.6863  54.4381  54.6499  55.2246  56.1005  56.6611
    57.1405  57.3420  57.3779  58.2417  59.4563  60.4332

 ------ SPIN DOWN ----------


          k = 0.0000 0.0000 0.0000 (  1471 PWs)   bands (ev):

   -66.5312 -66.5264 -35.3711 -35.3560 -35.3367 -35.3367 -35.2244 -35.2244
    -8.2159  -6.1381  -5.6221  -5.6221   4.1334   5.0627   5.7059   6.6827
     6.6827   8.0568   8.0568   8.6573  10.5343  11.1754  11.1754  11.7414
    12.3138  12.6787  12.8772  12.8772  13.1001  14.5530  15.2558  16.9795
    16.9795  18.0542  21.0405  24.2748  24.2748  27.4051  27.9809  28.7950
    31.6881  32.7140  32.7140  32.8887  33.1728  37.3274  37.9619  37.9619
    38.3395  39.4559  39.4559  40.0407  40.2012  40.4488  40.4488  42.1775
    44.4291  44.8038  47.7765  47.7765  47.9301  48.1413  48.1413  49.5820
    51.5104  52.9354  52.9354  53.2189  55.0851  55.1284  55.1284  56.2985
    57.5605  58.2215  59.5331  59.5331  60.3051  60.5134

          k = 0.0000 0.0000 0.3103 (  1475 PWs)   bands (ev):

   -66.5248 -66.5209 -35.4396 -35.4269 -35.3228 -35.3228 -35.2214 -35.2214
    -7.7648  -5.9873  -5.7162  -5.7162   4.6819   5.4220   6.2393   6.3218
     6.3218   7.4185   8.8001   8.8001   8.8874  10.0330  10.0330  11.5032
    12.8047  12.9197  13.1571  13.6981  13.6981  14.9813  15.1198  16.4347
    16.4347  17.3524  22.1843  25.8186  25.8186  27.5873  27.9721  29.3618
    30.8960  31.1876  31.7846  32.0708  32.0708  36.5089  36.5089  37.1220
    38.2893  38.9939  38.9939  39.4940  40.4652  43.8381  44.0040  44.0040
    45.4105  45.4105  46.0967  47.2529  48.1279  49.5773  49.5773  50.0424
    50.5619  53.9542  53.9542  54.7598  55.0761  55.0822  55.3397  55.3397
    55.5241  57.2279  58.2561  58.2561  61.1210  61.1211

          k = 0.0000 0.0000 0.6207 (  1490 PWs)   bands (ev):

   -66.5139 -66.5124 -35.5477 -35.5432 -35.2995 -35.2995 -35.2165 -35.2165
    -6.7414  -5.9895  -5.8735  -5.8735   5.6799   5.8843   6.2579   6.5641
     6.5641   6.9744   7.7364   8.2269   8.2269   9.5209   9.5209   9.8113
    13.2482  13.3050  13.7018  14.2315  14.4912  14.4912  15.6172  15.9718
    16.1670  16.1670  24.4935  26.5951  28.0654  28.0654  28.1775  29.0182
    30.2603  30.5750  30.5750  30.5844  31.0646  33.3470  35.7152  35.7152
    39.5931  39.5931  40.5100  41.0703  41.7278  43.7286  44.4088  44.4088
    45.1227  47.2506  47.2506  47.9041  50.2743  50.2743  50.2751  50.8672
    52.9101  53.2981  53.5565  53.5565  54.2082  54.6256  54.6256  55.7161
    56.9138  57.5959  57.5959  58.9562  59.8509  61.9977

          k = 0.0000 0.2000 0.0000 (  1486 PWs)   bands (ev):

   -66.5308 -66.5268 -35.3700 -35.3572 -35.3351 -35.3350 -35.2272 -35.2267
    -8.0420  -6.3298  -5.6879  -5.6398   4.4403   5.1696   6.0214   6.6910
     6.7001   7.8097   7.9732   8.7241  10.1708  10.2675  10.8079  11.5955
    12.5827  13.0160  13.0517  13.1699  13.4287  14.9173  15.0964  16.8277
    16.8713  17.8026  21.5628  24.3289  24.5562  27.2640  27.9126  28.9780
    31.4482  32.4907  32.7312  33.2826  33.6556  35.7436  36.8596  36.9713
    37.8902  38.3450  39.4166  39.8192  40.4088  40.5682  42.6584  44.4810
    45.3119  45.7831  46.5205  46.5254  47.8218  48.4202  48.8458  50.6776
    51.9920  52.7386  53.3044  54.1152  54.3645  54.7791  54.8800  56.5226
    57.0581  57.2429  58.5982  59.2595  59.4848  60.2590

          k = 0.0000 0.2000 0.3103 (  1480 PWs)   bands (ev):

   -66.5244 -66.5212 -35.4390 -35.4282 -35.3216 -35.3214 -35.2229 -35.2226
    -7.6107  -6.1287  -5.7843  -5.7311   4.9344   5.5609   6.0737   6.2884
     6.8862   7.3393   8.2663   8.6402   8.6659  10.0038  10.0680  11.3311
    12.8367  13.2271  13.3720  13.5958  13.8506  14.8289  15.3854  16.0746
    16.3832  17.4391  22.6099  25.6497  26.0107  27.7142  28.0038  29.4257
    30.5738  30.9411  31.5014  31.8700  32.9053  34.9603  35.2064  37.5290
    38.8454  38.8840  39.8371  39.8632  40.6775  42.9242  43.4099  43.9259
    45.1178  45.7917  46.8532  48.2815  49.1544  49.2362  50.2869  50.5932
    51.3772  52.5730  53.4019  54.4220  54.7616  54.9589  55.2786  55.7077
    55.7619  57.7552  58.9578  59.3527  59.9058  60.0432

          k = 0.0000 0.2000 0.6207 (  1472 PWs)   bands (ev):

   -66.5137 -66.5125 -35.5476 -35.5438 -35.2991 -35.2990 -35.2162 -35.2162
    -6.6620  -6.0237  -5.9118  -5.8829   5.7076   5.7967   5.9989   6.2189
     6.8572   7.0433   7.8889   8.3643   8.4082   9.3531   9.5064  10.1642
    12.9933  13.3497  13.7098  13.7784  14.5791  14.6116  15.3026  15.4365
    16.5995  16.9405  24.5584  26.3562  27.5914  28.2979  28.5776  28.7472
    30.2287  30.3617  30.4119  30.4889  31.4676  32.7387  35.3340  35.9842
    39.7776  39.9861  40.9190  41.2125  42.2885  43.3251  43.5350  44.3642
    45.3082  47.1220  47.2758  47.5663  49.0149  50.7960  50.9966  51.1125
    52.2248  53.2218  53.8030  54.1646  55.2338  55.4630  56.2235  56.2925
    57.1546  57.5866  57.6691  59.4379  59.7044  60.9188

          k = 0.0000 0.4000 0.0000 (  1492 PWs)   bands (ev):

   -66.5295 -66.5280 -35.3661 -35.3608 -35.3321 -35.3320 -35.2307 -35.2305
    -7.5598  -6.9009  -5.7137  -5.6808   5.0037   5.2872   6.7111   6.7206
     7.0496   7.4947   7.6647   8.6340   8.9921   9.5164  10.6908  11.1050
    12.9734  13.1712  13.4088  13.5179  14.0194  14.6093  15.9694  16.5964
    16.6465  17.0599  22.7577  23.9196  25.4328  26.5480  28.3627  29.0648
    31.1603  31.6505  32.5251  33.7944  34.3556  34.9431  35.8247  36.5293
    36.5849  37.5750  39.4288  39.9757  40.8905  41.2548  42.1426  42.6930
    47.0164  47.7004  47.7059  47.9659  48.3420  49.1342  50.8979  50.9645
    52.0689  52.7508  52.9327  53.6315  53.9420  54.1565  55.1528  55.8832
    57.1118  57.1235  58.0040  58.0549  58.4858  59.9690

          k = 0.0000 0.4000 0.3103 (  1476 PWs)   bands (ev):

   -66.5234 -66.5222 -35.4360 -35.4320 -35.3192 -35.3191 -35.2249 -35.2249
    -7.1864  -6.6146  -5.7975  -5.7660   5.4513   5.7252   6.2202   6.3048
     7.2246   7.5263   7.7245   8.0477   8.4350   9.3459  10.4736  10.9187
    13.1493  13.4089  13.6968  13.7372  14.1247  14.4593  15.5958  15.6222
    16.6338  17.2172  23.6544  24.8517  26.7095  27.6096  28.4625  29.2426
    30.1776  30.5568  30.9369  31.9464  33.1006  33.8252  34.9153  36.9377
    38.9095  39.0447  40.1390  40.7590  40.8813  41.8507  43.5230  43.9726
    44.5943  45.8911  46.9888  48.1745  49.7301  50.2141  51.4971  51.9948
    52.1648  53.5646  54.0765  54.3443  54.6966  55.4252  55.6858  55.7274
    56.1126  56.9458  57.5680  59.2044  60.0400  60.2038

          k = 0.0000 0.4000 0.6207 (  1479 PWs)   bands (ev):

   -66.5134 -66.5129 -35.5470 -35.5456 -35.2988 -35.2987 -35.2167 -35.2165
    -6.4547  -6.2027  -5.9230  -5.9043   5.4059   5.5800   6.0859   6.4287
     6.6807   7.2786   7.6616   8.1995   9.0388   9.1467   9.9518  10.5846
    12.5645  13.0182  13.5481  13.6843  14.6619  14.6639  14.9928  15.1439
    17.2480  17.4385  24.9403  25.6912  27.3701  27.8006  28.9311  29.4488
    29.6994  29.7491  30.5084  30.6428  31.5280  31.6623  35.6367  36.4545
    40.4017  40.6058  41.2218  41.4042  41.9885  42.7833  43.2222  43.5566
    44.6174  45.0733  48.6608  48.8889  49.8342  50.6380  51.7383  51.7956
    52.1062  52.8428  54.6503  54.7569  55.0502  55.2936  56.7989  57.1119
    58.3448  58.4242  58.7616  59.5608  60.5581  61.0346

          k = 0.2000 0.2000 0.0000 (  1489 PWs)   bands (ev):

   -66.5304 -66.5272 -35.3689 -35.3582 -35.3378 -35.3318 -35.2306 -35.2247
    -7.8876  -6.4694  -5.7110  -5.7009   4.5190   5.3079   6.2749   6.6555
     6.7255   7.5412   8.2389   8.8172   9.9510  10.0242  10.4353  11.4602
    12.4056  12.8808  13.1622  13.4793  13.7467  14.9957  15.1956  16.6190
    16.9720  17.5502  22.0433  24.5591  24.6787  27.2443  27.7105  28.8548
    31.2575  32.1748  33.1167  33.6652  34.0353  35.7269  35.7586  36.5019
    36.7611  37.8255  38.2754  39.8091  41.4766  42.0629  44.1609  44.5291
    45.0877  46.3672  46.4302  46.5961  47.1115  48.0391  50.1348  50.1758
    52.0677  53.0446  53.2036  53.7374  54.5558  55.0018  55.5924  56.0796
    57.4613  57.5214  57.8706  59.7382  59.8360  60.4121

          k = 0.2000 0.2000 0.3103 (  1474 PWs)   bands (ev):

   -66.5241 -66.5215 -35.4378 -35.4295 -35.3235 -35.3189 -35.2248 -35.2210
    -7.4734  -6.2375  -5.7958  -5.7928   4.9427   5.7401   5.9316   6.3831
     7.1699   7.2729   8.1775   8.3257   8.8738   9.8515  10.1438  11.1093
    12.9130  12.9875  13.4919  13.7893  14.0023  14.7275  15.4195  15.9689
    16.4574  17.3722  22.9762  25.7706  25.9135  27.7975  28.0142  28.9980
    30.4767  30.7700  31.6937  32.4662  32.4941  34.2151  34.9610  37.5140
    38.4549  38.9614  39.5734  39.8675  41.4768  42.9693  43.1885  44.5283
    45.1098  45.9181  46.7668  47.7459  49.8192  50.0238  50.4291  51.0924
    52.1837  52.5284  53.6315  53.9419  54.5842  54.8635  54.9891  55.4215
    55.8467  58.2056  58.4714  59.1031  59.7285  61.1899

          k = 0.2000 0.2000 0.6207 (  1482 PWs)   bands (ev):

   -66.5136 -66.5127 -35.5475 -35.5444 -35.2999 -35.2986 -35.2166 -35.2164
    -6.5893  -6.0412  -5.9316  -5.9132   5.4860   5.7538   6.0481   6.2154
     6.4308   7.3828   8.0643   8.1547   8.6268   9.4656   9.6083  10.4154
    12.8047  13.3966  13.6948  13.8556  14.1466  14.8064  14.9327  16.0735
    16.1793  17.2679  24.5195  26.3774  26.7343  28.3693  28.6462  29.3290
    29.4621  29.9570  30.6612  31.1055  31.2369  33.2404  34.4153  36.5651
    39.5114  39.5187  40.5184  42.1421  42.5174  43.4313  43.5724  44.1877
    46.5887  46.6592  47.7094  48.0034  48.4693  49.8469  50.0885  51.5186
    52.9563  53.1732  54.2404  54.5688  54.8066  55.2628  56.1775  57.3840
    57.4568  57.8863  58.8329  59.1981  59.6563  61.2605

          k = 0.2000 0.4000 0.0000 (  1467 PWs)   bands (ev):

   -66.5294 -66.5282 -35.3651 -35.3610 -35.3361 -35.3321 -35.2298 -35.2264
    -7.4658  -6.9114  -5.7605  -5.7399   4.7941   5.1878   6.6588   6.7008
     7.0657   7.6802   8.1881   8.9859   9.1280   9.6042  10.2512  10.8461
    12.7094  13.0786  13.1031  13.4684  14.2636  14.7123  15.9531  16.6193
    16.8439  16.8576  23.1366  24.2322  25.5260  26.6501  27.9636  28.5364
    31.0178  31.4527  33.1452  34.0712  34.6605  35.0761  35.8412  35.9476
    36.1004  36.4549  38.7312  40.5215  40.6995  42.4200  43.2786  43.9133
    46.5825  46.7546  47.0375  47.2946  47.8516  49.2523  49.9112  51.9169
    52.2651  52.3458  53.1718  53.5522  53.9453  55.9690  56.0680  56.9347
    56.9958  57.3799  58.1960  58.6015  58.7685  59.8802

          k = 0.2000 0.4000 0.3103 (  1479 PWs)   bands (ev):

   -66.5233 -66.5223 -35.4354 -35.4321 -35.3224 -35.3196 -35.2248 -35.2224
    -7.1010  -6.6165  -5.8341  -5.8193   5.1861   5.6064   5.9637   6.1910
     7.4836   7.8500   7.9648   8.4369   8.6709   9.3961  10.1819  10.6220
    13.1517  13.2417  13.4444  13.7487  14.1850  14.4551  15.6195  15.9911
    16.5780  17.0666  23.8893  24.9935  26.6477  27.7056  28.1975  28.4938
    30.2772  30.5992  31.3150  31.8608  33.0271  33.6816  35.1381  37.1447
    38.1963  38.6428  40.1201  40.2218  41.5735  42.0645  43.3210  44.3532
    45.6632  46.2291  47.4486  47.8205  49.0382  50.4829  50.9053  51.7964
    52.9388  53.4858  54.2733  54.4879  54.7837  54.9879  55.8401  56.1331
    56.5721  57.1946  57.6830  58.8130  59.8163  60.4621

          k = 0.2000 0.4000 0.6207 (  1474 PWs)   bands (ev):

   -66.5133 -66.5129 -35.5466 -35.5455 -35.2996 -35.2988 -35.2165 -35.2165
    -6.4015  -6.1792  -5.9518  -5.9345   5.3157   5.5518   5.8633   6.0863
     6.7521   7.3087   7.8812   8.0859   9.2056   9.4884  10.0839  10.6654
    12.6665  13.2121  13.5149  13.6364  14.3539  14.6562  15.0444  15.5254
    16.9048  17.3566  24.7113  25.4795  26.8133  27.6990  28.8260  29.2769
    29.7769  30.0707  30.2180  30.7254  31.7842  32.6781  35.2294  36.9988
    39.0400  39.6940  40.1406  41.0567  43.0547  43.3937  43.7846  45.0442
    45.5170  46.6810  48.5150  48.7764  49.4513  50.0769  50.2512  51.4036
    52.4982  53.4252  53.6356  54.7484  54.9946  56.1236  56.3320  56.8286
    58.0043  58.8532  58.9998  59.2629  60.3277  60.8149

          k = 0.4000 0.4000 0.0000 (  1486 PWs)   bands (ev):

   -66.5290 -66.5286 -35.3640 -35.3624 -35.3392 -35.3370 -35.2261 -35.2242
    -7.2332  -7.0053  -5.8479  -5.8274   4.6556   4.8359   6.6120   6.6358
     7.5780   7.9906   8.7721   9.3189   9.4399   9.6581   9.7219  10.4494
    12.3805  12.6997  12.8887  13.1087  14.6214  14.7800  16.0737  16.4240
    16.8377  16.9613  23.9886  24.6507  25.7733  26.5524  27.5789  27.8659
    30.8356  31.0683  33.2874  33.6860  35.2142  35.2993  35.3680  35.4752
    35.9446  36.0431  39.7674  40.8167  41.3728  41.6502  43.5397  44.4862
    45.6204  46.2600  46.2717  46.9051  48.2664  48.6225  51.0105  52.1954
    52.5734  53.0161  53.2930  53.7277  55.1502  56.7565  57.0321  57.7831
    57.8400  58.0760  58.5670  58.7136  58.8501  59.1663

          k = 0.4000 0.4000 0.3103 (  1477 PWs)   bands (ev):

   -66.5230 -66.5226 -35.4337 -35.4326 -35.3246 -35.3230 -35.2222 -35.2209
    -6.8897  -6.6870  -5.9117  -5.8927   5.0135   5.2095   5.8300   5.9184
     8.0156   8.2440   8.5664   8.9470   9.1256   9.5112   9.5329   9.9688
    12.9673  13.2369  13.2907  13.4076  14.3087  14.4014  16.0247  16.3042
    16.4715  16.7241  24.4769  25.0493  26.6355  27.3096  28.1962  28.2619
    30.1986  30.2690  31.0121  31.3191  33.4347  33.9448  35.7858  37.1871
    37.5482  37.6257  40.6379  40.8635  42.1476  42.3794  42.6762  43.3123
    46.0727  46.4896  47.9512  48.5231  49.5052  49.9090  50.8576  51.2394
    53.7358  54.3213  54.3669  54.8929  55.2179  55.7097  56.4443  56.5388
    57.0536  57.1727  58.0692  58.5587  59.0216  59.7360

          k = 0.4000 0.4000 0.6207 (  1489 PWs)   bands (ev):

   -66.5132 -66.5131 -35.5460 -35.5453 -35.3004 -35.3002 -35.2170 -35.2167
    -6.2701  -6.1560  -6.0227  -5.9896   5.2483   5.4645   5.5913   5.6516
     6.9394   7.1516   8.0154   8.0613   9.7086   9.8861  10.2972  10.6390
    13.0619  13.4884  13.5399  13.5920  13.8703  14.3079  15.5155  16.1935
    16.2588  16.9174  24.5062  24.8420  26.7753  27.3079  28.3221  28.7007
    29.8859  30.0963  30.8058  31.1480  32.2822  32.7606  36.0462  37.9622
    37.9694  38.6730  39.2407  39.9801  43.9483  44.0749  44.4868  45.2859
    47.2843  47.7307  48.3181  49.3053  49.7794  49.8568  50.4936  50.9963
    51.7518  52.6642  54.0421  54.8424  55.1165  55.6701  56.5037  57.1653
    57.4246  57.8069  57.8860  58.8611  60.0809  61.0652

     the Fermi energy is    12.3863 ev

!    total energy              =    -554.92882089 Ry
     Harris-Foulkes estimate   =    -554.92881301 Ry
     estimated scf accuracy    <       0.00000033 Ry

     The total energy is the sum of the following terms:

     one-electron contribution =    -257.31539242 Ry
     hartree contribution      =     159.04046338 Ry
     xc contribution           =     -81.41134250 Ry
     ewald contribution        =    -375.24264022 Ry
     smearing contrib. (-TS)   =       0.00009087 Ry

     total magnetization       =     5.94 Bohr mag/cell
     absolute magnetization    =     6.05 Bohr mag/cell

     convergence has been achieved in  11 iterations

     Forces acting on atoms (Ry/au):

     atom    1 type  1   force =     0.00000000    0.00000000    0.00000000
     atom    2 type  1   force =     0.00000000    0.00000000   -0.00000000
     atom    3 type  2   force =    -0.01586444   -0.01586444    0.00000000
     atom    4 type  2   force =     0.01586444    0.01586444    0.00000000
     atom    5 type  2   force =    -0.01586444    0.01586444    0.00000000
     atom    6 type  2   force =     0.01586444   -0.01586444    0.00000000

     Total force =     0.044871     Total SCF correction =     0.000281


     entering subroutine stress ...

          total   stress  (Ry/bohr**3)                   (kbar)     P=  300.06
   0.00185958   0.00000000   0.00000000        273.55      0.00      0.00
   0.00000000   0.00185958   0.00000000          0.00    273.55      0.00
   0.00000000   0.00000000   0.00240012          0.00      0.00    353.07

     Volume is kept fixed: isostatic pressure set to zero

     BFGS Geometry Optimization

     number of scf cycles    =   1
     number of bfgs steps    =   0

     enthalpy new            =    -554.9288208948 Ry

     new trust radius        =       0.0335231607 bohr
     new conv_thr            =       0.0000010000 Ry

     new unit-cell volume =    346.16527 a.u.^3 (    51.29640 Ang^3 )

CELL_PARAMETERS (alat=  8.12891664)
   0.995515674   0.000000000   0.000000000
   0.000000000   0.995515674   0.000000000
   0.000000000   0.000000000   0.650263354

ATOMIC_POSITIONS (crystal)
Mn0      0.000000000   0.000000000   0.000000000    0   0   0
Mn0      0.500000000   0.500000000   0.500000000    0   0   0
O1       0.303048394   0.303048394   0.000000000    1   1   0
O1      -0.303048394  -0.303048394   0.000000000    1   1   0
O1       0.803048394   0.196951606   0.500000000    1   1   0
O1       0.196951606   0.803048394   0.500000000    1   1   0


     NEW-OLD atomic charge density approx. for the potential
     NEW k-points:
        k(    1) = (   0.0000000   0.0000000   0.0000000), wk =   0.0080000
        k(    2) = (   0.0000000   0.0000000   0.3075677), wk =   0.0160000
        k(    3) = (   0.0000000   0.0000000   0.6151354), wk =   0.0160000
        k(    4) = (   0.0000000   0.2009009   0.0000000), wk =   0.0320000
        k(    5) = (   0.0000000   0.2009009   0.3075677), wk =   0.0640000
        k(    6) = (   0.0000000   0.2009009   0.6151354), wk =   0.0640000
        k(    7) = (   0.0000000   0.4018018   0.0000000), wk =   0.0320000
        k(    8) = (   0.0000000   0.4018018   0.3075677), wk =   0.0640000
        k(    9) = (   0.0000000   0.4018018   0.6151354), wk =   0.0640000
        k(   10) = (   0.2009009   0.2009009   0.0000000), wk =   0.0320000
        k(   11) = (   0.2009009   0.2009009   0.3075677), wk =   0.0640000
        k(   12) = (   0.2009009   0.2009009   0.6151354), wk =   0.0640000
        k(   13) = (   0.2009009   0.4018018   0.0000000), wk =   0.0640000
        k(   14) = (   0.2009009   0.4018018   0.3075677), wk =   0.1280000
        k(   15) = (   0.2009009   0.4018018   0.6151354), wk =   0.1280000
        k(   16) = (   0.4018018   0.4018018   0.0000000), wk =   0.0320000
        k(   17) = (   0.4018018   0.4018018   0.3075677), wk =   0.0640000
        k(   18) = (   0.4018018   0.4018018   0.6151354), wk =   0.0640000
        k(   19) = (   0.0000000   0.0000000   0.0000000), wk =   0.0080000
        k(   20) = (   0.0000000   0.0000000   0.3075677), wk =   0.0160000
        k(   21) = (   0.0000000   0.0000000   0.6151354), wk =   0.0160000
        k(   22) = (   0.0000000   0.2009009   0.0000000), wk =   0.0320000
        k(   23) = (   0.0000000   0.2009009   0.3075677), wk =   0.0640000
        k(   24) = (   0.0000000   0.2009009   0.6151354), wk =   0.0640000
        k(   25) = (   0.0000000   0.4018018   0.0000000), wk =   0.0320000
        k(   26) = (   0.0000000   0.4018018   0.3075677), wk =   0.0640000
        k(   27) = (   0.0000000   0.4018018   0.6151354), wk =   0.0640000
        k(   28) = (   0.2009009   0.2009009   0.0000000), wk =   0.0320000
        k(   29) = (   0.2009009   0.2009009   0.3075677), wk =   0.0640000
        k(   30) = (   0.2009009   0.2009009   0.6151354), wk =   0.0640000
        k(   31) = (   0.2009009   0.4018018   0.0000000), wk =   0.0640000
        k(   32) = (   0.2009009   0.4018018   0.3075677), wk =   0.1280000
        k(   33) = (   0.2009009   0.4018018   0.6151354), wk =   0.1280000
        k(   34) = (   0.4018018   0.4018018   0.0000000), wk =   0.0320000
        k(   35) = (   0.4018018   0.4018018   0.3075677), wk =   0.0640000
        k(   36) = (   0.4018018   0.4018018   0.6151354), wk =   0.0640000

     Check: negative/imaginary core charge=   -0.000063    0.000000

     total cpu time spent up to now is      215.1 secs

     per-process dynamical memory:    42.1 Mb

     Self-consistent Calculation

     iteration #  1     ecut=    40.00 Ry     beta=0.30
     Davidson diagonalization with overlap
     ethr =  1.00E-06,  avg # of iterations =  4.4

     total cpu time spent up to now is      252.6 secs

     total energy              =    -554.93076097 Ry
     Harris-Foulkes estimate   =    -554.93102588 Ry
     estimated scf accuracy    <       0.00084219 Ry

     total magnetization       =     5.95 Bohr mag/cell
     absolute magnetization    =     6.07 Bohr mag/cell

     iteration #  2     ecut=    40.00 Ry     beta=0.30
     Davidson diagonalization with overlap
     ethr =  1.56E-06,  avg # of iterations =  1.0

     total cpu time spent up to now is      266.4 secs

     total energy              =    -554.93076112 Ry
     Harris-Foulkes estimate   =    -554.93086431 Ry
     estimated scf accuracy    <       0.00038611 Ry

     total magnetization       =     5.94 Bohr mag/cell
     absolute magnetization    =     6.06 Bohr mag/cell

     iteration #  3     ecut=    40.00 Ry     beta=0.30
     Davidson diagonalization with overlap
     ethr =  7.15E-07,  avg # of iterations =  1.0

     total cpu time spent up to now is      280.4 secs

     total energy              =    -554.93077590 Ry
     Harris-Foulkes estimate   =    -554.93081895 Ry
     estimated scf accuracy    <       0.00016177 Ry

     total magnetization       =     5.95 Bohr mag/cell
     absolute magnetization    =     6.07 Bohr mag/cell

     iteration #  4     ecut=    40.00 Ry     beta=0.30
     Davidson diagonalization with overlap
     ethr =  3.00E-07,  avg # of iterations =  1.0

     total cpu time spent up to now is      294.3 secs

     total energy              =    -554.93080206 Ry
     Harris-Foulkes estimate   =    -554.93079731 Ry
     estimated scf accuracy    <       0.00000434 Ry

     total magnetization       =     5.95 Bohr mag/cell
     absolute magnetization    =     6.07 Bohr mag/cell

     iteration #  5     ecut=    40.00 Ry     beta=0.30
     Davidson diagonalization with overlap
     ethr =  8.04E-09,  avg # of iterations =  2.0

     total cpu time spent up to now is      310.5 secs

     End of self-consistent calculation

 ------ SPIN UP ------------


          k = 0.0000 0.0000 0.0000 (  1471 PWs)   bands (ev):

   -69.7729 -69.7687 -38.5087 -38.4960 -38.4421 -38.4421 -38.3840 -38.3840
    -8.4489  -6.3454  -5.8485  -5.8485   3.5737   4.2226   4.7758   5.9149
     5.9149   7.7886   7.7886   8.4228   9.4241   9.6162   9.7443   9.7443
     9.8951  10.4546  10.8877  10.8877  11.4815  12.3928  12.4638  15.3509
    15.3509  16.3597  20.6407  23.6586  23.6586  26.3006  27.6964  27.9816
    31.0527  31.9104  32.0568  32.0568  32.4456  36.7594  37.3901  37.8012
    37.8012  38.6107  38.6107  39.1937  40.0017  40.0017  40.0648  41.5469
    43.0728  44.1548  47.3124  47.3124  47.5317  47.5777  47.5777  49.1145
    51.0220  52.6923  52.6923  52.7358  54.3352  54.4749  54.4749  55.9664
    56.7694  57.9146  59.1084  59.1084  60.0924  60.0924

          k = 0.0000 0.0000 0.3076 (  1475 PWs)   bands (ev):

   -69.7679 -69.7645 -38.5603 -38.5495 -38.4317 -38.4317 -38.3824 -38.3824
    -8.0160  -6.2204  -5.9376  -5.9376   4.1385   4.6115   5.2712   5.6641
     5.6641   7.0337   8.1697   8.3783   8.3783   8.8532   8.8532   9.6160
    10.0691  10.6963  10.9853  11.6042  11.6042  12.1844  13.0998  14.7030
    14.7030  15.7095  21.8337  25.1928  25.1928  26.7980  27.6600  28.4536
    30.4189  30.4524  30.7776  31.5141  31.5141  35.6327  35.6327  36.6234
    37.2345  38.8607  38.8943  38.8943  39.8260  43.3624  43.5185  43.5185
    45.0149  45.0149  45.5139  46.7285  47.1749  48.8864  48.8864  49.3900
    50.1943  53.5733  53.5733  53.9413  54.3900  54.7499  54.8808  54.8985
    54.8985  56.6118  57.6227  57.6227  59.8200  60.4321

          k = 0.0000 0.0000 0.6151 (  1490 PWs)   bands (ev):

   -69.7594 -69.7581 -38.6420 -38.6381 -38.4133 -38.4133 -38.3807 -38.3807
    -7.0239  -6.2677  -6.0852  -6.0852   5.0687   5.1773   5.8318   5.8318
     5.9826   6.5817   6.6477   7.5167   7.5167   8.4895   8.9651   8.9651
    10.0801  10.5294  10.9607  11.6206  12.1640  12.1640  13.7267  14.3621
    14.3621  14.3868  24.2084  26.2574  27.4651  27.4651  27.7843  28.5492
    29.1720  29.6836  30.1390  30.1390  30.4378  32.6465  34.7542  34.7542
    39.4074  39.4074  39.6551  40.5881  41.3220  43.2596  44.0713  44.0713
    44.6043  46.7252  46.7252  46.8315  49.8979  49.8979  49.9106  50.3120
    51.9339  52.7838  52.9812  52.9812  53.4419  54.2088  54.2088  55.0248
    56.0046  56.4926  56.4926  58.4174  59.3753  61.7138

          k = 0.0000 0.2009 0.0000 (  1486 PWs)   bands (ev):

   -69.7725 -69.7691 -38.5078 -38.4970 -38.4399 -38.4397 -38.3873 -38.3868
    -8.2719  -6.5247  -5.9353  -5.8708   3.8874   4.3737   5.0955   5.9396
     5.9567   7.3308   7.5358   8.2534   9.0048   9.2031   9.8266   9.8492
    10.1223  10.7152  10.8714  10.8792  11.3624  12.2505  13.1695  15.2220
    15.2664  16.1477  21.1773  23.7422  23.9161  26.2666  27.5903  28.2533
    30.8152  31.7785  31.9893  32.3832  32.8468  35.1104  36.4256  36.4973
    37.3264  37.6177  38.8116  39.0052  39.8617  39.9619  42.0237  44.0790
    44.5988  44.8693  45.9621  46.0540  47.3630  47.8650  48.3359  49.9785
    51.6906  52.4967  53.1155  53.5432  53.7107  54.3079  54.6142  55.8428
    56.4721  56.7864  58.0059  58.5130  58.8521  59.9124

          k = 0.0000 0.2009 0.3076 (  1480 PWs)   bands (ev):

   -69.7676 -69.7648 -38.5599 -38.5506 -38.4300 -38.4298 -38.3844 -38.3840
    -7.8584  -6.3423  -6.0307  -5.9569   4.3944   4.7903   5.2846   5.6192
     6.0285   6.8824   7.5034   8.1958   8.2637   8.6974   8.8297   9.7224
    10.4737  10.8242  11.0400  11.3591  11.5874  12.0636  13.5524  14.3165
    14.7090  15.8682  22.2580  25.1028  25.3687  26.9356  27.6443  28.6449
    30.0439  30.1921  30.9109  30.9497  32.2984  34.1285  34.2765  36.9276
    38.3641  38.5439  39.2524  39.3404  40.0180  42.4075  42.7401  43.3701
    44.7255  45.2095  46.4549  47.8464  48.4112  48.5729  49.6128  49.9796
    50.8931  52.1258  53.0733  53.9382  54.2316  54.2696  54.4096  55.0659
    55.4057  57.1977  58.3643  58.8545  59.3707  59.3984

          k = 0.0000 0.2009 0.6151 (  1472 PWs)   bands (ev):

   -69.7593 -69.7583 -38.6418 -38.6386 -38.4128 -38.4128 -38.3807 -38.3805
    -6.9386  -6.2812  -6.1453  -6.1008   5.0634   5.2383   5.2421   5.5840
     6.4100   6.5333   7.1742   7.5332   7.7718   8.5863   8.7271   8.9219
    10.1856  10.5760  10.7287  11.3425  12.1972  12.2054  13.4223  13.4257
    14.9520  15.3857  24.2762  26.0310  27.1807  27.6888  28.1270  28.1614
    29.2412  29.5360  29.8655  29.9841  30.8520  31.9288  34.4194  35.1610
    39.4107  39.6371  40.2698  40.7480  42.0819  42.6564  43.0563  43.8371
    44.8634  46.6595  46.6901  46.7681  48.3677  50.1661  50.5019  50.5950
    51.5626  52.5617  53.1672  53.6180  54.7127  54.7477  55.5002  55.7348
    56.6929  56.7900  56.8848  58.7131  59.2267  60.4763

          k = 0.0000 0.4018 0.0000 (  1492 PWs)   bands (ev):

   -69.7714 -69.7701 -38.5045 -38.4999 -38.4359 -38.4357 -38.3916 -38.3914
    -7.7797  -7.1047  -5.9657  -5.9225   4.4405   4.6287   5.9949   6.0141
     6.1052   6.7505   6.9834   7.6735   8.1917   8.5418   9.9939  10.1620
    10.6002  10.6673  10.7625  11.1016  11.4730  11.8870  14.3969  15.0425
    15.0908  15.4775  22.3715  23.4492  24.7463  25.7758  27.9081  28.5250
    30.4849  30.8833  31.7343  33.0238  33.6020  33.9878  35.2994  35.4324
    36.1177  37.1402  38.8810  39.5232  40.1683  40.4691  41.3660  42.1022
    46.5851  46.9924  47.2050  47.4968  47.7793  48.8213  49.9425  50.6323
    51.6278  51.8945  52.6912  53.2846  53.4768  53.6499  54.4379  55.4622
    56.6849  56.8858  57.7399  57.7523  57.8534  59.3764

          k = 0.0000 0.4018 0.3076 (  1476 PWs)   bands (ev):

   -69.7667 -69.7657 -38.5572 -38.5538 -38.4267 -38.4267 -38.3873 -38.3872
    -7.4237  -6.8357  -6.0458  -6.0027   4.9004   5.1068   5.5171   5.5815
     6.4896   6.7314   6.9393   7.5218   7.7093   8.2316   9.3296   9.6651
    10.8671  11.0330  11.0811  11.3072  11.6008  11.7829  13.8915  13.9145
    15.1109  15.7237  23.2964  24.4445  26.0416  26.8970  27.9979  28.7270
    29.5166  29.9782  30.1597  31.1817  32.1205  32.8530  34.2116  36.2138
    38.5458  38.6754  39.5612  40.2067  40.2287  41.3276  42.7233  43.2874
    44.0283  45.3240  46.5195  47.5971  49.1574  49.5224  51.1828  51.4084
    51.5704  53.1060  53.5214  53.7656  54.4573  54.6523  55.0607  55.2630
    55.3907  56.4086  57.3049  58.6927  59.4712  59.6742

          k = 0.0000 0.4018 0.6151 (  1479 PWs)   bands (ev):

   -69.7590 -69.7586 -38.6412 -38.6400 -38.4123 -38.4122 -38.3813 -38.3812
    -6.7153  -6.4448  -6.1739  -6.1381   4.7558   4.8940   5.4609   5.6727
     6.3396   6.8444   7.1256   7.8845   8.0524   8.2048   8.8101   9.5475
    10.1401  10.3796  10.5985  10.6972  12.2718  12.2755  12.9463  13.0645
    15.7323  15.9515  24.6561  25.3941  26.9716  27.3753  28.3331  28.8356
    29.2344  29.3129  29.5364  29.6710  30.7594  30.7738  34.8952  35.7738
    39.9519  40.1620  40.7118  40.9496  41.3599  42.3195  42.5137  43.3546
    44.1574  44.1895  47.7930  48.3519  49.0028  49.8654  51.0166  51.0609
    51.7233  52.4489  54.1023  54.1622  54.4855  54.7207  56.5075  56.6193
    57.7727  57.9256  58.0659  58.9170  59.6994  60.5502

          k = 0.2009 0.2009 0.0000 (  1489 PWs)   bands (ev):

   -69.7722 -69.7694 -38.5069 -38.4979 -38.4431 -38.4354 -38.3917 -38.3841
    -8.1146  -6.6639  -5.9546  -5.9429   3.8844   4.6386   5.3577   5.8876
     6.0162   6.9172   7.6998   8.1725   9.2628   9.3241   9.4898   9.5626
     9.7502  10.5533  10.9412  11.0801  11.5430  12.2841  13.4024  15.0647
    15.3380  15.9082  21.6659  23.9321  24.1004  26.2795  27.4283  28.2297
    30.6033  31.4541  32.2458  32.7859  33.2084  35.0225  35.2244  36.1415
    36.1956  36.7743  37.7359  39.0356  41.0311  41.5516  43.4858  44.0953
    44.6588  45.6182  45.6337  45.9511  46.4464  47.6337  49.4126  49.6411
    51.8325  52.7409  53.0506  53.1596  54.1593  54.8067  54.8528  55.7048
    56.9679  57.0387  57.1683  58.8884  59.1690  59.2873

          k = 0.2009 0.2009 0.3076 (  1474 PWs)   bands (ev):

   -69.7673 -69.7651 -38.5587 -38.5517 -38.4324 -38.4263 -38.3874 -38.3819
    -7.7182  -6.4508  -6.0475  -6.0190   4.3343   5.0903   5.2147   5.6944
     6.2226   6.6766   7.6613   7.6983   8.1687   8.8064   9.0594   9.7193
    10.2903  10.7866  10.9834  11.2717  11.8041  12.0335  13.6938  14.2085
    14.7537  15.8464  22.6234  25.2727  25.3030  27.0405  27.6064  28.3019
    29.9668  29.9908  30.8312  31.7443  31.9639  33.2050  34.2084  36.9278
    37.8198  38.6012  38.8925  39.2619  40.7965  42.4191  42.5992  44.0594
    44.6027  45.4150  46.3296  47.1630  49.1319  49.3488  49.9194  50.5453
    51.5275  52.2044  53.0385  53.6494  54.0194  54.4060  54.4129  54.7283
    55.1103  57.6987  57.9099  58.5019  59.2623  60.5013

          k = 0.2009 0.2009 0.6151 (  1482 PWs)   bands (ev):

   -69.7592 -69.7584 -38.6418 -38.6391 -38.4137 -38.4121 -38.3812 -38.3807
    -6.8613  -6.2944  -6.1578  -6.1472   4.8841   5.1724   5.3071   5.5451
     5.9165   7.0610   7.3245   7.5605   7.8529   8.3817   8.7371   9.2881
    10.2109  10.5769  10.5944  11.4189  11.8252  12.3497  12.8986  14.3661
    14.3906  15.7748  24.2377  26.0302  26.3846  27.8906  27.9701  28.7817
    28.8377  29.0707  29.7933  30.5409  30.7460  32.4340  33.5386  35.7666
    38.9806  39.1021  40.0901  41.6574  41.7937  42.8279  43.1964  43.7026
    46.0116  46.3239  47.0293  47.2919  47.8270  49.1262  49.6059  50.8286
    52.4755  52.8780  53.7492  53.8888  54.2479  54.5649  55.5831  56.3455
    56.7587  57.2254  58.1619  58.6634  59.4153  60.7236

          k = 0.2009 0.4018 0.0000 (  1467 PWs)   bands (ev):

   -69.7712 -69.7702 -38.5036 -38.5001 -38.4411 -38.4360 -38.3906 -38.3860
    -7.6841  -7.1161  -6.0047  -5.9857   4.1304   4.5614   5.9094   5.9883
     6.1763   7.0505   7.2854   8.2300   8.3404   8.8771   9.3829   9.7903
    10.3729  10.4675  10.4906  10.9641  11.8803  12.1675  14.2358  15.0615
    15.2114  15.2328  22.7546  23.7639  24.8643  25.8891  27.5872  28.0872
    30.2957  30.6869  32.2432  33.2113  33.8238  34.2145  35.2715  35.3206
    35.4534  35.5521  38.2030  40.0277  40.0524  41.8858  42.6508  43.1944
    45.9897  46.0802  46.6954  46.7568  47.1967  48.8496  49.0061  51.4570
    51.6063  51.9550  52.8520  53.2394  53.5483  55.3497  55.7076  56.1007
    56.8100  57.0053  57.8751  58.0306  58.5832  59.5783

          k = 0.2009 0.4018 0.3076 (  1479 PWs)   bands (ev):

   -69.7666 -69.7658 -38.5567 -38.5539 -38.4309 -38.4273 -38.3870 -38.3835
    -7.3371  -6.8399  -6.0751  -6.0585   4.5626   5.0193   5.2851   5.5041
     6.7026   6.9636   7.3187   7.7642   7.9312   8.4278   9.1655   9.5085
    10.6340  10.7628  10.8313  11.1619  11.8479  11.9305  13.9393  14.2256
    14.9799  15.5537  23.5350  24.6024  26.0252  27.0027  27.6875  27.9908
    29.5778  29.9133  30.5817  31.1294  32.2134  32.9226  34.2707  36.3251
    37.6651  38.1309  39.4095  39.5786  40.9962  41.4708  42.7999  43.8948
    45.1035  45.5398  46.7770  47.2638  48.5947  49.9259  50.3639  51.2653
    52.3037  52.8933  53.8714  54.1664  54.2310  54.5291  55.2339  55.4394
    56.0034  56.7398  57.3537  58.3692  59.0572  59.8844

          k = 0.2009 0.4018 0.6151 (  1474 PWs)   bands (ev):

   -69.7590 -69.7586 -38.6409 -38.6400 -38.4133 -38.4123 -38.3811 -38.3808
    -6.6614  -6.4266  -6.1910  -6.1736   4.7106   4.8969   5.2864   5.5372
     6.0940   6.7907   7.4102   7.6117   8.0450   8.4567   9.1161   9.8210
    10.2274  10.3257  10.5068  10.9016  11.9679  12.2396  13.0385  13.6339
    15.3397  15.8772  24.4267  25.1765  26.4075  27.2161  28.1970  28.6756
    28.9490  29.4203  29.5450  30.1510  31.0378  31.8459  34.5019  36.3205
    38.4181  39.1546  39.6450  40.4049  42.6950  42.7082  43.0817  44.1894
    45.2361  46.1801  47.9188  48.0095  48.6255  49.4606  49.6798  50.8533
    51.9912  53.0189  53.3157  54.2456  54.3515  55.5118  55.8142  56.4639
    57.7131  58.0319  58.1526  58.7901  59.6301  60.1019

          k = 0.4018 0.4018 0.0000 (  1486 PWs)   bands (ev):

   -69.7710 -69.7706 -38.5026 -38.5013 -38.4447 -38.4422 -38.3855 -38.3832
    -7.4470  -7.2136  -6.0874  -6.0717   3.9475   4.1487   5.8437   5.8858
     6.8013   7.5866   7.6236   8.3929   8.8505   8.9811   9.4573   9.5442
     9.7612  10.0199  10.2593  10.4061  12.2878  12.3823  14.1726  14.6094
    15.2223  15.3192  23.6060  24.2324  25.1210  25.8284  27.2914  27.5411
    30.0728  30.3165  32.2440  32.6614  34.3108  34.6506  34.7155  34.8553
    34.8779  35.4107  39.2400  40.2895  40.9773  41.2264  42.6660  43.7778
    44.7425  45.4390  45.7711  46.4011  47.9470  48.3378  50.2585  51.4797
    52.0896  52.6197  52.8601  53.2994  54.9344  56.6773  56.8094  56.8845
    57.5378  57.7995  58.0466  58.1024  58.5831  58.9828

          k = 0.4018 0.4018 0.3076 (  1477 PWs)   bands (ev):

   -69.7663 -69.7660 -38.5553 -38.5543 -38.4336 -38.4317 -38.3832 -38.3815
    -7.1229  -6.9158  -6.1448  -6.1315   4.3585   4.5705   5.1870   5.2720
     7.3741   7.4339   7.6877   7.9044   8.3647   8.6175   8.8652   9.2341
    10.2381  10.6364  10.7016  10.7233  12.0296  12.0586  14.2930  14.5214
    14.7947  15.1246  24.1385  24.7188  26.0129  26.6616  27.6580  27.7766
    29.4781  29.7416  30.0969  30.5324  32.8402  33.3308  34.8419  36.4511
    36.6132  36.7959  39.9960  40.1714  41.6442  41.7158  42.2362  42.8635
    45.2972  45.7260  47.4987  48.1142  49.0036  49.4540  50.2261  50.6930
    53.1391  53.6836  53.8780  54.5901  54.7015  55.4764  55.8779  55.8872
    56.6353  56.9271  57.5427  58.1276  58.4299  59.1826

          k = 0.4018 0.4018 0.6151 (  1489 PWs)   bands (ev):

   -69.7589 -69.7587 -38.6405 -38.6399 -38.4142 -38.4139 -38.3810 -38.3806
    -6.5304  -6.4196  -6.2443  -6.2268   4.7101   4.9111   5.0108   5.1183
     6.2212   6.5208   7.4410   7.4819   8.3322   8.5221   9.6677  10.0145
    10.2694  10.3394  10.7078  11.3854  11.4100  11.9118  13.6705  14.4220
    14.6687  15.3917  24.2404  24.5806  26.1930  26.6146  27.9075  28.1409
    29.1500  29.3569  30.2102  30.4985  31.6865  32.0599  35.2878  37.1939
    37.3891  37.9101  38.6464  39.2399  43.5336  43.5501  43.6367  44.3863
    46.6698  47.1224  47.4464  48.4040  49.2637  49.3315  50.2786  50.8307
    50.9920  52.1219  53.9303  54.7308  54.7987  55.2207  56.1644  56.4592
    57.0282  57.3736  57.4063  58.2411  59.1934  60.2971

 ------ SPIN DOWN ----------


          k = 0.0000 0.0000 0.0000 (  1471 PWs)   bands (ev):

   -66.5370 -66.5320 -35.3777 -35.3618 -35.3281 -35.3281 -35.2455 -35.2455
    -8.1892  -6.0757  -5.5983  -5.5983   4.1497   5.0874   5.6964   6.7372
     6.7372   8.1125   8.1125   8.5703  10.5399  11.2031  11.2031  11.8679
    12.3353  12.6610  12.8400  12.8400  12.9769  14.6057  15.2510  16.8737
    16.8737  18.1165  21.0583  24.1526  24.1526  27.2319  28.1427  28.7429
    31.7374  32.5929  32.8439  32.9105  32.9105  37.1585  38.2216  38.2216
    38.3500  39.3232  39.3232  40.0729  40.2192  40.5778  40.5778  42.2083
    44.1165  44.8059  47.5827  47.5827  47.8563  48.2904  48.2904  49.6466
    51.6432  53.0628  53.1078  53.1078  54.9311  54.9311  55.0231  56.7013
    57.1002  58.4904  59.5866  59.5866  60.1664  60.6960

          k = 0.0000 0.0000 0.3076 (  1475 PWs)   bands (ev):

   -66.5313 -66.5272 -35.4394 -35.4260 -35.3148 -35.3148 -35.2436 -35.2436
    -7.7539  -5.9521  -5.6832  -5.6832   4.6785   5.4167   6.2186   6.3883
     6.3883   7.3985   8.8289   8.8289   8.9397  10.0665  10.0665  11.4882
    12.8218  12.8982  13.1481  13.6662  13.6662  14.9895  15.1521  16.3369
    16.3369  17.4287  22.1799  25.6886  25.6886  27.4577  28.1233  29.2882
    30.7753  31.2444  31.6137  32.2478  32.2478  36.5172  36.5172  36.9504
    38.1066  39.2662  39.2662  39.5860  40.5164  43.5608  44.0455  44.0455
    45.3653  45.3653  46.1305  47.2466  47.9439  49.6004  49.6004  49.9192
    50.7699  53.9931  53.9931  54.4125  55.0918  55.3203  55.3203  55.3419
    55.3690  57.2847  58.1863  58.1863  60.7348  61.0142

          k = 0.0000 0.0000 0.6151 (  1490 PWs)   bands (ev):

   -66.5215 -66.5200 -35.5366 -35.5318 -35.2917 -35.2917 -35.2414 -35.2414
    -6.7598  -6.0029  -5.8250  -5.8250   5.6376   5.8318   6.3164   6.6060
     6.6060   7.0630   7.6854   8.2501   8.2501   9.6060   9.6060   9.7283
    13.2231  13.3878  13.6527  14.2765  14.4635  14.4635  15.6613  16.0217
    16.0217  16.0651  24.4901  26.5788  27.9614  27.9614  28.2854  29.0393
    30.2494  30.6194  30.7572  30.7572  30.9572  33.2193  35.7269  35.7269
    39.7713  39.7713  40.2599  41.1423  41.8031  43.7470  44.5470  44.5470
    45.0361  47.3212  47.3442  47.3442  50.2063  50.2063  50.5322  50.6927
    52.9713  53.2755  53.5236  53.5236  54.2819  54.5378  54.5378  55.7022
    56.7101  57.3350  57.3350  59.1145  59.8615  62.0662

          k = 0.0000 0.2009 0.0000 (  1486 PWs)   bands (ev):

   -66.5366 -66.5325 -35.3765 -35.3631 -35.3255 -35.3254 -35.2493 -35.2487
    -8.0114  -6.2594  -5.6789  -5.6186   4.4744   5.2128   6.0184   6.7468
     6.7585   7.8320   7.9981   8.6347  10.1476  10.3082  10.8466  11.6822
    12.5928  12.9929  13.0290  13.1647  13.3428  14.9662  15.1000  16.7056
    16.7565  17.8663  21.5856  24.2400  24.4599  27.1332  28.0377  28.9349
    31.4932  32.6417  32.9180  32.9958  33.3391  35.8058  36.7932  36.9097
    38.0841  38.1492  39.5289  39.6918  40.5235  40.5995  42.7589  44.5882
    45.2073  45.5361  46.5471  46.6219  47.6266  48.4866  49.0146  50.5285
    52.1404  52.9551  53.4099  53.9213  54.1801  54.8501  54.9635  56.6423
    56.9410  57.3580  58.5638  59.2163  59.3432  60.4760

          k = 0.0000 0.2009 0.3076 (  1480 PWs)   bands (ev):

   -66.5309 -66.5276 -35.4388 -35.4274 -35.3129 -35.3127 -35.2458 -35.2455
    -7.5960  -6.0786  -5.7707  -5.7011   4.9438   5.5742   6.1036   6.3457
     6.9141   7.3183   8.3031   8.6255   8.6540  10.0618  10.1311  11.3695
    12.7979  13.1990  13.3530  13.5550  13.8448  14.8326  15.4396  15.9914
    16.2815  17.4941  22.6142  25.5745  25.9032  27.5897  28.1135  29.3686
    30.5025  30.9919  31.6251  31.7271  33.0397  34.9707  35.1168  37.3921
    38.9564  38.9814  39.8893  39.9711  40.6340  43.0055  43.3070  43.8833
    45.0762  45.7396  46.8418  48.3040  49.0932  49.2297  50.3114  50.5280
    51.5529  52.6964  53.4814  54.3999  54.7107  54.7138  54.9368  55.5860
    55.9623  57.8210  58.8328  59.3336  60.0370  60.0949

          k = 0.0000 0.2009 0.6151 (  1472 PWs)   bands (ev):

   -66.5213 -66.5201 -35.5366 -35.5325 -35.2912 -35.2911 -35.2412 -35.2411
    -6.6750  -6.0173  -5.8846  -5.8401   5.7443   5.7635   5.9793   6.2282
     6.9194   7.0840   7.8940   8.3885   8.3904   9.4313   9.5978  10.1161
    13.0545  13.3215  13.6601  13.7833  14.5646  14.6073  15.2619  15.4129
    16.5418  16.9301  24.5666  26.3583  27.6260  28.2137  28.6011  28.7080
    30.2030  30.4063  30.4952  30.5081  31.5639  32.6706  35.3338  35.9751
    39.8765  40.1226  40.7671  41.2957  42.4284  43.2829  43.6361  44.3783
    45.3258  47.1817  47.2174  47.3632  48.8839  50.5149  50.9160  51.2526
    52.2323  53.1724  53.5077  54.1754  55.3074  55.3459  56.2208  56.2940
    57.1392  57.5253  57.6698  59.3639  59.7159  60.9127

          k = 0.0000 0.4018 0.0000 (  1492 PWs)   bands (ev):

   -66.5353 -66.5337 -35.3725 -35.3668 -35.3209 -35.3207 -35.2544 -35.2542
    -7.5179  -6.8422  -5.7059  -5.6659   5.0792   5.3729   6.7705   6.7826
     7.0614   7.4529   7.6290   8.6639   8.9075   9.4552  10.7498  11.1739
    12.9723  13.1562  13.4215  13.5476  13.9643  14.5767  16.0416  16.4473
    16.5075  17.1284  22.7813  23.9088  25.3806  26.4970  28.4021  29.0555
    31.2105  31.7554  32.5754  33.7907  34.0967  34.6550  35.6126  36.3296
    36.6112  37.6651  39.5728  40.1358  40.7768  41.2596  42.1969  42.5918
    47.1446  47.5279  47.7735  47.8098  48.4411  49.4001  50.6383  51.1368
    52.2089  52.5444  53.0171  53.8278  54.0281  54.0845  55.0649  56.0008
    56.9258  57.3855  58.0903  58.2402  58.3875  60.0433

          k = 0.0000 0.4018 0.3076 (  1476 PWs)   bands (ev):

   -66.5299 -66.5286 -35.4357 -35.4314 -35.3091 -35.3091 -35.2491 -35.2490
    -7.1612  -6.5739  -5.7836  -5.7435   5.4972   5.7889   6.2714   6.3450
     7.2101   7.5134   7.6995   8.0060   8.4240   9.3907  10.5553  10.9906
    13.1028  13.3627  13.6637  13.7057  14.1331  14.4581  15.5481  15.5839
    16.6121  17.2510  23.6719  24.8564  26.6478  27.5444  28.4838  29.2153
    30.1619  30.5804  30.9660  31.9303  32.9692  33.6878  35.0128  36.9483
    38.9270  39.0258  40.2383  40.8017  40.8628  41.8179  43.5579  43.8570
    44.4758  45.8845  47.0665  48.1203  49.7610  50.2205  51.5876  51.9989
    52.1630  53.5881  54.1464  54.2980  54.8290  55.0727  55.5492  55.8413
    55.9530  56.9396  57.7153  59.2491  60.1077  60.2797

          k = 0.0000 0.4018 0.6151 (  1479 PWs)   bands (ev):

   -66.5210 -66.5205 -35.5359 -35.5345 -35.2905 -35.2905 -35.2419 -35.2417
    -6.4530  -6.1832  -5.9116  -5.8766   5.4343   5.6091   6.0764   6.4258
     6.6811   7.2929   7.6655   8.2191   9.0750   9.2175  10.0162  10.6020
    12.5768  13.0084  13.5108  13.6373  14.6528  14.6558  14.9447  15.1007
    17.2359  17.4394  24.9735  25.7336  27.3870  27.8226  28.8881  29.4135
    29.7267  29.7526  30.5188  30.6506  31.5242  31.5887  35.7139  36.5386
    40.4424  40.6651  41.2995  41.3629  42.0926  42.8013  43.2243  43.6656
    44.5312  44.9932  48.3916  48.8939  49.5871  50.2202  51.5337  51.7510
    52.2146  52.9090  54.6195  54.8373  54.8937  55.4154  56.9987  57.2247
    58.2742  58.4968  58.5557  59.5497  60.3217  61.0941

          k = 0.2009 0.2009 0.0000 (  1489 PWs)   bands (ev):

   -66.5362 -66.5329 -35.3754 -35.3642 -35.3293 -35.3204 -35.2544 -35.2456
    -7.8537  -6.3996  -5.6958  -5.6910   4.5434   5.3881   6.2794   6.7070
     6.7878   7.4986   8.2905   8.7295   9.9906   9.9956  10.4913  11.4976
    12.4200  12.8447  13.1434  13.5037  13.6857  14.9801  15.2561  16.4737
    16.8663  17.6142  22.0717  24.4978  24.6065  27.1119  27.8315  28.8329
    31.3019  32.3398  33.2293  33.3882  33.7276  35.7164  35.8457  36.5684
    36.5756  37.6093  38.3953  39.6734  41.5733  42.2129  44.2852  44.4296
    45.1781  46.3642  46.3946  46.5452  46.9207  48.2002  49.9406  50.2928
    52.2038  53.2772  53.3548  53.5478  54.7767  55.0771  55.3167  56.2679
    57.5234  57.5281  57.6978  59.6252  59.7862  60.0590

          k = 0.2009 0.2009 0.3076 (  1474 PWs)   bands (ev):

   -66.5306 -66.5279 -35.4375 -35.4288 -35.3157 -35.3087 -35.2491 -35.2431
    -7.4557  -6.1878  -5.7857  -5.7636   4.9408   5.7929   5.9701   6.4365
     7.1837   7.2429   8.1428   8.3438   8.8978   9.8683  10.2256  11.1730
    12.8482  12.9689  13.4472  13.7793  13.9989  14.7300  15.4300  15.9259
    16.3596  17.4213  22.9882  25.7339  25.8398  27.6735  28.0604  28.9772
    30.4631  30.7646  31.6716  32.4908  32.5978  34.1038  34.9917  37.4037
    38.4660  39.0282  39.5384  39.8811  41.4848  42.9953  43.2169  44.4927
    45.1485  45.9259  46.7796  47.6678  49.7618  49.9758  50.4968  51.1229
    52.2511  52.7522  53.5078  54.1074  54.5177  54.7839  54.7965  55.2386
    55.7583  58.2962  58.3109  59.2398  59.6516  61.1524

          k = 0.2009 0.2009 0.6151 (  1482 PWs)   bands (ev):

   -66.5212 -66.5202 -35.5365 -35.5331 -35.2922 -35.2904 -35.2416 -35.2414
    -6.5981  -6.0311  -5.8964  -5.8867   5.5091   5.7164   6.0605   6.2290
     6.4431   7.4418   8.0926   8.1669   8.5993   9.5828   9.6652  10.3836
    12.8539  13.3665  13.6434  13.8968  14.0968  14.8062  14.8867  16.0332
    16.1532  17.2527  24.5390  26.3755  26.7893  28.3273  28.5524  29.3671
    29.4663  29.9126  30.6960  31.1032  31.3787  33.2673  34.4165  36.4932
    39.5880  39.6405  40.5609  42.2777  42.2895  43.4601  43.6563  44.2442
    46.5575  46.8042  47.6897  47.7617  48.4204  49.6832  49.9259  51.2932
    52.9414  53.4525  54.0784  54.5306  54.6176  55.3756  56.2033  57.1017
    57.4404  57.8618  58.7528  59.2302  59.7115  61.4122

          k = 0.2009 0.4018 0.0000 (  1467 PWs)   bands (ev):

   -66.5351 -66.5339 -35.3714 -35.3672 -35.3270 -35.3211 -35.2533 -35.2480
    -7.4223  -6.8534  -5.7476  -5.7288   4.8295   5.2628   6.7112   6.7595
     7.0819   7.6600   8.2009   9.0155   9.0530   9.5537  10.2970  10.8807
    12.7140  13.0700  13.0878  13.4904  14.2221  14.6857  16.0129  16.4752
    16.7263  16.9205  23.1694  24.2366  25.4930  26.5990  27.9940  28.5360
    31.0725  31.5550  33.1627  34.0487  34.4102  34.7934  35.7371  35.8977
    36.1483  36.1973  38.8562  40.5714  40.6539  42.3075  43.3486  43.9616
    46.5657  46.7380  47.1661  47.4017  47.6554  49.4894  49.7224  52.0794
    52.1778  52.4368  53.3108  53.7079  54.1477  55.8668  56.0831  56.7306
    57.2373  57.3087  58.2460  58.4903  59.1090  60.1938

          k = 0.2009 0.4018 0.3076 (  1479 PWs)   bands (ev):

   -66.5297 -66.5287 -35.4350 -35.4316 -35.3140 -35.3097 -35.2489 -35.2449
    -7.0745  -6.5774  -5.8147  -5.7997   5.1933   5.6545   6.0072   6.2329
     7.4692   7.8610   7.9525   8.4328   8.6619   9.4273  10.2498  10.6934
    13.1114  13.1996  13.4086  13.7313  14.1848  14.4538  15.5753  15.9692
    16.5400  17.0920  23.9140  25.0130  26.6159  27.6509  28.1500  28.4492
    30.3221  30.6389  31.3011  31.8183  32.9749  33.6622  35.1102  37.0817
    38.1668  38.6165  40.1020  40.2065  41.6099  42.0542  43.3118  44.3235
    45.7418  46.1855  47.4155  47.8629  49.1109  50.5217  50.8729  51.7535
    52.9522  53.4646  54.3569  54.5240  54.7341  55.0084  55.7322  55.9154
    56.5284  57.2989  57.8334  58.8627  59.7202  60.4450

          k = 0.2009 0.4018 0.6151 (  1474 PWs)   bands (ev):

   -66.5209 -66.5205 -35.5355 -35.5343 -35.2918 -35.2906 -35.2417 -35.2415
    -6.3990  -6.1645  -5.9290  -5.9121   5.3319   5.5695   5.8321   6.0820
     6.7641   7.3526   7.9026   8.1198   9.2145   9.5349  10.1655  10.6956
    12.6777  13.2068  13.4802  13.5939  14.3440  14.6513  14.9942  15.4744
    16.8991  17.3506  24.7465  25.5221  26.8168  27.6909  28.7818  29.2611
    29.7213  30.0960  30.1945  30.7843  31.8063  32.6808  35.3112  37.0573
    39.0340  39.7527  40.2080  41.0388  43.1870  43.3899  43.6579  44.8892
    45.6625  46.7279  48.4359  48.6091  49.0562  49.8273  50.2908  51.2586
    52.5656  53.5569  53.7765  54.7397  54.9238  56.0883  56.3139  56.9036
    58.0466  58.7582  58.8610  59.2900  60.2573  60.6571

          k = 0.4018 0.4018 0.0000 (  1486 PWs)   bands (ev):

   -66.5348 -66.5343 -35.3702 -35.3685 -35.3312 -35.3282 -35.2474 -35.2446
    -7.1849  -6.9509  -5.8333  -5.8154   4.6693   4.8653   6.6586   6.6856
     7.6226   8.0396   8.8176   9.3801   9.3866   9.6182   9.6973  10.4323
    12.3934  12.7035  12.8544  13.0946  14.5933  14.7565  16.1202  16.4749
    16.7201  16.8557  24.0370  24.6892  25.7717  26.5219  27.5870  27.8581
    30.9046  31.1706  33.2021  33.5976  35.1405  35.2039  35.2860  35.3732
    35.7260  35.7841  39.8765  40.6705  41.5139  41.5140  43.5577  44.5142
    45.4273  46.0692  46.3588  46.9871  48.5306  48.9175  50.8483  52.0111
    52.7296  53.2367  53.4485  53.8579  55.4629  56.9820  57.3562  57.4837
    57.9882  58.1554  58.3077  58.6611  59.1362  59.5734

          k = 0.4018 0.4018 0.3076 (  1477 PWs)   bands (ev):

   -66.5294 -66.5290 -35.4332 -35.4320 -35.3172 -35.3149 -35.2446 -35.2426
    -6.8599  -6.6524  -5.8880  -5.8727   5.0004   5.2101   5.8745   5.9621
     8.0251   8.2637   8.5964   8.9336   9.1402   9.5179   9.5916  10.0305
    12.9501  13.2141  13.2455  13.3813  14.3070  14.3986  15.9980  16.3468
    16.3726  16.7216  24.5149  25.0945  26.6199  27.2983  28.0925  28.1734
    30.2400  30.3950  30.9489  31.2675  33.4596  33.9893  35.6509  37.0897
    37.4046  37.4780  40.7048  40.8811  42.2250  42.4103  42.6424  43.3214
    45.9442  46.3776  48.0400  48.6926  49.5306  49.9746  50.7799  51.2191
    53.7478  54.2096  54.5009  54.9973  55.2027  55.7625  56.3618  56.4000
    57.1420  57.3141  58.1478  58.5641  59.0903  59.8080

          k = 0.4018 0.4018 0.6151 (  1489 PWs)   bands (ev):

   -66.5208 -66.5207 -35.5348 -35.5341 -35.2928 -35.2924 -35.2418 -35.2414
    -6.2676  -6.1565  -5.9834  -5.9651   5.2370   5.4438   5.5927   5.6298
     6.9779   7.2030   8.0542   8.1023   9.7004   9.8874  10.4039  10.7065
    13.0719  13.4534  13.5020  13.6411  13.8154  14.3004  15.4628  16.0465
    16.3480  16.9100  24.5322  24.8676  26.7734  27.2957  28.3073  28.6879
    29.8004  30.0247  30.8799  31.2091  32.3458  32.7791  36.1329  37.9416
    38.1278  38.5810  39.3287  39.9467  44.0472  44.1546  44.3260  45.1816
    47.1726  47.6398  47.9693  48.9154  49.8147  49.8190  50.6142  51.0943
    51.6038  52.6915  54.2625  55.1656  55.2611  55.6692  56.5502  56.9906
    57.2905  57.8795  57.8995  58.8717  59.8109  60.9110

     the Fermi energy is    12.3865 ev

!    total energy              =    -554.93080514 Ry
     Harris-Foulkes estimate   =    -554.93080289 Ry
     estimated scf accuracy    <       0.00000036 Ry

     The total energy is the sum of the following terms:

     one-electron contribution =    -255.66094019 Ry
     hartree contribution      =     158.21157928 Ry
     xc contribution           =     -81.39428016 Ry
     ewald contribution        =    -376.08728546 Ry
     smearing contrib. (-TS)   =       0.00012139 Ry

     total magnetization       =     5.95 Bohr mag/cell
     absolute magnetization    =     6.07 Bohr mag/cell

     convergence has been achieved in   5 iterations

     Forces acting on atoms (Ry/au):

     atom    1 type  1   force =     0.00000000    0.00000000    0.00000000
[...]
    10.2291  10.6288  10.6961  10.7183  12.0310  12.0594  14.2899  14.5244
    14.7835  15.1217  24.1402  24.7214  26.0090  26.6589  27.6412  27.7622
    29.4842  29.7561  30.0895  30.5324  32.8464  33.3406  34.8284  36.4368
    36.5975  36.7800  40.0010  40.1732  41.6551  41.7181  42.2310  42.8599
    45.2794  45.7090  47.5069  48.1465  48.9998  49.4739  50.2136  50.6837
    53.1356  53.6612  53.8912  54.5951  54.6946  55.4805  55.8597  55.8682
    56.6257  56.9654  57.5398  58.1346  58.4373  59.1845

          k = 0.4021 0.4021 0.6142 (  1479 PWs)   bands (ev):

   -69.7642 -69.7641 -38.6441 -38.6436 -38.4200 -38.4195 -38.3852 -38.3847
    -6.5293  -6.4189  -6.2376  -6.2227   4.7107   4.9116   5.0089   5.1159
     6.2269   6.5266   7.4514   7.4905   8.3299   8.5206   9.6796  10.0267
    10.2559  10.3256  10.7073  11.3923  11.4035  11.9123  13.6620  14.4029
    14.6771  15.3897  24.2432  24.5834  26.1989  26.6233  27.8968  28.1340
    29.1349  29.3433  30.2201  30.5096  31.6991  32.0700  35.3019  37.2081
    37.3983  37.9050  38.6555  39.2363  43.5061  43.5642  43.6497  44.3674
    46.6428  47.1027  47.3926  48.3395  49.2750  49.3308  50.3037  50.8518
    50.9661  52.1200  53.9648  54.7691  54.8181  55.2108  56.1828  56.4294
    57.0120  57.3994  57.4201  58.2563  59.1479  60.2678

 ------ SPIN DOWN ----------


          k = 0.0000 0.0000 0.0000 (  1463 PWs)   bands (ev):

   -66.5362 -66.5311 -35.3771 -35.3612 -35.3256 -35.3256 -35.2460 -35.2460
    -8.1876  -6.0718  -5.5936  -5.5936   4.1520   5.0882   5.6984   6.7370
     6.7370   8.1225   8.1225   8.5548  10.5365  11.2069  11.2069  11.8787
    12.3431  12.6684  12.8374  12.8374  12.9663  14.6122  15.2514  16.8677
    16.8677  18.1212  21.0608  24.1396  24.1396  27.2075  28.1602  28.7561
    31.7554  32.5481  32.7998  32.9332  32.9332  37.1240  38.2571  38.2571
    38.3507  39.2963  39.2963  40.0905  40.2395  40.6017  40.6017  42.2121
    44.0687  44.8048  47.5502  47.5502  47.8431  48.3210  48.3210  49.6484
    51.6789  53.0540  53.1241  53.1241  54.9196  54.9196  55.0257  56.7547
    57.0242  58.5181  59.6133  59.6133  60.1622  60.7292

          k = 0.0000 0.0000 0.3071 (  1475 PWs)   bands (ev):

   -66.5305 -66.5264 -35.4389 -35.4244 -35.3127 -35.3127 -35.2438 -35.2438
    -7.7543  -5.9511  -5.6782  -5.6782   4.6785   5.4146   6.2191   6.3945
     6.3945   7.3925   8.8331   8.8331   8.9427  10.0705  10.0705  11.4828
    12.8286  12.8994  13.1498  13.6647  13.6647  14.9903  15.1577  16.3296
    16.3296  17.4343  22.1784  25.6714  25.6714  27.4372  28.1396  29.2986
    30.7576  31.2605  31.5946  32.2651  32.2651  36.5238  36.5238  36.9239
    38.0865  39.3026  39.3026  39.6123  40.5336  43.5225  44.0480  44.0480
    45.3537  45.3537  46.1340  47.2566  47.9156  49.6123  49.6123  49.8873
    50.8076  53.9854  53.9854  54.3199  55.1243  55.3268  55.3268  55.3559
    55.3757  57.2883  58.1892  58.1892  61.0338  61.0338

          k = 0.0000 0.0000 0.6142 (  1486 PWs)   bands (ev):

   -66.5209 -66.5193 -35.5337 -35.5291 -35.2894 -35.2894 -35.2425 -35.2425
    -6.7639  -6.0071  -5.8194  -5.8194   5.6337   5.8263   6.3214   6.6126
     6.6126   7.0716   7.6809   8.2585   8.2585   9.6148   9.6148   9.7188
    13.2190  13.3961  13.6449  14.2819  14.4640  14.4640  15.6675  16.0053
    16.0053  16.0743  24.4872  26.5731  27.9425  27.9425  28.2974  29.0414
    30.2495  30.6275  30.7741  30.7741  30.9692  33.2224  35.7399  35.7399
    39.7934  39.7934  40.2226  41.1700  41.8190  43.7679  44.5582  44.5582
    45.0213  47.2272  47.3589  47.3589  50.1880  50.1880  50.5712  50.6533
    52.9781  53.2793  53.5297  53.5297  54.2743  54.5276  54.5276  55.7009
    56.6741  57.3068  57.3068  59.1242  59.8536  62.0888

          k = 0.0000 0.2010 0.0000 (  1486 PWs)   bands (ev):

   -66.5357 -66.5316 -35.3763 -35.3627 -35.3231 -35.3230 -35.2499 -35.2494
    -8.0094  -6.2540  -5.6763  -5.6143   4.4784   5.2153   6.0207   6.7466
     6.7584   7.8391   8.0051   8.6196  10.1407  10.3141  10.8511  11.6890
    12.5996  12.9987  13.0272  13.1644  13.3352  14.9715  15.1018  16.6976
    16.7494  17.8720  21.5882  24.2298  24.4498  27.1135  28.0515  28.9466
    31.5106  32.6579  32.9409  32.9520  33.2960  35.8183  36.7576  36.9216
    38.1130  38.1162  39.5565  39.6651  40.5469  40.6053  42.7733  44.6126
    45.1852  45.4941  46.5524  46.6365  47.5950  48.4983  49.0453  50.5133
    52.1645  52.9829  53.4227  53.9057  54.1641  54.8452  54.9875  56.6645
    56.8881  57.3976  58.5973  59.1732  59.3724  60.5029

          k = 0.0000 0.2010 0.3071 (  1472 PWs)   bands (ev):

   -66.5301 -66.5268 -35.4376 -35.4262 -35.3105 -35.3101 -35.2463 -35.2460
    -7.5960  -6.0753  -5.7685  -5.6966   4.9449   5.5737   6.1070   6.3516
     6.9184   7.3130   8.3055   8.6263   8.6552  10.0686  10.1378  11.3715
    12.7967  13.2003  13.3539  13.5536  13.8459  14.8334  15.4471  15.9851
    16.2738  17.4994  22.6136  25.5635  25.8890  27.5704  28.1255  29.3784
    30.4902  31.0066  31.6373  31.7101  33.0536  34.9814  35.1130  37.3645
    38.9690  38.9934  39.9051  39.9988  40.6294  43.0196  43.2888  43.8725
    45.0664  45.7348  46.8448  48.3074  49.0823  49.2417  50.3223  50.5031
    51.5733  52.7107  53.4881  54.3563  54.6913  54.7105  54.9061  55.5767
    55.9935  57.8276  58.8396  59.3496  60.0526  60.1063

          k = 0.0000 0.2010 0.6142 (  1476 PWs)   bands (ev):

   -66.5207 -66.5195 -35.5340 -35.5298 -35.2890 -35.2890 -35.2424 -35.2422
    -6.6783  -6.0181  -5.8826  -5.8356   5.7471   5.7629   5.9773   6.2292
     6.9297   7.0874   7.8994   8.3884   8.3957   9.4381   9.6062  10.1109
    13.0624  13.3169  13.6519  13.7851  14.5664  14.6088  15.2565  15.4098
    16.5356  16.9284  24.5650  26.3539  27.6267  28.1968  28.6033  28.7011
    30.2085  30.4124  30.5054  30.5177  31.5803  32.6776  35.3452  35.9821
    39.8913  40.1414  40.7438  41.3186  42.4493  43.2740  43.6568  44.3756
    45.3374  47.1664  47.1856  47.3577  48.8703  50.4693  50.8931  51.2873
    52.2284  53.1708  53.4666  54.1640  55.3190  55.3294  56.2022  56.3061
    57.1357  57.5245  57.6639  59.3688  59.7127  60.9260

          k = 0.0000 0.4021 0.0000 (  1482 PWs)   bands (ev):

   -66.5344 -66.5328 -35.3722 -35.3667 -35.3180 -35.3179 -35.2550 -35.2547
    -7.5147  -6.8373  -5.7038  -5.6628   5.0872   5.3803   6.7700   6.7823
     7.0654   7.4548   7.6317   8.6694   8.8939   9.4444  10.7551  11.1794
    12.9787  13.1621  13.4227  13.5500  13.9600  14.5742  16.0511  16.4368
    16.4978  17.1363  22.7830  23.9068  25.3753  26.4897  28.4086  29.0642
    31.2273  31.7716  32.5816  33.7955  34.0555  34.6144  35.5749  36.2920
    36.6288  37.6848  39.6026  40.1658  40.7517  41.2615  42.2082  42.5689
    47.1572  47.4954  47.7440  47.8239  48.4532  49.4342  50.6118  51.1660
    52.2372  52.5189  53.0302  53.8512  54.0444  54.0777  55.0523  56.0394
    56.8885  57.4381  58.0240  58.2727  58.4435  60.0684

          k = 0.0000 0.4021 0.3071 (  1475 PWs)   bands (ev):

   -66.5291 -66.5278 -35.4344 -35.4302 -35.3066 -35.3064 -35.2501 -35.2499
    -7.1598  -6.5708  -5.7819  -5.7403   5.5016   5.7935   6.2770   6.3499
     7.2058   7.5105   7.7002   8.0034   8.4233   9.3960  10.5629  10.9963
    13.1014  13.3612  13.6627  13.7033  14.1348  14.4587  15.5428  15.5848
    16.6117  17.2547  23.6720  24.8549  26.6390  27.5327  28.4877  29.2194
    30.1592  30.5809  30.9796  31.9299  32.9627  33.6771  35.0240  36.9432
    38.9293  39.0241  40.2607  40.7865  40.8861  41.8102  43.5620  43.8387
    44.4594  45.8823  47.0748  48.1172  49.7612  50.2183  51.6094  51.9934
    52.1651  53.5832  54.1556  54.2897  54.8408  55.0163  55.5391  55.8140
    55.9754  56.9563  57.7470  59.2577  60.1302  60.2909

          k = 0.0000 0.4021 0.6142 (  1471 PWs)   bands (ev):

   -66.5203 -66.5198 -35.5333 -35.5318 -35.2882 -35.2881 -35.2427 -35.2427
    -6.4538  -6.1808  -5.9130  -5.8748   5.4380   5.6122   6.0790   6.4310
     6.6813   7.2960   7.6671   8.2217   9.0785   9.2239  10.0230  10.6043
    12.5808  13.0092  13.5054  13.6299  14.6545  14.6576  14.9402  15.0968
    17.2344  17.4391  24.9740  25.7352  27.3877  27.8245  28.8777  29.4091
    29.7347  29.7570  30.5261  30.6543  31.5314  31.5921  35.7301  36.5533
    40.4499  40.6754  41.3186  41.3570  42.1118  42.7987  43.2198  43.6801
    44.5249  44.9821  48.3450  48.8914  49.5513  50.1539  51.5127  51.7461
    52.2309  52.9218  54.6052  54.8539  54.8640  55.4314  57.0189  57.2414
    58.2698  58.4764  58.5705  59.5519  60.2940  61.0965

          k = 0.2010 0.2010 0.0000 (  1493 PWs)   bands (ev):

   -66.5354 -66.5320 -35.3748 -35.3642 -35.3269 -35.3177 -35.2555 -35.2461
    -7.8514  -6.3941  -5.6938  -5.6867   4.5456   5.3947   6.2821   6.7060
     6.7880   7.5001   8.2998   8.7144   9.9875   9.9939  10.4997  11.5000
    12.4277  12.8419  13.1490  13.5053  13.6800  14.9793  15.2635  16.4626
    16.8599  17.6202  22.0744  24.4910  24.5983  27.0939  27.8443  28.8430
    31.3174  32.3597  33.2445  33.3453  33.6852  35.7260  35.8571  36.5395
    36.5858  37.5748  38.4165  39.6470  41.5931  42.2350  44.3035  44.4083
    45.2012  46.3605  46.3607  46.5756  46.8881  48.2213  49.9192  50.3142
    52.2196  53.3204  53.3715  53.5207  54.8039  55.0763  55.2905  56.2948
    57.4682  57.5512  57.7284  59.6124  59.8149  60.0055

          k = 0.2010 0.2010 0.3071 (  1479 PWs)   bands (ev):

   -66.5298 -66.5271 -35.4365 -35.4274 -35.3134 -35.3062 -35.2502 -35.2438
    -7.4553  -6.1843  -5.7842  -5.7590   4.9403   5.7964   5.9734   6.4430
     7.1866   7.2370   8.1393   8.3445   8.9021   9.8717  10.2329  11.1780
    12.8431  12.9699  13.4465  13.7793  13.9996  14.7303  15.4323  15.9237
    16.3520  17.4254  22.9882  25.7268  25.8294  27.6547  28.0649  28.9850
    30.4573  30.7732  31.6692  32.4937  32.6105  34.1002  35.0029  37.3814
    38.4697  39.0357  39.5400  39.8849  41.4869  42.9980  43.2213  44.4836
    45.1539  45.9271  46.7943  47.6535  49.7629  49.9651  50.5013  51.1164
    52.2634  52.7778  53.4980  54.1279  54.4994  54.7283  54.7885  55.2451
    55.7507  58.3047  58.3052  59.2534  59.6678  61.1398

          k = 0.2010 0.2010 0.6142 (  1471 PWs)   bands (ev):

   -66.5206 -66.5196 -35.5336 -35.5304 -35.2898 -35.2880 -35.2426 -35.2422
    -6.6007  -6.0306  -5.8969  -5.8815   5.5107   5.7138   6.0628   6.2308
     6.4498   7.4463   8.1020   8.1701   8.5983   9.5935   9.6709  10.3806
    12.8604  13.3623  13.6360  13.9016  14.0953  14.8089  14.8830  16.0170
    16.1623  17.2513  24.5392  26.3719  26.7946  28.3167  28.5387  29.3712
    29.4781  29.9076  30.7002  31.1172  31.3945  33.2793  34.4287  36.4917
    39.5999  39.6595  40.5696  42.2524  42.3014  43.4626  43.6747  44.2525
    46.5475  46.8300  47.6520  47.7509  48.4078  49.6597  49.9104  51.2632
    52.9414  53.4897  54.0335  54.5206  54.6137  55.3825  56.2062  57.0646
    57.4226  57.8662  58.7555  59.2356  59.7300  61.4328

          k = 0.2010 0.4021 0.0000 (  1475 PWs)   bands (ev):

   -66.5343 -66.5330 -35.3713 -35.3671 -35.3247 -35.3185 -35.2542 -35.2484
    -7.4190  -6.8488  -5.7448  -5.7259   4.8325   5.2691   6.7100   6.7590
     7.0855   7.6627   8.2065   9.0214   9.0399   9.5435  10.3017  10.8836
    12.7206  13.0758  13.0864  13.4921  14.2180  14.6827  16.0206  16.4646
    16.7183  16.9272  23.1719  24.2359  25.4894  26.5916  27.9985  28.5416
    31.0863  31.5698  33.1693  34.0540  34.3693  34.7529  35.6990  35.9108
    36.1592  36.1627  38.8793  40.5460  40.6799  42.2845  43.3596  43.9710
    46.5397  46.7710  47.1767  47.4154  47.6302  49.5252  49.6905  52.1065
    52.1457  52.4633  53.3276  53.7329  54.1754  55.8442  56.1069  56.7063
    57.2066  57.3509  58.1869  58.5366  59.1596  60.2470

          k = 0.2010 0.4021 0.3071 (  1481 PWs)   bands (ev):

   -66.5290 -66.5280 -35.4338 -35.4304 -35.3118 -35.3072 -35.2497 -35.2456
    -7.0731  -6.5747  -5.8122  -5.7966   5.1933   5.6581   6.0106   6.2371
     7.4661   7.8617   7.9516   8.4343   8.6632   9.4319  10.2556  10.6993
    13.1101  13.1972  13.4088  13.7306  14.1851  14.4535  15.5730  15.9678
    16.5388  17.0950  23.9152  25.0131  26.6110  27.6409  28.1458  28.4474
    30.3257  30.6490  31.3010  31.8177  32.9736  33.6653  35.1111  37.0724
    38.1643  38.6119  40.0986  40.2117  41.6164  42.0507  43.3058  44.3159
    45.7542  46.1772  47.4095  47.8730  49.1273  50.5283  50.8689  51.7467
    52.9494  53.4566  54.3634  54.5166  54.7336  55.0154  55.7174  55.8838
    56.5272  57.3044  57.8620  58.8709  59.7160  60.4659

          k = 0.2010 0.4021 0.6142 (  1477 PWs)   bands (ev):

   -66.5203 -66.5199 -35.5328 -35.5315 -35.2895 -35.2884 -35.2429 -35.2426
    -6.3998  -6.1633  -5.9289  -5.9103   5.3334   5.5719   5.8298   6.0839
     6.7684   7.3578   7.9064   8.1263   9.2158   9.5394  10.1731  10.6982
    12.6807  13.2076  13.4747  13.5872  14.3454  14.6530  14.9887  15.4677
    16.8983  17.3491  24.7492  25.5258  26.8168  27.6913  28.7772  29.2601
    29.7149  30.0994  30.1931  30.7941  31.8152  32.6906  35.3273  37.0694
    39.0380  39.7626  40.2181  41.0402  43.2032  43.3740  43.6540  44.8643
    45.6843  46.7358  48.4198  48.5818  48.9931  49.7885  50.3040  51.2483
    52.5770  53.5700  53.8025  54.7268  54.9085  56.0850  56.3127  56.9149
    58.0563  58.7243  58.8643  59.3103  60.2562  60.6355

          k = 0.4021 0.4021 0.0000 (  1488 PWs)   bands (ev):

   -66.5339 -66.5334 -35.3699 -35.3686 -35.3289 -35.3257 -35.2478 -35.2451
    -7.1813  -6.9468  -5.8297  -5.8124   4.6703   4.8677   6.6570   6.6843
     7.6279   8.0467   8.8261   9.3751   9.3894   9.6080   9.6976  10.4333
    12.4008  12.7105  12.8520  13.0933  14.5903  14.7542  16.1261  16.4807
    16.7120  16.8490  24.0409  24.6917  25.7718  26.5180  27.5891  27.8597
    30.9162  31.1843  33.2031  33.5993  35.1010  35.1642  35.2993  35.3877
    35.6874  35.7457  39.8997  40.6463  41.4910  41.5407  43.5697  44.5220
    45.4026  46.0464  46.3718  46.9915  48.5695  48.9673  50.8098  51.9698
    52.7575  53.2673  53.4701  53.8744  55.5011  57.0225  57.3885  57.4478
    57.9537  58.2073  58.2626  58.6484  59.1899  59.6239

          k = 0.4021 0.4021 0.3071 (  1487 PWs)   bands (ev):

   -66.5287 -66.5283 -35.4324 -35.4310 -35.3151 -35.3126 -35.2454 -35.2430
    -6.8584  -6.6506  -5.8842  -5.8697   4.9979   5.2090   5.8772   5.9648
     8.0237   8.2633   8.6001   8.9354   9.1447   9.5221   9.5952  10.0358
    12.9507  13.2148  13.2431  13.3810  14.3066  14.3978  15.9951  16.3514
    16.3647  16.7224  24.5175  25.0980  26.6187  27.2988  28.0788  28.1619
    30.2471  30.4076  30.9429  31.2656  33.4679  34.0008  35.6372  37.0760
    37.3905  37.4659  40.7100  40.8848  42.2381  42.4092  42.6365  43.3188
    45.9293  46.3612  48.0475  48.7257  49.5276  49.9966  50.7709  51.2114
    53.7451  54.1863  54.5167  55.0041  55.1972  55.7702  56.3451  56.3710
    57.1390  57.3560  58.1485  58.5718  59.1029  59.8111

          k = 0.4021 0.4021 0.6142 (  1479 PWs)   bands (ev):

   -66.5202 -66.5200 -35.5318 -35.5312 -35.2906 -35.2900 -35.2427 -35.2423
    -6.2689  -6.1583  -5.9790  -5.9634   5.2353   5.4423   5.5933   5.6281
     6.9838   7.2083   8.0625   8.1132   9.7011   9.8890  10.4131  10.7129
    13.0746  13.4481  13.4968  13.6459  13.8147  14.3027  15.4562  16.0297
    16.3574  16.9093  24.5350  24.8705  26.7795  27.3072  28.2986  28.6860
    29.7853  30.0115  30.8892  31.2194  32.3600  32.7910  36.1479  37.9518
    38.1419  38.5768  39.3393  39.9468  44.0605  44.1668  44.2987  45.1625
    47.1505  47.6228  47.9142  48.8547  49.8133  49.8355  50.6433  51.1157
    51.5800  52.6896  54.2959  55.2091  55.2811  55.6601  56.5602  56.9734
    57.2760  57.9027  57.9185  58.8894  59.7660  60.8799

     the Fermi energy is    12.3884 ev

!    total energy              =    -554.93084760 Ry
     Harris-Foulkes estimate   =    -554.93084585 Ry
     estimated scf accuracy    <          2.7E-09 Ry

     The total energy is the sum of the following terms:

     one-electron contribution =    -255.48330129 Ry
     hartree contribution      =     158.12724307 Ry
     xc contribution           =     -81.39433596 Ry
     ewald contribution        =    -376.18058223 Ry
     smearing contrib. (-TS)   =       0.00012882 Ry

     total magnetization       =     5.95 Bohr mag/cell
     absolute magnetization    =     6.07 Bohr mag/cell

     convergence has been achieved in  13 iterations

     Forces acting on atoms (Ry/au):

     atom    1 type  1   force =     0.00000000    0.00000000    0.00000000
     atom    2 type  1   force =     0.00000000    0.00000000   -0.00000000
     atom    3 type  2   force =     0.00026553    0.00026553   -0.00000000
     atom    4 type  2   force =    -0.00026553   -0.00026553   -0.00000000
     atom    5 type  2   force =     0.00026553   -0.00026553   -0.00000000
     atom    6 type  2   force =    -0.00026553    0.00026553   -0.00000000

     Total force =     0.000751     Total SCF correction =     0.000059


     entering subroutine stress ...

          total   stress  (Ry/bohr**3)                   (kbar)     P=  281.64
   0.00190855   0.00000000   0.00000000        280.76      0.00      0.00
   0.00000000   0.00190855   0.00000000          0.00    280.76      0.00
   0.00000000   0.00000000   0.00192645          0.00      0.00    283.39


     init_run     :     14.88s CPU     15.08s WALL (       2 calls)
     electrons    :    691.34s CPU    709.05s WALL (       5 calls)
     update_pot   :      9.76s CPU     10.44s WALL (       3 calls)
     forces       :     29.23s CPU     29.28s WALL (       5 calls)
     stress       :     63.29s CPU     63.39s WALL (       5 calls)

     Called by init_run:
     wfcinit      :      8.39s CPU      8.45s WALL (       2 calls)
     potinit      :      1.32s CPU      1.33s WALL (       2 calls)

     Called by electrons:
     c_bands      :    561.05s CPU    575.06s WALL (      40 calls)
     sum_band     :     86.50s CPU     87.09s WALL (      40 calls)
     v_of_rho     :      7.63s CPU      7.67s WALL (      43 calls)
     newd         :     39.12s CPU     39.17s WALL (      43 calls)
     mix_rho      :      0.72s CPU      0.72s WALL (      40 calls)

     Called by c_bands:
     init_us_2    :      2.81s CPU      2.84s WALL (    3312 calls)
     cegterg      :    552.06s CPU    566.00s WALL (    1440 calls)

     Called by *egterg:
     h_psi        :    261.30s CPU    265.39s WALL (    4084 calls)
     s_psi        :     18.08s CPU     18.09s WALL (    4084 calls)
     g_psi        :      1.43s CPU      1.45s WALL (    2572 calls)
     cdiaghg      :    156.28s CPU    156.63s WALL (    3832 calls)

     Called by h_psi:
     add_vuspsi   :     18.25s CPU     18.35s WALL (    4084 calls)

     General routines
     calbec       :     32.11s CPU     34.16s WALL (    5884 calls)
     fft          :      6.18s CPU      6.23s WALL (    1519 calls)
     ffts         :      0.12s CPU      0.12s WALL (     166 calls)
     fftw         :    229.24s CPU    230.26s WALL (  633594 calls)
     interpolate  :      0.80s CPU      0.80s WALL (     166 calls)

     Parallel routines
     fft_scatter  :     67.71s CPU     65.76s WALL (  635279 calls)

     PWSCF        : 13m31.28s CPU    13m50.75s WALL


   This run was terminated on:  15:44:29  24Jan2014            

=------------------------------------------------------------------------------=
   JOB DONE.
=------------------------------------------------------------------------------=
---------------------------------------
Running PBS batch system epilogue script
Job id: 251938.audhumbla.fysik.dtu.dk
Username: zhonxu
Groupname: campgst
Jobname: MnO2/fine-EOS/ferro/MnO2-v-0.90
Sessionid: 21453
Resources limits: neednodes=1:ppn=4:opteron4,nodes=1:ppn=4:opteron4,walltime=18:00:00
Resources used: cput=00:55:13,mem=289892kb,vmem=1178332kb,walltime=00:13:52
Queuename: verylong
Accounting:
This job has allocated the following 4 nodes:
q019 q019 q019 q019
Finished epilogue job 251938.audhumbla.fysik.dtu.dk for zhonxu
