
     Program PWSCF v.5.0.2 (svn rev. 9656) starts on 30Apr2014 at 21:48: 0 

     This program is part of the open-source Quantum ESPRESSO suite
     for quantum simulation of materials; please cite
         "P. Giannozzi et al., J. Phys.:Condens. Matter 21 395502 (2009);
          URL http://www.quantum-espresso.org", 
     in publications or presentations arising from this work. More details at
     http://www.quantum-espresso.org/quote.php

     Parallel version (MPI), running on    16 processors
     K-points division:     npool     =       4
     R & G space division:  proc/nbgrp/npool/nimage =       4

     Current dimensions of program PWSCF are:
     Max number of different atomic species (ntypx) = 10
     Max number of k-points (npk) =  40000
     Max angular momentum in pseudopotentials (lmaxx) =  3
     Reading input from pwscf.in
Warning: card &CELL ignored
Warning: card / ignored

     Subspace diagonalization in iterative solution of the eigenvalue problem:
     a serial algorithm will be used


     Parallelization info
     --------------------
     sticks:   dense  smooth     PW     G-vecs:    dense   smooth      PW
     Min        1467     469    131               355494    64365    9519
     Max        1469     470    132               355497    64388    9524
     Sum        5871    1877    527              1421981   257505   38087



     bravais-lattice index     =            0
     lattice parameter (alat)  =      11.1872  a.u.
     unit-cell volume          =    7531.8600 (a.u.)^3
     number of atoms/cell      =           31
     number of atomic types    =            3
     number of electrons       =       222.00
     number of Kohn-Sham states=          333
     kinetic-energy cutoff     =      40.0000  Ry
     charge density cutoff     =     500.0000  Ry
     convergence threshold     =      1.0E-06
     mixing beta               =       0.7000
     number of iterations used =            8  plain     mixing
     Exchange-correlation      = SLA  PW   PBE  PBE ( 1 4 3 4 0)
     EXX-fraction              =        0.00
     nstep                     =           50


     celldm(1)=  11.187179  celldm(2)=   0.000000  celldm(3)=   0.000000
     celldm(4)=   0.000000  celldm(5)=   0.000000  celldm(6)=   0.000000

     crystal axes: (cart. coord. in units of alat)
               a(1) = (   1.000000   0.000000   0.000000 )  
               a(2) = (   0.000000   1.180104   0.000000 )  
               a(3) = (   0.000000   0.000000   4.558482 )  

     reciprocal axes: (cart. coord. in units 2 pi/alat)
               b(1) = (  1.000000  0.000000  0.000000 )  
               b(2) = (  0.000000  0.847383  0.000000 )  
               b(3) = (  0.000000  0.000000  0.219371 )  


     PseudoPot. # 1 for O  read from file:
     /home/camp/zhonxu/pseudo/o_pbe_v1.01.uspp.F.UPF
     MD5 check sum: 2bcb18d16ea4b960afae9ec6d52f22d2
     Pseudo is Ultrasoft + core correction, Zval =  6.0
     Generated by new atomic code, or converted to UPF format
     Using radial grid of  737 points,  5 beta functions with: 
                l(1) =   0
                l(2) =   0
                l(3) =   1
                l(4) =   1
                l(5) =   2
     Q(r) pseudized with  8 coefficients,  rinner =    0.900   0.900   0.900
                                                       0.900   0.900

     PseudoPot. # 2 for Nb read from file:
     /home/camp/zhonxu/pseudo/nb_pbe_v1.uspp.F.UPF
     MD5 check sum: 573aab8a2fa660278ed4a62cd769473f
     Pseudo is Ultrasoft + core correction, Zval = 13.0
     Generated by new atomic code, or converted to UPF format
     Using radial grid of  887 points,  6 beta functions with: 
                l(1) =   0
                l(2) =   0
                l(3) =   1
                l(4) =   1
                l(5) =   2
                l(6) =   2
     Q(r) pseudized with  6 coefficients,  rinner =    1.000   1.000   1.000
                                                       1.000   1.000

     PseudoPot. # 3 for H  read from file:
     /home/camp/zhonxu/pseudo/h_pbe_v1.uspp.F.UPF
     MD5 check sum: 3408e3ff4ec8b0a4e358431e7e038a48
     Pseudo is Ultrasoft, Zval =  1.0
     Generated by new atomic code, or converted to UPF format
     Using radial grid of  615 points,  2 beta functions with: 
                l(1) =   0
                l(2) =   0
     Q(r) pseudized with  8 coefficients,  rinner =    0.700

     atomic species   valence    mass     pseudopotential
        O0             6.00    15.99940     O ( 1.00)
        Nb1           13.00    92.90640     Nb( 1.00)
        H2             1.00     1.00794     H ( 1.00)


     Simplified LDA+U calculation (l_max = 2) with parameters (eV):
     atomic species    L          U    alpha       J0     beta
        Nb1            2     7.0000   0.0000   0.0000   0.0000



     No symmetry found



   Cartesian axes

     site n.     atom                  positions (alat units)
         1           O0  tau(   1) = (   0.0000000   0.0000000   1.6934306  )
         2           O0  tau(   2) = (   0.0000000   0.5900519   1.7719732  )
         3           Nb1 tau(   3) = (   0.2500000   0.5900519   2.0266100  )
         4           Nb1 tau(   4) = (   0.0000000   0.0000000   2.0234647  )
         5           O0  tau(   5) = (   0.2500000   0.9322821   2.0339492  )
         6           O0  tau(   6) = (   0.2500000   0.2478218   2.0339492  )
         7           O0  tau(   7) = (   0.0000000   0.5900519   2.2822497  )
         8           O0  tau(   8) = (   0.0000000   0.0000000   2.3837671  )
         9           Nb1 tau(   9) = (   0.2500000   0.0000000   2.6303810  )
        10           Nb1 tau(  10) = (   0.0000000   0.5900519   2.5986084  )
        11           O0  tau(  11) = (   0.2500000   0.8378738   2.6271901  )
        12           O0  tau(  12) = (   0.2500000   0.3422301   2.6272357  )
        13           O0  tau(  13) = (   0.0000000   0.0000000   2.8322306  )
        14           O0  tau(  14) = (   0.5000000   0.0000000   1.6959377  )
        15           O0  tau(  15) = (   0.5000000   0.5900519   1.7815005  )
        16           Nb1 tau(  16) = (   0.7500000   0.5900519   2.0269291  )
        17           Nb1 tau(  17) = (   0.5000000   0.0000000   2.0281143  )
        18           O0  tau(  18) = (   0.7500000   0.9322821   2.0339492  )
        19           O0  tau(  19) = (   0.7500000   0.2478218   2.0339492  )
        20           O0  tau(  20) = (   0.5000000   0.5900519   2.2572692  )
        21           O0  tau(  21) = (   0.5000000   0.0000000   2.3822628  )
        22           Nb1 tau(  22) = (   0.7500000   0.0000000   2.6309736  )
        23           Nb1 tau(  23) = (   0.5000000   0.5900519   2.6831227  )
        24           O0  tau(  24) = (   0.7500000   0.8378738   2.6265975  )
        25           O0  tau(  25) = (   0.7500000   0.3422301   2.6265975  )
        26           O0  tau(  26) = (   0.5000000   0.0000000   2.8320027  )
        27           H2  tau(  27) = (  -0.0004900   0.5918693   1.6065459  )
        28           H2  tau(  28) = (   0.4994900   0.5917631   1.6163466  )
        29           H2  tau(  29) = (   0.1504600   0.0004366   1.6207228  )
        30           H2  tau(  30) = (   0.6496400   0.0004366   1.6219536  )
        31           O0  tau(  31) = (   0.5000300   0.5900519   2.9731333  )

     number of k points=    10  Methfessel-Paxton smearing, width (Ry)=  0.0100
                       cart. coord. in units 2pi/alat
        k(    1) = (   0.0000000   0.0000000   0.0000000), wk =   0.1250000
        k(    2) = (   0.0000000   0.2118458   0.0000000), wk =   0.2500000
        k(    3) = (   0.0000000  -0.4236915   0.0000000), wk =   0.1250000
        k(    4) = (   0.2500000   0.0000000   0.0000000), wk =   0.2500000
        k(    5) = (   0.2500000   0.2118458   0.0000000), wk =   0.2500000
        k(    6) = (   0.2500000  -0.4236915   0.0000000), wk =   0.2500000
        k(    7) = (  -0.5000000   0.0000000   0.0000000), wk =   0.1250000
        k(    8) = (  -0.5000000   0.2118458   0.0000000), wk =   0.2500000
        k(    9) = (  -0.5000000  -0.4236915   0.0000000), wk =   0.1250000
        k(   10) = (  -0.2500000   0.2118458   0.0000000), wk =   0.2500000

     Dense  grid:  1421981 G-vectors     FFT dimensions: (  80,  96, 375)

     Smooth grid:   257505 G-vectors     FFT dimensions: (  45,  54, 216)

     Largest allocated arrays     est. size (Mb)     dimensions
        Kohn-Sham Wavefunctions        41.09 Mb     (   8086,  333)
        Atomic wavefunctions           22.70 Mb     (   8086,  184)
        NL pseudopotentials            49.23 Mb     (   8086,  399)
        Each V/rho on FFT grid         11.02 Mb     ( 721920)
        Each G-vector array             2.71 Mb     ( 355495)
        G-vector shells                 1.17 Mb     ( 153576)
     Largest temporary arrays     est. size (Mb)     dimensions
        Auxiliary wavefunctions       164.35 Mb     (   8086, 1332)
        Each subspace H/S matrix       27.07 Mb     (1332,1332)
        Each <psi_i|beta_j> matrix      2.03 Mb     (    399,  333)
        Arrays for rho mixing          88.13 Mb     ( 721920,   8)

     Check: negative/imaginary core charge=   -0.000003    0.000000

     Initial potential from superposition of free atoms
     Check: negative starting charge=   -0.003810

     starting charge  221.97807, renormalised to  222.00000

     negative rho (up, down):  0.381E-02 0.000E+00
     Number of +U iterations with fixed ns =  0
     Starting occupations:
 --- enter write_ns ---
 LDA+U parameters:
U( 2)     =  7.00000000
alpha( 2) =  0.00000000
atom    3   Tr[ns(na)] =   3.00000
    eigenvalues: 
  0.300  0.300  0.300  0.300  0.300
    eigenvectors:
  1.000  0.000  0.000  0.000  0.000
  0.000  1.000  0.000  0.000  0.000
  0.000  0.000  1.000  0.000  0.000
  0.000  0.000  0.000  1.000  0.000
  0.000  0.000  0.000  0.000  1.000
    occupations:
  0.300  0.000  0.000  0.000  0.000
  0.000  0.300  0.000  0.000  0.000
  0.000  0.000  0.300  0.000  0.000
  0.000  0.000  0.000  0.300  0.000
  0.000  0.000  0.000  0.000  0.300
atom    4   Tr[ns(na)] =   3.00000
    eigenvalues: 
  0.300  0.300  0.300  0.300  0.300
    eigenvectors:
  1.000  0.000  0.000  0.000  0.000
  0.000  1.000  0.000  0.000  0.000
  0.000  0.000  1.000  0.000  0.000
  0.000  0.000  0.000  1.000  0.000
  0.000  0.000  0.000  0.000  1.000
    occupations:
  0.300  0.000  0.000  0.000  0.000
  0.000  0.300  0.000  0.000  0.000
  0.000  0.000  0.300  0.000  0.000
  0.000  0.000  0.000  0.300  0.000
  0.000  0.000  0.000  0.000  0.300
atom    9   Tr[ns(na)] =   3.00000
    eigenvalues: 
  0.300  0.300  0.300  0.300  0.300
    eigenvectors:
  1.000  0.000  0.000  0.000  0.000
  0.000  1.000  0.000  0.000  0.000
  0.000  0.000  1.000  0.000  0.000
  0.000  0.000  0.000  1.000  0.000
  0.000  0.000  0.000  0.000  1.000
    occupations:
  0.300  0.000  0.000  0.000  0.000
  0.000  0.300  0.000  0.000  0.000
  0.000  0.000  0.300  0.000  0.000
  0.000  0.000  0.000  0.300  0.000
  0.000  0.000  0.000  0.000  0.300
atom   10   Tr[ns(na)] =   3.00000
    eigenvalues: 
  0.300  0.300  0.300  0.300  0.300
    eigenvectors:
  1.000  0.000  0.000  0.000  0.000
  0.000  1.000  0.000  0.000  0.000
  0.000  0.000  1.000  0.000  0.000
  0.000  0.000  0.000  1.000  0.000
  0.000  0.000  0.000  0.000  1.000
    occupations:
  0.300  0.000  0.000  0.000  0.000
  0.000  0.300  0.000  0.000  0.000
  0.000  0.000  0.300  0.000  0.000
  0.000  0.000  0.000  0.300  0.000
  0.000  0.000  0.000  0.000  0.300
atom   16   Tr[ns(na)] =   3.00000
    eigenvalues: 
  0.300  0.300  0.300  0.300  0.300
    eigenvectors:
  1.000  0.000  0.000  0.000  0.000
  0.000  1.000  0.000  0.000  0.000
  0.000  0.000  1.000  0.000  0.000
  0.000  0.000  0.000  1.000  0.000
  0.000  0.000  0.000  0.000  1.000
    occupations:
  0.300  0.000  0.000  0.000  0.000
  0.000  0.300  0.000  0.000  0.000
  0.000  0.000  0.300  0.000  0.000
  0.000  0.000  0.000  0.300  0.000
  0.000  0.000  0.000  0.000  0.300
atom   17   Tr[ns(na)] =   3.00000
    eigenvalues: 
  0.300  0.300  0.300  0.300  0.300
    eigenvectors:
  1.000  0.000  0.000  0.000  0.000
  0.000  1.000  0.000  0.000  0.000
  0.000  0.000  1.000  0.000  0.000
  0.000  0.000  0.000  1.000  0.000
  0.000  0.000  0.000  0.000  1.000
    occupations:
  0.300  0.000  0.000  0.000  0.000
  0.000  0.300  0.000  0.000  0.000
  0.000  0.000  0.300  0.000  0.000
  0.000  0.000  0.000  0.300  0.000
  0.000  0.000  0.000  0.000  0.300
atom   22   Tr[ns(na)] =   3.00000
    eigenvalues: 
  0.300  0.300  0.300  0.300  0.300
    eigenvectors:
  1.000  0.000  0.000  0.000  0.000
  0.000  1.000  0.000  0.000  0.000
  0.000  0.000  1.000  0.000  0.000
  0.000  0.000  0.000  1.000  0.000
  0.000  0.000  0.000  0.000  1.000
    occupations:
  0.300  0.000  0.000  0.000  0.000
  0.000  0.300  0.000  0.000  0.000
  0.000  0.000  0.300  0.000  0.000
  0.000  0.000  0.000  0.300  0.000
  0.000  0.000  0.000  0.000  0.300
atom   23   Tr[ns(na)] =   3.00000
    eigenvalues: 
  0.300  0.300  0.300  0.300  0.300
    eigenvectors:
  1.000  0.000  0.000  0.000  0.000
  0.000  1.000  0.000  0.000  0.000
  0.000  0.000  1.000  0.000  0.000
  0.000  0.000  0.000  1.000  0.000
  0.000  0.000  0.000  0.000  1.000
    occupations:
  0.300  0.000  0.000  0.000  0.000
  0.000  0.300  0.000  0.000  0.000
  0.000  0.000  0.300  0.000  0.000
  0.000  0.000  0.000  0.300  0.000
  0.000  0.000  0.000  0.000  0.300
N of occupied +U levels =  24.0000000
 --- exit write_ns ---
 Atomic wfc used for LDA+U Projector are NOT orthogonalized
     Starting wfc are  184 randomized atomic wfcs

     total cpu time spent up to now is      113.7 secs

     per-process dynamical memory:   403.5 Mb

     Self-consistent Calculation

     iteration #  1     ecut=    40.00 Ry     beta=0.70
     Davidson diagonalization with overlap
     ethr =  1.00E-02,  avg # of iterations =  6.0
 --- enter write_ns ---
 LDA+U parameters:
U( 2)     =  7.00000000
alpha( 2) =  0.00000000
atom    3   Tr[ns(na)] =   3.73394
    eigenvalues: 
  0.223  0.250  0.402  0.431  0.562
    eigenvectors:
  0.000  0.000  0.036  0.546  0.418
  0.000  0.000  0.935  0.065  0.000
  0.079  0.921  0.000  0.000  0.000
  0.000  0.000  0.029  0.389  0.582
  0.921  0.079  0.000  0.000  0.000
    occupations:
  0.485 -0.005  0.000 -0.066 -0.000
 -0.005  0.404 -0.000 -0.006  0.000
  0.000 -0.000  0.248 -0.000 -0.007
 -0.066 -0.006 -0.000  0.506  0.000
 -0.000  0.000 -0.007  0.000  0.225
atom    4   Tr[ns(na)] =   3.88107
    eigenvalues: 
  0.206  0.357  0.405  0.429  0.543
    eigenvectors:
  0.000  0.000  0.000  0.970  0.030
  0.000  1.000  0.000  0.000  0.000
  1.000  0.000  0.000  0.000  0.000
  0.000  0.000  0.000  0.030  0.970
  0.000  0.000  1.000  0.000  0.000
    occupations:
  0.433  0.002  0.000 -0.019  0.000
  0.002  0.357  0.000 -0.003 -0.000
  0.000  0.000  0.206 -0.000  0.001
 -0.019 -0.003 -0.000  0.540  0.000
  0.000 -0.000  0.001  0.000  0.405
atom    9   Tr[ns(na)] =   3.33719
    eigenvalues: 
  0.219  0.259  0.259  0.464  0.467
    eigenvectors:
  0.000  0.881  0.000  0.009  0.110
  0.000  0.000  0.000  0.926  0.074
  1.000  0.000  0.000  0.000  0.000
  0.000  0.119  0.000  0.065  0.816
  0.000  0.000  1.000  0.000  0.000
    occupations:
  0.284 -0.000  0.000  0.067 -0.000
 -0.000  0.464 -0.000 -0.001 -0.000
  0.000 -0.000  0.219  0.000  0.000
  0.067 -0.001  0.000  0.442 -0.000
 -0.000 -0.000  0.000 -0.000  0.259
atom   10   Tr[ns(na)] =   3.31474
    eigenvalues: 
  0.184  0.217  0.357  0.399  0.500
    eigenvectors:
  0.000  0.000  1.000  0.000  0.000
  0.000  1.000  0.000  0.000  0.000
  1.000  0.000  0.000  0.000  0.000
  0.000  0.000  0.000  0.000  1.000
  0.000  0.000  0.000  1.000  0.000
    occupations:
  0.357  0.000  0.000 -0.002 -0.000
  0.000  0.217  0.000  0.001  0.000
  0.000  0.000  0.184 -0.000 -0.000
 -0.002  0.001 -0.000  0.500 -0.000
 -0.000  0.000 -0.000 -0.000  0.399
atom   16   Tr[ns(na)] =   3.73400
    eigenvalues: 
  0.224  0.249  0.402  0.431  0.562
    eigenvectors:
  0.000  0.000  0.036  0.547  0.417
  0.000  0.000  0.935  0.065  0.000
  0.028  0.972  0.000  0.000  0.000
  0.000  0.000  0.029  0.388  0.583
  0.972  0.028  0.000  0.000  0.000
    occupations:
  0.484  0.005  0.000 -0.066  0.000
  0.005  0.404  0.000  0.006  0.000
  0.000  0.000  0.248 -0.000  0.004
 -0.066  0.006 -0.000  0.506 -0.000
  0.000  0.000  0.004 -0.000  0.225
atom   17   Tr[ns(na)] =   3.86905
    eigenvalues: 
  0.207  0.361  0.406  0.433  0.528
    eigenvectors:
  0.000  0.000  0.000  0.962  0.038
  0.000  1.000  0.000  0.000  0.000
  1.000  0.000  0.000  0.000  0.000
  0.000  0.000  0.000  0.038  0.962
  0.000  0.000  1.000  0.000  0.000
    occupations:
  0.436  0.002  0.000 -0.018  0.000
  0.002  0.361  0.000 -0.002 -0.000
  0.000  0.000  0.207 -0.000  0.001
 -0.018 -0.002 -0.000  0.524  0.000
  0.000 -0.000  0.001  0.000  0.406
atom   22   Tr[ns(na)] =   3.33912
    eigenvalues: 
  0.219  0.260  0.260  0.464  0.467
    eigenvectors:
  0.000  0.882  0.000  0.009  0.109
  0.000  0.000  0.000  0.923  0.077
  1.000  0.000  0.000  0.000  0.000
  0.000  0.118  0.000  0.068  0.814
  0.000  0.000  1.000  0.000  0.000
    occupations:
  0.284  0.000  0.000  0.067 -0.000
  0.000  0.464  0.000  0.001  0.000
  0.000  0.000  0.219 -0.000 -0.000
  0.067  0.001 -0.000  0.442  0.000
 -0.000  0.000 -0.000  0.000  0.260
atom   23   Tr[ns(na)] =   3.79850
    eigenvalues: 
  0.264  0.285  0.377  0.450  0.523
    eigenvectors:
  0.000  0.000  0.000  0.950  0.050
  0.000  1.000  0.000  0.000  0.000
  1.000  0.000  0.000  0.000  0.000
  0.000  0.000  0.000  0.050  0.950
  0.000  0.000  1.000  0.000  0.000
    occupations:
  0.454 -0.000 -0.000 -0.016 -0.000
 -0.000  0.285  0.000 -0.001  0.000
 -0.000  0.000  0.264 -0.000  0.000
 -0.016 -0.001 -0.000  0.520 -0.000
 -0.000  0.000  0.000 -0.000  0.377
N of occupied +U levels =  29.0076068
 --- exit write_ns ---

     negative rho (up, down):  0.332E-02 0.000E+00

     total cpu time spent up to now is      459.4 secs

     total energy              =   -1548.14497438 Ry
     Harris-Foulkes estimate   =   -1561.33258084 Ry
     estimated scf accuracy    <      17.13224846 Ry

     iteration #  2     ecut=    40.00 Ry     beta=0.70
     Davidson diagonalization with overlap
     ethr =  7.72E-03,  avg # of iterations =  2.0

     negative rho (up, down):  0.133E-01 0.000E+00

     total cpu time spent up to now is      642.5 secs

     total energy              =   -1532.68556727 Ry
     Harris-Foulkes estimate   =   -1572.56288127 Ry
     estimated scf accuracy    <     153.89794159 Ry

     iteration #  3     ecut=    40.00 Ry     beta=0.70
     Davidson diagonalization with overlap
     ethr =  7.72E-03,  avg # of iterations =  3.9

     negative rho (up, down):  0.410E-02 0.000E+00

     total cpu time spent up to now is      858.7 secs

     total energy              =   -1526.02813738 Ry
     Harris-Foulkes estimate   =   -1572.56509896 Ry
     estimated scf accuracy    <     786.98945600 Ry

     iteration #  4     ecut=    40.00 Ry     beta=0.70
     Davidson diagonalization with overlap
     ethr =  7.72E-03,  avg # of iterations =  3.8

     negative rho (up, down):  0.180E-02 0.000E+00

     total cpu time spent up to now is     1075.0 secs

     total energy              =   -1556.42074085 Ry
     Harris-Foulkes estimate   =   -1559.01372017 Ry
     estimated scf accuracy    <      15.33152227 Ry

     iteration #  5     ecut=    40.00 Ry     beta=0.70
     Davidson diagonalization with overlap
     ethr =  6.91E-03,  avg # of iterations =  2.1

     negative rho (up, down):  0.174E-02 0.000E+00

     total cpu time spent up to now is     1254.3 secs

     total energy              =   -1557.52895147 Ry
     Harris-Foulkes estimate   =   -1558.02468702 Ry
     estimated scf accuracy    <       2.46943279 Ry

     iteration #  6     ecut=    40.00 Ry     beta=0.70
     Davidson diagonalization with overlap
     ethr =  1.11E-03,  avg # of iterations =  3.9

     negative rho (up, down):  0.163E-02 0.000E+00

     total cpu time spent up to now is     1453.1 secs

     total energy              =   -1557.59572525 Ry
     Harris-Foulkes estimate   =   -1557.77092189 Ry
     estimated scf accuracy    <       1.14030741 Ry

     iteration #  7     ecut=    40.00 Ry     beta=0.70
     Davidson diagonalization with overlap
     ethr =  5.14E-04,  avg # of iterations =  1.2

     negative rho (up, down):  0.158E-02 0.000E+00

     total cpu time spent up to now is     1636.5 secs

     total energy              =   -1557.58111782 Ry
     Harris-Foulkes estimate   =   -1557.66532574 Ry
     estimated scf accuracy    <       0.40589041 Ry

     iteration #  8     ecut=    40.00 Ry     beta=0.70
     Davidson diagonalization with overlap
     ethr =  1.83E-04,  avg # of iterations =  6.3

     negative rho (up, down):  0.214E-02 0.000E+00

     total cpu time spent up to now is     1845.5 secs

     total energy              =   -1557.59573914 Ry
     Harris-Foulkes estimate   =   -1557.64560088 Ry
     estimated scf accuracy    <       0.37297009 Ry

     iteration #  9     ecut=    40.00 Ry     beta=0.70
     Davidson diagonalization with overlap
     ethr =  1.68E-04,  avg # of iterations =  1.3

     negative rho (up, down):  0.306E-02 0.000E+00

     total cpu time spent up to now is     2017.9 secs

     total energy              =   -1557.60530706 Ry
     Harris-Foulkes estimate   =   -1557.63624549 Ry
     estimated scf accuracy    <       0.22699827 Ry

     iteration # 10     ecut=    40.00 Ry     beta=0.70
     Davidson diagonalization with overlap
     ethr =  1.02E-04,  avg # of iterations =  3.8

     negative rho (up, down):  0.237E-02 0.000E+00

     total cpu time spent up to now is     2201.6 secs

     total energy              =   -1557.62430767 Ry
     Harris-Foulkes estimate   =   -1557.63430610 Ry
     estimated scf accuracy    <       0.13172739 Ry

     iteration # 11     ecut=    40.00 Ry     beta=0.70
     Davidson diagonalization with overlap
     ethr =  5.93E-05,  avg # of iterations =  3.7

     negative rho (up, down):  0.170E-02 0.000E+00

     total cpu time spent up to now is     2386.2 secs

     total energy              =   -1557.62592342 Ry
     Harris-Foulkes estimate   =   -1557.62925679 Ry
     estimated scf accuracy    <       0.06638398 Ry

     iteration # 12     ecut=    40.00 Ry     beta=0.70
     Davidson diagonalization with overlap
     ethr =  2.99E-05,  avg # of iterations =  6.0

     negative rho (up, down):  0.183E-02 0.000E+00

     total cpu time spent up to now is     2579.7 secs

     total energy              =   -1557.60409409 Ry
     Harris-Foulkes estimate   =   -1557.62865335 Ry
     estimated scf accuracy    <       0.05042106 Ry

     iteration # 13     ecut=    40.00 Ry     beta=0.70
     Davidson diagonalization with overlap
     ethr =  2.27E-05,  avg # of iterations =  7.2

     negative rho (up, down):  0.206E-02 0.000E+00

     total cpu time spent up to now is     2804.1 secs

     total energy              =   -1557.60685016 Ry
     Harris-Foulkes estimate   =   -1557.63816379 Ry
     estimated scf accuracy    <       0.12542424 Ry

     iteration # 14     ecut=    40.00 Ry     beta=0.70
     Davidson diagonalization with overlap
     ethr =  2.27E-05,  avg # of iterations =  6.1

     negative rho (up, down):  0.219E-02 0.000E+00

     total cpu time spent up to now is     3008.7 secs

     total energy              =   -1557.62086722 Ry
     Harris-Foulkes estimate   =   -1557.62388091 Ry
     estimated scf accuracy    <       0.01179088 Ry

     iteration # 15     ecut=    40.00 Ry     beta=0.70
     Davidson diagonalization with overlap
     ethr =  5.31E-06,  avg # of iterations =  2.7

     negative rho (up, down):  0.241E-02 0.000E+00

     total cpu time spent up to now is     3183.1 secs

     total energy              =   -1557.62152515 Ry
     Harris-Foulkes estimate   =   -1557.62367522 Ry
     estimated scf accuracy    <       0.01013935 Ry

     iteration # 16     ecut=    40.00 Ry     beta=0.70
     Davidson diagonalization with overlap
     ethr =  4.57E-06,  avg # of iterations =  3.3

     negative rho (up, down):  0.277E-02 0.000E+00

     total cpu time spent up to now is     3359.2 secs

     total energy              =   -1557.62262787 Ry
     Harris-Foulkes estimate   =   -1557.62323865 Ry
     estimated scf accuracy    <       0.00406384 Ry

     iteration # 17     ecut=    40.00 Ry     beta=0.70
     Davidson diagonalization with overlap
     ethr =  1.83E-06,  avg # of iterations =  3.3

     negative rho (up, down):  0.344E-02 0.000E+00

     total cpu time spent up to now is     3533.1 secs

     total energy              =   -1557.62287499 Ry
     Harris-Foulkes estimate   =   -1557.62313334 Ry
     estimated scf accuracy    <       0.00164046 Ry

     iteration # 18     ecut=    40.00 Ry     beta=0.70
     Davidson diagonalization with overlap
     ethr =  7.39E-07,  avg # of iterations =  3.0

     negative rho (up, down):  0.399E-02 0.000E+00

     total cpu time spent up to now is     3707.5 secs

     total energy              =   -1557.62282482 Ry
     Harris-Foulkes estimate   =   -1557.62307186 Ry
     estimated scf accuracy    <       0.00068553 Ry

     iteration # 19     ecut=    40.00 Ry     beta=0.70
     Davidson diagonalization with overlap
     ethr =  3.09E-07,  avg # of iterations =  4.8

     negative rho (up, down):  0.412E-02 0.000E+00

     total cpu time spent up to now is     3902.8 secs

     total energy              =   -1557.62266346 Ry
     Harris-Foulkes estimate   =   -1557.62360693 Ry
     estimated scf accuracy    <       0.00506967 Ry

     iteration # 20     ecut=    40.00 Ry     beta=0.70
     Davidson diagonalization with overlap
     ethr =  3.09E-07,  avg # of iterations =  3.8

     negative rho (up, down):  0.347E-02 0.000E+00

     total cpu time spent up to now is     4087.8 secs

     total energy              =   -1557.62306135 Ry
     Harris-Foulkes estimate   =   -1557.62313554 Ry
     estimated scf accuracy    <       0.00022970 Ry

     iteration # 21     ecut=    40.00 Ry     beta=0.70
     Davidson diagonalization with overlap
     ethr =  1.03E-07,  avg # of iterations =  2.0

     negative rho (up, down):  0.375E-02 0.000E+00

     total cpu time spent up to now is     4260.6 secs

     total energy              =   -1557.62310384 Ry
     Harris-Foulkes estimate   =   -1557.62313238 Ry
     estimated scf accuracy    <       0.00027848 Ry

     iteration # 22     ecut=    40.00 Ry     beta=0.70
     Davidson diagonalization with overlap
     ethr =  1.03E-07,  avg # of iterations =  1.0

     negative rho (up, down):  0.381E-02 0.000E+00

     total cpu time spent up to now is     4426.2 secs

     total energy              =   -1557.62311775 Ry
     Harris-Foulkes estimate   =   -1557.62313178 Ry
     estimated scf accuracy    <       0.00008461 Ry

     iteration # 23     ecut=    40.00 Ry     beta=0.70
     Davidson diagonalization with overlap
     ethr =  3.81E-08,  avg # of iterations =  1.4

     negative rho (up, down):  0.369E-02 0.000E+00

     total cpu time spent up to now is     4593.4 secs

     total energy              =   -1557.62312118 Ry
     Harris-Foulkes estimate   =   -1557.62313865 Ry
     estimated scf accuracy    <       0.00005761 Ry

     iteration # 24     ecut=    40.00 Ry     beta=0.70
     Davidson diagonalization with overlap
     ethr =  2.59E-08,  avg # of iterations =  1.0

     negative rho (up, down):  0.360E-02 0.000E+00

     total cpu time spent up to now is     4763.8 secs

     total energy              =   -1557.62313107 Ry
     Harris-Foulkes estimate   =   -1557.62313349 Ry
     estimated scf accuracy    <       0.00002377 Ry

     iteration # 25     ecut=    40.00 Ry     beta=0.70
     Davidson diagonalization with overlap
     ethr =  1.07E-08,  avg # of iterations =  1.0

     negative rho (up, down):  0.361E-02 0.000E+00

     total cpu time spent up to now is     4927.7 secs

     total energy              =   -1557.62313057 Ry
     Harris-Foulkes estimate   =   -1557.62313443 Ry
     estimated scf accuracy    <       0.00001921 Ry

     iteration # 26     ecut=    40.00 Ry     beta=0.70
     Davidson diagonalization with overlap
     ethr =  8.65E-09,  avg # of iterations =  1.0

     negative rho (up, down):  0.357E-02 0.000E+00

     total cpu time spent up to now is     5091.2 secs

     total energy              =   -1557.62313212 Ry
     Harris-Foulkes estimate   =   -1557.62313307 Ry
     estimated scf accuracy    <       0.00000606 Ry

     iteration # 27     ecut=    40.00 Ry     beta=0.70
     Davidson diagonalization with overlap
     ethr =  2.73E-09,  avg # of iterations =  2.0

     negative rho (up, down):  0.356E-02 0.000E+00

     total cpu time spent up to now is     5265.4 secs

     total energy              =   -1557.62313274 Ry
     Harris-Foulkes estimate   =   -1557.62313375 Ry
     estimated scf accuracy    <       0.00000708 Ry

     iteration # 28     ecut=    40.00 Ry     beta=0.70
     Davidson diagonalization with overlap
     ethr =  2.73E-09,  avg # of iterations =  1.0

     negative rho (up, down):  0.355E-02 0.000E+00

     total cpu time spent up to now is     5434.0 secs

     End of self-consistent calculation
 --- enter write_ns ---
 LDA+U parameters:
U( 2)     =  7.00000000
alpha( 2) =  0.00000000
atom    3   Tr[ns(na)] =   5.14654
    eigenvalues: 
  0.318  0.370  0.548  0.612  0.725
    eigenvectors:
  0.000  0.000  0.025  0.329  0.646
  0.000  0.000  0.958  0.040  0.003
  0.729  0.271  0.000  0.000  0.000
  0.000  0.000  0.017  0.631  0.352
  0.271  0.729  0.000  0.000  0.000
    occupations:
  0.683 -0.014  0.000 -0.055 -0.000
 -0.014  0.551 -0.000 -0.005  0.000
  0.000 -0.000  0.332 -0.000 -0.023
 -0.055 -0.005 -0.000  0.651  0.000
 -0.000  0.000 -0.023  0.000  0.356
atom    4   Tr[ns(na)] =   5.16161
    eigenvalues: 
  0.328  0.360  0.562  0.599  0.731
    eigenvectors:
  0.003  0.000  0.000  0.997  0.000
  0.996  0.000  0.000  0.003  0.001
  0.000  1.000  0.000  0.000  0.000
  0.001  0.000  0.000  0.000  0.999
  0.000  0.000  1.000  0.000  0.000
    occupations:
  0.599  0.015  0.000  0.001 -0.000
  0.015  0.329 -0.000 -0.011  0.000
  0.000 -0.000  0.360  0.000  0.001
  0.001 -0.011  0.000  0.731  0.000
 -0.000  0.000  0.001  0.000  0.562
atom    9   Tr[ns(na)] =   5.20715
    eigenvalues: 
  0.402  0.451  0.477  0.634  0.639
    eigenvectors:
  0.000  0.862  0.000  0.001  0.137
  0.000  0.000  0.000  0.995  0.005
  0.999  0.000  0.001  0.000  0.000
  0.000  0.138  0.000  0.005  0.858
  0.001  0.000  0.999  0.000  0.000
    occupations:
  0.477 -0.000  0.000  0.065 -0.000
 -0.000  0.634 -0.000 -0.000 -0.000
  0.000 -0.000  0.403  0.000  0.002
  0.065 -0.000  0.000  0.613 -0.000
 -0.000 -0.000  0.002 -0.000  0.477
atom   10   Tr[ns(na)] =   5.00684
    eigenvalues: 
  0.291  0.311  0.509  0.541  0.852
    eigenvectors:
  0.000  0.000  0.998  0.000  0.002
  0.000  1.000  0.000  0.000  0.000
  1.000  0.000  0.000  0.000  0.000
  0.000  0.000  0.002  0.000  0.998
  0.000  0.000  0.000  1.000  0.000
    occupations:
  0.509  0.000  0.000  0.014 -0.000
  0.000  0.311 -0.000  0.007  0.000
  0.000 -0.000  0.291 -0.000 -0.001
  0.014  0.007 -0.000  0.852  0.000
 -0.000  0.000 -0.001  0.000  0.541
atom   16   Tr[ns(na)] =   5.14654
    eigenvalues: 
  0.317  0.372  0.549  0.612  0.724
    eigenvectors:
  0.000  0.000  0.025  0.331  0.644
  0.000  0.000  0.958  0.040  0.002
  0.722  0.278  0.000  0.000  0.000
  0.000  0.000  0.017  0.629  0.353
  0.278  0.722  0.000  0.000  0.000
    occupations:
  0.682  0.014  0.000 -0.055  0.000
  0.014  0.552  0.000  0.005  0.000
  0.000  0.000  0.332 -0.000  0.024
 -0.055  0.005 -0.000  0.650 -0.000
  0.000  0.000  0.024 -0.000  0.356
atom   17   Tr[ns(na)] =   5.16365
    eigenvalues: 
  0.330  0.359  0.559  0.602  0.732
    eigenvectors:
  0.003  0.000  0.000  0.997  0.000
  0.996  0.000  0.000  0.003  0.001
  0.000  1.000  0.000  0.000  0.000
  0.001  0.000  0.000  0.000  0.999
  0.000  0.000  1.000  0.000  0.000
    occupations:
  0.601  0.015  0.000  0.001 -0.000
  0.015  0.331 -0.000 -0.011  0.000
  0.000 -0.000  0.359  0.000  0.001
  0.001 -0.011  0.000  0.731  0.000
 -0.000  0.000  0.001  0.000  0.559
atom   22   Tr[ns(na)] =   5.20797
    eigenvalues: 
  0.403  0.451  0.476  0.634  0.639
    eigenvectors:
  0.000  0.864  0.000  0.000  0.136
  0.000  0.000  0.000  0.996  0.004
  1.000  0.000  0.000  0.000  0.000
  0.000  0.136  0.000  0.003  0.860
  0.000  0.000  1.000  0.000  0.000
    occupations:
  0.477  0.000 -0.000  0.064 -0.000
  0.000  0.634  0.000  0.000  0.000
 -0.000  0.000  0.403  0.000 -0.001
  0.064  0.000  0.000  0.614  0.000
 -0.000  0.000 -0.001  0.000  0.476
atom   23   Tr[ns(na)] =   5.29876
    eigenvalues: 
  0.486  0.490  0.524  0.528  0.622
    eigenvectors:
  0.001  0.000  0.000  0.000  0.999
  0.000  0.000  1.000  0.000  0.000
  0.000  1.000  0.000  0.000  0.000
  0.999  0.000  0.000  0.000  0.001
  0.000  0.000  0.000  1.000  0.000
    occupations:
  0.622 -0.000 -0.000  0.005 -0.000
 -0.000  0.524 -0.000 -0.001  0.000
 -0.000 -0.000  0.490 -0.000  0.000
  0.005 -0.001 -0.000  0.486 -0.000
 -0.000  0.000  0.000 -0.000  0.528
N of occupied +U levels =  41.3390595
 --- exit write_ns ---

          k = 0.0000 0.0000 0.0000 ( 32167 PWs)   bands (ev):

   -57.1257 -57.0192 -56.4294 -56.3276 -56.2418 -56.1521 -55.8836 -55.7749
   -33.9328 -33.3575 -33.1691 -33.0967 -33.0825 -32.8940 -32.8739 -32.8223
   -32.7320 -32.7064 -32.6773 -32.6736 -32.6028 -32.3613 -32.3364 -32.2907
   -32.1549 -32.0820 -31.9565 -31.8885 -31.8634 -31.8183 -31.5038 -31.4911
   -20.9511 -20.6220 -20.0385 -20.0075 -19.6574 -19.6015 -19.4966 -19.2379
   -19.1079 -18.9556 -18.7351 -18.6522 -18.6067 -18.2988 -18.1648 -18.1004
   -18.0742 -18.0346 -17.1626  -9.7483  -8.8836  -8.4480  -8.1824  -7.9533
    -7.4562  -7.0517  -7.0189  -6.7968  -6.7164  -6.5896  -6.5262  -6.4076
    -6.2660  -6.0888  -5.9331  -5.7841  -5.7108  -5.6184  -5.6000  -5.4377
    -5.3930  -5.3783  -5.3185  -5.2695  -5.2318  -5.1671  -4.7328  -4.5758
    -4.5624  -4.4142  -4.3689  -4.1229  -4.0005  -3.9384  -3.9113  -3.8875
    -3.7828  -3.7033  -3.6895  -3.5776  -3.5233  -3.5208  -3.4075  -3.3971
    -3.3773  -3.1895  -3.1850  -3.0894  -3.0700  -3.0459  -2.9803  -2.9203
    -2.7840  -2.6866  -2.5709  -2.1707  -1.6992  -1.2921  -1.1858   0.9692
     1.0058   1.4105   1.5683   1.7070   1.8067   1.8979   2.1201   2.1647
     2.1766   2.1910   2.2641   2.4008   2.4975   2.5304   2.5506   2.6412
     2.7424   2.9320   2.9425   3.0695   3.5651   3.8055   3.8713   4.0430
     4.2704   4.4431   4.4642   4.5292   4.6604   5.0045   5.0204   5.1941
     5.4352   5.4704   5.5977   5.6480   5.8592   5.8850   5.9204   5.9824
     6.0698   6.1308   6.3134   6.3364   6.5589   6.6309   6.8370   7.0311
     7.0689   7.4009   7.4381   7.5399   7.7802   7.8070   7.9288   8.0933
     8.1936   8.2740   8.3377   8.5398   8.5563   8.5979   8.6489   8.7413
     8.8073   8.8883   8.9184   8.9328   9.0828   9.2457   9.3625   9.4741
     9.5016   9.5543   9.6465   9.7403   9.8184   9.8247   9.9077   9.9511
    10.0285  10.0671  10.3240  10.3304  10.5904  10.6944  10.8371  10.9379
    11.0247  11.1682  11.1888  11.2268  11.3038  11.3088  11.3209  11.3525
    11.3564  11.5004  11.6474  11.6605  11.7257  11.7611  11.7772  11.9090
    11.9749  11.9913  12.1676  12.2616  12.2695  12.3063  12.4143  12.4585
    12.4608  12.4989  12.6241  12.7038  12.8647  12.9070  12.9228  13.0343
    13.0376  13.1840  13.2606  13.3694  13.5684  13.6663  13.6717  13.7032
    13.8766  13.9216  14.0118  14.0402  14.0670  14.1003  14.1958  14.2691
    14.2813  14.3273  14.6274  14.7705  14.8260  14.8752  15.0602  15.1290
    15.1890  15.1957  15.3057  15.3160  15.3707  15.4496  15.5867  15.6474
    15.6939  15.7245  15.7917  15.8722  15.9698  16.1423  16.1584  16.1932
    16.3246  16.4568  16.4990  16.6743  16.7195  16.7220  16.8325  16.8582
    16.9310  16.9358  16.9990  17.1558  17.2093  17.2559  17.2930  17.3869
    17.4174  17.5166  17.5579  17.5759  17.8766  17.8829  18.1745  18.2078
    18.2199  18.2460  18.2617  18.2942  18.4210  18.4362  18.4706  18.5170
    18.6359  18.7673  18.7844  18.8169  18.8447  18.9936  18.9956  19.1552
    19.2042  19.2596  19.3377  19.4203  19.4943  19.5269  19.6066  19.6417
    19.6721  19.7230  19.8570  19.9273  20.0385  20.0552  20.1402  20.1890
    20.2321  20.2692  20.2767  20.2872  20.4178

          k = 0.0000 0.2118 0.0000 ( 32193 PWs)   bands (ev):

   -57.1190 -57.0199 -56.4204 -56.3291 -56.2372 -56.1486 -55.8792 -55.7735
   -33.9296 -33.3560 -33.1687 -33.0967 -33.0851 -32.8940 -32.8701 -32.8172
   -32.7686 -32.7053 -32.6755 -32.6293 -32.6026 -32.3602 -32.3354 -32.2818
   -32.1550 -32.0996 -31.9562 -31.8913 -31.8718 -31.8186 -31.5070 -31.4908
   -20.9442 -20.6174 -20.0359 -19.9935 -19.5773 -19.4477 -19.3424 -19.3210
   -19.2363 -19.1749 -19.0976 -18.3137 -18.2983 -18.2599 -18.1866 -18.1548
   -18.1498 -18.1024 -17.1611  -9.7439  -8.8757  -8.0460  -7.9545  -7.8796
    -7.4722  -7.0919  -7.0514  -7.0402  -6.9149  -6.8808  -6.6478  -6.5044
    -6.3832  -6.2249  -6.0792  -5.7731  -5.6519  -5.4173  -5.3925  -5.3833
    -5.3021  -5.2394  -5.2018  -5.0852  -5.0019  -4.9456  -4.7833  -4.5913
    -4.5553  -4.5146  -4.4009  -4.3981  -4.2489  -4.1313  -4.0846  -3.8463
    -3.7753  -3.6419  -3.6176  -3.5443  -3.5270  -3.4888  -3.4634  -3.4292
    -3.3731  -3.3617  -3.2871  -3.2055  -3.1458  -3.0948  -3.0586  -2.9303
    -2.7843  -2.7810  -2.6555  -2.2865  -1.2827  -1.1211  -0.6705   1.0032
     1.0075   1.2828   1.3178   1.4683   1.5785   2.0394   2.2102   2.2397
     2.2600   2.2686   2.4716   2.5596   2.6152   2.6403   2.6461   2.7435
     2.8352   2.8848   3.0599   3.1755   3.3464   3.8035   3.9536   4.1029
     4.3500   4.4417   4.4525   4.6122   4.6176   4.7038   4.7780   4.9909
     5.2955   5.3056   5.3526   5.5149   5.5613   5.6909   5.9709   6.2556
     6.2675   6.3205   6.4184   6.4455   6.6305   6.7351   6.7437   6.8549
     6.8738   7.0596   7.2145   7.5670   7.7517   7.8290   7.8739   7.9620
     8.2067   8.3784   8.5873   8.6740   8.7110   8.7441   8.7642   8.8946
     9.0019   9.0849   9.1055   9.2050   9.2884   9.3254   9.3910   9.4901
     9.6111   9.7450   9.7787   9.8077   9.8194   9.9608  10.0101  10.0704
    10.1157  10.1310  10.2965  10.4408  10.4826  10.5673  10.6520  10.7707
    10.7856  10.8068  10.8529  11.0073  11.0707  11.1259  11.1461  11.3099
    11.3332  11.4516  11.5620  11.6646  11.6755  11.9023  11.9163  11.9702
    12.1749  12.2917  12.3561  12.3920  12.4886  12.5744  12.6125  12.6841
    12.7165  12.7851  12.7909  12.8800  12.9222  13.0261  13.0435  13.1921
    13.2815  13.2888  13.4375  13.4450  13.5323  13.6159  13.6791  13.7090
    13.8255  13.8627  13.9022  13.9509  14.0911  14.1096  14.1452  14.2398
    14.3026  14.3750  14.3911  14.4425  14.5640  14.7355  14.7949  14.8029
    14.8990  15.0382  15.1658  15.1864  15.2563  15.2721  15.2890  15.3433
    15.4626  15.5443  15.6718  15.8008  16.0437  16.0745  16.1196  16.1667
    16.2800  16.3288  16.4733  16.4923  16.4996  16.5656  16.7289  16.7362
    16.7513  16.8273  16.9572  17.0927  17.1274  17.2354  17.3277  17.4873
    17.5324  17.6048  17.6763  17.7044  17.7829  17.8703  17.9424  17.9792
    17.9892  18.0785  18.1507  18.2396  18.2439  18.3197  18.3560  18.3985
    18.4549  18.6510  18.6844  18.7028  18.7505  18.8668  18.8911  18.9255
    18.9585  19.0344  19.0650  19.1783  19.2284  19.2573  19.3782  19.4525
    19.5885  19.6554  19.6925  19.7549  19.8334  19.8897  19.9600  20.0454
    20.1219  20.1273  20.1954  20.2040  20.2258

          k = 0.0000-0.4237 0.0000 ( 32162 PWs)   bands (ev):

   -57.1122 -57.0207 -56.4113 -56.3306 -56.2326 -56.1450 -55.8748 -55.7721
   -33.9263 -33.3546 -33.1683 -33.0968 -33.0876 -32.8940 -32.8662 -32.8118
   -32.7892 -32.7041 -32.6738 -32.6025 -32.6009 -32.3591 -32.3345 -32.2730
   -32.1551 -32.1173 -31.9559 -31.8941 -31.8803 -31.8189 -31.5100 -31.4905
   -20.9373 -20.6128 -20.0334 -19.9815 -19.5664 -19.5436 -19.3650 -19.2357
   -19.1199 -19.0437 -18.8692 -18.7382 -18.7309 -18.2846 -18.1335 -18.1089
   -17.9354 -17.9202 -17.1596  -9.7394  -8.8679  -7.9459  -7.6882  -7.5495
    -7.3739  -7.2364  -7.2100  -7.0511  -7.0043  -6.8280  -6.7142  -6.5410
    -6.3993  -6.3246  -6.0718  -5.8626  -5.8399  -5.7769  -5.6537  -5.3324
    -5.2994  -5.2074  -5.1519  -5.0970  -4.7954  -4.7609  -4.7125  -4.5470
    -4.4756  -4.4553  -4.4336  -4.2805  -4.2314  -4.1332  -4.0448  -4.0188
    -3.8965  -3.7587  -3.7350  -3.5636  -3.5629  -3.5501  -3.5042  -3.4470
    -3.4429  -3.3704  -3.2922  -3.1417  -3.1359  -3.1054  -3.0055  -2.8876
    -2.8619  -2.7878  -2.5954  -2.5390  -1.2731  -0.7479  -0.3047   0.7789
     0.9763   1.0016   1.3663   1.4297   1.6540   1.9853   2.2443   2.2520
     2.4424   2.4660   2.5605   2.5708   2.7005   2.7383   2.7920   2.8824
     2.8848   3.0228   3.2105   3.2303   3.2814   3.5289   3.6147   4.0746
     4.0917   4.5174   4.5270   4.5835   4.6975   4.8448   4.9627   5.1938
     5.2318   5.2866   5.2881   5.3180   5.4509   5.5549   5.6464   5.7869
     6.1315   6.2266   6.3193   6.5016   6.6650   6.8920   6.9241   6.9448
     6.9972   7.0177   7.2516   7.3284   7.3681   7.9489   7.9580   8.1726
     8.2418   8.2549   8.6039   8.6503   8.7408   8.8525   8.8971   8.9008
     8.9736   9.1435   9.2443   9.3613   9.4641   9.4749   9.5345   9.5542
     9.6293   9.6600   9.7564   9.8189   9.8828   9.9125   9.9377  10.3129
    10.3477  10.3515  10.4542  10.4684  10.6436  10.7162  10.8739  10.9060
    10.9754  11.0348  11.1110  11.1541  11.2720  11.3645  11.3950  11.4035
    11.4598  11.4737  11.4949  11.5062  11.6198  11.7111  11.7617  11.8181
    11.8512  11.9362  12.0894  12.1211  12.1574  12.1869  12.2949  12.3180
    12.5543  12.6739  12.7722  12.9301  12.9867  13.0087  13.0731  13.0903
    13.1269  13.2463  13.2897  13.5153  13.5947  13.6967  13.7203  13.8174
    13.8911  14.0019  14.0286  14.0322  14.1189  14.1525  14.1874  14.4366
    14.6100  14.6876  14.7952  14.8017  14.9008  14.9107  14.9316  14.9329
    14.9702  15.0267  15.1705  15.2583  15.2734  15.3825  15.4577  15.5763
    15.5960  15.6226  15.6726  15.7239  15.7617  15.9170  15.9592  16.0220
    16.1423  16.1536  16.1683  16.2319  16.2551  16.3719  16.5118  16.6290
    16.7165  16.7200  16.7252  16.7857  16.8688  16.8737  16.9274  17.1395
    17.1898  17.2379  17.3579  17.4354  17.5413  17.5521  17.5721  17.6294
    17.7143  17.7494  17.7503  17.9491  18.0660  18.0872  18.2223  18.3060
    18.3829  18.4011  18.4714  18.4934  18.5487  18.5662  18.5769  18.6076
    18.7175  18.8359  18.8632  19.1526  19.1559  19.1990  19.3657  19.4166
    19.4545  19.5737  19.5756  19.6330  19.6718  19.6988  19.7130  19.7402
    19.8332  20.2573  20.2777  20.3022  20.3083

          k = 0.2500 0.0000 0.0000 ( 32181 PWs)   bands (ev):

   -57.1068 -57.0316 -56.3881 -56.3183 -56.2053 -56.1413 -55.8511 -55.7784
   -33.7990 -33.3347 -33.1563 -33.1391 -33.0948 -33.0564 -32.8054 -32.7937
   -32.7415 -32.6906 -32.6618 -32.6081 -32.5705 -32.3630 -32.3117 -32.2209
   -32.1925 -32.0918 -32.0567 -31.9726 -31.9198 -31.8538 -31.6039 -31.5173
   -20.8939 -20.5864 -19.8375 -19.8115 -19.4911 -19.4638 -19.3649 -19.2746
   -19.1334 -18.8236 -18.7807 -18.7493 -18.6355 -18.5478 -18.3409 -18.1980
   -18.1553 -18.1382 -17.1580  -9.5578  -8.9279  -8.0757  -7.9206  -7.8111
    -7.5090  -6.9037  -6.7762  -6.7342  -6.6398  -6.5429  -6.4424  -6.3452
    -6.2595  -6.1635  -5.9711  -5.9616  -5.8663  -5.8023  -5.7511  -5.7001
    -5.5897  -5.1965  -5.0615  -5.0014  -4.9406  -4.8515  -4.7638  -4.6858
    -4.4804  -4.4199  -4.2953  -4.2471  -4.1719  -4.1415  -4.0031  -3.9902
    -3.8961  -3.8651  -3.7338  -3.6933  -3.6600  -3.6169  -3.5770  -3.5517
    -3.4098  -3.3240  -3.2159  -3.1691  -3.1553  -3.1121  -3.0024  -2.9371
    -2.8038  -2.7499  -2.6197  -2.2553  -1.1029  -0.9124  -0.6875   1.0507
     1.2301   1.2507   1.3354   1.6024   1.6408   1.7435   1.7828   1.8366
     1.9345   2.0960   2.1678   2.2377   2.3582   2.4618   2.6016   2.6043
     2.6846   2.7047   3.0291   3.1197   3.4453   3.9163   4.0620   4.1114
     4.1719   4.6406   4.6724   4.7125   4.9078   5.0501   5.1744   5.3141
     5.3252   5.4632   5.6155   5.6255   5.6740   5.7234   5.7961   5.9032
     5.9425   6.1516   6.2294   6.3152   6.4624   6.5763   6.8659   6.9952
     7.2097   7.2657   7.3268   7.3837   7.6608   7.7793   7.8036   7.8379
     7.8659   8.0243   8.0269   8.2129   8.4774   8.5400   8.5519   8.7116
     8.7346   8.9965   9.1483   9.1767   9.2047   9.2795   9.3449   9.4397
     9.4600   9.4999   9.6908   9.8485   9.8922   9.9086   9.9424  10.0446
    10.1158  10.1410  10.2741  10.4907  10.5790  10.6327  10.6370  10.8581
    10.9251  10.9691  11.0374  11.0587  11.0947  11.2314  11.3559  11.5108
    11.5441  11.6141  11.7645  11.7720  11.8442  11.8539  11.9106  11.9786
    12.2394  12.3717  12.4457  12.5235  12.5858  12.5872  12.6446  12.6504
    12.7566  12.9509  13.0937  13.1702  13.2848  13.3201  13.3436  13.4623
    13.4781  13.6775  13.7245  13.7872  13.8212  13.8626  14.0366  14.1263
    14.1291  14.2313  14.2649  14.2835  14.3955  14.4058  14.5779  14.6576
    14.7123  14.7741  14.8177  14.9259  14.9593  15.0018  15.1110  15.2533
    15.3376  15.3567  15.3961  15.4403  15.5554  15.6058  15.6794  15.7817
    15.8056  15.8669  15.9636  16.0053  16.0132  16.1781  16.2718  16.3716
    16.4294  16.4690  16.6102  16.6189  16.6991  16.7523  16.7945  16.8418
    16.9155  16.9311  17.0051  17.0642  17.1385  17.2000  17.2267  17.2855
    17.3814  17.4538  17.5042  17.5632  17.6088  17.7550  17.7759  17.8262
    17.8721  17.9081  18.0208  18.1002  18.1190  18.1956  18.2451  18.3051
    18.3905  18.4914  18.5852  18.5940  18.7046  18.7146  18.8305  18.8529
    18.8842  18.9288  18.9386  19.0383  19.0679  19.0961  19.2303  19.2927
    19.3302  19.3749  19.3882  19.4456  19.5182  19.5448  19.6582  19.7167
    19.7350  19.8372  19.8509  19.9009  19.9226

          k = 0.2500 0.2118 0.0000 ( 32165 PWs)   bands (ev):

   -57.1013 -57.0314 -56.3811 -56.3182 -56.2003 -56.1376 -55.8468 -55.7765
   -33.7962 -33.3335 -33.1560 -33.1388 -33.0964 -33.0557 -32.8011 -32.7903
   -32.7548 -32.6885 -32.6604 -32.6077 -32.5511 -32.3617 -32.3107 -32.2190
   -32.1879 -32.0920 -32.0711 -31.9718 -31.9249 -31.8613 -31.6024 -31.5219
   -20.8885 -20.5820 -19.8343 -19.8025 -19.4381 -19.3043 -19.2760 -19.2492
   -19.2241 -19.1284 -19.0970 -18.5439 -18.3939 -18.3397 -18.3306 -18.2970
   -18.2565 -18.1448 -17.1562  -9.5534  -8.9217  -7.8091  -7.7499  -7.6447
    -7.4502  -7.0625  -6.9256  -6.8390  -6.7316  -6.6795  -6.6006  -6.4246
    -6.3481  -6.3251  -5.9583  -5.9417  -5.9077  -5.8434  -5.5503  -5.3971
    -5.3098  -5.1806  -5.0838  -4.9289  -4.8195  -4.6955  -4.6245  -4.5579
    -4.5269  -4.5002  -4.3966  -4.3618  -4.3351  -4.2439  -4.1851  -4.1492
    -4.0358  -3.9195  -3.8712  -3.8082  -3.7778  -3.6831  -3.5533  -3.5371
    -3.4236  -3.3709  -3.2937  -3.2505  -3.1406  -3.0915  -2.9611  -2.8454
    -2.7902  -2.7488  -2.6432  -2.3186  -0.9302  -0.6059  -0.2636   1.0087
     1.2083   1.2787   1.3259   1.4302   1.5315   1.6429   1.8301   1.9587
     2.0631   2.1416   2.1713   2.3862   2.4523   2.5671   2.6718   2.7832
     2.8063   2.8517   3.0294   3.1745   3.2817   3.7298   4.1140   4.1970
     4.3391   4.4803   4.5652   4.6372   4.8074   4.8508   4.9468   5.1388
     5.2036   5.3049   5.4080   5.5107   5.6029   5.7203   5.8299   5.9766
     6.0954   6.1868   6.4524   6.5318   6.5556   6.5810   6.7751   6.8470
     6.8673   7.0194   7.1898   7.2992   7.4254   7.4634   7.8382   7.9402
     8.0337   8.0625   8.1760   8.2330   8.3199   8.4822   8.6677   8.7120
     8.8142   8.9273   9.0864   9.1455   9.1882   9.2617   9.3550   9.5025
     9.5686   9.6385   9.7669   9.8492   9.9544  10.0316  10.0721  10.1918
    10.2876  10.3739  10.6000  10.7708  10.7898  10.9240  11.0004  11.0312
    11.1237  11.1489  11.2281  11.2864  11.4209  11.4519  11.5142  11.5635
    11.6480  11.7395  11.9191  11.9512  12.0113  12.1125  12.1971  12.2293
    12.2974  12.3888  12.4288  12.5076  12.6410  12.7056  12.7308  12.7757
    12.7866  12.8772  12.9715  13.0082  13.0715  13.1276  13.2276  13.3152
    13.3611  13.4325  13.5424  13.6291  13.7086  13.7609  13.8074  13.8727
    13.9290  13.9637  14.0159  14.1148  14.1868  14.2789  14.4062  14.4317
    14.5306  14.6032  14.6846  14.8151  14.8856  14.9234  15.0420  15.1045
    15.2049  15.2666  15.3063  15.3437  15.3873  15.4526  15.5337  15.5860
    15.6995  15.7164  15.8271  15.8975  15.9194  16.0118  16.0505  16.1303
    16.2036  16.2806  16.3742  16.4016  16.4487  16.4933  16.5928  16.6846
    16.7151  16.7789  16.8676  16.9546  17.0414  17.1095  17.1405  17.2156
    17.2838  17.3442  17.3801  17.4344  17.4883  17.5879  17.6413  17.7286
    17.7759  17.8506  17.9357  17.9860  18.0717  18.1286  18.1872  18.3916
    18.4076  18.4440  18.4776  18.5363  18.6163  18.6775  18.7261  18.7959
    18.8765  18.9343  19.0091  19.0943  19.1624  19.1919  19.2437  19.3405
    19.3654  19.4174  19.4969  19.5484  19.6213  19.6528  19.6717  19.7275
    19.7660  19.8857  19.9225  20.0167  20.0608

          k = 0.2500-0.4237 0.0000 ( 32188 PWs)   bands (ev):

   -57.0958 -57.0311 -56.3741 -56.3182 -56.1953 -56.1338 -55.8426 -55.7746
   -33.7933 -33.3323 -33.1557 -33.1386 -33.0980 -33.0550 -32.7967 -32.7868
   -32.7661 -32.6866 -32.6589 -32.6074 -32.5337 -32.3603 -32.3096 -32.2175
   -32.1829 -32.0963 -32.0810 -31.9715 -31.9302 -31.8687 -31.6009 -31.5266
   -20.8831 -20.5776 -19.8311 -19.7947 -19.4243 -19.4230 -19.2760 -19.2712
   -19.1434 -18.8590 -18.8518 -18.8209 -18.7259 -18.5351 -18.3278 -18.1553
   -18.0827 -18.0499 -17.1545  -9.5490  -8.9153  -7.8009  -7.6002  -7.3441
    -7.1798  -7.1520  -7.0191  -6.8008  -6.6871  -6.6742  -6.5630  -6.4687
    -6.4274  -6.4142  -6.3862  -6.2292  -5.9804  -5.9336  -5.4747  -5.2225
    -5.1429  -5.0111  -4.9432  -4.8730  -4.8213  -4.7024  -4.6797  -4.6329
    -4.5893  -4.5122  -4.4320  -4.3566  -4.3502  -4.3210  -4.2487  -4.1557
    -4.0604  -4.0139  -3.9779  -3.9577  -3.8559  -3.7708  -3.6829  -3.4860
    -3.4197  -3.3847  -3.3071  -3.2394  -3.2154  -3.0436  -2.9510  -2.7510
    -2.7319  -2.7001  -2.5254  -2.5134  -0.9252  -0.2835   0.0222   0.8563
     1.1090   1.2425   1.3477   1.4188   1.5415   1.5893   2.0081   2.0282
     2.1538   2.2368   2.3929   2.4806   2.5642   2.6874   2.8076   2.8173
     2.9835   2.9978   3.0644   3.1691   3.3218   3.4967   3.8781   3.9550
     3.9669   4.2166   4.5932   4.6660   4.8232   4.8557   4.8979   5.0579
     5.1490   5.3096   5.4813   5.5028   5.6893   5.7144   5.8514   5.8567
     5.9122   6.0595   6.1911   6.4890   6.4896   6.5558   6.7625   7.0388
     7.0949   7.1511   7.1952   7.2552   7.4256   7.4800   7.5884   7.7179
     7.8174   7.9801   8.2400   8.2898   8.3929   8.4322   8.4713   8.5111
     8.5948   8.8824   8.9270   8.9304   9.0456   9.3076   9.3205   9.6151
     9.8059   9.9156  10.0769  10.1619  10.2511  10.2879  10.4520  10.4776
    10.7251  10.8441  10.9110  10.9794  11.0910  11.2388  11.2842  11.3212
    11.3501  11.3992  11.4512  11.4730  11.5919  11.6269  11.6864  11.7779
    11.8507  11.8526  11.9084  11.9679  12.0189  12.0229  12.1773  12.1891
    12.2428  12.3161  12.4042  12.4726  12.5602  12.5937  12.6981  12.7686
    12.8291  12.9271  12.9419  12.9645  13.0717  13.0753  13.2026  13.2836
    13.3136  13.3721  13.4262  13.5108  13.5178  13.6526  13.6592  13.6715
    13.7721  13.7970  13.8232  13.9169  13.9677  14.0382  14.0510  14.2539
    14.2927  14.3358  14.3996  14.4896  14.5538  14.7009  14.7500  14.8573
    14.9042  15.1064  15.1247  15.1861  15.1983  15.2672  15.3349  15.4095
    15.4587  15.5382  15.6673  15.7019  15.7473  15.9176  16.0286  16.0987
    16.1676  16.3034  16.3470  16.4273  16.4643  16.5288  16.6933  16.7215
    16.7894  16.8578  16.8709  16.9382  17.0707  17.1031  17.1667  17.2086
    17.2477  17.2648  17.4328  17.4663  17.5973  17.6095  17.6201  17.7154
    17.7314  17.8825  17.9077  17.9637  17.9653  18.0930  18.1163  18.1859
    18.3531  18.3887  18.4607  18.4820  18.4969  18.5301  18.6887  18.7116
    18.7438  18.8176  18.8705  18.8937  18.9646  19.0808  19.1194  19.2230
    19.2862  19.3026  19.3200  19.4208  19.4568  19.4966  19.5597  19.6609
    19.6999  19.7575  19.7867  19.8870  19.9214

          k =-0.5000 0.0000 0.0000 ( 32166 PWs)   bands (ev):

   -57.0714 -57.0604 -56.3306 -56.3247 -56.1568 -56.1430 -55.8091 -55.7915
   -33.4680 -33.4639 -33.2252 -33.2189 -33.1288 -33.1218 -32.7718 -32.7676
   -32.7397 -32.6399 -32.6205 -32.5127 -32.4466 -32.3624 -32.3038 -32.2920
   -32.2495 -32.2190 -32.0668 -31.9955 -31.9869 -31.8433 -31.7645 -31.5316
   -20.8390 -20.5497 -19.6159 -19.5831 -19.2399 -19.1522 -19.1396 -19.1072
   -19.1059 -19.0618 -19.0439 -18.8670 -18.8461 -18.5124 -18.5040 -18.4309
   -18.3441 -18.1706 -17.1533  -9.3422  -8.9917  -7.6559  -7.6457  -7.4156
    -7.1742  -7.1456  -6.9599  -6.9133  -6.7023  -6.5897  -6.3497  -6.3025
    -6.2379  -6.0994  -6.0729  -5.7896  -5.6817  -5.5870  -5.4415  -5.2946
    -5.2569  -5.2495  -5.2233  -5.1522  -5.1009  -4.9942  -4.9019  -4.8136
    -4.7821  -4.7481  -4.4456  -4.3731  -4.3311  -4.3110  -4.3089  -4.1160
    -4.0790  -3.9715  -3.7277  -3.7082  -3.6690  -3.6666  -3.5892  -3.5368
    -3.4777  -3.2802  -3.2188  -3.1505  -3.1239  -3.0540  -3.0345  -2.8494
    -2.8137  -2.6881  -2.6428  -2.4002  -0.4779  -0.0056   0.0640   0.1685
     0.5290   0.9886   1.1250   1.1432   1.5177   1.5285   1.5416   1.9760
     2.0155   2.1700   2.1740   2.2085   2.2246   2.2801   2.3257   2.6890
     2.8388   3.0013   3.1685   3.2993   3.3105   3.5340   3.5915   4.6047
     4.6535   4.7425   4.8400   5.0966   5.1110   5.1794   5.1837   5.2665
     5.2899   5.3310   5.5222   5.5572   5.5668   5.5977   5.7032   5.7103
     5.7519   6.1262   6.2365   6.3520   6.4122   6.5020   6.8146   6.8325
     6.8546   6.9642   7.2790   7.3269   7.3733   7.4933   8.0269   8.0338
     8.0363   8.0894   8.0953   8.2914   8.5252   8.6078   8.6114   8.6574
     8.6845   8.7523   8.8419   8.8780   8.9116   9.0355   9.1882   9.2700
     9.4339   9.5323   9.6929   9.7597   9.8612   9.8845   9.9686  10.0524
    10.1080  10.1353  10.3542  10.3982  10.4940  10.5274  10.6820  10.7487
    10.9105  11.0740  11.1309  11.2442  11.2834  11.3853  11.3889  11.4518
    11.5886  11.7797  11.9460  12.2109  12.2595  12.3860  12.4285  12.5249
    12.5500  12.6998  12.7291  12.7772  12.8017  12.8163  13.0932  13.1304
    13.1341  13.2193  13.2435  13.3425  13.4804  13.6369  13.7900  13.8116
    13.8218  13.9460  13.9626  14.0978  14.1405  14.2155  14.2853  14.3505
    14.3867  14.4717  14.4881  14.4984  14.5428  14.6860  14.7391  14.8243
    14.8550  14.9624  14.9631  14.9807  15.2286  15.3212  15.4254  15.5093
    15.6521  15.6657  15.6771  15.7812  15.7853  15.8240  15.9136  15.9259
    16.0131  16.1063  16.2052  16.2249  16.2299  16.2453  16.3130  16.4026
    16.4450  16.5843  16.6668  16.7735  16.8018  16.8545  16.8901  16.9181
    16.9923  17.0281  17.1252  17.1331  17.1345  17.1587  17.1798  17.2136
    17.2850  17.3213  17.3279  17.3505  17.5256  17.5301  17.5485  17.6180
    17.6503  17.7666  17.7805  17.8063  17.8405  17.8550  17.9011  17.9252
    17.9322  17.9373  18.0038  18.1460  18.2106  18.2291  18.2387  18.3701
    18.3904  18.3967  18.4737  18.6439  18.6784  18.7226  18.7267  18.8270
    18.9202  18.9414  18.9695  18.9850  19.0552  19.1242  19.1477  19.2078
    19.2248  19.3934  19.4118  19.4511  19.4888

          k =-0.5000 0.2118 0.0000 ( 32144 PWs)   bands (ev):

   -57.0671 -57.0592 -56.3275 -56.3215 -56.1519 -56.1384 -55.8059 -55.7881
   -33.4649 -33.4635 -33.2240 -33.2185 -33.1289 -33.1221 -32.7713 -32.7670
   -32.7384 -32.6390 -32.6197 -32.5095 -32.4438 -32.3610 -32.2993 -32.2877
   -32.2491 -32.2187 -32.0640 -32.0059 -31.9971 -31.8499 -31.7600 -31.5379
   -20.8348 -20.5454 -19.6110 -19.5800 -19.2152 -19.1538 -19.1416 -19.1208
   -19.1117 -19.0700 -19.0275 -18.8560 -18.8454 -18.4822 -18.4762 -18.4102
   -18.3680 -18.1612 -17.1514  -9.3376  -8.9861  -7.6259  -7.6213  -7.2309
    -7.1036  -7.0724  -6.9785  -6.9158  -6.7222  -6.6421  -6.4764  -6.2496
    -6.1121  -6.0642  -6.0628  -5.7472  -5.7012  -5.5788  -5.4460  -5.3514
    -5.3321  -5.2864  -5.2474  -5.2100  -5.1865  -5.1721  -5.0074  -4.7906
    -4.7068  -4.6277  -4.5275  -4.4016  -4.3218  -4.2773  -4.2020  -4.1384
    -4.1117  -4.0424  -3.9321  -3.8971  -3.7589  -3.7169  -3.6468  -3.5300
    -3.4660  -3.3667  -3.3100  -3.2636  -3.0853  -3.0356  -2.9940  -2.7969
    -2.6969  -2.6515  -2.6181  -2.4220  -0.4139   0.2928   0.3849   0.4106
     0.5150   0.9562   1.2134   1.4338   1.4721   1.5074   1.6017   1.9150
     1.9321   1.9994   2.0109   2.0640   2.4746   2.4868   2.6399   2.7351
     2.9080   3.0398   3.1150   3.4035   3.4188   3.4391   3.4895   4.4780
     4.5801   4.5932   4.6853   4.7567   4.7758   5.0257   5.0323   5.2648
     5.3155   5.3760   5.4229   5.4902   5.5575   5.8041   5.8770   5.8936
     5.9496   6.0538   6.0705   6.3091   6.4605   6.5929   6.5970   6.7430
     6.8132   6.8559   7.2285   7.3555   7.3779   7.5121   7.5262   7.5750
     7.7000   7.7487   7.9581   7.9753   8.0984   8.2092   8.5719   8.7152
     8.8221   8.8618   8.9661   9.0270   9.0525   9.1709   9.6163   9.6880
     9.7332   9.8720   9.8850  10.0324  10.1351  10.1832  10.2353  10.2793
    10.3449  10.4128  10.5316  10.6261  10.6517  10.7115  10.9068  10.9235
    11.2380  11.3297  11.3708  11.4886  11.5071  11.5782  11.6299  11.7656
    11.8407  11.8753  12.1181  12.1857  12.2770  12.4170  12.5645  12.6008
    12.6453  12.7863  12.8443  12.8495  12.9023  12.9712  13.1963  13.2612
    13.3137  13.3537  13.4112  13.4821  13.5389  13.5868  13.6479  13.7365
    13.7810  13.8065  13.8932  13.9404  13.9603  13.9878  14.1708  14.1813
    14.1912  14.3308  14.3439  14.4475  14.4570  14.5434  14.5512  14.6759
    14.7019  14.7456  14.8245  14.8776  14.9376  14.9791  15.0339  15.0667
    15.1042  15.1218  15.2412  15.2579  15.2917  15.4243  15.5085  15.5820
    15.6461  15.6666  15.7989  15.8104  15.8466  15.9273  15.9510  15.9675
    16.0237  16.0894  16.1210  16.2381  16.2955  16.3365  16.3674  16.4202
    16.4433  16.6393  16.6785  16.8045  16.8639  16.8764  16.9542  17.0082
    17.1205  17.1373  17.1703  17.3498  17.3545  17.3741  17.5193  17.5568
    17.6128  17.6758  17.7239  17.7562  17.8013  17.8635  17.9657  18.0194
    18.0497  18.1303  18.1738  18.3198  18.4237  18.4968  18.5248  18.6818
    18.7197  18.8211  18.8367  18.8676  18.8987  19.0100  19.0356  19.1490
    19.1619  19.2124  19.2363  19.3715  19.4091  19.4555  19.5349  19.6615
    19.7193  19.7808  19.8215  19.9314  19.9838

          k =-0.5000-0.4237 0.0000 ( 32256 PWs)   bands (ev):

   -57.0639 -57.0571 -56.3243 -56.3184 -56.1470 -56.1337 -55.8028 -55.7848
   -33.4638 -33.4611 -33.2229 -33.2179 -33.1294 -33.1221 -32.7707 -32.7664
   -32.7371 -32.6380 -32.6190 -32.5063 -32.4410 -32.3595 -32.2944 -32.2827
   -32.2488 -32.2184 -32.0612 -32.0166 -32.0078 -31.8560 -31.7561 -31.5444
   -20.8306 -20.5412 -19.6062 -19.5769 -19.1861 -19.1559 -19.1512 -19.1343
   -19.1174 -19.0771 -19.0058 -18.8445 -18.8434 -18.4524 -18.4479 -18.3969
   -18.3889 -18.1516 -17.1493  -9.3329  -8.9805  -7.6026  -7.5975  -7.0011
    -6.9776  -6.9728  -6.9448  -6.9150  -6.7503  -6.6742  -6.6388  -6.2496
    -6.0726  -6.0500  -6.0267  -5.7330  -5.7203  -5.6168  -5.4717  -5.4504
    -5.4366  -5.4236  -5.3873  -5.2643  -5.2287  -5.1515  -4.8123  -4.7050
    -4.6755  -4.5463  -4.5130  -4.3654  -4.3610  -4.2877  -4.2346  -4.2319
    -4.2035  -4.0901  -4.0582  -4.0574  -3.9573  -3.9335  -3.6394  -3.5355
    -3.4179  -3.3830  -3.3466  -3.2292  -3.2031  -3.0055  -2.8846  -2.7101
    -2.6475  -2.5644  -2.5569  -2.4964  -0.3933   0.4573   0.4824   0.5888
     0.6624   0.9349   1.3471   1.4111   1.4217   1.7717   1.8652   1.9203
     1.9263   1.9490   1.9526   2.2373   2.6356   2.6784   2.7823   2.8327
     2.8660   3.0344   3.2496   3.2901   3.3438   3.5455   3.5759   3.9543
     4.0741   4.1060   4.2534   4.5881   4.6115   5.0732   5.1620   5.1731
     5.1902   5.5919   5.6017   5.6528   5.6922   5.8897   5.9152   5.9480
     6.0804   6.3243   6.3275   6.3608   6.4110   6.4629   6.4779   6.5484
     6.5851   6.7538   6.7959   6.9191   7.0811   7.2154   7.2335   7.3676
     7.7446   8.0167   8.0345   8.1502   8.1600   8.2568   8.3494   8.3648
     8.8466   8.9763   9.1314   9.1868   9.2840   9.3340   9.3779   9.3961
     9.4476   9.5680   9.7072   9.7551  10.5524  10.7269  10.7678  10.8300
    10.8326  10.8828  10.8944  10.9611  11.1132  11.2658  11.5310  11.6438
    11.6829  11.7043  11.7812  11.8896  11.9380  11.9489  12.0765  12.0937
    12.2110  12.2340  12.3562  12.4357  12.4951  12.5594  12.5688  12.5959
    12.6283  12.6523  12.6893  12.8299  12.8581  12.9079  13.0382  13.0504
    13.0806  13.1133  13.2281  13.2645  13.3583  13.4182  13.4459  13.4528
    13.4965  13.5129  13.5510  13.6072  13.8147  13.8740  13.8965  14.0105
    14.0935  14.0955  14.1285  14.1326  14.2560  14.2754  14.2846  14.3509
    14.3713  14.6123  14.6520  14.6881  14.6941  14.7170  14.7597  14.7619
    14.7680  14.8584  14.9522  15.0778  15.0852  15.1254  15.2085  15.2374
    15.4365  15.4382  15.4466  15.4858  15.5606  15.6254  15.7087  15.7759
    15.8406  15.8642  15.8884  15.9255  16.0315  16.0420  16.0753  16.0839
    16.3412  16.3788  16.6241  16.6587  16.7413  16.7758  16.8690  16.9561
    17.0263  17.0587  17.2021  17.2999  17.3210  17.4199  17.5194  17.5641
    17.5703  17.5708  17.6224  17.6594  17.7466  17.8026  17.8378  18.0378
    18.0531  18.2102  18.3346  18.3649  18.3970  18.5304  18.6425  18.6631
    18.6754  18.9391  18.9706  18.9850  19.0016  19.1179  19.2542  19.5251
    19.5676  19.5754  19.6215  19.6289  19.6478  19.6889  19.7829  19.9443
    19.9533  19.9763  20.2280  20.2516  20.3432

          k =-0.2500 0.2118 0.0000 ( 32165 PWs)   bands (ev):

   -57.1013 -57.0314 -56.3811 -56.3182 -56.2003 -56.1376 -55.8468 -55.7765
   -33.7962 -33.3335 -33.1560 -33.1388 -33.0964 -33.0557 -32.8011 -32.7903
   -32.7548 -32.6885 -32.6604 -32.6077 -32.5512 -32.3617 -32.3107 -32.2190
   -32.1879 -32.0921 -32.0710 -31.9719 -31.9249 -31.8613 -31.6024 -31.5219
   -20.8885 -20.5820 -19.8343 -19.8025 -19.4381 -19.3043 -19.2760 -19.2492
   -19.2241 -19.1283 -19.0970 -18.5439 -18.3938 -18.3397 -18.3306 -18.2970
   -18.2565 -18.1448 -17.1562  -9.5534  -8.9217  -7.8091  -7.7499  -7.6447
    -7.4501  -7.0625  -6.9256  -6.8390  -6.7316  -6.6796  -6.6005  -6.4245
    -6.3481  -6.3251  -5.9582  -5.9418  -5.9077  -5.8434  -5.5503  -5.3970
    -5.3096  -5.1807  -5.0835  -4.9289  -4.8202  -4.6955  -4.6244  -4.5583
    -4.5262  -4.5002  -4.3967  -4.3619  -4.3351  -4.2443  -4.1853  -4.1492
    -4.0358  -3.9194  -3.8714  -3.8073  -3.7782  -3.6827  -3.5538  -3.5368
    -3.4235  -3.3714  -3.2934  -3.2504  -3.1406  -3.0916  -2.9611  -2.8453
    -2.7898  -2.7488  -2.6434  -2.3190  -0.9302  -0.6059  -0.2636   1.0088
     1.2083   1.2785   1.3255   1.4313   1.5309   1.6429   1.8301   1.9588
     2.0631   2.1416   2.1714   2.3861   2.4524   2.5671   2.6717   2.7831
     2.8063   2.8517   3.0294   3.1745   3.2817   3.7297   4.1140   4.1972
     4.3391   4.4804   4.5652   4.6373   4.8073   4.8509   4.9468   5.1388
     5.2036   5.3050   5.4078   5.5107   5.6029   5.7204   5.8299   5.9766
     6.0954   6.1866   6.4522   6.5319   6.5555   6.5809   6.7749   6.8469
     6.8675   7.0193   7.1897   7.2996   7.4256   7.4628   7.8384   7.9404
     8.0337   8.0623   8.1763   8.2340   8.3199   8.4821   8.6676   8.7117
     8.8142   8.9271   9.0862   9.1460   9.1878   9.2617   9.3565   9.5025
     9.5672   9.6381   9.7668   9.8491   9.9543  10.0302  10.0728  10.1920
    10.2885  10.3736  10.5997  10.7708  10.7896  10.9242  11.0008  11.0304
    11.1237  11.1491  11.2279  11.2866  11.4210  11.4514  11.5142  11.5638
    11.6482  11.7399  11.9193  11.9512  12.0113  12.1126  12.1973  12.2290
    12.2975  12.3892  12.4289  12.5081  12.6408  12.7061  12.7313  12.7759
    12.7868  12.8772  12.9717  13.0083  13.0709  13.1266  13.2277  13.3155
    13.3610  13.4322  13.5420  13.6291  13.7084  13.7614  13.8077  13.8728
    13.9291  13.9644  14.0150  14.1145  14.1868  14.2792  14.4057  14.4319
    14.5318  14.6021  14.6848  14.8151  14.8856  14.9237  15.0417  15.1044
    15.2049  15.2666  15.3078  15.3424  15.3876  15.4519  15.5336  15.5855
    15.7003  15.7163  15.8265  15.8981  15.9186  16.0118  16.0502  16.1307
    16.2035  16.2802  16.3743  16.3989  16.4485  16.4936  16.5929  16.6844
    16.7151  16.7794  16.8686  16.9523  17.0409  17.1082  17.1419  17.2164
    17.2845  17.3429  17.3812  17.4342  17.4861  17.5894  17.6456  17.7285
    17.7753  17.8489  17.9357  17.9862  18.0710  18.1288  18.1874  18.3911
    18.4063  18.4442  18.4800  18.5377  18.6152  18.6777  18.7267  18.7954
    18.8755  18.9352  19.0089  19.0946  19.1642  19.1917  19.2432  19.3409
    19.3652  19.4177  19.4965  19.5491  19.6202  19.6536  19.6711  19.7276
    19.7665  19.8850  19.9231  20.0167  20.0607

     the Fermi energy is     0.4187 ev

!    total energy              =   -1557.62313282 Ry
     Harris-Foulkes estimate   =   -1557.62313324 Ry
     estimated scf accuracy    <       0.00000083 Ry

     The total energy is the sum of the following terms:

     one-electron contribution =  -18847.05705619 Ry
     hartree contribution      =    9449.92966154 Ry
     xc contribution           =    -286.99988570 Ry
     ewald contribution        =    8121.76342360 Ry
     Hubbard energy            =       4.74128557 Ry
     smearing contrib. (-TS)   =      -0.00056164 Ry

     convergence has been achieved in  28 iterations

     Forces acting on atoms (Ry/au):


     negative rho (up, down):  0.355E-02 0.000E+00
     atom    1 type  1   force =     0.00523306   -0.00007107   -0.01429132
     atom    2 type  1   force =    -0.00037674    0.00026361   -0.01811980
     atom    3 type  2   force =    -0.05375706   -0.00011828    0.01035297
     atom    4 type  2   force =    -0.00168337    0.00003996    0.00058568
     atom    5 type  1   force =    -0.00538594   -0.01156977    0.00109079
     atom    6 type  1   force =    -0.00539429    0.01158117    0.00109925
     atom    7 type  1   force =    -0.00039763    0.00001492   -0.02123740
     atom    8 type  1   force =     0.00122698    0.00000737    0.02078224
     atom    9 type  2   force =     0.00240690   -0.00000172   -0.01545460
     atom   10 type  2   force =    -0.00078607   -0.00000743    0.01182377
     atom   11 type  1   force =     0.01628387    0.01576758    0.01318790
     atom   12 type  1   force =     0.01627003   -0.01575887    0.01314617
     atom   13 type  1   force =     0.00039243   -0.00000759   -0.00053906
     atom   14 type  1   force =     0.00353601   -0.00007372   -0.01155045
     atom   15 type  1   force =     0.00012112    0.00005587   -0.01447991
     atom   16 type  2   force =     0.05400996   -0.00011725    0.00975374
     atom   17 type  2   force =    -0.00266279    0.00003869   -0.01207355
     atom   18 type  1   force =     0.00605202   -0.01155872    0.00108144
     atom   19 type  1   force =     0.00603108    0.01156617    0.00108891
     atom   20 type  1   force =    -0.00005609    0.00001706    0.00442173
     atom   21 type  1   force =     0.00081702    0.00000533    0.03129414
     atom   22 type  2   force =    -0.00196687    0.00000149   -0.01490134
     atom   23 type  2   force =     0.00196927   -0.00000349   -0.02533653
     atom   24 type  1   force =    -0.01686079    0.01636921    0.01220218
     atom   25 type  1   force =    -0.01687061   -0.01636738    0.01220263
     atom   26 type  1   force =    -0.00016214   -0.00000555   -0.00393584
     atom   27 type  3   force =     0.00002180   -0.00008781    0.00535213
     atom   28 type  3   force =     0.00006638   -0.00000272    0.00496319
     atom   29 type  3   force =    -0.00407244    0.00000722    0.00458491
     atom   30 type  3   force =    -0.00391792    0.00000890    0.00439978
     atom   31 type  1   force =    -0.00008719    0.00000681   -0.01149373

     Total force =     0.072604     Total SCF correction =     0.003381

     BFGS Geometry Optimization

     number of scf cycles    =   1
     number of bfgs steps    =   0

     energy   new            =   -1557.6231328220 Ry

     new trust radius        =       0.0312941443 bohr
     new conv_thr            =       0.0000010000 Ry


ATOMIC_POSITIONS (crystal)
O0       0.000000000   0.000000000   0.371209759    0   0   1
O0       0.000000000   0.500000000   0.388364686    0   0   1
Nb1      0.250000000   0.500000000   0.444783013    0   0   1
Nb1      0.000000000   0.000000000   0.443901485    0   0   1
O0       0.250000000   0.790000000   0.446211389    0   0   1
O0       0.250000000   0.210000000   0.446211555    0   0   1
O0       0.000000000   0.500000000   0.500243552    0   0   1
O0       0.000000000   0.000000000   0.523337522    0   0   1
Nb1      0.250000000   0.000000000   0.576726948    0   0   1
Nb1      0.000000000   0.500000000   0.570291854    0   0   1
O0       0.250000000   0.710000000   0.576588604    0   0   1
O0       0.250000000   0.290000000   0.576597785    0   0   1
O0       0.000000000   0.000000000   0.621299430    0   0   1
O0       0.500000000   0.000000000   0.371813505    0   0   1
O0       0.500000000   0.500000000   0.390526061    0   0   1
Nb1      0.750000000   0.500000000   0.444841263    0   0   1
Nb1      0.500000000   0.000000000   0.444673248    0   0   1
O0       0.750000000   0.790000000   0.446211206    0   0   1
O0       0.750000000   0.210000000   0.446211353    0   0   1
O0       0.500000000   0.500000000   0.495266706    0   0   1
O0       0.500000000   0.000000000   0.523213652    0   0   1
Nb1      0.750000000   0.000000000   0.576867797    0   0   1
Nb1      0.500000000   0.500000000   0.588103172    0   0   1
O0       0.750000000   0.710000000   0.576439275    0   0   1
O0       0.750000000   0.290000000   0.576439283    0   0   1
O0       0.500000000   0.000000000   0.621182821    0   0   1
H2      -0.000488052   0.501533348   0.352534951
H2       0.499495934   0.501449794   0.354677324
H2       0.150095973   0.000370547   0.355629906
H2       0.649289785   0.000370674   0.355896276
O0       0.500022206   0.500000516   0.651994617


     Check: negative starting charge=   -0.003810
     NEW-OLD atomic charge density approx. for the potential

     Check: negative/imaginary core charge=   -0.000003    0.000000
     Check: negative starting charge=   -0.003809

     negative rho (up, down):  0.359E-02 0.000E+00
 Atomic wfc used for LDA+U Projector are NOT orthogonalized

     total cpu time spent up to now is     5650.8 secs

     per-process dynamical memory:   420.6 Mb

     Self-consistent Calculation

     iteration #  1     ecut=    40.00 Ry     beta=0.70
     Davidson diagonalization with overlap
     ethr =  1.00E-06,  avg # of iterations =  4.6
 --- enter write_ns ---
 LDA+U parameters:
U( 2)     =  7.00000000
alpha( 2) =  0.00000000
atom    3   Tr[ns(na)] =   5.14493
    eigenvalues: 
  0.318  0.369  0.548  0.611  0.727
    eigenvectors:
  0.000  0.000  0.021  0.332  0.648
  0.000  0.000  0.964  0.035  0.002
  0.736  0.264  0.000  0.000  0.000
  0.000  0.000  0.016  0.634  0.350
  0.264  0.736  0.000  0.000  0.000
    occupations:
  0.685 -0.013  0.000 -0.056 -0.000
 -0.013  0.551 -0.000 -0.005  0.000
  0.000 -0.000  0.331 -0.000 -0.022
 -0.056 -0.005 -0.000  0.651  0.000
 -0.000  0.000 -0.022  0.000  0.355
atom    4   Tr[ns(na)] =   5.13972
    eigenvalues: 
  0.325  0.356  0.562  0.597  0.731
    eigenvectors:
  0.003  0.000  0.000  0.997  0.000
  0.996  0.000  0.000  0.003  0.001
  0.000  1.000  0.000  0.000  0.000
  0.001  0.000  0.000  0.000  0.999
  0.000  0.000  1.000  0.000  0.000
    occupations:
  0.596  0.015  0.000  0.001 -0.000
  0.015  0.326 -0.000 -0.011  0.000
  0.000 -0.000  0.356  0.000  0.001
  0.001 -0.011  0.000  0.730  0.000
 -0.000  0.000  0.001  0.000  0.562
atom    9   Tr[ns(na)] =   5.21857
    eigenvalues: 
  0.404  0.452  0.478  0.636  0.640
    eigenvectors:
  0.000  0.863  0.000  0.001  0.137
  0.000  0.000  0.000  0.996  0.004
  0.999  0.000  0.001  0.000  0.000
  0.000  0.137  0.000  0.004  0.859
  0.001  0.000  0.999  0.000  0.000
    occupations:
  0.478 -0.000  0.000  0.065 -0.000
 -0.000  0.636 -0.000 -0.000 -0.000
  0.000 -0.000  0.404  0.000  0.003
  0.065 -0.000  0.000  0.614 -0.000
 -0.000 -0.000  0.003 -0.000  0.478
atom   10   Tr[ns(na)] =   4.97370
    eigenvalues: 
  0.285  0.305  0.505  0.541  0.850
    eigenvectors:
  0.000  0.000  0.998  0.000  0.002
  0.000  1.000  0.000  0.000  0.000
  1.000  0.000  0.000  0.000  0.000
  0.000  0.000  0.002  0.000  0.998
  0.000  0.000  0.000  1.000  0.000
    occupations:
  0.506  0.000  0.000  0.013 -0.000
  0.000  0.306 -0.000  0.007  0.000
  0.000 -0.000  0.285 -0.000 -0.001
  0.013  0.007 -0.000  0.850  0.000
 -0.000  0.000 -0.001  0.000  0.541
atom   16   Tr[ns(na)] =   5.14514
    eigenvalues: 
  0.317  0.370  0.548  0.611  0.726
    eigenvectors:
  0.000  0.000  0.021  0.333  0.646
  0.000  0.000  0.964  0.034  0.002
  0.729  0.271  0.000  0.000  0.000
  0.000  0.000  0.015  0.633  0.352
  0.271  0.729  0.000  0.000  0.000
    occupations:
  0.684  0.013  0.000 -0.056  0.000
  0.013  0.551  0.000  0.005  0.000
  0.000  0.000  0.332 -0.000  0.023
 -0.056  0.005 -0.000  0.651 -0.000
  0.000  0.000  0.023 -0.000  0.356
atom   17   Tr[ns(na)] =   5.13683
    eigenvalues: 
  0.326  0.354  0.559  0.599  0.730
    eigenvectors:
  0.003  0.000  0.000  0.997  0.000
  0.996  0.000  0.000  0.003  0.001
  0.000  1.000  0.000  0.000  0.000
  0.001  0.000  0.000  0.000  0.999
  0.000  0.000  1.000  0.000  0.000
    occupations:
  0.598  0.015  0.000  0.001 -0.000
  0.015  0.327 -0.000 -0.011  0.000
  0.000 -0.000  0.354  0.000  0.001
  0.001 -0.011  0.000  0.730  0.000
 -0.000  0.000  0.001  0.000  0.559
atom   22   Tr[ns(na)] =   5.21943
    eigenvalues: 
  0.404  0.452  0.478  0.636  0.640
    eigenvectors:
  0.000  0.864  0.000  0.000  0.136
  0.000  0.000  0.000  0.997  0.003
  0.999  0.000  0.001  0.000  0.000
  0.000  0.136  0.000  0.003  0.861
  0.001  0.000  0.999  0.000  0.000
    occupations:
  0.478  0.000 -0.000  0.064 -0.000
  0.000  0.636  0.000  0.000  0.000
 -0.000  0.000  0.404  0.000 -0.002
  0.064  0.000  0.000  0.614  0.000
 -0.000  0.000 -0.002  0.000  0.478
atom   23   Tr[ns(na)] =   5.30555
    eigenvalues: 
  0.488  0.489  0.523  0.531  0.622
    eigenvectors:
  0.001  0.000  0.000  0.000  0.999
  0.000  0.000  1.000  0.000  0.000
  0.000  1.000  0.000  0.000  0.000
  0.998  0.000  0.000  0.000  0.001
  0.000  0.000  0.000  1.000  0.000
    occupations:
  0.622 -0.000 -0.000  0.005 -0.000
 -0.000  0.523 -0.000 -0.001  0.000
 -0.000 -0.000  0.489 -0.000  0.000
  0.005 -0.001 -0.000  0.488 -0.000
 -0.000  0.000  0.000 -0.000  0.531
N of occupied +U levels =  41.2838716
 --- exit write_ns ---

     negative rho (up, down):  0.354E-02 0.000E+00

     total cpu time spent up to now is     5965.5 secs

     total energy              =   -1557.62463606 Ry
     Harris-Foulkes estimate   =   -1557.62686981 Ry
     estimated scf accuracy    <       0.00313652 Ry

     iteration #  2     ecut=    40.00 Ry     beta=0.70
     Davidson diagonalization with overlap
     ethr =  1.41E-06,  avg # of iterations =  5.9

     negative rho (up, down):  0.359E-02 0.000E+00

     total cpu time spent up to now is     6203.3 secs

     total energy              =   -1557.62252270 Ry
     Harris-Foulkes estimate   =   -1557.62990498 Ry
     estimated scf accuracy    <       0.02861056 Ry

     iteration #  3     ecut=    40.00 Ry     beta=0.70
     Davidson diagonalization with overlap
     ethr =  1.41E-06,  avg # of iterations =  6.7

     negative rho (up, down):  0.361E-02 0.000E+00

     total cpu time spent up to now is     6415.8 secs

     total energy              =   -1557.62514336 Ry
     Harris-Foulkes estimate   =   -1557.62723123 Ry
     estimated scf accuracy    <       0.01123985 Ry

     iteration #  4     ecut=    40.00 Ry     beta=0.70
     Davidson diagonalization with overlap
     ethr =  1.41E-06,  avg # of iterations =  4.9

     negative rho (up, down):  0.357E-02 0.000E+00

     total cpu time spent up to now is     6616.0 secs

     total energy              =   -1557.62607205 Ry
     Harris-Foulkes estimate   =   -1557.62648004 Ry
     estimated scf accuracy    <       0.00207978 Ry

     iteration #  5     ecut=    40.00 Ry     beta=0.70
     Davidson diagonalization with overlap
     ethr =  9.37E-07,  avg # of iterations =  2.0

     negative rho (up, down):  0.355E-02 0.000E+00

     total cpu time spent up to now is     6788.0 secs

     total energy              =   -1557.62627368 Ry
     Harris-Foulkes estimate   =   -1557.62639362 Ry
     estimated scf accuracy    <       0.00057854 Ry

     iteration #  6     ecut=    40.00 Ry     beta=0.70
     Davidson diagonalization with overlap
     ethr =  2.61E-07,  avg # of iterations =  1.0

     negative rho (up, down):  0.355E-02 0.000E+00

     total cpu time spent up to now is     6953.1 secs

     total energy              =   -1557.62631557 Ry
     Harris-Foulkes estimate   =   -1557.62634568 Ry
     estimated scf accuracy    <       0.00010047 Ry

     iteration #  7     ecut=    40.00 Ry     beta=0.70
     Davidson diagonalization with overlap
     ethr =  4.53E-08,  avg # of iterations =  1.0

     negative rho (up, down):  0.355E-02 0.000E+00

     total cpu time spent up to now is     7125.2 secs

     total energy              =   -1557.62633309 Ry
     Harris-Foulkes estimate   =   -1557.62634153 Ry
     estimated scf accuracy    <       0.00006057 Ry

     iteration #  8     ecut=    40.00 Ry     beta=0.70
     Davidson diagonalization with overlap
     ethr =  2.73E-08,  avg # of iterations =  1.0

     negative rho (up, down):  0.354E-02 0.000E+00

     total cpu time spent up to now is     7296.9 secs

     total energy              =   -1557.62633766 Ry
     Harris-Foulkes estimate   =   -1557.62633985 Ry
     estimated scf accuracy    <       0.00001481 Ry

     iteration #  9     ecut=    40.00 Ry     beta=0.70
     Davidson diagonalization with overlap
     ethr =  6.67E-09,  avg # of iterations =  2.0

     negative rho (up, down):  0.355E-02 0.000E+00

     total cpu time spent up to now is     7470.7 secs

     total energy              =   -1557.62633970 Ry
     Harris-Foulkes estimate   =   -1557.62634054 Ry
     estimated scf accuracy    <       0.00000631 Ry

     iteration # 10     ecut=    40.00 Ry     beta=0.70
     Davidson diagonalization with overlap
     ethr =  2.84E-09,  avg # of iterations =  1.2

     negative rho (up, down):  0.355E-02 0.000E+00

     total cpu time spent up to now is     7644.0 secs

     total energy              =   -1557.62634038 Ry
     Harris-Foulkes estimate   =   -1557.62634120 Ry
     estimated scf accuracy    <       0.00000576 Ry

     iteration # 11     ecut=    40.00 Ry     beta=0.70
     Davidson diagonalization with overlap
     ethr =  2.59E-09,  avg # of iterations =  1.1

     negative rho (up, down):  0.354E-02 0.000E+00

     total cpu time spent up to now is     7816.3 secs

     End of self-consistent calculation
 --- enter write_ns ---
 LDA+U parameters:
U( 2)     =  7.00000000
alpha( 2) =  0.00000000
atom    3   Tr[ns(na)] =   5.14443
    eigenvalues: 
  0.319  0.369  0.549  0.612  0.724
    eigenvectors:
  0.000  0.000  0.018  0.332  0.650
  0.000  0.000  0.966  0.033  0.001
  0.744  0.256  0.000  0.000  0.000
[...]
     0.3517   1.1238   1.1962   1.2370   1.5188   1.5554   1.6200   1.8512
     1.9308   2.0714   2.0788   2.1402   2.1656   2.1941   2.2141   2.5745
     2.8639   2.8886   3.0014   3.2244   3.2601   3.4327   3.5317   4.4700
     4.5013   4.6633   4.7651   5.0630   5.1151   5.2084   5.2354   5.2902
     5.2972   5.3170   5.3830   5.3844   5.5512   5.5963   5.6139   5.6915
     5.7262   6.1667   6.2603   6.3461   6.4358   6.6050   6.7454   6.7707
     6.7899   7.0380   7.2669   7.2813   7.4077   7.4643   8.0088   8.0178
     8.0762   8.0819   8.1541   8.2788   8.4886   8.5978   8.6530   8.6655
     8.6988   8.7599   8.8350   8.9429   8.9689   9.0899   9.1000   9.2514
     9.4202   9.5546   9.6971   9.7055   9.8420   9.8546   9.9623  10.0573
    10.1008  10.1692  10.2676  10.3607  10.4627  10.5481  10.6017  10.6791
    10.9714  11.0192  11.0731  11.1893  11.2916  11.3686  11.4038  11.4178
    11.5659  11.7142  11.9155  12.1277  12.2634  12.3961  12.4355  12.4819
    12.5220  12.6769  12.6842  12.7537  12.7779  12.7882  13.0894  13.0918
    13.1228  13.2221  13.2478  13.3221  13.4588  13.7234  13.7455  13.7869
    13.8258  13.9390  13.9551  14.0185  14.1486  14.2105  14.2579  14.3188
    14.3437  14.4486  14.5251  14.5447  14.5601  14.6658  14.7992  14.8266
    14.8546  14.8941  14.9631  15.0256  15.2031  15.2978  15.4031  15.4918
    15.6395  15.6510  15.6541  15.7684  15.8019  15.8411  15.8838  15.9825
    16.0668  16.1185  16.1469  16.1851  16.2038  16.3035  16.3382  16.4346
    16.4479  16.5629  16.6872  16.8120  16.8141  16.8345  16.9008  16.9029
    16.9465  17.0507  17.1070  17.1219  17.1504  17.1764  17.2127  17.2762
    17.2934  17.3458  17.3743  17.3833  17.5093  17.5604  17.5848  17.6178
    17.6829  17.7452  17.7527  17.8001  17.8568  17.8684  17.9194  17.9493
    17.9746  17.9906  18.0946  18.1666  18.1904  18.2145  18.2466  18.3561
    18.3886  18.4321  18.4548  18.6299  18.6561  18.7215  18.7329  18.8264
    18.9329  18.9636  18.9684  18.9802  19.0502  19.1470  19.1788  19.2091
    19.2274  19.3799  19.4115  19.4676  19.4737

          k =-0.5000 0.2118 0.0000 ( 32144 PWs)   bands (ev):

   -56.9588 -56.8238 -56.4736 -56.4261 -56.4190 -56.3612 -55.8697 -55.8230
   -33.3612 -33.2963 -33.0983 -33.0353 -33.0052 -32.9270 -32.8955 -32.8860
   -32.8525 -32.8059 -32.7388 -32.6241 -32.5692 -32.5487 -32.5069 -32.3701
   -32.3440 -32.3091 -32.2718 -32.2153 -32.0981 -31.8989 -31.7551 -31.6986
   -20.8866 -20.5880 -19.7091 -19.6807 -19.3107 -19.3066 -19.1652 -19.1134
   -19.0745 -19.0456 -18.9316 -18.8441 -18.8144 -18.6683 -18.6605 -18.4840
   -18.3435 -18.2897 -17.0715  -9.3761  -9.0260  -7.6733  -7.6401  -7.2410
    -7.2296  -7.1033  -6.9892  -6.8447  -6.7546  -6.6466  -6.5574  -6.2713
    -6.2436  -6.1983  -6.0377  -5.7267  -5.6720  -5.6013  -5.5099  -5.4516
    -5.4460  -5.3918  -5.3369  -5.2780  -5.1592  -5.1131  -5.0602  -4.8489
    -4.7963  -4.6989  -4.5097  -4.4662  -4.3539  -4.2889  -4.2671  -4.2085
    -4.1381  -4.0545  -4.0270  -3.9473  -3.7857  -3.7461  -3.7072  -3.5566
    -3.4615  -3.4316  -3.3177  -3.2490  -3.1489  -3.0459  -2.9709  -2.9194
    -2.7775  -2.6767  -2.5283  -2.4504  -0.4810   0.0711   0.1831   0.2309
     0.3726   1.1373   1.2737   1.4218   1.4651   1.5461   1.5879   1.8709
     1.9303   2.0134   2.0577   2.0806   2.3167   2.3371   2.5103   2.6139
     2.7960   2.9481   3.0370   3.3211   3.3452   3.3701   3.4359   4.4018
     4.4248   4.5369   4.5843   4.6558   4.7526   4.9497   4.9672   5.2003
     5.2765   5.4202   5.4374   5.4716   5.5019   5.8323   5.8602   5.9121
     5.9851   6.0079   6.0424   6.3495   6.4342   6.5856   6.6341   6.7600
     6.7840   6.9256   7.2578   7.3678   7.3833   7.4803   7.5547   7.6033
     7.6664   7.7821   7.9251   7.9373   8.0887   8.2218   8.5552   8.6732
     8.7996   8.8563   8.8892   8.9819   9.0671   9.1253   9.6099   9.6730
     9.7046   9.8367   9.9148  10.0162  10.1497  10.2063  10.2238  10.2693
    10.3460  10.4040  10.4800  10.6142  10.6784  10.7401  10.8731  10.8947
    11.1860  11.3252  11.3407  11.4186  11.4934  11.5415  11.5876  11.7594
    11.8441  11.8753  12.0754  12.2052  12.2361  12.4026  12.5354  12.5780
    12.6264  12.7396  12.7752  12.8628  12.9063  12.9805  13.1164  13.2561
    13.2933  13.3674  13.3849  13.4397  13.4902  13.5523  13.6328  13.7096
    13.7434  13.7963  13.9029  13.9150  13.9832  14.0171  14.1595  14.1785
    14.1945  14.3285  14.3415  14.4260  14.4605  14.5364  14.5633  14.6877
    14.7273  14.7808  14.8547  14.9218  14.9532  14.9943  15.0394  15.0504
    15.0765  15.1432  15.2418  15.2931  15.3324  15.4282  15.4960  15.5626
    15.6114  15.6541  15.7970  15.8128  15.8771  15.9211  15.9310  15.9635
    15.9968  16.1144  16.1740  16.2462  16.2553  16.3087  16.3933  16.4280
    16.4564  16.6481  16.6860  16.8048  16.8593  16.9471  16.9831  17.0230
    17.1465  17.1565  17.1652  17.3425  17.3740  17.3877  17.5424  17.5542
    17.6454  17.6590  17.7334  17.7958  17.8365  17.8564  17.9772  18.0058
    18.0443  18.1175  18.1751  18.3550  18.4284  18.5019  18.5124  18.6803
    18.7010  18.8046  18.8522  18.8691  18.9326  19.0028  19.0486  19.1681
    19.1775  19.2363  19.2570  19.3727  19.4157  19.4270  19.5393  19.6546
    19.7326  19.7648  19.8336  19.9137  19.9195

          k =-0.5000-0.4237 0.0000 ( 32256 PWs)   bands (ev):

   -56.9570 -56.8222 -56.4705 -56.4229 -56.4143 -56.3566 -55.8665 -55.8200
   -33.3603 -33.2944 -33.0975 -33.0350 -33.0042 -32.9265 -32.8951 -32.8854
   -32.8518 -32.8052 -32.7364 -32.6179 -32.5647 -32.5448 -32.5044 -32.3693
   -32.3433 -32.3089 -32.2834 -32.2264 -32.0947 -31.9059 -31.7621 -31.6947
   -20.8824 -20.5840 -19.7048 -19.6773 -19.3235 -19.3189 -19.1254 -19.1212
   -19.0944 -19.0458 -18.9396 -18.8342 -18.8141 -18.6368 -18.6306 -18.4702
   -18.3454 -18.2702 -17.0691  -9.3713  -9.0203  -7.6431  -7.6051  -7.1657
    -7.1623  -6.9885  -6.9159  -6.8352  -6.7702  -6.7285  -6.6112  -6.2459
    -6.2086  -6.1662  -5.9740  -5.7336  -5.7129  -5.6696  -5.5646  -5.5531
    -5.5166  -5.4952  -5.4483  -5.2045  -5.2038  -5.1712  -4.8800  -4.7523
    -4.6758  -4.6250  -4.5010  -4.4860  -4.3939  -4.3869  -4.3714  -4.2802
    -4.2615  -4.1700  -4.1361  -4.0630  -3.9602  -3.8383  -3.7010  -3.5769
    -3.4687  -3.3818  -3.3590  -3.2229  -3.1407  -3.0863  -2.8863  -2.7430
    -2.7319  -2.7171  -2.4997  -2.4572  -0.4580   0.0744   0.3586   0.4163
     0.4631   1.2660   1.2906   1.3087   1.3493   1.7738   1.8450   1.9220
     2.0396   2.0466   2.0648   2.2732   2.4715   2.5004   2.6555   2.7059
     2.7396   2.8727   3.1277   3.2880   3.3018   3.4717   3.5181   3.8633
     3.9268   4.0078   4.2650   4.5046   4.5180   4.9521   5.0894   5.1971
     5.2262   5.5451   5.6010   5.6026   5.6619   5.8835   5.9053   5.9139
     5.9792   6.3423   6.3678   6.4125   6.4634   6.4868   6.5323   6.5464
     6.5753   6.8530   6.8566   6.9447   7.0895   7.2240   7.2455   7.3405
     7.7599   7.9777   8.0366   8.1269   8.1284   8.2008   8.2836   8.3047
     8.8016   8.9009   9.0692   9.1981   9.2169   9.3081   9.3651   9.3795
     9.4577   9.5343   9.6942   9.7529  10.5357  10.6531  10.7200  10.7961
    10.8025  10.8326  10.9352  10.9684  11.0797  11.2427  11.6284  11.6395
    11.6495  11.8060  11.8382  11.8678  11.9198  11.9935  12.0103  12.0987
    12.1265  12.1865  12.2970  12.4491  12.4621  12.5214  12.5510  12.5926
    12.6463  12.6496  12.6792  12.7445  12.8123  12.9235  13.0012  13.0175
    13.0429  13.1405  13.1806  13.2443  13.3676  13.3692  13.4097  13.4178
    13.4881  13.5217  13.5843  13.5897  13.8429  13.8769  13.9506  13.9645
    14.0559  14.0694  14.1123  14.1174  14.2584  14.2882  14.3237  14.3423
    14.4658  14.5940  14.6286  14.6883  14.7029  14.7375  14.7558  14.7801
    14.7986  14.8315  14.9574  15.0613  15.0683  15.0929  15.2149  15.2745
    15.4418  15.4566  15.4813  15.5243  15.6031  15.6445  15.7449  15.7595
    15.8248  15.8779  15.8954  15.9038  16.0479  16.0684  16.0865  16.1149
    16.3214  16.3338  16.6343  16.7045  16.7588  16.7992  16.8616  16.8915
    17.0278  17.0811  17.2395  17.2586  17.3519  17.3690  17.5151  17.5514
    17.5732  17.6023  17.6255  17.7028  17.7821  17.7995  17.8475  18.0374
    18.1317  18.1932  18.3186  18.4060  18.4366  18.5744  18.6147  18.6601
    18.6849  18.9359  18.9603  18.9920  18.9967  19.1047  19.3464  19.5492
    19.5563  19.5864  19.5893  19.6312  19.6565  19.6727  19.7372  19.9258
    19.9462  19.9617  20.2282  20.2352  20.3285

          k =-0.2500 0.2118 0.0000 ( 32165 PWs)   bands (ev):

   -56.9706 -56.8184 -56.5144 -56.4559 -56.4354 -56.3705 -55.8879 -55.8302
   -33.6665 -33.1804 -33.0419 -32.9535 -32.9482 -32.9186 -32.9076 -32.8829
   -32.8717 -32.8616 -32.8013 -32.7832 -32.7207 -32.4187 -32.3446 -32.3212
   -32.3096 -32.2246 -32.2053 -32.1922 -32.1627 -31.9235 -31.7254 -31.5609
   -20.9375 -20.6209 -19.8691 -19.8097 -19.4882 -19.4347 -19.4206 -19.3730
   -19.2355 -19.1231 -19.0401 -18.5786 -18.4865 -18.4771 -18.3571 -18.3178
   -18.2559 -18.2000 -17.0762  -9.5782  -8.9757  -7.9137  -7.8806  -7.6244
    -7.4243  -7.0951  -6.9673  -6.7976  -6.7450  -6.7194  -6.6359  -6.4091
    -6.3806  -6.3315  -6.1213  -6.0022  -5.9347  -5.8545  -5.6458  -5.4461
    -5.3830  -5.2226  -5.1234  -5.0416  -4.8560  -4.7325  -4.6435  -4.6270
    -4.5812  -4.4957  -4.4567  -4.4012  -4.3618  -4.2681  -4.2417  -4.1983
    -4.0609  -3.9557  -3.9187  -3.8342  -3.7879  -3.7135  -3.6258  -3.6092
    -3.4563  -3.3859  -3.3311  -3.2267  -3.1934  -3.0844  -2.9951  -2.9329
    -2.8753  -2.7029  -2.6245  -2.3526  -1.0507  -0.7900  -0.3672   1.1004
     1.1759   1.2718   1.3373   1.4024   1.4414   1.7039   1.7419   1.9392
     1.9703   2.0816   2.2149   2.2518   2.3672   2.5240   2.6287   2.6519
     2.7105   2.7693   2.9619   3.1282   3.1765   3.6242   4.0391   4.1351
     4.2311   4.3779   4.5379   4.5835   4.7659   4.8166   4.9366   5.0223
     5.1495   5.2442   5.4029   5.5020   5.5847   5.7167   5.9268   5.9870
     6.0193   6.1803   6.4384   6.5253   6.5559   6.5654   6.7814   6.8085
     6.8637   7.0355   7.2080   7.2835   7.4466   7.4982   7.8294   7.9129
     8.0363   8.0540   8.1568   8.1957   8.2471   8.5353   8.6114   8.7074
     8.8232   8.9152   9.0153   9.1082   9.1780   9.2829   9.3330   9.5132
     9.5382   9.6065   9.7662   9.8518   9.9123  10.0132  10.0748  10.1753
    10.2675  10.3870  10.5876  10.7447  10.7707  10.9122  10.9735  11.0214
    11.1294  11.1641  11.2422  11.2921  11.3913  11.4487  11.5241  11.5522
    11.6686  11.7591  11.8950  11.9353  11.9944  12.1166  12.1452  12.2324
    12.3027  12.3631  12.4278  12.4799  12.6206  12.6724  12.7105  12.7403
    12.7841  12.8699  12.9596  13.0092  13.0672  13.0987  13.2407  13.3010
    13.3535  13.4179  13.5258  13.6382  13.7092  13.7533  13.8333  13.8710
    13.9561  13.9743  14.0127  14.1425  14.1793  14.2958  14.3407  14.4218
    14.4665  14.5985  14.6599  14.7874  14.9128  14.9297  15.0497  15.1133
    15.2288  15.2609  15.2793  15.3448  15.4116  15.4673  15.5267  15.5917
    15.6765  15.7013  15.8007  15.8654  15.9136  15.9674  16.0592  16.1062
    16.1989  16.2919  16.3852  16.3990  16.4497  16.5139  16.5759  16.6734
    16.7418  16.7664  16.8685  16.9482  17.0585  17.0969  17.1704  17.2450
    17.2739  17.3477  17.3649  17.4509  17.4861  17.5823  17.6369  17.7276
    17.7479  17.8822  17.9687  18.0025  18.0979  18.1461  18.1978  18.3482
    18.3805  18.4441  18.4787  18.5450  18.6240  18.6665  18.7098  18.8002
    18.8600  18.9231  18.9812  19.0894  19.1479  19.1863  19.2339  19.3470
    19.3748  19.4111  19.4794  19.5409  19.5909  19.6395  19.6579  19.6907
    19.7619  19.8740  19.9253  19.9991  20.0675

     the Fermi energy is     0.2090 ev

!    total energy              =   -1557.63387468 Ry
     Harris-Foulkes estimate   =   -1557.63387468 Ry
     estimated scf accuracy    <          4.6E-09 Ry

     The total energy is the sum of the following terms:

     one-electron contribution =  -18836.76351417 Ry
     hartree contribution      =    9444.38907750 Ry
     xc contribution           =    -286.97439201 Ry
     ewald contribution        =    8116.98485300 Ry
     Hubbard energy            =       4.73003410 Ry
     smearing contrib. (-TS)   =       0.00006691 Ry

     convergence has been achieved in  12 iterations

     Forces acting on atoms (Ry/au):


     negative rho (up, down):  0.364E-02 0.000E+00
     atom    1 type  1   force =     0.00109886   -0.00001317    0.00008166
     atom    2 type  1   force =    -0.00194765    0.00015087   -0.00020562
     atom    3 type  2   force =    -0.05731524   -0.00008969    0.00000812
     atom    4 type  2   force =    -0.00327049    0.00002035   -0.00007736
     atom    5 type  1   force =    -0.00519068   -0.00474106    0.00019044
     atom    6 type  1   force =    -0.00525397    0.00476534    0.00019285
     atom    7 type  1   force =    -0.00008121   -0.00005816    0.00041232
     atom    8 type  1   force =     0.01240684    0.00000320   -0.00096556
     atom    9 type  2   force =     0.00589518    0.00000342   -0.00047275
     atom   10 type  2   force =    -0.00738038   -0.00001559    0.00073259
     atom   11 type  1   force =     0.00326312    0.00456632   -0.00009133
     atom   12 type  1   force =     0.00326461   -0.00456181   -0.00009034
     atom   13 type  1   force =    -0.00726836   -0.00000141   -0.00023428
     atom   14 type  1   force =     0.00053589   -0.00013499    0.00014964
     atom   15 type  1   force =     0.00087315   -0.00010527    0.00023332
     atom   16 type  2   force =     0.05933132   -0.00005678    0.00022090
     atom   17 type  2   force =    -0.00095574    0.00005595    0.00012275
     atom   18 type  1   force =     0.00602606   -0.00549194    0.00013175
     atom   19 type  1   force =     0.00603961    0.00551580    0.00013152
     atom   20 type  1   force =    -0.00410524    0.00006036    0.00001399
     atom   21 type  1   force =    -0.01161320   -0.00000369    0.00051535
     atom   22 type  2   force =     0.00197616   -0.00000328    0.00010843
     atom   23 type  2   force =     0.03520665   -0.00000477   -0.00012607
     atom   24 type  1   force =    -0.01725684    0.02312610    0.00006134
     atom   25 type  1   force =    -0.01725392   -0.02312161    0.00006039
     atom   26 type  1   force =     0.00349800    0.00000069    0.00016585
     atom   27 type  3   force =    -0.00000220   -0.00005819   -0.00027327
     atom   28 type  3   force =    -0.00000582    0.00019656    0.00022139
     atom   29 type  3   force =    -0.00037726   -0.00001008   -0.00048160
     atom   30 type  3   force =    -0.00043216    0.00000627   -0.00059700
     atom   31 type  1   force =     0.00029492    0.00000028   -0.00013940

     Total force =     0.001938     Total SCF correction =     0.000114

     bfgs converged in  37 scf cycles and  36 bfgs steps
     (criteria: energy < 0.10E-03, force < 0.10E-02)

     End of BFGS Geometry Optimization

     Final energy   =   -1557.6338746795 Ry
Begin final coordinates

ATOMIC_POSITIONS (crystal)
O0       0.000000000   0.000000000   0.371316536    0   0   1
O0       0.000000000   0.500000000   0.387925357    0   0   1
Nb1      0.250000000   0.500000000   0.444371825    0   0   1
Nb1      0.000000000   0.000000000   0.444213807    0   0   1
O0       0.250000000   0.790000000   0.446213275    0   0   1
O0       0.250000000   0.210000000   0.446217875    0   0   1
O0       0.000000000   0.500000000   0.499794983    0   0   1
O0       0.000000000   0.000000000   0.523735990    0   0   1
Nb1      0.250000000   0.000000000   0.576652682    0   0   1
Nb1      0.000000000   0.500000000   0.570956145    0   0   1
O0       0.250000000   0.710000000   0.582251725    0   0   1
O0       0.250000000   0.290000000   0.582251668    0   0   1
O0       0.000000000   0.000000000   0.621588705    0   0   1
O0       0.500000000   0.000000000   0.371370440    0   0   1
O0       0.500000000   0.500000000   0.390155691    0   0   1
Nb1      0.750000000   0.500000000   0.444635545    0   0   1
Nb1      0.500000000   0.000000000   0.444457326    0   0   1
O0       0.750000000   0.790000000   0.446123916    0   0   1
O0       0.750000000   0.210000000   0.446126049    0   0   1
O0       0.500000000   0.500000000   0.495715393    0   0   1
O0       0.500000000   0.000000000   0.523697601    0   0   1
Nb1      0.750000000   0.000000000   0.578109645    0   0   1
Nb1      0.500000000   0.500000000   0.585918869    0   0   1
O0       0.750000000   0.710000000   0.572689550    0   0   1
O0       0.750000000   0.290000000   0.572689983    0   0   1
O0       0.500000000   0.000000000   0.621394989    0   0   1
H2      -0.000239570   0.501062245   0.351748916
H2       0.499717339   0.502986195   0.354042936
H2       0.152040510   0.000667085   0.356314357
H2       0.652094641   0.000753555   0.356415672
O0       0.521979544   0.500001998   0.649192550
End final coordinates



     init_run     :    109.62s CPU    113.26s WALL (       1 calls)
     electrons    : 120466.67s CPU 123911.07s WALL (      37 calls)
     update_pot   :    783.85s CPU    812.23s WALL (      36 calls)
     forces       :   4908.56s CPU   4997.06s WALL (      37 calls)

     Called by init_run:
     wfcinit      :     36.56s CPU     37.68s WALL (       1 calls)
     potinit      :      8.03s CPU      8.16s WALL (       1 calls)

     Called by electrons:
     c_bands      :  62859.17s CPU  64672.64s WALL (     692 calls)
     sum_band     :  24302.08s CPU  24998.19s WALL (     692 calls)
     v_of_rho     :    755.74s CPU    798.00s WALL (     705 calls)
     newd         :  33719.68s CPU  33993.13s WALL (     705 calls)
     mix_rho      :    130.52s CPU    134.73s WALL (     692 calls)

     Called by c_bands:
     init_us_2    :    159.06s CPU    160.78s WALL (    4488 calls)
     cegterg      :  61964.38s CPU  63529.00s WALL (    2076 calls)

     Called by *egterg:
     h_psi        :  36042.26s CPU  36908.35s WALL (    5614 calls)
     s_psi        :   3993.04s CPU   4051.87s WALL (    5836 calls)
     g_psi        :     85.58s CPU     85.86s WALL (    3535 calls)
     cdiaghg      :   4793.91s CPU   4817.38s WALL (    5431 calls)

     Called by h_psi:
     add_vuspsi   :   3861.19s CPU   3921.81s WALL (    5614 calls)
     vhpsi        :   3896.36s CPU   3947.95s WALL (    5614 calls)

     General routines
     calbec       :   9642.96s CPU   9762.07s WALL (   46793 calls)
     fft          :    967.66s CPU   1204.50s WALL (   11671 calls)
     ffts         :     13.26s CPU     13.68s WALL (    1397 calls)
     fftw         :  20714.12s CPU  21611.96s WALL ( 3560988 calls)
     interpolate  :    113.65s CPU    115.70s WALL (    1397 calls)
     davcio       :      0.45s CPU     76.41s WALL (    4599 calls)

     Parallel routines
     fft_scatter  :   7126.28s CPU   8188.35s WALL ( 3574056 calls)
     Hubbard U routines
     new_ns       :    925.82s CPU    981.05s WALL (     692 calls)
     vhpsi        :   3896.36s CPU   3947.95s WALL (    5614 calls)
     force_hub    :   1401.82s CPU   1444.11s WALL (      37 calls)

     PWSCF        :     1d   11h37m CPU        1d   12h37m WALL


   This run was terminated on:  10:25: 9   2May2014            

=------------------------------------------------------------------------------=
   JOB DONE.
=------------------------------------------------------------------------------=
---------------------------------------
Running PBS batch system epilogue script
Job id: 340583.audhumbla.fysik.dtu.dk
Username: zhonxu
Groupname: campgst
Jobname: NbO2/Eads-2-layers/O-U-7.0
Sessionid: 17014
Resources limits: neednodes=2:ppn=8:xeon8,nodes=2:ppn=8:xeon8,walltime=48:00:00
Resources used: cput=584:01:03,mem=17120284kb,vmem=20645524kb,walltime=36:37:10
Queuename: verylong
Accounting:
This job has allocated the following 16 nodes:
d105 d105 d105 d105 d105 d105 d105 d105 d082 d082 d082 d082 d082 d082 d082 d082
Finished epilogue job 340583.audhumbla.fysik.dtu.dk for zhonxu
