ScientificPython/2.8-dl160g6-numpy-1.7.1-1(15):ERROR:151: Module 'ScientificPython/2.8-dl160g6-numpy-1.7.1-1' depends on one of the module(s) 'numpy/1.7.1-dl160g6-gfortran-internal-1'
ScientificPython/2.8-dl160g6-numpy-1.7.1-1(15):ERROR:102: Tcl command execution failed: prereq numpy/1.7.1-dl160g6-gfortran-internal-1


     Program PWSCF v.5.0.2 (svn rev. 9656) starts on 13May2014 at  1: 7: 5 

     This program is part of the open-source Quantum ESPRESSO suite
     for quantum simulation of materials; please cite
         "P. Giannozzi et al., J. Phys.:Condens. Matter 21 395502 (2009);
          URL http://www.quantum-espresso.org", 
     in publications or presentations arising from this work. More details at
     http://www.quantum-espresso.org/quote.php

     Parallel version (MPI), running on    16 processors
     K-points division:     npool     =       4
     R & G space division:  proc/nbgrp/npool/nimage =       4

     Current dimensions of program PWSCF are:
     Max number of different atomic species (ntypx) = 10
     Max number of k-points (npk) =  40000
     Max angular momentum in pseudopotentials (lmaxx) =  3
     Reading input from pwscf.in
Warning: card &CELL ignored
Warning: card / ignored

     Subspace diagonalization in iterative solution of the eigenvalue problem:
     a serial algorithm will be used


     Parallelization info
     --------------------
     sticks:   dense  smooth     PW     G-vecs:    dense   smooth      PW
     Min        1274     408    116               299662    54238    8133
     Max        1275     409    117               299663    54251    8135
     Sum        5097    1635    467              1198649   216969   32535



     bravais-lattice index     =            0
     lattice parameter (alat)  =      10.9604  a.u.
     unit-cell volume          =    6350.6732 (a.u.)^3
     number of atoms/cell      =           31
     number of atomic types    =            3
     number of electrons       =       230.00 (up: 122.00, down: 108.00)
     number of Kohn-Sham states=          333
     kinetic-energy cutoff     =      40.0000  Ry
     charge density cutoff     =     500.0000  Ry
     convergence threshold     =      1.0E-06
     mixing beta               =       0.3000
     number of iterations used =            8  plain     mixing
     Exchange-correlation      = SLA  PW   PBE  PBE ( 1 4 3 4 0)
     EXX-fraction              =        0.00
     nstep                     =           50


     celldm(1)=  10.960412  celldm(2)=   0.000000  celldm(3)=   0.000000
     celldm(4)=   0.000000  celldm(5)=   0.000000  celldm(6)=   0.000000

     crystal axes: (cart. coord. in units of alat)
               a(1) = (   1.000000   0.000000   0.000000 )  
               a(2) = (   0.000000   1.067975   0.000000 )  
               a(3) = (   0.000000   0.000000   4.516251 )  

     reciprocal axes: (cart. coord. in units 2 pi/alat)
               b(1) = (  1.000000  0.000000  0.000000 )  
               b(2) = (  0.000000  0.936351  0.000000 )  
               b(3) = (  0.000000  0.000000  0.221423 )  


     PseudoPot. # 1 for O  read from file:
     /home/camp/zhonxu/pseudo/o_pbe_v1.01.uspp.F.UPF
     MD5 check sum: 2bcb18d16ea4b960afae9ec6d52f22d2
     Pseudo is Ultrasoft + core correction, Zval =  6.0
     Generated by new atomic code, or converted to UPF format
     Using radial grid of  737 points,  5 beta functions with: 
                l(1) =   0
                l(2) =   0
                l(3) =   1
                l(4) =   1
                l(5) =   2
     Q(r) pseudized with  8 coefficients,  rinner =    0.900   0.900   0.900
                                                       0.900   0.900

     PseudoPot. # 2 for Cr read from file:
     /home/camp/zhonxu/pseudo/cr_pbe_v1.uspp.F.UPF
     MD5 check sum: 68b6f918d1762dccfb11451fe85b0e0e
     Pseudo is Ultrasoft + core correction, Zval = 14.0
     Generated by new atomic code, or converted to UPF format
     Using radial grid of  857 points,  6 beta functions with: 
                l(1) =   0
                l(2) =   0
                l(3) =   1
                l(4) =   1
                l(5) =   2
                l(6) =   2
     Q(r) pseudized with  6 coefficients,  rinner =    1.000   1.000   1.000
                                                       1.000   1.000

     PseudoPot. # 3 for H  read from file:
     /home/camp/zhonxu/pseudo/h_pbe_v1.uspp.F.UPF
     MD5 check sum: 3408e3ff4ec8b0a4e358431e7e038a48
     Pseudo is Ultrasoft, Zval =  1.0
     Generated by new atomic code, or converted to UPF format
     Using radial grid of  615 points,  2 beta functions with: 
                l(1) =   0
                l(2) =   0
     Q(r) pseudized with  8 coefficients,  rinner =    0.700

     atomic species   valence    mass     pseudopotential
        O0             6.00    15.99940     O ( 1.00)
        Cr1           14.00    51.99600     Cr( 1.00)
        H2             1.00     1.00794     H ( 1.00)

     Starting magnetic structure 
     atomic species   magnetization
        O0           0.000
        Cr1          0.600
        H2           0.000


     Simplified LDA+U calculation (l_max = 2) with parameters (eV):
     atomic species    L          U    alpha       J0     beta
        Cr1            2     6.5000   0.0000   0.0000   0.0000



     No symmetry found



   Cartesian axes

     site n.     atom                  positions (alat units)
         1           O0  tau(   1) = (   0.0000000   0.0000000   1.7030331  )
         2           O0  tau(   2) = (   0.0000000   0.5339875   1.8028422  )
         3           Cr1 tau(   3) = (   0.2500000   0.5339875   2.0350227  )
         4           Cr1 tau(   4) = (   0.0000000   0.0000000   2.0223320  )
         5           O0  tau(   5) = (   0.2500000   0.8543801   2.0287902  )
         6           O0  tau(   6) = (   0.2500000   0.2135950   2.0292419  )
         7           O0  tau(   7) = (   0.0000000   0.5339875   2.2445767  )
         8           O0  tau(   8) = (   0.0000000   0.0000000   2.3628573  )
         9           Cr1 tau(   9) = (   0.2500000   0.0000000   2.5580045  )
        10           Cr1 tau(  10) = (   0.0000000   0.5339875   2.5485656  )
        11           O0  tau(  11) = (   0.2500000   0.7475825   2.5953991  )
        12           O0  tau(  12) = (   0.2500000   0.3203925   2.5951281  )
        13           O0  tau(  13) = (   0.0000000   0.0000000   2.7889204  )
        14           O0  tau(  14) = (   0.5000000   0.0000000   1.7055170  )
        15           O0  tau(  15) = (   0.5000000   0.5339875   1.8012615  )
        16           Cr1 tau(  16) = (   0.7500000   0.5339875   2.0359259  )
        17           Cr1 tau(  17) = (   0.5000000   0.0000000   2.0265773  )
        18           O0  tau(  18) = (   0.7500000   0.8543801   2.0288354  )
        19           O0  tau(  19) = (   0.7500000   0.2135950   2.0296032  )
        20           O0  tau(  20) = (   0.5000000   0.5339875   2.2364023  )
        21           O0  tau(  21) = (   0.5000000   0.0000000   2.3615024  )
        22           Cr1 tau(  22) = (   0.7500000   0.0000000   2.6337872  )
        23           Cr1 tau(  23) = (   0.5000000   0.5339875   2.6580395  )
        24           O0  tau(  24) = (   0.7500000   0.7475825   2.5992379  )
        25           O0  tau(  25) = (   0.7500000   0.3203925   2.5991024  )
        26           O0  tau(  26) = (   0.5000000   0.0000000   2.7868881  )
        27           H2  tau(  27) = (  -0.0008000   0.6785059   1.7121107  )
        28           H2  tau(  28) = (   0.4997900   0.6815710   1.7150915  )
        29           H2  tau(  29) = (   0.1566700   0.0342393   1.6437347  )
        30           H2  tau(  30) = (   0.6553000   0.0356063   1.6443670  )
        31           O0  tau(  31) = (   0.4989300   0.5335603   2.9283823  )

     number of k points=    20  Methfessel-Paxton smearing, width (Ry)=  0.0100
                       cart. coord. in units 2pi/alat
        k(    1) = (   0.0000000   0.0000000   0.0000000), wk =   0.0625000
        k(    2) = (   0.0000000   0.2340879   0.0000000), wk =   0.1250000
        k(    3) = (   0.0000000  -0.4681757   0.0000000), wk =   0.0625000
        k(    4) = (   0.2500000   0.0000000   0.0000000), wk =   0.1250000
        k(    5) = (   0.2500000   0.2340879   0.0000000), wk =   0.1250000
        k(    6) = (   0.2500000  -0.4681757   0.0000000), wk =   0.1250000
        k(    7) = (  -0.5000000   0.0000000   0.0000000), wk =   0.0625000
        k(    8) = (  -0.5000000   0.2340879   0.0000000), wk =   0.1250000
        k(    9) = (  -0.5000000  -0.4681757   0.0000000), wk =   0.0625000
        k(   10) = (  -0.2500000   0.2340879   0.0000000), wk =   0.1250000
        k(   11) = (   0.0000000   0.0000000   0.0000000), wk =   0.0625000
        k(   12) = (   0.0000000   0.2340879   0.0000000), wk =   0.1250000
        k(   13) = (   0.0000000  -0.4681757   0.0000000), wk =   0.0625000
        k(   14) = (   0.2500000   0.0000000   0.0000000), wk =   0.1250000
        k(   15) = (   0.2500000   0.2340879   0.0000000), wk =   0.1250000
        k(   16) = (   0.2500000  -0.4681757   0.0000000), wk =   0.1250000
        k(   17) = (  -0.5000000   0.0000000   0.0000000), wk =   0.0625000
        k(   18) = (  -0.5000000   0.2340879   0.0000000), wk =   0.1250000
        k(   19) = (  -0.5000000  -0.4681757   0.0000000), wk =   0.0625000
        k(   20) = (  -0.2500000   0.2340879   0.0000000), wk =   0.1250000

     Dense  grid:  1198649 G-vectors     FFT dimensions: (  80,  90, 360)

     Smooth grid:   216969 G-vectors     FFT dimensions: (  45,  48, 200)

     Largest allocated arrays     est. size (Mb)     dimensions
        Kohn-Sham Wavefunctions        34.98 Mb     (   6884,  333)
        Atomic wavefunctions           16.81 Mb     (   6884,  160)
        NL pseudopotentials            41.91 Mb     (   6884,  399)
        Each V/rho on FFT grid         19.78 Mb     ( 648000,   2)
        Each G-vector array             2.29 Mb     ( 299662)
        G-vector shells                 0.99 Mb     ( 129803)
     Largest temporary arrays     est. size (Mb)     dimensions
        Auxiliary wavefunctions       139.92 Mb     (   6884, 1332)
        Each subspace H/S matrix       27.07 Mb     (1332,1332)
        Each <psi_i|beta_j> matrix      2.03 Mb     (    399,  333)
        Arrays for rho mixing          79.10 Mb     ( 648000,   8)

     Check: negative/imaginary core charge=   -0.000012    0.000000

     Initial potential from superposition of free atoms
     Check: negative starting charge=(component1):   -0.001547
     Check: negative starting charge=(component2):   -0.000494

     starting charge  221.99984, renormalised to  230.00000

     negative rho (up, down):  0.160E-02 0.512E-03
     Number of +U iterations with fixed ns =  0
     Starting occupations:
 --- enter write_ns ---
 LDA+U parameters:
U( 2)     =  6.50000000
alpha( 2) =  0.00000000
atom    3   Tr[ns(na)] (up, down, total) =   5.00000  0.00000  5.00000
   spin  1
    eigenvalues: 
  1.000  1.000  1.000  1.000  1.000
    eigenvectors:
  1.000  0.000  0.000  0.000  0.000
  0.000  1.000  0.000  0.000  0.000
  0.000  0.000  1.000  0.000  0.000
  0.000  0.000  0.000  1.000  0.000
  0.000  0.000  0.000  0.000  1.000
    occupations:
  1.000  0.000  0.000  0.000  0.000
  0.000  1.000  0.000  0.000  0.000
  0.000  0.000  1.000  0.000  0.000
  0.000  0.000  0.000  1.000  0.000
  0.000  0.000  0.000  0.000  1.000
   spin  2
    eigenvalues: 
  0.000  0.000  0.000  0.000  0.000
    eigenvectors:
  1.000  0.000  0.000  0.000  0.000
  0.000  1.000  0.000  0.000  0.000
  0.000  0.000  1.000  0.000  0.000
  0.000  0.000  0.000  1.000  0.000
  0.000  0.000  0.000  0.000  1.000
    occupations:
  0.000  0.000  0.000  0.000  0.000
  0.000  0.000  0.000  0.000  0.000
  0.000  0.000  0.000  0.000  0.000
  0.000  0.000  0.000  0.000  0.000
  0.000  0.000  0.000  0.000  0.000
atomic mag. moment =     5.000000
atom    4   Tr[ns(na)] (up, down, total) =   5.00000  0.00000  5.00000
   spin  1
    eigenvalues: 
  1.000  1.000  1.000  1.000  1.000
    eigenvectors:
  1.000  0.000  0.000  0.000  0.000
  0.000  1.000  0.000  0.000  0.000
  0.000  0.000  1.000  0.000  0.000
  0.000  0.000  0.000  1.000  0.000
  0.000  0.000  0.000  0.000  1.000
    occupations:
  1.000  0.000  0.000  0.000  0.000
  0.000  1.000  0.000  0.000  0.000
  0.000  0.000  1.000  0.000  0.000
  0.000  0.000  0.000  1.000  0.000
  0.000  0.000  0.000  0.000  1.000
   spin  2
    eigenvalues: 
  0.000  0.000  0.000  0.000  0.000
    eigenvectors:
  1.000  0.000  0.000  0.000  0.000
  0.000  1.000  0.000  0.000  0.000
  0.000  0.000  1.000  0.000  0.000
  0.000  0.000  0.000  1.000  0.000
  0.000  0.000  0.000  0.000  1.000
    occupations:
  0.000  0.000  0.000  0.000  0.000
  0.000  0.000  0.000  0.000  0.000
  0.000  0.000  0.000  0.000  0.000
  0.000  0.000  0.000  0.000  0.000
  0.000  0.000  0.000  0.000  0.000
atomic mag. moment =     5.000000
atom    9   Tr[ns(na)] (up, down, total) =   5.00000  0.00000  5.00000
   spin  1
    eigenvalues: 
  1.000  1.000  1.000  1.000  1.000
    eigenvectors:
  1.000  0.000  0.000  0.000  0.000
  0.000  1.000  0.000  0.000  0.000
  0.000  0.000  1.000  0.000  0.000
  0.000  0.000  0.000  1.000  0.000
  0.000  0.000  0.000  0.000  1.000
    occupations:
  1.000  0.000  0.000  0.000  0.000
  0.000  1.000  0.000  0.000  0.000
  0.000  0.000  1.000  0.000  0.000
  0.000  0.000  0.000  1.000  0.000
  0.000  0.000  0.000  0.000  1.000
   spin  2
    eigenvalues: 
  0.000  0.000  0.000  0.000  0.000
    eigenvectors:
  1.000  0.000  0.000  0.000  0.000
  0.000  1.000  0.000  0.000  0.000
  0.000  0.000  1.000  0.000  0.000
  0.000  0.000  0.000  1.000  0.000
  0.000  0.000  0.000  0.000  1.000
    occupations:
  0.000  0.000  0.000  0.000  0.000
  0.000  0.000  0.000  0.000  0.000
  0.000  0.000  0.000  0.000  0.000
  0.000  0.000  0.000  0.000  0.000
  0.000  0.000  0.000  0.000  0.000
atomic mag. moment =     5.000000
atom   10   Tr[ns(na)] (up, down, total) =   5.00000  0.00000  5.00000
   spin  1
    eigenvalues: 
  1.000  1.000  1.000  1.000  1.000
    eigenvectors:
  1.000  0.000  0.000  0.000  0.000
  0.000  1.000  0.000  0.000  0.000
  0.000  0.000  1.000  0.000  0.000
  0.000  0.000  0.000  1.000  0.000
  0.000  0.000  0.000  0.000  1.000
    occupations:
  1.000  0.000  0.000  0.000  0.000
  0.000  1.000  0.000  0.000  0.000
  0.000  0.000  1.000  0.000  0.000
  0.000  0.000  0.000  1.000  0.000
  0.000  0.000  0.000  0.000  1.000
   spin  2
    eigenvalues: 
  0.000  0.000  0.000  0.000  0.000
    eigenvectors:
  1.000  0.000  0.000  0.000  0.000
  0.000  1.000  0.000  0.000  0.000
  0.000  0.000  1.000  0.000  0.000
  0.000  0.000  0.000  1.000  0.000
  0.000  0.000  0.000  0.000  1.000
    occupations:
  0.000  0.000  0.000  0.000  0.000
  0.000  0.000  0.000  0.000  0.000
  0.000  0.000  0.000  0.000  0.000
  0.000  0.000  0.000  0.000  0.000
  0.000  0.000  0.000  0.000  0.000
atomic mag. moment =     5.000000
atom   16   Tr[ns(na)] (up, down, total) =   5.00000  0.00000  5.00000
   spin  1
    eigenvalues: 
  1.000  1.000  1.000  1.000  1.000
    eigenvectors:
  1.000  0.000  0.000  0.000  0.000
  0.000  1.000  0.000  0.000  0.000
  0.000  0.000  1.000  0.000  0.000
  0.000  0.000  0.000  1.000  0.000
  0.000  0.000  0.000  0.000  1.000
    occupations:
  1.000  0.000  0.000  0.000  0.000
  0.000  1.000  0.000  0.000  0.000
  0.000  0.000  1.000  0.000  0.000
  0.000  0.000  0.000  1.000  0.000
  0.000  0.000  0.000  0.000  1.000
   spin  2
    eigenvalues: 
  0.000  0.000  0.000  0.000  0.000
    eigenvectors:
  1.000  0.000  0.000  0.000  0.000
  0.000  1.000  0.000  0.000  0.000
  0.000  0.000  1.000  0.000  0.000
  0.000  0.000  0.000  1.000  0.000
  0.000  0.000  0.000  0.000  1.000
    occupations:
  0.000  0.000  0.000  0.000  0.000
  0.000  0.000  0.000  0.000  0.000
  0.000  0.000  0.000  0.000  0.000
  0.000  0.000  0.000  0.000  0.000
  0.000  0.000  0.000  0.000  0.000
atomic mag. moment =     5.000000
atom   17   Tr[ns(na)] (up, down, total) =   5.00000  0.00000  5.00000
   spin  1
    eigenvalues: 
  1.000  1.000  1.000  1.000  1.000
    eigenvectors:
  1.000  0.000  0.000  0.000  0.000
  0.000  1.000  0.000  0.000  0.000
  0.000  0.000  1.000  0.000  0.000
  0.000  0.000  0.000  1.000  0.000
  0.000  0.000  0.000  0.000  1.000
    occupations:
  1.000  0.000  0.000  0.000  0.000
  0.000  1.000  0.000  0.000  0.000
  0.000  0.000  1.000  0.000  0.000
  0.000  0.000  0.000  1.000  0.000
  0.000  0.000  0.000  0.000  1.000
   spin  2
    eigenvalues: 
  0.000  0.000  0.000  0.000  0.000
    eigenvectors:
  1.000  0.000  0.000  0.000  0.000
  0.000  1.000  0.000  0.000  0.000
  0.000  0.000  1.000  0.000  0.000
  0.000  0.000  0.000  1.000  0.000
  0.000  0.000  0.000  0.000  1.000
    occupations:
  0.000  0.000  0.000  0.000  0.000
  0.000  0.000  0.000  0.000  0.000
  0.000  0.000  0.000  0.000  0.000
  0.000  0.000  0.000  0.000  0.000
  0.000  0.000  0.000  0.000  0.000
atomic mag. moment =     5.000000
atom   22   Tr[ns(na)] (up, down, total) =   5.00000  0.00000  5.00000
   spin  1
    eigenvalues: 
  1.000  1.000  1.000  1.000  1.000
    eigenvectors:
  1.000  0.000  0.000  0.000  0.000
  0.000  1.000  0.000  0.000  0.000
  0.000  0.000  1.000  0.000  0.000
  0.000  0.000  0.000  1.000  0.000
  0.000  0.000  0.000  0.000  1.000
    occupations:
  1.000  0.000  0.000  0.000  0.000
  0.000  1.000  0.000  0.000  0.000
  0.000  0.000  1.000  0.000  0.000
  0.000  0.000  0.000  1.000  0.000
  0.000  0.000  0.000  0.000  1.000
   spin  2
    eigenvalues: 
  0.000  0.000  0.000  0.000  0.000
    eigenvectors:
  1.000  0.000  0.000  0.000  0.000
  0.000  1.000  0.000  0.000  0.000
  0.000  0.000  1.000  0.000  0.000
  0.000  0.000  0.000  1.000  0.000
  0.000  0.000  0.000  0.000  1.000
    occupations:
  0.000  0.000  0.000  0.000  0.000
  0.000  0.000  0.000  0.000  0.000
  0.000  0.000  0.000  0.000  0.000
  0.000  0.000  0.000  0.000  0.000
  0.000  0.000  0.000  0.000  0.000
atomic mag. moment =     5.000000
atom   23   Tr[ns(na)] (up, down, total) =   5.00000  0.00000  5.00000
   spin  1
    eigenvalues: 
  1.000  1.000  1.000  1.000  1.000
    eigenvectors:
  1.000  0.000  0.000  0.000  0.000
  0.000  1.000  0.000  0.000  0.000
  0.000  0.000  1.000  0.000  0.000
  0.000  0.000  0.000  1.000  0.000
  0.000  0.000  0.000  0.000  1.000
    occupations:
  1.000  0.000  0.000  0.000  0.000
  0.000  1.000  0.000  0.000  0.000
  0.000  0.000  1.000  0.000  0.000
  0.000  0.000  0.000  1.000  0.000
  0.000  0.000  0.000  0.000  1.000
   spin  2
    eigenvalues: 
  0.000  0.000  0.000  0.000  0.000
    eigenvectors:
  1.000  0.000  0.000  0.000  0.000
  0.000  1.000  0.000  0.000  0.000
  0.000  0.000  1.000  0.000  0.000
  0.000  0.000  0.000  1.000  0.000
  0.000  0.000  0.000  0.000  1.000
    occupations:
  0.000  0.000  0.000  0.000  0.000
  0.000  0.000  0.000  0.000  0.000
  0.000  0.000  0.000  0.000  0.000
  0.000  0.000  0.000  0.000  0.000
  0.000  0.000  0.000  0.000  0.000
atomic mag. moment =     5.000000
N of occupied +U levels =  40.0000000
 --- exit write_ns ---
 Atomic wfc used for LDA+U Projector are NOT orthogonalized
     Starting wfc are  160 randomized atomic wfcs

     total cpu time spent up to now is      127.3 secs

     per-process dynamical memory:   468.6 Mb

     Self-consistent Calculation

     iteration #  1     ecut=    40.00 Ry     beta=0.30
     Davidson diagonalization with overlap
     ethr =  1.00E-02,  avg # of iterations =  5.3
 --- enter write_ns ---
 LDA+U parameters:
U( 2)     =  6.50000000
alpha( 2) =  0.00000000
atom    3   Tr[ns(na)] (up, down, total) =   3.88951  0.51682  4.40633
   spin  1
    eigenvalues: 
  0.654  0.660  0.801  0.876  0.899
    eigenvectors:
  0.154  0.097  0.009  0.704  0.035
  0.285  0.689  0.000  0.008  0.018
  0.006  0.002  0.966  0.024  0.002
  0.548  0.196  0.024  0.220  0.011
  0.007  0.016  0.000  0.044  0.934
    occupations:
  0.821 -0.009  0.017 -0.094  0.005
 -0.009  0.664 -0.002  0.008  0.035
  0.017 -0.002  0.802  0.005  0.002
 -0.094  0.008  0.005  0.710 -0.004
  0.005  0.035  0.002 -0.004  0.893
   spin  2
    eigenvalues: 
  0.050  0.055  0.059  0.166  0.186
    eigenvectors:
  0.563  0.233  0.025  0.010  0.169
  0.000  0.000  0.001  0.957  0.042
  0.298  0.507  0.194  0.000  0.000
  0.126  0.047  0.005  0.032  0.789
  0.012  0.212  0.775  0.001  0.000
    occupations:
  0.076 -0.000 -0.002  0.051  0.000
 -0.000  0.167  0.000 -0.004  0.003
 -0.002  0.000  0.054  0.002 -0.002
  0.051 -0.004  0.002  0.162 -0.000
  0.000  0.003 -0.002 -0.000  0.058
atomic mag. moment =     3.372689
atom    4   Tr[ns(na)] (up, down, total) =   3.89974  0.52218  4.42192
   spin  1
    eigenvalues: 
  0.617  0.662  0.837  0.854  0.929
    eigenvectors:
  0.000  0.907  0.093  0.000  0.000
  0.000  0.089  0.883  0.027  0.001
  0.000  0.004  0.023  0.973  0.000
  0.000  0.000  0.001  0.000  0.999
  1.000  0.000  0.000  0.000  0.000
    occupations:
  0.679  0.050  0.010 -0.004  0.001
  0.050  0.822 -0.006  0.004  0.001
  0.010 -0.006  0.853  0.000 -0.001
 -0.004  0.004  0.000  0.929  0.000
  0.001  0.001 -0.001  0.000  0.617
   spin  2
    eigenvalues: 
  0.050  0.057  0.063  0.167  0.185
    eigenvectors:
  0.010  0.001  0.000  0.000  0.989
  0.007  0.787  0.205  0.000  0.001
  0.001  0.203  0.795  0.000  0.000
  0.982  0.008  0.000  0.000  0.010
  0.000  0.000  0.000  1.000  0.000
    occupations:
  0.183  0.005  0.001 -0.013  0.000
  0.005  0.058 -0.002  0.000 -0.000
  0.001 -0.002  0.062  0.000  0.000
 -0.013  0.000  0.000  0.051  0.000
  0.000 -0.000  0.000  0.000  0.167
atomic mag. moment =     3.377558
atom    9   Tr[ns(na)] (up, down, total) =   4.37838  0.55339  4.93177
   spin  1
    eigenvalues: 
  0.700  0.724  0.982  0.984  0.988
    eigenvectors:
  0.000  0.174  0.000  0.826  0.000
  1.000  0.000  0.000  0.000  0.000
  0.000  0.000  0.188  0.000  0.812
  0.000  0.826  0.000  0.174  0.000
  0.000  0.000  0.812  0.000  0.188
    occupations:
  0.939 -0.003 -0.000 -0.099 -0.000
 -0.003  0.700 -0.000  0.001 -0.000
 -0.000 -0.000  0.987 -0.000  0.002
 -0.099  0.001 -0.000  0.769 -0.000
 -0.000 -0.000  0.002 -0.000  0.983
   spin  2
    eigenvalues: 
  0.061  0.061  0.066  0.182  0.185
    eigenvectors:
  0.000  0.858  0.000  0.009  0.133
  0.000  0.000  0.000  0.943  0.057
  0.999  0.000  0.001  0.000  0.000
  0.000  0.142  0.000  0.048  0.810
  0.001  0.000  0.999  0.000  0.000
    occupations:
  0.078  0.000 -0.000  0.043  0.000
  0.000  0.182  0.000 -0.001  0.000
 -0.000  0.000  0.061 -0.000  0.000
  0.043 -0.001 -0.000  0.167 -0.000
  0.000  0.000  0.000 -0.000  0.066
atomic mag. moment =     3.824992
atom   10   Tr[ns(na)] (up, down, total) =   4.65104  0.46618  5.11722
   spin  1
    eigenvalues: 
  0.801  0.880  0.987  0.989  0.994
    eigenvectors:
  0.000  0.990  0.003  0.007  0.001
  0.000  0.000  0.646  0.353  0.001
  0.000  0.000  0.000  0.003  0.997
  0.000  0.010  0.352  0.636  0.002
  1.000  0.000  0.000  0.000  0.000
    occupations:
  0.881  0.001  0.002  0.011  0.000
  0.001  0.988  0.000  0.001  0.000
  0.002  0.000  0.994  0.000 -0.002
  0.011  0.001  0.000  0.987 -0.000
  0.000  0.000 -0.002 -0.000  0.801
   spin  2
    eigenvalues: 
  0.047  0.057  0.063  0.139  0.160
    eigenvectors:
  0.015  0.000  0.000  0.985  0.000
  0.001  0.000  0.999  0.000  0.000
  0.000  1.000  0.000  0.000  0.000
  0.985  0.000  0.001  0.015  0.000
  0.000  0.000  0.000  0.000  1.000
    occupations:
  0.138 -0.000 -0.000 -0.011  0.000
 -0.000  0.063  0.000  0.000 -0.000
 -0.000  0.000  0.057  0.000  0.001
 -0.011  0.000  0.000  0.048 -0.000
  0.000 -0.000  0.001 -0.000  0.160
atomic mag. moment =     4.184855
atom   16   Tr[ns(na)] (up, down, total) =   3.88644  0.51713  4.40356
   spin  1
    eigenvalues: 
  0.654  0.658  0.801  0.873  0.900
    eigenvectors:
  0.164  0.083  0.013  0.717  0.023
  0.238  0.737  0.000  0.007  0.018
  0.006  0.001  0.947  0.024  0.022
  0.587  0.163  0.026  0.220  0.005
  0.006  0.016  0.014  0.032  0.932
    occupations:
  0.819  0.009  0.018 -0.092 -0.004
  0.009  0.663 -0.000 -0.007  0.035
  0.018 -0.000  0.804  0.004 -0.012
 -0.092 -0.007  0.004  0.708  0.002
 -0.004  0.035 -0.012  0.002  0.892
   spin  2
    eigenvalues: 
  0.050  0.055  0.059  0.166  0.187
    eigenvectors:
  0.591  0.209  0.022  0.010  0.168
  0.000  0.000  0.001  0.959  0.041
  0.268  0.539  0.193  0.000  0.000
  0.131  0.042  0.004  0.031  0.791
  0.010  0.209  0.780  0.001  0.000
    occupations:
  0.076  0.000 -0.002  0.051 -0.000
  0.000  0.167 -0.000  0.004  0.003
 -0.002 -0.000  0.055  0.002  0.002
  0.051  0.004  0.002  0.162  0.000
 -0.000  0.003  0.002  0.000  0.058
atomic mag. moment =     3.369314
atom   17   Tr[ns(na)] (up, down, total) =   3.87826  0.52305  4.40131
   spin  1
    eigenvalues: 
  0.615  0.658  0.836  0.846  0.924
    eigenvectors:
  0.000  0.933  0.067  0.000  0.000
  0.000  0.063  0.880  0.057  0.000
  0.000  0.003  0.053  0.943  0.000
  0.000  0.000  0.000  0.000  1.000
  1.000  0.000  0.000  0.000  0.000
    occupations:
  0.670  0.043  0.010 -0.003  0.001
  0.043  0.825 -0.005  0.001  0.001
  0.010 -0.005  0.845  0.001  0.001
 -0.003  0.001  0.001  0.924  0.000
  0.001  0.001  0.001  0.000  0.615
   spin  2
    eigenvalues: 
  0.050  0.057  0.062  0.167  0.186
    eigenvectors:
  0.010  0.001  0.000  0.000  0.989
  0.010  0.747  0.242  0.000  0.001
  0.002  0.240  0.758  0.000  0.000
  0.978  0.012  0.000  0.000  0.010
  0.000  0.000  0.000  1.000  0.000
    occupations:
  0.185  0.005  0.001 -0.013  0.000
  0.005  0.059 -0.002  0.000 -0.000
  0.001 -0.002  0.061  0.000  0.000
 -0.013  0.000  0.000  0.051  0.000
  0.000 -0.000  0.000  0.000  0.167
atomic mag. moment =     3.355202
atom   22   Tr[ns(na)] (up, down, total) =   4.32201  0.62738  4.94939
   spin  1
    eigenvalues: 
  0.690  0.701  0.968  0.974  0.990
    eigenvectors:
  0.000  0.038  0.962  0.000  0.000
  0.993  0.007  0.000  0.000  0.000
  0.000  0.000  0.000  0.170  0.830
  0.007  0.955  0.038  0.000  0.000
  0.000  0.000  0.000  0.829  0.170
    occupations:
  0.958  0.004 -0.000 -0.051 -0.000
  0.004  0.690 -0.000 -0.002 -0.000
 -0.000 -0.000  0.987 -0.000 -0.006
 -0.051 -0.002 -0.000  0.711  0.000
 -0.000 -0.000 -0.006  0.000  0.976
   spin  2
    eigenvalues: 
  0.061  0.086  0.087  0.189  0.204
    eigenvectors:
  0.000  0.000  0.972  0.000  0.027
  0.000  0.000  0.000  0.997  0.003
  1.000  0.000  0.000  0.000  0.000
  0.000  0.000  0.028  0.003  0.970
  0.000  1.000  0.000  0.000  0.000
    occupations:
  0.090 -0.000 -0.000  0.019 -0.000
 -0.000  0.189 -0.000  0.001  0.000
 -0.000 -0.000  0.061 -0.000  0.000
  0.019  0.001 -0.000  0.201 -0.000
 -0.000  0.000  0.000 -0.000  0.086
atomic mag. moment =     3.694637
atom   23   Tr[ns(na)] (up, down, total) =   4.09523  0.63323  4.72846
   spin  1
    eigenvalues: 
  0.727  0.774  0.799  0.808  0.987
    eigenvectors:
  0.999  0.000  0.000  0.000  0.001
  0.000  0.000  1.000  0.000  0.000
  0.000  0.013  0.000  0.987  0.000
  0.001  0.000  0.000  0.000  0.999
  0.000  0.987  0.000  0.013  0.000
    occupations:
  0.727 -0.001 -0.000  0.007  0.000
 -0.001  0.799  0.000  0.001 -0.000
 -0.000  0.000  0.808  0.000  0.004
  0.007  0.001  0.000  0.987 -0.000
  0.000 -0.000  0.004 -0.000  0.774
   spin  2
    eigenvalues: 
  0.043  0.105  0.112  0.148  0.225
    eigenvectors:
  0.004  0.000  0.000  0.000  0.996
  0.000  0.000  1.000  0.000  0.000
  0.000  1.000  0.000  0.000  0.000
  0.996  0.000  0.000  0.000  0.004
  0.000  0.000  0.000  1.000  0.000
    occupations:
  0.224  0.001  0.000 -0.012  0.000
  0.001  0.112  0.000 -0.000  0.000
  0.000  0.000  0.105 -0.000 -0.000
 -0.012 -0.000 -0.000  0.044 -0.000
  0.000  0.000 -0.000 -0.000  0.148
atomic mag. moment =     3.462006
N of occupied +U levels =  37.3599724
 --- exit write_ns ---

     negative rho (up, down):  0.164E-02 0.698E-03

     total cpu time spent up to now is      639.9 secs

     total energy              =   -2008.44628719 Ry
     Harris-Foulkes estimate   =   -2019.02986952 Ry
     estimated scf accuracy    <      31.53660609 Ry

     total magnetization       =    14.00 Bohr mag/cell
     absolute magnetization    =    41.76 Bohr mag/cell

     iteration #  2     ecut=    40.00 Ry     beta=0.30
     Davidson diagonalization with overlap
     ethr =  1.00E-02,  avg # of iterations =  4.1

     negative rho (up, down):  0.369E-02 0.306E-02

     total cpu time spent up to now is      988.0 secs

     total energy              =   -1956.17709419 Ry
     Harris-Foulkes estimate   =   -2067.37189790 Ry
     estimated scf accuracy    <    1948.57356892 Ry

     total magnetization       =    14.00 Bohr mag/cell
     absolute magnetization    =    15.57 Bohr mag/cell

     iteration #  3     ecut=    40.00 Ry     beta=0.30
     Davidson diagonalization with overlap
     ethr =  1.00E-02,  avg # of iterations =  4.0

     negative rho (up, down):  0.473E-02 0.365E-02

     total cpu time spent up to now is     1332.4 secs

     total energy              =   -2020.16775857 Ry
     Harris-Foulkes estimate   =   -2021.74261431 Ry
     estimated scf accuracy    <      16.43030133 Ry

     total magnetization       =    14.00 Bohr mag/cell
     absolute magnetization    =    33.83 Bohr mag/cell

     iteration #  4     ecut=    40.00 Ry     beta=0.30
     Davidson diagonalization with overlap
     ethr =  7.14E-03,  avg # of iterations =  1.0

     negative rho (up, down):  0.511E-02 0.354E-02

     total cpu time spent up to now is     1565.6 secs

     total energy              =   -2021.25167175 Ry
     Harris-Foulkes estimate   =   -2021.22917392 Ry
     estimated scf accuracy    <       4.43995199 Ry

     total magnetization       =    14.00 Bohr mag/cell
     absolute magnetization    =    34.99 Bohr mag/cell

     iteration #  5     ecut=    40.00 Ry     beta=0.30
     Davidson diagonalization with overlap
     ethr =  1.93E-03,  avg # of iterations =  2.0

     negative rho (up, down):  0.235E-02 0.144E-02

     total cpu time spent up to now is     1813.5 secs

     total energy              =   -2022.00135053 Ry
     Harris-Foulkes estimate   =   -2021.54243928 Ry
     estimated scf accuracy    <       3.80304862 Ry

     total magnetization       =    14.00 Bohr mag/cell
     absolute magnetization    =    35.79 Bohr mag/cell

     iteration #  6     ecut=    40.00 Ry     beta=0.30
     Davidson diagonalization with overlap
     ethr =  1.65E-03,  avg # of iterations =  2.0

     negative rho (up, down):  0.267E-02 0.966E-03

     total cpu time spent up to now is     2054.3 secs

     total energy              =   -2022.31798254 Ry
     Harris-Foulkes estimate   =   -2022.29654035 Ry
     estimated scf accuracy    <       1.70720518 Ry

     total magnetization       =    14.00 Bohr mag/cell
     absolute magnetization    =    34.26 Bohr mag/cell

     iteration #  7     ecut=    40.00 Ry     beta=0.30
     Davidson diagonalization with overlap
     ethr =  7.42E-04,  avg # of iterations =  4.4

     negative rho (up, down):  0.384E-02 0.151E-02

     total cpu time spent up to now is     2325.9 secs

     total energy              =   -2022.50814626 Ry
     Harris-Foulkes estimate   =   -2022.45983786 Ry
     estimated scf accuracy    <       0.29487500 Ry

     total magnetization       =    14.00 Bohr mag/cell
     absolute magnetization    =    32.71 Bohr mag/cell

     iteration #  8     ecut=    40.00 Ry     beta=0.30
     Davidson diagonalization with overlap
     ethr =  1.28E-04,  avg # of iterations =  5.3

     negative rho (up, down):  0.362E-02 0.146E-02

     total cpu time spent up to now is     2598.2 secs

     total energy              =   -2022.53862154 Ry
     Harris-Foulkes estimate   =   -2022.54907396 Ry
     estimated scf accuracy    <       0.18296269 Ry

     total magnetization       =    14.00 Bohr mag/cell
     absolute magnetization    =    31.92 Bohr mag/cell

     iteration #  9     ecut=    40.00 Ry     beta=0.30
     Davidson diagonalization with overlap
     ethr =  7.95E-05,  avg # of iterations =  2.7

     negative rho (up, down):  0.355E-02 0.140E-02

     total cpu time spent up to now is     2832.1 secs

     total energy              =   -2022.55980512 Ry
     Harris-Foulkes estimate   =   -2022.55617705 Ry
     estimated scf accuracy    <       0.06487149 Ry

     total magnetization       =    14.00 Bohr mag/cell
     absolute magnetization    =    31.58 Bohr mag/cell

     iteration # 10     ecut=    40.00 Ry     beta=0.30
     Davidson diagonalization with overlap
     ethr =  2.82E-05,  avg # of iterations =  5.7

     negative rho (up, down):  0.396E-02 0.146E-02

     total cpu time spent up to now is     3109.0 secs

     total energy              =   -2022.57219539 Ry
     Harris-Foulkes estimate   =   -2022.56690727 Ry
     estimated scf accuracy    <       0.03331536 Ry

     total magnetization       =    14.00 Bohr mag/cell
     absolute magnetization    =    31.12 Bohr mag/cell

     iteration # 11     ecut=    40.00 Ry     beta=0.30
     Davidson diagonalization with overlap
     ethr =  1.45E-05,  avg # of iterations =  4.3

     negative rho (up, down):  0.509E-02 0.182E-02

     total cpu time spent up to now is     3377.5 secs

     total energy              =   -2022.57905828 Ry
     Harris-Foulkes estimate   =   -2022.57700053 Ry
     estimated scf accuracy    <       0.02217190 Ry

     total magnetization       =    14.00 Bohr mag/cell
     absolute magnetization    =    30.57 Bohr mag/cell

     iteration # 12     ecut=    40.00 Ry     beta=0.30
     Davidson diagonalization with overlap
     ethr =  9.64E-06,  avg # of iterations =  2.4

     negative rho (up, down):  0.818E-02 0.424E-02

     total cpu time spent up to now is     3619.3 secs

     total energy              =   -2022.58308625 Ry
     Harris-Foulkes estimate   =   -2022.58081762 Ry
     estimated scf accuracy    <       0.01200909 Ry

     total magnetization       =    14.00 Bohr mag/cell
     absolute magnetization    =    30.40 Bohr mag/cell

     iteration # 13     ecut=    40.00 Ry     beta=0.30
     Davidson diagonalization with overlap
     ethr =  5.22E-06,  avg # of iterations =  4.3

     negative rho (up, down):  0.856E-02 0.458E-02

     total cpu time spent up to now is     3882.2 secs

     total energy              =   -2022.58468078 Ry
     Harris-Foulkes estimate   =   -2022.58488563 Ry
     estimated scf accuracy    <       0.01224793 Ry

     total magnetization       =    14.00 Bohr mag/cell
     absolute magnetization    =    30.20 Bohr mag/cell

     iteration # 14     ecut=    40.00 Ry     beta=0.30
     Davidson diagonalization with overlap
     ethr =  5.22E-06,  avg # of iterations =  1.6

     negative rho (up, down):  0.925E-02 0.509E-02

     total cpu time spent up to now is     4121.2 secs

     total energy              =   -2022.58722870 Ry
     Harris-Foulkes estimate   =   -2022.58563435 Ry
     estimated scf accuracy    <       0.00387617 Ry

     total magnetization       =    14.00 Bohr mag/cell
     absolute magnetization    =    30.01 Bohr mag/cell

     iteration # 15     ecut=    40.00 Ry     beta=0.30
     Davidson diagonalization with overlap
     ethr =  1.69E-06,  avg # of iterations =  1.9

     negative rho (up, down):  0.102E-01 0.580E-02

     total cpu time spent up to now is     4355.1 secs

     total energy              =   -2022.58851569 Ry
     Harris-Foulkes estimate   =   -2022.58796677 Ry
     estimated scf accuracy    <       0.00606414 Ry

     total magnetization       =    14.00 Bohr mag/cell
     absolute magnetization    =    29.75 Bohr mag/cell

     iteration # 16     ecut=    40.00 Ry     beta=0.30
     Davidson diagonalization with overlap
     ethr =  1.69E-06,  avg # of iterations =  1.9

     negative rho (up, down):  0.898E-02 0.478E-02

     total cpu time spent up to now is     4590.6 secs

     total energy              =   -2022.58967815 Ry
     Harris-Foulkes estimate   =   -2022.58951274 Ry
     estimated scf accuracy    <       0.00459702 Ry

     total magnetization       =    14.00 Bohr mag/cell
     absolute magnetization    =    29.48 Bohr mag/cell

     iteration # 17     ecut=    40.00 Ry     beta=0.30
     Davidson diagonalization with overlap
     ethr =  1.69E-06,  avg # of iterations =  1.0

     negative rho (up, down):  0.755E-02 0.356E-02

     total cpu time spent up to now is     4834.1 secs

     total energy              =   -2022.59013900 Ry
     Harris-Foulkes estimate   =   -2022.58992805 Ry
     estimated scf accuracy    <       0.00078679 Ry

     total magnetization       =    14.00 Bohr mag/cell
     absolute magnetization    =    29.34 Bohr mag/cell

     iteration # 18     ecut=    40.00 Ry     beta=0.30
     Davidson diagonalization with overlap
     ethr =  3.42E-07,  avg # of iterations =  3.4

     negative rho (up, down):  0.608E-02 0.233E-02

     total cpu time spent up to now is     5093.4 secs

     total energy              =   -2022.59039104 Ry
     Harris-Foulkes estimate   =   -2022.59027725 Ry
     estimated scf accuracy    <       0.00089320 Ry

     total magnetization       =    14.00 Bohr mag/cell
     absolute magnetization    =    29.20 Bohr mag/cell

     iteration # 19     ecut=    40.00 Ry     beta=0.30
     Davidson diagonalization with overlap
     ethr =  3.42E-07,  avg # of iterations =  2.6

     negative rho (up, down):  0.529E-02 0.178E-02

     total cpu time spent up to now is     5334.5 secs

     total energy              =   -2022.59055146 Ry
     Harris-Foulkes estimate   =   -2022.59046618 Ry
     estimated scf accuracy    <       0.00033325 Ry

     total magnetization       =    14.00 Bohr mag/cell
     absolute magnetization    =    29.13 Bohr mag/cell

     iteration # 20     ecut=    40.00 Ry     beta=0.30
     Davidson diagonalization with overlap
     ethr =  1.45E-07,  avg # of iterations =  3.1

     negative rho (up, down):  0.488E-02 0.156E-02

     total cpu time spent up to now is     5580.3 secs

     total energy              =   -2022.59065573 Ry
     Harris-Foulkes estimate   =   -2022.59061230 Ry
     estimated scf accuracy    <       0.00019776 Ry

     total magnetization       =    14.00 Bohr mag/cell
     absolute magnetization    =    29.06 Bohr mag/cell

     iteration # 21     ecut=    40.00 Ry     beta=0.30
     Davidson diagonalization with overlap
     ethr =  8.60E-08,  avg # of iterations =  1.6

     negative rho (up, down):  0.493E-02 0.158E-02

     total cpu time spent up to now is     5827.3 secs

     total energy              =   -2022.59071284 Ry
     Harris-Foulkes estimate   =   -2022.59068773 Ry
     estimated scf accuracy    <       0.00006961 Ry

     total magnetization       =    14.00 Bohr mag/cell
     absolute magnetization    =    29.02 Bohr mag/cell

     iteration # 22     ecut=    40.00 Ry     beta=0.30
     Davidson diagonalization with overlap
     ethr =  3.03E-08,  avg # of iterations =  1.0

     negative rho (up, down):  0.502E-02 0.161E-02

     total cpu time spent up to now is     6058.7 secs

     total energy              =   -2022.59074315 Ry
     Harris-Foulkes estimate   =   -2022.59072074 Ry
     estimated scf accuracy    <       0.00006262 Ry

     total magnetization       =    14.00 Bohr mag/cell
     absolute magnetization    =    29.00 Bohr mag/cell

     iteration # 23     ecut=    40.00 Ry     beta=0.30
     Davidson diagonalization with overlap
     ethr =  2.72E-08,  avg # of iterations =  1.5

     negative rho (up, down):  0.514E-02 0.167E-02

     total cpu time spent up to now is     6291.6 secs

     total energy              =   -2022.59076635 Ry
     Harris-Foulkes estimate   =   -2022.59076235 Ry
     estimated scf accuracy    <       0.00005348 Ry

     total magnetization       =    14.00 Bohr mag/cell
     absolute magnetization    =    28.96 Bohr mag/cell

     iteration # 24     ecut=    40.00 Ry     beta=0.30
     Davidson diagonalization with overlap
     ethr =  2.33E-08,  avg # of iterations =  1.0

     negative rho (up, down):  0.526E-02 0.173E-02

     total cpu time spent up to now is     6517.2 secs

     total energy              =   -2022.59077305 Ry
     Harris-Foulkes estimate   =   -2022.59077592 Ry
     estimated scf accuracy    <       0.00006597 Ry

     total magnetization       =    14.00 Bohr mag/cell
     absolute magnetization    =    28.96 Bohr mag/cell

     iteration # 25     ecut=    40.00 Ry     beta=0.30
     Davidson diagonalization with overlap
     ethr =  2.33E-08,  avg # of iterations =  1.0

     negative rho (up, down):  0.527E-02 0.174E-02

     total cpu time spent up to now is     6743.3 secs

     total energy              =   -2022.59078616 Ry
     Harris-Foulkes estimate   =   -2022.59078056 Ry
     estimated scf accuracy    <       0.00002840 Ry

     total magnetization       =    14.00 Bohr mag/cell
     absolute magnetization    =    28.96 Bohr mag/cell

     iteration # 26     ecut=    40.00 Ry     beta=0.30
     Davidson diagonalization with overlap
     ethr =  1.23E-08,  avg # of iterations =  1.0

     negative rho (up, down):  0.543E-02 0.183E-02

     total cpu time spent up to now is     6972.2 secs

     total energy              =   -2022.59079450 Ry
     Harris-Foulkes estimate   =   -2022.59079258 Ry
     estimated scf accuracy    <       0.00002023 Ry

     total magnetization       =    14.00 Bohr mag/cell
     absolute magnetization    =    28.94 Bohr mag/cell

     iteration # 27     ecut=    40.00 Ry     beta=0.30
     Davidson diagonalization with overlap
     ethr =  8.79E-09,  avg # of iterations =  1.0

     negative rho (up, down):  0.549E-02 0.187E-02

     total cpu time spent up to now is     7199.0 secs

     total energy              =   -2022.59080031 Ry
     Harris-Foulkes estimate   =   -2022.59079607 Ry
     estimated scf accuracy    <       0.00001170 Ry

     total magnetization       =    14.00 Bohr mag/cell
     absolute magnetization    =    28.94 Bohr mag/cell

     iteration # 28     ecut=    40.00 Ry     beta=0.30
     Davidson diagonalization with overlap
     ethr =  5.09E-09,  avg # of iterations =  1.5

     negative rho (up, down):  0.561E-02 0.194E-02

     total cpu time spent up to now is     7432.2 secs

     total energy              =   -2022.59080524 Ry
     Harris-Foulkes estimate   =   -2022.59080430 Ry
     estimated scf accuracy    <       0.00000760 Ry

     total magnetization       =    14.00 Bohr mag/cell
     absolute magnetization    =    28.92 Bohr mag/cell

     iteration # 29     ecut=    40.00 Ry     beta=0.30
     Davidson diagonalization with overlap
     ethr =  3.30E-09,  avg # of iterations =  1.5

     negative rho (up, down):  0.559E-02 0.193E-02

     total cpu time spent up to now is     7663.7 secs

     total energy              =   -2022.59080961 Ry
     Harris-Foulkes estimate   =   -2022.59080891 Ry
     estimated scf accuracy    <       0.00000713 Ry

     total magnetization       =    14.00 Bohr mag/cell
     absolute magnetization    =    28.92 Bohr mag/cell

     iteration # 30     ecut=    40.00 Ry     beta=0.30
     Davidson diagonalization with overlap
     ethr =  3.10E-09,  avg # of iterations =  1.0

     negative rho (up, down):  0.555E-02 0.190E-02

     total cpu time spent up to now is     7888.3 secs

     total energy              =   -2022.59081098 Ry
     Harris-Foulkes estimate   =   -2022.59081043 Ry
     estimated scf accuracy    <       0.00000207 Ry

     total magnetization       =    14.00 Bohr mag/cell
     absolute magnetization    =    28.91 Bohr mag/cell

     iteration # 31     ecut=    40.00 Ry     beta=0.30
     Davidson diagonalization with overlap
     ethr =  8.99E-10,  avg # of iterations =  1.5

     negative rho (up, down):  0.552E-02 0.189E-02

     total cpu time spent up to now is     8124.9 secs

     total energy              =   -2022.59081181 Ry
     Harris-Foulkes estimate   =   -2022.59081156 Ry
     estimated scf accuracy    <       0.00000204 Ry

     total magnetization       =    14.00 Bohr mag/cell
     absolute magnetization    =    28.90 Bohr mag/cell

     iteration # 32     ecut=    40.00 Ry     beta=0.30
     Davidson diagonalization with overlap
     ethr =  8.86E-10,  avg # of iterations =  1.0

     negative rho (up, down):  0.545E-02 0.184E-02

     total cpu time spent up to now is     8357.9 secs

     End of self-consistent calculation
 --- enter write_ns ---
 LDA+U parameters:
U( 2)     =  6.50000000
alpha( 2) =  0.00000000
atom    3   Tr[ns(na)] (up, down, total) =   3.71873  0.89120  4.60994
   spin  1
    eigenvalues: 
  0.470  0.514  0.805  0.940  0.990
    eigenvectors:
  0.038  0.172  0.001  0.000  0.789
  0.875  0.123  0.000  0.000  0.002
  0.000  0.000  0.981  0.019  0.001
  0.087  0.705  0.000  0.000  0.208
  0.000  0.000  0.019  0.981  0.000
    occupations:
  0.888 -0.026  0.004 -0.196 -0.002
 -0.026  0.477 -0.002 -0.003 -0.005
  0.004 -0.002  0.808 -0.003  0.018
 -0.196 -0.003 -0.003  0.609 -0.001
 -0.002 -0.005  0.018 -0.001  0.937
   spin  2
    eigenvalues: 
  0.073  0.083  0.089  0.308  0.338
    eigenvectors:
  0.738  0.025  0.041  0.030  0.166
  0.001  0.001  0.001  0.888  0.110
  0.077  0.255  0.668  0.000  0.000
  0.183  0.005  0.007  0.081  0.724
  0.001  0.714  0.284  0.001  0.000
    occupations:
  0.125  0.002 -0.002  0.103  0.000
  0.002  0.311  0.000 -0.012  0.009
 -0.002  0.000  0.086  0.005 -0.003
  0.103 -0.012  0.005  0.284 -0.001
  0.000  0.009 -0.003 -0.001  0.085
atomic mag. moment =     2.827528
atom    4   Tr[ns(na)] (up, down, total) =   3.71087  0.89311  4.60397
   spin  1
    eigenvalues: 
  0.482  0.532  0.776  0.930  0.991
    eigenvectors:
  0.002  0.993  0.000  0.001  0.003
  0.000  0.001  0.021  0.978  0.000
  0.000  0.000  0.979  0.021  0.000
  0.000  0.003  0.000  0.000  0.997
  0.998  0.002  0.000  0.000  0.000
    occupations:
  0.534 -0.015 -0.000  0.026  0.002
 -0.015  0.926  0.022  0.002  0.001
 -0.000  0.022  0.779  0.000 -0.002
  0.026  0.002  0.000  0.990 -0.000
  0.002  0.001 -0.002 -0.000  0.482
   spin  2
    eigenvalues: 
  0.071  0.082  0.092  0.317  0.331
    eigenvectors:
  0.005  0.001  0.000  0.003  0.990
  0.006  0.807  0.185  0.000  0.002
  0.001  0.184  0.815  0.000  0.000
  0.987  0.008  0.000  0.000  0.005
  0.000  0.000  0.000  0.997  0.003
    occupations:
  0.329  0.010  0.002 -0.018  0.001
  0.010  0.085 -0.004  0.000 -0.000
  0.002 -0.004  0.090  0.000  0.000
 -0.018  0.000  0.000  0.073  0.000
  0.001 -0.000  0.000  0.000  0.317
atomic mag. moment =     2.817761
atom    9   Tr[ns(na)] (up, down, total) =   3.72855  0.91422  4.64277
   spin  1
    eigenvalues: 
  0.495  0.498  0.842  0.906  0.988
    eigenvectors:
  0.118  0.064  0.000  0.000  0.818
  0.351  0.649  0.000  0.000  0.000
  0.000  0.000  0.970  0.029  0.000
  0.531  0.287  0.000  0.000  0.182
  0.000  0.000  0.029  0.970  0.000
    occupations:
  0.898  0.001 -0.000 -0.190  0.000
  0.001  0.497  0.004  0.001 -0.000
 -0.000  0.004  0.844  0.001 -0.011
 -0.190  0.001  0.001  0.585  0.002
  0.000 -0.000 -0.011  0.002  0.905
   spin  2
    eigenvalues: 
  0.080  0.093  0.096  0.317  0.328
    eigenvectors:
  0.838  0.000  0.000  0.004  0.158
  0.000  0.000  0.000  0.980  0.020
  0.000  0.134  0.866  0.000  0.000
  0.162  0.000  0.000  0.017  0.821
  0.000  0.866  0.134  0.000  0.000
    occupations:
  0.120  0.000 -0.000  0.091 -0.000
  0.000  0.317 -0.000 -0.002  0.000
 -0.000 -0.000  0.096 -0.000  0.001
  0.091 -0.002 -0.000  0.288 -0.000
 -0.000  0.000  0.001 -0.000  0.094
atomic mag. moment =     2.814334
atom   10   Tr[ns(na)] (up, down, total) =   3.75594  0.80079  4.55672
   spin  1
    eigenvalues: 
  0.469  0.486  0.857  0.955  0.988
    eigenvectors:
  0.000  0.993  0.000  0.000  0.006
  0.000  0.001  0.000  0.960  0.039
  0.001  0.000  0.999  0.000  0.000
  0.000  0.006  0.000  0.040  0.954
  0.999  0.000  0.001  0.000  0.000
    occupations:
  0.490 -0.011 -0.004  0.038  0.000
 -0.011  0.956 -0.002 -0.006  0.001
 -0.004 -0.002  0.856 -0.000  0.011
  0.038 -0.006 -0.000  0.984  0.000
  0.000  0.001  0.011  0.000  0.470
   spin  2
    eigenvalues: 
  0.064  0.096  0.098  0.244  0.299
    eigenvectors:
  0.009  0.000  0.000  0.991  0.000
  0.001  0.000  0.999  0.000  0.000
  0.000  1.000  0.000  0.000  0.000
  0.990  0.000  0.001  0.009  0.000
  0.000  0.000  0.000  0.000  1.000
    occupations:
  0.242  0.000 -0.000 -0.017 -0.000
  0.000  0.098  0.000  0.001 -0.000
 -0.000  0.000  0.096  0.000  0.002
 -0.017  0.001  0.000  0.065 -0.000
 -0.000 -0.000  0.002 -0.000  0.299
atomic mag. moment =     2.955151
atom   16   Tr[ns(na)] (up, down, total) =   3.71824  0.89307  4.61131
   spin  1
    eigenvalues: 
  0.469  0.515  0.808  0.937  0.989
    eigenvectors:
  0.038  0.173  0.001  0.000  0.789
  0.879  0.120  0.000  0.000  0.002
  0.000  0.000  0.985  0.015  0.001
  0.084  0.707  0.000  0.000  0.209
  0.000  0.000  0.015  0.985  0.000
    occupations:
  0.888  0.027  0.004 -0.195  0.001
  0.027  0.475  0.002  0.003 -0.004
  0.004  0.002  0.810 -0.003 -0.016
 -0.195  0.003 -0.003  0.610  0.000
  0.001 -0.004 -0.016  0.000  0.935
   spin  2
    eigenvalues: 
  0.074  0.083  0.089  0.309  0.338
    eigenvectors:
  0.738  0.028  0.038  0.030  0.165
  0.001  0.001  0.001  0.886  0.112
  0.077  0.289  0.634  0.000  0.000
  0.182  0.005  0.007  0.083  0.723
  0.001  0.677  0.321  0.001  0.000
    occupations:
  0.125 -0.003 -0.002  0.103 -0.001
 -0.003  0.311 -0.000  0.012  0.008
 -0.002 -0.000  0.086  0.005  0.003
  0.103  0.012  0.005  0.284  0.000
 -0.001  0.008  0.003  0.000  0.086
atomic mag. moment =     2.825162
atom   17   Tr[ns(na)] (up, down, total) =   3.71625  0.89081  4.60706
   spin  1
    eigenvalues: 
  0.477  0.529  0.790  0.929  0.991
    eigenvectors:
  0.001  0.994  0.000  0.001  0.003
  0.000  0.001  0.019  0.979  0.000
  0.000  0.000  0.981  0.019  0.000
  0.000  0.003  0.000  0.000  0.997
  0.999  0.001  0.000  0.000  0.000
    occupations:
  0.531 -0.015 -0.002  0.026  0.002
 -0.015  0.925  0.019  0.001  0.001
 -0.002  0.019  0.793  0.000  0.004
  0.026  0.001  0.000  0.990 -0.000
  0.002  0.001  0.004 -0.000  0.477
   spin  2
    eigenvalues: 
  0.071  0.083  0.091  0.314  0.332
    eigenvectors:
  0.006  0.001  0.000  0.001  0.992
  0.008  0.789  0.201  0.000  0.002
  0.002  0.200  0.799  0.000  0.000
  0.985  0.010  0.000  0.000  0.005
  0.000  0.000  0.000  0.999  0.001
    occupations:
  0.331  0.011  0.002 -0.019  0.001
  0.011  0.085 -0.003  0.000 -0.000
  0.002 -0.003  0.089  0.000  0.000
 -0.019  0.000  0.000  0.072  0.000
  0.001 -0.000  0.000  0.000  0.314
atomic mag. moment =     2.825441
atom   22   Tr[ns(na)] (up, down, total) =   3.52625  1.21683  4.74308
   spin  1
    eigenvalues: 
  0.561  0.579  0.660  0.798  0.929
    eigenvectors:
  0.383  0.000  0.616  0.000  0.000
  0.000  0.999  0.001  0.000  0.000
  0.000  0.000  0.000  0.059  0.940
  0.617  0.001  0.383  0.000  0.000
  0.000  0.000  0.000  0.940  0.059
    occupations:
  0.622 -0.002  0.003 -0.048  0.001
 -0.002  0.579  0.000  0.001  0.000
  0.003  0.000  0.921 -0.000  0.031
 -0.048  0.001 -0.000  0.599 -0.000
  0.001  0.000  0.031 -0.000  0.806
   spin  2
    eigenvalues: 
  0.112  0.150  0.170  0.383  0.401
    eigenvectors:
  0.000  0.000  0.970  0.000  0.030
  0.000  0.000  0.000  0.996  0.004
  0.998  0.002  0.000  0.000  0.000
  0.000  0.000  0.030  0.004  0.966
  0.002  0.998  0.000  0.000  0.000
    occupations:
  0.177 -0.001 -0.000  0.040 -0.000
 -0.001  0.383 -0.000  0.001 -0.000
 -0.000 -0.000  0.112  0.000 -0.002
  0.040  0.001  0.000  0.394  0.000
 -0.000 -0.000 -0.002  0.000  0.150
atomic mag. moment =     2.309412
atom   23   Tr[ns(na)] (up, down, total) =   3.49878  1.24534  4.74412
   spin  1
    eigenvalues: 
  0.520  0.627  0.672  0.688  0.992
    eigenvectors:
  0.000  0.994  0.005  0.000  0.001
  0.000  0.005  0.995  0.000  0.000
  0.000  0.000  0.000  1.000  0.000
  0.000  0.001  0.000  0.000  0.999
  1.000  0.000  0.000  0.000  0.000
    occupations:
  0.628 -0.003 -0.000  0.014 -0.000
 -0.003  0.672  0.000  0.003 -0.000
 -0.000  0.000  0.688  0.000 -0.001
  0.014  0.003  0.000  0.991 -0.000
 -0.000 -0.000 -0.001 -0.000  0.520
   spin  2
    eigenvalues: 
  0.068  0.199  0.213  0.328  0.437
    eigenvectors:
  0.003  0.000  0.000  0.000  0.997
  0.000  0.000  1.000  0.000  0.000
  0.000  1.000  0.000  0.000  0.000
  0.997  0.000  0.000  0.000  0.003
  0.000  0.000  0.000  1.000  0.000
    occupations:
  0.436  0.001  0.001 -0.019 -0.000
  0.001  0.213  0.000 -0.001  0.000
  0.001  0.000  0.200 -0.000 -0.002
 -0.019 -0.001 -0.000  0.069 -0.000
 -0.000  0.000 -0.002 -0.000  0.328
atomic mag. moment =     2.253435
N of occupied +U levels =  37.1189736
 --- exit write_ns ---

 ------ SPIN UP ------------


          k = 0.0000 0.0000 0.0000 ( 27003 PWs)   bands (ev):

   -75.9284 -75.7460 -75.3284 -75.1222 -75.0539 -75.0102 -74.9930 -74.9904
   -47.5217 -47.2001 -47.1551 -47.1140 -47.0722 -46.9600 -46.8151 -46.5883
   -46.5640 -46.4733 -46.4643 -46.4559 -46.4009 -46.3879 -46.3861 -46.3780
   -46.3707 -46.3687 -46.3238 -46.3177 -46.2927 -46.2850 -46.2675 -46.1960
   -21.1766 -20.7138 -20.3829 -20.2700 -20.0913 -19.9365 -19.7592 -19.7303
   -19.6459 -19.5751 -19.4320 -19.3634 -19.3247 -19.2297 -19.1823 -19.1416
   -19.1041 -18.9848 -18.9263 -10.1811  -9.9115  -9.5936  -9.5089  -9.3648
    -8.9177  -8.8484  -8.7829  -8.7334  -8.2921  -8.2311  -8.1034  -8.0365
    -7.9308  -7.5376  -7.4023  -7.3968  -7.3762  -7.2725  -7.2375  -7.1835
    -7.0072  -6.9928  -6.8811  -6.7719  -6.7145  -6.5249  -6.4094  -6.2973
    -6.2438  -6.0924  -5.9623  -5.9274  -5.7778  -5.7508  -5.7015  -5.6445
    -5.5966  -5.5224  -5.2826  -5.2387  -5.1920  -5.0286  -4.9109  -4.8867
    -4.8573  -4.7345  -4.6815  -4.6432  -4.6202  -4.4600  -4.3898  -4.3725
    -4.3343  -4.2507  -4.0247  -3.9948  -3.9504  -3.7855  -3.6390  -3.6094
    -3.3777  -3.2063  -3.1652  -2.9919  -2.9094  -2.5617  -2.5313  -2.4724
    -2.3418  -2.2485  -2.0962  -2.0131  -1.9286  -1.7666  -1.7310  -1.5798
    -1.4006  -1.3057  -1.2281  -1.0763  -0.3917   0.3249   0.5578   0.6029
     0.6934   1.2520   1.4804   1.5136   1.5794   1.7743   1.7773   1.8666
     2.0208   2.2062   2.2597   2.5333   3.1953   3.6725   3.8597   4.3830
     4.8641   5.6520   6.1524   6.2875   6.8690   7.1256   7.1619   7.2001
     7.4239   7.4975   7.6411   7.7277   7.8669   8.0216   8.1220   8.1615
     8.2600   8.2989   8.3902   8.4605   8.5459   8.7825   8.8047   8.9131
     8.9978   9.2535   9.3597   9.4205   9.4573   9.4865   9.5921   9.7113
     9.8760  10.0203  10.0473  10.1113  10.2208  10.2864  10.5110  10.6181
    10.6912  10.8412  10.9522  11.1050  11.1878  11.3238  11.4143  11.4342
    11.4660  11.4966  11.7715  11.7847  11.8248  11.8727  11.9477  12.0973
    12.1610  12.1765  12.1876  12.2936  12.3936  12.4128  12.5017  12.5117
    12.5410  12.5984  12.6598  12.6809  12.7939  12.9735  12.9944  13.0539
    13.1125  13.1243  13.1667  13.2545  13.3112  13.3826  13.4598  13.6026
    13.6472  13.7081  13.7804  13.8704  13.9385  14.0965  14.1717  14.2070
    14.3384  14.4192  14.5132  14.5594  14.6032  14.6463  14.7660  14.8629
    14.9177  15.0535  15.1527  15.1619  15.2296  15.2973  15.3508  15.5283
    15.6141  15.7106  15.8175  15.8577  16.1850  16.1976  16.2443  16.4231
    16.4694  16.5884  16.6827  16.7937  16.8648  17.0059  17.0346  17.0824
    17.1466  17.3321  17.4593  17.5744  17.6441  17.7668  17.7993  17.9283
    18.0180  18.0434  18.0711  18.2086  18.3276  18.4111  18.5896  18.6319
    18.7205  18.8277  18.8519  18.9654  19.0152  19.0481  19.1633  19.2038
    19.2526  19.3887  19.4693  19.5402  19.6135  19.6366  19.7185  19.7834
    19.8732  19.8941  20.0106  20.0596  20.1286  20.1513  20.2649  20.3124
    20.3444  20.4602  20.5177  20.6117  20.6918  20.9178  20.9741  21.0267
    21.0596  21.1418  21.1555  21.2220  21.3060  21.3647  21.3931  21.4916
    21.5231  21.6215  21.6254  21.7352  21.8473

          k = 0.0000 0.2341 0.0000 ( 27088 PWs)   bands (ev):

   -75.9284 -75.7460 -75.3285 -75.1222 -75.0539 -75.0101 -74.9930 -74.9904
   -47.5217 -47.2002 -47.1554 -47.1131 -47.0722 -46.9603 -46.8151 -46.5880
   -46.5642 -46.4738 -46.4637 -46.4533 -46.4016 -46.3880 -46.3841 -46.3785
   -46.3768 -46.3663 -46.3237 -46.3177 -46.2927 -46.2849 -46.2675 -46.1961
   -21.0766 -20.6087 -20.4607 -20.2620 -20.0829 -19.9551 -19.8178 -19.7467
   -19.6705 -19.6161 -19.4310 -19.3702 -19.3067 -19.2799 -19.2042 -19.1800
   -19.0885 -18.9713 -18.9190 -10.0009  -9.7172  -9.6744  -9.5371  -9.4896
    -9.3427  -8.8533  -8.8197  -8.5834  -8.0342  -7.9422  -7.8851  -7.7439
    -7.7197  -7.4093  -7.3706  -7.2952  -7.2519  -7.2052  -7.1801  -7.1517
    -7.1141  -6.9364  -6.8531  -6.8026  -6.7292  -6.6361  -6.3774  -6.3518
    -6.2333  -6.1525  -6.1257  -5.9796  -5.9434  -5.8739  -5.7875  -5.7369
    -5.7210  -5.6683  -5.6499  -5.5987  -5.4727  -5.3573  -4.9968  -4.9350
    -4.7222  -4.6918  -4.6348  -4.6156  -4.4527  -4.3843  -4.3454  -4.2810
    -4.1921  -4.1467  -4.0007  -3.8550  -3.7744  -3.6983  -3.6318  -3.5338
    -3.3264  -3.2372  -3.0983  -2.9750  -2.8740  -2.8700  -2.7049  -2.6364
    -2.5980  -2.2581  -2.1832  -2.0710  -1.8569  -1.7482  -1.6844  -1.4913
    -1.4636  -1.4235  -1.2062  -1.1663  -0.1976  -0.0430   0.3287   0.5684
     0.7604   1.0043   1.4609   1.5872   1.7274   1.9173   1.9884   2.1384
     2.1635   2.2332   2.4259   2.5438   3.4673   3.9209   4.1214   4.6166
     5.0934   5.3612   5.7876   5.9601   6.1723   6.4221   6.6457   7.0548
     7.1547   7.3157   7.5041   7.6231   7.9701   8.2037   8.2403   8.3198
     8.3811   8.5192   8.5409   8.6845   8.8080   8.9924   9.0248   9.1049
     9.2703   9.4807   9.5040   9.6019   9.7124   9.7823   9.8316   9.9600
    10.0585  10.0760  10.1780  10.2645  10.3459  10.3679  10.3844  10.4691
    10.4903  10.6400  10.7113  10.7825  10.8495  10.9619  11.1178  11.1971
    11.2747  11.4031  11.4353  11.5348  11.6194  11.6600  11.7205  11.7827
    11.8293  11.9532  12.1581  12.3619  12.4148  12.4931  12.5826  12.6924
    12.7597  12.8019  12.9090  12.9373  12.9795  13.0683  13.1830  13.3234
    13.4071  13.5870  13.6213  13.7276  13.7592  13.8662  13.9085  14.0453
    14.1085  14.1777  14.2388  14.2708  14.3179  14.3388  14.4485  14.4991
    14.5776  14.5992  14.6301  14.7188  14.8328  14.8954  14.9260  15.0642
    15.0895  15.1375  15.2508  15.2733  15.3617  15.3904  15.5017  15.5331
    15.6391  15.7044  15.8388  15.8890  15.9219  16.0003  16.1040  16.1853
    16.2326  16.3193  16.3917  16.4261  16.5932  16.7232  16.8410  16.8928
    16.9618  17.1379  17.1695  17.2594  17.3010  17.3336  17.4596  17.5238
    17.6742  17.7429  17.8991  17.9789  18.0666  18.1954  18.3204  18.3577
    18.4823  18.5908  18.6437  18.7436  18.8938  18.9312  19.0658  19.0735
    19.1523  19.2065  19.2895  19.3538  19.4800  19.5256  19.5951  19.7099
    19.7402  19.9317  19.9908  20.0281  20.1685  20.2001  20.2531  20.3002
    20.3527  20.4014  20.4469  20.4978  20.5255  20.6659  20.7017  20.7401
    20.8265  20.8835  20.9169  20.9823  21.0413  21.1288  21.1691  21.2330
    21.3064  21.4067  21.4704  21.5119  21.6070

          k = 0.0000-0.4682 0.0000 ( 27136 PWs)   bands (ev):

   -75.9284 -75.7459 -75.3285 -75.1223 -75.0540 -75.0101 -74.9930 -74.9904
   -47.5218 -47.2003 -47.1557 -47.1122 -47.0722 -46.9606 -46.8151 -46.5877
   -46.5643 -46.4750 -46.4631 -46.4493 -46.4012 -46.3897 -46.3838 -46.3808
   -46.3787 -46.3647 -46.3236 -46.3177 -46.2926 -46.2848 -46.2675 -46.1962
   -20.9175 -20.6407 -20.3104 -20.2729 -20.2479 -19.9833 -19.8579 -19.7489
   -19.6607 -19.6370 -19.4398 -19.4012 -19.3856 -19.2830 -19.1950 -19.1792
   -19.0818 -18.9513 -18.9298  -9.8548  -9.8336  -9.5888  -9.5400  -9.4952
    -9.4088  -8.8603  -8.8541  -8.2260  -8.0780  -7.8353  -7.7259  -7.5957
    -7.4439  -7.3846  -7.3192  -7.2828  -7.2186  -7.1690  -7.0202  -6.9859
    -6.9429  -6.8515  -6.8080  -6.7412  -6.6057  -6.5748  -6.5188  -6.4380
    -6.3919  -6.3269  -6.2959  -6.2062  -6.0842  -6.0415  -5.9461  -5.9148
    -5.8594  -5.8336  -5.6693  -5.6118  -5.5611  -5.4302  -5.4090  -4.8788
    -4.8673  -4.7924  -4.6137  -4.5083  -4.4292  -4.4041  -4.3841  -4.1436
    -4.1104  -4.0394  -3.8616  -3.8380  -3.6843  -3.6350  -3.6091  -3.3515
    -3.3238  -3.2348  -3.1749  -3.1204  -3.0315  -2.8512  -2.7554  -2.6347
    -2.5870  -2.1870  -2.1650  -2.0833  -2.0497  -1.8433  -1.7728  -1.6680
    -1.4415  -1.3231  -1.2736  -1.0170  -0.4725  -0.0561   0.1770   0.3089
     0.9079   1.2386   1.4239   1.6439   1.9187   1.9509   2.0010   2.0643
     2.1064   2.2142   2.5842   2.9561   4.0305   4.3860   4.5249   4.7183
     4.8415   4.9773   5.2995   5.4784   5.8695   6.0995   6.5785   6.8966
     7.2050   7.2936   7.4818   7.6320   7.8317   8.0593   8.1135   8.2292
     8.6313   8.7658   8.8471   8.9334   9.0688   9.1089   9.1929   9.2136
     9.2232   9.2492   9.4650   9.5236   9.5796   9.6029   9.6849   9.7215
     9.8260   9.8940  10.0506  10.1001  10.2213  10.3228  10.4340  10.5105
    10.6775  10.7982  10.8432  10.9297  11.0209  11.1078  11.1716  11.2324
    11.3623  11.5908  11.6139  11.6918  11.7987  12.0566  12.1076  12.2045
    12.2362  12.3538  12.4017  12.4281  12.4819  12.6136  12.6260  12.7776
    12.8319  12.8691  12.9398  13.0786  13.1423  13.2007  13.2504  13.2930
    13.3995  13.5015  13.5892  13.5956  13.7061  13.7493  13.8740  13.9548
    13.9930  14.0629  14.1229  14.3147  14.3408  14.3548  14.4096  14.4733
    14.5657  14.6316  14.6721  14.7554  14.7731  14.9431  14.9725  15.0314
    15.1097  15.2336  15.3013  15.3464  15.4805  15.5591  15.5910  15.7015
    15.7757  15.9577  16.0070  16.0222  16.1046  16.1896  16.3561  16.4006
    16.6687  16.7117  16.7862  16.8164  16.8622  16.9766  16.9907  17.0199
    17.1040  17.1298  17.1779  17.1945  17.2650  17.4983  17.5245  17.6455
    17.6930  17.7578  17.7952  17.8420  17.9323  18.0151  18.1063  18.2262
    18.2799  18.2915  18.3754  18.4817  18.5062  18.5191  18.5325  18.6201
    18.7016  18.7233  18.8410  18.9275  18.9921  19.0640  19.1110  19.1615
    19.1898  19.2760  19.3974  19.4383  19.6312  19.7174  19.9691  19.9767
    20.0898  20.1053  20.1466  20.1813  20.2136  20.3052  20.3903  20.4718
    20.4993  20.6929  20.7410  20.8440  20.9040  20.9690  20.9889  21.0507
    21.1390  21.1514  21.2075  21.2803  21.3314

          k = 0.2500 0.0000 0.0000 ( 27178 PWs)   bands (ev):

   -75.9281 -75.7456 -75.3281 -75.1213 -75.0538 -75.0080 -74.9943 -74.9903
   -47.5219 -47.1976 -47.1524 -47.1139 -47.0720 -46.9600 -46.8148 -46.5884
   -46.5679 -46.4665 -46.4598 -46.4416 -46.4054 -46.3881 -46.3861 -46.3781
   -46.3677 -46.3486 -46.3277 -46.3122 -46.3093 -46.2968 -46.2674 -46.2212
   -21.0452 -20.5952 -20.3741 -20.2956 -20.1299 -19.9378 -19.8494 -19.8380
   -19.6300 -19.5880 -19.4195 -19.3498 -19.3049 -19.2367 -19.2041 -19.1659
   -19.1071 -19.0051 -18.9464  -9.9266  -9.7292  -9.3979  -9.2852  -9.2092
    -8.7967  -8.7781  -8.7101  -8.5696  -8.4487  -8.3583  -8.1600  -8.0241
    -7.9047  -7.8352  -7.6700  -7.6033  -7.4985  -7.4063  -7.2160  -7.1449
    -7.0949  -7.0175  -6.9346  -6.7321  -6.7006  -6.6032  -6.4478  -6.3995
    -6.3130  -6.2236  -6.1609  -5.8911  -5.7858  -5.7472  -5.6645  -5.6267
    -5.5661  -5.5379  -5.4656  -5.4322  -5.2584  -5.1408  -5.0785  -5.0456
    -4.9630  -4.8388  -4.6655  -4.5084  -4.4416  -4.4022  -4.2868  -4.2507
    -4.2161  -4.0360  -3.9973  -3.8865  -3.7999  -3.7010  -3.5440  -3.4432
    -3.3396  -3.1444  -3.0336  -2.9293  -2.9000  -2.6728  -2.5870  -2.4421
    -2.3186  -2.1949  -2.1342  -2.0669  -1.9390  -1.7402  -1.6548  -1.5881
    -1.5209  -1.3933  -1.3371  -1.0697  -0.2790   0.3209   0.5959   0.6288
     0.8127   1.2099   1.4080   1.5033   1.5164   1.5675   1.7151   1.7645
     1.8653   2.0101   2.1121   2.5054   3.5172   3.9697   4.1659   4.6778
     5.1745   5.5626   5.8857   6.2308   6.3824   6.4801   6.6508   6.8838
     7.3068   7.4511   7.5349   7.7182   7.7348   7.8959   7.9429   8.0031
     8.1669   8.3908   8.4876   8.5874   8.8264   8.8743   9.0696   9.1358
     9.2938   9.4234   9.5092   9.6432   9.7249   9.8392   9.8978   9.9114
    10.0004  10.0833  10.1304  10.2105  10.2449  10.3647  10.4365  10.4968
    10.6152  10.6661  10.7845  10.8132  11.0155  11.0719  11.0958  11.1675
    11.3342  11.4133  11.4543  11.5354  11.6702  11.6943  11.7598  11.8122
    11.9960  12.0448  12.2351  12.3381  12.3924  12.5027  12.5616  12.6063
    12.6595  12.7268  12.8238  13.0074  13.0198  13.1151  13.1556  13.2436
    13.2545  13.4239  13.5001  13.5755  13.7689  13.8470  13.9568  13.9790
    14.0693  14.1839  14.2991  14.3182  14.3717  14.4609  14.5068  14.5876
    14.6027  14.6317  14.7019  14.8111  14.8759  14.9105  14.9875  15.1269
    15.2831  15.3159  15.3448  15.4297  15.6080  15.6802  15.7190  15.8147
    15.8552  15.9090  15.9744  16.0593  16.0863  16.2336  16.3545  16.4936
    16.5459  16.5809  16.6356  16.7809  16.8446  16.9620  16.9760  17.1185
    17.1756  17.2440  17.2743  17.4013  17.4449  17.5900  17.6295  17.6450
    17.7019  17.7971  17.9207  17.9748  17.9889  18.0663  18.2417  18.2922
    18.4172  18.5961  18.6676  18.7359  18.8422  18.9064  18.9295  18.9960
    19.0559  19.2163  19.2804  19.4589  19.5189  19.6335  19.6784  19.7192
    19.7441  19.7899  19.8285  19.9028  19.9564  20.0140  20.1346  20.2216
    20.2677  20.3489  20.4273  20.4682  20.5013  20.5661  20.6054  20.7282
    20.8282  20.8782  21.0091  21.0812  21.1326  21.1803  21.2213  21.2789
    21.2978  21.3270  21.4271  21.4674  21.5272

          k = 0.2500 0.2341 0.0000 ( 27132 PWs)   bands (ev):

   -75.9281 -75.7456 -75.3282 -75.1214 -75.0539 -75.0080 -74.9942 -74.9903
   -47.5219 -47.1977 -47.1527 -47.1130 -47.0720 -46.9603 -46.8147 -46.5882
   -46.5680 -46.4645 -46.4590 -46.4426 -46.4038 -46.3886 -46.3858 -46.3785
   -46.3723 -46.3475 -46.3276 -46.3121 -46.3091 -46.2968 -46.2674 -46.2212
   -20.9545 -20.4986 -20.3780 -20.3381 -20.1127 -19.9084 -19.8709 -19.8066
   -19.7282 -19.6054 -19.4492 -19.3873 -19.3434 -19.2975 -19.2538 -19.1567
   -19.0915 -18.9870 -18.9384  -9.7678  -9.5575  -9.4596  -9.3374  -9.2593
    -9.1401  -8.7384  -8.7059  -8.4394  -8.2006  -8.1341  -7.9819  -7.9235
    -7.7986  -7.7145  -7.5866  -7.5326  -7.3519  -7.2468  -7.1673  -7.1307
    -7.0310  -6.9927  -6.8356  -6.7243  -6.6862  -6.5644  -6.4422  -6.4109
    -6.3699  -6.2720  -6.2253  -6.1551  -6.0996  -6.0551  -5.9396  -5.8986
    -5.7544  -5.7101  -5.6311  -5.5897  -5.4728  -5.3043  -5.0691  -4.8716
    -4.8252  -4.7820  -4.7065  -4.5898  -4.5467  -4.3674  -4.3126  -4.1689
    -4.0710  -3.9239  -3.8454  -3.7972  -3.7263  -3.5276  -3.4626  -3.3135
    -3.2676  -3.1881  -2.9978  -2.9736  -2.8576  -2.7627  -2.6600  -2.6154
    -2.4893  -2.2822  -2.2221  -2.0042  -1.9012  -1.7699  -1.6382  -1.6022
    -1.5688  -1.4940  -1.2444  -1.1921  -0.1194   0.0418   0.3367   0.6511
     0.8020   1.0579   1.1949   1.4962   1.6068   1.6777   1.8018   1.9172
     1.9988   2.2298   2.4857   2.5073   3.7712   4.2093   4.4159   4.9031
     5.3721   5.6342   5.7594   6.0254   6.2333   6.4430   6.4800   6.6576
     6.7493   6.9415   7.0794   7.3432   7.4451   7.7324   7.8750   7.9767
     8.2703   8.3419   8.4114   8.5349   8.6957   8.8221   8.9979   9.0609
     9.1811   9.2470   9.4469   9.5319   9.6616   9.7235   9.8994  10.0608
    10.1159  10.1473  10.3141  10.3560  10.4419  10.6019  10.6421  10.8127
    10.8955  10.9382  11.0886  11.1951  11.2564  11.2773  11.4666  11.5211
    11.5968  11.6492  11.7705  11.8050  11.8993  11.9580  12.1419  12.2149
    12.2897  12.3451  12.4209  12.5483  12.6064  12.6646  12.7439  12.7869
    12.8544  12.8979  12.9856  13.0178  13.1005  13.1678  13.2433  13.2924
    13.3795  13.4554  13.5716  13.6270  13.7485  13.7939  13.8654  13.9346
    13.9753  14.1331  14.1659  14.2617  14.3471  14.3791  14.4720  14.5171
    14.5941  14.6828  14.7299  14.8007  14.8583  14.9648  15.0265  15.1448
    15.1734  15.2993  15.3942  15.4424  15.5534  15.6976  15.8041  15.8595
    15.9547  16.0078  16.0699  16.1174  16.2286  16.2622  16.3170  16.3800
    16.4181  16.5776  16.6490  16.7082  16.7767  16.8127  16.9428  17.0138
    17.0651  17.1077  17.1378  17.3294  17.3581  17.4136  17.4424  17.4916
    17.5506  17.6051  17.6935  17.7182  17.8249  17.8726  17.9559  18.0530
    18.1522  18.1934  18.2898  18.3236  18.4750  18.5161  18.5882  18.7108
    18.8011  18.8282  18.8463  18.9039  18.9677  19.0564  19.1979  19.2906
    19.3154  19.3967  19.4490  19.5227  19.5858  19.6441  19.7098  19.7410
    19.8144  19.8478  19.8972  20.0746  20.1508  20.2467  20.3227  20.3803
    20.4125  20.4979  20.5943  20.6930  20.7969  20.8967  20.9536  20.9999
    21.0744  21.1435  21.1815  21.2464  21.3161

          k = 0.2500-0.4682 0.0000 ( 27150 PWs)   bands (ev):

   -75.9282 -75.7455 -75.3282 -75.1214 -75.0539 -75.0079 -74.9942 -74.9902
   -47.5219 -47.1978 -47.1530 -47.1121 -47.0720 -46.9607 -46.8147 -46.5879
   -46.5681 -46.4634 -46.4588 -46.4415 -46.4000 -46.3898 -46.3837 -46.3809
   -46.3787 -46.3466 -46.3275 -46.3121 -46.3085 -46.2968 -46.2674 -46.2213
   -20.8195 -20.5199 -20.3266 -20.2420 -20.1733 -19.9932 -19.8943 -19.7762
   -19.6969 -19.6203 -19.5466 -19.4121 -19.3919 -19.3890 -19.2572 -19.1374
   -19.0809 -18.9609 -18.9506  -9.6312  -9.6039  -9.3885  -9.3461  -9.2839
    -9.2160  -8.7396  -8.7200  -8.2237  -8.0785  -7.9926  -7.7606  -7.6108
    -7.5433  -7.4931  -7.3920  -7.3555  -7.3301  -7.1931  -7.1517  -7.1346
    -7.0659  -6.9900  -6.9562  -6.8590  -6.7823  -6.7305  -6.6578  -6.5939
    -6.5375  -6.4930  -6.3101  -6.2431  -6.0793  -5.9705  -5.9099  -5.8760
    -5.8352  -5.7885  -5.7512  -5.6456  -5.5708  -5.4849  -5.3637  -5.0618
    -5.0019  -4.8070  -4.7576  -4.7092  -4.5275  -4.3310  -4.2812  -4.1372
    -4.0380  -3.7907  -3.6731  -3.6308  -3.5842  -3.4687  -3.3812  -3.2972
    -3.2659  -3.1692  -3.0568  -2.9770  -2.8424  -2.7821  -2.6967  -2.5955
    -2.4514  -2.2737  -2.1726  -2.0834  -2.0201  -1.8758  -1.8359  -1.5952
    -1.5723  -1.4388  -1.2967  -1.0802  -0.3620   0.0088   0.2796   0.2919
     0.9216   1.0562   1.3219   1.4441   1.5541   1.7121   1.7566   2.0433
     2.2080   2.2671   2.5750   2.8477   4.3060   4.6645   4.7896   4.9967
     5.1112   5.2573   5.5649   5.7653   6.1191   6.1353   6.3949   6.6716
     6.8045   7.1288   7.1954   7.2409   7.3584   7.4281   7.5110   7.7893
     7.8409   7.9509   8.2443   8.3797   8.5175   8.5833   8.6376   8.9171
     9.0406   9.2169   9.3890   9.4310   9.5665   9.7714   9.9393   9.9746
    10.0903  10.2418  10.4286  10.5343  10.8227  10.9149  10.9523  11.0477
    11.3060  11.3677  11.4200  11.5881  11.6724  11.7125  11.8174  11.8901
    11.9394  11.9878  12.0207  12.0961  12.1506  12.2947  12.4225  12.5240
    12.6169  12.6764  12.7117  12.7579  12.7900  12.8361  12.9038  12.9840
    13.0298  13.0928  13.1506  13.2122  13.3134  13.3306  13.3878  13.4369
    13.5786  13.6301  13.6966  13.7398  13.7816  13.8840  13.9270  14.0237
    14.0356  14.1136  14.1553  14.2410  14.2748  14.3455  14.5238  14.5538
    14.6529  14.6857  14.7482  14.8315  14.9507  14.9811  15.0141  15.0389
    15.0785  15.1482  15.2333  15.3043  15.3235  15.3487  15.3563  15.4758
    15.5465  15.5951  15.7085  15.8140  15.8349  15.9183  15.9492  16.0796
    16.1623  16.2549  16.2989  16.3894  16.4883  16.5489  16.6176  16.7045
    16.7743  16.8785  16.9210  17.0670  17.0904  17.1891  17.3571  17.4432
    17.4965  17.5601  17.7282  17.8029  17.8393  18.0051  18.0564  18.1300
    18.1868  18.2361  18.3434  18.3603  18.3943  18.4542  18.5137  18.5724
    18.6710  18.7252  18.7842  18.8934  18.9235  18.9516  19.0137  19.0754
    19.2839  19.3557  19.4000  19.4130  19.4841  19.5364  19.5795  19.6208
    19.7158  19.7550  19.7739  19.9192  19.9309  19.9465  20.0229  20.0743
    20.1617  20.3072  20.3735  20.5052  20.5588  20.6900  20.7598  20.7974
    20.8131  20.8586  20.9131  20.9471  20.9996

          k =-0.5000 0.0000 0.0000 ( 27158 PWs)   bands (ev):

   -75.9279 -75.7452 -75.3278 -75.1204 -75.0537 -75.0052 -74.9961 -74.9902
   -47.5220 -47.1951 -47.1497 -47.1137 -47.0718 -46.9601 -46.8144 -46.5886
   -46.5718 -46.4642 -46.4568 -46.4124 -46.4030 -46.3885 -46.3852 -46.3782
   -46.3696 -46.3476 -46.3313 -46.3178 -46.3056 -46.2842 -46.2731 -46.2673
   -20.7641 -20.6500 -20.3403 -20.2821 -20.1211 -20.0703 -20.0277 -19.7588
   -19.7197 -19.4718 -19.4276 -19.3361 -19.3141 -19.2743 -19.2289 -19.2168
   -19.0597 -19.0370 -18.9739  -9.3754  -9.3641  -9.1856  -9.1480  -8.9626
    -8.9274  -8.8080  -8.7054  -8.5492  -8.4748  -8.4477  -8.3370  -8.1818
    -8.0980  -8.0531  -7.7885  -7.5302  -7.5161  -7.4467  -7.2242  -7.1700
    -7.1478  -6.9796  -6.9002  -6.7536  -6.6473  -6.6402  -6.5775  -6.4652
    -6.3798  -6.3397  -6.3110  -6.2671  -6.1812  -5.6774  -5.6572  -5.5996
    -5.5501  -5.4950  -5.4913  -5.4447  -5.3785  -5.3513  -5.2123  -5.1852
    -5.0657  -4.6284  -4.5111  -4.4741  -4.3372  -4.3165  -4.2456  -4.1108
    -4.0677  -3.9859  -3.8826  -3.8065  -3.7563  -3.6111  -3.5093  -3.2687
    -3.1285  -3.0483  -2.9839  -2.9374  -2.9196  -2.7394  -2.5789  -2.3835
    -2.3224  -2.2805  -2.1372  -2.0462  -1.9180  -1.7795  -1.6918  -1.5817
    -1.5259  -1.5045  -1.4382  -1.0579  -0.2019   0.3784   0.6508   0.6672
     0.9040   1.0901   1.2418   1.3465   1.3907   1.5475   1.6118   1.6522
     1.6982   1.8886   2.2644   2.3410   4.3328   4.3544   4.6859   4.8669
     4.9700   5.1267   5.4390   5.6420   5.9854   6.2225   6.6134   6.9109
     7.0833   7.3490   7.5239   7.7291   8.1313   8.1649   8.2584   8.2742
     8.4151   8.5485   8.6616   8.7654   8.7694   8.7869   8.8256   8.9414
     8.9617   9.0760   9.2449   9.3355   9.3584   9.5314   9.5734   9.8500
     9.8619  10.0899  10.1136  10.2260  10.3073  10.3874  10.4714  10.5110
    10.6226  10.7406  10.8044  10.8843  10.9890  11.1085  11.1859  11.2244
    11.2884  11.4414  11.6509  11.7631  11.8510  11.9007  11.9552  12.1270
    12.1699  12.3090  12.4740  12.5045  12.5721  12.7164  12.8035  12.8322
    12.9152  12.9860  13.0681  13.2245  13.2810  13.3672  13.4130  13.5293
    13.6555  13.7013  13.7601  13.7900  13.8966  13.9462  13.9889  14.0707
    14.1539  14.2264  14.3115  14.3615  14.5121  14.5945  14.6929  14.7217
    14.7748  14.8416  14.8577  14.8773  14.9253  14.9591  14.9933  15.1584
    15.2172  15.4943  15.5426  15.5763  15.5969  15.6756  15.7535  15.7912
    15.8287  15.9622  16.2291  16.3806  16.4877  16.5321  16.6002  16.6934
    16.7295  16.8444  16.9267  17.0092  17.0780  17.1634  17.2304  17.2861
    17.3317  17.4164  17.5571  17.5771  17.5989  17.6334  17.6900  17.7154
    17.7421  17.8373  17.8813  17.9797  17.9829  18.0040  18.1225  18.1901
    18.2511  18.4647  18.5202  18.5990  18.6255  18.6441  18.7014  18.8072
    18.9236  18.9519  18.9974  19.0366  19.0462  19.0904  19.1533  19.1872
    19.2567  19.3609  19.5563  19.5739  19.6328  19.8560  19.9348  19.9771
    19.9972  20.0603  20.2671  20.2797  20.3183  20.3847  20.4741  20.5351
    20.5381  20.5470  20.5934  20.6305  20.6903  20.7274  20.7433  20.8443
    20.8754  20.9126  20.9644  21.1194  21.1447

          k =-0.5000 0.2341 0.0000 ( 27132 PWs)   bands (ev):

   -75.9279 -75.7452 -75.3279 -75.1205 -75.0538 -75.0052 -74.9961 -74.9902
   -47.5220 -47.1952 -47.1500 -47.1128 -47.0718 -46.9604 -46.8143 -46.5884
   -46.5719 -46.4632 -46.4548 -46.4123 -46.3994 -46.3905 -46.3876 -46.3785
   -46.3735 -46.3463 -46.3312 -46.3177 -46.3056 -46.2840 -46.2729 -46.2673
   -20.7054 -20.5872 -20.2788 -20.2149 -20.1563 -20.0823 -19.9950 -19.7188
   -19.7001 -19.6274 -19.5197 -19.3933 -19.3525 -19.3304 -19.3064 -19.1639
   -19.0488 -19.0179 -18.9648  -9.3392  -9.2843  -9.2142  -9.1056  -8.8851
    -8.8348  -8.7558  -8.5934  -8.5261  -8.4379  -8.2740  -8.2203  -8.1311
    -8.0416  -7.9303  -7.7353  -7.5334  -7.5051  -7.4114  -7.1683  -7.1143
    -7.0205  -6.9561  -6.8580  -6.7439  -6.6339  -6.5657  -6.5236  -6.4817
    -6.4214  -6.3447  -6.2786  -6.2373  -6.2042  -6.1039  -6.0910  -5.9945
    -5.9279  -5.8233  -5.7251  -5.5326  -5.4543  -5.3427  -5.2966  -5.1080
    -4.9370  -4.7142  -4.6638  -4.4929  -4.4489  -4.2958  -4.1481  -4.1016
    -4.0140  -3.8764  -3.7848  -3.5393  -3.4758  -3.4455  -3.3839  -3.2540
    -3.1874  -3.0901  -2.9739  -2.9241  -2.7895  -2.7078  -2.5772  -2.5222
    -2.4321  -2.2748  -2.1464  -2.0854  -1.9106  -1.8982  -1.7642  -1.6949
    -1.6335  -1.4497  -1.3137  -1.1750  -0.0763   0.1284   0.5095   0.7231
     0.8665   0.9665   1.0272   1.1909   1.3574   1.4726   1.5987   1.8313
     1.9829   2.2342   2.4538   2.5220   4.5581   4.5801   4.8875   5.1089
     5.1994   5.3655   5.6468   5.8618   6.1081   6.2681   6.3838   6.6035
     6.7529   7.0359   7.0587   7.1943   7.2344   7.3946   7.5376   7.7048
     7.7490   7.8992   8.2019   8.3775   8.5111   8.6308   8.7385   8.9976
     9.0468   9.2816   9.3634   9.5614   9.6322   9.7912   9.8936  10.3035
    10.3584  10.4499  10.5137  10.6096  10.7175  10.7736  10.8536  10.9057
    10.9592  10.9796  11.1944  11.2365  11.4350  11.4857  11.5184  11.6117
    11.6536  11.8058  11.8647  11.9307  12.1079  12.2445  12.3157  12.3701
    12.4962  12.5486  12.6451  12.7136  12.7287  12.8022  12.9294  13.0188
    13.1453  13.2524  13.3136  13.3566  13.4591  13.5630  13.6030  13.6708
    13.7898  13.8711  13.9196  13.9733  14.0448  14.1036  14.2186  14.2600
    14.3259  14.3782  14.4090  14.4239  14.5283  14.5933  14.6523  14.6661
    14.7140  14.7630  14.8262  14.9623  15.0693  15.1031  15.2798  15.3503
    15.4187  15.4665  15.5408  15.6023  15.6353  15.6638  15.7620  15.7890
    15.8359  15.8917  15.9278  15.9601  15.9929  16.0761  16.1151  16.2609
    16.2837  16.3589  16.4466  16.5647  16.5931  16.6288  16.6859  16.7199
    16.8321  16.8688  16.9161  17.0668  17.1363  17.1563  17.1974  17.2415
    17.2929  17.3337  17.3745  17.4445  17.5144  17.5825  17.7067  17.8001
    17.8144  17.8768  17.9277  17.9687  18.1720  18.1949  18.2602  18.3054
    18.3895  18.4995  18.5159  18.7977  18.8585  18.8928  18.9934  19.0452
    19.1786  19.2476  19.3144  19.4121  19.4720  19.6431  19.6867  19.7485
    19.7594  19.8593  19.8886  19.9016  19.9572  19.9898  20.0261  20.0584
    20.1020  20.1500  20.2304  20.2895  20.3614  20.5926  20.6647  20.7847
    20.8614  20.8997  20.9477  21.0692  21.1215

          k =-0.5000-0.4682 0.0000 ( 27168 PWs)   bands (ev):

   -75.9279 -75.7451 -75.3279 -75.1205 -75.0538 -75.0051 -74.9960 -74.9901
   -47.5220 -47.1953 -47.1503 -47.1120 -47.0718 -46.9607 -46.8143 -46.5880
   -46.5720 -46.4626 -46.4522 -46.4118 -46.3991 -46.3910 -46.3837 -46.3827
   -46.3788 -46.3450 -46.3311 -46.3177 -46.3056 -46.2837 -46.2728 -46.2673
   -20.6316 -20.5064 -20.2563 -20.1890 -20.1632 -19.9527 -19.9224 -19.8902
   -19.7261 -19.6084 -19.5748 -19.5537 -19.4440 -19.3917 -19.3015 -19.1343
   -19.0410 -18.9960 -18.9696  -9.3272  -9.2481  -9.2282  -9.0767  -8.8974
    -8.8638  -8.7475  -8.5836  -8.4262  -8.1788  -8.0441  -7.7986  -7.7298
    -7.6564  -7.5819  -7.5196  -7.4725  -7.4603  -7.3960  -7.3274  -7.3008
    -7.2718  -7.1486  -7.0727  -7.0071  -6.9076  -6.8268  -6.7062  -6.6974
    -6.6322  -6.4519  -6.3483  -6.3099  -6.2448  -6.1757  -5.9326  -5.7995
    -5.6802  -5.5932  -5.5886  -5.5656  -5.5333  -5.3792  -5.2991  -5.2601
    -5.1580  -5.0701  -5.0371  -4.8764  -4.7507  -4.4266  -4.0333  -3.9444
    -3.7918  -3.7472  -3.6720  -3.4681  -3.3813  -3.2593  -3.1890  -3.1586
    -3.0408  -2.9882  -2.9527  -2.9118  -2.8205  -2.7232  -2.6795  -2.5583
    -2.4171  -2.1745  -2.1665  -2.1510  -2.0101  -1.9287  -1.7996  -1.7561
    -1.7235  -1.5215  -1.2554  -1.1361  -0.1943   0.0348   0.3480   0.6605
     0.6695   0.7602   0.9723   1.1955   1.4413   1.5193   1.6246   1.8948
[...]
     3.0936   3.1600   3.1857   3.2110   3.3224   3.4299   3.4331   3.4827
     3.4978   3.5031   3.5619   3.6125   3.6234   3.7985   3.9666   3.9810
     4.0655   4.0725   4.1932   4.2305   4.3720   4.3764   4.8884   4.9978
     5.0737   5.2340   5.5483   5.7175   6.0788   6.2435   6.6939   6.9147
     7.1537   7.3515   7.4807   7.5708   8.0177   8.1540   8.1760   8.2365
     8.4609   8.4763   8.7426   8.7998   8.8544   8.9217   8.9331   8.9523
     9.0717   9.1401   9.3467   9.4147   9.5110   9.5931   9.6171   9.6613
     9.7228   9.9188  10.1233  10.2594  10.3027  10.3505  10.4539  10.5454
    10.5646  10.5729  10.8695  10.8850  11.0932  11.1330  11.2062  11.2224
    11.2891  11.4679  11.6677  11.7254  11.7956  11.8758  11.9943  12.2384
    12.2594  12.2973  12.4343  12.5327  12.6127  12.6326  12.7492  12.8387
    12.9331  12.9596  13.0931  13.2130  13.2755  13.4723  13.5039  13.5418
    13.6978  13.7535  13.8323  13.8798  13.9592  13.9880  14.0568  14.1129
    14.1748  14.3546  14.4687  14.4775  14.6691  14.7022  14.7329  14.7855
    14.8222  14.8372  14.8808  15.0050  15.0172  15.0437  15.0909  15.1886
    15.3176  15.5793  15.6253  15.7636  15.8084  15.8368  15.8874  16.0231
    16.0459  16.0957  16.3852  16.4674  16.5036  16.6336  16.7148  16.7271
    16.9113  16.9317  16.9908  17.0259  17.0661  17.1574  17.2488  17.3474
    17.4377  17.5238  17.5939  17.6271  17.6474  17.6900  17.8045  17.8139
    17.8754  17.9315  17.9906  18.0758  18.0846  18.1284  18.2751  18.3141
    18.3648  18.6100  18.6405  18.6657  18.7976  18.8144  18.8992  18.9604
    19.0062  19.0272  19.0781  19.1937  19.2231  19.2627  19.3068  19.3125
    19.3575  19.5930  19.6821  19.7157  19.7365  20.0246  20.0320  20.0596
    20.0846  20.1591  20.3441  20.3527  20.3755  20.4655  20.5392  20.6173
    20.6507  20.7159  20.7273  20.7625  20.8504  20.8837  20.9221  21.0074
    21.0573  21.0992  21.1154  21.2501  21.2630

          k =-0.5000 0.2341 0.0000 ( 27132 PWs)   bands (ev):

   -73.3087 -72.4230 -72.1950 -72.1946 -72.1847 -72.1828 -72.1589 -72.1558
   -45.0494 -44.5682 -44.4260 -43.9509 -43.8588 -43.8584 -43.7706 -43.7290
   -43.7267 -43.7012 -43.5880 -43.5857 -43.5851 -43.5828 -43.5260 -43.5219
   -43.5196 -43.5123 -43.4916 -43.4896 -43.3765 -43.3715 -43.3504 -43.3430
   -21.1320 -21.0989 -20.9138 -20.8275 -20.6286 -20.6135 -20.4637 -20.4059
   -20.2793 -20.2535 -20.2259 -20.1353 -20.0933 -20.0435 -19.8386 -19.8103
   -19.7772 -19.6562 -19.6021  -8.5137  -8.4692  -7.8890  -7.8484  -7.8307
    -7.8249  -7.5898  -7.5598  -7.2954  -7.1985  -7.1791  -7.0264  -6.9404
    -6.9305  -6.8843  -6.8339  -6.5479  -6.4605  -6.4185  -6.3489  -6.2609
    -6.2105  -6.0906  -6.0181  -5.9348  -5.9078  -5.8302  -5.7236  -5.6551
    -5.6263  -5.5506  -5.5124  -5.4856  -5.3900  -5.3557  -5.3028  -5.2286
    -5.0673  -5.0547  -4.9281  -4.8857  -4.8300  -4.7159  -4.6337  -4.5203
    -4.4473  -4.4271  -4.2356  -4.1803  -4.1427  -4.1055  -3.9982  -3.9622
    -3.9343  -3.8592  -3.6865  -3.6367   1.7629   1.8905   1.9495   2.0065
     2.0210   2.2816   2.3333   2.3768   2.4879   2.5347   2.5666   2.6279
     2.6760   2.7888   2.8317   2.8674   2.9439   2.9538   2.9831   2.9854
     3.0868   3.1653   3.1986   3.2359   3.3380   3.3839   3.4259   3.4384
     3.4824   3.4928   3.5377   3.5619   3.6342   3.6395   3.7236   3.7586
     4.0167   4.0594   4.2515   4.2619   4.5636   4.5702   5.0823   5.2376
     5.2948   5.4704   5.7501   5.9161   6.1544   6.2584   6.4561   6.6424
     6.8964   7.1533   7.1707   7.2949   7.3233   7.4469   7.5695   7.7127
     7.7698   7.8838   8.1989   8.3782   8.4816   8.6282   8.6917   8.9206
     9.0748   9.2389   9.2932   9.3418   9.4844   9.6197   9.9409  10.2641
    10.2949  10.4455  10.4695  10.5775  10.6944  10.7983  10.8550  10.9459
    10.9863  11.0229  11.2423  11.2634  11.4611  11.5689  11.6105  11.6636
    11.6858  11.7733  11.9115  12.0128  12.1019  12.2357  12.2638  12.3689
    12.4511  12.5672  12.6343  12.6824  12.7833  12.8220  12.9723  13.0094
    13.2096  13.2903  13.3413  13.3729  13.5605  13.5870  13.6495  13.7031
    13.7572  13.9365  14.0471  14.0633  14.1496  14.1792  14.2465  14.2865
    14.3721  14.4343  14.4927  14.5279  14.5834  14.7000  14.7490  14.7718
    14.7950  14.8583  14.9382  14.9973  15.0031  15.1255  15.3082  15.3377
    15.3985  15.5982  15.6589  15.6999  15.7206  15.7540  15.8749  15.9276
    15.9829  16.0277  16.0530  16.1395  16.1891  16.2179  16.2974  16.3459
    16.3587  16.4992  16.5323  16.6530  16.7248  16.7445  16.7596  16.7828
    16.9091  16.9468  17.0234  17.2024  17.2332  17.2915  17.3025  17.3959
    17.4104  17.4539  17.5316  17.5511  17.6361  17.6972  17.8398  17.9039
    17.9376  18.0401  18.0713  18.0939  18.3072  18.3214  18.3894  18.4352
    18.5199  18.6271  18.6520  18.9123  18.9816  19.0076  19.1252  19.1841
    19.2920  19.4261  19.4456  19.5232  19.5651  19.7201  19.7503  19.8674
    19.9170  20.0021  20.0120  20.0268  20.0922  20.1701  20.2137  20.2244
    20.2741  20.3327  20.4370  20.4491  20.5692  20.7336  20.8040  20.8966
    20.9381  21.0006  21.0486  21.2520  21.2675

          k =-0.5000-0.4682 0.0000 ( 27168 PWs)   bands (ev):

   -73.3087 -72.4230 -72.1950 -72.1946 -72.1847 -72.1828 -72.1589 -72.1558
   -45.0494 -44.5685 -44.4255 -43.9509 -43.8611 -43.8562 -43.7685 -43.7280
   -43.7258 -43.7037 -43.5871 -43.5864 -43.5844 -43.5837 -43.5271 -43.5230
   -43.5202 -43.5123 -43.4907 -43.4903 -43.3762 -43.3713 -43.3504 -43.3430
   -20.9852 -20.9447 -20.7971 -20.7746 -20.7527 -20.6306 -20.5425 -20.5211
   -20.3710 -20.3273 -20.2340 -20.1837 -20.1761 -20.0416 -19.8041 -19.7718
   -19.7564 -19.6512 -19.6024  -8.4828  -8.4388  -7.7648  -7.7543  -7.3977
    -7.3084  -7.3010  -7.2274  -7.2117  -7.1118  -6.9831  -6.9608  -6.9067
    -6.8979  -6.8639  -6.8186  -6.7424  -6.7287  -6.4911  -6.4070  -6.3412
    -6.2910  -6.2645  -6.1086  -6.0808  -6.0305  -5.9733  -5.9384  -5.9105
    -5.8948  -5.7755  -5.5703  -5.5359  -5.4420  -5.4164  -5.3769  -5.2702
    -5.1561  -5.0487  -5.0036  -4.9173  -4.8728  -4.7453  -4.6021  -4.4937
    -4.4713  -4.3823  -4.2135  -4.1839  -4.1216  -4.1032  -4.0218  -3.9710
    -3.9191  -3.8742  -3.6427  -3.6382   1.7691   1.8814   2.0271   2.0305
     2.0436   2.2689   2.4821   2.4863   2.4981   2.5729   2.6661   2.7815
     2.8335   2.8615   2.9015   2.9135   2.9217   2.9305   2.9982   3.0738
     3.1287   3.1958   3.2011   3.2247   3.2765   3.3197   3.3248   3.3351
     3.4293   3.4400   3.5555   3.5566   3.5739   3.5817   3.7244   3.7265
     4.0518   4.0667   4.1018   4.1342   4.9820   4.9911   5.4390   5.4555
     5.4596   5.9404   5.9501   6.0044   6.0197   6.1573   6.1829   6.2702
     6.4484   6.6253   6.6789   6.7876   6.9909   7.1886   7.3028   7.4398
     7.6854   7.9475   8.0765   8.2297   8.2578   8.3734   8.4572   8.5348
     8.9073   9.1330   9.1836   9.3292   9.3984   9.6152   9.8054   9.8959
    10.1170  10.2613  10.6531  10.8604  10.9187  11.0423  11.1129  11.1766
    11.1783  11.2633  11.6760  11.7675  12.1264  12.2176  12.2603  12.3236
    12.3532  12.4482  12.4779  12.5835  12.7353  12.8948  12.9659  12.9969
    13.0076  13.0920  13.1133  13.2535  13.2777  13.3690  13.4879  13.5158
    13.5556  13.6262  13.7135  13.7364  13.8176  13.8429  13.9411  13.9532
    13.9931  14.0531  14.0888  14.1240  14.1462  14.2008  14.2778  14.3108
    14.3870  14.3980  14.4723  14.4930  14.6625  14.6828  14.7524  14.8037
    14.8052  14.8328  14.8362  14.9009  14.9566  15.0164  15.0916  15.0999
    15.1433  15.1571  15.2381  15.2788  15.2913  15.3562  15.3625  15.5239
    15.5466  15.6932  15.7001  15.7052  15.7436  15.7916  15.8597  15.8921
    15.9105  15.9850  16.0015  16.0425  16.1558  16.2327  16.4390  16.4736
    16.5253  16.5666  16.6399  16.7005  16.7433  16.8311  16.8697  16.8999
    16.9573  16.9706  17.0996  17.1164  17.1754  17.1842  17.2135  17.3518
    17.6627  17.7932  17.8279  17.9230  17.9637  17.9987  18.0283  18.0822
    18.1785  18.2935  18.3697  18.6077  18.6769  18.6991  18.7984  18.8643
    18.8861  18.9661  19.1288  19.1402  19.1713  19.3009  19.3457  19.4386
    19.8683  20.0761  20.1354  20.1577  20.3096  20.3756  20.3818  20.4358
    20.4771  20.7282  20.7596  20.8373  20.8634  21.0776  21.1057  21.1706
    21.4395  21.5002  21.6221  21.6461  21.7111

          k =-0.2500 0.2341 0.0000 ( 27132 PWs)   bands (ev):

   -73.3085 -72.4227 -72.1999 -72.1888 -72.1888 -72.1778 -72.1629 -72.1508
   -45.0492 -44.5721 -44.4262 -43.9512 -43.8637 -43.8533 -43.7673 -43.7339
   -43.7230 -43.7011 -43.5986 -43.5912 -43.5890 -43.5733 -43.5659 -43.5559
   -43.5294 -43.4992 -43.4842 -43.4368 -43.4258 -43.3868 -43.3111 -43.2986
   -21.4202 -21.1168 -20.8077 -20.7638 -20.6173 -20.4982 -20.4359 -20.4162
   -20.3603 -20.2326 -20.1711 -20.1276 -20.0567 -20.0438 -19.8616 -19.7953
   -19.7697 -19.6571 -19.6024  -8.6448  -8.5061  -8.2203  -8.0568  -7.9294
    -7.7136  -7.5736  -7.4969  -7.2898  -7.2151  -7.0856  -7.0046  -6.9991
    -6.9310  -6.8881  -6.7827  -6.6877  -6.4626  -6.4112  -6.3641  -6.2369
    -6.1747  -6.0470  -6.0146  -5.9580  -5.8673  -5.8105  -5.7390  -5.6726
    -5.6315  -5.5656  -5.4798  -5.4300  -5.4045  -5.3533  -5.2724  -5.1775
    -5.0517  -4.9642  -4.8253  -4.7268  -4.6512  -4.5947  -4.5323  -4.5014
    -4.3757  -4.3167  -4.2696  -4.2443  -4.1980  -4.1560  -4.0813  -4.0260
    -3.9132  -3.7535  -3.7414  -3.5798   1.7692   1.8412   1.9210   1.9926
     2.0753   2.1367   2.3495   2.4289   2.4886   2.5167   2.5580   2.5756
     2.6492   2.7305   2.8096   2.8635   2.9025   2.9284   2.9895   3.0176
     3.0429   3.1352   3.1756   3.2034   3.2901   3.3732   3.4207   3.4440
     3.4956   3.5856   3.6151   3.6306   3.6933   3.7083   3.8032   3.9247
     3.9851   4.0713   4.1389   4.2551   4.3033   4.3973   4.5329   5.0106
     5.4547   5.6545   5.6935   6.1704   6.3590   6.5465   6.5878   6.7379
     6.7701   6.9748   7.0447   7.3606   7.5131   7.7745   7.8459   8.0014
     8.2919   8.3682   8.4581   8.6003   8.6476   8.7756   8.8258   9.0088
     9.1239   9.2501   9.3614   9.4709   9.5784   9.7641   9.9881  10.0549
    10.1218  10.1858  10.2336  10.3736  10.4413  10.6529  10.7131  10.7607
    10.8739  10.9790  11.0397  11.1701  11.2949  11.3834  11.4612  11.5585
    11.6231  11.6915  11.7855  11.8685  11.9339  11.9815  12.1734  12.2550
    12.2934  12.3760  12.4695  12.5538  12.5956  12.6696  12.8097  12.8755
    12.9254  12.9801  13.0226  13.0910  13.1856  13.2361  13.3055  13.3692
    13.4209  13.4896  13.5374  13.6492  13.7418  13.8462  13.8921  14.0396
    14.0751  14.1340  14.1982  14.2222  14.3479  14.4278  14.5033  14.5693
    14.6340  14.7689  14.7742  14.8758  14.9652  15.0155  15.1098  15.1780
    15.2255  15.2916  15.4822  15.5397  15.6544  15.8093  15.8930  16.0205
    16.0653  16.1327  16.2244  16.2387  16.3103  16.3625  16.4360  16.4681
    16.5182  16.6497  16.7436  16.8143  16.8749  16.9436  17.0370  17.0863
    17.1613  17.1918  17.2742  17.3605  17.4526  17.5230  17.6336  17.6806
    17.7018  17.7617  17.8253  17.9065  17.9470  18.0054  18.0981  18.2243
    18.2554  18.2982  18.4207  18.4735  18.5622  18.6784  18.7243  18.7888
    18.8765  18.9483  18.9656  19.0705  19.1161  19.2041  19.3026  19.3478
    19.4555  19.5303  19.6315  19.6815  19.7455  19.8198  19.8734  19.9212
    19.9657  20.0000  20.0582  20.1733  20.2656  20.3902  20.4341  20.5267
    20.5660  20.6138  20.7315  20.8552  20.9522  21.0134  21.0498  21.1306
    21.1523  21.1966  21.2869  21.3439  21.4386

     the spin up/dw Fermi energies are    -2.4960   -2.4103 ev

!    total energy              =   -2022.65958627 Ry
     Harris-Foulkes estimate   =   -2022.65958552 Ry
     estimated scf accuracy    <          4.1E-09 Ry

     The total energy is the sum of the following terms:

     one-electron contribution =  -23426.52255181 Ry
     hartree contribution      =   11731.94932682 Ry
     xc contribution           =    -322.46772644 Ry
     ewald contribution        =    9991.76187498 Ry
     Hubbard energy            =       2.61914140 Ry
     smearing contrib. (-TS)   =       0.00034879 Ry

     total magnetization       =    14.00 Bohr mag/cell
     absolute magnetization    =    31.80 Bohr mag/cell

     convergence has been achieved in  15 iterations

     Forces acting on atoms (Ry/au):


     negative rho (up, down):  0.566E-02 0.176E-02
     atom    1 type  1   force =    -0.00427036   -0.01033126    0.00017960
     atom    2 type  1   force =     0.00004984    0.00315989   -0.00018221
     atom    3 type  2   force =     0.03039059    0.00195231    0.00027965
     atom    4 type  2   force =     0.00429072    0.00550821   -0.00029479
     atom    5 type  1   force =     0.00130838    0.00653902   -0.00007449
     atom    6 type  1   force =     0.00082783   -0.00470596   -0.00000473
     atom    7 type  1   force =    -0.00033419   -0.00242461    0.00091266
     atom    8 type  1   force =    -0.00123290   -0.00016431   -0.00011920
     atom    9 type  2   force =     0.01075693    0.00042550   -0.00026427
     atom   10 type  2   force =    -0.00022120    0.00036743    0.00060381
     atom   11 type  1   force =    -0.00473948   -0.05333603    0.00002018
     atom   12 type  1   force =    -0.00389611    0.05322995    0.00003733
     atom   13 type  1   force =    -0.00021910    0.00001425    0.00022180
     atom   14 type  1   force =    -0.00458656   -0.01046035    0.00004139
     atom   15 type  1   force =    -0.00002041    0.00342292   -0.00068541
     atom   16 type  2   force =    -0.03044388    0.00234544    0.00039095
     atom   17 type  2   force =     0.00412491    0.00548629   -0.00038179
     atom   18 type  1   force =     0.00032675    0.00643458    0.00004651
     atom   19 type  1   force =    -0.00018676   -0.00493634    0.00002157
     atom   20 type  1   force =    -0.00005644   -0.00310788   -0.00058431
     atom   21 type  1   force =    -0.00089751   -0.00030450    0.00011813
     atom   22 type  2   force =    -0.00979919   -0.00015445   -0.00010821
     atom   23 type  2   force =    -0.00019958    0.00024197    0.00053986
     atom   24 type  1   force =     0.00467868   -0.05310779   -0.00060074
     atom   25 type  1   force =     0.00485503    0.05325449   -0.00060275
     atom   26 type  1   force =    -0.00034427   -0.00001786    0.00021027
     atom   27 type  3   force =    -0.00001113    0.00013206   -0.00016322
     atom   28 type  3   force =    -0.00002503    0.00045476   -0.00022533
     atom   29 type  3   force =     0.00007661    0.00010447    0.00041455
     atom   30 type  3   force =     0.00012096   -0.00001147    0.00037468
     atom   31 type  1   force =    -0.00032311   -0.00001072   -0.00012147

     Total force =     0.002129     Total SCF correction =     0.000174

     bfgs converged in  22 scf cycles and  21 bfgs steps
     (criteria: energy < 0.10E-03, force < 0.10E-02)

     End of BFGS Geometry Optimization

     Final energy   =   -2022.6595862665 Ry
Begin final coordinates

ATOMIC_POSITIONS (crystal)
O0       0.000000000   0.000000000   0.373443501    0   0   1
O0       0.000000000   0.500000000   0.394987571    0   0   1
Cr1      0.250000000   0.500000000   0.447701629    0   0   1
Cr1      0.000000000   0.000000000   0.448357655    0   0   1
O0       0.250000000   0.800000000   0.448024619    0   0   1
O0       0.250000000   0.200000000   0.447996891    0   0   1
O0       0.000000000   0.500000000   0.496304752    0   0   1
O0       0.000000000   0.000000000   0.524713324    0   0   1
Cr1      0.250000000   0.000000000   0.576256555    0   0   1
Cr1      0.000000000   0.500000000   0.566129924    0   0   1
O0       0.250000000   0.700000000   0.577198605    0   0   1
O0       0.250000000   0.300000000   0.577171109    0   0   1
O0       0.000000000   0.000000000   0.624165677    0   0   1
O0       0.500000000   0.000000000   0.373826929    0   0   1
O0       0.500000000   0.500000000   0.395250442    0   0   1
Cr1      0.750000000   0.500000000   0.447699438    0   0   1
Cr1      0.500000000   0.000000000   0.448974404    0   0   1
O0       0.750000000   0.800000000   0.447958568    0   0   1
O0       0.750000000   0.200000000   0.447996036    0   0   1
O0       0.500000000   0.500000000   0.499455973    0   0   1
O0       0.500000000   0.000000000   0.524863558    0   0   1
Cr1      0.750000000   0.000000000   0.576242225    0   0   1
Cr1      0.500000000   0.500000000   0.589140036    0   0   1
O0       0.750000000   0.700000000   0.577283646    0   0   1
O0       0.750000000   0.300000000   0.577287051    0   0   1
O0       0.500000000   0.000000000   0.624209538    0   0   1
H2      -0.000758976   0.636253567   0.375374297
H2       0.499318845   0.637040111   0.375932228
H2       0.158892501   0.026485880   0.360819230
H2       0.658776984   0.026426181   0.361131778
O0       0.500345798   0.499704070   0.652932808
End final coordinates



     init_run     :    123.08s CPU    126.39s WALL (       1 calls)
     electrons    : 112208.64s CPU 116660.86s WALL (      22 calls)
     update_pot   :    407.13s CPU    430.89s WALL (      21 calls)
     forces       :   4302.15s CPU   4463.75s WALL (      22 calls)

     Called by init_run:
     wfcinit      :     53.00s CPU     54.66s WALL (       1 calls)
     potinit      :      8.34s CPU      8.67s WALL (       1 calls)

     Called by electrons:
     c_bands      :  62574.15s CPU  65055.47s WALL (     478 calls)
     sum_band     :  25218.96s CPU  26205.19s WALL (     478 calls)
     v_of_rho     :   1062.59s CPU   1216.80s WALL (     498 calls)
     newd         :  23646.87s CPU  23772.59s WALL (     498 calls)
     mix_rho      :    183.77s CPU    189.49s WALL (     478 calls)

     Called by c_bands:
     init_us_2    :    137.84s CPU    139.14s WALL (    5115 calls)
     cegterg      :  61223.14s CPU  62955.36s WALL (    2390 calls)

     Called by *egterg:
     h_psi        :  34680.09s CPU  35737.06s WALL (    6363 calls)
     s_psi        :   3894.44s CPU   3949.94s WALL (    6583 calls)
     g_psi        :     84.53s CPU     84.84s WALL (    3968 calls)
     cdiaghg      :   5615.46s CPU   5645.29s WALL (    6243 calls)

     Called by h_psi:
     add_vuspsi   :   3794.77s CPU   3853.71s WALL (    6363 calls)
     vhpsi        :   3390.42s CPU   3445.18s WALL (    6363 calls)

     General routines
     calbec       :   8901.18s CPU   9021.89s WALL (   48636 calls)
     fft          :   1172.02s CPU   1447.56s WALL (   15652 calls)
     ffts         :     14.14s CPU     14.91s WALL (    1952 calls)
     fftw         :  19789.82s CPU  20895.60s WALL ( 4123044 calls)
     interpolate  :    140.98s CPU    143.33s WALL (    1952 calls)
     davcio       :      0.46s CPU     72.27s WALL (    5225 calls)

     Parallel routines
     fft_scatter  :   7221.65s CPU   8520.90s WALL ( 4140648 calls)
     Hubbard U routines
     new_ns       :    796.56s CPU    846.75s WALL (     478 calls)
     vhpsi        :   3390.42s CPU   3445.18s WALL (    6363 calls)
     force_hub    :   1114.70s CPU   1154.68s WALL (      22 calls)

     PWSCF        :     1d    8h48m CPU        1d   10h 6m WALL


   This run was terminated on:  11:13:31  14May2014            

=------------------------------------------------------------------------------=
   JOB DONE.
=------------------------------------------------------------------------------=
---------------------------------------
Running PBS batch system epilogue script
Job id: 351132.audhumbla.fysik.dtu.dk
Username: zhonxu
Groupname: campgst
Jobname: CrO2/Eads-2-layers/O-U-6.5
Sessionid: 17943
Resources limits: neednodes=2:ppn=8:xeon8,nodes=2:ppn=8:xeon8,walltime=48:00:00
Resources used: cput=543:53:12,mem=17315452kb,vmem=21249300kb,walltime=34:06:27
Queuename: verylong
Accounting:
This job has allocated the following 16 nodes:
d077 d077 d077 d077 d077 d077 d077 d077 d043 d043 d043 d043 d043 d043 d043 d043
Finished epilogue job 351132.audhumbla.fysik.dtu.dk for zhonxu
