
     Program PWSCF v.5.0.2 (svn rev. 9656) starts on 23May2014 at 23:20:46 

     This program is part of the open-source Quantum ESPRESSO suite
     for quantum simulation of materials; please cite
         "P. Giannozzi et al., J. Phys.:Condens. Matter 21 395502 (2009);
          URL http://www.quantum-espresso.org", 
     in publications or presentations arising from this work. More details at
     http://www.quantum-espresso.org/quote.php

     Parallel version (MPI), running on    16 processors
     K-points division:     npool     =       4
     R & G space division:  proc/nbgrp/npool/nimage =       4

     Current dimensions of program PWSCF are:
     Max number of different atomic species (ntypx) = 10
     Max number of k-points (npk) =  40000
     Max angular momentum in pseudopotentials (lmaxx) =  3
     Reading input from pwscf.in
Warning: card &CELL ignored
Warning: card / ignored

     Subspace diagonalization in iterative solution of the eigenvalue problem:
     a serial algorithm will be used


     Parallelization info
     --------------------
     sticks:   dense  smooth     PW     G-vecs:    dense   smooth      PW
     Min        1244     397    112               291872    52833    7934
     Max        1245     398    113               291883    52857    7939
     Sum        4979    1589    451              1167509   211387   31747



     bravais-lattice index     =            0
     lattice parameter (alat)  =      10.7336  a.u.
     unit-cell volume          =    6184.1966 (a.u.)^3
     number of atoms/cell      =           33
     number of atomic types    =            3
     number of electrons       =       245.00 (up: 134.00, down: 111.00)
     number of Kohn-Sham states=          355
     kinetic-energy cutoff     =      40.0000  Ry
     charge density cutoff     =     500.0000  Ry
     convergence threshold     =      1.0E-06
     mixing beta               =       0.7000
     number of iterations used =            8  plain     mixing
     Exchange-correlation      = SLA  PW   PBE  PBE ( 1 4 3 4 0)
     EXX-fraction              =        0.00
     nstep                     =           50


     celldm(1)=  10.733644  celldm(2)=   0.000000  celldm(3)=   0.000000
     celldm(4)=   0.000000  celldm(5)=   0.000000  celldm(6)=   0.000000

     crystal axes: (cart. coord. in units of alat)
               a(1) = (   1.000000   0.000000   0.000000 )  
               a(2) = (   0.000000   1.085558   0.000000 )  
               a(3) = (   0.000000   0.000000   4.606685 )  

     reciprocal axes: (cart. coord. in units 2 pi/alat)
               b(1) = (  1.000000  0.000000  0.000000 )  
               b(2) = (  0.000000  0.921185  0.000000 )  
               b(3) = (  0.000000  0.000000  0.217076 )  


     PseudoPot. # 1 for O  read from file:
     /home/camp/zhonxu/pseudo/o_pbe_v1.01.uspp.F.UPF
     MD5 check sum: 2bcb18d16ea4b960afae9ec6d52f22d2
     Pseudo is Ultrasoft + core correction, Zval =  6.0
     Generated by new atomic code, or converted to UPF format
     Using radial grid of  737 points,  5 beta functions with: 
                l(1) =   0
                l(2) =   0
                l(3) =   1
                l(4) =   1
                l(5) =   2
     Q(r) pseudized with  8 coefficients,  rinner =    0.900   0.900   0.900
                                                       0.900   0.900

     PseudoPot. # 2 for Mn read from file:
     /home/camp/zhonxu/pseudo/mn_pbe_v1.uspp.F.UPF
     MD5 check sum: 5fd7c7b5c956fd19902447332617373a
     Pseudo is Ultrasoft + core correction, Zval = 15.0
     Generated by new atomic code, or converted to UPF format
     Using radial grid of  859 points,  6 beta functions with: 
                l(1) =   0
                l(2) =   0
                l(3) =   1
                l(4) =   1
                l(5) =   2
                l(6) =   2
     Q(r) pseudized with  6 coefficients,  rinner =    1.150   1.150   1.150
                                                       1.150   1.150

     PseudoPot. # 3 for H  read from file:
     /home/camp/zhonxu/pseudo/h_pbe_v1.uspp.F.UPF
     MD5 check sum: 3408e3ff4ec8b0a4e358431e7e038a48
     Pseudo is Ultrasoft, Zval =  1.0
     Generated by new atomic code, or converted to UPF format
     Using radial grid of  615 points,  2 beta functions with: 
                l(1) =   0
                l(2) =   0
     Q(r) pseudized with  8 coefficients,  rinner =    0.700

     atomic species   valence    mass     pseudopotential
        O0             6.00    15.99940     O ( 1.00)
        Mn1           15.00    54.93800     Mn( 1.00)
        H2             1.00     1.00794     H ( 1.00)

     Starting magnetic structure 
     atomic species   magnetization
        O0           0.000
        Mn1          0.600
        H2           0.000

     No symmetry found



   Cartesian axes

     site n.     atom                  positions (alat units)
         1           O0  tau(   1) = (   0.0000000   0.0000000   1.7449202  )
         2           O0  tau(   2) = (   0.0000000   0.5427791   1.8462672  )
         3           Mn1 tau(   3) = (   0.2500000   0.5427791   2.0818531  )
         4           Mn1 tau(   4) = (   0.0000000   0.0000000   2.0726858  )
         5           O0  tau(   5) = (   0.2500000   0.8684466   2.0715341  )
         6           O0  tau(   6) = (   0.2500000   0.2171117   2.0779835  )
         7           O0  tau(   7) = (   0.0000000   0.5427791   2.2945898  )
         8           O0  tau(   8) = (   0.0000000   0.0000000   2.4157917  )
         9           Mn1 tau(   9) = (   0.2500000   0.0000000   2.6427170  )
        10           Mn1 tau(  10) = (   0.0000000   0.5427791   2.6182555  )
        11           O0  tau(  11) = (   0.2500000   0.7598908   2.6495810  )
        12           O0  tau(  12) = (   0.2500000   0.3256675   2.6662572  )
        13           O0  tau(  13) = (   0.0000000   0.0000000   2.8442595  )
        14           O0  tau(  14) = (   0.5000000   0.0000000   1.7458415  )
        15           O0  tau(  15) = (   0.5000000   0.5427791   1.8470043  )
        16           Mn1 tau(  16) = (   0.7500000   0.5427791   2.0818531  )
        17           Mn1 tau(  17) = (   0.5000000   0.0000000   2.0739296  )
        18           O0  tau(  18) = (   0.7500000   0.8684466   2.0713959  )
        19           O0  tau(  19) = (   0.7500000   0.2171117   2.0782138  )
        20           O0  tau(  20) = (   0.5000000   0.5427791   2.2981370  )
        21           O0  tau(  21) = (   0.5000000   0.0000000   2.4156996  )
        22           Mn1 tau(  22) = (   0.7500000   0.0000000   2.6427631  )
        23           Mn1 tau(  23) = (   0.5000000   0.5427791   2.6658426  )
        24           O0  tau(  24) = (   0.7500000   0.7598908   2.6495810  )
        25           O0  tau(  25) = (   0.7500000   0.3256675   2.6663493  )
        26           O0  tau(  26) = (   0.5000000   0.0000000   2.8417719  )
        27           H2  tau(  27) = (   0.0000700   0.7015312   1.7705794  )
        28           H2  tau(  28) = (   0.5000800   0.7016832   1.7715468  )
        29           H2  tau(  29) = (   0.1610600   0.0395903   1.6895478  )
        30           H2  tau(  30) = (   0.6611300   0.0397314   1.6906995  )
        31           O0  tau(  31) = (   0.4998600   0.5821958   2.9857769  )
        32           O0  tau(  32) = (   0.5002900   0.3680151   3.1195089  )
        33           H2  tau(  33) = (   0.4998600   0.4354934   3.2798216  )

     number of k points=    20  Methfessel-Paxton smearing, width (Ry)=  0.0100
                       cart. coord. in units 2pi/alat
        k(    1) = (   0.0000000   0.0000000   0.0000000), wk =   0.0625000
        k(    2) = (   0.0000000   0.2302962   0.0000000), wk =   0.1250000
        k(    3) = (   0.0000000  -0.4605925   0.0000000), wk =   0.0625000
        k(    4) = (   0.2500000   0.0000000   0.0000000), wk =   0.1250000
        k(    5) = (   0.2500000   0.2302962   0.0000000), wk =   0.1250000
        k(    6) = (   0.2500000  -0.4605925   0.0000000), wk =   0.1250000
        k(    7) = (  -0.5000000   0.0000000   0.0000000), wk =   0.0625000
        k(    8) = (  -0.5000000   0.2302962   0.0000000), wk =   0.1250000
        k(    9) = (  -0.5000000  -0.4605925   0.0000000), wk =   0.0625000
        k(   10) = (  -0.2500000   0.2302962   0.0000000), wk =   0.1250000
        k(   11) = (   0.0000000   0.0000000   0.0000000), wk =   0.0625000
        k(   12) = (   0.0000000   0.2302962   0.0000000), wk =   0.1250000
        k(   13) = (   0.0000000  -0.4605925   0.0000000), wk =   0.0625000
        k(   14) = (   0.2500000   0.0000000   0.0000000), wk =   0.1250000
        k(   15) = (   0.2500000   0.2302962   0.0000000), wk =   0.1250000
        k(   16) = (   0.2500000  -0.4605925   0.0000000), wk =   0.1250000
        k(   17) = (  -0.5000000   0.0000000   0.0000000), wk =   0.0625000
        k(   18) = (  -0.5000000   0.2302962   0.0000000), wk =   0.1250000
        k(   19) = (  -0.5000000  -0.4605925   0.0000000), wk =   0.0625000
        k(   20) = (  -0.2500000   0.2302962   0.0000000), wk =   0.1250000

     Dense  grid:  1167509 G-vectors     FFT dimensions: (  80,  90, 360)

     Smooth grid:   211387 G-vectors     FFT dimensions: (  45,  48, 200)

     Largest allocated arrays     est. size (Mb)     dimensions
        Kohn-Sham Wavefunctions        35.97 Mb     (   6641,  355)
        NL pseudopotentials            41.95 Mb     (   6641,  414)
        Each V/rho on FFT grid         19.78 Mb     ( 648000,   2)
        Each G-vector array             2.23 Mb     ( 291883)
        G-vector shells                 0.97 Mb     ( 127585)
     Largest temporary arrays     est. size (Mb)     dimensions
        Auxiliary wavefunctions       143.89 Mb     (   6641, 1420)
        Each subspace H/S matrix       30.77 Mb     (1420,1420)
        Each <psi_i|beta_j> matrix      2.24 Mb     (    414,  355)
        Arrays for rho mixing          79.10 Mb     ( 648000,   8)

     Check: negative/imaginary core charge=   -0.000022    0.000000

     Initial potential from superposition of free atoms
     Check: negative starting charge=(component1):   -0.000647
     Check: negative starting charge=(component2):   -0.000358

     starting charge  236.99986, renormalised to  245.00000

     negative rho (up, down):  0.668E-03 0.370E-03
     Starting wfc are  189 randomized atomic wfcs

     total cpu time spent up to now is      113.9 secs

     per-process dynamical memory:   456.6 Mb

     Self-consistent Calculation

     iteration #  1     ecut=    40.00 Ry     beta=0.70
     Davidson diagonalization with overlap
     ethr =  1.00E-02,  avg # of iterations =  5.5

     negative rho (up, down):  0.119E-02 0.954E-03

     total cpu time spent up to now is      608.6 secs

     total energy              =   -2345.41483914 Ry
     Harris-Foulkes estimate   =   -2352.00177918 Ry
     estimated scf accuracy    <      18.14832916 Ry

     total magnetization       =    23.00 Bohr mag/cell
     absolute magnetization    =    35.36 Bohr mag/cell

     iteration #  2     ecut=    40.00 Ry     beta=0.70
     Davidson diagonalization with overlap
     ethr =  7.41E-03,  avg # of iterations =  5.0

     negative rho (up, down):  0.211E-02 0.215E-02

     total cpu time spent up to now is      956.4 secs

     total energy              =   -2263.37879324 Ry
     Harris-Foulkes estimate   =   -2420.76664968 Ry
     estimated scf accuracy    <    2427.96848667 Ry

     total magnetization       =    23.00 Bohr mag/cell
     absolute magnetization    =    23.60 Bohr mag/cell

     iteration #  3     ecut=    40.00 Ry     beta=0.70
     Davidson diagonalization with overlap
     ethr =  7.41E-03,  avg # of iterations =  4.0

     negative rho (up, down):  0.422E-03 0.187E-02

     total cpu time spent up to now is     1317.4 secs

     total energy              =   -2330.23102940 Ry
     Harris-Foulkes estimate   =   -2370.28508605 Ry
     estimated scf accuracy    <     359.51016098 Ry

     total magnetization       =    23.00 Bohr mag/cell
     absolute magnetization    =    23.72 Bohr mag/cell

     iteration #  4     ecut=    40.00 Ry     beta=0.70
     Davidson diagonalization with overlap
     ethr =  7.41E-03,  avg # of iterations =  3.2

     negative rho (up, down):  0.403E-03 0.601E-02

     total cpu time spent up to now is     1597.3 secs

     total energy              =   -2343.86617316 Ry
     Harris-Foulkes estimate   =   -2361.72031774 Ry
     estimated scf accuracy    <     278.67543519 Ry

     total magnetization       =    23.00 Bohr mag/cell
     absolute magnetization    =    23.14 Bohr mag/cell

     iteration #  5     ecut=    40.00 Ry     beta=0.70
     Davidson diagonalization with overlap
     ethr =  7.41E-03,  avg # of iterations =  3.0

     negative rho (up, down):  0.119E-03 0.103E-02

     total cpu time spent up to now is     1845.4 secs

     total energy              =   -2353.21112674 Ry
     Harris-Foulkes estimate   =   -2356.27017532 Ry
     estimated scf accuracy    <      13.27678166 Ry

     total magnetization       =    23.00 Bohr mag/cell
     absolute magnetization    =    25.36 Bohr mag/cell

     iteration #  6     ecut=    40.00 Ry     beta=0.70
     Davidson diagonalization with overlap
     ethr =  5.42E-03,  avg # of iterations =  3.0

     negative rho (up, down):  0.109E-03 0.127E-02

     total cpu time spent up to now is     2093.2 secs

     total energy              =   -2352.28817712 Ry
     Harris-Foulkes estimate   =   -2355.64010024 Ry
     estimated scf accuracy    <      18.57957696 Ry

     total magnetization       =    23.00 Bohr mag/cell
     absolute magnetization    =    26.92 Bohr mag/cell

     iteration #  7     ecut=    40.00 Ry     beta=0.70
     Davidson diagonalization with overlap
     ethr =  5.42E-03,  avg # of iterations =  1.1

     negative rho (up, down):  0.240E-03 0.149E-02

     total cpu time spent up to now is     2317.9 secs

     total energy              =   -2353.07085896 Ry
     Harris-Foulkes estimate   =   -2355.76214729 Ry
     estimated scf accuracy    <      21.10227124 Ry

     total magnetization       =    23.00 Bohr mag/cell
     absolute magnetization    =    23.44 Bohr mag/cell

     iteration #  8     ecut=    40.00 Ry     beta=0.70
     Davidson diagonalization with overlap
     ethr =  5.42E-03,  avg # of iterations =  1.0

     negative rho (up, down):  0.568E-04 0.121E-02

     total cpu time spent up to now is     2545.3 secs

     total energy              =   -2354.22473145 Ry
     Harris-Foulkes estimate   =   -2354.87514827 Ry
     estimated scf accuracy    <       3.86745662 Ry

     total magnetization       =    23.00 Bohr mag/cell
     absolute magnetization    =    24.02 Bohr mag/cell

     iteration #  9     ecut=    40.00 Ry     beta=0.70
     Davidson diagonalization with overlap
     ethr =  1.58E-03,  avg # of iterations =  1.0

     negative rho (up, down):  0.357E-03 0.125E-02

     total cpu time spent up to now is     2769.7 secs

     total energy              =   -2354.41329309 Ry
     Harris-Foulkes estimate   =   -2354.68814063 Ry
     estimated scf accuracy    <       2.42817771 Ry

     total magnetization       =    23.00 Bohr mag/cell
     absolute magnetization    =    23.92 Bohr mag/cell

     iteration # 10     ecut=    40.00 Ry     beta=0.70
     Davidson diagonalization with overlap
     ethr =  9.91E-04,  avg # of iterations =  1.3

     negative rho (up, down):  0.330E-03 0.952E-03

     total cpu time spent up to now is     2988.2 secs

     total energy              =   -2354.37636398 Ry
     Harris-Foulkes estimate   =   -2354.51064277 Ry
     estimated scf accuracy    <       1.11583517 Ry

     total magnetization       =    23.00 Bohr mag/cell
     absolute magnetization    =    23.91 Bohr mag/cell

     iteration # 11     ecut=    40.00 Ry     beta=0.70
     Davidson diagonalization with overlap
     ethr =  4.55E-04,  avg # of iterations =  4.7

     negative rho (up, down):  0.521E-03 0.734E-03

     total cpu time spent up to now is     3236.5 secs

     total energy              =   -2354.19356540 Ry
     Harris-Foulkes estimate   =   -2354.45588388 Ry
     estimated scf accuracy    <       0.73492978 Ry

     total magnetization       =    23.00 Bohr mag/cell
     absolute magnetization    =    24.04 Bohr mag/cell

     iteration # 12     ecut=    40.00 Ry     beta=0.70
     Davidson diagonalization with overlap
     ethr =  3.00E-04,  avg # of iterations =  6.3

     negative rho (up, down):  0.503E-03 0.737E-03

     total cpu time spent up to now is     3538.7 secs

     total energy              =   -2354.18546023 Ry
     Harris-Foulkes estimate   =   -2354.38695356 Ry
     estimated scf accuracy    <       0.71559837 Ry

     total magnetization       =    23.00 Bohr mag/cell
     absolute magnetization    =    23.87 Bohr mag/cell

     iteration # 13     ecut=    40.00 Ry     beta=0.70
     Davidson diagonalization with overlap
     ethr =  2.92E-04,  avg # of iterations =  2.8

     negative rho (up, down):  0.545E-03 0.644E-03

     total cpu time spent up to now is     3759.9 secs

     total energy              =   -2354.22945095 Ry
     Harris-Foulkes estimate   =   -2354.36221847 Ry
     estimated scf accuracy    <       0.51644436 Ry

     total magnetization       =    23.00 Bohr mag/cell
     absolute magnetization    =    23.91 Bohr mag/cell

     iteration # 14     ecut=    40.00 Ry     beta=0.70
     Davidson diagonalization with overlap
     ethr =  2.11E-04,  avg # of iterations =  1.4

     negative rho (up, down):  0.597E-03 0.648E-03

     total cpu time spent up to now is     3969.1 secs

     total energy              =   -2354.27123191 Ry
     Harris-Foulkes estimate   =   -2354.33762214 Ry
     estimated scf accuracy    <       0.34161778 Ry

     total magnetization       =    23.00 Bohr mag/cell
     absolute magnetization    =    23.94 Bohr mag/cell

     iteration # 15     ecut=    40.00 Ry     beta=0.70
     Davidson diagonalization with overlap
     ethr =  1.39E-04,  avg # of iterations =  1.7

     negative rho (up, down):  0.104E-02 0.823E-03

     total cpu time spent up to now is     4182.3 secs

     total energy              =   -2354.29681807 Ry
     Harris-Foulkes estimate   =   -2354.31046942 Ry
     estimated scf accuracy    <       0.05389846 Ry

     total magnetization       =    23.00 Bohr mag/cell
     absolute magnetization    =    23.98 Bohr mag/cell

     iteration # 16     ecut=    40.00 Ry     beta=0.70
     Davidson diagonalization with overlap
     ethr =  2.20E-05,  avg # of iterations =  5.8

     negative rho (up, down):  0.202E-02 0.108E-02

     total cpu time spent up to now is     4437.4 secs

     total energy              =   -2354.28479093 Ry
     Harris-Foulkes estimate   =   -2354.32926676 Ry
     estimated scf accuracy    <       0.58415960 Ry

     total magnetization       =    23.00 Bohr mag/cell
     absolute magnetization    =    24.54 Bohr mag/cell

     iteration # 17     ecut=    40.00 Ry     beta=0.70
     Davidson diagonalization with overlap
     ethr =  2.20E-05,  avg # of iterations =  4.0

     negative rho (up, down):  0.212E-02 0.104E-02

     total cpu time spent up to now is     4679.1 secs

     total energy              =   -2354.29575119 Ry
     Harris-Foulkes estimate   =   -2354.31379059 Ry
     estimated scf accuracy    <       0.10507347 Ry

     total magnetization       =    23.00 Bohr mag/cell
     absolute magnetization    =    23.94 Bohr mag/cell

     iteration # 18     ecut=    40.00 Ry     beta=0.70
     Davidson diagonalization with overlap
     ethr =  2.20E-05,  avg # of iterations =  4.2

     negative rho (up, down):  0.269E-02 0.134E-02

     total cpu time spent up to now is     4919.8 secs

     total energy              =   -2354.28671661 Ry
     Harris-Foulkes estimate   =   -2354.32243978 Ry
     estimated scf accuracy    <       0.25499872 Ry

     total magnetization       =    23.00 Bohr mag/cell
     absolute magnetization    =    23.98 Bohr mag/cell

     iteration # 19     ecut=    40.00 Ry     beta=0.70
     Davidson diagonalization with overlap
     ethr =  2.20E-05,  avg # of iterations =  2.8

     negative rho (up, down):  0.109E-02 0.865E-03

     total cpu time spent up to now is     5149.1 secs

     total energy              =   -2354.30247494 Ry
     Harris-Foulkes estimate   =   -2354.31006664 Ry
     estimated scf accuracy    <       0.05608066 Ry

     total magnetization       =    23.00 Bohr mag/cell
     absolute magnetization    =    23.95 Bohr mag/cell

     iteration # 20     ecut=    40.00 Ry     beta=0.70
     Davidson diagonalization with overlap
     ethr =  2.20E-05,  avg # of iterations =  2.0

     negative rho (up, down):  0.112E-02 0.885E-03

     total cpu time spent up to now is     5367.3 secs

     total energy              =   -2354.30307158 Ry
     Harris-Foulkes estimate   =   -2354.31019811 Ry
     estimated scf accuracy    <       0.05202931 Ry

     total magnetization       =    23.00 Bohr mag/cell
     absolute magnetization    =    23.97 Bohr mag/cell

     iteration # 21     ecut=    40.00 Ry     beta=0.70
     Davidson diagonalization with overlap
     ethr =  2.12E-05,  avg # of iterations =  1.0

     negative rho (up, down):  0.132E-02 0.961E-03

     total cpu time spent up to now is     5578.6 secs

     total energy              =   -2354.30606639 Ry
     Harris-Foulkes estimate   =   -2354.30707477 Ry
     estimated scf accuracy    <       0.00714086 Ry

     total magnetization       =    23.00 Bohr mag/cell
     absolute magnetization    =    23.97 Bohr mag/cell

     iteration # 22     ecut=    40.00 Ry     beta=0.70
     Davidson diagonalization with overlap
     ethr =  2.91E-06,  avg # of iterations =  2.1

     negative rho (up, down):  0.184E-02 0.113E-02

     total cpu time spent up to now is     5810.3 secs

     total energy              =   -2354.30605623 Ry
     Harris-Foulkes estimate   =   -2354.30724827 Ry
     estimated scf accuracy    <       0.00862520 Ry

     total magnetization       =    23.00 Bohr mag/cell
     absolute magnetization    =    23.96 Bohr mag/cell

     iteration # 23     ecut=    40.00 Ry     beta=0.70
     Davidson diagonalization with overlap
     ethr =  2.91E-06,  avg # of iterations =  1.0

     negative rho (up, down):  0.181E-02 0.113E-02

     total cpu time spent up to now is     6027.4 secs

     total energy              =   -2354.30653361 Ry
     Harris-Foulkes estimate   =   -2354.30682257 Ry
     estimated scf accuracy    <       0.00173591 Ry

     total magnetization       =    23.00 Bohr mag/cell
     absolute magnetization    =    23.97 Bohr mag/cell

     iteration # 24     ecut=    40.00 Ry     beta=0.70
     Davidson diagonalization with overlap
     ethr =  7.09E-07,  avg # of iterations =  1.3

     negative rho (up, down):  0.193E-02 0.116E-02

     total cpu time spent up to now is     6247.1 secs

     total energy              =   -2354.30652267 Ry
     Harris-Foulkes estimate   =   -2354.30686466 Ry
     estimated scf accuracy    <       0.00198259 Ry

     total magnetization       =    23.00 Bohr mag/cell
     absolute magnetization    =    23.96 Bohr mag/cell

     iteration # 25     ecut=    40.00 Ry     beta=0.70
     Davidson diagonalization with overlap
     ethr =  7.09E-07,  avg # of iterations =  1.0

     negative rho (up, down):  0.220E-02 0.125E-02

     total cpu time spent up to now is     6462.1 secs

     total energy              =   -2354.30658522 Ry
     Harris-Foulkes estimate   =   -2354.30675401 Ry
     estimated scf accuracy    <       0.00074535 Ry

     total magnetization       =    23.00 Bohr mag/cell
     absolute magnetization    =    23.96 Bohr mag/cell

     iteration # 26     ecut=    40.00 Ry     beta=0.70
     Davidson diagonalization with overlap
     ethr =  3.04E-07,  avg # of iterations =  1.7

     negative rho (up, down):  0.211E-02 0.122E-02

     total cpu time spent up to now is     6682.6 secs

     total energy              =   -2354.30609439 Ry
     Harris-Foulkes estimate   =   -2354.30724874 Ry
     estimated scf accuracy    <       0.01135614 Ry

     total magnetization       =    23.00 Bohr mag/cell
     absolute magnetization    =    23.96 Bohr mag/cell

     iteration # 27     ecut=    40.00 Ry     beta=0.70
     Davidson diagonalization with overlap
     ethr =  3.04E-07,  avg # of iterations =  1.4

     negative rho (up, down):  0.216E-02 0.124E-02

     total cpu time spent up to now is     6898.0 secs

     total energy              =   -2354.30663473 Ry
     Harris-Foulkes estimate   =   -2354.30680074 Ry
     estimated scf accuracy    <       0.00118995 Ry

     total magnetization       =    23.00 Bohr mag/cell
     absolute magnetization    =    23.97 Bohr mag/cell

     iteration # 28     ecut=    40.00 Ry     beta=0.70
     Davidson diagonalization with overlap
     ethr =  3.04E-07,  avg # of iterations =  1.0

     negative rho (up, down):  0.216E-02 0.123E-02

     total cpu time spent up to now is     7112.9 secs

     total energy              =   -2354.30667434 Ry
     Harris-Foulkes estimate   =   -2354.30676152 Ry
     estimated scf accuracy    <       0.00047579 Ry

     total magnetization       =    23.00 Bohr mag/cell
     absolute magnetization    =    23.96 Bohr mag/cell

     iteration # 29     ecut=    40.00 Ry     beta=0.70
     Davidson diagonalization with overlap
     ethr =  1.94E-07,  avg # of iterations =  1.1

     negative rho (up, down):  0.215E-02 0.123E-02

     total cpu time spent up to now is     7328.1 secs

     total energy              =   -2354.30658875 Ry
     Harris-Foulkes estimate   =   -2354.30684503 Ry
     estimated scf accuracy    <       0.00159711 Ry

     total magnetization       =    23.00 Bohr mag/cell
     absolute magnetization    =    23.96 Bohr mag/cell

     iteration # 30     ecut=    40.00 Ry     beta=0.70
     Davidson diagonalization with overlap
     ethr =  1.94E-07,  avg # of iterations =  1.0

     negative rho (up, down):  0.213E-02 0.122E-02

     total cpu time spent up to now is     7543.2 secs

     total energy              =   -2354.30668010 Ry
     Harris-Foulkes estimate   =   -2354.30676697 Ry
     estimated scf accuracy    <       0.00067195 Ry

     total magnetization       =    23.00 Bohr mag/cell
     absolute magnetization    =    23.96 Bohr mag/cell

     iteration # 31     ecut=    40.00 Ry     beta=0.70
     Davidson diagonalization with overlap
     ethr =  1.94E-07,  avg # of iterations =  1.0

     negative rho (up, down):  0.214E-02 0.123E-02

     total cpu time spent up to now is     7760.3 secs

     total energy              =   -2354.30670402 Ry
     Harris-Foulkes estimate   =   -2354.30674788 Ry
     estimated scf accuracy    <       0.00031096 Ry

     total magnetization       =    23.00 Bohr mag/cell
     absolute magnetization    =    23.96 Bohr mag/cell

     iteration # 32     ecut=    40.00 Ry     beta=0.70
     Davidson diagonalization with overlap
     ethr =  1.27E-07,  avg # of iterations =  1.0

     negative rho (up, down):  0.215E-02 0.123E-02

     total cpu time spent up to now is     7976.7 secs

     total energy              =   -2354.30672260 Ry
     Harris-Foulkes estimate   =   -2354.30673100 Ry
     estimated scf accuracy    <       0.00006385 Ry

     total magnetization       =    23.00 Bohr mag/cell
     absolute magnetization    =    23.96 Bohr mag/cell

     iteration # 33     ecut=    40.00 Ry     beta=0.70
     Davidson diagonalization with overlap
     ethr =  2.61E-08,  avg # of iterations =  1.0

     negative rho (up, down):  0.216E-02 0.123E-02

     total cpu time spent up to now is     8192.2 secs

     total energy              =   -2354.30672654 Ry
     Harris-Foulkes estimate   =   -2354.30672896 Ry
     estimated scf accuracy    <       0.00003336 Ry

     total magnetization       =    23.00 Bohr mag/cell
     absolute magnetization    =    23.96 Bohr mag/cell

     iteration # 34     ecut=    40.00 Ry     beta=0.70
     Davidson diagonalization with overlap
     ethr =  1.36E-08,  avg # of iterations =  1.0

     negative rho (up, down):  0.216E-02 0.123E-02

     total cpu time spent up to now is     8402.9 secs

     total energy              =   -2354.30672666 Ry
     Harris-Foulkes estimate   =   -2354.30672920 Ry
     estimated scf accuracy    <       0.00002028 Ry

     total magnetization       =    23.00 Bohr mag/cell
     absolute magnetization    =    23.96 Bohr mag/cell

     iteration # 35     ecut=    40.00 Ry     beta=0.70
     Davidson diagonalization with overlap
     ethr =  8.28E-09,  avg # of iterations =  1.0

     negative rho (up, down):  0.217E-02 0.124E-02

     total cpu time spent up to now is     8617.1 secs

     total energy              =   -2354.30672641 Ry
     Harris-Foulkes estimate   =   -2354.30672849 Ry
     estimated scf accuracy    <       0.00001070 Ry

     total magnetization       =    23.00 Bohr mag/cell
     absolute magnetization    =    23.96 Bohr mag/cell

     iteration # 36     ecut=    40.00 Ry     beta=0.70
     Davidson diagonalization with overlap
     ethr =  4.37E-09,  avg # of iterations =  1.9

     negative rho (up, down):  0.217E-02 0.124E-02

     total cpu time spent up to now is     8840.1 secs

     total energy              =   -2354.30672024 Ry
     Harris-Foulkes estimate   =   -2354.30673698 Ry
     estimated scf accuracy    <       0.00010247 Ry

     total magnetization       =    23.00 Bohr mag/cell
     absolute magnetization    =    23.96 Bohr mag/cell

     iteration # 37     ecut=    40.00 Ry     beta=0.70
     Davidson diagonalization with overlap
     ethr =  4.37E-09,  avg # of iterations =  2.0

     negative rho (up, down):  0.217E-02 0.123E-02

     total cpu time spent up to now is     9061.7 secs

     total energy              =   -2354.30672405 Ry
     Harris-Foulkes estimate   =   -2354.30673310 Ry
     estimated scf accuracy    <       0.00007254 Ry

     total magnetization       =    23.00 Bohr mag/cell
     absolute magnetization    =    23.96 Bohr mag/cell

     iteration # 38     ecut=    40.00 Ry     beta=0.70
     Davidson diagonalization with overlap
     ethr =  4.37E-09,  avg # of iterations =  1.3

     negative rho (up, down):  0.217E-02 0.124E-02

     total cpu time spent up to now is     9276.4 secs

     total energy              =   -2354.30672855 Ry
     Harris-Foulkes estimate   =   -2354.30672888 Ry
     estimated scf accuracy    <       0.00000334 Ry

     total magnetization       =    23.00 Bohr mag/cell
     absolute magnetization    =    23.96 Bohr mag/cell

     iteration # 39     ecut=    40.00 Ry     beta=0.70
     Davidson diagonalization with overlap
     ethr =  1.36E-09,  avg # of iterations =  1.0

     negative rho (up, down):  0.217E-02 0.124E-02

     total cpu time spent up to now is     9487.6 secs

     total energy              =   -2354.30672816 Ry
     Harris-Foulkes estimate   =   -2354.30672962 Ry
     estimated scf accuracy    <       0.00001012 Ry

     total magnetization       =    23.00 Bohr mag/cell
     absolute magnetization    =    23.96 Bohr mag/cell

     iteration # 40     ecut=    40.00 Ry     beta=0.70
     Davidson diagonalization with overlap
     ethr =  1.36E-09,  avg # of iterations =  1.1

     negative rho (up, down):  0.217E-02 0.124E-02

     total cpu time spent up to now is     9699.7 secs

     total energy              =   -2354.30672793 Ry
     Harris-Foulkes estimate   =   -2354.30672997 Ry
     estimated scf accuracy    <       0.00001327 Ry

     total magnetization       =    23.00 Bohr mag/cell
     absolute magnetization    =    23.96 Bohr mag/cell

     iteration # 41     ecut=    40.00 Ry     beta=0.70
     Davidson diagonalization with overlap
     ethr =  1.36E-09,  avg # of iterations =  1.0

     negative rho (up, down):  0.217E-02 0.124E-02

     total cpu time spent up to now is     9915.7 secs

     total energy              =   -2354.30672895 Ry
     Harris-Foulkes estimate   =   -2354.30672907 Ry
     estimated scf accuracy    <       0.00000187 Ry

     total magnetization       =    23.00 Bohr mag/cell
     absolute magnetization    =    23.96 Bohr mag/cell

     iteration # 42     ecut=    40.00 Ry     beta=0.70
     Davidson diagonalization with overlap
     ethr =  7.61E-10,  avg # of iterations =  1.0

     negative rho (up, down):  0.217E-02 0.124E-02

     total cpu time spent up to now is    10133.6 secs

     total energy              =   -2354.30672877 Ry
     Harris-Foulkes estimate   =   -2354.30672923 Ry
     estimated scf accuracy    <       0.00000227 Ry

     total magnetization       =    23.00 Bohr mag/cell
     absolute magnetization    =    23.96 Bohr mag/cell

     iteration # 43     ecut=    40.00 Ry     beta=0.70
     Davidson diagonalization with overlap
     ethr =  7.61E-10,  avg # of iterations =  1.5

     negative rho (up, down):  0.217E-02 0.124E-02

     total cpu time spent up to now is    10357.2 secs

     total energy              =   -2354.30672814 Ry
     Harris-Foulkes estimate   =   -2354.30673002 Ry
     estimated scf accuracy    <       0.00001273 Ry

     total magnetization       =    23.00 Bohr mag/cell
     absolute magnetization    =    23.96 Bohr mag/cell

     iteration # 44     ecut=    40.00 Ry     beta=0.70
     Davidson diagonalization with overlap
     ethr =  7.61E-10,  avg # of iterations =  1.5

     negative rho (up, down):  0.217E-02 0.124E-02

     total cpu time spent up to now is    10585.3 secs

     End of self-consistent calculation

 ------ SPIN UP ------------


          k = 0.0000 0.0000 0.0000 ( 26393 PWs)   bands (ev):

   -83.4959 -83.4860 -83.3455 -83.2144 -83.2023 -83.1991 -82.9932 -82.9827
   -52.3384 -52.2251 -52.1285 -52.1094 -52.1054 -52.1050 -52.0935 -52.0869
   -52.0059 -51.9991 -51.9713 -51.9661 -51.9111 -51.8928 -51.8904 -51.7492
   -51.7462 -51.7322 -51.7242 -51.7087 -51.6954 -51.6208 -51.5749 -51.5547
   -23.9278 -21.5073 -20.7964 -20.7823 -20.4688 -20.0923 -19.7606 -19.6826
   -19.6344 -19.4683 -19.4055 -19.3803 -19.3611 -19.2977 -19.2314 -19.1857
   -18.8025 -18.5499 -18.3752 -17.3871  -9.3729  -9.1535  -9.0631  -9.0201
    -8.8140  -8.5262  -7.9807  -7.9647  -7.9036  -7.8596  -7.7534  -7.7415
    -7.5978  -7.5808  -7.4594  -7.2645  -7.1813  -7.1320  -7.0530  -6.9990
    -6.9582  -6.7719  -6.6472  -6.6062  -6.5529  -6.3055  -6.1752  -6.1438
    -6.0893  -5.9375  -5.5639  -5.4310  -5.4098  -5.2475  -5.0820  -5.0414
    -4.9575  -4.9079  -4.8673  -4.7700  -4.5970  -4.5417  -4.3792  -4.3338
    -4.3049  -4.2607  -4.1613  -4.1437  -4.1022  -4.0200  -3.9412  -3.9276
    -3.8820  -3.8495  -3.7006  -3.5690  -3.4946  -3.4668  -3.4434  -3.3844
    -3.3324  -3.1991  -3.1600  -3.1440  -2.8591  -2.8386  -2.7706  -2.6673
    -2.5357  -2.3190  -2.2194  -2.1519  -2.0871  -1.9941  -1.9801  -1.8472
    -1.7991  -1.6510  -1.4467  -1.3604  -1.3086  -1.2937  -1.0939  -0.9852
    -0.5382  -0.0778   0.1915   0.3609   0.4167   0.5251   0.5296   0.7374
     0.9972   1.0428   1.3434   1.3870   1.7269   1.8367   2.0315   2.9651
     3.4447   3.6472   3.8354   4.3355   4.9283   5.5990   5.9982   6.5832
     6.7342   7.1600   7.2013   7.2497   7.4575   7.5132   7.6179   7.6944
     7.7557   7.7776   7.9404   8.1671   8.2587   8.3386   8.3534   8.5514
     8.6980   8.8965   8.9044   8.9263   9.0311   9.2992   9.5084   9.6753
     9.6803   9.7741   9.8466   9.9923  10.0586  10.1057  10.3415  10.4682
    10.4933  10.6987  10.7917  10.9054  11.0432  11.1298  11.1706  11.1976
    11.3043  11.3842  11.4472  11.5435  11.5812  11.7288  11.7688  11.8709
    11.9092  12.0601  12.1338  12.1802  12.1989  12.2173  12.2656  12.3579
    12.5030  12.5476  12.5582  12.6601  12.7419  12.8755  12.9263  13.0215
    13.0394  13.1316  13.2019  13.2836  13.3554  13.4043  13.5016  13.5302
    13.6188  13.6862  13.7273  13.7716  13.8142  13.9214  14.0759  14.0985
    14.2902  14.3670  14.4302  14.4486  14.5592  14.5989  14.6096  14.7762
    14.9751  15.0098  15.0496  15.0848  15.1477  15.2708  15.3233  15.3687
    15.4032  15.4554  15.5822  15.6395  15.7986  15.8239  15.9800  16.0465
    16.3664  16.4043  16.4646  16.5258  16.6465  16.7433  16.7907  16.9100
    16.9344  17.1578  17.1804  17.3195  17.4067  17.5594  17.6044  17.6972
    17.7497  17.9015  17.9618  17.9715  18.1660  18.3276  18.3776  18.4125
    18.5092  18.5472  18.6428  18.8893  18.9608  18.9857  19.0999  19.1493
    19.1971  19.3085  19.4095  19.4321  19.4481  19.5169  19.5666  19.6020
    19.7235  19.8042  19.9210  19.9347  20.0045  20.0336  20.1622  20.2358
    20.2581  20.3511  20.3806  20.5535  20.6475  20.7005  20.8214  20.8893
    21.0468  21.1184  21.1765  21.2142  21.3463  21.5030  21.5308  21.5520
    21.6018  21.7095  21.7202  21.8536  21.8954  21.9391  22.0560  22.1469
    22.1894  22.2360  22.2697  22.3663  22.4005  22.4487  22.4857  22.5911
    22.6004  22.6171  22.7842  22.8379  22.8988  22.9215  22.9977  23.1613
    23.2045  23.3022  23.3762

          k = 0.0000 0.2303 0.0000 ( 26455 PWs)   bands (ev):

   -83.4959 -83.4860 -83.3455 -83.2144 -83.2023 -83.1991 -82.9932 -82.9827
   -52.3384 -52.2252 -52.1285 -52.1097 -52.1058 -52.1045 -52.0968 -52.0829
   -52.0059 -51.9988 -51.9712 -51.9662 -51.9118 -51.8927 -51.8905 -51.7493
   -51.7461 -51.7328 -51.7239 -51.7087 -51.6954 -51.6210 -51.5749 -51.5548
   -23.9272 -21.4441 -20.7888 -20.6941 -20.4798 -20.1145 -19.7554 -19.7279
   -19.6801 -19.6216 -19.4734 -19.4354 -19.4202 -19.2296 -19.1810 -19.0827
   -18.8078 -18.5518 -18.3656 -17.3829  -9.3321  -9.0211  -8.9523  -8.8270
    -8.7440  -8.4772  -8.2088  -7.9617  -7.8801  -7.8222  -7.7589  -7.7376
    -7.6541  -7.5243  -7.1880  -7.1610  -7.1271  -7.1170  -6.9993  -6.8980
    -6.8011  -6.7423  -6.6434  -6.5911  -6.4545  -6.2426  -6.1880  -6.1246
    -6.0768  -5.9138  -5.8813  -5.7767  -5.7388  -5.5367  -5.1333  -5.0963
    -5.0094  -4.9824  -4.9330  -4.7583  -4.6774  -4.6453  -4.5858  -4.5284
    -4.4672  -4.2909  -4.2063  -4.1532  -4.1435  -4.0387  -3.9092  -3.7739
    -3.7586  -3.6732  -3.6269  -3.5313  -3.4910  -3.3902  -3.3516  -3.2973
    -3.1824  -3.1070  -3.0075  -2.8961  -2.8873  -2.8743  -2.8475  -2.7079
    -2.6580  -2.6076  -2.4922  -2.3195  -2.1500  -2.0632  -1.9771  -1.8696
    -1.6236  -1.5286  -1.5128  -1.4116  -1.2416  -1.2353  -1.0508  -0.9926
    -0.6349  -0.4207  -0.3038   0.2269   0.2671   0.6680   0.7321   1.0069
     1.1809   1.2492   1.5054   1.7458   1.7679   1.8369   2.0361   3.1098
     3.6798   3.7687   4.0151   4.5516   5.1481   5.4728   5.6142   5.8406
     5.9888   6.3481   6.5990   7.1510   7.3276   7.3480   7.6824   7.8525
     7.9214   8.0001   8.2250   8.3936   8.5163   8.5844   8.7249   8.8156
     8.9321   9.1151   9.1466   9.2573   9.3644   9.5432   9.5634   9.7996
     9.8256   9.9273   9.9580  10.0106  10.2414  10.3331  10.3489  10.3548
    10.4425  10.4904  10.5003  10.6347  10.6875  10.7793  10.8714  10.9220
    11.0208  11.0383  11.2606  11.4014  11.4837  11.6199  11.6508  11.6715
    11.7586  11.8515  11.9588  12.0765  12.1287  12.1697  12.3270  12.4827
    12.6965  12.7288  12.7840  12.8172  12.8742  13.1501  13.2129  13.3127
    13.3428  13.4405  13.5282  13.5862  13.7161  13.7874  13.8123  13.8826
    13.9860  14.0973  14.2241  14.2306  14.3224  14.3460  14.4020  14.4147
    14.4919  14.5870  14.6157  14.6388  14.6893  14.8199  14.8641  14.9859
    15.0236  15.1045  15.1293  15.2488  15.2871  15.3143  15.3513  15.3879
    15.5014  15.6337  15.6672  15.6767  15.8216  15.8365  15.8810  15.9996
    16.0352  16.0515  16.1541  16.3035  16.4311  16.4638  16.5344  16.6517
    16.7122  16.7710  16.9910  17.0152  17.1337  17.2316  17.2482  17.3516
    17.4537  17.5540  17.6606  17.6912  17.8857  17.9155  18.1572  18.2215
    18.3422  18.3782  18.4886  18.5370  18.6597  18.7138  18.8763  18.9505
    18.9930  19.0725  19.1408  19.2227  19.3227  19.3931  19.4157  19.4772
    19.6551  19.7273  19.8665  20.0317  20.0511  20.1164  20.1934  20.2517
    20.3069  20.3645  20.4074  20.4189  20.5218  20.5576  20.6433  20.7092
    20.7274  20.8468  20.8744  20.9526  21.0733  21.1525  21.2144  21.2888
    21.3736  21.4378  21.4656  21.5445  21.5972  21.6893  21.7401  21.8100
    21.8322  22.0362  22.0801  22.1313  22.2108  22.2389  22.4192  22.4491
    22.5198  22.5455  22.6233  22.6747  22.7815  22.9035  22.9719  22.9921
    23.0407  23.1010  23.1160

          k = 0.0000-0.4606 0.0000 ( 26364 PWs)   bands (ev):

   -83.4959 -83.4860 -83.3455 -83.2144 -83.2023 -83.1991 -82.9932 -82.9827
   -52.3384 -52.2251 -52.1284 -52.1099 -52.1061 -52.1038 -52.0984 -52.0803
   -52.0058 -51.9984 -51.9710 -51.9661 -51.9124 -51.8925 -51.8905 -51.7492
   -51.7459 -51.7333 -51.7236 -51.7086 -51.6954 -51.6209 -51.5748 -51.5547
   -23.9267 -21.3704 -20.7855 -20.6155 -20.4356 -20.0994 -20.0276 -19.7499
   -19.6776 -19.5919 -19.5381 -19.4760 -19.4376 -19.2265 -19.1521 -19.0166
   -18.8133 -18.5538 -18.3571 -17.3787  -9.3015  -9.0553  -8.9822  -8.4452
    -8.4403  -8.4179  -8.3169  -7.9659  -7.7783  -7.7510  -7.6833  -7.6391
    -7.5385  -7.5354  -7.2776  -7.1007  -7.0957  -7.0556  -7.0007  -6.8447
    -6.6844  -6.6556  -6.6264  -6.6029  -6.5348  -6.4535  -6.3255  -6.2073
    -6.1499  -5.9517  -5.8735  -5.8415  -5.7709  -5.6221  -5.4315  -5.2347
    -5.1883  -5.1137  -4.9577  -4.9211  -4.8801  -4.7002  -4.6230  -4.5088
    -4.4329  -4.2993  -4.1699  -4.0850  -4.0621  -3.9976  -3.8423  -3.7740
    -3.7280  -3.6694  -3.5216  -3.4764  -3.4579  -3.3935  -3.3554  -3.2216
    -3.1857  -3.1718  -3.1387  -3.0231  -2.9240  -2.8289  -2.8139  -2.7031
    -2.6431  -2.5122  -2.3237  -2.2736  -2.1946  -2.0838  -1.9839  -1.9381
    -1.8932  -1.7809  -1.4510  -1.2474  -1.2437  -1.1772  -1.0704  -1.0051
    -0.9552  -0.8729  -0.1302   0.2942   0.6619   0.6736   0.7254   1.0252
     1.0689   1.1039   1.5997   1.7950   1.9510   2.0403   2.2738   3.2972
     3.8619   4.3200   4.4406   4.5713   4.7186   4.9664   5.2480   5.5390
     5.7824   6.1425   6.3221   6.8883   7.1719   7.5671   7.6947   7.7933
     8.1669   8.2310   8.3100   8.4793   8.4952   8.5600   8.8495   8.9494
     9.0881   9.1235   9.2058   9.2691   9.3438   9.3712   9.5038   9.7091
     9.7721   9.8088   9.8871   9.9355   9.9743  10.1475  10.1861  10.3233
    10.3685  10.4807  10.6689  10.7806  10.8027  11.0123  11.0932  11.2523
    11.3179  11.3857  11.4067  11.4778  11.5586  11.6480  11.7583  11.9075
    11.9556  12.1881  12.2269  12.3490  12.3661  12.4466  12.5043  12.5212
    12.6421  12.7518  12.7586  12.8161  13.0142  13.0923  13.2210  13.2852
    13.3358  13.4221  13.4983  13.5102  13.6688  13.6885  13.7652  13.8747
    13.9386  13.9761  14.0113  14.2422  14.3187  14.3513  14.4573  14.5506
    14.5875  14.6153  14.6460  14.6789  14.7230  14.7893  14.8826  14.9694
    15.0964  15.1868  15.2815  15.2932  15.3638  15.3862  15.4760  15.5222
    15.5629  15.6396  15.7679  15.8889  16.0128  16.0133  16.1152  16.3087
    16.3903  16.4458  16.4865  16.5480  16.6999  16.7914  16.8430  16.8762
    16.9106  17.0759  17.0910  17.1123  17.1754  17.1979  17.2528  17.2870
    17.4170  17.4996  17.6621  17.7084  17.7929  17.8338  17.8877  17.9159
    17.9626  18.1273  18.1578  18.2042  18.2339  18.4093  18.4277  18.5438
    18.6130  18.6932  18.7623  18.8894  18.9156  19.0348  19.0568  19.1149
    19.1720  19.2065  19.2911  19.3436  19.4029  19.5134  19.6597  19.8055
    20.0007  20.0521  20.1330  20.2209  20.2393  20.2821  20.3993  20.4615
    20.5666  20.6744  20.7060  20.7239  20.7642  20.8682  20.8837  21.0190
    21.0293  21.0991  21.1717  21.2315  21.3648  21.4960  21.5207  21.5943
    21.6845  21.7848  21.8394  21.9865  22.1463  22.1915  22.3818  22.4967
    22.5162  22.5691  22.6421  22.6760  22.7111  22.8246  22.8625  22.9008
    22.9316  23.0032  23.0278

          k = 0.2500 0.0000 0.0000 ( 26392 PWs)   bands (ev):

   -83.4945 -83.4874 -83.3454 -83.2135 -83.2024 -83.2001 -82.9917 -82.9843
   -52.3217 -52.2415 -52.1255 -52.1112 -52.1034 -52.0991 -52.0951 -52.0694
   -52.0059 -51.9974 -51.9833 -51.9730 -51.9093 -51.8982 -51.8951 -51.7492
   -51.7313 -51.7277 -51.7254 -51.7077 -51.6962 -51.6393 -51.5719 -51.5577
   -23.9275 -21.3937 -20.8760 -20.6762 -20.3796 -20.1513 -19.8935 -19.8339
   -19.5698 -19.4544 -19.3903 -19.3743 -19.3220 -19.2998 -19.2610 -19.1618
   -18.8603 -18.5463 -18.4041 -17.3859  -9.2178  -9.0398  -9.0015  -8.9075
    -8.8536  -8.3562  -8.0527  -7.9863  -7.9510  -7.8085  -7.7554  -7.6818
    -7.6132  -7.5505  -7.4859  -7.3701  -7.2990  -7.1556  -7.0833  -6.9066
    -6.8192  -6.7231  -6.6220  -6.5668  -6.4626  -6.3278  -6.1489  -5.9512
    -5.8918  -5.7376  -5.7123  -5.5063  -5.3246  -5.2912  -5.2455  -5.1830
    -5.1656  -5.0168  -4.9500  -4.9072  -4.7651  -4.7050  -4.6199  -4.5231
    -4.4800  -4.4004  -4.3335  -4.2989  -4.1114  -4.0946  -4.0214  -3.9898
    -3.9576  -3.7753  -3.6926  -3.4963  -3.4658  -3.4298  -3.3518  -3.2879
    -3.2446  -3.1094  -3.0210  -2.9656  -2.8372  -2.7887  -2.6679  -2.5606
    -2.3105  -2.2499  -2.1798  -2.1189  -2.0498  -1.9473  -1.8548  -1.8025
    -1.7507  -1.6595  -1.5632  -1.4252  -1.3867  -1.2102  -1.1647  -1.1349
    -0.4421   0.0278   0.1897   0.4142   0.4564   0.4917   0.5093   0.5342
     1.0029   1.0961   1.1195   1.1518   1.5044   1.6744   1.9191   3.1726
     3.7251   3.8181   4.0739   4.6274   5.2424   5.4648   5.9163   6.0335
     6.2521   6.5087   6.8274   7.0429   7.1822   7.4426   7.5184   7.6254
     7.7378   7.9141   7.9522   8.0363   8.1562   8.4550   8.5198   8.7189
     8.8685   9.0593   9.2050   9.2945   9.3558   9.5573   9.6235   9.7453
     9.8444  10.0060  10.0528  10.0748  10.1224  10.2835  10.3002  10.3295
    10.4004  10.4492  10.5389  10.6809  10.7720  10.8268  10.8946  10.9416
    11.0900  11.1530  11.3501  11.4797  11.5437  11.5847  11.6482  11.6815
    11.7351  11.8036  11.9466  12.0770  12.1668  12.3097  12.4286  12.4633
    12.5787  12.6771  12.7993  12.8401  12.9889  13.1183  13.2060  13.3092
    13.3700  13.3770  13.4797  13.5417  13.6446  13.7378  13.8079  13.8632
    13.9786  14.0891  14.1543  14.2211  14.2455  14.4343  14.5161  14.5593
    14.6232  14.6806  14.7510  14.7788  14.8017  14.9200  14.9798  15.0242
    15.1229  15.2195  15.3000  15.3514  15.3881  15.4624  15.5555  15.5705
    15.7661  15.8206  15.8431  15.9677  15.9871  16.0730  16.1460  16.3207
    16.4120  16.5085  16.5458  16.6257  16.7307  16.7668  16.7941  16.9388
    17.0992  17.1322  17.2210  17.3040  17.3897  17.4529  17.5031  17.5839
    17.6935  17.7688  17.8079  17.9451  17.9624  18.0261  18.1153  18.1757
    18.3146  18.3623  18.4505  18.6677  18.7252  18.7918  18.8347  18.9876
    19.0137  19.1137  19.1374  19.2768  19.3214  19.3419  19.4353  19.4799
    19.6115  19.6742  19.7589  19.7937  19.8844  19.9290  19.9757  20.0414
    20.1145  20.2004  20.2750  20.3084  20.4534  20.4919  20.5613  20.6574
    20.7273  20.7874  20.8847  20.9489  21.0479  21.0916  21.2077  21.2742
    21.3302  21.4129  21.4614  21.5686  21.6048  21.6576  21.7085  21.7330
    21.7867  21.8347  21.8774  21.9140  21.9904  22.0454  22.0852  22.1083
    22.1475  22.1837  22.2311  22.2597  22.3191  22.3562  22.4302  22.5056
    22.5638  22.5900  22.6573

          k = 0.2500 0.2303 0.0000 ( 26396 PWs)   bands (ev):

   -83.4945 -83.4874 -83.3454 -83.2135 -83.2024 -83.2001 -82.9917 -82.9843
   -52.3217 -52.2415 -52.1255 -52.1114 -52.1029 -52.0993 -52.0961 -52.0679
   -52.0060 -51.9971 -51.9834 -51.9728 -51.9098 -51.8983 -51.8950 -51.7492
   -51.7317 -51.7277 -51.7251 -51.7078 -51.6963 -51.6393 -51.5719 -51.5578
   -23.9270 -21.3404 -20.8693 -20.5910 -20.3695 -20.1445 -19.8774 -19.7827
   -19.6622 -19.5888 -19.5292 -19.4605 -19.4230 -19.2484 -19.1751 -19.0644
   -18.8576 -18.5481 -18.3959 -17.3815  -9.1993  -9.0108  -8.8827  -8.6700
    -8.5885  -8.2793  -8.0285  -7.9344  -7.9005  -7.8254  -7.7568  -7.6772
    -7.6176  -7.5293  -7.4759  -7.3234  -7.1736  -7.0887  -7.0395  -6.8607
    -6.7673  -6.7239  -6.6156  -6.5643  -6.4967  -6.3911  -6.1294  -5.9514
    -5.9217  -5.8201  -5.6958  -5.6326  -5.5626  -5.4788  -5.4437  -5.4097
    -5.3397  -5.1902  -5.1077  -5.0821  -4.9190  -4.8088  -4.7113  -4.6783
    -4.4852  -4.4195  -4.3242  -4.2273  -4.1620  -4.0384  -3.9810  -3.9496
    -3.8450  -3.7205  -3.6800  -3.5455  -3.4859  -3.3801  -3.1483  -3.0770
    -3.0314  -2.9815  -2.9443  -2.8295  -2.7897  -2.6828  -2.6456  -2.5922
    -2.4969  -2.4166  -2.3322  -2.2426  -2.0968  -2.0173  -1.8754  -1.7591
    -1.6551  -1.6232  -1.5608  -1.5253  -1.3796  -1.2667  -1.1653  -0.9925
    -0.4900  -0.2995  -0.2357   0.2456   0.3255   0.4525   0.6056   0.8122
     0.8925   1.2349   1.3886   1.5569   1.6668   1.8318   1.9078   3.2790
     3.8598   4.0226   4.2929   4.8408   5.4426   5.5273   5.8479   5.9700
     6.1206   6.2458   6.3548   6.5563   6.7492   6.9213   7.1319   7.4715
     7.5849   7.7337   7.9912   8.1004   8.2191   8.3842   8.4948   8.6224
     8.7828   8.9846   9.1700   9.3040   9.3541   9.4614   9.6526   9.7448
     9.7877   9.9154   9.9815  10.0602  10.2559  10.2998  10.4250  10.5240
    10.6598  10.7014  10.7603  10.8595  11.0773  11.1900  11.2541  11.3316
    11.4631  11.5527  11.6325  11.7377  11.7860  11.8471  11.9170  12.0119
    12.0344  12.1475  12.3341  12.3734  12.4050  12.5143  12.6370  12.6531
    12.7841  12.8869  12.9455  13.0502  13.1164  13.1599  13.1970  13.3194
    13.3612  13.4554  13.5319  13.6097  13.7195  13.7663  13.8704  13.9276
    14.0134  14.0281  14.1510  14.1780  14.2320  14.3518  14.4655  14.4937
    14.5607  14.6219  14.6658  14.7627  14.8622  14.8867  14.9312  14.9845
    15.0808  15.1793  15.2088  15.3299  15.4213  15.5049  15.6148  15.6839
    15.7079  15.7867  15.9281  15.9999  16.0693  16.1564  16.1883  16.3131
    16.3430  16.3773  16.5083  16.5787  16.6286  16.6685  16.7655  16.8012
    16.9242  17.0278  17.0844  17.1240  17.2574  17.2793  17.3290  17.4567
    17.5102  17.5956  17.6550  17.6962  17.7210  17.7966  17.8782  18.0232
    18.0553  18.1527  18.2332  18.2811  18.3089  18.3948  18.4844  18.5808
    18.6545  18.6912  18.7256  18.8313  18.8680  18.9383  19.0360  19.0936
    19.2362  19.2852  19.3547  19.4024  19.4943  19.5910  19.6610  19.7262
    19.7833  19.8619  19.9628  20.0271  20.0773  20.1752  20.2341  20.2965
    20.3587  20.4570  20.5543  20.6122  20.6829  20.7432  20.8492  20.8990
    20.9873  21.0262  21.1570  21.2300  21.2984  21.3505  21.3884  21.5239
    21.5595  21.6612  21.7092  21.8276  21.8754  21.9545  22.0393  22.1471
    22.2300  22.3426  22.4148  22.4530  22.5347  22.5779  22.7001  22.7931
    22.8625  22.9473  23.0441

          k = 0.2500-0.4606 0.0000 ( 26462 PWs)   bands (ev):

   -83.4945 -83.4874 -83.3454 -83.2135 -83.2024 -83.2001 -82.9917 -82.9843
   -52.3218 -52.2416 -52.1255 -52.1115 -52.1025 -52.0995 -52.0970 -52.0667
   -52.0060 -51.9968 -51.9833 -51.9727 -51.9104 -51.8984 -51.8951 -51.7492
   -51.7321 -51.7277 -51.7251 -51.7078 -51.6963 -51.6393 -51.5719 -51.5578
   -23.9265 -21.2807 -20.8623 -20.4877 -20.3616 -20.0422 -20.0040 -19.7720
   -19.7330 -19.6622 -19.5936 -19.5296 -19.4971 -19.2313 -19.1507 -19.0047
   -18.8555 -18.5500 -18.3887 -17.3771  -9.1734  -8.9796  -8.9176  -8.2574
    -8.2066  -8.1639  -8.0858  -7.8526  -7.7887  -7.7419  -7.6594  -7.6220
    -7.5883  -7.5420  -7.4487  -7.3390  -7.1745  -7.1088  -7.0649  -6.7881
    -6.7570  -6.6529  -6.5972  -6.5491  -6.4126  -6.3277  -6.2635  -6.1328
    -6.1115  -6.0614  -6.0276  -5.8122  -5.6976  -5.6274  -5.5871  -5.4933
    -5.3921  -5.3108  -5.2215  -5.1429  -5.0848  -4.9395  -4.8537  -4.7120
    -4.4628  -4.3811  -4.3555  -4.1701  -4.0675  -3.9561  -3.8876  -3.8660
    -3.8117  -3.7172  -3.6778  -3.5970  -3.4359  -3.3028  -3.0802  -3.0571
    -2.9967  -2.9749  -2.9667  -2.8279  -2.7239  -2.6092  -2.5868  -2.4842
    -2.3982  -2.3143  -2.2917  -2.2206  -2.1778  -2.0146  -1.9669  -1.9408
    -1.9063  -1.6305  -1.5037  -1.3897  -1.3758  -1.2687  -1.1776  -0.9430
    -0.8812  -0.7507  -0.1417   0.3672   0.4116   0.5256   0.5348   0.6998
     0.7592   1.3262   1.5768   1.6611   1.8447   1.8738   2.1986   3.3920
     4.0573   4.6002   4.7178   4.8588   4.9994   5.2502   5.5278   5.8033
     5.8412   6.2555   6.5006   6.5530   6.8799   6.9861   7.0734   7.1958
     7.3197   7.4565   7.5493   7.7994   7.9840   8.1472   8.2576   8.4874
     8.6863   8.8126   8.9500   9.0916   9.2853   9.3571   9.5113   9.7041
     9.7884  10.0565  10.1153  10.2504  10.3086  10.4928  10.5649  10.7038
    10.7726  11.1277  11.2550  11.3575  11.5265  11.6257  11.6539  11.7116
    11.8105  11.9018  12.0081  12.0578  12.1008  12.1695  12.2458  12.2670
    12.3505  12.4769  12.6062  12.6333  12.7462  12.8043  12.8795  12.8885
    13.0033  13.0290  13.0596  13.1770  13.2440  13.2599  13.3076  13.4383
    13.4801  13.5649  13.6179  13.7502  13.8517  13.8916  13.9117  14.0157
    14.0598  14.1251  14.1792  14.1980  14.2569  14.3074  14.4601  14.4809
    14.5738  14.6199  14.7155  14.7518  14.8387  14.9433  15.0115  15.0346
    15.0426  15.0712  15.0894  15.1739  15.2585  15.3351  15.3629  15.4357
    15.4581  15.5182  15.6367  15.6645  15.6987  15.7097  15.7977  15.8978
    16.0306  16.0582  16.1095  16.2255  16.3174  16.4081  16.4485  16.5577
    16.6144  16.7352  16.7931  16.8611  16.9268  16.9519  17.0829  17.1102
    17.3181  17.3822  17.5039  17.5672  17.6851  17.8676  17.9111  18.0216
    18.1520  18.1887  18.3159  18.3420  18.3881  18.4372  18.5025  18.5585
    18.6318  18.7156  18.7946  18.8171  18.8773  18.9580  19.0048  19.0605
    19.1474  19.2004  19.2382  19.2881  19.3095  19.3661  19.5894  19.6157
    19.6710  19.7254  19.7894  19.8380  19.8667  19.9315  19.9776  20.0814
    20.1090  20.1997  20.2807  20.3332  20.4433  20.5353  20.6212  20.6950
    20.7607  20.8453  20.9245  20.9507  21.0523  21.0824  21.1113  21.1822
    21.2615  21.3371  21.4161  21.5316  21.5566  21.5951  21.7463  21.8731
    21.9230  21.9825  22.1238  22.2651  22.3213  22.4293  22.4790  22.6019
    22.6887  22.8309  22.9130

          k =-0.5000 0.0000 0.0000 ( 26466 PWs)   bands (ev):

   -83.4912 -83.4908 -83.3453 -83.2124 -83.2025 -83.2011 -82.9883 -82.9877
   -52.2830 -52.2800 -52.1188 -52.1181 -52.0997 -52.0993 -52.0906 -52.0333
   -52.0194 -52.0062 -51.9954 -51.9751 -51.9066 -51.9063 -51.8984 -51.7492
   -51.7286 -51.7280 -51.7068 -51.6977 -51.6844 -51.6825 -51.5653 -51.5644
   -23.9272 -21.1257 -21.1175 -20.4462 -20.3601 -20.1432 -20.1308 -19.9640
   -19.4590 -19.4243 -19.4114 -19.3909 -19.3502 -19.3427 -19.2113 -19.0415
   -19.0274 -18.5177 -18.4503 -17.3847  -9.0393  -8.9776  -8.9352  -8.6335
    -8.6322  -8.5105  -8.4809  -8.0426  -7.8069  -7.7942  -7.7261  -7.6673
    -7.6012  -7.5673  -7.5502  -7.5004  -7.0688  -7.0464  -6.9781  -6.8868
    -6.8335  -6.4257  -6.4186  -6.3816  -6.2599  -6.1404  -6.1080  -6.0459
    -5.9236  -5.8954  -5.8431  -5.7891  -5.6748  -5.5639  -5.5562  -5.2012
    -5.0672  -5.0471  -5.0002  -4.9434  -4.8939  -4.8439  -4.8425  -4.6920
    -4.6406  -4.5393  -4.4943  -4.3903  -4.2196  -4.1416  -4.1162  -3.8728
    -3.8661  -3.7779  -3.4712  -3.4393  -3.3708  -3.3133  -3.2546  -3.2426
    -3.1622  -3.1510  -2.9671  -2.8353  -2.7569  -2.7215  -2.6895  -2.5221
    -2.3015  -2.1540  -2.1170  -2.0805  -1.9260  -1.8796  -1.7251  -1.7051
    -1.6805  -1.6512  -1.5497  -1.4918  -1.4877  -1.4070  -1.3453  -1.0885
    -0.3206   0.0574   0.0922   0.2954   0.4767   0.5907   0.6702   0.6956
     0.7825   0.8376   0.8394   1.0375   1.2955   1.7033   1.7262   3.4096
     4.1847   4.4702   4.6142   4.6311   4.8848   4.9574   5.4632   5.4643
     6.0326   6.1810   6.6418   6.9490   7.2180   7.5491   7.6896   7.8192
     8.1239   8.3211   8.3239   8.3721   8.4862   8.5735   8.5830   8.7010
     8.7730   8.8052   8.8204   8.8945   8.9343   9.0732   9.2481   9.3780
     9.4064   9.5220   9.5968   9.9147   9.9570  10.1226  10.2328  10.3438
    10.4336  10.6828  10.7108  10.8101  10.8671  11.0222  11.0704  11.1140
    11.2837  11.3493  11.4479  11.5361  11.6320  11.6882  11.7022  11.7206
    12.0307  12.1177  12.2396  12.3054  12.4102  12.4371  12.6851  12.7573
    12.8181  12.8396  13.0041  13.0766  13.1610  13.4614  13.5255  13.5761
    13.6570  13.7187  13.7618  13.7871  13.8379  13.9171  13.9967  14.0865
    14.1496  14.1914  14.3160  14.3859  14.3950  14.5150  14.5634  14.6059
    14.6710  14.7080  14.7827  14.9516  14.9884  15.0131  15.1621  15.2099
    15.2979  15.3866  15.4441  15.5092  15.5823  15.6452  15.7376  15.7926
    15.8944  15.9373  16.0028  16.0699  16.2993  16.3861  16.4076  16.5828
    16.6795  16.7187  16.7341  16.7591  16.9174  16.9920  17.1286  17.2453
    17.3231  17.3512  17.4628  17.5322  17.5448  17.6267  17.6518  17.7410
    17.8071  17.9379  17.9439  17.9560  18.0275  18.0650  18.1163  18.1535
    18.2310  18.3012  18.3696  18.4367  18.5030  18.5651  18.6402  18.7088
    18.7209  18.8456  18.9198  18.9932  19.0767  19.1004  19.1434  19.2524
    19.3204  19.4270  19.4393  19.4529  19.4989  19.5477  19.8223  19.8634
    19.9000  19.9117  20.0781  20.1084  20.1253  20.1995  20.2759  20.3582
    20.4546  20.4678  20.5441  20.5573  20.5898  20.6600  20.6830  20.7034
    20.8095  20.8300  20.9439  20.9534  20.9688  21.0599  21.1239  21.1995
    21.2443  21.2757  21.3583  21.4518  21.4771  21.5672  21.5950  21.6391
    21.6697  21.6988  21.7160  21.8081  21.8109  21.8261  22.0286  22.1754
    22.1871  22.2399  22.3366

          k =-0.5000 0.2303 0.0000 ( 26450 PWs)   bands (ev):

   -83.4912 -83.4908 -83.3453 -83.2124 -83.2025 -83.2011 -82.9883 -82.9877
   -52.2831 -52.2800 -52.1188 -52.1181 -52.0996 -52.0993 -52.0907 -52.0329
   -52.0191 -52.0062 -51.9951 -51.9748 -51.9067 -51.9066 -51.8987 -51.7492
   -51.7287 -51.7281 -51.7069 -51.6977 -51.6843 -51.6825 -51.5653 -51.5645
   -23.9267 -21.0963 -21.0922 -20.3883 -20.2776 -20.0856 -20.0810 -19.9909
   -19.6424 -19.5282 -19.5123 -19.4798 -19.3665 -19.3607 -19.1714 -18.9879
   -18.9792 -18.5165 -18.4445 -17.3802  -9.0130  -8.9607  -8.9163  -8.3367
    -8.3156  -8.1998  -8.1973  -8.0036  -7.8067  -7.7801  -7.7241  -7.6482
    -7.6285  -7.5664  -7.4845  -7.4422  -7.1207  -7.1022  -6.9803  -6.7658
    -6.6603  -6.5946  -6.5494  -6.4767  -6.4023  -6.2487  -6.1936  -6.1100
    -6.0238  -5.9486  -5.9071  -5.8660  -5.8065  -5.5385  -5.5103  -5.3399
    -5.3187  -5.2937  -5.1973  -5.1409  -5.0948  -5.0734  -4.9948  -4.7776
    -4.6866  -4.5350  -4.4442  -4.3165  -4.2134  -4.1137  -4.0108  -3.9051
    -3.8070  -3.7364  -3.5767  -3.4912  -3.3546  -3.2712  -3.1121  -2.9619
    -2.9440  -2.8515  -2.8418  -2.7492  -2.7256  -2.6225  -2.5245  -2.5057
    -2.4088  -2.2856  -2.2072  -2.1315  -1.9487  -1.8474  -1.7218  -1.7019
    -1.6787  -1.6699  -1.6438  -1.5605  -1.5549  -1.4690  -1.3703  -0.9552
    -0.2894  -0.0400  -0.0347   0.0772   0.1377   0.2646   0.4625   0.6163
     0.6857   1.1795   1.2223   1.4698   1.4842   1.8402   1.8536   3.4413
     4.2947   4.7035   4.8479   4.8652   5.1058   5.1841   5.6629   5.6727
     6.1923   6.2692   6.5769   6.6184   6.7332   6.7972   6.9857   7.1126
     7.1838   7.3818   7.5465   7.7735   7.7987   8.1171   8.2831   8.4802
     8.5969   8.9082   8.9271   9.1434   9.2076   9.3674   9.5430   9.8731
     9.9911  10.0240  10.1260  10.2437  10.5077  10.5780  10.6117  10.6722
    10.7402  10.8267  10.9430  11.0459  11.1158  11.2291  11.3823  11.4098
    11.5930  11.6019  11.6922  11.7394  11.8486  11.9794  12.0994  12.2477
    12.2885  12.3944  12.5339  12.5637  12.6604  12.6949  12.9890  13.0078
    13.0929  13.2040  13.2567  13.2790  13.4007  13.4856  13.5566  13.6245
    13.7165  13.7844  13.8589  13.9373  14.0796  14.1506  14.2282  14.3350
    14.3584  14.3961  14.4543  14.5435  14.6245  14.6639  14.7208  14.7307
    14.7871  14.8093  14.8617  14.9307  14.9993  15.0156  15.1240  15.2097
    15.3242  15.3739  15.4860  15.5342  15.6272  15.6618  15.7238  15.7697
    15.8170  15.8537  15.9796  16.0032  16.0551  16.0885  16.1567  16.2360
    16.2590  16.2991  16.3376  16.3623  16.4845  16.5673  16.6545  16.6788
    16.7971  16.8309  16.8821  16.9003  16.9552  16.9776  17.0571  17.1340
    17.2468  17.2771  17.3403  17.3979  17.4875  17.5192  17.5726  17.6546
    17.6940  17.7655  17.8276  17.9437  18.0156  18.0949  18.1148  18.2713
    18.3903  18.4365  18.4705  18.5521  18.5841  18.6428  18.7692  18.8122
    19.0153  19.0353  19.1718  19.2460  19.3383  19.4131  19.4296  19.6098
    19.6301  19.7272  19.7811  19.8944  19.9744  20.0383  20.0728  20.1001
    20.1656  20.1837  20.2550  20.2918  20.3266  20.3552  20.5156  20.5274
    20.6337  20.8001  20.8201  20.9632  21.0412  21.1560  21.2355  21.3050
    21.3672  21.5126  21.5619  21.6492  21.7195  21.7810  21.8126  21.8828
    21.9762  22.1099  22.1735  22.2422  22.3150  22.4355  22.5116  22.5324
    22.5782  22.6862  22.7170

          k =-0.5000-0.4606 0.0000 ( 26416 PWs)   bands (ev):

   -83.4912 -83.4907 -83.3453 -83.2124 -83.2025 -83.2011 -82.9882 -82.9877
   -52.2830 -52.2800 -52.1188 -52.1181 -52.0996 -52.0992 -52.0908 -52.0326
   -52.0188 -52.0062 -51.9949 -51.9745 -51.9069 -51.9068 -51.8989 -51.7492
   -51.7288 -51.7281 -51.7069 -51.6977 -51.6842 -51.6824 -51.5653 -51.5644
   -23.9263 -21.0663 -21.0657 -20.2916 -20.1428 -20.1406 -19.9909 -19.8286
   -19.8275 -19.7882 -19.6877 -19.5256 -19.3634 -19.3600 -19.1529 -18.9524
   -18.9486 -18.5159 -18.4392 -17.3757  -8.9853  -8.9404  -8.8937  -8.0851
    -7.8819  -7.8221  -7.8017  -7.7741  -7.6973  -7.6651  -7.6503  -7.6298
    -7.6000  -7.5478  -7.4471  -7.4235  -7.1771  -7.1230  -7.0576  -6.9806
    -6.9416  -6.8460  -6.7150  -6.4646  -6.4143  -6.3188  -6.2659  -6.2275
    -6.1345  -6.0054  -5.9334  -5.8568  -5.8185  -5.7964  -5.7006  -5.6913
    -5.5058  -5.4528  -5.3932  -5.2600  -5.2389  -5.1714  -5.1173  -4.7365
    -4.6335  -4.4879  -4.4536  -4.2322  -4.1737  -4.0450  -3.9845  -3.8937
    -3.8401  -3.7289  -3.6005  -3.5017  -3.3229  -3.2602  -3.0508  -2.8963
    -2.8463  -2.6543  -2.6523  -2.5758  -2.5684  -2.4670  -2.4482  -2.4137
    -2.4034  -2.2994  -2.2500  -2.1671  -2.0950  -1.7775  -1.7329  -1.7029
    -1.6865  -1.6735  -1.6653  -1.6289  -1.6209  -1.5124  -1.3660  -0.8762
    -0.4192  -0.3676  -0.3250  -0.1938  -0.1512   0.2982   0.6305   0.6373
     0.6575   1.4000   1.4288   1.5743   1.6067   1.9846   2.0549   3.4744
     4.4544   5.2300   5.3679   5.3719   5.5524   5.5675   5.7074   5.7146
     5.8283   5.8331   6.0765   6.0910   6.2700   6.3787   6.6265   6.7007
     6.8145   7.0977   7.2723   7.4868   7.5491   7.9328   8.0161   8.3794
     8.4335   8.7394   8.8454   9.1047   9.2140   9.3845   9.4319   9.7602
     9.8497   9.8646  10.0214  10.2202  10.2591  10.2867  11.0055  11.0813
    11.1553  11.2794  11.3475  11.4196  11.4728  11.4796  11.9222  12.0220
    12.2920  12.4636  12.5497  12.5592  12.6614  12.8059  12.8262  12.8497
    12.9269  13.0752  13.1753  13.1837  13.2177  13.3552  13.4859  13.4912
    13.5487  13.5721  13.6194  13.6200  13.6271  13.7255  13.7362  13.8219
    13.8398  13.9388  14.0391  14.0834  14.1058  14.1613  14.2173  14.2617
    14.2799  14.2962  14.3295  14.4204  14.4858  14.5579  14.5990  14.7081
    14.7108  14.7776  14.7981  14.8323  14.9319  14.9630  15.0174  15.0337
    15.0895  15.1164  15.2130  15.2553  15.2959  15.3280  15.3368  15.4488
    15.4563  15.4616  15.5262  15.5841  15.5883  15.6760  15.7082  15.7750
    15.8099  15.8496  15.8819  15.9395  15.9676  16.1067  16.1537  16.2094
    16.2650  16.3316  16.4961  16.5282  16.6374  16.6594  16.7187  16.7489
    16.8429  16.8775  16.9261  16.9514  17.0215  17.0385  17.1726  17.2020
    17.2203  17.2559  17.5563  17.5656  17.7137  17.7604  17.8222  17.8566
    18.1227  18.1544  18.2143  18.2370  18.3293  18.3780  18.4014  18.4157
    18.5166  18.6323  18.6670  18.7543  19.0255  19.0564  19.1734  19.3025
    19.3320  19.4605  19.4963  19.7663  19.8282  19.9611  20.0030  20.0722
    20.2230  20.2992  20.4172  20.4652  20.5999  20.6160  20.6795  20.8747
    20.9951  21.1147  21.2664  21.2938  21.3799  21.5524  21.5905  21.7134
    21.7601  21.8770  21.8977  21.9746  22.0106  22.1419  22.2333  22.2679
    22.3658  22.5648  22.6467  22.7871  22.8257  22.8585  22.8895  22.9466
    22.9614  22.9789  23.0542

          k =-0.2500 0.2303 0.0000 ( 26396 PWs)   bands (ev):

   -83.4945 -83.4874 -83.3454 -83.2135 -83.2024 -83.2001 -82.9917 -82.9843
   -52.3217 -52.2415 -52.1255 -52.1113 -52.1030 -52.0993 -52.0960 -52.0681
   -52.0060 -51.9971 -51.9832 -51.9728 -51.9099 -51.8983 -51.8950 -51.7492
   -51.7317 -51.7277 -51.7251 -51.7078 -51.6963 -51.6393 -51.5719 -51.5578
   -23.9270 -21.3407 -20.8690 -20.5907 -20.3689 -20.1448 -19.8768 -19.7822
   -19.6623 -19.5892 -19.5319 -19.4610 -19.4249 -19.2447 -19.1746 -19.0646
   -18.8576 -18.5481 -18.3959 -17.3815  -9.1951  -9.0107  -8.8950  -8.6747
    -8.5882  -8.2474  -8.0307  -7.9513  -7.9016  -7.8292  -7.7605  -7.6758
    -7.6213  -7.5200  -7.4824  -7.3223  -7.1656  -7.1219  -7.0466  -6.8471
    -6.7483  -6.6974  -6.6109  -6.5733  -6.4394  -6.3927  -6.1729  -5.9413
    -5.9053  -5.8288  -5.7392  -5.6945  -5.5596  -5.4743  -5.4423  -5.4057
    -5.3292  -5.1949  -5.0863  -5.0235  -4.9309  -4.8343  -4.7045  -4.6789
    -4.5423  -4.4178  -4.3117  -4.2250  -4.1413  -4.0383  -3.9967  -3.9532
    -3.8205  -3.7452  -3.6619  -3.5372  -3.4762  -3.3819  -3.1470  -3.0626
    -3.0391  -2.9950  -2.9438  -2.7912  -2.7499  -2.7051  -2.6696  -2.5971
    -2.4867  -2.4356  -2.3657  -2.2232  -2.1011  -2.0121  -1.8841  -1.7507
    -1.6498  -1.6291  -1.5635  -1.5223  -1.3799  -1.2661  -1.1652  -0.9932
    -0.4959  -0.2992  -0.2355   0.2449   0.3246   0.4529   0.6055   0.8127
     0.8975   1.2331   1.3876   1.5564   1.6689   1.8320   1.9074   3.2789
     3.8597   4.0210   4.2918   4.8396   5.4438   5.5283   5.8589   5.9709
     6.1350   6.2510   6.3557   6.5525   6.7516   6.9225   7.1236   7.4598
     7.5743   7.7055   7.9836   8.1018   8.2141   8.4026   8.4930   8.6335
     8.7830   8.9809   9.1768   9.2845   9.3732   9.4573   9.6534   9.7435
     9.7807   9.9193   9.9964  10.0736  10.2410  10.3011  10.4201  10.5147
    10.6630  10.7019  10.7947  10.8568  11.0716  11.2121  11.2566  11.3557
    11.4371  11.5361  11.6199  11.7183  11.7606  11.8480  11.9080  12.0001
    12.0644  12.1549  12.3050  12.3818  12.4215  12.5223  12.6352  12.6530
    12.7825  12.8951  12.9437  13.0438  13.1073  13.1604  13.2099  13.3510
    13.3624  13.4636  13.5288  13.6176  13.7418  13.8040  13.8451  13.9241
    14.0198  14.0365  14.1478  14.2000  14.2203  14.3147  14.4775  14.5095
    14.5753  14.6225  14.6495  14.7671  14.8463  14.8988  14.9505  15.0025
    15.0622  15.1699  15.2115  15.3459  15.4110  15.4540  15.5969  15.6681
    15.7211  15.7723  15.9360  15.9903  16.0565  16.1207  16.2005  16.3066
    16.3479  16.3847  16.5295  16.5579  16.6138  16.6717  16.7485  16.8140
    16.9222  17.0236  17.0862  17.1247  17.2422  17.2760  17.3289  17.4541
    17.5027  17.5984  17.6353  17.6934  17.7248  17.8059  17.8894  18.0134
    18.0563  18.1433  18.2339  18.2657  18.3134  18.3926  18.4710  18.6000
    18.6646  18.6914  18.7186  18.8082  18.8556  18.9550  19.0288  19.1024
    19.2401  19.2906  19.3480  19.4519  19.4977  19.5918  19.6689  19.7199
    19.7961  19.8497  19.9706  20.0354  20.0831  20.2010  20.2445  20.2833
    20.3571  20.4432  20.5468  20.5951  20.6937  20.7575  20.8784  20.9040
    20.9910  21.0287  21.1558  21.2109  21.2980  21.3425  21.4153  21.5282
    21.5689  21.6553  21.7023  21.8100  21.9042  21.9868  22.0546  22.1522
    22.2054  22.3077  22.3755  22.4635  22.5413  22.5737  22.6892  22.8033
    22.8587  22.8970  23.0577

 ------ SPIN DOWN ----------


          k = 0.0000 0.0000 0.0000 ( 26393 PWs)   bands (ev):

   -80.1495 -80.1465 -80.1380 -80.1056 -80.0935 -79.9076 -79.8924 -79.7092
   -49.0872 -49.0305 -49.0219 -49.0060 -48.9940 -48.9487 -48.9241 -48.9055
   -48.8879 -48.8770 -48.8739 -48.8683 -48.8588 -48.8479 -48.7325 -48.7276
   -48.7054 -48.6827 -48.6725 -48.6463 -48.5237 -48.5113 -48.5091 -48.3225
   -23.8463 -21.4093 -20.7631 -20.6434 -20.3073 -19.9351 -19.5614 -19.5163
   -19.5082 -19.2648 -19.2519 -19.2254 -19.1776 -19.1369 -19.1216 -19.0234
   -18.7162 -18.4324 -18.2641 -17.2849  -8.9764  -8.9037  -8.5093  -8.4892
    -8.4176  -8.2242  -7.6362  -7.5711  -7.4041  -7.2983  -7.2469  -7.2004
    -7.0672  -6.9783  -6.9473  -6.5222  -6.4256  -6.4248  -6.4030  -6.3791
    -6.3167  -6.2592  -6.2276  -6.0405  -5.9106  -5.7617  -5.6465  -5.5680
    -5.5192  -5.3588  -5.0890  -4.9488  -4.8687  -4.4881  -4.4707  -4.3510
    -4.3082  -4.2522  -4.2445  -4.0941  -4.0177  -3.8452  -3.7964  -3.7869
    -3.7423  -3.6085  -3.5065  -3.4452  -3.3268  -3.2435  -3.1907  -2.9036
    -2.8213  -2.6571  -2.6310  -2.5639  -2.3203  -1.9026  -1.6185  -1.0731
    -1.0146  -0.8262  -0.7856  -0.7480  -0.5664  -0.1941  -0.1615  -0.0645
    -0.0418  -0.0287   0.0593   0.0673   0.0718   0.1050   0.1083   0.1131
     0.3859   0.4392   0.6232   0.6698   0.8330   0.8748   1.1183   1.2224
     1.3281   1.7663   1.7934   2.1013   2.1155   2.1242   2.1965   2.2116
     2.5455   2.6524   2.8586   2.9534   3.0396   3.1161   3.2323   3.4076
     3.5086   3.7280   3.9986   4.3790   5.0200   5.7967   6.0919   6.6483
     6.8286   7.2331   7.2508   7.3274   7.5017   7.6236   7.7033   7.7301
     7.7949   7.8254   8.0033   8.1846   8.3084   8.3621   8.3636   8.6341
     8.7641   8.9369   8.9881   8.9975   9.0810   9.3823   9.5823   9.6959
     9.8212   9.8904  10.1634  10.2160  10.2552  10.3550  10.5134  10.6589
    10.7760  10.8852  10.9326  11.0462  11.1245  11.2961  11.2986  11.3717
    11.4174  11.5062  11.6386  11.7793  11.8317  11.8944  11.9382  11.9978
    12.0382  12.1516  12.2223  12.2750  12.3066  12.3663  12.3968  12.5319
    12.5794  12.5874  12.6916  12.8099  12.9642  13.0546  13.0970  13.1764
    13.2278  13.2620  13.3742  13.4388  13.4593  13.5509  13.6767  13.8035
    13.8407  13.8846  13.9284  14.0336  14.0496  14.0934  14.2403  14.4484
    14.4918  14.4947  14.6505  14.6867  14.7389  14.8073  15.1369  15.1511
    15.2193  15.2921  15.3244  15.4072  15.4909  15.5265  15.5812  15.6289
    15.6364  15.7746  15.8033  15.9914  16.0730  16.1326  16.1973  16.2727
    16.5355  16.6911  16.7626  16.8899  17.0052  17.0318  17.0439  17.2160
    17.2431  17.3938  17.5132  17.5489  17.6239  17.7809  17.8312  17.9431
    18.0152  18.0880  18.2345  18.3869  18.4949  18.5821  18.6574  18.6967
    18.8752  18.9138  19.0342  19.0587  19.1134  19.2071  19.2673  19.3813
    19.4076  19.4869  19.5791  19.6338  19.6490  19.6975  19.7122  19.8322
    19.9140  20.0220  20.1457  20.1810  20.2076  20.2653  20.3258  20.4214
    20.5022  20.5705  20.7292  20.8066  20.9072  20.9799  21.0223  21.1191
    21.2450  21.2805  21.4224  21.5164  21.5391  21.6016  21.6770  21.7455
    21.7807  21.8627  21.9157  21.9693  22.0614  22.0873  22.2585  22.2867
    22.2875  22.3386  22.4109  22.5223  22.5682  22.6188  22.6591  22.7121
    22.7759  22.8881  22.9249  22.9793  23.0017  23.1556  23.2252  23.2952
    23.3478  23.3923  23.4993

          k = 0.0000 0.2303 0.0000 ( 26455 PWs)   bands (ev):

   -80.1495 -80.1465 -80.1380 -80.1056 -80.0936 -79.9077 -79.8924 -79.7092
   -49.0873 -49.0321 -49.0220 -49.0052 -48.9924 -48.9488 -48.9236 -48.9074
   -48.8882 -48.8761 -48.8740 -48.8677 -48.8593 -48.8468 -48.7329 -48.7287
   -48.7052 -48.6827 -48.6725 -48.6464 -48.5237 -48.5115 -48.5091 -48.3225
   -23.8457 -21.3582 -20.7602 -20.5491 -20.3014 -19.9630 -19.5906 -19.5500
   -19.5094 -19.4874 -19.2747 -19.2513 -19.2453 -19.1208 -19.0107 -18.9452
   -18.7219 -18.4341 -18.2527 -17.2809  -8.9539  -8.8903  -8.5932  -8.1824
    -8.1482  -8.0973  -7.7660  -7.5402  -7.3795  -7.3198  -7.1972  -7.1795
    -7.1275  -6.9887  -6.6038  -6.5082  -6.4148  -6.3780  -6.3425  -6.3087
    -6.2792  -6.2273  -6.1496  -5.9064  -5.8660  -5.8500  -5.7143  -5.6212
    -5.5158  -5.5087  -5.3245  -5.2303  -4.9872  -4.8356  -4.4958  -4.4236
    -4.3896  -4.3423  -4.1872  -4.1314  -3.9888  -3.8687  -3.8232  -3.7806
    -3.7324  -3.6701  -3.5502  -3.5083  -3.4295  -3.3077  -3.0625  -2.9775
    -2.9376  -2.8517  -2.5932  -2.5608  -2.3618  -2.0346  -1.6986  -0.8996
    -0.7061  -0.6573  -0.6088  -0.5728  -0.4706  -0.4059  -0.3692  -0.1090
    -0.0971  -0.0496  -0.0455   0.0569   0.0752   0.0857   0.1076   0.1134
     0.3200   0.5977   0.7791   0.8256   0.9214   0.9852   1.0033   1.2010
     1.3483   1.3699   1.4755   1.8483   1.9802   2.1990   2.2021   2.5980
     2.6730   2.7573   3.0510   3.1506   3.1817   3.2346   3.2571   3.3357
     3.7432   3.8949   4.0857   4.5900   5.2214   5.5244   5.6893   5.9806
     6.0619   6.4433   6.6435   7.1998   7.4161   7.4411   7.8621   7.8900
     8.0173   8.0489   8.3100   8.4537   8.5940   8.6041   8.7925   8.8490
     9.0969   9.1601   9.2212   9.3425   9.5923   9.6513   9.7527   9.8409
     9.8585   9.9779  10.0738  10.2243  10.3085  10.4149  10.4487  10.4585
    10.5439  10.5732  10.6504  10.8081  10.8179  10.9322  10.9702  11.0602
    11.0872  11.2573  11.4188  11.5647  11.6805  11.7482  11.7825  11.9166
    11.9521  12.0659  12.1834  12.1985  12.3649  12.4268  12.4958  12.7156
    12.7809  12.8446  12.9982  13.0385  13.1744  13.3467  13.4669  13.4724
    13.5209  13.6350  13.6651  13.8360  13.9043  13.9626  14.0022  14.1129
    14.3266  14.3406  14.3896  14.4150  14.4269  14.4821  14.5822  14.7095
    14.7180  14.7508  14.8080  14.9260  14.9899  15.1388  15.1557  15.2333
    15.2566  15.4086  15.4372  15.4663  15.5817  15.6288  15.6473  15.7126
    15.7298  15.8481  15.8895  15.9541  16.0600  16.1319  16.1388  16.2287
    16.2532  16.2756  16.3533  16.5081  16.6079  16.7663  16.7911  16.8944
    16.9160  17.1088  17.1507  17.2263  17.3732  17.4479  17.5006  17.5288
    17.6947  17.8267  17.8448  17.9786  18.0937  18.1836  18.4048  18.4911
    18.5400  18.6004  18.7465  18.8206  18.8477  19.0901  19.0997  19.1660
    19.2300  19.3030  19.4191  19.5086  19.5167  19.5751  19.6308  19.6801
    19.8866  20.0207  20.1229  20.2143  20.2755  20.3093  20.3458  20.4561
    20.5226  20.6053  20.6612  20.7498  20.7799  20.8328  20.8685  20.8922
    20.9766  21.0045  21.1046  21.1766  21.2587  21.3246  21.3897  21.4828
    21.5356  21.6207  21.6928  21.7376  21.7808  21.8228  21.9178  22.0000
    22.0882  22.1691  22.1939  22.2659  22.3078  22.4292  22.5142  22.5425
    22.6190  22.6515  22.7398  22.8575  22.8913  23.0311  23.0710  23.0924
    23.1407  23.2043  23.2552

          k = 0.0000-0.4606 0.0000 ( 26364 PWs)   bands (ev):

   -80.1495 -80.1465 -80.1380 -80.1056 -80.0935 -79.9076 -79.8924 -79.7092
   -49.0873 -49.0334 -49.0220 -49.0042 -48.9909 -48.9487 -48.9229 -48.9090
   -48.8884 -48.8752 -48.8739 -48.8670 -48.8596 -48.8457 -48.7335 -48.7294
   -48.7050 -48.6825 -48.6725 -48.6463 -48.5237 -48.5116 -48.5090 -48.3224
   -23.8452 -21.3014 -20.7574 -20.4322 -20.2778 -19.9608 -19.8632 -19.5328
   -19.5158 -19.4660 -19.3547 -19.2751 -19.2744 -19.1147 -18.9742 -18.8863
   -18.7280 -18.4360 -18.2425 -17.2768  -8.9272  -8.8695  -8.6588  -8.0885
    -7.9457  -7.8021  -7.6650  -7.4682  -7.3829  -7.3420  -7.0923  -7.0190
    -6.9853  -6.8917  -6.6520  -6.5487  -6.3378  -6.3122  -6.2979  -6.2826
    -6.2227  -6.2043  -6.1354  -5.9862  -5.9179  -5.8935  -5.8394  -5.7914
    -5.6016  -5.5510  -5.4416  -5.3566  -5.2235  -4.9619  -4.6362  -4.4434
    -4.4148  -4.3825  -4.3203  -4.2859  -3.9956  -3.9055  -3.9024  -3.7903
    -3.7670  -3.6828  -3.6293  -3.6001  -3.2283  -3.2076  -3.1297  -3.0523
    -3.0250  -2.9348  -2.5308  -2.3973  -2.3611  -2.1382  -1.8186  -0.8947
    -0.8778  -0.7635  -0.7311  -0.4474  -0.4325  -0.1718  -0.0632  -0.0574
    -0.0289  -0.0072   0.0225   0.0516   0.0611   0.0862   0.0949   0.1656
     0.3521   0.4460   0.7664   0.7868   0.8554   0.9426   1.0571   1.1691
     1.1844   1.2479   1.5620   1.8937   2.1964   2.2108   2.2386   2.4597
     2.5342   2.6315   3.0612   3.2082   3.2387   3.4539   3.4633   3.6370
     3.9619   4.3850   4.4637   4.5995   4.7530   4.9997   5.2962   5.5763
     5.9656   6.2544   6.4370   6.9376   7.2206   7.6667   7.7657   7.9369
     8.2730   8.3556   8.4125   8.4964   8.6980   8.7620   8.9685   9.0013
     9.1187   9.1811   9.2782   9.3170   9.3783   9.4043   9.5477   9.7634
     9.7912   9.9038  10.0616  10.0904  10.1933  10.2748  10.3200  10.4525
    10.4757  10.6337  10.7283  10.8564  10.9088  11.1785  11.4608  11.4751
    11.4965  11.5173  11.5524  11.5898  11.7525  11.8570  11.9628  12.0582
    12.1763  12.2922  12.3947  12.4603  12.4701  12.5177  12.5614  12.7604
    12.7990  12.8464  12.9170  13.0227  13.1835  13.2514  13.3665  13.4395
    13.4767  13.5390  13.7560  13.8015  13.8584  13.9160  14.0498  14.1244
    14.1656  14.2100  14.2985  14.5244  14.5321  14.6127  14.6430  14.7210
    14.8099  14.8469  14.9218  15.0014  15.0591  15.1714  15.2466  15.3767
    15.4466  15.4659  15.6633  15.7438  15.7992  15.8296  15.8471  15.9294
    15.9339  16.0164  16.0629  16.1650  16.3298  16.3923  16.4097  16.4242
    16.5792  16.5913  16.6528  16.7586  16.8687  16.9006  16.9112  16.9555
    17.0660  17.1273  17.1474  17.1898  17.2441  17.3441  17.4293  17.5406
    17.5750  17.6022  17.7182  17.7781  17.8984  17.9473  18.0687  18.1953
    18.2412  18.2792  18.3106  18.3475  18.5096  18.5710  18.6122  18.6199
    18.8435  18.8965  18.9680  19.0344  19.1966  19.2407  19.2622  19.2939
    19.3654  19.4401  19.5798  19.6005  19.6621  19.8602  19.9560  20.1790
    20.1911  20.3382  20.3659  20.3996  20.5340  20.5501  20.5730  20.7164
    20.8292  20.8477  20.8926  20.9493  21.0114  21.0940  21.2104  21.2481
    21.3174  21.3572  21.3757  21.4224  21.6377  21.6970  21.7300  21.8333
    21.8715  21.9462  22.1796  22.2074  22.2550  22.4547  22.5287  22.6515
    22.7106  22.7252  22.7657  22.8173  22.8474  22.9280  22.9428  23.0334
    23.0558  23.0864  23.0936

          k = 0.2500 0.0000 0.0000 ( 26392 PWs)   bands (ev):

   -80.1478 -80.1465 -80.1397 -80.1038 -80.0953 -79.9064 -79.8937 -79.7093
   -49.0670 -49.0238 -49.0063 -48.9984 -48.9958 -48.9690 -48.9213 -48.9084
   -48.8957 -48.8878 -48.8655 -48.8587 -48.8559 -48.8509 -48.7529 -48.7253
   -48.7086 -48.6896 -48.6687 -48.6502 -48.5227 -48.5115 -48.5100 -48.3224
   -23.8460 -21.3043 -20.8395 -20.5323 -20.2138 -19.9842 -19.7231 -19.6535
   -19.4500 -19.2555 -19.2159 -19.1896 -19.1887 -19.1478 -19.1307 -19.0016
   -18.7692 -18.4306 -18.2895 -17.2837  -8.9234  -8.8500  -8.5552  -8.3693
    -8.2859  -8.0080  -7.6607  -7.5281  -7.4648  -7.3659  -7.1737  -7.1438
    -6.9999  -6.9056  -6.8504  -6.8071  -6.6539  -6.5218  -6.4562  -6.3865
    -6.3438  -6.1487  -6.0939  -5.8999  -5.8529  -5.7585  -5.5506  -5.3000
    -5.1418  -5.0973  -5.0638  -4.9999  -4.9110  -4.7267  -4.6233  -4.5738
    -4.4544  -4.4301  -4.3202  -4.3115  -4.0984  -4.0193  -3.8965  -3.8444
    -3.7437  -3.6778  -3.5205  -3.4699  -3.3697  -3.3468  -3.1862  -3.0823
    -2.9600  -2.7789  -2.6375  -2.4935  -2.4626  -2.0693  -1.6274  -0.7736
    -0.7432  -0.6948  -0.6485  -0.5872  -0.4704  -0.2154  -0.1757  -0.1598
    -0.0924  -0.0394   0.0046   0.0433   0.0988   0.2237   0.2779   0.3250
     0.3926   0.4335   0.5512   0.6554   0.7539   0.9331   1.0155   1.2348
     1.2715   1.7952   1.8452   2.0109   2.0596   2.1394   2.2055   2.2159
     2.5849   2.6425   2.7202   2.7274   2.8560   3.0569   3.2819   3.3824
     3.7929   3.9366   4.1482   4.6640   5.3341   5.5558   5.9652   6.1375
     6.2784   6.6394   6.8745   7.1346   7.2206   7.4904   7.5581   7.7263
     7.7891   7.9563   8.0209   8.1272   8.2547   8.4910   8.5761   8.7782
     8.9870   9.0953   9.2801   9.3482   9.4449   9.6203   9.7899   9.8391
     9.9023  10.0617  10.1474  10.1564  10.1793  10.3176  10.3508  10.5246
    10.6224  10.7148  10.7350  10.8104  10.8689  10.9127  11.0435  11.1373
    11.1717  11.3279  11.4581  11.5807  11.6883  11.7503  11.8224  11.8825
[...]
    10.4998  10.7771  10.8136  11.0008  11.0475  11.1129  11.1792  11.1800
    11.3649  11.5820  11.7166  11.7887  11.9358  12.0003  12.0640  12.1401
    12.2687  12.3250  12.4000  12.4260  12.6482  12.6909  12.9171  12.9317
    12.9823  13.0308  13.2716  13.4440  13.5113  13.5725  13.7204  13.7858
    13.9048  13.9147  13.9844  14.0309  14.0508  14.1291  14.1820  14.2297
    14.4285  14.4542  14.5284  14.5586  14.5977  14.7159  14.8221  14.9221
    14.9599  15.0638  15.1897  15.2365  15.2607  15.3744  15.4087  15.4264
    15.6166  15.7664  15.7931  15.8030  15.8938  15.9275  16.0544  16.1426
    16.1910  16.2327  16.3736  16.4004  16.5988  16.6514  16.8138  16.8363
    16.8650  16.9626  16.9950  17.0404  17.1134  17.3053  17.3950  17.4766
    17.5913  17.6166  17.6292  17.7194  17.7404  17.8388  17.9156  17.9654
    17.9964  18.0227  18.0371  18.0941  18.1476  18.1731  18.2248  18.2656
    18.3869  18.4185  18.4748  18.5422  18.5714  18.6298  18.7172  18.8156
    18.8563  18.9488  19.0166  19.1275  19.1455  19.3263  19.3835  19.4262
    19.5025  19.5714  19.6320  19.6782  19.7357  19.7963  19.9273  19.9665
    20.1130  20.1952  20.2445  20.2859  20.2896  20.3157  20.4103  20.4238
    20.4759  20.5061  20.6061  20.6399  20.6889  20.7500  20.7832  20.7848
    20.8464  20.8781  21.0216  21.0819  21.1382  21.2002  21.2614  21.2760
    21.4027  21.4621  21.5509  21.5935  21.6551  21.6702  21.7220  21.7522
    21.8610  21.8712  21.9379  22.0360  22.0993  22.1990  22.2219  22.2939
    22.3923  22.4250  22.4911

          k =-0.5000 0.2303 0.0000 ( 26450 PWs)   bands (ev):

   -80.1523 -80.1484 -80.1479 -80.1052 -80.1049 -79.9093 -79.8997 -79.7222
   -49.0243 -49.0231 -49.0203 -49.0068 -49.0036 -48.9517 -48.9495 -48.9193
   -48.9190 -48.8959 -48.8647 -48.8627 -48.8612 -48.8133 -48.8038 -48.7244
   -48.7187 -48.7086 -48.6668 -48.6659 -48.5267 -48.5243 -48.5165 -48.3359
   -23.8395 -21.0323 -21.0228 -20.2460 -20.1197 -19.9154 -19.9063 -19.8415
   -19.4791 -19.3788 -19.3634 -19.3102 -19.2235 -19.2135 -18.9893 -18.8738
   -18.8664 -18.4048 -18.3262 -17.2745  -8.8827  -8.6601  -8.6282  -7.7843
    -7.7490  -7.6757  -7.6521  -7.4981  -7.4080  -7.2720  -7.2037  -7.0774
    -7.0512  -6.9664  -6.8627  -6.8226  -6.6007  -6.5845  -6.3498  -6.1557
    -6.0985  -6.0407  -6.0118  -5.8696  -5.7650  -5.6737  -5.6346  -5.5429
    -5.4733  -5.3264  -5.3068  -5.1850  -5.1416  -4.9115  -4.8704  -4.7778
    -4.7651  -4.6566  -4.6196  -4.4329  -4.3921  -4.2944  -4.1865  -3.9278
    -3.8977  -3.8385  -3.7470  -3.4449  -3.2440  -3.1813  -3.1565  -2.9973
    -2.8940  -2.8189  -2.5794  -2.5319  -2.3545  -2.2967  -1.5828  -0.6250
    -0.5541  -0.4990  -0.4513  -0.3264  -0.2739  -0.1854  -0.0931  -0.0906
    -0.0750  -0.0086   0.0097   0.0761   0.0825   0.2071   0.2644   0.4050
     0.4256   0.5174   0.5433   0.6893   0.7077   0.8658   0.8941   1.1118
     1.3715   1.7687   1.7707   1.8108   1.8565   1.8816   2.0219   2.1579
     2.1826   2.6361   2.6564   2.9511   2.9632   3.2401   3.2580   3.6486
     4.3574   4.7447   4.8801   4.9064   5.1273   5.2394   5.6824   5.7506
     6.2974   6.3207   6.6194   6.7042   6.7663   6.8200   7.0978   7.1427
     7.2345   7.4037   7.6509   7.8075   7.8642   8.1658   8.3578   8.5440
     8.6998   9.0287   9.1455   9.2480   9.3137   9.4654   9.6404   9.9402
    10.0504  10.1811  10.2764  10.4207  10.5702  10.6654  10.7456  10.8071
    10.8284  10.9432  10.9937  11.1154  11.2534  11.3760  11.5038  11.5306
    11.6899  11.7237  11.9272  12.0169  12.0770  12.1479  12.2969  12.3769
    12.5797  12.6076  12.7502  12.8314  13.0019  13.0631  13.1214  13.2170
    13.3384  13.4468  13.4881  13.5477  13.6830  13.7056  13.7631  13.8057
    13.9742  14.0429  14.1695  14.2330  14.2818  14.3108  14.3689  14.4545
    14.5494  14.6010  14.6681  14.7625  14.8473  14.9217  14.9521  15.0175
    15.1020  15.1470  15.1801  15.2518  15.3500  15.3600  15.4593  15.4745
    15.5296  15.7066  15.7395  15.7620  15.7898  15.9058  15.9891  16.0093
    16.1313  16.1526  16.2356  16.2677  16.2889  16.3126  16.3541  16.3756
    16.4506  16.4871  16.6178  16.6205  16.7066  16.7606  16.8131  16.8556
    16.9019  16.9238  17.0210  17.0751  17.1163  17.2275  17.2372  17.3421
    17.4161  17.4428  17.5417  17.6108  17.6422  17.7360  17.7636  17.8251
    17.8950  18.0238  18.0511  18.1354  18.1865  18.2258  18.2968  18.4542
    18.5436  18.5565  18.7091  18.7786  18.7907  18.8776  19.0290  19.0552
    19.1633  19.2774  19.3429  19.3705  19.5412  19.5878  19.6002  19.7446
    19.8021  19.9403  19.9703  20.0250  20.1191  20.1621  20.2001  20.2415
    20.2500  20.3238  20.3960  20.4371  20.5047  20.5968  20.6234  20.7532
    20.7662  20.9056  20.9362  21.1088  21.2449  21.3144  21.3634  21.4083
    21.5588  21.5980  21.7266  21.8027  21.8527  21.9136  21.9752  22.0351
    22.1509  22.2815  22.3900  22.4262  22.5259  22.6339  22.6819  22.6983
    22.7556  22.8494  22.8785

          k =-0.5000-0.4606 0.0000 ( 26416 PWs)   bands (ev):

   -80.1523 -80.1484 -80.1479 -80.1052 -80.1049 -79.9092 -79.8997 -79.7222
   -49.0261 -49.0231 -49.0203 -49.0060 -49.0013 -48.9519 -48.9496 -48.9192
   -48.9188 -48.8961 -48.8649 -48.8628 -48.8612 -48.8127 -48.8032 -48.7250
   -48.7193 -48.7085 -48.6668 -48.6659 -48.5267 -48.5245 -48.5164 -48.3359
   -23.8391 -21.0128 -20.9996 -20.1465 -19.9710 -19.9695 -19.8308 -19.6908
   -19.6769 -19.6156 -19.5020 -19.3295 -19.2448 -19.2416 -18.9659 -18.8425
   -18.8316 -18.4031 -18.3201 -17.2704  -8.8609  -8.6373  -8.6054  -7.5574
    -7.5377  -7.3702  -7.3394  -7.2586  -7.1080  -7.0899  -7.0422  -6.9833
    -6.9605  -6.9424  -6.8452  -6.8028  -6.6136  -6.5192  -6.4113  -6.3541
    -6.3061  -6.2965  -6.1937  -5.9075  -5.8796  -5.8046  -5.7606  -5.6862
    -5.6415  -5.5066  -5.4698  -5.3061  -5.2150  -5.1591  -5.0791  -4.9714
    -4.9362  -4.6994  -4.6511  -4.4688  -4.4112  -4.3587  -4.2723  -4.0963
    -4.0136  -3.6835  -3.6158  -3.5251  -3.1160  -3.0623  -2.9862  -2.9323
    -2.8603  -2.8260  -2.6423  -2.6115  -2.2232  -2.2191  -1.5480  -0.6059
    -0.6026  -0.4607  -0.4048  -0.3787  -0.2926  -0.2509  -0.1728  -0.0943
     0.0494   0.0772   0.1997   0.2226   0.2795   0.3640   0.4181   0.4862
     0.4893   0.5033   0.5663   0.5912   0.7797   0.8078   0.8263   1.1470
     1.2927   1.3963   1.4303   1.4856   1.5382   1.9532   2.1291   2.1712
     2.1742   2.7891   2.8126   3.0542   3.0712   3.3391   3.3697   3.7029
     4.4837   5.3180   5.4162   5.4224   5.5719   5.5896   5.7280   5.7442
     5.8475   5.8892   6.1132   6.1257   6.3700   6.3914   6.6745   6.7391
     6.9536   7.1184   7.3448   7.5280   7.6614   7.9641   8.1014   8.4574
     8.4770   8.8155   8.9309   9.2322   9.3519   9.4988   9.7040   9.9812
     9.9981  10.0964  10.1346  10.2953  10.3876  10.4067  11.1414  11.2276
    11.3370  11.4536  11.5048  11.5991  11.7259  11.7467  12.1348  12.1984
    12.4830  12.5743  12.7354  12.7612  12.9144  13.0230  13.0426  13.0606
    13.2226  13.2298  13.2876  13.3430  13.4792  13.5641  13.6417  13.6435
    13.6947  13.7021  13.7533  13.8914  13.9072  13.9567  14.0186  14.0696
    14.1159  14.1749  14.2030  14.2331  14.2816  14.3184  14.3692  14.3951
    14.4101  14.6049  14.6585  14.6919  14.7442  14.7821  14.8499  14.8682
    14.8882  14.9392  14.9871  15.0464  15.0807  15.0900  15.1509  15.2091
    15.2817  15.3292  15.3744  15.4172  15.4395  15.4676  15.5364  15.5886
    15.6044  15.6468  15.6592  15.7458  15.7907  15.8893  15.9544  15.9818
    16.0559  16.0630  16.1062  16.2209  16.2302  16.2795  16.4165  16.4478
    16.4673  16.5400  16.7523  16.7944  16.8428  16.9051  16.9594  17.1000
    17.1318  17.1378  17.2481  17.2618  17.2910  17.3349  17.3884  17.3907
    17.5011  17.5730  17.8489  17.8801  17.9024  17.9566  18.0508  18.0919
    18.3000  18.3112  18.3723  18.3857  18.4848  18.5203  18.6019  18.6380
    18.8827  18.9138  19.0947  19.1708  19.2238  19.2652  19.3248  19.4092
    19.4637  19.5925  19.6439  19.8794  20.0027  20.0799  20.1436  20.2363
    20.3957  20.4555  20.5857  20.6341  20.7399  20.7480  20.9469  21.0803
    21.2465  21.3182  21.3900  21.4614  21.6403  21.6528  21.7084  21.8289
    21.9566  21.9871  22.0815  22.1659  22.2483  22.2738  22.3363  22.4466
    22.4917  22.7142  22.7709  22.8423  22.8701  22.9243  22.9440  23.0020
    23.0262  23.0705  23.1789

          k =-0.2500 0.2303 0.0000 ( 26396 PWs)   bands (ev):

   -80.1524 -80.1521 -80.1441 -80.1093 -80.1008 -79.9108 -79.8981 -79.7221
   -49.0705 -49.0307 -49.0108 -49.0021 -49.0003 -48.9728 -48.9253 -48.9134
   -48.8987 -48.8957 -48.8695 -48.8634 -48.8626 -48.8518 -48.7574 -48.7304
   -48.7125 -48.7013 -48.6755 -48.6572 -48.5279 -48.5241 -48.5153 -48.3360
   -23.8398 -21.2530 -20.8241 -20.4498 -20.1967 -19.9974 -19.7098 -19.6101
   -19.5237 -19.4520 -19.3570 -19.2968 -19.2409 -19.1265 -18.9949 -18.9327
   -18.7667 -18.4270 -18.2855 -17.2758  -8.8898  -8.8313  -8.5693  -8.0550
    -7.9695  -7.9116  -7.6286  -7.4968  -7.3736  -7.2848  -7.2211  -7.1457
    -7.0208  -6.9648  -6.7703  -6.6849  -6.6159  -6.5096  -6.4539  -6.3644
    -6.2176  -6.1710  -6.0571  -5.9203  -5.8911  -5.7460  -5.6841  -5.4512
    -5.2655  -5.2299  -5.1345  -5.0185  -4.9526  -4.9090  -4.8454  -4.7781
    -4.7002  -4.5466  -4.4272  -4.3177  -4.1776  -4.1212  -4.0164  -3.8641
    -3.7713  -3.6785  -3.6146  -3.4982  -3.4200  -3.2701  -3.1043  -3.0434
    -2.9997  -2.7821  -2.6156  -2.5197  -2.3577  -2.1319  -1.6430  -0.7192
    -0.6809  -0.5294  -0.4650  -0.4432  -0.4036  -0.3137  -0.2447  -0.1763
    -0.1304  -0.0438   0.0113   0.0471   0.0845   0.0943   0.2795   0.3109
     0.4029   0.5213   0.6567   0.7243   0.8286   0.9128   1.0115   1.1394
     1.3614   1.4495   1.5559   1.9015   1.9154   2.0472   2.1414   2.3529
     2.4537   2.7616   2.8786   2.8858   3.1208   3.2215   3.3069   3.4422
     3.9789   4.0762   4.3346   4.8718   5.4990   5.6614   5.9185   6.0017
     6.1747   6.3136   6.4245   6.5746   6.8610   6.9702   7.1850   7.5094
     7.6410   7.7958   8.0630   8.1456   8.3708   8.4702   8.5615   8.6809
     8.8760   9.0314   9.2459   9.3462   9.4955   9.5891   9.8027   9.8473
     9.9664  10.0682  10.1152  10.2151  10.3339  10.4620  10.5476  10.5996
    10.7805  10.8588  10.9333  11.0507  11.1238  11.3400  11.3708  11.4589
    11.6059  11.6989  11.7775  11.8476  11.8997  12.0362  12.1421  12.2174
    12.2872  12.3586  12.4689  12.5208  12.6139  12.6439  12.7945  12.8821
    12.9087  13.0311  13.0986  13.2127  13.2764  13.3447  13.4719  13.5281
    13.6078  13.6833  13.7045  13.7674  13.9543  14.0119  14.0535  14.1643
    14.2682  14.3180  14.3944  14.4154  14.4510  14.6007  14.6605  14.8045
    14.8430  14.9065  14.9322  15.0332  15.1420  15.2060  15.2671  15.3193
    15.4376  15.5058  15.5671  15.6396  15.6949  15.7547  15.8681  15.8904
    16.0042  16.0799  16.1754  16.2194  16.2637  16.3591  16.4440  16.5035
    16.5577  16.6224  16.6770  16.7741  16.8583  16.9164  16.9995  17.0460
    17.1545  17.1888  17.3095  17.3591  17.4758  17.5548  17.6006  17.6485
    17.6972  17.7655  17.8575  17.8941  17.9834  18.0302  18.1105  18.1491
    18.2428  18.3423  18.4069  18.4332  18.5432  18.6019  18.6680  18.7346
    18.8141  18.8481  18.9166  18.9639  19.0308  19.1035  19.1804  19.2441
    19.4066  19.4714  19.5563  19.6213  19.6663  19.7203  19.8082  19.8840
    19.9492  20.0414  20.0757  20.2244  20.2457  20.3287  20.4322  20.4997
    20.5693  20.6792  20.7403  20.8353  20.9178  20.9642  21.0462  21.1365
    21.1849  21.2424  21.3226  21.3544  21.4619  21.5286  21.5946  21.7049
    21.8001  21.8970  21.9473  22.0192  22.1162  22.2112  22.2384  22.3384
    22.4076  22.4918  22.5712  22.6343  22.7166  22.7469  22.8127  22.8860
    22.9897  23.0482  23.1484

     the spin up/dw Fermi energies are    -1.2292   -1.4958 ev

!    total energy              =   -2354.30706900 Ry
     Harris-Foulkes estimate   =   -2354.30706900 Ry
     estimated scf accuracy    <          3.9E-09 Ry

     The total energy is the sum of the following terms:

     one-electron contribution =  -27293.44115346 Ry
     hartree contribution      =   13671.99759310 Ry
     xc contribution           =    -355.87451909 Ry
     ewald contribution        =   11623.01088439 Ry
     smearing contrib. (-TS)   =       0.00012607 Ry

     total magnetization       =    23.00 Bohr mag/cell
     absolute magnetization    =    23.96 Bohr mag/cell

     convergence has been achieved in  15 iterations

     Forces acting on atoms (Ry/au):


     negative rho (up, down):  0.218E-02 0.123E-02
     atom    1 type  1   force =    -0.00479441   -0.01558671   -0.00036404
     atom    2 type  1   force =     0.00026305    0.01200050    0.00042018
     atom    3 type  2   force =     0.03402118   -0.00380822   -0.00015264
     atom    4 type  2   force =     0.00414318    0.01109437   -0.00022071
     atom    5 type  1   force =     0.00237334    0.00831134    0.00022118
     atom    6 type  1   force =    -0.00424564   -0.01043165    0.00034080
     atom    7 type  1   force =     0.00001431   -0.00183954    0.00003893
     atom    8 type  1   force =    -0.00030356    0.00346446   -0.00029597
     atom    9 type  2   force =     0.00109547   -0.00145347   -0.00024977
     atom   10 type  2   force =    -0.00008707   -0.00280402    0.00037552
     atom   11 type  1   force =    -0.01700034   -0.04782074    0.00001020
     atom   12 type  1   force =    -0.01233532    0.05871881    0.00077819
     atom   13 type  1   force =    -0.00020078   -0.00496963   -0.00041186
     atom   14 type  1   force =    -0.00457363   -0.01561436    0.00004078
     atom   15 type  1   force =     0.00022837    0.01150038   -0.00031275
     atom   16 type  2   force =    -0.03475486   -0.00370041   -0.00015048
     atom   17 type  2   force =     0.00395076    0.01119507    0.00016291
     atom   18 type  1   force =     0.00499407    0.00813309    0.00021132
     atom   19 type  1   force =    -0.00140163   -0.01055617    0.00023278
     atom   20 type  1   force =    -0.00005587   -0.00199000   -0.00090748
     atom   21 type  1   force =    -0.00030567    0.00307854   -0.00018258
     atom   22 type  2   force =    -0.00036999   -0.00134600   -0.00026824
     atom   23 type  2   force =    -0.00007053   -0.00437461    0.00000702
     atom   24 type  1   force =     0.01718644   -0.04780479   -0.00000162
     atom   25 type  1   force =     0.01239184    0.05877086    0.00075881
     atom   26 type  1   force =    -0.00021927   -0.01299183   -0.00015315
     atom   27 type  3   force =    -0.00001522   -0.00009138    0.00057517
     atom   28 type  3   force =     0.00002557    0.00036593    0.00043881
     atom   29 type  3   force =     0.00011223    0.00011866   -0.00001841
     atom   30 type  3   force =    -0.00007339    0.00000848   -0.00017103
     atom   31 type  1   force =    -0.00002428   -0.00039281   -0.00042086
     atom   32 type  1   force =     0.00005062    0.00006353    0.00007322
     atom   33 type  3   force =    -0.00001896    0.00075233   -0.00040420

     Total force =     0.002278     Total SCF correction =     0.000141


     entering subroutine stress ...


     negative rho (up, down):  0.218E-02 0.123E-02
          total   stress  (Ry/bohr**3)                   (kbar)     P=    4.62
   0.00001899  -0.00000505   0.00000488          2.79     -0.74      0.72
  -0.00000505   0.00013673   0.00000238         -0.74     20.11      0.35
   0.00000488   0.00000238  -0.00006154          0.72      0.35     -9.05


     bfgs converged in  16 scf cycles and  15 bfgs steps
     (criteria: energy < 0.10E-03, force < 0.10E-02)

     End of BFGS Geometry Optimization

     Final energy   =   -2354.3070689974 Ry
Begin final coordinates

ATOMIC_POSITIONS (crystal)
O0       0.000000000   0.000000000   0.378963606    0   0   1
O0       0.000000000   0.500000000   0.400350691    0   0   1
Mn1      0.250000000   0.500000000   0.451601598    0   0   1
Mn1      0.000000000   0.000000000   0.450065945    0   0   1
O0       0.250000000   0.800000000   0.449743395    0   0   1
O0       0.250000000   0.200000000   0.451165122    0   0   1
O0       0.000000000   0.500000000   0.497743748    0   0   1
O0       0.000000000   0.000000000   0.524541650    0   0   1
Mn1      0.250000000   0.000000000   0.573794128    0   0   1
Mn1      0.000000000   0.500000000   0.567946111    0   0   1
O0       0.250000000   0.700000000   0.574967997    0   0   1
O0       0.250000000   0.300000000   0.578456836    0   0   1
O0       0.000000000   0.000000000   0.617547838    0   0   1
O0       0.500000000   0.000000000   0.379123591    0   0   1
O0       0.500000000   0.500000000   0.400479958    0   0   1
Mn1      0.750000000   0.500000000   0.451598586    0   0   1
Mn1      0.500000000   0.000000000   0.450308376    0   0   1
O0       0.750000000   0.800000000   0.449713787    0   0   1
O0       0.750000000   0.200000000   0.451226213    0   0   1
O0       0.500000000   0.500000000   0.498603153    0   0   1
O0       0.500000000   0.000000000   0.524522919    0   0   1
Mn1      0.750000000   0.000000000   0.573800252    0   0   1
Mn1      0.500000000   0.500000000   0.578740152    0   0   1
O0       0.750000000   0.700000000   0.574965673    0   0   1
O0       0.750000000   0.300000000   0.578472147    0   0   1
O0       0.500000000   0.000000000   0.617060554    0   0   1
H2       0.000060681   0.646186886   0.383853376
H2       0.500017231   0.646140403   0.383945571
H2       0.161507244   0.036293812   0.367190328
H2       0.661533674   0.036252428   0.367347653
O0       0.499860000   0.538463298   0.648102305    0   1   1
O0       0.500290000   0.345114864   0.678604497    0   1   1
H2       0.499860000   0.413389230   0.712772245    0   1   1
End final coordinates



     init_run     :    106.92s CPU    108.52s WALL (       1 calls)
     electrons    :  64921.31s CPU  67400.23s WALL (      16 calls)
     update_pot   :    262.80s CPU    271.64s WALL (      15 calls)
     forces       :   2325.18s CPU   2416.49s WALL (      16 calls)
     stress       :   7387.49s CPU   7821.44s WALL (      16 calls)

     Called by init_run:
     wfcinit      :     43.24s CPU     43.90s WALL (       1 calls)
     potinit      :      7.55s CPU      7.87s WALL (       1 calls)

     Called by electrons:
     c_bands      :  35977.17s CPU  37294.91s WALL (     298 calls)
     sum_band     :  14935.98s CPU  15546.55s WALL (     298 calls)
     v_of_rho     :    632.57s CPU    722.68s WALL (     299 calls)
     newd         :  13698.73s CPU  13793.71s WALL (     299 calls)
     mix_rho      :     97.90s CPU    101.15s WALL (     298 calls)

     Called by c_bands:
     init_us_2    :     80.55s CPU     81.86s WALL (    3145 calls)
     cegterg      :  35125.76s CPU  36045.99s WALL (    1490 calls)

     Called by *egterg:
     h_psi        :  19054.06s CPU  19564.56s WALL (    3787 calls)
     s_psi        :   2258.02s CPU   2285.67s WALL (    3787 calls)
     g_psi        :     48.61s CPU     48.67s WALL (    2292 calls)
     cdiaghg      :   3378.65s CPU   3387.37s WALL (    3632 calls)

     Called by h_psi:
     add_vuspsi   :   2265.27s CPU   2295.07s WALL (    3787 calls)

     General routines
     calbec       :   3502.68s CPU   3537.43s WALL (    5437 calls)
     fft          :    713.06s CPU    893.86s WALL (    9933 calls)
     ffts         :      8.35s CPU      8.89s WALL (    1194 calls)
     fftw         :  11951.80s CPU  12552.86s WALL ( 2720442 calls)
     interpolate  :     80.40s CPU     82.18s WALL (    1194 calls)

     Parallel routines
     fft_scatter  :   4402.50s CPU   5155.80s WALL ( 2731569 calls)

     PWSCF        :    21h 1m CPU       21h52m WALL


   This run was terminated on:  21:13: 2  24May2014            

=------------------------------------------------------------------------------=
   JOB DONE.
=------------------------------------------------------------------------------=
