
     Program PWSCF v.5.0.2 (svn rev. 9656) starts on 31May2014 at  3:23:38 

     This program is part of the open-source Quantum ESPRESSO suite
     for quantum simulation of materials; please cite
         "P. Giannozzi et al., J. Phys.:Condens. Matter 21 395502 (2009);
          URL http://www.quantum-espresso.org", 
     in publications or presentations arising from this work. More details at
     http://www.quantum-espresso.org/quote.php

     Parallel version (MPI), running on    16 processors
     K-points division:     npool     =       4
     R & G space division:  proc/nbgrp/npool/nimage =       4

     Current dimensions of program PWSCF are:
     Max number of different atomic species (ntypx) = 10
     Max number of k-points (npk) =  40000
     Max angular momentum in pseudopotentials (lmaxx) =  3
     Reading input from pwscf.in
Warning: card &CELL ignored
Warning: card / ignored

     Subspace diagonalization in iterative solution of the eigenvalue problem:
     a serial algorithm will be used


     Parallelization info
     --------------------
     sticks:   dense  smooth     PW     G-vecs:    dense   smooth      PW
     Min        1491     475    132               353925    64028    9441
     Max        1492     476    134               353934    64061    9444
     Sum        5965    1901    531              1415713   256153   37769



     bravais-lattice index     =            0
     lattice parameter (alat)  =      12.2076  a.u.
     unit-cell volume          =    7496.5096 (a.u.)^3
     number of atoms/cell      =           33
     number of atomic types    =            3
     number of electrons       =       253.00
     number of Kohn-Sham states=          379
     kinetic-energy cutoff     =      40.0000  Ry
     charge density cutoff     =     500.0000  Ry
     convergence threshold     =      1.0E-06
     mixing beta               =       0.7000
     number of iterations used =            8  plain     mixing
     Exchange-correlation      = SLA  PW   PBE  PBE ( 1 4 3 4 0)
     EXX-fraction              =        0.00
     nstep                     =           50


     celldm(1)=  12.207631  celldm(2)=   0.000000  celldm(3)=   0.000000
     celldm(4)=   0.000000  celldm(5)=   0.000000  celldm(6)=   0.000000

     crystal axes: (cart. coord. in units of alat)
               a(1) = (   1.000000   0.000000   0.000000 )  
               a(2) = (   0.000000   1.004836   0.000000 )  
               a(3) = (   0.000000   0.000000   4.100811 )  

     reciprocal axes: (cart. coord. in units 2 pi/alat)
               b(1) = (  1.000000  0.000000  0.000000 )  
               b(2) = (  0.000000  0.995187  0.000000 )  
               b(3) = (  0.000000  0.000000  0.243854 )  


     PseudoPot. # 1 for O  read from file:
     /home/camp/zhonxu/pseudo/o_pbe_v1.01.uspp.F.UPF
     MD5 check sum: 2bcb18d16ea4b960afae9ec6d52f22d2
     Pseudo is Ultrasoft + core correction, Zval =  6.0
     Generated by new atomic code, or converted to UPF format
     Using radial grid of  737 points,  5 beta functions with: 
                l(1) =   0
                l(2) =   0
                l(3) =   1
                l(4) =   1
                l(5) =   2
     Q(r) pseudized with  8 coefficients,  rinner =    0.900   0.900   0.900
                                                       0.900   0.900

     PseudoPot. # 2 for Pt read from file:
     /home/camp/zhonxu/pseudo/pt_pbe_v1.uspp.F.UPF
     MD5 check sum: 4c71d6ad5ef119f1eb26a4d0b7884226
     Pseudo is Ultrasoft + core correction, Zval = 16.0
     Generated by new atomic code, or converted to UPF format
     Using radial grid of  985 points,  6 beta functions with: 
                l(1) =   0
                l(2) =   0
                l(3) =   1
                l(4) =   1
                l(5) =   2
                l(6) =   2
     Q(r) pseudized with  8 coefficients,  rinner =    1.300   1.300   1.300
                                                       1.300   1.300

     PseudoPot. # 3 for H  read from file:
     /home/camp/zhonxu/pseudo/h_pbe_v1.uspp.F.UPF
     MD5 check sum: 3408e3ff4ec8b0a4e358431e7e038a48
     Pseudo is Ultrasoft, Zval =  1.0
     Generated by new atomic code, or converted to UPF format
     Using radial grid of  615 points,  2 beta functions with: 
                l(1) =   0
                l(2) =   0
     Q(r) pseudized with  8 coefficients,  rinner =    0.700

     atomic species   valence    mass     pseudopotential
        O0             6.00    15.99940     O ( 1.00)
        Pt1           16.00   195.08000     Pt( 1.00)
        H2             1.00     1.00794     H ( 1.00)


     Simplified LDA+U calculation (l_max = 2) with parameters (eV):
     atomic species    L          U    alpha       J0     beta
        Pt1            2     0.0000   0.0000   0.0000   0.0000



     No symmetry found



   Cartesian axes

     site n.     atom                  positions (alat units)
         1           O0  tau(   1) = (   0.0000000   0.0000000   1.5494095  )
         2           O0  tau(   2) = (   0.0000000   0.5024180   1.6475009  )
         3           Pt1 tau(   3) = (   0.2500000   0.5024180   1.8504910  )
         4           Pt1 tau(   4) = (   0.0000000   0.0000000   1.8570523  )
         5           O0  tau(   5) = (   0.2500000   0.8139171   1.8187098  )
         6           O0  tau(   6) = (   0.2500000   0.1909188   1.8864142  )
         7           O0  tau(   7) = (   0.0000000   0.5024180   2.0369959  )
         8           O0  tau(   8) = (   0.0000000   0.0000000   2.1720357  )
         9           Pt1 tau(   9) = (   0.2500000   0.0000000   2.3614521  )
        10           Pt1 tau(  10) = (   0.0000000   0.5024180   2.3598528  )
        11           O0  tau(  11) = (   0.2500000   0.6933368   2.3268823  )
        12           O0  tau(  12) = (   0.2500000   0.3114991   2.4033624  )
        13           O0  tau(  13) = (   0.0000000   0.0000000   2.5482851  )
        14           O0  tau(  14) = (   0.5000000   0.0000000   1.5485073  )
        15           O0  tau(  15) = (   0.5000000   0.5024180   1.6434821  )
        16           Pt1 tau(  16) = (   0.7500000   0.5024180   1.8504910  )
        17           Pt1 tau(  17) = (   0.5000000   0.0000000   1.8561092  )
        18           O0  tau(  18) = (   0.7500000   0.8139171   1.8187918  )
        19           O0  tau(  19) = (   0.7500000   0.1909188   1.8863321  )
        20           O0  tau(  20) = (   0.5000000   0.5024180   2.0428191  )
        21           O0  tau(  21) = (   0.5000000   0.0000000   2.1708874  )
        22           Pt1 tau(  22) = (   0.7500000   0.0000000   2.3614521  )
        23           Pt1 tau(  23) = (   0.5000000   0.5024180   2.3628874  )
        24           O0  tau(  24) = (   0.7500000   0.6933368   2.3268003  )
        25           O0  tau(  25) = (   0.7500000   0.3114991   2.4034034  )
        26           O0  tau(  26) = (   0.5000000   0.0000000   2.5460296  )
        27           H2  tau(  27) = (   0.0000200   0.6429744   1.5830361  )
        28           H2  tau(  28) = (   0.5000600   0.6435874   1.5806577  )
        29           H2  tau(  29) = (   0.1433700   0.0339333   1.5082373  )
        30           H2  tau(  30) = (   0.6430800   0.0354607   1.5076632  )
        31           O0  tau(  31) = (   0.5001100   0.5589199   2.6603192  )
        32           O0  tau(  32) = (   0.4999400   0.3687346   2.7792838  )
        33           H2  tau(  33) = (   0.4999900   0.4305019   2.9192445  )

     number of k points=    10  Methfessel-Paxton smearing, width (Ry)=  0.0100
                       cart. coord. in units 2pi/alat
        k(    1) = (   0.0000000   0.0000000   0.0000000), wk =   0.1250000
        k(    2) = (   0.0000000   0.2487968   0.0000000), wk =   0.2500000
        k(    3) = (   0.0000000  -0.4975937   0.0000000), wk =   0.1250000
        k(    4) = (   0.2500000   0.0000000   0.0000000), wk =   0.2500000
        k(    5) = (   0.2500000   0.2487968   0.0000000), wk =   0.2500000
        k(    6) = (   0.2500000  -0.4975937   0.0000000), wk =   0.2500000
        k(    7) = (  -0.5000000   0.0000000   0.0000000), wk =   0.1250000
        k(    8) = (  -0.5000000   0.2487968   0.0000000), wk =   0.2500000
        k(    9) = (  -0.5000000  -0.4975937   0.0000000), wk =   0.1250000
        k(   10) = (  -0.2500000   0.2487968   0.0000000), wk =   0.2500000

     Dense  grid:  1415713 G-vectors     FFT dimensions: (  90,  90, 360)

     Smooth grid:   256153 G-vectors     FFT dimensions: (  50,  50, 216)

     Largest allocated arrays     est. size (Mb)     dimensions
        Kohn-Sham Wavefunctions        46.83 Mb     (   8098,  379)
        Atomic wavefunctions           22.37 Mb     (   8098,  181)
        NL pseudopotentials            51.16 Mb     (   8098,  414)
        Each V/rho on FFT grid         11.12 Mb     ( 729000)
        Each G-vector array             2.70 Mb     ( 353934)
        G-vector shells                 1.17 Mb     ( 153301)
     Largest temporary arrays     est. size (Mb)     dimensions
        Auxiliary wavefunctions       187.33 Mb     (   8098, 1516)
        Each subspace H/S matrix       35.07 Mb     (1516,1516)
        Each <psi_i|beta_j> matrix      2.39 Mb     (    414,  379)
        Arrays for rho mixing          88.99 Mb     ( 729000,   8)

     Check: negative/imaginary core charge=   -0.000003    0.000000

     Initial potential from superposition of free atoms
     Check: negative starting charge=   -1.535323

     starting charge  248.99983, renormalised to  253.00000

     negative rho (up, down):  0.156E+01 0.000E+00
     Number of +U iterations with fixed ns =  0
     Starting occupations:
 --- enter write_ns ---
 LDA+U parameters:
U( 2)     =  0.00000000
alpha( 2) =  0.00000000
atom    3   Tr[ns(na)] =   8.00000
    eigenvalues: 
  0.800  0.800  0.800  0.800  0.800
    eigenvectors:
  1.000  0.000  0.000  0.000  0.000
  0.000  1.000  0.000  0.000  0.000
  0.000  0.000  1.000  0.000  0.000
  0.000  0.000  0.000  1.000  0.000
  0.000  0.000  0.000  0.000  1.000
    occupations:
  0.800  0.000  0.000  0.000  0.000
  0.000  0.800  0.000  0.000  0.000
  0.000  0.000  0.800  0.000  0.000
  0.000  0.000  0.000  0.800  0.000
  0.000  0.000  0.000  0.000  0.800
atom    4   Tr[ns(na)] =   8.00000
    eigenvalues: 
  0.800  0.800  0.800  0.800  0.800
    eigenvectors:
  1.000  0.000  0.000  0.000  0.000
  0.000  1.000  0.000  0.000  0.000
  0.000  0.000  1.000  0.000  0.000
  0.000  0.000  0.000  1.000  0.000
  0.000  0.000  0.000  0.000  1.000
    occupations:
  0.800  0.000  0.000  0.000  0.000
  0.000  0.800  0.000  0.000  0.000
  0.000  0.000  0.800  0.000  0.000
  0.000  0.000  0.000  0.800  0.000
  0.000  0.000  0.000  0.000  0.800
atom    9   Tr[ns(na)] =   8.00000
    eigenvalues: 
  0.800  0.800  0.800  0.800  0.800
    eigenvectors:
  1.000  0.000  0.000  0.000  0.000
  0.000  1.000  0.000  0.000  0.000
  0.000  0.000  1.000  0.000  0.000
  0.000  0.000  0.000  1.000  0.000
  0.000  0.000  0.000  0.000  1.000
    occupations:
  0.800  0.000  0.000  0.000  0.000
  0.000  0.800  0.000  0.000  0.000
  0.000  0.000  0.800  0.000  0.000
  0.000  0.000  0.000  0.800  0.000
  0.000  0.000  0.000  0.000  0.800
atom   10   Tr[ns(na)] =   8.00000
    eigenvalues: 
  0.800  0.800  0.800  0.800  0.800
    eigenvectors:
  1.000  0.000  0.000  0.000  0.000
  0.000  1.000  0.000  0.000  0.000
  0.000  0.000  1.000  0.000  0.000
  0.000  0.000  0.000  1.000  0.000
  0.000  0.000  0.000  0.000  1.000
    occupations:
  0.800  0.000  0.000  0.000  0.000
  0.000  0.800  0.000  0.000  0.000
  0.000  0.000  0.800  0.000  0.000
  0.000  0.000  0.000  0.800  0.000
  0.000  0.000  0.000  0.000  0.800
atom   16   Tr[ns(na)] =   8.00000
    eigenvalues: 
  0.800  0.800  0.800  0.800  0.800
    eigenvectors:
  1.000  0.000  0.000  0.000  0.000
  0.000  1.000  0.000  0.000  0.000
  0.000  0.000  1.000  0.000  0.000
  0.000  0.000  0.000  1.000  0.000
  0.000  0.000  0.000  0.000  1.000
    occupations:
  0.800  0.000  0.000  0.000  0.000
  0.000  0.800  0.000  0.000  0.000
  0.000  0.000  0.800  0.000  0.000
  0.000  0.000  0.000  0.800  0.000
  0.000  0.000  0.000  0.000  0.800
atom   17   Tr[ns(na)] =   8.00000
    eigenvalues: 
  0.800  0.800  0.800  0.800  0.800
    eigenvectors:
  1.000  0.000  0.000  0.000  0.000
  0.000  1.000  0.000  0.000  0.000
  0.000  0.000  1.000  0.000  0.000
  0.000  0.000  0.000  1.000  0.000
  0.000  0.000  0.000  0.000  1.000
    occupations:
  0.800  0.000  0.000  0.000  0.000
  0.000  0.800  0.000  0.000  0.000
  0.000  0.000  0.800  0.000  0.000
  0.000  0.000  0.000  0.800  0.000
  0.000  0.000  0.000  0.000  0.800
atom   22   Tr[ns(na)] =   8.00000
    eigenvalues: 
  0.800  0.800  0.800  0.800  0.800
    eigenvectors:
  1.000  0.000  0.000  0.000  0.000
  0.000  1.000  0.000  0.000  0.000
  0.000  0.000  1.000  0.000  0.000
  0.000  0.000  0.000  1.000  0.000
  0.000  0.000  0.000  0.000  1.000
    occupations:
  0.800  0.000  0.000  0.000  0.000
  0.000  0.800  0.000  0.000  0.000
  0.000  0.000  0.800  0.000  0.000
  0.000  0.000  0.000  0.800  0.000
  0.000  0.000  0.000  0.000  0.800
atom   23   Tr[ns(na)] =   8.00000
    eigenvalues: 
  0.800  0.800  0.800  0.800  0.800
    eigenvectors:
  1.000  0.000  0.000  0.000  0.000
  0.000  1.000  0.000  0.000  0.000
  0.000  0.000  1.000  0.000  0.000
  0.000  0.000  0.000  1.000  0.000
  0.000  0.000  0.000  0.000  1.000
    occupations:
  0.800  0.000  0.000  0.000  0.000
  0.000  0.800  0.000  0.000  0.000
  0.000  0.000  0.800  0.000  0.000
  0.000  0.000  0.000  0.800  0.000
  0.000  0.000  0.000  0.000  0.800
N of occupied +U levels =  64.0000000
 --- exit write_ns ---
 Atomic wfc used for LDA+U Projector are NOT orthogonalized
     Starting wfc are  181 randomized atomic wfcs

     total cpu time spent up to now is      119.6 secs

     per-process dynamical memory:   446.0 Mb

     Self-consistent Calculation

     iteration #  1     ecut=    40.00 Ry     beta=0.70
     Davidson diagonalization with overlap
     ethr =  1.00E-02,  avg # of iterations =  5.4
 --- enter write_ns ---
 LDA+U parameters:
U( 2)     =  0.00000000
alpha( 2) =  0.00000000
atom    3   Tr[ns(na)] =   7.32683
    eigenvalues: 
  0.400  0.438  0.921  0.939  0.966
    eigenvectors:
  0.000  0.164  0.116  0.719  0.001
  0.998  0.002  0.000  0.000  0.000
  0.000  0.013  0.883  0.104  0.000
  0.002  0.821  0.001  0.176  0.000
  0.000  0.000  0.000  0.001  0.999
    occupations:
  0.855 -0.001  0.017 -0.184  0.001
 -0.001  0.400  0.001  0.002 -0.003
  0.017  0.001  0.916  0.052 -0.000
 -0.184  0.002  0.052  0.527  0.000
  0.001 -0.003 -0.000  0.000  0.966
atom    4   Tr[ns(na)] =   7.32207
    eigenvalues: 
  0.417  0.443  0.888  0.954  0.959
    eigenvectors:
  0.000  0.978  0.008  0.000  0.014
  0.026  0.000  0.005  0.968  0.001
  0.000  0.008  0.985  0.005  0.002
  0.000  0.014  0.001  0.001  0.984
  0.974  0.000  0.000  0.026  0.000
    occupations:
  0.454 -0.004 -0.038  0.061 -0.001
 -0.004  0.939  0.004  0.000  0.086
 -0.038  0.004  0.885  0.008  0.001
  0.061  0.000  0.008  0.951  0.000
 -0.001  0.086  0.001  0.000  0.431
atom    9   Tr[ns(na)] =   7.47034
    eigenvalues: 
  0.433  0.454  0.912  0.965  0.971
    eigenvectors:
  0.001  0.135  0.001  0.861  0.002
  0.995  0.005  0.000  0.000  0.000
  0.000  0.019  0.972  0.008  0.001
  0.004  0.842  0.026  0.128  0.000
  0.000  0.000  0.001  0.003  0.997
    occupations:
  0.896 -0.002 -0.028 -0.173 -0.000
 -0.002  0.433  0.000 -0.001 -0.002
 -0.028  0.000  0.904 -0.056  0.002
 -0.173 -0.001 -0.056  0.531  0.000
 -0.000 -0.002  0.002  0.000  0.971
atom   10   Tr[ns(na)] =   7.75873
    eigenvalues: 
  0.421  0.551  0.953  0.975  0.980
    eigenvectors:
  0.000  0.982  0.003  0.015  0.000
  0.032  0.000  0.000  0.000  0.968
  0.000  0.001  0.575  0.424  0.000
  0.000  0.017  0.422  0.561  0.000
  0.968  0.000  0.000  0.000  0.032
    occupations:
  0.558 -0.000 -0.015  0.054  0.000
 -0.000  0.962  0.000 -0.000 -0.098
 -0.015  0.000  0.962 -0.009  0.000
  0.054 -0.000 -0.009  0.959 -0.000
  0.000 -0.098  0.000 -0.000  0.439
atom   16   Tr[ns(na)] =   7.32719
    eigenvalues: 
  0.400  0.438  0.921  0.939  0.966
    eigenvectors:
  0.000  0.164  0.110  0.725  0.001
  0.998  0.002  0.000  0.000  0.000
  0.000  0.013  0.888  0.098  0.001
  0.002  0.821  0.001  0.176  0.000
  0.000  0.000  0.001  0.001  0.998
    occupations:
  0.855  0.001  0.017 -0.184 -0.001
  0.001  0.400 -0.001 -0.002 -0.003
  0.017 -0.001  0.916  0.052  0.001
 -0.184 -0.002  0.052  0.527 -0.000
 -0.001 -0.003  0.001 -0.000  0.966
atom   17   Tr[ns(na)] =   7.34299
    eigenvalues: 
  0.417  0.443  0.903  0.950  0.959
    eigenvectors:
  0.000  0.977  0.009  0.000  0.013
  0.026  0.000  0.011  0.962  0.001
  0.000  0.008  0.979  0.011  0.003
  0.000  0.014  0.002  0.001  0.983
  0.973  0.000  0.000  0.026  0.000
    occupations:
  0.454 -0.004 -0.040  0.061 -0.001
 -0.004  0.935  0.005  0.001  0.085
 -0.040  0.005  0.900  0.008  0.001
  0.061  0.001  0.008  0.951  0.000
 -0.001  0.085  0.001  0.000  0.431
atom   22   Tr[ns(na)] =   7.47039
    eigenvalues: 
  0.433  0.454  0.912  0.965  0.971
    eigenvectors:
  0.001  0.134  0.001  0.852  0.011
  0.992  0.008  0.000  0.000  0.000
  0.000  0.019  0.972  0.008  0.001
  0.006  0.839  0.026  0.127  0.001
  0.000  0.000  0.001  0.013  0.986
    occupations:
  0.896  0.003 -0.028 -0.173  0.001
  0.003  0.433  0.000  0.001 -0.002
 -0.028  0.000  0.904 -0.056 -0.002
 -0.173  0.001 -0.056  0.531 -0.000
  0.001 -0.002 -0.002 -0.000  0.971
atom   23   Tr[ns(na)] =   7.34849
    eigenvalues: 
  0.413  0.457  0.910  0.936  0.958
    eigenvectors:
  0.000  0.958  0.037  0.000  0.006
  0.033  0.000  0.000  0.967  0.000
  0.000  0.029  0.926  0.000  0.045
  0.000  0.013  0.038  0.000  0.949
  0.967  0.000  0.000  0.033  0.000
    occupations:
  0.477  0.000  0.075  0.054 -0.000
  0.000  0.918  0.000 -0.000 -0.094
  0.075  0.000  0.899 -0.019 -0.000
  0.054 -0.000 -0.019  0.950 -0.000
 -0.000 -0.094 -0.000 -0.000  0.430
N of occupied +U levels =  59.3670392
 --- exit write_ns ---

     negative rho (up, down):  0.151E+01 0.000E+00

     total cpu time spent up to now is      512.9 secs

     total energy              =   -2300.48279828 Ry
     Harris-Foulkes estimate   =   -2320.09897930 Ry
     estimated scf accuracy    <      23.82479478 Ry

     iteration #  2     ecut=    40.00 Ry     beta=0.70
     Davidson diagonalization with overlap
     ethr =  9.42E-03,  avg # of iterations =  6.9

     negative rho (up, down):  0.115E+01 0.000E+00

     total cpu time spent up to now is      784.3 secs

     total energy              =   -2259.11456174 Ry
     Harris-Foulkes estimate   =   -2345.57043978 Ry
     estimated scf accuracy    <     470.37492982 Ry

     iteration #  3     ecut=    40.00 Ry     beta=0.70
     Davidson diagonalization with overlap
     ethr =  9.42E-03,  avg # of iterations =  4.1

     negative rho (up, down):  0.801E+00 0.000E+00

     total cpu time spent up to now is     1083.8 secs

     total energy              =   -2247.25460618 Ry
     Harris-Foulkes estimate   =   -2366.25817465 Ry
     estimated scf accuracy    <    2091.31297800 Ry

     iteration #  4     ecut=    40.00 Ry     beta=0.70
     Davidson diagonalization with overlap
     ethr =  9.42E-03,  avg # of iterations =  4.0

     negative rho (up, down):  0.966E+00 0.000E+00

     total cpu time spent up to now is     1359.7 secs

     total energy              =   -2312.49639693 Ry
     Harris-Foulkes estimate   =   -2316.37088834 Ry
     estimated scf accuracy    <      11.11460256 Ry

     iteration #  5     ecut=    40.00 Ry     beta=0.70
     Davidson diagonalization with overlap
     ethr =  4.39E-03,  avg # of iterations =  2.4

     negative rho (up, down):  0.107E+01 0.000E+00

     total cpu time spent up to now is     1553.4 secs

     total energy              =   -2313.20202790 Ry
     Harris-Foulkes estimate   =   -2315.71419005 Ry
     estimated scf accuracy    <      13.62691640 Ry

     iteration #  6     ecut=    40.00 Ry     beta=0.70
     Davidson diagonalization with overlap
     ethr =  4.39E-03,  avg # of iterations =  3.6

     negative rho (up, down):  0.111E+01 0.000E+00

     total cpu time spent up to now is     1759.2 secs

     total energy              =   -2314.29243397 Ry
     Harris-Foulkes estimate   =   -2314.88714305 Ry
     estimated scf accuracy    <       3.23752613 Ry

     iteration #  7     ecut=    40.00 Ry     beta=0.70
     Davidson diagonalization with overlap
     ethr =  1.28E-03,  avg # of iterations =  2.2

     negative rho (up, down):  0.113E+01 0.000E+00

     total cpu time spent up to now is     1954.4 secs

     total energy              =   -2314.38809998 Ry
     Harris-Foulkes estimate   =   -2314.73225052 Ry
     estimated scf accuracy    <       2.24887521 Ry

     iteration #  8     ecut=    40.00 Ry     beta=0.70
     Davidson diagonalization with overlap
     ethr =  8.89E-04,  avg # of iterations =  1.1

     negative rho (up, down):  0.115E+01 0.000E+00

     total cpu time spent up to now is     2150.3 secs

     total energy              =   -2314.36307074 Ry
     Harris-Foulkes estimate   =   -2314.57178406 Ry
     estimated scf accuracy    <       1.73980952 Ry

     iteration #  9     ecut=    40.00 Ry     beta=0.70
     Davidson diagonalization with overlap
     ethr =  6.88E-04,  avg # of iterations =  1.0

     negative rho (up, down):  0.121E+01 0.000E+00

     total cpu time spent up to now is     2346.0 secs

     total energy              =   -2314.39329567 Ry
     Harris-Foulkes estimate   =   -2314.51720556 Ry
     estimated scf accuracy    <       0.81022176 Ry

     iteration # 10     ecut=    40.00 Ry     beta=0.70
     Davidson diagonalization with overlap
     ethr =  3.20E-04,  avg # of iterations =  3.5

     negative rho (up, down):  0.131E+01 0.000E+00

     total cpu time spent up to now is     2545.3 secs

     total energy              =   -2314.26807875 Ry
     Harris-Foulkes estimate   =   -2314.44469703 Ry
     estimated scf accuracy    <       0.70133863 Ry

     iteration # 11     ecut=    40.00 Ry     beta=0.70
     Davidson diagonalization with overlap
     ethr =  2.77E-04,  avg # of iterations =  8.8

     negative rho (up, down):  0.152E+01 0.000E+00

     total cpu time spent up to now is     2802.2 secs

     total energy              =   -2314.14332016 Ry
     Harris-Foulkes estimate   =   -2314.33742111 Ry
     estimated scf accuracy    <       0.42769615 Ry

     iteration # 12     ecut=    40.00 Ry     beta=0.70
     Davidson diagonalization with overlap
     ethr =  1.69E-04,  avg # of iterations =  4.1

     negative rho (up, down):  0.154E+01 0.000E+00

     total cpu time spent up to now is     3021.1 secs

     total energy              =   -2313.69077837 Ry
     Harris-Foulkes estimate   =   -2314.57771464 Ry
     estimated scf accuracy    <       8.26188216 Ry

     iteration # 13     ecut=    40.00 Ry     beta=0.70
     Davidson diagonalization with overlap
     ethr =  1.69E-04,  avg # of iterations =  6.3

     negative rho (up, down):  0.151E+01 0.000E+00

     total cpu time spent up to now is     3255.0 secs

     total energy              =   -2313.85510392 Ry
     Harris-Foulkes estimate   =   -2314.46247487 Ry
     estimated scf accuracy    <       5.72747468 Ry

     iteration # 14     ecut=    40.00 Ry     beta=0.70
     Davidson diagonalization with overlap
     ethr =  1.69E-04,  avg # of iterations =  4.5

     negative rho (up, down):  0.155E+01 0.000E+00

     total cpu time spent up to now is     3469.9 secs

     total energy              =   -2314.15749337 Ry
     Harris-Foulkes estimate   =   -2314.27391478 Ry
     estimated scf accuracy    <       0.39838520 Ry

     iteration # 15     ecut=    40.00 Ry     beta=0.70
     Davidson diagonalization with overlap
     ethr =  1.57E-04,  avg # of iterations =  1.6

     negative rho (up, down):  0.157E+01 0.000E+00

     total cpu time spent up to now is     3663.1 secs

     total energy              =   -2314.19010621 Ry
     Harris-Foulkes estimate   =   -2314.24432370 Ry
     estimated scf accuracy    <       0.25956993 Ry

     iteration # 16     ecut=    40.00 Ry     beta=0.70
     Davidson diagonalization with overlap
     ethr =  1.03E-04,  avg # of iterations =  2.0

     negative rho (up, down):  0.157E+01 0.000E+00

     total cpu time spent up to now is     3851.7 secs

     total energy              =   -2314.20898397 Ry
     Harris-Foulkes estimate   =   -2314.22523935 Ry
     estimated scf accuracy    <       0.07529840 Ry

     iteration # 17     ecut=    40.00 Ry     beta=0.70
     Davidson diagonalization with overlap
     ethr =  2.98E-05,  avg # of iterations =  3.7

     negative rho (up, down):  0.157E+01 0.000E+00

     total cpu time spent up to now is     4054.3 secs

     total energy              =   -2314.21054506 Ry
     Harris-Foulkes estimate   =   -2314.22328463 Ry
     estimated scf accuracy    <       0.06666781 Ry

     iteration # 18     ecut=    40.00 Ry     beta=0.70
     Davidson diagonalization with overlap
     ethr =  2.64E-05,  avg # of iterations =  2.1

     negative rho (up, down):  0.158E+01 0.000E+00

     total cpu time spent up to now is     4241.0 secs

     total energy              =   -2314.21359541 Ry
     Harris-Foulkes estimate   =   -2314.22420108 Ry
     estimated scf accuracy    <       0.07111612 Ry

     iteration # 19     ecut=    40.00 Ry     beta=0.70
     Davidson diagonalization with overlap
     ethr =  2.64E-05,  avg # of iterations =  2.3

     negative rho (up, down):  0.157E+01 0.000E+00

     total cpu time spent up to now is     4430.8 secs

     total energy              =   -2314.21578634 Ry
     Harris-Foulkes estimate   =   -2314.21873145 Ry
     estimated scf accuracy    <       0.01478507 Ry

     iteration # 20     ecut=    40.00 Ry     beta=0.70
     Davidson diagonalization with overlap
     ethr =  5.84E-06,  avg # of iterations =  4.6

     negative rho (up, down):  0.158E+01 0.000E+00

     total cpu time spent up to now is     4646.2 secs

     total energy              =   -2314.21601039 Ry
     Harris-Foulkes estimate   =   -2314.21975346 Ry
     estimated scf accuracy    <       0.02928217 Ry

     iteration # 21     ecut=    40.00 Ry     beta=0.70
     Davidson diagonalization with overlap
     ethr =  5.84E-06,  avg # of iterations =  1.9

     negative rho (up, down):  0.158E+01 0.000E+00

     total cpu time spent up to now is     4841.4 secs

     total energy              =   -2314.21719856 Ry
     Harris-Foulkes estimate   =   -2314.21800897 Ry
     estimated scf accuracy    <       0.00443365 Ry

     iteration # 22     ecut=    40.00 Ry     beta=0.70
     Davidson diagonalization with overlap
     ethr =  1.75E-06,  avg # of iterations =  6.4

     negative rho (up, down):  0.158E+01 0.000E+00

     total cpu time spent up to now is     5069.8 secs

     total energy              =   -2314.21720853 Ry
     Harris-Foulkes estimate   =   -2314.21827109 Ry
     estimated scf accuracy    <       0.00906635 Ry

     iteration # 23     ecut=    40.00 Ry     beta=0.70
     Davidson diagonalization with overlap
     ethr =  1.75E-06,  avg # of iterations =  3.7

     negative rho (up, down):  0.158E+01 0.000E+00

     total cpu time spent up to now is     5274.7 secs

     total energy              =   -2314.21686927 Ry
     Harris-Foulkes estimate   =   -2314.21845267 Ry
     estimated scf accuracy    <       0.01357736 Ry

     iteration # 24     ecut=    40.00 Ry     beta=0.70
     Davidson diagonalization with overlap
     ethr =  1.75E-06,  avg # of iterations =  4.2

     negative rho (up, down):  0.158E+01 0.000E+00

     total cpu time spent up to now is     5486.7 secs

     total energy              =   -2314.21752897 Ry
     Harris-Foulkes estimate   =   -2314.21794825 Ry
     estimated scf accuracy    <       0.00249682 Ry

     iteration # 25     ecut=    40.00 Ry     beta=0.70
     Davidson diagonalization with overlap
     ethr =  9.87E-07,  avg # of iterations =  1.0

     negative rho (up, down):  0.158E+01 0.000E+00

     total cpu time spent up to now is     5668.1 secs

     total energy              =   -2314.21771135 Ry
     Harris-Foulkes estimate   =   -2314.21775176 Ry
     estimated scf accuracy    <       0.00013060 Ry

     iteration # 26     ecut=    40.00 Ry     beta=0.70
     Davidson diagonalization with overlap
     ethr =  5.16E-08,  avg # of iterations =  1.0

     negative rho (up, down):  0.158E+01 0.000E+00

     total cpu time spent up to now is     5848.8 secs

     total energy              =   -2314.21772550 Ry
     Harris-Foulkes estimate   =   -2314.21774390 Ry
     estimated scf accuracy    <       0.00015732 Ry

     iteration # 27     ecut=    40.00 Ry     beta=0.70
     Davidson diagonalization with overlap
     ethr =  5.16E-08,  avg # of iterations =  1.0

     negative rho (up, down):  0.158E+01 0.000E+00

     total cpu time spent up to now is     6031.1 secs

     total energy              =   -2314.21773254 Ry
     Harris-Foulkes estimate   =   -2314.21773690 Ry
     estimated scf accuracy    <       0.00001700 Ry

     iteration # 28     ecut=    40.00 Ry     beta=0.70
     Davidson diagonalization with overlap
     ethr =  6.72E-09,  avg # of iterations =  1.0

     negative rho (up, down):  0.158E+01 0.000E+00

     total cpu time spent up to now is     6211.9 secs

     total energy              =   -2314.21773356 Ry
     Harris-Foulkes estimate   =   -2314.21773617 Ry
     estimated scf accuracy    <       0.00001199 Ry

     iteration # 29     ecut=    40.00 Ry     beta=0.70
     Davidson diagonalization with overlap
     ethr =  4.74E-09,  avg # of iterations =  1.0

     negative rho (up, down):  0.158E+01 0.000E+00

     total cpu time spent up to now is     6393.5 secs

     total energy              =   -2314.21773459 Ry
     Harris-Foulkes estimate   =   -2314.21773505 Ry
     estimated scf accuracy    <       0.00000236 Ry

     iteration # 30     ecut=    40.00 Ry     beta=0.70
     Davidson diagonalization with overlap
     ethr =  9.34E-10,  avg # of iterations =  1.0

     negative rho (up, down):  0.158E+01 0.000E+00

     total cpu time spent up to now is     6585.3 secs

     total energy              =   -2314.21773450 Ry
     Harris-Foulkes estimate   =   -2314.21773524 Ry
     estimated scf accuracy    <       0.00000498 Ry

     iteration # 31     ecut=    40.00 Ry     beta=0.70
     Davidson diagonalization with overlap
     ethr =  9.34E-10,  avg # of iterations =  1.0

     negative rho (up, down):  0.158E+01 0.000E+00

     total cpu time spent up to now is     6772.1 secs

     End of self-consistent calculation
 --- enter write_ns ---
 LDA+U parameters:
U( 2)     =  0.00000000
alpha( 2) =  0.00000000
atom    3   Tr[ns(na)] =   8.64099
    eigenvalues: 
  0.678  0.696  0.980  0.982  0.985
    eigenvectors:
  0.055  0.122  0.756  0.001  0.066
  0.714  0.286  0.000  0.000  0.000
  0.000  0.003  0.092  0.009  0.897
  0.230  0.589  0.149  0.000  0.031
  0.000  0.000  0.003  0.991  0.006
    occupations:
  0.929  0.007  0.005 -0.111  0.001
  0.007  0.683  0.002  0.006 -0.002
  0.005  0.002  0.983  0.015 -0.000
 -0.111  0.006  0.015  0.743  0.001
  0.001 -0.002 -0.000  0.001  0.982
atom    4   Tr[ns(na)] =   8.62680
    eigenvalues: 
  0.682  0.699  0.972  0.978  0.982
    eigenvectors:
  0.000  0.987  0.005  0.001  0.007
  0.007  0.000  0.033  0.958  0.002
  0.000  0.004  0.944  0.029  0.022
  0.000  0.009  0.018  0.005  0.969
  0.993  0.000  0.000  0.007  0.000
    occupations:
  0.703 -0.005 -0.018  0.026 -0.001
 -0.005  0.976  0.001  0.000  0.025
 -0.018  0.001  0.971  0.003  0.000
  0.026  0.000  0.003  0.979  0.000
 -0.001  0.025  0.000  0.000  0.684
atom    9   Tr[ns(na)] =   8.59141
    eigenvalues: 
  0.702  0.714  0.946  0.951  0.982
    eigenvectors:
  0.000  0.138  0.004  0.010  0.848
  1.000  0.000  0.000  0.000  0.000
  0.000  0.009  0.336  0.646  0.008
  0.000  0.853  0.001  0.002  0.144
  0.000  0.000  0.658  0.342  0.000
    occupations:
  0.945 -0.002 -0.006 -0.092 -0.000
 -0.002  0.702 -0.000  0.001 -0.003
 -0.006 -0.000  0.948 -0.022  0.002
 -0.092  0.001 -0.022  0.753 -0.000
 -0.000 -0.003  0.002 -0.000  0.948
atom   10   Tr[ns(na)] =   8.68247
    eigenvalues: 
  0.657  0.760  0.970  0.975  0.980
    eigenvectors:
  0.000  0.984  0.000  0.001  0.016
  0.009  0.000  0.991  0.000  0.000
  0.000  0.001  0.000  0.757  0.242
  0.000  0.015  0.000  0.242  0.743
  0.991  0.000  0.009  0.000  0.000
    occupations:
  0.763  0.000 -0.008  0.027  0.000
  0.000  0.967 -0.000 -0.000 -0.029
 -0.008 -0.000  0.976 -0.001 -0.000
  0.027 -0.000 -0.001  0.975 -0.000
  0.000 -0.029 -0.000 -0.000  0.659
atom   16   Tr[ns(na)] =   8.64100
    eigenvalues: 
  0.678  0.696  0.980  0.982  0.985
    eigenvectors:
  0.056  0.121  0.757  0.000  0.065
  0.710  0.289  0.000  0.000  0.000
  0.001  0.003  0.093  0.006  0.898
  0.233  0.587  0.149  0.000  0.031
  0.000  0.000  0.001  0.994  0.006
    occupations:
  0.929 -0.007  0.005 -0.111 -0.001
 -0.007  0.683 -0.002 -0.006 -0.002
  0.005 -0.002  0.983  0.015  0.000
 -0.111 -0.006  0.015  0.743 -0.001
 -0.001 -0.002  0.000 -0.001  0.982
atom   17   Tr[ns(na)] =   8.62524
    eigenvalues: 
  0.682  0.699  0.972  0.978  0.982
    eigenvectors:
  0.000  0.987  0.005  0.001  0.006
  0.007  0.000  0.049  0.941  0.003
  0.000  0.004  0.922  0.044  0.030
  0.000  0.008  0.023  0.008  0.961
  0.993  0.000  0.000  0.007  0.000
    occupations:
  0.703 -0.005 -0.017  0.026 -0.001
 -0.005  0.976  0.001  0.000  0.025
 -0.017  0.001  0.971  0.003  0.000
  0.026  0.000  0.003  0.979  0.000
 -0.001  0.025  0.000  0.000  0.684
atom   22   Tr[ns(na)] =   8.59138
    eigenvalues: 
  0.702  0.714  0.946  0.951  0.982
    eigenvectors:
  0.001  0.137  0.005  0.010  0.848
  0.997  0.002  0.000  0.000  0.000
  0.000  0.009  0.351  0.632  0.008
  0.002  0.851  0.001  0.002  0.144
  0.000  0.000  0.643  0.357  0.000
    occupations:
  0.945  0.002 -0.006 -0.092  0.000
  0.002  0.702  0.000 -0.000 -0.003
 -0.006  0.000  0.947 -0.022 -0.003
 -0.092 -0.000 -0.022  0.754  0.000
  0.000 -0.003 -0.003  0.000  0.948
atom   23   Tr[ns(na)] =   8.61704
    eigenvalues: 
  0.694  0.699  0.954  0.979  0.983
    eigenvectors:
  0.000  0.962  0.000  0.031  0.007
  0.014  0.000  0.986  0.000  0.000
  0.000  0.030  0.000  0.969  0.000
  0.000  0.007  0.000  0.000  0.993
  0.986  0.000  0.014  0.000  0.000
    occupations:
  0.709  0.000  0.048  0.024 -0.000
  0.000  0.950  0.000 -0.000 -0.031
  0.048  0.000  0.970 -0.004 -0.000
  0.024 -0.000 -0.004  0.981 -0.000
 -0.000 -0.031 -0.000 -0.000  0.697
N of occupied +U levels =  69.0163289
 --- exit write_ns ---

          k = 0.0000 0.0000 0.0000 ( 32157 PWs)   bands (ev):

   -55.2966 -55.2939 -55.2412 -55.1836 -55.1751 -55.1620 -55.1581 -55.1412
   -55.1236 -55.0873 -55.0053 -54.9869 -54.9809 -54.9229 -54.9156 -54.8833
   -54.8763 -54.8399 -54.8314 -54.8213 -54.8158 -54.4196 -54.1829 -53.8561
   -23.4991 -21.4686 -21.0316 -20.6596 -20.4626 -19.8532 -19.8507 -19.7081
   -19.6381 -19.6155 -19.5939 -19.5013 -19.4766 -19.4434 -19.2487 -19.1812
   -19.0595 -18.3800 -18.2206 -17.2808  -9.8503  -9.6759  -9.5014  -8.8124
    -8.7331  -8.6391  -8.5229  -8.4438  -8.3990  -8.3360  -8.2941  -8.2148
    -8.1862  -8.0877  -8.0473  -7.9984  -7.9626  -7.6688  -7.6361  -7.5456
    -7.0795  -7.0429  -6.9661  -6.8700  -6.8143  -6.6602  -6.3450  -6.2090
    -6.0444  -5.8353  -5.5919  -5.4168  -5.3701  -5.2938  -5.1934  -5.1465
    -5.0884  -5.0272  -4.8956  -4.8335  -4.6475  -4.6087  -4.5783  -4.5033
    -4.4344  -4.3557  -4.3517  -4.2610  -4.2455  -4.1325  -4.1239  -4.0881
    -4.0067  -3.9695  -3.9285  -3.8537  -3.7471  -3.7089  -3.6797  -3.6592
    -3.5301  -3.4550  -3.4238  -3.3935  -3.2605  -3.2175  -3.0197  -2.7760
    -2.5983  -2.3884  -2.2498  -2.2007  -2.1408  -1.9175  -1.7759  -1.6348
    -1.5120  -1.4039  -1.3887  -1.2997  -0.9759  -0.9361  -0.7155  -0.6969
    -0.3491   0.1568   0.1962   0.2130   0.3216   0.5536   0.8157   1.1602
     1.4383   1.5244   1.9838   2.0156   2.1309   2.5150   2.5575   3.0002
     3.4053   3.7452   4.1416   4.5380   4.7152   5.4923   5.7674   6.2694
     6.4065   6.4498   6.8323   7.0687   7.0866   7.2609   7.4251   7.4264
     7.5030   7.5449   7.5473   7.6574   7.7027   7.8220   7.8639   7.9324
     7.9455   8.0527   8.1252   8.1612   8.2123   8.2490   8.3344   8.4593
     8.5174   8.5447   8.6754   8.8346   9.0011   9.0641   9.0833   9.1440
     9.3284   9.6022   9.6309   9.6704   9.7955   9.9495  10.0181  10.0624
    10.2117  10.3307  10.4166  10.4301  10.6017  10.7084  10.7733  10.8193
    10.8697  10.9045  11.0427  11.1163  11.1590  11.1997  11.2670  11.3201
    11.4216  11.4331  11.5370  11.5553  11.5687  11.6393  11.7233  11.8205
    11.9068  11.9976  12.0683  12.1200  12.2391  12.2597  12.3316  12.3905
    12.4346  12.4600  12.5254  12.5996  12.7252  12.8009  13.0149  13.0687
    13.1463  13.2294  13.3983  13.4432  13.5130  13.6647  13.7875  13.8579
    13.8998  13.9426  13.9850  14.1532  14.1979  14.2545  14.4139  14.4934
    14.5972  14.8254  14.9203  14.9893  15.0003  15.1086  15.1467  15.1968
    15.2538  15.3754  15.4085  15.5480  15.5642  15.6967  15.7377  15.8550
    15.9845  16.0461  16.1069  16.1902  16.2965  16.4634  16.5250  16.5619
    16.5855  16.7997  16.8057  16.8945  16.8984  16.9535  16.9606  17.0033
    17.0552  17.1022  17.1503  17.1748  17.1851  17.2395  17.2636  17.2770
    17.3144  17.4201  17.5230  17.5779  17.6342  17.7783  17.8964  17.9687
    18.0792  18.0928  18.1353  18.2422  18.2489  18.3354  18.4306  18.4662
    18.4835  18.5192  18.5494  18.6062  18.6171  18.6623  18.7025  18.7647
    18.8703  18.9248  18.9581  19.0131  19.0312  19.0841  19.1099  19.2120
    19.2279  19.3430  19.3725  19.4569  19.5428  19.5889  19.6131  19.6936
    19.7651  19.8532  19.9290  19.9493  20.0308  20.0374  20.0597  20.1303
    20.1954  20.2373  20.3792  20.3928  20.4594  20.6043  20.7697  20.7876
    20.8328  20.9056  20.9180  21.0826  21.1604  21.1842  21.2122  21.2974
    21.3672  21.4041  21.5099  21.5759  21.6107  21.6285  21.7127  21.7740
    21.8181  21.8504  21.8969  21.9352  21.9645  21.9804  21.9896  22.0227
    22.0768  22.1010  22.1217  22.1333  22.1467  22.1748  22.1974  22.2182
    22.2378  22.2533  22.3180

          k = 0.0000 0.2488 0.0000 ( 32033 PWs)   bands (ev):

   -55.2966 -55.2939 -55.2412 -55.1836 -55.1751 -55.1618 -55.1580 -55.1413
   -55.1235 -55.0874 -55.0055 -54.9864 -54.9808 -54.9231 -54.9156 -54.8833
   -54.8763 -54.8396 -54.8313 -54.8218 -54.8158 -54.4195 -54.1829 -53.8561
   -23.4988 -21.4482 -21.0230 -20.5909 -20.3739 -19.9139 -19.8878 -19.7544
   -19.6429 -19.6147 -19.5657 -19.5110 -19.4608 -19.4343 -19.2572 -19.2480
   -19.1603 -18.3814 -18.2207 -17.2770  -9.5890  -9.3287  -9.2196  -9.0173
    -8.7234  -8.6319  -8.5290  -8.4590  -8.3882  -8.3703  -8.2748  -8.2240
    -8.2063  -8.1005  -8.0779  -7.9987  -7.9687  -7.8212  -7.5695  -7.1360
    -7.0106  -6.9213  -6.8914  -6.7581  -6.6565  -6.4396  -6.2904  -6.1946
    -6.1825  -6.0321  -5.9022  -5.8122  -5.5807  -5.5293  -5.5038  -5.3204
    -5.1663  -5.1290  -5.0899  -5.0281  -4.9497  -4.8935  -4.8119  -4.6764
    -4.5889  -4.5330  -4.3174  -4.2869  -4.2051  -4.0705  -3.9374  -3.8867
    -3.8199  -3.7060  -3.6845  -3.6666  -3.6492  -3.5741  -3.5087  -3.4728
    -3.4638  -3.3350  -3.3177  -3.2615  -3.1510  -3.1078  -2.9631  -2.8726
    -2.7691  -2.6688  -2.5971  -2.4061  -2.2078  -1.9525  -1.7382  -1.5110
    -1.4434  -1.4281  -1.3296  -1.3016  -1.0228  -0.9786  -0.7818  -0.7158
    -0.5400  -0.3178  -0.1598   0.2160   0.5428   0.9201   1.3667   1.5109
     1.7211   1.7842   1.8835   2.0599   2.0747   2.3902   2.5577   3.3067
     3.4613   3.9108   4.3522   4.7127   4.9131   5.5003   5.6095   5.8287
     6.0713   6.2917   6.5068   6.5700   6.7074   6.7976   7.1908   7.2306
     7.3245   7.4315   7.6143   7.6880   7.7800   7.8180   8.0004   8.0398
     8.0740   8.1411   8.2000   8.2617   8.3255   8.3741   8.4891   8.5935
     8.7018   8.8412   8.9256   9.0732   9.1298   9.1841   9.3102   9.3160
     9.4104   9.4331   9.5314   9.6251   9.8069   9.8214   9.8614   9.8968
     9.9457  10.0872  10.1996  10.2596  10.2882  10.3880  10.4407  10.5805
    10.6772  10.7601  10.8631  10.9961  11.0836  11.1310  11.2238  11.3259
    11.4630  11.5762  11.6116  11.8374  11.9186  11.9531  12.0597  12.1047
    12.1722  12.2460  12.3437  12.3974  12.5428  12.6641  12.6974  12.7422
    12.8693  12.9334  12.9838  13.0703  13.2055  13.2475  13.3132  13.4172
    13.4465  13.5365  13.5979  13.6354  13.7349  13.7724  13.8857  13.9526
    13.9753  14.0305  14.1497  14.2567  14.2693  14.4596  14.5121  14.5275
    14.7068  14.7503  14.8362  14.9656  15.0958  15.1487  15.2099  15.2398
    15.3184  15.3816  15.4278  15.4498  15.5211  15.6195  15.7229  15.8111
    15.8351  15.9303  16.0111  16.0704  16.1731  16.2245  16.3236  16.3675
    16.4230  16.4889  16.5132  16.5708  16.7189  16.8150  16.8288  16.8750
    16.8963  16.9477  16.9652  16.9845  17.0524  17.1204  17.1349  17.1531
    17.1872  17.2268  17.2499  17.2665  17.3518  17.4544  17.6500  17.6705
    17.7519  17.7775  17.8414  17.9650  18.0564  18.1406  18.2295  18.2611
    18.2943  18.3577  18.3909  18.4970  18.5503  18.5913  18.6547  18.6874
    18.7275  18.7681  18.8440  18.8697  18.9492  19.0000  19.0483  19.0926
    19.1165  19.1589  19.1865  19.2164  19.2432  19.3179  19.3845  19.4070
    19.5421  19.5564  19.6255  19.6718  19.7605  19.8143  19.8607  19.9423
    20.0105  20.0285  20.0958  20.1387  20.1824  20.2616  20.3394  20.3734
    20.4277  20.4756  20.5290  20.5651  20.5940  20.6421  20.7861  20.7899
    20.8430  20.9062  20.9483  20.9895  21.0380  21.1098  21.1918  21.2118
    21.2941  21.3743  21.3955  21.4800  21.5108  21.5752  21.6323  21.6881
    21.7282  21.7950  21.8674  21.9483  22.0371  22.1354  22.2074  22.2318
    22.3100  22.3550  22.4119

          k = 0.0000-0.4976 0.0000 ( 31948 PWs)   bands (ev):

   -55.2966 -55.2940 -55.2412 -55.1836 -55.1751 -55.1616 -55.1579 -55.1414
   -55.1234 -55.0874 -55.0056 -54.9859 -54.9806 -54.9234 -54.9157 -54.8833
   -54.8763 -54.8394 -54.8312 -54.8224 -54.8157 -54.4195 -54.1829 -53.8561
   -23.4985 -21.4284 -21.0144 -20.5017 -20.2230 -20.0357 -19.9176 -19.7888
   -19.6894 -19.6167 -19.5333 -19.5272 -19.4838 -19.4007 -19.3185 -19.2570
   -19.2428 -18.3828 -18.2210 -17.2732  -9.5472  -9.1605  -8.7397  -8.6812
    -8.6148  -8.5837  -8.5605  -8.4539  -8.4059  -8.3618  -8.2851  -8.1567
    -8.1259  -8.1150  -8.0036  -7.9608  -7.9507  -7.8590  -7.4908  -7.2362
    -7.1733  -7.1441  -6.9512  -6.9414  -6.7181  -6.5644  -6.2667  -6.1968
    -6.0571  -6.0111  -5.8427  -5.7758  -5.7532  -5.6872  -5.6557  -5.5355
    -5.4816  -5.4125  -5.2662  -5.1436  -5.0946  -4.8368  -4.7204  -4.6922
    -4.5949  -4.5119  -4.4202  -4.3215  -4.0978  -4.0678  -3.9463  -3.8093
    -3.6981  -3.6890  -3.6873  -3.6428  -3.6393  -3.5478  -3.5087  -3.4626
    -3.3597  -3.3072  -3.2796  -3.1596  -3.0880  -2.8877  -2.8420  -2.8379
    -2.8211  -2.7867  -2.7490  -2.3295  -2.2285  -1.8830  -1.6922  -1.6752
    -1.5812  -1.5613  -1.5389  -1.3678  -1.1083  -1.0806  -0.8581  -0.7308
    -0.6081  -0.3766  -0.0341   0.2301   1.0096   1.0729   1.4839   1.5898
     1.7140   1.7286   1.9416   2.1315   2.2081   2.4945   2.5662   3.4161
     4.1349   4.2101   4.5645   4.8861   5.0397   5.2274   5.2602   5.5095
     5.6654   5.8349   6.0526   6.4677   6.6797   6.7818   6.7998   7.0372
     7.4392   7.5743   7.6434   7.6665   7.8583   7.9596   7.9749   8.1123
     8.2154   8.2767   8.3568   8.4681   8.5775   8.6117   8.6716   8.6896
     8.7026   8.7287   8.8406   8.8920   8.8953   8.9499   9.0482   9.1214
     9.2196   9.2504   9.3518   9.3786   9.4131   9.4491   9.5212   9.8780
     9.9599   9.9732  10.0116  10.0965  10.3926  10.6993  10.8514  10.9014
    10.9772  11.0850  11.1959  11.3513  11.3624  11.4016  11.4655  11.5879
    11.7026  11.7970  11.9175  11.9898  12.0435  12.1137  12.2836  12.3127
    12.3672  12.3871  12.5199  12.5622  12.6636  12.6810  12.7432  12.8244
    12.8720  12.9764  13.0404  13.1172  13.1492  13.1922  13.3273  13.4363
    13.5416  13.5633  13.6449  13.6687  13.7945  13.8909  14.0546  14.1379
    14.2162  14.3850  14.4251  14.5252  14.5684  14.6028  14.7615  14.8688
    14.9667  15.0312  15.1519  15.1681  15.2125  15.2639  15.3152  15.3256
    15.3576  15.5189  15.6469  15.6863  15.7440  15.7854  15.8090  15.8217
    15.8879  15.9415  15.9506  15.9928  16.0832  16.0961  16.1366  16.2075
    16.2993  16.3586  16.4196  16.4489  16.4767  16.5283  16.5976  16.6484
    16.6868  16.7452  16.7669  16.9098  16.9349  16.9376  16.9717  17.0094
    17.1363  17.1490  17.1677  17.1754  17.2021  17.2450  17.2654  17.3104
    17.4540  17.4971  17.5309  17.5725  17.6767  17.6774  17.7368  17.8787
    17.8943  17.9326  17.9901  18.0855  18.0930  18.1812  18.2129  18.2617
    18.2938  18.4196  18.4676  18.4976  18.6887  18.7382  18.7752  18.8151
    18.8663  18.9478  19.0891  19.1248  19.2477  19.2651  19.2873  19.3310
    19.3892  19.4348  19.4738  19.5237  19.5519  19.5725  19.6257  19.7316
    19.7381  19.7831  19.9300  19.9869  20.0328  20.0451  20.1004  20.1580
    20.1657  20.1850  20.2741  20.3021  20.3886  20.5088  20.5253  20.5643
    20.5733  20.5923  20.6912  20.7192  20.8049  20.8608  20.9005  20.9331
    20.9913  21.1487  21.1912  21.2388  21.2872  21.3188  21.3949  21.4549
    21.4882  21.5830  21.7200  21.8324  21.8613  21.9001  21.9694  22.0211
    22.1043  22.1488  22.2476

          k = 0.2500 0.0000 0.0000 ( 32013 PWs)   bands (ev):

   -55.2935 -55.2884 -55.2493 -55.1832 -55.1678 -55.1614 -55.1586 -55.1333
   -55.1312 -55.0952 -55.0053 -54.9860 -54.9818 -54.9225 -54.9161 -54.8823
   -54.8773 -54.8394 -54.8319 -54.8205 -54.8166 -54.4200 -54.1829 -53.8561
   -23.4989 -21.4150 -21.0453 -20.5689 -20.3651 -20.0293 -19.8408 -19.7866
   -19.6099 -19.5846 -19.5593 -19.5119 -19.4412 -19.4017 -19.2690 -19.2384
   -19.1188 -18.4042 -18.2781 -17.2807  -9.6925  -9.5126  -9.3883  -8.9368
    -8.7461  -8.6964  -8.6293  -8.5419  -8.4035  -8.3519  -8.3120  -8.1724
    -7.9938  -7.9447  -7.8424  -7.7980  -7.7538  -7.6731  -7.5060  -7.3695
    -7.2771  -7.1485  -6.9351  -6.9157  -6.7204  -6.5359  -6.2410  -6.1760
    -6.0425  -5.9540  -5.8814  -5.7840  -5.7042  -5.5357  -5.4538  -5.3531
    -5.3360  -5.2744  -5.1595  -4.9898  -4.9162  -4.8019  -4.7199  -4.6515
    -4.6069  -4.5710  -4.5287  -4.3828  -4.3233  -4.2649  -4.2162  -4.1235
    -3.9711  -3.8850  -3.7108  -3.6772  -3.6451  -3.6323  -3.5505  -3.4425
    -3.3273  -3.2414  -3.1477  -3.0757  -2.9042  -2.7867  -2.7322  -2.6947
    -2.6187  -2.2248  -2.0562  -2.0074  -1.9378  -1.8165  -1.7974  -1.7551
    -1.5195  -1.4778  -1.3985  -1.3062  -1.0912  -0.9083  -0.8871  -0.7395
    -0.2160   0.3081   0.3448   0.3892   0.5217   0.6374   0.8004   1.0880
     1.1807   1.5464   1.6364   1.7905   1.9940   2.0307   2.4442   3.3958
     3.4672   3.9559   4.3698   4.7347   4.9352   5.4688   5.4965   5.9695
     6.0011   6.2971   6.5557   6.6536   6.7022   7.0612   7.0887   7.3289
     7.4338   7.4547   7.5751   7.7409   7.7668   7.8056   7.9042   8.0469
     8.0837   8.1480   8.2467   8.3285   8.3993   8.4465   8.6241   8.6574
     8.7948   8.8384   8.9862   9.1266   9.1749   9.3174   9.3461   9.3616
     9.4523   9.4941   9.6077   9.6831   9.8155   9.8841   9.9198   9.9744
    10.0246  10.1333  10.2358  10.2623  10.2890  10.3658  10.5262  10.5732
    10.6798  10.8143  10.8780  10.9543  10.9662  11.0596  11.1316  11.2185
    11.3032  11.4565  11.5080  11.6898  11.7530  11.7911  11.9054  11.9737
    12.0702  12.1604  12.2280  12.3381  12.4641  12.5417  12.6345  12.7374
    12.8633  12.8854  13.0656  13.1703  13.2655  13.2979  13.3386  13.4192
    13.4741  13.5704  13.6218  13.7087  13.7433  13.8109  13.8426  13.9064
    13.9718  14.0266  14.1298  14.2113  14.2207  14.3051  14.3613  14.3762
    14.4725  14.5826  14.6620  14.8405  14.9491  14.9947  15.0914  15.1499
    15.2079  15.2587  15.3630  15.4109  15.5127  15.5594  15.6043  15.7133
    15.7948  15.8628  15.9318  15.9918  16.0197  16.1296  16.2330  16.3140
    16.3354  16.5065  16.5931  16.7438  16.7757  16.8206  16.8665  16.9274
    16.9531  16.9775  17.0158  17.1041  17.1497  17.1707  17.1749  17.1895
    17.2218  17.2599  17.3231  17.4135  17.4648  17.5405  17.7202  17.7971
    17.8643  17.9032  17.9543  18.0523  18.1039  18.2224  18.2784  18.3345
    18.3678  18.4742  18.5525  18.5823  18.6784  18.7080  18.7360  18.7719
    18.8099  18.8569  18.8660  18.9509  18.9930  19.0045  19.0799  19.0983
    19.1462  19.2030  19.2866  19.3183  19.3627  19.4037  19.4419  19.4909
    19.5275  19.5959  19.6668  19.7054  19.7394  19.8567  19.8951  19.9747
    19.9991  20.0653  20.0937  20.1952  20.2219  20.2746  20.3177  20.3992
    20.4260  20.4607  20.5124  20.5614  20.6144  20.6553  20.6958  20.7767
    20.8609  20.9357  20.9534  21.0472  21.0885  21.1352  21.1648  21.2498
    21.3417  21.3689  21.3948  21.4430  21.5473  21.5703  21.6241  21.6781
    21.8076  21.9085  21.9355  21.9891  22.0991  22.1333  22.1805  22.2335
    22.2817  22.3078  22.3928

          k = 0.2500 0.2488 0.0000 ( 32025 PWs)   bands (ev):

   -55.2936 -55.2885 -55.2494 -55.1832 -55.1679 -55.1613 -55.1585 -55.1335
   -55.1311 -55.0953 -55.0054 -54.9856 -54.9816 -54.9227 -54.9162 -54.8823
   -54.8773 -54.8392 -54.8318 -54.8210 -54.8167 -54.4200 -54.1829 -53.8561
   -23.4986 -21.4005 -21.0369 -20.4960 -20.2738 -19.9820 -19.8465 -19.8120
   -19.6812 -19.6307 -19.5572 -19.5055 -19.4612 -19.4170 -19.3000 -19.2717
   -19.2118 -18.4061 -18.2775 -17.2769  -9.4620  -9.2031  -9.0888  -9.0039
    -8.7301  -8.6257  -8.5593  -8.4884  -8.3553  -8.3111  -8.3051  -8.0862
    -8.0730  -7.9502  -7.9021  -7.8368  -7.7850  -7.7109  -7.4543  -7.2505
    -7.1594  -7.0551  -6.9611  -6.9347  -6.7855  -6.5710  -6.1861  -6.1541
    -6.1010  -6.0631  -5.9667  -5.8517  -5.7818  -5.7236  -5.6739  -5.6309
    -5.5768  -5.4351  -5.3531  -5.2360  -5.1504  -5.0141  -4.9951  -4.8551
    -4.7280  -4.5113  -4.4582  -4.4027  -4.2879  -4.1462  -4.1128  -4.0885
    -3.9108  -3.8013  -3.6980  -3.6006  -3.5016  -3.4091  -3.3020  -3.2516
    -3.1873  -3.0705  -2.9729  -2.9328  -2.8847  -2.7338  -2.7224  -2.6553
    -2.6389  -2.5032  -2.3694  -2.2936  -1.9891  -1.8391  -1.7519  -1.5551
    -1.5092  -1.4359  -1.3834  -1.2969  -1.0859  -0.9446  -0.9261  -0.7857
    -0.3555  -0.1750  -0.0236   0.4106   0.5973   0.8920   1.0887   1.3721
     1.4381   1.5915   1.6236   1.9081   2.0549   2.0991   2.3915   3.4499
     3.7474   4.1211   4.5842   4.9007   5.1362   5.5940   5.6848   5.7454
     6.0132   6.2023   6.3435   6.5039   6.5460   6.7627   6.8722   6.9403
     7.0175   7.1623   7.3261   7.4861   7.6112   7.6540   7.7849   7.9103
     7.9532   8.0332   8.2309   8.2581   8.4036   8.4612   8.5560   8.6478
     8.7829   8.8206   8.8825   8.9574   9.1605   9.2050   9.3063   9.4035
     9.5351   9.6001   9.6668   9.7607   9.8755   9.9871  10.0471  10.1185
    10.2192  10.2966  10.3793  10.5019  10.5786  10.6567  10.7238  10.7885
    10.9274  11.0479  11.1328  11.2159  11.2944  11.3574  11.4424  11.5633
    11.6325  11.7324  11.8330  11.8751  11.9460  12.0279  12.0914  12.1440
    12.2390  12.2738  12.3525  12.4339  12.6008  12.6076  12.7079  12.7305
    12.8162  12.8666  12.9556  12.9829  13.1439  13.2472  13.2892  13.4227
    13.5063  13.5678  13.6368  13.7340  13.7594  13.8182  13.8735  13.9944
    14.1172  14.1386  14.2227  14.3518  14.4183  14.4774  14.6152  14.7029
    14.8044  14.8278  14.8984  14.9696  15.0502  15.0955  15.1520  15.2458
    15.3638  15.3863  15.4372  15.4736  15.5266  15.5858  15.6215  15.6641
    15.7650  15.8234  15.8521  15.8872  16.0223  16.0711  16.0934  16.1450
    16.2589  16.2842  16.3233  16.4334  16.5251  16.6236  16.6701  16.7982
    16.8252  16.8951  16.9228  16.9292  16.9622  17.0193  17.0477  17.1058
    17.1342  17.1569  17.1739  17.1759  17.1871  17.2377  17.2984  17.3273
    17.3528  17.4032  17.4678  17.4812  17.5585  17.5973  17.6567  17.7978
    17.8671  17.9482  17.9994  18.0398  18.0852  18.1304  18.2855  18.3049
    18.3740  18.3998  18.4606  18.5102  18.5776  18.6345  18.7152  18.8016
    18.8829  18.9290  18.9744  19.0737  19.1244  19.1902  19.3079  19.3614
    19.4428  19.4962  19.5391  19.6069  19.6826  19.7575  19.9788  20.0088
    20.0444  20.0942  20.1921  20.2281  20.2720  20.3325  20.3827  20.4496
    20.4995  20.5910  20.6324  20.6972  20.7159  20.7609  20.7920  20.8510
    20.9472  20.9718  21.0638  21.0979  21.1431  21.1934  21.3054  21.3616
    21.4198  21.4702  21.5253  21.5610  21.6314  21.6831  21.7292  21.8821
    21.9161  21.9981  22.1259  22.1754  22.2022  22.2716  22.3216  22.3391
    22.4167  22.4755  22.5546

          k = 0.2500-0.4976 0.0000 ( 32026 PWs)   bands (ev):

   -55.2936 -55.2885 -55.2494 -55.1832 -55.1679 -55.1611 -55.1584 -55.1337
   -55.1310 -55.0953 -55.0056 -54.9852 -54.9814 -54.9228 -54.9162 -54.8823
   -54.8773 -54.8390 -54.8316 -54.8214 -54.8167 -54.4200 -54.1829 -53.8561
   -23.4983 -21.3867 -21.0285 -20.3936 -20.1296 -19.9538 -19.8906 -19.8340
   -19.7192 -19.7078 -19.6082 -19.5054 -19.4782 -19.4351 -19.3468 -19.2946
   -19.2677 -18.4079 -18.2773 -17.2732  -9.4238  -9.0362  -8.7232  -8.6446
    -8.4937  -8.4822  -8.3984  -8.3655  -8.3258  -8.2799  -8.2541  -8.1995
    -8.1382  -8.0627  -7.9115  -7.8288  -7.8148  -7.6724  -7.4276  -7.2343
    -7.1987  -7.0596  -6.8611  -6.8382  -6.7679  -6.7250  -6.6924  -6.5142
    -6.4041  -6.2516  -6.1339  -5.9942  -5.8840  -5.7453  -5.7188  -5.6360
    -5.5742  -5.5121  -5.4516  -5.3753  -5.2721  -5.1408  -5.1231  -4.8264
    -4.7662  -4.7500  -4.4641  -4.4289  -4.1171  -4.0651  -3.9536  -3.8652
    -3.8559  -3.7392  -3.6807  -3.5067  -3.4722  -3.2869  -3.2393  -3.2077
    -3.1058  -3.0787  -3.0134  -2.9490  -2.8869  -2.6901  -2.6515  -2.6071
    -2.5597  -2.4567  -2.4064  -2.2710  -2.0087  -1.7940  -1.7090  -1.6699
    -1.6513  -1.4799  -1.3796  -1.3549  -1.1402  -1.0615  -0.9515  -0.8177
    -0.6023  -0.3908   0.0595   0.4195   0.8210   0.9626   1.1323   1.2531
     1.3063   1.7863   1.9744   2.0030   2.0902   2.1990   2.4020   3.4617
     4.3355   4.4858   4.8430   5.0344   5.2611   5.4175   5.5028   5.7589
     5.9450   6.0512   6.0724   6.1204   6.5929   6.6595   6.7210   6.9207
     6.9692   7.0926   7.1380   7.3118   7.3324   7.4556   7.6513   7.7464
     7.8245   7.9305   8.0429   8.0648   8.2089   8.3620   8.4648   8.5825
     8.6391   8.6888   8.8286   9.0736   9.1532   9.2191   9.2575   9.3378
     9.4933   9.5188   9.6571   9.7356   9.8140   9.9900  10.0844  10.1118
    10.4062  10.5621  10.6183  10.7565  10.8440  11.0281  11.1666  11.2675
    11.3004  11.3374  11.4400  11.4698  11.6019  11.6426  11.7142  11.8498
    11.8647  11.9315  11.9829  12.0765  12.1580  12.1897  12.4467  12.4882
    12.5419  12.5818  12.6208  12.6489  12.7111  12.7787  12.9157  12.9547
    12.9827  13.0423  13.1000  13.2125  13.2547  13.3650  13.4112  13.5035
    13.5574  13.6280  13.7566  13.7844  13.8770  13.9647  13.9987  14.0489
    14.1115  14.2435  14.2687  14.2891  14.3706  14.3818  14.4386  14.4836
    14.5274  14.6270  14.6674  14.7001  14.8036  14.8354  14.8852  14.9632
    15.0174  15.0792  15.1895  15.2646  15.4319  15.4567  15.5120  15.6499
    15.7496  15.7822  15.8151  15.9140  15.9921  16.0526  16.1162  16.1400
    16.1739  16.2153  16.2940  16.3159  16.3515  16.3666  16.4882  16.5035
    16.5508  16.6377  16.7415  16.7873  16.8042  16.9192  16.9289  16.9311
    16.9644  17.0255  17.0499  17.0981  17.1458  17.1542  17.1813  17.1979
    17.2029  17.3104  17.3566  17.4140  17.4521  17.4781  17.5447  17.6212
    17.7566  17.8267  17.8394  17.8905  17.9932  18.0596  18.1344  18.1578
    18.2250  18.2436  18.2852  18.3614  18.3844  18.4628  18.4842  18.5244
    18.6192  18.6977  18.7235  18.8460  18.8958  18.9818  19.0714  19.0907
    19.2015  19.2213  19.2868  19.3229  19.3760  19.4748  19.5147  19.5400
    19.6179  19.7775  19.8906  19.9555  20.0967  20.1893  20.2337  20.2873
    20.3408  20.3966  20.4358  20.5195  20.6277  20.6631  20.7231  20.8186
    20.8525  20.9032  20.9445  21.0470  21.1280  21.1722  21.2700  21.3140
    21.4121  21.4384  21.4879  21.5911  21.7433  21.8083  21.8581  21.9359
    21.9783  22.0544  22.1324  22.2123  22.2937  22.3599  22.4732  22.5285
    22.6107  22.6876  22.7145

          k =-0.5000 0.0000 0.0000 ( 31984 PWs)   bands (ev):

   -55.2931 -55.2691 -55.2688 -55.1831 -55.1602 -55.1598 -55.1502 -55.1489
   -55.1158 -55.1128 -55.0053 -54.9842 -54.9836 -54.9219 -54.9166 -54.8802
   -54.8794 -54.8388 -54.8325 -54.8188 -54.8183 -54.4205 -54.1829 -53.8561
   -23.4988 -21.3502 -21.0692 -20.3392 -20.3199 -20.1187 -20.1107 -19.6841
   -19.6310 -19.5921 -19.5282 -19.4471 -19.4276 -19.3324 -19.3194 -19.2660
   -19.2430 -18.4014 -18.3629 -17.2806  -9.3267  -9.2628  -9.1412  -9.1327
    -9.0281  -9.0264  -8.7481  -8.4564  -8.4311  -8.3502  -8.1545  -8.0932
    -8.0355  -7.9783  -7.8447  -7.5540  -7.4811  -7.3705  -7.1679  -7.1260
    -7.0823  -6.9939  -6.8208  -6.7884  -6.7225  -6.6373  -6.4886  -6.4252
    -6.3803  -6.3765  -6.1191  -6.1056  -6.0534  -5.7447  -5.6462  -5.4878
    -5.4107  -5.3792  -5.3624  -5.1869  -5.1306  -5.0690  -4.8431  -4.8067
    -4.7351  -4.7138  -4.5107  -4.3477  -4.3255  -4.2324  -4.1568  -4.0234
    -3.9407  -3.8961  -3.6640  -3.6472  -3.5886  -3.5459  -3.4683  -3.3748
    -3.2493  -3.1037  -2.9277  -2.7493  -2.7224  -2.7167  -2.5815  -2.3028
    -2.2465  -2.0305  -1.9827  -1.9205  -1.8762  -1.8307  -1.7052  -1.6854
    -1.5991  -1.5865  -1.3267  -1.3123  -1.1463  -1.1333  -1.0734  -0.6963
     0.0995   0.4489   0.5036   0.6214   0.8122   0.8703   0.9180   0.9391
     1.0486   1.1137   1.1747   1.2970   1.7354   2.0772   2.1679   3.5061
     4.3356   4.3486   4.4334   4.6535   5.0692   5.1476   5.4410   5.5563
     5.6674   5.7624   6.3300   6.4780   6.5900   6.8308   7.0715   7.1511
     7.4562   7.5262   7.7253   7.8049   7.8837   7.9120   8.1569   8.2177
     8.2874   8.3512   8.4076   8.4857   8.5917   8.6925   8.7506   8.7927
     8.8233   8.8501   8.9068   8.9347   8.9612   9.1230   9.1890   9.2802
     9.3467   9.4265   9.5234   9.5341   9.6191   9.7009   9.7642   9.7765
     9.9928  10.0402  10.1062  10.2554  10.2643  10.3492  10.6404  10.7461
    10.8628  10.8725  11.0376  11.1001  11.2613  11.4243  11.4886  11.5903
    11.6749  11.7501  11.9419  11.9627  11.9981  12.0250  12.1654  12.2457
    12.3005  12.3346  12.3904  12.5047  12.5682  12.5946  12.6201  12.6675
    12.8267  12.8494  12.9551  12.9644  12.9818  13.0972  13.1595  13.2491
    13.2686  13.4528  13.5082  13.5633  13.7553  13.8565  13.8659  13.9441
    14.0913  14.1220  14.1615  14.2409  14.2984  14.4093  14.5587  14.6411
    14.7122  14.7295  14.8355  14.8647  15.0318  15.1264  15.2731  15.3392
    15.3920  15.4290  15.5629  15.6767  15.6917  15.7923  15.8394  15.8600
    15.9253  15.9746  15.9944  16.0367  16.1023  16.1914  16.2337  16.2474
    16.2741  16.3476  16.3890  16.4497  16.4972  16.5239  16.5793  16.7212
    16.8177  16.8567  16.9185  16.9271  16.9335  16.9972  17.0390  17.0519
    17.1292  17.1548  17.1657  17.1723  17.1753  17.2141  17.2833  17.3341
    17.3996  17.5871  17.7267  17.7790  17.8452  17.8784  17.9933  18.0615
    18.1128  18.1734  18.2389  18.2638  18.2915  18.3085  18.3440  18.3936
    18.5095  18.6136  18.6561  18.7293  18.7513  18.8144  18.8455  18.9458
    19.1421  19.1703  19.2323  19.2713  19.3245  19.3529  19.3561  19.3975
    19.4952  19.5307  19.5611  19.5758  19.6405  19.6784  19.7307  19.7744
    19.8165  19.8320  19.8629  19.9592  20.0154  20.0712  20.0834  20.1122
    20.2782  20.3189  20.4042  20.4400  20.4731  20.5061  20.5778  20.5869
    20.5914  20.6425  20.7212  20.7312  20.8238  20.8405  20.9140  20.9510
    20.9871  21.0392  21.1007  21.3210  21.3315  21.4799  21.5013  21.6054
    21.7314  21.7652  21.7727  21.8204  21.9224  21.9793  22.0300  22.0703
    22.0816  22.2400  22.3300

          k =-0.5000 0.2488 0.0000 ( 32052 PWs)   bands (ev):

   -55.2932 -55.2691 -55.2689 -55.1831 -55.1601 -55.1597 -55.1502 -55.1489
   -55.1159 -55.1129 -55.0054 -54.9839 -54.9834 -54.9220 -54.9168 -54.8802
   -54.8794 -54.8386 -54.8323 -54.8191 -54.8186 -54.4204 -54.1829 -53.8561
   -23.4985 -21.3439 -21.0591 -20.2608 -20.2433 -20.0311 -20.0235 -19.7570
   -19.7102 -19.6101 -19.5730 -19.4820 -19.4508 -19.3850 -19.3510 -19.3112
   -19.2890 -18.4029 -18.3616 -17.2769  -9.2451  -9.0830  -8.9011  -8.8947
    -8.8037  -8.7572  -8.7154  -8.4496  -8.4236  -8.3314  -8.0606  -7.9706
    -7.9391  -7.8594  -7.7585  -7.5751  -7.5290  -7.4711  -7.3236  -7.2606
    -7.1318  -7.0904  -7.0508  -6.9407  -6.8462  -6.8285  -6.6087  -6.5252
    -6.3523  -6.2745  -6.1960  -6.0951  -6.0305  -5.7483  -5.6577  -5.5831
    -5.5492  -5.5131  -5.4032  -5.3665  -5.2759  -5.2424  -5.1518  -5.0079
    -4.8660  -4.6634  -4.6336  -4.5621  -4.4582  -4.2046  -4.1780  -4.0523
    -3.8994  -3.8371  -3.7607  -3.4958  -3.3519  -3.2941  -3.0437  -3.0377
    -3.0084  -2.8909  -2.7943  -2.7561  -2.7140  -2.6286  -2.5706  -2.4852
    -2.3379  -2.2051  -2.0188  -1.9804  -1.8833  -1.8034  -1.7288  -1.6342
    -1.5616  -1.5230  -1.3868  -1.3624  -1.1762  -1.1540  -1.1320  -0.6791
     0.0977   0.2345   0.3319   0.4178   0.5188   0.6263   0.8925   0.9684
     1.1830   1.3480   1.4966   1.6445   1.8077   2.1335   2.2612   3.4979
     4.5152   4.6059   4.6470   4.7979   5.2843   5.3725   5.6385   5.7662
     5.8916   5.9692   6.3168   6.3697   6.4783   6.5856   6.8179   6.8818
     6.9722   7.0727   7.1481   7.1989   7.4553   7.4715   7.6500   7.6809
     7.8093   7.9662   8.0548   8.2237   8.3712   8.4071   8.4551   8.6265
     8.7469   8.8527   8.9762   9.0085   9.2372   9.2606   9.4885   9.5540
     9.6391   9.7293   9.7678   9.8201   9.8971  10.0795  10.1354  10.2693
    10.4194  10.4389  10.5263  10.6052  10.7903  10.7991  10.9453  11.0645
    11.1382  11.1827  11.3291  11.4149  11.5443  11.5844  11.6228  11.7310
    11.8629  11.9628  12.0893  12.1138  12.1486  12.2071  12.3012  12.3449
    12.4737  12.4930  12.5947  12.6258  12.7335  12.7755  12.9175  12.9689
    13.0595  13.0854  13.1371  13.1977  13.2899  13.3408  13.3841  13.4002
    13.4875  13.5517  13.6638  13.7583  13.7935  13.8690  13.9454  13.9920
    14.0749  14.0986  14.2037  14.2121  14.2840  14.3131  14.3854  14.4355
    14.4543  14.5046  14.5490  14.5872  14.6685  14.7248  14.7850  14.8839
    15.0026  15.0610  15.1574  15.2271  15.3204  15.3921  15.4568  15.4729
    15.6161  15.7560  15.7947  15.8101  15.9196  15.9671  16.0699  16.0973
    16.2230  16.2390  16.2816  16.3335  16.3777  16.4024  16.5347  16.5712
    16.7137  16.7490  16.7992  16.8295  16.8765  16.9307  16.9545  16.9772
    17.0036  17.0937  17.1211  17.1657  17.1672  17.1933  17.2073  17.3003
    17.3511  17.3748  17.4048  17.4511  17.5246  17.5979  17.6419  17.7112
    17.7453  17.8195  17.8764  17.9606  18.0346  18.0651  18.1113  18.1709
    18.1813  18.2608  18.3114  18.3403  18.4101  18.4778  18.5973  18.6804
    18.7687  18.8353  18.9109  18.9524  19.0028  19.0546  19.1023  19.1828
    19.2074  19.2877  19.3508  19.3997  19.4833  19.5304  19.5783  19.6837
    19.7652  19.8073  19.9257  19.9439  19.9888  20.0828  20.1612  20.2886
    20.3818  20.3911  20.5781  20.5962  20.6687  20.6851  20.7393  20.8242
    20.9582  21.0220  21.0844  21.1519  21.2326  21.2521  21.3283  21.3466
    21.5252  21.5679  21.5969  21.6271  21.7837  21.7893  21.8789  21.9412
    22.0080  22.0738  22.1126  22.2210  22.2754  22.2904  22.3950  22.4671
    22.5723  22.6468  22.7059

          k =-0.5000-0.4976 0.0000 ( 31956 PWs)   bands (ev):

   -55.2932 -55.2691 -55.2689 -55.1831 -55.1600 -55.1595 -55.1502 -55.1489
   -55.1160 -55.1130 -55.0056 -54.9836 -54.9830 -54.9222 -54.9169 -54.8802
   -54.8794 -54.8385 -54.8321 -54.8193 -54.8189 -54.4204 -54.1829 -53.8561
   -23.4982 -21.3377 -21.0494 -20.1277 -20.1127 -19.9285 -19.9125 -19.8017
   -19.7842 -19.7434 -19.7371 -19.5051 -19.4722 -19.4476 -19.3806 -19.3303
   -19.3110 -18.4046 -18.3605 -17.2733  -9.2152  -9.0413  -8.7206  -8.5168
    -8.5070  -8.3842  -8.3833  -8.3606  -8.3383  -8.1323  -8.0194  -7.8489
    -7.8110  -7.7870  -7.7479  -7.6723  -7.6090  -7.5419  -7.5085  -7.4844
    -7.4288  -7.3469  -7.1203  -6.9770  -6.8826  -6.8781  -6.5801  -6.5505
    -6.3918  -6.3099  -6.2801  -6.2267  -6.1778  -6.0927  -5.9686  -5.9425
    -5.8907  -5.6769  -5.6562  -5.4850  -5.3441  -5.2690  -5.1372  -4.9911
    -4.8462  -4.6289  -4.5902  -4.4148  -4.3472  -4.1213  -4.0676  -4.0358
    -4.0044  -3.8018  -3.6333  -3.4697  -3.2524  -3.2383  -2.8595  -2.8257
    -2.8024  -2.7582  -2.7329  -2.7065  -2.6567  -2.5703  -2.5234  -2.5021
    -2.4454  -2.2901  -1.9935  -1.9850  -1.9224  -1.8144  -1.6618  -1.6126
    -1.5174  -1.4602  -1.4483  -1.3913  -1.3393  -1.1973  -1.1192  -0.6715
    -0.1042  -0.0846  -0.0163   0.2496   0.3273   0.6506   0.9787   1.0008
     1.2971   1.6744   1.7171   1.7996   1.9414   2.2012   2.2476   3.4962
     4.6825   4.9792   5.1577   5.1851   5.5706   5.5756   5.8786   5.9070
     5.9337   6.0333   6.1621   6.2240   6.2356   6.3881   6.4855   6.5489
     6.6778   6.6978   6.7240   6.8491   7.1276   7.2388   7.3292   7.5135
     7.5892   7.6687   7.7715   7.8848   8.1781   8.2903   8.5208   8.5779
     8.6765   8.7962   8.8465   9.0355   9.0511   9.2149   9.3065   9.5294
     9.7594   9.7801   9.8590   9.9261   9.9697   9.9794  10.2840  10.3832
    10.6516  10.6795  10.8640  10.9766  11.0447  11.0803  11.2813  11.6243
    11.6737  11.8345  12.1413  12.1477  12.1716  12.2117  12.2951  12.3251
    12.4001  12.4564  12.5261  12.6016  12.6535  12.7368  12.7585  12.8302
    12.8567  12.9805  13.0493  13.0895  13.1071  13.1226  13.1754  13.1852
    13.2141  13.2223  13.2812  13.2882  13.3090  13.3351  13.3465  13.3686
    13.4491  13.4727  13.5731  13.5787  13.5883  13.6235  13.6912  13.7313
    13.7541  13.8196  13.8629  13.9117  13.9945  14.0415  14.1162  14.1449
    14.2743  14.2964  14.3482  14.3724  14.4263  14.5288  14.7094  14.7936
    14.8263  14.8703  14.9271  14.9603  15.0133  15.0213  15.0527  15.0784
    15.1272  15.2035  15.3331  15.3608  15.4178  15.4639  15.5597  15.5676
    15.6571  15.7226  15.7829  15.9293  15.9673  16.0467  16.1080  16.1736
    16.2589  16.3292  16.4853  16.5083  16.5829  16.6014  16.6178  16.6758
    16.7848  16.8625  16.9458  16.9475  16.9670  17.0703  17.1242  17.1778
    17.1847  17.1872  17.1976  17.2255  17.2931  17.5005  17.5307  17.6147
    17.6944  17.8982  17.9859  18.0111  18.0584  18.0943  18.1146  18.1529
    18.2745  18.4006  18.4183  18.4936  18.5899  18.6734  18.7465  18.7612
    18.9115  18.9339  19.0713  19.0947  19.1454  19.3614  19.4208  19.5368
    19.5733  19.6929  19.7313  19.7525  19.8450  19.8971  19.9449  19.9907
    20.0491  20.0788  20.2463  20.3133  20.3531  20.3824  20.4298  20.4569
    20.4780  20.5462  20.6126  20.6362  20.6807  20.7270  20.8019  20.8701
    20.8706  20.8900  21.0098  21.0886  21.0950  21.1456  21.1493  21.1725
    21.2586  21.2701  21.3365  21.3982  21.4535  21.5068  21.5261  21.5956
    21.6979  21.7432  21.7979  21.8091  21.8515  21.9552  21.9821  22.0265
    22.1087  22.1379  22.2951

          k =-0.2500 0.2488 0.0000 ( 32025 PWs)   bands (ev):

   -55.2936 -55.2885 -55.2494 -55.1832 -55.1679 -55.1613 -55.1585 -55.1335
   -55.1311 -55.0953 -55.0054 -54.9856 -54.9816 -54.9226 -54.9162 -54.8823
   -54.8773 -54.8392 -54.8318 -54.8210 -54.8167 -54.4200 -54.1829 -53.8561
   -23.4986 -21.4005 -21.0369 -20.4958 -20.2735 -19.9846 -19.8479 -19.8103
   -19.6714 -19.6312 -19.5601 -19.5132 -19.4587 -19.4185 -19.3015 -19.2682
   -19.2115 -18.4061 -18.2776 -17.2769  -9.4615  -9.2013  -9.0887  -8.9958
    -8.7298  -8.6277  -8.5921  -8.4826  -8.3558  -8.3165  -8.2661  -8.0791
    -8.0628  -7.9841  -7.9094  -7.8344  -7.7989  -7.7022  -7.4649  -7.2767
    -7.1814  -7.0241  -6.9659  -6.8903  -6.7228  -6.5431  -6.2730  -6.1876
    -6.0570  -6.0166  -5.9779  -5.9085  -5.8499  -5.7208  -5.6511  -5.6148
    -5.5775  -5.4170  -5.3267  -5.2518  -5.1432  -5.0214  -4.9674  -4.8528
    -4.7388  -4.5956  -4.4939  -4.3114  -4.2783  -4.1770  -4.1475  -3.9863
    -3.9336  -3.8080  -3.6824  -3.6219  -3.4897  -3.4036  -3.2970  -3.2195
    -3.1962  -3.0712  -2.9680  -2.9210  -2.9036  -2.7692  -2.7038  -2.6571
    -2.6399  -2.5775  -2.3515  -2.2584  -2.0018  -1.8211  -1.7506  -1.5649
    -1.5156  -1.4391  -1.3812  -1.2735  -1.0850  -0.9453  -0.9289  -0.7874
    -0.3651  -0.1737  -0.0234   0.4085   0.5998   0.8918   1.0885   1.3681
     1.4399   1.5937   1.6266   1.9083   2.0542   2.0976   2.3918   3.4499
     3.7460   4.1205   4.5840   4.9005   5.1370   5.5923   5.7086   5.7711
     6.0144   6.2010   6.3443   6.5058   6.5456   6.7575   6.8687   6.9311
     7.0235   7.1040   7.2977   7.4726   7.6189   7.6508   7.7868   7.9029
     7.9540   8.0433   8.2166   8.2606   8.4268   8.4792   8.5565   8.6799
     8.7917   8.8274   8.8926   8.9400   9.1485   9.1862   9.3049   9.4143
     9.5368   9.5904   9.6672   9.7749   9.8594   9.9942  10.0514  10.1128
    10.2058  10.2980  10.4023  10.4960  10.5930  10.6516  10.7258  10.7755
    10.9419  10.9994  11.1231  11.2150  11.3057  11.3745  11.4361  11.5672
    11.6433  11.7264  11.8330  11.8921  11.9517  12.0246  12.0805  12.1548
    12.2460  12.2736  12.3673  12.4369  12.5711  12.6480  12.7093  12.7470
    12.8258  12.8813  12.9632  13.0015  13.1722  13.2431  13.3108  13.4099
    13.5163  13.5696  13.6343  13.6933  13.7748  13.8058  13.9135  14.0053
    14.0979  14.1538  14.2305  14.3456  14.4144  14.4464  14.5699  14.7127
    14.7512  14.7926  14.8864  14.9628  15.0621  15.1293  15.1784  15.2560
    15.3252  15.3375  15.4084  15.4499  15.5084  15.5739  15.6221  15.6660
    15.7497  15.8263  15.8559  15.8942  15.9810  16.0344  16.1139  16.1431
    16.2188  16.2762  16.3415  16.4351  16.5131  16.5837  16.7344  16.7698
    16.8166  16.8880  16.9226  16.9302  16.9688  17.0182  17.0478  17.0887
    17.1362  17.1595  17.1739  17.1800  17.1838  17.2260  17.2831  17.3172
    17.3626  17.4124  17.4638  17.4927  17.6051  17.6132  17.6752  17.7774
    17.8662  17.9547  17.9873  18.0652  18.0843  18.1230  18.2622  18.3519
    18.3813  18.3976  18.4722  18.5544  18.6082  18.6508  18.7190  18.8366
    18.9205  18.9494  19.0179  19.0981  19.1176  19.1841  19.3054  19.3722
    19.4343  19.5137  19.5567  19.6351  19.6617  19.8205  19.9607  19.9992
    20.0856  20.1451  20.1865  20.2319  20.2729  20.3106  20.3423  20.3981
    20.5053  20.5617  20.6520  20.7031  20.7415  20.7952  20.8229  20.8552
    20.9295  20.9883  21.0453  21.0721  21.1508  21.2224  21.2981  21.3310
    21.3763  21.4926  21.5056  21.5868  21.6138  21.6809  21.7766  21.8635
    21.9255  21.9782  22.0648  22.1491  22.2043  22.2757  22.3167  22.3449
    22.4147  22.4714  22.5564

     the Fermi energy is    -0.8938 ev

!    total energy              =   -2314.21773434 Ry
     Harris-Foulkes estimate   =   -2314.21773494 Ry
     estimated scf accuracy    <       0.00000063 Ry

     The total energy is the sum of the following terms:

     one-electron contribution =  -24123.64047537 Ry
     hartree contribution      =   12111.01181498 Ry
     xc contribution           =    -579.96617793 Ry
     ewald contribution        =   10278.37717960 Ry
     Hubbard energy            =       0.00000000 Ry
     smearing contrib. (-TS)   =      -0.00007562 Ry

     convergence has been achieved in  31 iterations

     Forces acting on atoms (Ry/au):


     negative rho (up, down):  0.158E+01 0.000E+00
     atom    1 type  1   force =    -0.00827836   -0.00446111   -0.00050766
     atom    2 type  1   force =     0.00014136    0.00423331   -0.00076160
     atom    3 type  2   force =     0.00536759    0.00633809   -0.00002432
     atom    4 type  2   force =     0.01062014    0.00344975   -0.00047551
     atom    5 type  1   force =     0.00104036   -0.00498669   -0.00012685
     atom    6 type  1   force =     0.00019561   -0.00135793   -0.00010419
     atom    7 type  1   force =     0.00010345   -0.00240819    0.00050184
     atom    8 type  1   force =    -0.00410563    0.00054138   -0.00011877
     atom    9 type  2   force =     0.00611833    0.00432994   -0.00040223
     atom   10 type  2   force =    -0.00009067   -0.02103314    0.00004833
     atom   11 type  1   force =    -0.00399314    0.00193290    0.00001650
     atom   12 type  1   force =    -0.01333348    0.01084511    0.00007294
     atom   13 type  1   force =    -0.00114945   -0.00775719   -0.00060800
     atom   14 type  1   force =    -0.00811234   -0.00429061   -0.00011471
     atom   15 type  1   force =     0.00013852    0.00250685    0.00107091
     atom   16 type  2   force =    -0.00623195    0.00641972    0.00010294
     atom   17 type  2   force =     0.01022343    0.00484074    0.00002937
     atom   18 type  1   force =     0.00119898   -0.00500135   -0.00015475
     atom   19 type  1   force =    -0.00031755   -0.00126164   -0.00012832
     atom   20 type  1   force =     0.00004628   -0.00347574   -0.00035357
     atom   21 type  1   force =    -0.00391874    0.00218267    0.00029688
     atom   22 type  2   force =    -0.00239395    0.00428444   -0.00041627
     atom   23 type  2   force =     0.00007341    0.00597191    0.00047958
     atom   24 type  1   force =     0.00401805    0.00194691    0.00001710
     atom   25 type  1   force =     0.01341238    0.01092473   -0.00000158
     atom   26 type  1   force =    -0.00113337   -0.01505533    0.00018619
     atom   27 type  3   force =     0.00000803    0.00060104   -0.00008878
     atom   28 type  3   force =     0.00001462   -0.00037259    0.00018769
     atom   29 type  3   force =     0.00025727    0.00005179    0.00014778
     atom   30 type  3   force =     0.00007669   -0.00005902   -0.00020261
     atom   31 type  1   force =     0.00004168    0.00003926    0.00064493
     atom   32 type  1   force =    -0.00004008   -0.00036155    0.00039286
     atom   33 type  3   force =     0.00000253    0.00044155    0.00039386

     Total force =     0.002345     Total SCF correction =     0.002648
     SCF correction compared to forces is large: reduce conv_thr to get better values


     entering subroutine stress ...


     negative rho (up, down):  0.158E+01 0.000E+00
          total   stress  (Ry/bohr**3)                   (kbar)     P=  -17.99
  -0.00019320   0.00000005   0.00000420        -28.42      0.01      0.62
   0.00000005  -0.00012627  -0.00000634          0.01    -18.58     -0.93
   0.00000420  -0.00000634  -0.00004746          0.62     -0.93     -6.98


     BFGS Geometry Optimization

     number of scf cycles    =   1
     number of bfgs steps    =   0

     energy   new            =   -2314.2177343431 Ry

     new trust radius        =       0.0010709085 bohr
     new conv_thr            =       0.0000010000 Ry


ATOMIC_POSITIONS (crystal)
O0       0.000000000   0.000000000   0.377819859    0   0   1
O0       0.000000000   0.500000000   0.401734787    0   0   1
Pt1      0.250000000   0.500000000   0.451249514    0   0   1
Pt1      0.000000000   0.000000000   0.452840501    0   0   1
O0       0.250000000   0.810000000   0.443497466    0   0   1
O0       0.250000000   0.190000000   0.460007919    0   0   1
O0       0.000000000   0.500000000   0.496740024    0   0   1
O0       0.000000000   0.000000000   0.529657628    0   0   1
Pt1      0.250000000   0.000000000   0.575841965    0   0   1
Pt1      0.000000000   0.500000000   0.575460966    0   0   1
O0       0.250000000   0.690000000   0.567420330    0   0   1
O0       0.250000000   0.310000000   0.586071457    0   0   1
O0       0.000000000   0.000000000   0.621397855    0   0   1
O0       0.500000000   0.000000000   0.377607709    0   0   1
O0       0.500000000   0.500000000   0.400791392    0   0   1
Pt1      0.750000000   0.500000000   0.451252056    0   0   1
Pt1      0.500000000   0.000000000   0.452620587    0   0   1
O0       0.750000000   0.810000000   0.443516909    0   0   1
O0       0.750000000   0.190000000   0.459987437    0   0   1
O0       0.500000000   0.500000000   0.498142937    0   0   1
O0       0.500000000   0.000000000   0.529385930    0   0   1
Pt1      0.750000000   0.000000000   0.575841685    0   0   1
Pt1      0.500000000   0.500000000   0.576209580    0   0   1
O0       0.750000000   0.690000000   0.567400341    0   0   1
O0       0.750000000   0.310000000   0.586079968    0   0   1
O0       0.500000000   0.000000000   0.620863719    0   0   1
H2       0.000020657   0.639928998   0.386028226
H2       0.500061198   0.640459626   0.385453749
H2       0.143391075   0.033774222   0.367792952
H2       0.643086282   0.035285189   0.367645953
O0       0.500113414   0.556233200   0.648742883
O0       0.499936717   0.366930526   0.677747848
H2       0.499990208   0.428465996   0.711877868


     Check: negative starting charge=   -1.535323
     NEW-OLD atomic charge density approx. for the potential

     Check: negative/imaginary core charge=   -0.000003    0.000000
     Check: negative starting charge=   -1.535354

     negative rho (up, down):  0.158E+01 0.000E+00
 Atomic wfc used for LDA+U Projector are NOT orthogonalized

     total cpu time spent up to now is     7732.7 secs

     per-process dynamical memory:   472.4 Mb

     Self-consistent Calculation

     iteration #  1     ecut=    40.00 Ry     beta=0.70
     Davidson diagonalization with overlap
     ethr =  1.00E-06,  avg # of iterations =  2.0
 --- enter write_ns ---
 LDA+U parameters:
U( 2)     =  0.00000000
alpha( 2) =  0.00000000
atom    3   Tr[ns(na)] =   8.64157
    eigenvalues: 
  0.678  0.696  0.980  0.982  0.985
    eigenvectors:
  0.056  0.121  0.756  0.001  0.066
  0.707  0.292  0.000  0.000  0.000
  0.000  0.003  0.091  0.008  0.897
  0.236  0.584  0.149  0.000  0.031
  0.000  0.000  0.004  0.990  0.006
    occupations:
  0.929  0.007  0.005 -0.111  0.001
  0.007  0.683  0.002  0.006 -0.002
  0.005  0.002  0.984  0.015 -0.000
 -0.111  0.006  0.015  0.743  0.001
  0.001 -0.002 -0.000  0.001  0.982
atom    4   Tr[ns(na)] =   8.62623
    eigenvalues: 
  0.682  0.699  0.972  0.978  0.982
    eigenvectors:
  0.000  0.987  0.005  0.001  0.007
  0.007  0.000  0.031  0.959  0.002
  0.000  0.004  0.946  0.028  0.022
  0.000  0.009  0.017  0.005  0.969
  0.993  0.000  0.000  0.007  0.000
    occupations:
  0.703 -0.005 -0.018  0.026 -0.001
 -0.005  0.976  0.001  0.000  0.025
 -0.018  0.001  0.971  0.003  0.000
  0.026  0.000  0.003  0.979  0.000
 -0.001  0.025  0.000  0.000  0.684
atom    9   Tr[ns(na)] =   8.59132
    eigenvalues: 
  0.702  0.714  0.946  0.952  0.982
    eigenvectors:
  0.000  0.138  0.004  0.010  0.848
  1.000  0.000  0.000  0.000  0.000
  0.000  0.009  0.348  0.635  0.008
  0.000  0.853  0.001  0.002  0.144
  0.000  0.000  0.646  0.354  0.000
    occupations:
  0.945 -0.002 -0.006 -0.092 -0.000
 -0.002  0.702 -0.000  0.001 -0.003
 -0.006 -0.000  0.948 -0.022  0.003
 -0.092  0.001 -0.022  0.753 -0.000
 -0.000 -0.003  0.003 -0.000  0.948
atom   10   Tr[ns(na)] =   8.68695
    eigenvalues: 
  0.657  0.762  0.970  0.975  0.980
    eigenvectors:
  0.000  0.983  0.000  0.001  0.016
  0.009  0.000  0.991  0.000  0.000
  0.000  0.001  0.000  0.748  0.251
  0.000  0.015  0.000  0.251  0.734
  0.991  0.000  0.009  0.000  0.000
    occupations:
  0.765  0.000 -0.008  0.027  0.000
  0.000  0.967 -0.000 -0.000 -0.029
 -0.008 -0.000  0.976 -0.001 -0.000
  0.027 -0.000 -0.001  0.975 -0.000
  0.000 -0.029 -0.000 -0.000  0.659
atom   16   Tr[ns(na)] =   8.64160
    eigenvalues: 
  0.678  0.696  0.980  0.982  0.985
    eigenvectors:
  0.057  0.120  0.757  0.000  0.065
  0.704  0.296  0.000  0.000  0.000
  0.001  0.003  0.092  0.006  0.899
[...]
    19.4952  19.5307  19.5611  19.5759  19.6406  19.6784  19.7310  19.7745
    19.8165  19.8320  19.8630  19.9593  20.0154  20.0713  20.0835  20.1123
    20.2782  20.3189  20.4045  20.4400  20.4733  20.5061  20.5781  20.5874
    20.5916  20.6427  20.7212  20.7311  20.8238  20.8409  20.9141  20.9510
    20.9873  21.0394  21.1007  21.3211  21.3316  21.4802  21.5013  21.6052
    21.7315  21.7652  21.7728  21.8204  21.9222  21.9795  22.0301  22.0704
    22.0816  22.2402  22.3300

          k =-0.5000 0.2488 0.0000 ( 32052 PWs)   bands (ev):

   -55.2935 -55.2690 -55.2688 -55.1832 -55.1600 -55.1596 -55.1496 -55.1483
   -55.1151 -55.1122 -55.0058 -54.9833 -54.9828 -54.9210 -54.9160 -54.8800
   -54.8793 -54.8377 -54.8315 -54.8185 -54.8180 -54.4210 -54.1834 -53.8569
   -23.4964 -21.3416 -21.0615 -20.2605 -20.2432 -20.0313 -20.0237 -19.7566
   -19.7103 -19.6100 -19.5731 -19.4818 -19.4507 -19.3852 -19.3510 -19.3114
   -19.2893 -18.4010 -18.3621 -17.2755  -9.2429  -9.0844  -8.9006  -8.8943
    -8.8037  -8.7575  -8.7135  -8.4485  -8.4233  -8.3304  -8.0604  -7.9702
    -7.9395  -7.8596  -7.7587  -7.5750  -7.5289  -7.4707  -7.3235  -7.2603
    -7.1321  -7.0905  -7.0510  -6.9403  -6.8459  -6.8290  -6.6086  -6.5251
    -6.3523  -6.2744  -6.1959  -6.0948  -6.0304  -5.7481  -5.6575  -5.5829
    -5.5488  -5.5131  -5.4032  -5.3665  -5.2757  -5.2423  -5.1517  -5.0079
    -4.8658  -4.6635  -4.6336  -4.5622  -4.4581  -4.2043  -4.1780  -4.0523
    -3.8993  -3.8370  -3.7607  -3.4956  -3.3515  -3.2938  -3.0437  -3.0372
    -3.0081  -2.8914  -2.7942  -2.7556  -2.7129  -2.6285  -2.5706  -2.4852
    -2.3380  -2.2049  -2.0187  -1.9805  -1.8834  -1.8036  -1.7289  -1.6341
    -1.5614  -1.5228  -1.3869  -1.3625  -1.1761  -1.1540  -1.1316  -0.6788
     0.0973   0.2348   0.3320   0.4177   0.5186   0.6271   0.8929   0.9687
     1.1829   1.3486   1.4964   1.6447   1.8075   2.1335   2.2608   3.4972
     4.5149   4.6058   4.6467   4.7979   5.2842   5.3723   5.6385   5.7661
     5.8917   5.9689   6.3167   6.3694   6.4784   6.5856   6.8181   6.8818
     6.9724   7.0725   7.1481   7.1989   7.4550   7.4716   7.6499   7.6808
     7.8092   7.9659   8.0549   8.2235   8.3712   8.4070   8.4550   8.6264
     8.7470   8.8525   8.9763   9.0082   9.2372   9.2605   9.4885   9.5539
     9.6394   9.7292   9.7676   9.8203   9.8970  10.0794  10.1354  10.2695
    10.4194  10.4391  10.5264  10.6052  10.7903  10.7991  10.9453  11.0645
    11.1381  11.1827  11.3291  11.4149  11.5444  11.5843  11.6229  11.7310
    11.8629  11.9629  12.0895  12.1139  12.1485  12.2074  12.3013  12.3450
    12.4737  12.4930  12.5947  12.6257  12.7335  12.7755  12.9175  12.9688
    13.0596  13.0854  13.1370  13.1977  13.2902  13.3411  13.3841  13.4004
    13.4875  13.5517  13.6637  13.7586  13.7936  13.8691  13.9453  13.9922
    14.0749  14.0987  14.2037  14.2122  14.2841  14.3130  14.3855  14.4355
    14.4544  14.5046  14.5491  14.5872  14.6685  14.7249  14.7850  14.8840
    15.0026  15.0612  15.1574  15.2272  15.3204  15.3922  15.4568  15.4729
    15.6161  15.7561  15.7948  15.8103  15.9197  15.9672  16.0698  16.0973
    16.2231  16.2390  16.2817  16.3336  16.3778  16.4024  16.5346  16.5713
    16.7138  16.7492  16.7993  16.8296  16.8764  16.9300  16.9544  16.9772
    17.0036  17.0939  17.1215  17.1664  17.1679  17.1940  17.2079  17.3006
    17.3511  17.3750  17.4052  17.4513  17.5247  17.5980  17.6420  17.7113
    17.7454  17.8196  17.8765  17.9605  18.0346  18.0648  18.1112  18.1710
    18.1813  18.2609  18.3113  18.3404  18.4102  18.4778  18.5974  18.6804
    18.7687  18.8354  18.9110  18.9525  19.0029  19.0547  19.1024  19.1829
    19.2074  19.2877  19.3510  19.3997  19.4832  19.5305  19.5784  19.6837
    19.7651  19.8075  19.9259  19.9440  19.9890  20.0828  20.1612  20.2886
    20.3818  20.3913  20.5782  20.5963  20.6689  20.6851  20.7393  20.8242
    20.9581  21.0222  21.0844  21.1520  21.2329  21.2522  21.3286  21.3466
    21.5254  21.5679  21.5969  21.6271  21.7838  21.7894  21.8788  21.9411
    22.0082  22.0738  22.1127  22.2212  22.2756  22.2904  22.3951  22.4671
    22.5723  22.6470  22.7061

          k =-0.5000-0.4976 0.0000 ( 31956 PWs)   bands (ev):

   -55.2936 -55.2690 -55.2688 -55.1832 -55.1599 -55.1595 -55.1496 -55.1483
   -55.1152 -55.1123 -55.0060 -54.9830 -54.9824 -54.9212 -54.9161 -54.8800
   -54.8793 -54.8375 -54.8313 -54.8187 -54.8183 -54.4209 -54.1834 -53.8569
   -23.4961 -21.3354 -21.0519 -20.1274 -20.1126 -19.9285 -19.9126 -19.8016
   -19.7844 -19.7434 -19.7371 -19.5048 -19.4722 -19.4476 -19.3804 -19.3305
   -19.3113 -18.4026 -18.3610 -17.2719  -9.2128  -9.0430  -8.7183  -8.5160
    -8.5066  -8.3844  -8.3824  -8.3602  -8.3375  -8.1324  -8.0199  -7.8486
    -7.8108  -7.7869  -7.7476  -7.6722  -7.6091  -7.5420  -7.5084  -7.4845
    -7.4291  -7.3468  -7.1208  -6.9766  -6.8821  -6.8787  -6.5794  -6.5507
    -6.3921  -6.3099  -6.2800  -6.2263  -6.1776  -6.0928  -5.9686  -5.9424
    -5.8901  -5.6767  -5.6561  -5.4848  -5.3437  -5.2690  -5.1368  -4.9914
    -4.8460  -4.6289  -4.5903  -4.4148  -4.3474  -4.1211  -4.0677  -4.0356
    -4.0041  -3.8015  -3.6332  -3.4692  -3.2521  -3.2380  -2.8602  -2.8252
    -2.8020  -2.7573  -2.7327  -2.7060  -2.6567  -2.5699  -2.5234  -2.5018
    -2.4454  -2.2904  -1.9936  -1.9850  -1.9227  -1.8147  -1.6619  -1.6124
    -1.5176  -1.4599  -1.4481  -1.3914  -1.3391  -1.1974  -1.1188  -0.6713
    -0.1039  -0.0842  -0.0162   0.2492   0.3267   0.6516   0.9793   1.0011
     1.2963   1.6749   1.7171   1.8001   1.9412   2.2010   2.2475   3.4955
     4.6821   4.9790   5.1578   5.1846   5.5705   5.5756   5.8787   5.9071
     5.9338   6.0332   6.1623   6.2241   6.2357   6.3880   6.4855   6.5485
     6.6778   6.6978   6.7241   6.8491   7.1277   7.2383   7.3291   7.5135
     7.5893   7.6686   7.7715   7.8849   8.1778   8.2897   8.5210   8.5778
     8.6766   8.7960   8.8467   9.0352   9.0511   9.2150   9.3061   9.5297
     9.7594   9.7801   9.8590   9.9258   9.9694   9.9792  10.2839  10.3832
    10.6515  10.6794  10.8642  10.9767  11.0450  11.0802  11.2813  11.6241
    11.6736  11.8348  12.1415  12.1480  12.1718  12.2119  12.2953  12.3253
    12.3999  12.4566  12.5265  12.6017  12.6539  12.7371  12.7586  12.8307
    12.8568  12.9806  13.0493  13.0895  13.1071  13.1226  13.1753  13.1852
    13.2140  13.2222  13.2813  13.2879  13.3090  13.3351  13.3467  13.3685
    13.4492  13.4728  13.5731  13.5787  13.5883  13.6236  13.6912  13.7314
    13.7541  13.8197  13.8628  13.9116  13.9949  14.0416  14.1163  14.1449
    14.2743  14.2965  14.3482  14.3724  14.4262  14.5288  14.7094  14.7935
    14.8262  14.8703  14.9271  14.9602  15.0134  15.0213  15.0526  15.0783
    15.1274  15.2035  15.3332  15.3609  15.4183  15.4639  15.5599  15.5677
    15.6572  15.7228  15.7832  15.9294  15.9672  16.0469  16.1081  16.1737
    16.2591  16.3292  16.4856  16.5083  16.5829  16.6014  16.6178  16.6758
    16.7848  16.8627  16.9457  16.9474  16.9663  17.0703  17.1244  17.1785
    17.1854  17.1880  17.1982  17.2256  17.2929  17.5006  17.5308  17.6149
    17.6945  17.8985  17.9860  18.0112  18.0583  18.0943  18.1148  18.1527
    18.2744  18.4005  18.4184  18.4938  18.5900  18.6732  18.7466  18.7612
    18.9114  18.9339  19.0717  19.0950  19.1454  19.3615  19.4208  19.5370
    19.5736  19.6931  19.7313  19.7525  19.8450  19.8972  19.9455  19.9903
    20.0494  20.0790  20.2462  20.3133  20.3530  20.3823  20.4297  20.4569
    20.4780  20.5461  20.6126  20.6362  20.6808  20.7271  20.8020  20.8702
    20.8708  20.8902  21.0097  21.0888  21.0950  21.1456  21.1493  21.1726
    21.2587  21.2701  21.3364  21.3984  21.4533  21.5071  21.5264  21.5961
    21.6980  21.7434  21.7978  21.8091  21.8513  21.9552  21.9821  22.0266
    22.1088  22.1382  22.2950

          k =-0.2500 0.2488 0.0000 ( 32025 PWs)   bands (ev):

   -55.2939 -55.2884 -55.2493 -55.1834 -55.1673 -55.1612 -55.1584 -55.1328
   -55.1305 -55.0945 -55.0058 -54.9850 -54.9810 -54.9217 -54.9154 -54.8822
   -54.8772 -54.8382 -54.8310 -54.8204 -54.8161 -54.4205 -54.1834 -53.8569
   -23.4965 -21.3987 -21.0387 -20.4957 -20.2737 -19.9843 -19.8478 -19.8105
   -19.6712 -19.6310 -19.5602 -19.5130 -19.4588 -19.4187 -19.3013 -19.2683
   -19.2119 -18.4050 -18.2772 -17.2756  -9.4606  -9.2007  -9.0890  -8.9964
    -8.7275  -8.6272  -8.5918  -8.4828  -8.3552  -8.3159  -8.2656  -8.0793
    -8.0628  -7.9840  -7.9094  -7.8345  -7.7988  -7.7022  -7.4647  -7.2765
    -7.1813  -7.0243  -6.9657  -6.8903  -6.7225  -6.5429  -6.2727  -6.1874
    -6.0568  -6.0166  -5.9778  -5.9086  -5.8499  -5.7207  -5.6508  -5.6149
    -5.5774  -5.4167  -5.3266  -5.2517  -5.1427  -5.0212  -4.9672  -4.8527
    -4.7387  -4.5953  -4.4940  -4.3113  -4.2783  -4.1769  -4.1472  -3.9862
    -3.9336  -3.8078  -3.6824  -3.6216  -3.4894  -3.4031  -3.2972  -3.2197
    -3.1960  -3.0707  -2.9678  -2.9208  -2.9032  -2.7691  -2.7039  -2.6573
    -2.6397  -2.5778  -2.3514  -2.2585  -2.0019  -1.8212  -1.7507  -1.5651
    -1.5154  -1.4390  -1.3812  -1.2733  -1.0848  -0.9452  -0.9287  -0.7873
    -0.3646  -0.1740  -0.0236   0.4092   0.6002   0.8917   1.0886   1.3682
     1.4398   1.5938   1.6266   1.9086   2.0545   2.0975   2.3916   3.4494
     3.7459   4.1204   4.5839   4.9002   5.1369   5.5921   5.7083   5.7708
     6.0145   6.2012   6.3444   6.5057   6.5456   6.7575   6.8687   6.9310
     7.0235   7.1038   7.2976   7.4723   7.6188   7.6507   7.7866   7.9030
     7.9541   8.0433   8.2164   8.2605   8.4268   8.4792   8.5564   8.6799
     8.7918   8.8273   8.8928   8.9401   9.1484   9.1862   9.3050   9.4141
     9.5369   9.5903   9.6672   9.7750   9.8596   9.9941  10.0513  10.1127
    10.2058  10.2979  10.4023  10.4961  10.5930  10.6517  10.7258  10.7755
    10.9419  10.9995  11.1232  11.2151  11.3058  11.3746  11.4361  11.5673
    11.6433  11.7263  11.8329  11.8920  11.9517  12.0247  12.0807  12.1548
    12.2459  12.2736  12.3673  12.4369  12.5712  12.6480  12.7094  12.7469
    12.8260  12.8813  12.9633  13.0015  13.1723  13.2431  13.3109  13.4099
    13.5164  13.5695  13.6344  13.6932  13.7747  13.8059  13.9136  14.0053
    14.0978  14.1538  14.2305  14.3457  14.4146  14.4463  14.5699  14.7129
    14.7511  14.7929  14.8864  14.9630  15.0623  15.1294  15.1785  15.2559
    15.3253  15.3375  15.4084  15.4499  15.5085  15.5739  15.6222  15.6661
    15.7496  15.8264  15.8560  15.8942  15.9810  16.0345  16.1140  16.1432
    16.2188  16.2763  16.3417  16.4352  16.5132  16.5838  16.7345  16.7699
    16.8165  16.8879  16.9222  16.9301  16.9688  17.0183  17.0480  17.0889
    17.1365  17.1602  17.1745  17.1806  17.1842  17.2262  17.2831  17.3173
    17.3627  17.4124  17.4638  17.4928  17.6052  17.6133  17.6752  17.7774
    17.8662  17.9547  17.9873  18.0650  18.0843  18.1229  18.2624  18.3519
    18.3814  18.3976  18.4723  18.5545  18.6083  18.6509  18.7190  18.8367
    18.9205  18.9496  19.0179  19.0980  19.1177  19.1842  19.3055  19.3723
    19.4345  19.5138  19.5568  19.6352  19.6618  19.8206  19.9610  19.9993
    20.0857  20.1451  20.1864  20.2319  20.2730  20.3108  20.3425  20.3983
    20.5053  20.5617  20.6521  20.7032  20.7416  20.7952  20.8229  20.8552
    20.9295  20.9881  21.0453  21.0722  21.1508  21.2226  21.2981  21.3311
    21.3763  21.4926  21.5057  21.5868  21.6139  21.6809  21.7768  21.8637
    21.9257  21.9784  22.0649  22.1492  22.2045  22.2757  22.3168  22.3450
    22.4148  22.4714  22.5564

     the Fermi energy is    -0.8936 ev

!    total energy              =   -2314.21773887 Ry
     Harris-Foulkes estimate   =   -2314.21773955 Ry
     estimated scf accuracy    <       0.00000072 Ry

     The total energy is the sum of the following terms:

     one-electron contribution =  -24123.39363818 Ry
     hartree contribution      =   12110.87993438 Ry
     xc contribution           =    -579.96559696 Ry
     ewald contribution        =   10278.26163852 Ry
     Hubbard energy            =       0.00000000 Ry
     smearing contrib. (-TS)   =      -0.00007663 Ry

     convergence has been achieved in   7 iterations

     Forces acting on atoms (Ry/au):


     negative rho (up, down):  0.158E+01 0.000E+00
     atom    1 type  1   force =    -0.00815132   -0.00443310   -0.00040801
     atom    2 type  1   force =     0.00013642    0.00449454   -0.00055848
     atom    3 type  2   force =     0.00515709    0.00631223    0.00003669
     atom    4 type  2   force =     0.01058260    0.00348374   -0.00026485
     atom    5 type  1   force =     0.00102240   -0.00496194   -0.00008932
     atom    6 type  1   force =     0.00016302   -0.00139817   -0.00011339
     atom    7 type  1   force =     0.00011307   -0.00242157    0.00008119
     atom    8 type  1   force =    -0.00409897    0.00054363   -0.00043760
     atom    9 type  2   force =     0.00624628    0.00433883   -0.00021041
     atom   10 type  2   force =    -0.00008820   -0.02099724    0.00006895
     atom   11 type  1   force =    -0.00396765    0.00200221   -0.00003058
     atom   12 type  1   force =    -0.01332047    0.01073712    0.00008639
     atom   13 type  1   force =    -0.00115045   -0.00776270   -0.00047834
     atom   14 type  1   force =    -0.00805492   -0.00427200   -0.00005384
     atom   15 type  1   force =     0.00014735    0.00248815    0.00083299
     atom   16 type  2   force =    -0.00602151    0.00640546    0.00010823
     atom   17 type  2   force =     0.01023249    0.00486837    0.00006834
     atom   18 type  1   force =     0.00121868   -0.00498391   -0.00010774
     atom   19 type  1   force =    -0.00028298   -0.00130892   -0.00012996
     atom   20 type  1   force =     0.00004108   -0.00347512   -0.00015040
     atom   21 type  1   force =    -0.00391609    0.00219158    0.00005301
     atom   22 type  2   force =    -0.00252366    0.00429106   -0.00022136
     atom   23 type  2   force =     0.00007518    0.00603287    0.00032527
     atom   24 type  1   force =     0.00399555    0.00201948   -0.00003151
     atom   25 type  1   force =     0.01340083    0.01081359    0.00001668
     atom   26 type  1   force =    -0.00112597   -0.01506013   -0.00013109
     atom   27 type  3   force =     0.00000726    0.00037894    0.00000564
     atom   28 type  3   force =     0.00001619   -0.00041583    0.00022819
     atom   29 type  3   force =     0.00016403    0.00002670    0.00012499
     atom   30 type  3   force =    -0.00002482   -0.00008223   -0.00015661
     atom   31 type  1   force =     0.00004254   -0.00002643    0.00061762
     atom   32 type  1   force =    -0.00003866   -0.00005730    0.00074292
     atom   33 type  3   force =     0.00000362    0.00022809    0.00017637

     Total force =     0.001861     Total SCF correction =     0.004606
     SCF correction compared to forces is large: reduce conv_thr to get better values


     entering subroutine stress ...


     negative rho (up, down):  0.158E+01 0.000E+00
          total   stress  (Ry/bohr**3)                   (kbar)     P=  -18.10
  -0.00019383   0.00000003   0.00000421        -28.51      0.00      0.62
   0.00000003  -0.00012698  -0.00000634          0.00    -18.68     -0.93
   0.00000421  -0.00000634  -0.00004826          0.62     -0.93     -7.10


     bfgs converged in   2 scf cycles and   1 bfgs steps
     (criteria: energy < 0.10E-03, force < 0.10E-02)

     End of BFGS Geometry Optimization

     Final energy   =   -2314.2177388687 Ry
Begin final coordinates

ATOMIC_POSITIONS (crystal)
O0       0.000000000   0.000000000   0.377819859    0   0   1
O0       0.000000000   0.500000000   0.401734787    0   0   1
Pt1      0.250000000   0.500000000   0.451249514    0   0   1
Pt1      0.000000000   0.000000000   0.452840501    0   0   1
O0       0.250000000   0.810000000   0.443497466    0   0   1
O0       0.250000000   0.190000000   0.460007919    0   0   1
O0       0.000000000   0.500000000   0.496740024    0   0   1
O0       0.000000000   0.000000000   0.529657628    0   0   1
Pt1      0.250000000   0.000000000   0.575841965    0   0   1
Pt1      0.000000000   0.500000000   0.575460966    0   0   1
O0       0.250000000   0.690000000   0.567420330    0   0   1
O0       0.250000000   0.310000000   0.586071457    0   0   1
O0       0.000000000   0.000000000   0.621397855    0   0   1
O0       0.500000000   0.000000000   0.377607709    0   0   1
O0       0.500000000   0.500000000   0.400791392    0   0   1
Pt1      0.750000000   0.500000000   0.451252056    0   0   1
Pt1      0.500000000   0.000000000   0.452620587    0   0   1
O0       0.750000000   0.810000000   0.443516909    0   0   1
O0       0.750000000   0.190000000   0.459987437    0   0   1
O0       0.500000000   0.500000000   0.498142937    0   0   1
O0       0.500000000   0.000000000   0.529385930    0   0   1
Pt1      0.750000000   0.000000000   0.575841685    0   0   1
Pt1      0.500000000   0.500000000   0.576209580    0   0   1
O0       0.750000000   0.690000000   0.567400341    0   0   1
O0       0.750000000   0.310000000   0.586079968    0   0   1
O0       0.500000000   0.000000000   0.620863719    0   0   1
H2       0.000020657   0.639928998   0.386028226
H2       0.500061198   0.640459626   0.385453749
H2       0.143391075   0.033774222   0.367792952
H2       0.643086282   0.035285189   0.367645953
O0       0.500113414   0.556233200   0.648742883
O0       0.499936717   0.366930526   0.677747848
H2       0.499990208   0.428465996   0.711877868
End final coordinates



     init_run     :    115.97s CPU    119.17s WALL (       1 calls)
     electrons    :   7994.96s CPU   8279.95s WALL (       2 calls)
     update_pot   :     21.24s CPU     21.71s WALL (       1 calls)
     forces       :    264.58s CPU    269.69s WALL (       2 calls)
     stress       :   1424.58s CPU   1508.71s WALL (       2 calls)

     Called by init_run:
     wfcinit      :     42.63s CPU     45.09s WALL (       1 calls)
     potinit      :      7.75s CPU      7.91s WALL (       1 calls)

     Called by electrons:
     c_bands      :   4641.34s CPU   4816.77s WALL (      39 calls)
     sum_band     :   1434.44s CPU   1476.39s WALL (      39 calls)
     v_of_rho     :     46.92s CPU     52.95s WALL (      40 calls)
     newd         :   1923.73s CPU   1938.68s WALL (      40 calls)
     mix_rho      :      7.82s CPU      8.00s WALL (      39 calls)

     Called by c_bands:
     init_us_2    :     10.56s CPU     10.74s WALL (     315 calls)
     cegterg      :   4537.29s CPU   4647.61s WALL (     117 calls)

     Called by *egterg:
     h_psi        :   2366.89s CPU   2432.36s WALL (     452 calls)
     s_psi        :    308.16s CPU    312.12s WALL (     518 calls)
     g_psi        :      5.53s CPU      5.53s WALL (     332 calls)
     cdiaghg      :    645.35s CPU    646.69s WALL (     443 calls)

     Called by h_psi:
     add_vuspsi   :    249.61s CPU    253.23s WALL (     452 calls)
     vhpsi        :    243.89s CPU    246.28s WALL (     452 calls)

     General routines
     calbec       :    702.02s CPU    711.83s WALL (    3112 calls)
     fft          :     55.08s CPU     64.33s WALL (     687 calls)
     ffts         :      0.67s CPU      0.69s WALL (      79 calls)
     fftw         :   1372.87s CPU   1443.73s WALL (  240765 calls)
     interpolate  :      6.43s CPU      6.49s WALL (      79 calls)
     davcio       :      0.03s CPU      5.40s WALL (     369 calls)

     Parallel routines
     fft_scatter  :    507.45s CPU    584.18s WALL (  241531 calls)
     Hubbard U routines
     new_ns       :     53.76s CPU     57.16s WALL (      39 calls)
     vhpsi        :    243.89s CPU    246.28s WALL (     452 calls)
     force_hub    :     78.69s CPU     81.17s WALL (       2 calls)
     stres_hub    :    738.14s CPU    757.83s WALL (       2 calls)

     PWSCF        :     2h44m CPU        2h51m WALL


   This run was terminated on:   6:14:39  31May2014            

=------------------------------------------------------------------------------=
   JOB DONE.
=------------------------------------------------------------------------------=
