
     Program PWSCF v.5.0.2 (svn rev. 9656) starts on  7Apr2014 at 21:24:30 

     This program is part of the open-source Quantum ESPRESSO suite
     for quantum simulation of materials; please cite
         "P. Giannozzi et al., J. Phys.:Condens. Matter 21 395502 (2009);
          URL http://www.quantum-espresso.org", 
     in publications or presentations arising from this work. More details at
     http://www.quantum-espresso.org/quote.php

     Parallel version (MPI), running on    16 processors
     R & G space division:  proc/nbgrp/npool/nimage =      16

     Current dimensions of program PWSCF are:
     Max number of different atomic species (ntypx) = 10
     Max number of k-points (npk) =  40000
     Max angular momentum in pseudopotentials (lmaxx) =  3
     Reading input from pwscf.in
Warning: card &CELL ignored
Warning: card / ignored

     Subspace diagonalization in iterative solution of the eigenvalue problem:
     a serial algorithm will be used


     Parallelization info
     --------------------
     sticks:   dense  smooth     PW     G-vecs:    dense   smooth      PW
     Min         356     114     31                84254    15234    2255
     Max         357     115     32                84261    15271    2270
     Sum        5697    1827    505              1348107   244131   36167



     bravais-lattice index     =            0
     lattice parameter (alat)  =      11.7541  a.u.
     unit-cell volume          =    7139.8207 (a.u.)^3
     number of atoms/cell      =           32
     number of atomic types    =            3
     number of electrons       =       239.00
     number of Kohn-Sham states=          358
     kinetic-energy cutoff     =      40.0000  Ry
     charge density cutoff     =     500.0000  Ry
     convergence threshold     =      1.0E-06
     mixing beta               =       0.3000
     number of iterations used =            8  plain     mixing
     Exchange-correlation      = SLA  PW   PBE  PBE ( 1 4 3 4 0)
     EXX-fraction              =        0.00
     nstep                     =           50


     celldm(1)=  11.754097  celldm(2)=   0.000000  celldm(3)=   0.000000
     celldm(4)=   0.000000  celldm(5)=   0.000000  celldm(6)=   0.000000

     crystal axes: (cart. coord. in units of alat)
               a(1) = (   1.000000   0.000000   0.000000 )  
               a(2) = (   0.000000   1.034513   0.000000 )  
               a(3) = (   0.000000   0.000000   4.249947 )  

     reciprocal axes: (cart. coord. in units 2 pi/alat)
               b(1) = (  1.000000  0.000000  0.000000 )  
               b(2) = (  0.000000  0.966638  0.000000 )  
               b(3) = (  0.000000  0.000000  0.235297 )  


     PseudoPot. # 1 for O  read from file:
     /home/camp/zhonxu/pseudo/o_pbe_v1.01.uspp.F.UPF
     MD5 check sum: 2bcb18d16ea4b960afae9ec6d52f22d2
     Pseudo is Ultrasoft + core correction, Zval =  6.0
     Generated by new atomic code, or converted to UPF format
     Using radial grid of  737 points,  5 beta functions with: 
                l(1) =   0
                l(2) =   0
                l(3) =   1
                l(4) =   1
                l(5) =   2
     Q(r) pseudized with  8 coefficients,  rinner =    0.900   0.900   0.900
                                                       0.900   0.900

     PseudoPot. # 2 for Rh read from file:
     /home/camp/zhonxu/pseudo/rh_pbe_v1.uspp.F.UPF
     MD5 check sum: 37b626987ad0dd8ec6bf4cc9ef289918
     Pseudo is Ultrasoft + core correction, Zval = 15.0
     Generated by new atomic code, or converted to UPF format
     Using radial grid of  969 points,  7 beta functions with: 
                l(1) =   0
                l(2) =   0
                l(3) =   1
                l(4) =   1
                l(5) =   2
                l(6) =   2
                l(7) =   2
     Q(r) pseudized with  6 coefficients,  rinner =    1.050   1.050   1.050
                                                       1.050   1.050

     PseudoPot. # 3 for H  read from file:
     /home/camp/zhonxu/pseudo/h_pbe_v1.uspp.F.UPF
     MD5 check sum: 3408e3ff4ec8b0a4e358431e7e038a48
     Pseudo is Ultrasoft, Zval =  1.0
     Generated by new atomic code, or converted to UPF format
     Using radial grid of  615 points,  2 beta functions with: 
                l(1) =   0
                l(2) =   0
     Q(r) pseudized with  8 coefficients,  rinner =    0.700

     atomic species   valence    mass     pseudopotential
        O0             6.00    15.99940     O ( 1.00)
        Rh1           15.00   102.90550     Rh( 1.00)
        H2             1.00     1.00794     H ( 1.00)

     Starting magnetic structure 
     atomic species   magnetization
        O0           0.000
        Rh1          0.000
        H2           0.000

     No symmetry found



   Cartesian axes

     site n.     atom                  positions (alat units)
         1           O0  tau(   1) = (   0.0000000   0.0000000   1.6092850  )
         2           O0  tau(   2) = (   0.0000000   0.5172566   1.7035488  )
         3           Rh1 tau(   3) = (   0.2500000   0.5172566   1.9207211  )
         4           Rh1 tau(   4) = (   0.0000000   0.0000000   1.9261186  )
         5           O0  tau(   5) = (   0.2500000   0.8379556   1.9239086  )
         6           O0  tau(   6) = (   0.2500000   0.1965575   1.9231011  )
         7           O0  tau(   7) = (   0.0000000   0.5172566   2.1185987  )
         8           O0  tau(   8) = (   0.0000000   0.0000000   2.2478396  )
         9           Rh1 tau(   9) = (   0.2500000   0.0000000   2.4500096  )
        10           Rh1 tau(  10) = (   0.0000000   0.5172566   2.4273999  )
        11           O0  tau(  11) = (   0.2500000   0.7138141   2.4527720  )
        12           O0  tau(  12) = (   0.2500000   0.3206991   2.4528570  )
        13           O0  tau(  13) = (   0.0000000   0.0000000   2.6424472  )
        14           O0  tau(  14) = (   0.5000000   0.0000000   1.6090725  )
        15           O0  tau(  15) = (   0.5000000   0.5172566   1.7019339  )
        16           Rh1 tau(  16) = (   0.7500000   0.5172566   1.9207211  )
        17           Rh1 tau(  17) = (   0.5000000   0.0000000   1.9256511  )
        18           O0  tau(  18) = (   0.7500000   0.8379556   1.9239086  )
        19           O0  tau(  19) = (   0.7500000   0.1965575   1.9231436  )
        20           O0  tau(  20) = (   0.5000000   0.5172566   2.1175787  )
        21           O0  tau(  21) = (   0.5000000   0.0000000   2.2477121  )
        22           Rh1 tau(  22) = (   0.7500000   0.0000000   2.4505621  )
        23           Rh1 tau(  23) = (   0.5000000   0.5172566   2.4398522  )
        24           O0  tau(  24) = (   0.7500000   0.7138141   2.4512846  )
        25           O0  tau(  25) = (   0.7500000   0.3206991   2.4513696  )
        26           O0  tau(  26) = (   0.5000000   0.0000000   2.6417672  )
        27           H2  tau(  27) = (  -0.0000600   0.6605366   1.6320222  )
        28           H2  tau(  28) = (   0.4999200   0.6610642   1.6319797  )
        29           H2  tau(  29) = (   0.1484500   0.0337458   1.5633431  )
        30           H2  tau(  30) = (   0.6484400   0.0337975   1.5633006  )
        31           O0  tau(  31) = (   0.5143400   0.5167910   2.7437234  )
        32           H2  tau(  32) = (   0.3672200   0.5168841   2.7989302  )

     number of k points=    20  Methfessel-Paxton smearing, width (Ry)=  0.0100
                       cart. coord. in units 2pi/alat
        k(    1) = (   0.0000000   0.0000000   0.0000000), wk =   0.0625000
        k(    2) = (   0.0000000   0.2416596   0.0000000), wk =   0.1250000
        k(    3) = (   0.0000000  -0.4833191   0.0000000), wk =   0.0625000
        k(    4) = (   0.2500000   0.0000000   0.0000000), wk =   0.1250000
        k(    5) = (   0.2500000   0.2416596   0.0000000), wk =   0.1250000
        k(    6) = (   0.2500000  -0.4833191   0.0000000), wk =   0.1250000
        k(    7) = (  -0.5000000   0.0000000   0.0000000), wk =   0.0625000
        k(    8) = (  -0.5000000   0.2416596   0.0000000), wk =   0.1250000
        k(    9) = (  -0.5000000  -0.4833191   0.0000000), wk =   0.0625000
        k(   10) = (  -0.2500000   0.2416596   0.0000000), wk =   0.1250000
        k(   11) = (   0.0000000   0.0000000   0.0000000), wk =   0.0625000
        k(   12) = (   0.0000000   0.2416596   0.0000000), wk =   0.1250000
        k(   13) = (   0.0000000  -0.4833191   0.0000000), wk =   0.0625000
        k(   14) = (   0.2500000   0.0000000   0.0000000), wk =   0.1250000
        k(   15) = (   0.2500000   0.2416596   0.0000000), wk =   0.1250000
        k(   16) = (   0.2500000  -0.4833191   0.0000000), wk =   0.1250000
        k(   17) = (  -0.5000000   0.0000000   0.0000000), wk =   0.0625000
        k(   18) = (  -0.5000000   0.2416596   0.0000000), wk =   0.1250000
        k(   19) = (  -0.5000000  -0.4833191   0.0000000), wk =   0.0625000
        k(   20) = (  -0.2500000   0.2416596   0.0000000), wk =   0.1250000

     Dense  grid:  1348107 G-vectors     FFT dimensions: (  90,  90, 360)

     Smooth grid:   244131 G-vectors     FFT dimensions: (  48,  50, 216)

     Largest allocated arrays     est. size (Mb)     dimensions
        Kohn-Sham Wavefunctions        10.69 Mb     (   1957,  358)
        NL pseudopotentials            13.17 Mb     (   1957,  441)
        Each V/rho on FFT grid          5.69 Mb     ( 186300,   2)
        Each G-vector array             0.64 Mb     (  84258)
        G-vector shells                 0.31 Mb     (  41027)
     Largest temporary arrays     est. size (Mb)     dimensions
        Auxiliary wavefunctions        42.76 Mb     (   1957, 1432)
        Each subspace H/S matrix       31.29 Mb     (1432,1432)
        Each <psi_i|beta_j> matrix      2.41 Mb     (    441,  358)
        Arrays for rho mixing          22.74 Mb     ( 186300,   8)

     Check: negative/imaginary core charge=   -0.000003    0.000000

     Initial potential from superposition of free atoms
     Check: negative starting charge=(component1):   -0.321591
     Check: negative starting charge=(component2):   -0.321591

     starting charge  234.99914, renormalised to  239.00000

     negative rho (up, down):  0.327E+00 0.327E+00
     Starting wfc are  177 randomized atomic wfcs

     total cpu time spent up to now is      149.1 secs

     per-process dynamical memory:   305.0 Mb

     Self-consistent Calculation

     iteration #  1     ecut=    40.00 Ry     beta=0.30
     Davidson diagonalization with overlap
     ethr =  1.00E-02,  avg # of iterations =  5.8

     negative rho (up, down):  0.331E+00 0.331E+00

     total cpu time spent up to now is     1337.5 secs

     total energy              =   -1974.96910578 Ry
     Harris-Foulkes estimate   =   -1984.91333102 Ry
     estimated scf accuracy    <      21.07902911 Ry

     total magnetization       =     0.00 Bohr mag/cell
     absolute magnetization    =     0.01 Bohr mag/cell

     iteration #  2     ecut=    40.00 Ry     beta=0.30
     Davidson diagonalization with overlap
     ethr =  8.82E-03,  avg # of iterations =  3.0

     negative rho (up, down):  0.334E+00 0.334E+00

     total cpu time spent up to now is     1828.7 secs

     total energy              =   -1966.48133476 Ry
     Harris-Foulkes estimate   =   -1996.88123940 Ry
     estimated scf accuracy    <     340.28380097 Ry

     total magnetization       =     0.00 Bohr mag/cell
     absolute magnetization    =     0.00 Bohr mag/cell

     iteration #  3     ecut=    40.00 Ry     beta=0.30
     Davidson diagonalization with overlap
     ethr =  8.82E-03,  avg # of iterations =  3.0

     negative rho (up, down):  0.336E+00 0.336E+00

     total cpu time spent up to now is     2331.3 secs

     total energy              =   -1978.25228970 Ry
     Harris-Foulkes estimate   =   -1983.68835751 Ry
     estimated scf accuracy    <      56.80542583 Ry

     total magnetization       =     0.00 Bohr mag/cell
     absolute magnetization    =     0.00 Bohr mag/cell

     iteration #  4     ecut=    40.00 Ry     beta=0.30
     Davidson diagonalization with overlap
     ethr =  8.82E-03,  avg # of iterations =  2.0

     negative rho (up, down):  0.338E+00 0.338E+00

     total cpu time spent up to now is     2743.4 secs

     total energy              =   -1981.40507863 Ry
     Harris-Foulkes estimate   =   -1982.30148633 Ry
     estimated scf accuracy    <       5.63777895 Ry

     total magnetization       =     0.00 Bohr mag/cell
     absolute magnetization    =     0.00 Bohr mag/cell

     iteration #  5     ecut=    40.00 Ry     beta=0.30
     Davidson diagonalization with overlap
     ethr =  2.36E-03,  avg # of iterations =  1.1

     negative rho (up, down):  0.339E+00 0.339E+00

     total cpu time spent up to now is     3120.9 secs

     total energy              =   -1981.65054473 Ry
     Harris-Foulkes estimate   =   -1981.83887671 Ry
     estimated scf accuracy    <       1.56227816 Ry

     total magnetization       =     0.00 Bohr mag/cell
     absolute magnetization    =     0.00 Bohr mag/cell

     iteration #  6     ecut=    40.00 Ry     beta=0.30
     Davidson diagonalization with overlap
     ethr =  6.54E-04,  avg # of iterations =  2.4

     negative rho (up, down):  0.340E+00 0.340E+00

     total cpu time spent up to now is     3536.6 secs

     total energy              =   -1981.64843723 Ry
     Harris-Foulkes estimate   =   -1981.74615445 Ry
     estimated scf accuracy    <       1.03363059 Ry

     total magnetization       =     0.00 Bohr mag/cell
     absolute magnetization    =     0.00 Bohr mag/cell

     iteration #  7     ecut=    40.00 Ry     beta=0.30
     Davidson diagonalization with overlap
     ethr =  4.32E-04,  avg # of iterations =  2.1

     negative rho (up, down):  0.342E+00 0.342E+00

     total cpu time spent up to now is     3943.0 secs

     total energy              =   -1981.62093857 Ry
     Harris-Foulkes estimate   =   -1981.70317974 Ry
     estimated scf accuracy    <       0.75438128 Ry

     total magnetization       =     0.00 Bohr mag/cell
     absolute magnetization    =     0.00 Bohr mag/cell

     iteration #  8     ecut=    40.00 Ry     beta=0.30
     Davidson diagonalization with overlap
     ethr =  3.16E-04,  avg # of iterations =  1.8

     negative rho (up, down):  0.343E+00 0.343E+00

     total cpu time spent up to now is     4344.1 secs

     total energy              =   -1981.59880154 Ry
     Harris-Foulkes estimate   =   -1981.66557385 Ry
     estimated scf accuracy    <       0.61728208 Ry

     total magnetization       =     0.00 Bohr mag/cell
     absolute magnetization    =     0.00 Bohr mag/cell

     iteration #  9     ecut=    40.00 Ry     beta=0.30
     Davidson diagonalization with overlap
     ethr =  2.58E-04,  avg # of iterations =  1.0

     negative rho (up, down):  0.343E+00 0.343E+00

     total cpu time spent up to now is     4725.4 secs

     total energy              =   -1981.61550610 Ry
     Harris-Foulkes estimate   =   -1981.64409104 Ry
     estimated scf accuracy    <       0.21983828 Ry

     total magnetization       =     0.00 Bohr mag/cell
     absolute magnetization    =     0.00 Bohr mag/cell

     iteration # 10     ecut=    40.00 Ry     beta=0.30
     Davidson diagonalization with overlap
     ethr =  9.20E-05,  avg # of iterations =  7.5

     negative rho (up, down):  0.344E+00 0.344E+00

     total cpu time spent up to now is     5300.4 secs

     total energy              =   -1981.61966569 Ry
     Harris-Foulkes estimate   =   -1981.63951876 Ry
     estimated scf accuracy    <       0.18531643 Ry

     total magnetization       =     0.00 Bohr mag/cell
     absolute magnetization    =     0.00 Bohr mag/cell

     iteration # 11     ecut=    40.00 Ry     beta=0.30
     Davidson diagonalization with overlap
     ethr =  7.75E-05,  avg # of iterations =  1.3

     negative rho (up, down):  0.345E+00 0.345E+00

     total cpu time spent up to now is     5687.7 secs

     total energy              =   -1981.62701332 Ry
     Harris-Foulkes estimate   =   -1981.63394251 Ry
     estimated scf accuracy    <       0.05254368 Ry

     total magnetization       =     0.00 Bohr mag/cell
     absolute magnetization    =     0.00 Bohr mag/cell

     iteration # 12     ecut=    40.00 Ry     beta=0.30
     Davidson diagonalization with overlap
     ethr =  2.20E-05,  avg # of iterations =  5.4

     negative rho (up, down):  0.345E+00 0.345E+00

     total cpu time spent up to now is     6195.5 secs

     total energy              =   -1981.62326553 Ry
     Harris-Foulkes estimate   =   -1981.63203504 Ry
     estimated scf accuracy    <       0.06268806 Ry

     total magnetization       =     0.00 Bohr mag/cell
     absolute magnetization    =     0.00 Bohr mag/cell

     iteration # 13     ecut=    40.00 Ry     beta=0.30
     Davidson diagonalization with overlap
     ethr =  2.20E-05,  avg # of iterations =  5.2

     negative rho (up, down):  0.345E+00 0.345E+00

     total cpu time spent up to now is     6710.8 secs

     total energy              =   -1981.61957446 Ry
     Harris-Foulkes estimate   =   -1981.64083143 Ry
     estimated scf accuracy    <       0.53884104 Ry

     total magnetization       =     0.00 Bohr mag/cell
     absolute magnetization    =     0.00 Bohr mag/cell

     iteration # 14     ecut=    40.00 Ry     beta=0.30
     Davidson diagonalization with overlap
     ethr =  2.20E-05,  avg # of iterations =  3.5

     negative rho (up, down):  0.346E+00 0.346E+00

     total cpu time spent up to now is     7166.0 secs

     total energy              =   -1981.62953110 Ry
     Harris-Foulkes estimate   =   -1981.63152601 Ry
     estimated scf accuracy    <       0.01530291 Ry

     total magnetization       =     0.00 Bohr mag/cell
     absolute magnetization    =     0.00 Bohr mag/cell

     iteration # 15     ecut=    40.00 Ry     beta=0.30
     Davidson diagonalization with overlap
     ethr =  6.40E-06,  avg # of iterations =  2.1

     negative rho (up, down):  0.346E+00 0.346E+00

     total cpu time spent up to now is     7576.9 secs

     total energy              =   -1981.63035347 Ry
     Harris-Foulkes estimate   =   -1981.63050068 Ry
     estimated scf accuracy    <       0.00094011 Ry

     total magnetization       =     0.00 Bohr mag/cell
     absolute magnetization    =     0.00 Bohr mag/cell

     iteration # 16     ecut=    40.00 Ry     beta=0.30
     Davidson diagonalization with overlap
     ethr =  3.93E-07,  avg # of iterations =  6.4

     negative rho (up, down):  0.346E+00 0.346E+00

     total cpu time spent up to now is     8114.9 secs

     total energy              =   -1981.63040031 Ry
     Harris-Foulkes estimate   =   -1981.63048397 Ry
     estimated scf accuracy    <       0.00054220 Ry

     total magnetization       =     0.00 Bohr mag/cell
     absolute magnetization    =     0.00 Bohr mag/cell

     iteration # 17     ecut=    40.00 Ry     beta=0.30
     Davidson diagonalization with overlap
     ethr =  2.27E-07,  avg # of iterations =  1.0

     negative rho (up, down):  0.346E+00 0.346E+00

     total cpu time spent up to now is     8503.4 secs

     total energy              =   -1981.63041328 Ry
     Harris-Foulkes estimate   =   -1981.63048220 Ry
     estimated scf accuracy    <       0.00063555 Ry

     total magnetization       =     0.00 Bohr mag/cell
     absolute magnetization    =     0.00 Bohr mag/cell

     iteration # 18     ecut=    40.00 Ry     beta=0.30
     Davidson diagonalization with overlap
     ethr =  2.27E-07,  avg # of iterations =  1.0

     negative rho (up, down):  0.346E+00 0.346E+00

     total cpu time spent up to now is     8889.2 secs

     total energy              =   -1981.63044060 Ry
     Harris-Foulkes estimate   =   -1981.63046189 Ry
     estimated scf accuracy    <       0.00019089 Ry

     total magnetization       =     0.00 Bohr mag/cell
     absolute magnetization    =     0.00 Bohr mag/cell

     iteration # 19     ecut=    40.00 Ry     beta=0.30
     Davidson diagonalization with overlap
     ethr =  7.99E-08,  avg # of iterations =  1.0

     negative rho (up, down):  0.346E+00 0.346E+00

     total cpu time spent up to now is     9277.0 secs

     total energy              =   -1981.63044168 Ry
     Harris-Foulkes estimate   =   -1981.63045999 Ry
     estimated scf accuracy    <       0.00013234 Ry

     total magnetization       =     0.00 Bohr mag/cell
     absolute magnetization    =     0.00 Bohr mag/cell

     iteration # 20     ecut=    40.00 Ry     beta=0.30
     Davidson diagonalization with overlap
     ethr =  5.54E-08,  avg # of iterations =  1.0

     negative rho (up, down):  0.346E+00 0.346E+00

     total cpu time spent up to now is     9666.2 secs

     total energy              =   -1981.63044695 Ry
     Harris-Foulkes estimate   =   -1981.63045804 Ry
     estimated scf accuracy    <       0.00011958 Ry

     total magnetization       =     0.00 Bohr mag/cell
     absolute magnetization    =     0.00 Bohr mag/cell

     iteration # 21     ecut=    40.00 Ry     beta=0.30
     Davidson diagonalization with overlap
     ethr =  5.00E-08,  avg # of iterations =  1.0

     negative rho (up, down):  0.346E+00 0.346E+00

     total cpu time spent up to now is    10054.0 secs

     total energy              =   -1981.63045206 Ry
     Harris-Foulkes estimate   =   -1981.63045498 Ry
     estimated scf accuracy    <       0.00002370 Ry

     total magnetization       =     0.00 Bohr mag/cell
     absolute magnetization    =     0.00 Bohr mag/cell

     iteration # 22     ecut=    40.00 Ry     beta=0.30
     Davidson diagonalization with overlap
     ethr =  9.92E-09,  avg # of iterations =  1.0

     negative rho (up, down):  0.346E+00 0.346E+00

     total cpu time spent up to now is    10445.2 secs

     total energy              =   -1981.63045290 Ry
     Harris-Foulkes estimate   =   -1981.63045381 Ry
     estimated scf accuracy    <       0.00000504 Ry

     total magnetization       =     0.00 Bohr mag/cell
     absolute magnetization    =     0.00 Bohr mag/cell

     iteration # 23     ecut=    40.00 Ry     beta=0.30
     Davidson diagonalization with overlap
     ethr =  2.11E-09,  avg # of iterations =  1.0

     negative rho (up, down):  0.346E+00 0.346E+00

     total cpu time spent up to now is    10832.8 secs

     total energy              =   -1981.63045096 Ry
     Harris-Foulkes estimate   =   -1981.63045586 Ry
     estimated scf accuracy    <       0.00012493 Ry

     total magnetization       =     0.00 Bohr mag/cell
     absolute magnetization    =     0.00 Bohr mag/cell

     iteration # 24     ecut=    40.00 Ry     beta=0.30
     Davidson diagonalization with overlap
     ethr =  2.11E-09,  avg # of iterations =  1.0

     negative rho (up, down):  0.346E+00 0.346E+00

     total cpu time spent up to now is    11218.3 secs

     total energy              =   -1981.63045325 Ry
     Harris-Foulkes estimate   =   -1981.63045383 Ry
     estimated scf accuracy    <       0.00000536 Ry

     total magnetization       =     0.00 Bohr mag/cell
     absolute magnetization    =     0.00 Bohr mag/cell

     iteration # 25     ecut=    40.00 Ry     beta=0.30
     Davidson diagonalization with overlap
     ethr =  2.11E-09,  avg # of iterations =  1.0

     negative rho (up, down):  0.346E+00 0.346E+00

     total cpu time spent up to now is    11602.4 secs

     total energy              =   -1981.63045351 Ry
     Harris-Foulkes estimate   =   -1981.63045365 Ry
     estimated scf accuracy    <       0.00000101 Ry

     total magnetization       =     0.00 Bohr mag/cell
     absolute magnetization    =     0.00 Bohr mag/cell

     iteration # 26     ecut=    40.00 Ry     beta=0.30
     Davidson diagonalization with overlap
     ethr =  4.23E-10,  avg # of iterations =  1.0

     negative rho (up, down):  0.346E+00 0.346E+00

     total cpu time spent up to now is    11986.4 secs

     End of self-consistent calculation

 ------ SPIN UP ------------


          k = 0.0000 0.0000 0.0000 ( 30479 PWs)   bands (ev):

   -49.5575 -49.4810 -49.4595 -49.4449 -49.4300 -49.3822 -49.3809 -49.3685
   -49.3254 -49.3174 -49.2649 -49.2483 -49.2379 -49.2214 -49.2126 -49.1629
   -49.1592 -49.1295 -49.0537 -49.0502 -49.0470 -49.0143 -49.0026 -48.9689
   -21.5495 -21.1259 -21.1109 -20.9429 -20.4814 -20.4021 -20.2822 -20.2250
   -20.1615 -20.1509 -20.1122 -20.1089 -19.9621 -19.9247 -19.7120 -19.6500
   -19.6497 -18.9030 -18.7711  -9.8623  -9.8508  -9.5776  -8.9376  -8.7669
    -8.7163  -8.6245  -8.5442  -8.5438  -8.5383  -8.3839  -8.2310  -8.1819
    -8.1275  -8.0197  -8.0001  -7.8847  -7.8580  -7.7026  -7.5798  -7.3516
    -7.1700  -7.0623  -6.9593  -6.6507  -6.5557  -6.5355  -6.4876  -6.0797
    -5.8534  -5.8130  -5.7105  -5.6831  -5.4219  -5.3881  -5.3626  -5.3258
    -5.2160  -5.1995  -5.1642  -4.9832  -4.9623  -4.7848  -4.6931  -4.6722
    -4.6385  -4.5147  -4.4776  -4.3858  -4.3047  -4.2192  -4.0717  -3.8945
    -3.8872  -3.8658  -3.7541  -3.7033  -3.6537  -3.5513  -3.3903  -3.3429
    -3.2807  -3.2295  -3.1625  -3.1231  -3.0641  -3.0464  -2.8117  -2.6895
    -2.5628  -2.4347  -2.3472  -2.1610  -2.1553  -1.9075  -1.6498  -1.5838
    -1.5551  -1.3352  -1.2811  -1.0979  -0.9853  -0.3812   0.1537   0.1709
     0.3340   0.3407   0.5040   0.6514   0.8351   1.1951   1.4793   1.7730
     1.8515   1.9070   2.1906   2.3726   3.0464   3.5432   4.1616   4.5972
     4.9134   5.7200   5.7850   6.0814   6.2179   6.6675   6.8844   7.0289
     7.1203   7.3778   7.4770   7.7370   7.7770   7.8716   7.9440   7.9703
     8.0471   8.0746   8.1254   8.2141   8.2850   8.3088   8.3961   8.4649
     8.5292   8.6503   8.7067   8.8090   8.9706   9.0096   9.1096   9.2086
     9.3098   9.4591   9.5028   9.5587   9.6844   9.7486   9.9858  10.0688
    10.2896  10.3922  10.5153  10.5508  10.6811  10.7468  10.8186  10.8604
    10.9532  11.0321  11.1005  11.1841  11.2374  11.3007  11.4057  11.5233
    11.6449  11.6720  11.6970  11.7195  11.7370  11.7590  11.8604  11.9495
    11.9888  12.0328  12.0818  12.1188  12.1782  12.1916  12.2842  12.3762
    12.4110  12.4750  12.5490  12.5979  12.7192  12.7735  12.7815  12.8424
    12.8751  13.0122  13.0833  13.2628  13.3770  13.4525  13.5699  13.6263
    13.6702  13.7216  13.8051  13.9248  13.9797  14.1049  14.2030  14.2276
    14.3151  14.3891  14.5533  14.5708  14.7353  14.8445  15.0305  15.0895
    15.2032  15.2320  15.3282  15.4706  15.5378  15.6405  15.6858  15.7776
    15.8075  15.8331  15.9211  15.9630  16.2230  16.2793  16.4514  16.5685
    16.6468  16.6789  16.8062  16.9393  16.9903  17.0028  17.0883  17.1381
    17.2030  17.3972  17.4747  17.5429  17.6058  17.7057  17.8170  17.8772
    18.0433  18.0765  18.1683  18.2433  18.2862  18.3819  18.4046  18.4335
    18.4684  18.5239  18.6690  18.7026  18.7298  18.8158  18.9218  18.9627
    19.0245  19.1098  19.2061  19.2189  19.2676  19.3374  19.4518  19.5410
    19.5497  19.5825  19.6339  19.6808  19.7574  19.7831  19.8612  19.9159
    19.9302  19.9552  20.0604  20.1001  20.1573  20.1740  20.2642  20.4274
    20.4587  20.5066  20.5607  20.5840  20.6471  20.7912  20.8967  21.0186
    21.0577  21.0712  21.1363  21.2503  21.3835  21.4650  21.4888  21.5132
    21.6067  21.6360  21.6816  21.7593  21.8123  21.8840  21.8985  22.0457
    22.1307  22.2225  22.2734  22.3451  22.3639  22.4017  22.4525  22.4929
    22.4998  22.5153  22.5257  22.5803  22.6392  22.7311

          k = 0.0000 0.2417 0.0000 ( 30538 PWs)   bands (ev):

   -49.5575 -49.4809 -49.4623 -49.4414 -49.4305 -49.3824 -49.3820 -49.3686
   -49.3254 -49.3173 -49.2650 -49.2467 -49.2377 -49.2213 -49.2128 -49.1651
   -49.1592 -49.1295 -49.0538 -49.0502 -49.0471 -49.0144 -49.0027 -48.9691
   -21.5004 -21.1169 -21.0350 -20.9122 -20.4833 -20.4039 -20.3636 -20.3231
   -20.2001 -20.1267 -20.0628 -20.0266 -19.9810 -19.9270 -19.7920 -19.7275
   -19.6503 -18.9033 -18.7680  -9.6448  -9.4608  -9.3960  -9.0816  -8.7660
    -8.7321  -8.5713  -8.5573  -8.5430  -8.4969  -8.4527  -8.2441  -8.1708
    -8.1597  -8.0926  -8.0036  -7.9858  -7.7452  -7.5854  -7.3612  -7.2028
    -7.0782  -6.9942  -6.6948  -6.6029  -6.5395  -6.5058  -6.4436  -6.3971
    -6.2253  -6.1634  -5.9483  -5.7003  -5.6200  -5.5774  -5.5339  -5.4448
    -5.3081  -5.2237  -5.1752  -5.1414  -5.0540  -4.9268  -4.8768  -4.7552
    -4.6589  -4.6086  -4.4949  -4.4254  -4.3305  -4.1420  -4.0964  -3.9198
    -3.8494  -3.5927  -3.4697  -3.4236  -3.3865  -3.3391  -3.2992  -3.2571
    -3.1996  -3.1719  -3.1556  -3.1121  -3.0773  -3.0260  -2.9699  -2.9289
    -2.7940  -2.7280  -2.3664  -2.1753  -2.1429  -1.7058  -1.6014  -1.5671
    -1.4519  -1.2955  -1.2398  -1.1265  -1.0304  -0.6522  -0.5469  -0.1109
     0.1872   0.4204   0.8942   1.1906   1.3764   1.5370   1.6705   1.7197
     1.7281   1.8204   2.1924   2.2215   3.3425   3.7275   4.3933   4.7980
     5.1344   5.2876   5.7677   5.9987   6.2003   6.2795   6.3788   6.6781
     6.9846   7.0147   7.1586   7.2468   7.5625   7.6094   7.7836   7.8548
     8.1431   8.1948   8.2560   8.3180   8.4574   8.5180   8.6518   8.7282
     8.8597   8.9063   9.0203   9.0716   9.1360   9.2472   9.3174   9.4952
     9.5558   9.5872   9.6291   9.7429   9.8055   9.8254   9.9824  10.0517
    10.1405  10.1537  10.2872  10.3381  10.4305  10.4387  10.5870  10.7158
    10.7596  10.8263  10.8588  10.9153  10.9913  11.2054  11.2282  11.2903
    11.3640  11.4361  11.5125  11.5963  11.8034  11.9179  11.9720  12.0677
    12.1845  12.2033  12.2543  12.3123  12.3496  12.4152  12.5537  12.6095
    12.6700  12.8403  12.8596  12.9284  12.9755  13.0859  13.1848  13.2893
    13.4733  13.5721  13.5896  13.6652  13.7494  13.7671  13.8261  13.8546
    13.9331  13.9836  14.0740  14.1153  14.1543  14.2152  14.3488  14.4116
    14.4443  14.5525  14.5984  14.7374  14.7626  14.8682  14.9220  15.1582
    15.1918  15.2295  15.2729  15.3152  15.5035  15.5287  15.6026  15.7297
    15.7980  15.8421  15.8883  15.9253  15.9873  16.0902  16.1692  16.3079
    16.3389  16.4602  16.5178  16.6019  16.6883  16.7739  16.8998  16.9372
    16.9910  17.0658  17.1267  17.1393  17.2614  17.3426  17.4603  17.5007
    17.7511  17.8393  17.9499  18.0009  18.0323  18.0824  18.2370  18.3376
    18.3779  18.3975  18.4663  18.4960  18.5956  18.6831  18.7586  18.8091
    18.9057  18.9442  19.0696  19.0967  19.1653  19.2224  19.2970  19.3470
    19.4244  19.4517  19.5431  19.5646  19.6343  19.6894  19.7252  19.7923
    19.8789  19.9276  19.9537  19.9870  20.0340  20.0758  20.0887  20.1827
    20.2622  20.3141  20.4042  20.4293  20.4701  20.5176  20.6118  20.6609
    20.7774  20.8636  20.9165  20.9894  21.0189  21.0792  21.1005  21.1582
    21.2081  21.2423  21.3177  21.3702  21.4121  21.5370  21.5803  21.6659
    21.6926  21.7366  21.8138  21.8655  21.9317  21.9691  22.0148  22.0759
    22.1057  22.2709  22.3299  22.3429  22.4086  22.4471

          k = 0.0000-0.4833 0.0000 ( 30492 PWs)   bands (ev):

   -49.5575 -49.4809 -49.4636 -49.4387 -49.4308 -49.3837 -49.3821 -49.3686
   -49.3252 -49.3170 -49.2649 -49.2449 -49.2373 -49.2208 -49.2129 -49.1675
   -49.1589 -49.1292 -49.0537 -49.0502 -49.0470 -49.0143 -49.0027 -48.9692
   -21.4490 -21.1147 -20.9211 -20.8791 -20.4866 -20.4157 -20.3811 -20.3578
   -20.3363 -20.1453 -20.0152 -19.9930 -19.9756 -19.9247 -19.8878 -19.7761
   -19.6508 -18.9036 -18.7656  -9.6068  -9.1989  -8.9346  -8.8446  -8.8061
    -8.7293  -8.6552  -8.5363  -8.5131  -8.4386  -8.3118  -8.2905  -8.1576
    -8.1253  -8.0449  -8.0045  -7.9474  -7.7804  -7.5280  -7.2601  -7.2220
    -7.1749  -7.0628  -7.0111  -6.8997  -6.6489  -6.4701  -6.3826  -6.3225
    -6.2495  -6.0592  -6.0318  -5.9580  -5.8373  -5.7767  -5.7360  -5.6633
    -5.5916  -5.2444  -5.1704  -5.1236  -5.1000  -4.9554  -4.9020  -4.6210
    -4.5409  -4.5133  -4.4444  -4.3018  -4.2629  -4.1540  -4.1386  -3.9144
    -3.8162  -3.7366  -3.6044  -3.5966  -3.4189  -3.3803  -3.3723  -3.3277
    -3.1873  -3.1726  -3.1637  -3.0591  -2.9262  -2.8326  -2.7970  -2.7540
    -2.7254  -2.6720  -2.2866  -2.1662  -2.1058  -2.0009  -1.7425  -1.6004
    -1.3901  -1.2445  -1.1888  -1.1560  -1.0333  -0.9903  -0.9184   0.1295
     0.2149   0.7360   0.9760   1.1889   1.4806   1.5176   1.6925   1.7306
     1.8688   2.0157   2.1920   2.1957   3.8808   4.0158   4.4479   5.0554
     5.1070   5.2223   5.4759   5.6872   5.8224   6.0917   6.4859   6.5306
     6.5709   6.7734   7.0059   7.3244   7.3789   7.4102   7.5257   7.9802
     8.1069   8.1968   8.5989   8.6472   8.6890   8.7735   8.8419   8.9001
     8.9363   8.9608   9.0835   9.0923   9.1260   9.1771   9.1861   9.2555
     9.3299   9.3777   9.5131   9.5185   9.6233   9.7853   9.8552   9.9850
    10.0361  10.1523  10.2818  10.3849  10.4607  10.5247  10.6069  10.8016
    10.8786  10.9418  11.0612  11.0689  11.2457  11.3151  11.4046  11.4487
    11.5265  11.5561  11.7132  11.7956  11.9045  11.9260  12.0478  12.2384
    12.3078  12.3766  12.3926  12.4641  12.5970  12.7271  12.7618  12.8656
    12.9333  12.9741  12.9968  13.0530  13.1114  13.1492  13.2515  13.3119
    13.3588  13.3918  13.4652  13.4952  13.5935  13.7452  13.7916  13.8650
    13.9068  14.1167  14.1597  14.1970  14.2262  14.3202  14.4580  14.4912
    14.6321  14.6694  14.8544  14.9572  15.0989  15.1619  15.1880  15.2332
    15.3179  15.3674  15.4785  15.5105  15.5366  15.6205  15.7624  15.7955
    15.9123  15.9383  16.1200  16.1843  16.2702  16.2896  16.3131  16.3360
    16.3855  16.4373  16.4604  16.4880  16.5246  16.5943  16.7556  16.7860
    16.8658  16.9000  17.0363  17.0984  17.1849  17.2584  17.3894  17.4232
    17.4936  17.5308  17.5499  17.5998  17.6905  17.7821  17.8373  17.8712
    17.8810  17.9168  18.0192  18.1042  18.1600  18.2193  18.2596  18.2935
    18.3590  18.4674  18.4832  18.5718  18.6078  18.6383  18.7387  18.7968
    18.9132  19.1004  19.1932  19.3869  19.3976  19.5143  19.5552  19.5958
    19.6126  19.7087  19.8632  19.9322  20.0859  20.1339  20.2449  20.2678
    20.3013  20.3479  20.4021  20.4346  20.4888  20.5257  20.5408  20.5869
    20.6044  20.6231  20.6934  20.7317  20.7570  20.7914  20.8221  20.8691
    20.9228  21.0386  21.1743  21.1804  21.1927  21.2045  21.2409  21.4016
    21.4344  21.5224  21.5369  21.5862  21.5944  21.6199  21.6355  21.7273
    21.7806  21.9289  22.0416  22.1244  22.2208  22.2883

          k = 0.2500 0.0000 0.0000 ( 30502 PWs)   bands (ev):

   -49.5574 -49.4805 -49.4602 -49.4368 -49.4144 -49.3816 -49.3808 -49.3687
   -49.3319 -49.3096 -49.2650 -49.2478 -49.2461 -49.2290 -49.2237 -49.1621
   -49.1596 -49.1157 -49.0602 -49.0465 -49.0458 -49.0155 -49.0142 -48.9689
   -21.4594 -21.1422 -21.0287 -20.8581 -20.5785 -20.4241 -20.3722 -20.2974
   -20.1218 -20.1017 -20.0822 -20.0457 -19.9273 -19.9124 -19.7803 -19.7197
   -19.6795 -18.9339 -18.8236  -9.6940  -9.6764  -9.4406  -9.0374  -8.8225
    -8.7055  -8.6247  -8.5662  -8.5362  -8.4989  -8.4743  -8.3780  -8.1834
    -8.0817  -7.9149  -7.8719  -7.7550  -7.7298  -7.5554  -7.4616  -7.3615
    -7.2101  -7.1270  -6.9917  -6.6443  -6.5021  -6.3716  -6.2306  -6.1697
    -6.0458  -5.9232  -5.8915  -5.8239  -5.7512  -5.7145  -5.6750  -5.5167
    -5.3642  -5.2199  -5.0991  -5.0804  -4.9693  -4.9559  -4.8924  -4.7455
    -4.6829  -4.6510  -4.6122  -4.5321  -4.4810  -4.3556  -4.3145  -3.9744
    -3.7657  -3.6624  -3.6428  -3.5429  -3.4474  -3.4214  -3.3354  -3.2618
    -3.2136  -3.1438  -2.9302  -2.8852  -2.8028  -2.7457  -2.6549  -2.5543
    -2.3773  -2.3486  -2.2062  -2.1038  -2.0539  -1.8704  -1.8093  -1.7217
    -1.5928  -1.4599  -1.2700  -1.1176  -1.1036  -0.2441   0.2358   0.2776
     0.4767   0.4865   0.5275   0.6635   0.8330   0.9376   1.4763   1.5421
     1.5771   1.7288   1.7880   2.2616   3.3885   3.8176   4.4141   4.8380
     5.1837   5.2836   5.8179   5.9928   6.2631   6.3490   6.4173   6.7135
     7.0036   7.1397   7.3564   7.5143   7.6368   7.6481   7.7765   7.9396
     8.0045   8.1010   8.1312   8.3119   8.4015   8.4325   8.5379   8.6725
     8.7613   8.7867   8.8448   9.0986   9.1824   9.2498   9.3188   9.4338
     9.4792   9.5907   9.6402   9.7666   9.9478   9.9758  10.0561  10.1157
    10.1457  10.2618  10.2899  10.3565  10.4324  10.5414  10.5664  10.6417
    10.7805  10.8726  10.9408  10.9887  11.0343  11.0848  11.2222  11.2705
    11.3220  11.4139  11.5258  11.5977  11.6686  11.7616  11.9065  11.9227
    12.0762  12.1438  12.1772  12.2973  12.3899  12.4420  12.5289  12.5482
    12.6779  12.7954  12.8118  12.9020  13.0130  13.1964  13.2938  13.3734
    13.4070  13.5099  13.6490  13.6801  13.7947  13.8348  13.8692  13.8898
    13.9803  14.0414  14.0931  14.1524  14.2042  14.3010  14.3818  14.4270
    14.4851  14.5750  14.6593  14.6991  14.8319  14.9236  15.1263  15.2268
    15.2835  15.3479  15.3908  15.5055  15.5875  15.6078  15.6426  15.6987
    15.8204  15.8552  15.9782  16.0147  16.0450  16.0840  16.1744  16.2289
    16.3280  16.3667  16.4252  16.5033  16.6120  16.6838  16.8978  16.9460
    17.0022  17.1296  17.2050  17.2626  17.3197  17.4284  17.5396  17.6509
    17.7175  17.7574  17.8109  17.9263  18.0172  18.1114  18.1403  18.2157
    18.3290  18.4130  18.6131  18.6708  18.8011  18.8532  18.8885  18.9447
    19.0118  19.0653  19.0748  19.1232  19.2071  19.2851  19.3382  19.3660
    19.4245  19.4545  19.5009  19.5789  19.6016  19.6545  19.6975  19.7410
    19.7729  19.8075  19.8553  19.8846  19.9371  20.0268  20.0847  20.2601
    20.2729  20.3372  20.3777  20.4057  20.4585  20.4963  20.5360  20.5732
    20.6487  20.7091  20.7451  20.8032  20.8685  20.9042  20.9303  21.0066
    21.0630  21.1593  21.2021  21.2561  21.3246  21.3530  21.4319  21.5095
    21.5194  21.5963  21.6141  21.6970  21.7508  21.8446  21.9050  21.9771
    22.0576  22.0860  22.0992  22.1835  22.2194  22.2869

          k = 0.2500 0.2417 0.0000 ( 30481 PWs)   bands (ev):

   -49.5575 -49.4803 -49.4614 -49.4347 -49.4146 -49.3821 -49.3816 -49.3687
   -49.3321 -49.3094 -49.2650 -49.2462 -49.2458 -49.2292 -49.2229 -49.1642
   -49.1596 -49.1155 -49.0602 -49.0465 -49.0458 -49.0156 -49.0142 -48.9691
   -21.4202 -21.1394 -20.9503 -20.8148 -20.5618 -20.4179 -20.3598 -20.3146
   -20.1503 -20.1371 -20.1201 -20.0572 -19.9508 -19.9088 -19.8537 -19.7757
   -19.6806 -18.9346 -18.8210  -9.4994  -9.3044  -9.2480  -9.0706  -8.7607
    -8.6150  -8.5917  -8.5566  -8.5265  -8.4750  -8.4287  -8.3452  -8.2570
    -8.0484  -7.9825  -7.8116  -7.7589  -7.6969  -7.5128  -7.3909  -7.2499
    -7.1983  -7.1717  -7.0233  -6.6561  -6.4809  -6.3768  -6.3408  -6.1957
    -6.1216  -6.0739  -6.0355  -6.0161  -5.9697  -5.8580  -5.7345  -5.6744
    -5.6524  -5.5306  -5.3392  -5.2692  -5.2132  -4.9637  -4.8999  -4.8483
    -4.7329  -4.6143  -4.5643  -4.4181  -4.3587  -4.2787  -4.1324  -4.0024
    -3.7581  -3.6186  -3.5026  -3.4727  -3.3467  -3.1734  -3.1376  -3.0861
    -3.0410  -2.9970  -2.9499  -2.8821  -2.8330  -2.7774  -2.7025  -2.6549
    -2.6078  -2.5256  -2.3304  -2.1185  -1.8672  -1.8056  -1.6854  -1.6517
    -1.6093  -1.4634  -1.3436  -1.2671  -0.9415  -0.4163  -0.3205  -0.0142
     0.3092   0.4343   0.7750   0.9131   1.2542   1.3201   1.4614   1.4922
     1.6492   1.7932   1.8352   2.1955   3.6630   3.9796   4.6443   5.0327
     5.3759   5.4538   5.5693   5.9113   6.1989   6.4266   6.4897   6.5382
     6.5702   6.8555   6.9504   7.1640   7.2832   7.4700   7.5385   7.7153
     7.8743   7.9323   8.0400   8.1143   8.2039   8.3903   8.5283   8.5495
     8.6995   8.8197   8.8782   8.8990   9.1425   9.3092   9.4241   9.5604
     9.5882   9.7279   9.8226   9.8409   9.9533  10.0187  10.1082  10.2712
    10.3360  10.3690  10.4762  10.6212  10.6853  10.7730  10.8520  10.9179
    10.9833  11.0180  11.1506  11.2254  11.2875  11.3581  11.4846  11.5802
    11.6150  11.7048  11.7381  11.8279  11.8773  12.0078  12.0698  12.1538
    12.2164  12.2609  12.3270  12.4178  12.5059  12.5978  12.6374  12.6837
    12.7993  12.8371  12.9124  13.0380  13.0716  13.1665  13.1909  13.2494
    13.3109  13.3885  13.5225  13.5399  13.7666  13.7981  13.8264  13.8630
    13.9582  14.0229  14.1047  14.1492  14.2460  14.3266  14.3743  14.4794
    14.5801  14.6336  14.7266  14.8565  14.9895  15.0832  15.1759  15.2561
    15.3636  15.4304  15.4925  15.5528  15.5921  15.6374  15.7623  15.7877
    15.8593  15.9244  15.9927  16.0553  16.1025  16.1250  16.2452  16.2965
    16.3254  16.3563  16.4200  16.4891  16.5425  16.6207  16.6496  16.7102
    16.8080  16.8469  16.9063  16.9566  17.0949  17.2052  17.2615  17.2756
    17.3757  17.4028  17.5067  17.5388  17.6026  17.7000  17.7932  17.8376
    17.8714  17.9306  18.0576  18.1208  18.1318  18.2324  18.2790  18.3387
    18.4302  18.5408  18.6383  18.6881  18.7197  18.7986  18.8460  18.9138
    18.9756  19.0331  19.1130  19.1821  19.2016  19.2492  19.3294  19.4661
    19.5342  19.5865  19.6323  19.6845  19.7984  19.8793  19.9225  20.0897
    20.1241  20.2278  20.2819  20.4296  20.4888  20.5365  20.5818  20.6867
    20.7159  20.7317  20.8775  20.9388  20.9547  21.0295  21.1154  21.1565
    21.2405  21.2942  21.3252  21.3910  21.4265  21.4713  21.6061  21.6542
    21.7396  21.8159  21.8699  21.8870  21.9102  21.9461  22.0370  22.1217
    22.1916  22.3177  22.3499  22.4664  22.4758  22.5425

          k = 0.2500-0.4833 0.0000 ( 30510 PWs)   bands (ev):

   -49.5574 -49.4804 -49.4622 -49.4329 -49.4150 -49.3835 -49.3815 -49.3687
   -49.3319 -49.3094 -49.2650 -49.2454 -49.2450 -49.2294 -49.2221 -49.1661
   -49.1601 -49.1154 -49.0602 -49.0465 -49.0458 -49.0155 -49.0142 -48.9694
   -21.3812 -21.1365 -20.8175 -20.7927 -20.5471 -20.3517 -20.3441 -20.3283
   -20.3006 -20.1782 -20.1551 -20.0684 -19.9720 -19.9416 -19.8947 -19.8016
   -19.6817 -18.9352 -18.8189  -9.4643  -9.0916  -8.8012  -8.6930  -8.6010
    -8.5927  -8.5663  -8.5073  -8.4913  -8.4604  -8.3625  -8.3464  -8.3024
    -8.1729  -8.0054  -7.8006  -7.7659  -7.6648  -7.4771  -7.3349  -7.2372
    -7.1170  -6.9704  -6.9090  -6.8523  -6.8045  -6.7779  -6.5828  -6.4320
    -6.3126  -6.2193  -6.1896  -6.0976  -6.0521  -5.9839  -5.8748  -5.8135
    -5.7648  -5.6284  -5.5813  -5.3667  -5.0701  -5.0161  -4.9396  -4.8542
    -4.7069  -4.5070  -4.4363  -4.3396  -4.2605  -4.0507  -3.9907  -3.8887
    -3.8103  -3.7792  -3.5919  -3.4092  -3.3276  -3.2142  -3.1050  -3.0847
    -3.0308  -3.0150  -2.9433  -2.8935  -2.8428  -2.7490  -2.6539  -2.5409
    -2.4111  -2.3301  -2.2048  -2.1310  -2.0512  -1.8437  -1.8184  -1.6440
    -1.5378  -1.3881  -1.3776  -1.2865  -0.8896  -0.7797  -0.7766   0.1429
     0.3389   0.6786   0.7163   0.9092   1.0317   1.2826   1.6939   1.7287
     1.7482   1.9306   1.9427   2.1101   4.1527   4.2160   4.7205   5.3024
     5.3544   5.4801   5.7114   5.7407   5.9433   6.0797   6.3714   6.4692
     6.5193   6.7971   7.0108   7.0885   7.1916   7.2228   7.3017   7.4139
     7.5733   7.7950   7.8430   7.9381   8.1916   8.2286   8.3445   8.4077
     8.5224   8.5894   8.7645   8.9222   9.0151   9.1229   9.3970   9.4746
     9.5512   9.7263   9.9296  10.0275  10.1000  10.1360  10.3472  10.5138
    10.6342  10.7118  10.7490  10.8748  10.9814  11.0886  11.1383  11.2092
    11.2695  11.3065  11.3622  11.4484  11.5059  11.5529  11.6240  11.6851
    11.8341  11.8776  12.0186  12.0461  12.0660  12.1723  12.2418  12.3578
    12.4420  12.5350  12.5843  12.6531  12.7142  12.7591  12.8241  12.8781
    12.9250  12.9981  13.1013  13.1429  13.1978  13.2390  13.3061  13.3537
    13.4486  13.4656  13.5567  13.6171  13.7181  13.7763  13.8105  13.9340
    13.9770  14.1063  14.1646  14.2685  14.3941  14.4242  14.4929  14.5327
    14.5678  14.5976  14.6107  14.6754  14.7273  14.8639  14.8909  14.9545
    14.9894  15.0603  15.1050  15.2494  15.2761  15.3146  15.4656  15.5222
    15.5629  15.6327  15.7582  15.8920  15.9710  16.0266  16.0472  16.1451
    16.1818  16.2353  16.3817  16.4331  16.5055  16.5912  16.6581  16.7050
    16.7523  16.8744  16.9276  16.9686  17.0298  17.0821  17.1618  17.2033
    17.2412  17.2949  17.3673  17.3975  17.4496  17.5219  17.6374  17.7245
    17.8018  17.8403  17.8960  17.9587  18.0206  18.1237  18.2151  18.2970
    18.3603  18.4094  18.4420  18.4976  18.5460  18.5819  18.6544  18.6584
    18.7343  18.8349  18.9069  18.9712  19.0315  19.0630  19.0797  19.1207
    19.2607  19.3447  19.4343  19.5023  19.6140  19.6885  19.7182  19.7820
    19.8226  19.8592  19.9203  19.9518  20.0670  20.1515  20.2600  20.4194
    20.4963  20.5359  20.5861  20.6450  20.7603  20.7958  20.8624  20.9535
    20.9794  21.1009  21.1859  21.2460  21.3085  21.4199  21.4721  21.5649
    21.6963  21.7413  21.8647  21.9065  21.9415  21.9978  22.0880  22.1211
    22.1796  22.2352  22.3091  22.3429  22.5273  22.6304

          k =-0.5000 0.0000 0.0000 ( 30524 PWs)   bands (ev):

   -49.5574 -49.4799 -49.4609 -49.4280 -49.3864 -49.3817 -49.3807 -49.3654
   -49.3620 -49.2753 -49.2657 -49.2642 -49.2542 -49.2468 -49.2262 -49.1612
   -49.1601 -49.0872 -49.0807 -49.0445 -49.0370 -49.0323 -49.0168 -48.9690
   -21.2725 -21.2583 -20.8451 -20.7875 -20.6484 -20.6011 -20.4421 -20.3354
   -20.1294 -19.9881 -19.9773 -19.9471 -19.9387 -19.9002 -19.8678 -19.7892
   -19.7809 -18.9447 -18.8975  -9.3094  -9.2939  -9.2330  -9.1954  -9.1310
    -9.1162  -8.7179  -8.5538  -8.4336  -8.4282  -8.3840  -8.3482  -8.2189
    -8.2102  -8.0426  -7.7129  -7.6952  -7.5388  -7.3379  -7.2334  -6.9654
    -6.9269  -6.8553  -6.8100  -6.7861  -6.7525  -6.6624  -6.4593  -6.4487
    -6.2795  -6.2158  -6.0987  -6.0160  -5.7973  -5.6722  -5.6265  -5.5769
    -5.5401  -5.4547  -5.4081  -5.3612  -5.1141  -5.0860  -4.9072  -4.8933
    -4.8139  -4.7456  -4.5740  -4.5581  -4.3743  -4.3127  -4.1239  -3.9244
    -3.7604  -3.7349  -3.7256  -3.3303  -3.3023  -3.2884  -3.2747  -3.2346
    -3.1505  -3.0784  -2.9335  -2.6288  -2.5433  -2.5090  -2.4360  -2.3653
    -2.3154  -2.2914  -2.1528  -1.9339  -1.9174  -1.8477  -1.8406  -1.7781
    -1.6638  -1.6343  -1.4237  -1.3888  -0.9633   0.0257   0.2935   0.3188
     0.4750   0.6857   0.8932   0.9026   0.9168   0.9361   0.9458   0.9779
     0.9903   1.6510   1.8277   1.9675   4.2018   4.2075   4.2561   5.1068
     5.1540   5.2165   5.5383   5.6811   5.9302   6.0535   6.5383   6.6929
     6.7917   6.9380   7.0509   7.1926   7.6627   7.7794   7.8858   8.0408
     8.0611   8.2396   8.2895   8.5691   8.6162   8.7257   8.7558   8.7692
     8.8233   8.8493   9.0361   9.0744   9.1197   9.1863   9.2931   9.3035
     9.3781   9.4651   9.6764   9.6991   9.7246   9.7348   9.8552   9.9176
     9.9456  10.0294  10.0945  10.1493  10.2345  10.2854  10.3322  10.5244
    10.8257  10.8854  10.8947  11.1313  11.3611  11.4107  11.5058  11.5198
    11.6014  11.6793  11.7101  11.8069  11.9798  12.0324  12.0844  12.1695
    12.3217  12.3885  12.5600  12.5718  12.6252  12.6376  12.7871  12.8312
    13.0072  13.0190  13.0782  13.1283  13.2389  13.2840  13.3754  13.4677
    13.4755  13.5225  13.5694  13.6299  13.6883  13.7686  13.8885  13.9290
    13.9725  14.0932  14.1684  14.2036  14.2480  14.3245  14.4283  14.5537
    14.6127  14.7534  14.8201  14.8595  14.9833  15.0338  15.0907  15.1111
    15.1662  15.2081  15.3143  15.4219  15.5953  15.9066  15.9758  16.0151
    16.0916  16.1130  16.1430  16.2613  16.3357  16.3666  16.4008  16.4337
    16.4663  16.5038  16.5681  16.6360  16.7090  16.7142  16.7364  16.7654
    16.7908  16.8171  16.8659  16.9033  17.1027  17.1726  17.2710  17.4245
    17.4307  17.5066  17.6437  17.6708  17.6983  17.8452  17.8734  17.9538
    17.9987  18.1682  18.2813  18.3389  18.3625  18.4381  18.4895  18.4970
    18.5474  18.6617  18.6978  18.7566  18.8919  18.9427  19.0086  19.1192
    19.1682  19.2004  19.2436  19.2951  19.3747  19.4301  19.4499  19.5191
    19.6592  19.6899  19.7153  19.7361  19.7921  19.8409  19.8859  19.9827
    20.0368  20.1007  20.1297  20.1422  20.2749  20.2787  20.3139  20.3523
    20.3701  20.4043  20.4810  20.5057  20.5449  20.6507  20.6879  20.8559
    20.9078  20.9594  20.9734  21.0420  21.0693  21.1096  21.1498  21.2062
    21.2711  21.2938  21.3284  21.3437  21.3647  21.3808  21.4283  21.4570
    21.7490  21.8072  21.8922  21.9592  22.0219  22.0714

          k =-0.5000 0.2417 0.0000 ( 30500 PWs)   bands (ev):

   -49.5574 -49.4798 -49.4610 -49.4268 -49.3865 -49.3820 -49.3818 -49.3656
   -49.3621 -49.2752 -49.2656 -49.2643 -49.2541 -49.2457 -49.2247 -49.1622
   -49.1613 -49.0872 -49.0806 -49.0445 -49.0370 -49.0323 -49.0168 -48.9692
   -21.2582 -21.2420 -20.7787 -20.7265 -20.5886 -20.5337 -20.4418 -20.3293
   -20.1659 -20.0844 -20.0509 -20.0087 -19.9898 -19.9292 -19.9195 -19.7782
   -19.7677 -18.9440 -18.8962  -9.2096  -9.1875  -8.9699  -8.9236  -8.9157
    -8.9035  -8.7040  -8.5416  -8.4455  -8.4297  -8.2679  -8.2312  -8.1462
    -8.1016  -8.0181  -7.7916  -7.7483  -7.5702  -7.2669  -7.2206  -7.1811
    -7.1088  -7.0415  -6.9630  -6.9318  -6.8119  -6.6717  -6.5018  -6.4369
    -6.3810  -6.3263  -6.1192  -5.9944  -5.9076  -5.7994  -5.7593  -5.7323
    -5.6811  -5.6449  -5.5562  -5.5272  -5.3892  -5.2527  -4.9787  -4.8928
    -4.7739  -4.7424  -4.6130  -4.5072  -4.3643  -4.3054  -3.9903  -3.8598
    -3.7863  -3.7177  -3.6698  -3.3177  -3.2080  -3.0403  -3.0057  -2.9279
    -2.8765  -2.8418  -2.8167  -2.7671  -2.6983  -2.6004  -2.5716  -2.4572
    -2.2660  -2.1569  -2.1192  -1.9282  -1.9109  -1.8404  -1.8124  -1.7849
    -1.7113  -1.6905  -1.5234  -1.4793  -0.8360   0.0347   0.1942   0.2267
     0.2369   0.3445   0.5305   0.6757   0.7261   1.0746   1.2410   1.4182
     1.4782   1.6194   1.9037   2.0603   4.3620   4.4225   4.4370   5.3229
     5.3743   5.4303   5.7203   5.8489   6.0510   6.1555   6.3255   6.4064
     6.6312   6.8572   7.0916   7.1160   7.1504   7.2044   7.2378   7.3208
     7.6427   7.7267   7.8998   7.9816   8.1633   8.2683   8.3767   8.5320
     8.6459   8.6624   8.8427   8.9729   9.0795   9.2393   9.4446   9.5369
     9.7415   9.7802   9.8571   9.9789  10.0637  10.1320  10.2746  10.2981
    10.3835  10.4895  10.6455  10.6863  10.7765  10.8316  10.8512  10.9955
    11.2269  11.2536  11.3291  11.4267  11.4856  11.5342  11.5994  11.7270
    11.8379  11.8727  11.9939  12.0528  12.1508  12.1996  12.2588  12.3378
    12.4545  12.5330  12.5575  12.7345  12.7795  12.8012  12.9791  13.0397
    13.0881  13.1776  13.2016  13.2346  13.3166  13.3832  13.4299  13.5010
    13.5765  13.6483  13.7087  13.8061  13.8430  13.8740  13.9660  14.0308
    14.1109  14.2031  14.2850  14.3146  14.3303  14.3766  14.4526  14.4921
    14.5020  14.5950  14.6899  14.7613  14.8846  14.9109  14.9827  14.9991
    15.0338  15.1094  15.1395  15.2331  15.2933  15.3575  15.3791  15.4976
    15.5159  15.5565  15.6961  15.7656  15.9348  15.9703  16.0572  16.1851
    16.2229  16.2399  16.3306  16.3910  16.4324  16.4682  16.5032  16.5371
    16.5667  16.6687  16.6966  16.8033  16.8869  16.9802  17.0139  17.0800
    17.1265  17.1854  17.3053  17.3425  17.4564  17.5528  17.6505  17.7176
    17.7249  17.8285  17.8646  17.9463  18.0310  18.0903  18.2137  18.3882
    18.4120  18.4839  18.5249  18.5552  18.5788  18.6291  18.6995  18.7774
    18.8321  18.8727  18.9668  19.0162  19.0750  19.1515  19.2220  19.2691
    19.3828  19.4341  19.4698  19.5240  19.5466  19.6626  19.7258  19.7513
    19.8323  19.8959  19.9446  20.1540  20.2240  20.2903  20.3673  20.3975
    20.4256  20.5210  20.5950  20.6635  20.7531  20.7940  20.8874  20.9523
    21.0909  21.1285  21.2984  21.3523  21.4812  21.5069  21.5359  21.5976
    21.6736  21.7235  21.8246  21.8675  21.9515  22.0192  22.0532  22.1236
    22.1692  22.2331  22.3016  22.3389  22.3995  22.4773

          k =-0.5000-0.4833 0.0000 ( 30496 PWs)   bands (ev):

   -49.5574 -49.4798 -49.4611 -49.4256 -49.3865 -49.3833 -49.3820 -49.3657
   -49.3622 -49.2750 -49.2654 -49.2643 -49.2541 -49.2447 -49.2234 -49.1632
   -49.1625 -49.0871 -49.0805 -49.0445 -49.0369 -49.0323 -49.0168 -48.9694
   -21.2447 -21.2265 -20.6800 -20.6229 -20.5273 -20.5247 -20.3179 -20.2711
   -20.2595 -20.2295 -20.1937 -20.1436 -20.0484 -19.9280 -19.9197 -19.7748
   -19.7640 -18.9436 -18.8950  -9.1732  -9.1453  -8.7727  -8.5837  -8.5230
    -8.5057  -8.4877  -8.4813  -8.4374  -8.4316  -8.1605  -8.0411  -8.0092
    -7.9881  -7.9243  -7.8466  -7.8446  -7.7714  -7.5629  -7.5442  -7.4884
    -7.2090  -6.9968  -6.9844  -6.9049  -6.7111  -6.6463  -6.4744  -6.4456
    -6.4138  -6.3797  -6.3438  -6.3020  -6.2920  -6.2527  -6.0836  -6.0305
    -5.9843  -5.8423  -5.6897  -5.6490  -5.2065  -5.1105  -4.9939  -4.8526
    -4.6980  -4.5768  -4.5567  -4.3966  -4.3240  -4.2436  -3.9782  -3.8215
    -3.7336  -3.4798  -3.4098  -3.2890  -3.2577  -3.2349  -3.0560  -2.9357
    -2.9195  -2.8382  -2.8197  -2.6281  -2.5321  -2.4726  -2.4445  -2.4226
    -2.1627  -2.0518  -2.0341  -1.9198  -1.8623  -1.8580  -1.8188  -1.8015
    -1.7544  -1.6404  -1.5986  -1.5916  -0.7475  -0.2032  -0.1402  -0.1358
    -0.0603   0.2494   0.5642   0.7426   0.7516   1.3047   1.4520   1.4684
     1.6682   1.8651   1.9624   1.9738   4.5104   4.8148   4.8249   5.4484
     5.4514   5.8034   5.9889   6.0394   6.0509   6.1060   6.1665   6.2823
     6.4143   6.5125   6.6449   6.7444   6.8074   6.9296   7.1142   7.2356
     7.4168   7.5353   7.6862   7.7221   7.8186   7.8518   7.9724   8.1274
     8.4397   8.5314   8.8825   9.0368   9.1184   9.2281   9.3038   9.3426
     9.5143   9.5898  10.0338  10.1579  10.2573  10.2764  10.5186  10.7215
    10.7625  10.8210  10.9343  11.1625  11.1798  11.2739  11.2904  11.3792
    11.4251  11.5524  11.5731  11.7424  11.9421  11.9758  12.0526  12.2500
    12.3039  12.4686  12.5277  12.6016  12.6615  12.7264  12.7433  12.8413
    12.8630  12.9035  12.9239  12.9532  13.0546  13.2027  13.2412  13.2680
    13.3220  13.3651  13.3772  13.5170  13.5345  13.5838  13.6083  13.6474
    13.6573  13.6704  13.7171  13.7336  13.7942  13.8524  13.8593  13.8995
    14.0433  14.0817  14.0973  14.1097  14.1564  14.1656  14.1854  14.2911
    14.3736  14.4015  14.4092  14.4296  14.4774  14.5976  14.6312  14.7414
    14.8394  14.8611  14.9089  15.0084  15.0901  15.1321  15.1720  15.2284
    15.2460  15.2957  15.3393  15.3537  15.4062  15.4507  15.5730  15.6709
    15.7327  15.7714  15.8300  15.8828  15.9765  15.9870  16.0339  16.1179
    16.1780  16.2837  16.4093  16.4546  16.4825  16.6101  16.6439  16.6919
    16.7452  16.9212  16.9365  16.9906  17.0473  17.1545  17.1923  17.3512
    17.4761  17.5925  17.7116  17.7543  17.7993  17.9896  18.0534  18.0728
    18.1417  18.1663  18.1898  18.2891  18.3281  18.5068  18.5919  18.6483
    18.8038  19.0374  19.1563  19.2334  19.3146  19.3261  19.4108  19.4789
    19.5165  19.5856  19.7348  19.7991  20.1119  20.1505  20.1568  20.2286
    20.2803  20.3718  20.3897  20.5570  20.6976  20.7202  20.7583  20.8589
    20.8721  20.9060  21.0287  21.0662  21.1632  21.1662  21.1957  21.2345
    21.2482  21.3255  21.3634  21.4552  21.5241  21.5468  21.5536  21.5634
    21.5977  21.6203  21.6831  21.7002  21.7469  21.8701  21.9257  21.9475
    21.9808  22.0130  22.0631  22.2366  22.2654  22.3419

          k =-0.2500 0.2417 0.0000 ( 30481 PWs)   bands (ev):

   -49.5575 -49.4803 -49.4614 -49.4347 -49.4148 -49.3821 -49.3816 -49.3687
   -49.3318 -49.3094 -49.2650 -49.2466 -49.2458 -49.2292 -49.2228 -49.1638
   -49.1599 -49.1155 -49.0602 -49.0465 -49.0458 -49.0156 -49.0142 -48.9691
   -21.4204 -21.1392 -20.9501 -20.8147 -20.5618 -20.4176 -20.3592 -20.3142
   -20.1501 -20.1416 -20.1194 -20.0576 -19.9502 -19.9061 -19.8542 -19.7761
   -19.6806 -18.9346 -18.8210  -9.4998  -9.3033  -9.2472  -9.0707  -8.7513
    -8.6468  -8.5793  -8.5526  -8.5214  -8.4643  -8.4313  -8.3447  -8.2667
    -8.0956  -7.9330  -7.8384  -7.7288  -7.7074  -7.5574  -7.3734  -7.2507
    -7.1761  -7.1160  -7.0109  -6.6461  -6.5013  -6.4270  -6.3397  -6.1970
    -6.1566  -6.0996  -6.0588  -6.0061  -5.9198  -5.8640  -5.7229  -5.6828
    -5.6367  -5.5228  -5.3308  -5.2322  -5.1584  -5.0569  -4.9242  -4.8313
    -4.7313  -4.6627  -4.5374  -4.4294  -4.3799  -4.2415  -4.1407  -3.9625
    -3.7719  -3.6050  -3.5090  -3.4318  -3.3118  -3.1721  -3.1640  -3.0954
    -3.0661  -3.0491  -2.9153  -2.8997  -2.8312  -2.7703  -2.7343  -2.6597
    -2.5938  -2.5142  -2.2973  -2.1279  -1.8639  -1.8088  -1.6889  -1.6576
    -1.6102  -1.4517  -1.3474  -1.2680  -0.9421  -0.4200  -0.3202  -0.0137
     0.3095   0.4362   0.7750   0.9134   1.2466   1.3242   1.4622   1.4977
     1.6480   1.7922   1.8320   2.1976   3.6588   3.9798   4.6446   5.0368
     5.3907   5.4726   5.5727   5.9102   6.2061   6.4141   6.4886   6.5240
     6.5738   6.8196   6.9474   7.1429   7.2851   7.4914   7.5356   7.7049
     7.8664   7.9404   8.0626   8.1171   8.2046   8.3855   8.4496   8.5635
     8.7585   8.8103   8.8728   8.9504   9.1006   9.2772   9.4811   9.5632
     9.6012   9.7273   9.7875   9.8456   9.9509  10.0263  10.1861  10.2171
    10.3475  10.3742  10.4348  10.5703  10.7070  10.7503  10.8414  10.9310
    10.9837  11.0602  11.1657  11.2229  11.3148  11.3599  11.4976  11.5796
    11.5941  11.6755  11.7346  11.8137  11.9133  12.0409  12.0836  12.1580
    12.2241  12.2621  12.3299  12.4097  12.5164  12.5979  12.6504  12.7213
    12.7798  12.8331  12.9248  13.0040  13.0835  13.1603  13.1908  13.2828
    13.3069  13.3694  13.4807  13.5509  13.7091  13.8000  13.8317  13.8634
    13.9439  14.0538  14.1131  14.1572  14.2491  14.3249  14.3927  14.4463
    14.5848  14.6146  14.7056  14.8126  14.9765  15.0889  15.1730  15.3077
    15.3728  15.4155  15.5083  15.5638  15.5869  15.6118  15.7121  15.7770
    15.8353  15.8679  15.9610  16.0658  16.0893  16.1411  16.1992  16.3012
    16.3350  16.4178  16.4325  16.4810  16.5210  16.5944  16.6193  16.7233
    16.7569  16.8608  16.9434  17.0123  17.1112  17.2122  17.2412  17.2833
    17.3796  17.4375  17.5140  17.5313  17.5996  17.6665  17.7688  17.8626
    17.8901  17.9693  18.0574  18.1285  18.1406  18.2616  18.2932  18.3391
    18.4576  18.5381  18.6198  18.6842  18.7454  18.8152  18.8326  18.9374
    19.0074  19.0514  19.1037  19.1451  19.2249  19.2683  19.3254  19.4628
    19.5386  19.5932  19.6438  19.7062  19.7837  19.8679  19.9532  20.0641
    20.1534  20.2266  20.2712  20.3753  20.5011  20.5421  20.5855  20.6693
    20.7147  20.7842  20.8333  20.8980  20.9962  21.0493  21.1638  21.1818
    21.2377  21.2889  21.3170  21.3905  21.4128  21.4819  21.5490  21.6914
    21.7463  21.8231  21.8715  21.8946  21.9350  21.9753  22.0514  22.1224
    22.1695  22.2607  22.3844  22.4338  22.4946  22.5224

 ------ SPIN DOWN ----------


          k = 0.0000 0.0000 0.0000 ( 30479 PWs)   bands (ev):

   -49.5575 -49.4810 -49.4595 -49.4449 -49.4300 -49.3822 -49.3809 -49.3685
   -49.3254 -49.3174 -49.2649 -49.2483 -49.2379 -49.2214 -49.2126 -49.1629
   -49.1592 -49.1295 -49.0537 -49.0502 -49.0470 -49.0143 -49.0026 -48.9689
   -21.5495 -21.1259 -21.1109 -20.9429 -20.4814 -20.4022 -20.2822 -20.2250
   -20.1615 -20.1509 -20.1122 -20.1089 -19.9621 -19.9247 -19.7120 -19.6500
   -19.6497 -18.9030 -18.7711  -9.8623  -9.8508  -9.5776  -8.9376  -8.7669
    -8.7163  -8.6245  -8.5442  -8.5438  -8.5383  -8.3839  -8.2310  -8.1819
    -8.1275  -8.0197  -8.0001  -7.8847  -7.8580  -7.7026  -7.5798  -7.3515
    -7.1700  -7.0623  -6.9593  -6.6507  -6.5557  -6.5355  -6.4876  -6.0797
    -5.8534  -5.8130  -5.7105  -5.6831  -5.4219  -5.3881  -5.3626  -5.3258
    -5.2160  -5.1995  -5.1642  -4.9832  -4.9623  -4.7848  -4.6931  -4.6722
    -4.6385  -4.5147  -4.4776  -4.3858  -4.3047  -4.2192  -4.0717  -3.8945
    -3.8872  -3.8658  -3.7541  -3.7033  -3.6537  -3.5513  -3.3903  -3.3429
    -3.2807  -3.2295  -3.1625  -3.1231  -3.0641  -3.0464  -2.8117  -2.6895
    -2.5628  -2.4347  -2.3472  -2.1610  -2.1553  -1.9075  -1.6498  -1.5838
    -1.5552  -1.3352  -1.2811  -1.0979  -0.9853  -0.3812   0.1537   0.1710
     0.3340   0.3407   0.5040   0.6514   0.8351   1.1951   1.4793   1.7730
     1.8515   1.9071   2.1906   2.3726   3.0464   3.5432   4.1616   4.5972
     4.9134   5.7200   5.7850   6.0814   6.2179   6.6675   6.8844   7.0289
     7.1203   7.3778   7.4770   7.7370   7.7770   7.8716   7.9440   7.9703
     8.0471   8.0746   8.1254   8.2141   8.2850   8.3088   8.3961   8.4649
     8.5292   8.6503   8.7067   8.8090   8.9706   9.0096   9.1096   9.2086
     9.3098   9.4591   9.5028   9.5587   9.6844   9.7486   9.9858  10.0688
    10.2896  10.3922  10.5153  10.5508  10.6811  10.7468  10.8186  10.8604
    10.9532  11.0321  11.1005  11.1841  11.2374  11.3007  11.4057  11.5233
    11.6449  11.6720  11.6970  11.7195  11.7370  11.7590  11.8604  11.9495
    11.9888  12.0328  12.0818  12.1188  12.1782  12.1916  12.2842  12.3762
    12.4110  12.4750  12.5490  12.5979  12.7192  12.7735  12.7815  12.8424
    12.8751  13.0122  13.0833  13.2628  13.3770  13.4525  13.5699  13.6263
    13.6702  13.7216  13.8051  13.9248  13.9797  14.1049  14.2030  14.2276
    14.3151  14.3891  14.5533  14.5708  14.7353  14.8445  15.0305  15.0895
    15.2032  15.2320  15.3282  15.4706  15.5378  15.6405  15.6858  15.7776
    15.8075  15.8331  15.9211  15.9630  16.2230  16.2793  16.4514  16.5685
    16.6468  16.6789  16.8062  16.9393  16.9903  17.0028  17.0883  17.1381
    17.2030  17.3972  17.4747  17.5429  17.6058  17.7057  17.8170  17.8772
    18.0433  18.0765  18.1683  18.2433  18.2862  18.3819  18.4046  18.4335
    18.4684  18.5239  18.6690  18.7026  18.7298  18.8158  18.9218  18.9627
    19.0245  19.1098  19.2061  19.2189  19.2676  19.3374  19.4518  19.5410
    19.5497  19.5825  19.6339  19.6808  19.7574  19.7831  19.8612  19.9159
    19.9302  19.9552  20.0604  20.1001  20.1573  20.1740  20.2642  20.4274
    20.4587  20.5066  20.5607  20.5841  20.6471  20.7912  20.8967  21.0186
    21.0578  21.0712  21.1363  21.2503  21.3835  21.4650  21.4888  21.5132
    21.6068  21.6360  21.6816  21.7594  21.8124  21.8840  21.8985  22.0457
    22.1308  22.2225  22.2734  22.3451  22.3639  22.4017  22.4525  22.4929
    22.4998  22.5155  22.5257  22.5802  22.6392  22.7313

          k = 0.0000 0.2417 0.0000 ( 30538 PWs)   bands (ev):

   -49.5575 -49.4809 -49.4623 -49.4414 -49.4305 -49.3824 -49.3820 -49.3686
   -49.3254 -49.3172 -49.2649 -49.2467 -49.2376 -49.2213 -49.2128 -49.1651
   -49.1591 -49.1295 -49.0538 -49.0502 -49.0471 -49.0144 -49.0027 -48.9691
   -21.5004 -21.1169 -21.0350 -20.9122 -20.4833 -20.4039 -20.3636 -20.3231
   -20.2001 -20.1267 -20.0628 -20.0266 -19.9810 -19.9270 -19.7920 -19.7275
   -19.6503 -18.9033 -18.7680  -9.6448  -9.4608  -9.3960  -9.0816  -8.7660
    -8.7321  -8.5713  -8.5573  -8.5430  -8.4969  -8.4527  -8.2441  -8.1708
    -8.1597  -8.0926  -8.0036  -7.9858  -7.7452  -7.5854  -7.3612  -7.2028
    -7.0782  -6.9942  -6.6948  -6.6029  -6.5395  -6.5058  -6.4436  -6.3971
    -6.2253  -6.1634  -5.9483  -5.7003  -5.6200  -5.5774  -5.5339  -5.4448
    -5.3081  -5.2237  -5.1752  -5.1414  -5.0540  -4.9268  -4.8768  -4.7552
    -4.6589  -4.6086  -4.4949  -4.4254  -4.3305  -4.1420  -4.0964  -3.9198
    -3.8494  -3.5927  -3.4697  -3.4236  -3.3865  -3.3391  -3.2992  -3.2570
    -3.1996  -3.1719  -3.1556  -3.1121  -3.0773  -3.0260  -2.9699  -2.9289
    -2.7940  -2.7280  -2.3664  -2.1753  -2.1428  -1.7058  -1.6014  -1.5670
    -1.4519  -1.2955  -1.2398  -1.1265  -1.0304  -0.6522  -0.5469  -0.1109
     0.1872   0.4204   0.8942   1.1906   1.3764   1.5370   1.6705   1.7197
     1.7281   1.8204   2.1924   2.2215   3.3425   3.7275   4.3933   4.7980
     5.1344   5.2876   5.7677   5.9987   6.2003   6.2795   6.3788   6.6781
     6.9846   7.0147   7.1587   7.2468   7.5625   7.6094   7.7836   7.8548
     8.1431   8.1948   8.2560   8.3180   8.4574   8.5180   8.6518   8.7282
     8.8597   8.9063   9.0203   9.0716   9.1360   9.2472   9.3174   9.4952
     9.5558   9.5872   9.6291   9.7429   9.8055   9.8254   9.9824  10.0517
    10.1405  10.1537  10.2872  10.3381  10.4305  10.4387  10.5870  10.7158
    10.7596  10.8263  10.8588  10.9153  10.9913  11.2054  11.2282  11.2903
    11.3640  11.4361  11.5125  11.5963  11.8034  11.9179  11.9720  12.0677
    12.1845  12.2033  12.2543  12.3123  12.3496  12.4152  12.5537  12.6095
    12.6700  12.8403  12.8596  12.9284  12.9755  13.0859  13.1848  13.2893
    13.4733  13.5721  13.5896  13.6652  13.7494  13.7671  13.8261  13.8546
    13.9331  13.9836  14.0740  14.1153  14.1543  14.2152  14.3488  14.4116
    14.4443  14.5525  14.5984  14.7374  14.7626  14.8682  14.9220  15.1582
    15.1918  15.2295  15.2729  15.3152  15.5035  15.5287  15.6026  15.7297
    15.7980  15.8421  15.8883  15.9253  15.9873  16.0902  16.1692  16.3079
    16.3389  16.4602  16.5178  16.6019  16.6883  16.7739  16.8998  16.9372
    16.9910  17.0658  17.1267  17.1393  17.2614  17.3426  17.4603  17.5007
    17.7511  17.8393  17.9499  18.0009  18.0323  18.0824  18.2370  18.3376
    18.3779  18.3975  18.4663  18.4960  18.5956  18.6831  18.7586  18.8091
    18.9057  18.9442  19.0696  19.0967  19.1653  19.2224  19.2970  19.3470
    19.4244  19.4517  19.5431  19.5646  19.6343  19.6894  19.7252  19.7923
    19.8789  19.9276  19.9537  19.9870  20.0340  20.0758  20.0888  20.1827
    20.2622  20.3141  20.4042  20.4293  20.4702  20.5176  20.6118  20.6609
    20.7773  20.8636  20.9166  20.9894  21.0189  21.0792  21.1005  21.1582
    21.2081  21.2423  21.3177  21.3702  21.4121  21.5370  21.5803  21.6659
    21.6926  21.7366  21.8138  21.8655  21.9317  21.9691  22.0148  22.0759
    22.1056  22.2708  22.3298  22.3428  22.4083  22.4473

          k = 0.0000-0.4833 0.0000 ( 30492 PWs)   bands (ev):

   -49.5575 -49.4809 -49.4636 -49.4387 -49.4308 -49.3837 -49.3821 -49.3686
   -49.3252 -49.3170 -49.2649 -49.2449 -49.2373 -49.2208 -49.2129 -49.1675
   -49.1589 -49.1292 -49.0537 -49.0501 -49.0470 -49.0143 -49.0027 -48.9692
   -21.4490 -21.1147 -20.9211 -20.8791 -20.4866 -20.4156 -20.3811 -20.3578
   -20.3363 -20.1453 -20.0152 -19.9930 -19.9756 -19.9247 -19.8878 -19.7761
   -19.6508 -18.9036 -18.7656  -9.6068  -9.1989  -8.9346  -8.8446  -8.8061
    -8.7293  -8.6552  -8.5363  -8.5131  -8.4386  -8.3118  -8.2905  -8.1575
    -8.1253  -8.0449  -8.0045  -7.9474  -7.7804  -7.5280  -7.2601  -7.2220
    -7.1749  -7.0628  -7.0111  -6.8997  -6.6489  -6.4701  -6.3826  -6.3225
    -6.2495  -6.0592  -6.0318  -5.9580  -5.8373  -5.7767  -5.7360  -5.6633
    -5.5916  -5.2444  -5.1704  -5.1236  -5.1000  -4.9554  -4.9020  -4.6209
    -4.5409  -4.5133  -4.4444  -4.3018  -4.2629  -4.1540  -4.1386  -3.9144
    -3.8162  -3.7366  -3.6044  -3.5966  -3.4188  -3.3803  -3.3723  -3.3277
    -3.1873  -3.1726  -3.1637  -3.0591  -2.9262  -2.8326  -2.7970  -2.7540
    -2.7254  -2.6720  -2.2866  -2.1662  -2.1058  -2.0009  -1.7425  -1.6004
    -1.3901  -1.2445  -1.1888  -1.1560  -1.0333  -0.9903  -0.9184   0.1295
     0.2149   0.7360   0.9760   1.1889   1.4806   1.5176   1.6925   1.7306
     1.8688   2.0157   2.1920   2.1957   3.8808   4.0158   4.4479   5.0554
     5.1070   5.2223   5.4759   5.6872   5.8225   6.0917   6.4859   6.5306
     6.5709   6.7734   7.0059   7.3244   7.3789   7.4102   7.5257   7.9802
     8.1069   8.1968   8.5989   8.6472   8.6890   8.7735   8.8419   8.9001
     8.9363   8.9608   9.0835   9.0923   9.1260   9.1771   9.1861   9.2555
     9.3299   9.3777   9.5131   9.5185   9.6233   9.7853   9.8552   9.9850
    10.0361  10.1523  10.2818  10.3849  10.4607  10.5247  10.6069  10.8016
    10.8786  10.9418  11.0612  11.0689  11.2457  11.3151  11.4046  11.4487
    11.5265  11.5561  11.7132  11.7956  11.9045  11.9260  12.0478  12.2384
    12.3078  12.3766  12.3926  12.4641  12.5970  12.7271  12.7618  12.8656
    12.9333  12.9741  12.9968  13.0530  13.1114  13.1492  13.2515  13.3119
    13.3588  13.3918  13.4652  13.4952  13.5935  13.7452  13.7916  13.8650
    13.9068  14.1167  14.1597  14.1970  14.2262  14.3202  14.4580  14.4912
    14.6321  14.6694  14.8544  14.9572  15.0989  15.1619  15.1880  15.2332
    15.3179  15.3674  15.4785  15.5105  15.5366  15.6205  15.7624  15.7955
    15.9123  15.9383  16.1200  16.1843  16.2702  16.2896  16.3131  16.3360
    16.3855  16.4373  16.4604  16.4880  16.5246  16.5943  16.7556  16.7860
    16.8658  16.9000  17.0363  17.0984  17.1849  17.2584  17.3894  17.4232
    17.4936  17.5308  17.5499  17.5998  17.6905  17.7821  17.8373  17.8712
    17.8810  17.9168  18.0192  18.1042  18.1600  18.2193  18.2596  18.2935
    18.3590  18.4674  18.4832  18.5718  18.6078  18.6383  18.7387  18.7968
    18.9132  19.1004  19.1932  19.3869  19.3976  19.5143  19.5552  19.5958
    19.6126  19.7087  19.8632  19.9322  20.0859  20.1339  20.2449  20.2678
    20.3013  20.3479  20.4021  20.4346  20.4888  20.5257  20.5408  20.5869
    20.6044  20.6231  20.6934  20.7317  20.7570  20.7914  20.8221  20.8691
    20.9228  21.0386  21.1744  21.1804  21.1927  21.2046  21.2409  21.4016
    21.4344  21.5224  21.5369  21.5862  21.5944  21.6199  21.6355  21.7273
    21.7806  21.9289  22.0416  22.1244  22.2208  22.2882

          k = 0.2500 0.0000 0.0000 ( 30502 PWs)   bands (ev):

   -49.5574 -49.4805 -49.4602 -49.4368 -49.4144 -49.3816 -49.3808 -49.3687
   -49.3319 -49.3096 -49.2650 -49.2478 -49.2461 -49.2290 -49.2237 -49.1621
   -49.1595 -49.1157 -49.0602 -49.0465 -49.0458 -49.0155 -49.0142 -48.9689
   -21.4594 -21.1422 -21.0287 -20.8581 -20.5785 -20.4241 -20.3722 -20.2974
   -20.1218 -20.1017 -20.0822 -20.0457 -19.9273 -19.9124 -19.7803 -19.7197
   -19.6795 -18.9339 -18.8236  -9.6940  -9.6764  -9.4406  -9.0374  -8.8225
    -8.7055  -8.6246  -8.5662  -8.5362  -8.4989  -8.4743  -8.3780  -8.1834
    -8.0817  -7.9149  -7.8719  -7.7550  -7.7298  -7.5554  -7.4616  -7.3615
    -7.2101  -7.1270  -6.9917  -6.6443  -6.5021  -6.3716  -6.2306  -6.1697
    -6.0458  -5.9232  -5.8915  -5.8239  -5.7512  -5.7145  -5.6750  -5.5167
    -5.3642  -5.2199  -5.0991  -5.0804  -4.9693  -4.9559  -4.8923  -4.7455
    -4.6829  -4.6510  -4.6122  -4.5321  -4.4810  -4.3556  -4.3145  -3.9744
    -3.7657  -3.6624  -3.6428  -3.5429  -3.4474  -3.4214  -3.3354  -3.2618
    -3.2136  -3.1438  -2.9302  -2.8852  -2.8028  -2.7457  -2.6549  -2.5543
    -2.3773  -2.3486  -2.2062  -2.1038  -2.0539  -1.8704  -1.8093  -1.7217
    -1.5928  -1.4599  -1.2700  -1.1176  -1.1035  -0.2441   0.2358   0.2776
     0.4767   0.4865   0.5275   0.6635   0.8330   0.9376   1.4763   1.5421
     1.5771   1.7288   1.7880   2.2616   3.3885   3.8176   4.4141   4.8380
     5.1837   5.2836   5.8179   5.9928   6.2631   6.3490   6.4173   6.7135
     7.0036   7.1397   7.3564   7.5143   7.6368   7.6481   7.7765   7.9396
     8.0045   8.1010   8.1312   8.3119   8.4015   8.4325   8.5379   8.6725
     8.7613   8.7867   8.8448   9.0986   9.1824   9.2498   9.3188   9.4338
     9.4792   9.5907   9.6402   9.7666   9.9478   9.9758  10.0561  10.1157
    10.1457  10.2618  10.2899  10.3565  10.4324  10.5414  10.5664  10.6417
    10.7805  10.8726  10.9408  10.9887  11.0343  11.0848  11.2222  11.2705
    11.3220  11.4139  11.5258  11.5977  11.6686  11.7616  11.9065  11.9227
    12.0762  12.1438  12.1772  12.2973  12.3899  12.4420  12.5289  12.5482
    12.6779  12.7954  12.8118  12.9020  13.0130  13.1964  13.2938  13.3734
    13.4070  13.5099  13.6490  13.6801  13.7947  13.8348  13.8692  13.8898
    13.9803  14.0414  14.0931  14.1524  14.2042  14.3010  14.3818  14.4270
    14.4851  14.5750  14.6593  14.6991  14.8319  14.9236  15.1263  15.2268
    15.2835  15.3479  15.3908  15.5055  15.5875  15.6078  15.6426  15.6987
    15.8204  15.8552  15.9782  16.0147  16.0450  16.0840  16.1744  16.2289
    16.3280  16.3667  16.4252  16.5033  16.6120  16.6838  16.8978  16.9460
    17.0022  17.1296  17.2050  17.2626  17.3197  17.4284  17.5396  17.6509
    17.7175  17.7574  17.8109  17.9263  18.0172  18.1114  18.1403  18.2157
    18.3290  18.4130  18.6131  18.6708  18.8011  18.8532  18.8885  18.9447
    19.0118  19.0653  19.0748  19.1232  19.2071  19.2851  19.3382  19.3660
    19.4245  19.4545  19.5009  19.5789  19.6016  19.6545  19.6975  19.7410
    19.7729  19.8075  19.8553  19.8846  19.9371  20.0268  20.0847  20.2602
    20.2729  20.3372  20.3777  20.4057  20.4585  20.4963  20.5360  20.5732
    20.6487  20.7091  20.7452  20.8032  20.8685  20.9042  20.9303  21.0066
    21.0630  21.1593  21.2020  21.2561  21.3246  21.3530  21.4319  21.5096
    21.5194  21.5963  21.6141  21.6970  21.7508  21.8446  21.9050  21.9771
    22.0576  22.0860  22.0992  22.1835  22.2194  22.2869

          k = 0.2500 0.2417 0.0000 ( 30481 PWs)   bands (ev):

   -49.5575 -49.4803 -49.4614 -49.4347 -49.4146 -49.3821 -49.3816 -49.3687
   -49.3321 -49.3094 -49.2650 -49.2462 -49.2457 -49.2292 -49.2229 -49.1641
   -49.1596 -49.1155 -49.0602 -49.0465 -49.0458 -49.0156 -49.0142 -48.9691
   -21.4202 -21.1394 -20.9503 -20.8148 -20.5618 -20.4179 -20.3598 -20.3146
   -20.1503 -20.1371 -20.1201 -20.0572 -19.9508 -19.9088 -19.8537 -19.7757
   -19.6806 -18.9345 -18.8210  -9.4994  -9.3044  -9.2480  -9.0706  -8.7607
    -8.6150  -8.5917  -8.5566  -8.5265  -8.4750  -8.4287  -8.3452  -8.2570
    -8.0484  -7.9825  -7.8116  -7.7589  -7.6969  -7.5128  -7.3909  -7.2499
    -7.1983  -7.1717  -7.0233  -6.6561  -6.4809  -6.3768  -6.3408  -6.1957
    -6.1216  -6.0739  -6.0355  -6.0161  -5.9697  -5.8580  -5.7345  -5.6744
    -5.6524  -5.5306  -5.3392  -5.2692  -5.2132  -4.9637  -4.8999  -4.8482
    -4.7329  -4.6143  -4.5643  -4.4181  -4.3587  -4.2787  -4.1324  -4.0024
    -3.7581  -3.6186  -3.5025  -3.4727  -3.3467  -3.1734  -3.1376  -3.0861
    -3.0410  -2.9970  -2.9499  -2.8821  -2.8330  -2.7774  -2.7025  -2.6549
    -2.6078  -2.5256  -2.3304  -2.1184  -1.8672  -1.8056  -1.6854  -1.6517
    -1.6093  -1.4634  -1.3436  -1.2671  -0.9415  -0.4163  -0.3205  -0.0142
     0.3092   0.4343   0.7750   0.9131   1.2542   1.3201   1.4614   1.4923
     1.6492   1.7932   1.8352   2.1955   3.6630   3.9796   4.6443   5.0327
     5.3759   5.4538   5.5693   5.9113   6.1989   6.4266   6.4897   6.5382
     6.5702   6.8555   6.9504   7.1640   7.2832   7.4700   7.5385   7.7153
     7.8743   7.9323   8.0400   8.1143   8.2039   8.3903   8.5283   8.5495
     8.6995   8.8197   8.8782   8.8990   9.1425   9.3092   9.4241   9.5604
     9.5882   9.7279   9.8226   9.8409   9.9533  10.0187  10.1082  10.2712
    10.3360  10.3690  10.4762  10.6212  10.6853  10.7730  10.8520  10.9179
    10.9833  11.0180  11.1506  11.2254  11.2875  11.3581  11.4846  11.5802
    11.6150  11.7048  11.7381  11.8279  11.8773  12.0078  12.0698  12.1538
    12.2164  12.2609  12.3270  12.4178  12.5059  12.5978  12.6374  12.6837
    12.7993  12.8371  12.9124  13.0380  13.0716  13.1665  13.1909  13.2494
    13.3109  13.3885  13.5225  13.5399  13.7666  13.7981  13.8264  13.8630
    13.9582  14.0229  14.1047  14.1492  14.2460  14.3266  14.3743  14.4794
    14.5801  14.6336  14.7266  14.8565  14.9895  15.0832  15.1759  15.2561
    15.3636  15.4304  15.4925  15.5528  15.5921  15.6374  15.7623  15.7877
    15.8593  15.9244  15.9927  16.0553  16.1025  16.1250  16.2452  16.2965
    16.3254  16.3563  16.4200  16.4891  16.5425  16.6207  16.6496  16.7102
    16.8080  16.8469  16.9063  16.9566  17.0949  17.2052  17.2615  17.2756
    17.3757  17.4028  17.5067  17.5388  17.6026  17.7000  17.7932  17.8376
    17.8714  17.9306  18.0576  18.1208  18.1318  18.2324  18.2790  18.3387
    18.4302  18.5408  18.6383  18.6881  18.7197  18.7986  18.8460  18.9139
    18.9756  19.0331  19.1130  19.1821  19.2016  19.2492  19.3294  19.4661
    19.5342  19.5865  19.6323  19.6845  19.7984  19.8793  19.9225  20.0897
    20.1241  20.2278  20.2819  20.4296  20.4888  20.5365  20.5818  20.6867
    20.7159  20.7317  20.8775  20.9388  20.9547  21.0295  21.1154  21.1565
    21.2405  21.2942  21.3252  21.3910  21.4265  21.4713  21.6061  21.6542
    21.7396  21.8159  21.8699  21.8870  21.9102  21.9461  22.0370  22.1216
    22.1916  22.3177  22.3499  22.4664  22.4759  22.5427

          k = 0.2500-0.4833 0.0000 ( 30510 PWs)   bands (ev):

   -49.5574 -49.4804 -49.4622 -49.4329 -49.4150 -49.3835 -49.3815 -49.3687
   -49.3319 -49.3094 -49.2650 -49.2454 -49.2450 -49.2294 -49.2221 -49.1661
   -49.1601 -49.1154 -49.0602 -49.0465 -49.0458 -49.0155 -49.0142 -48.9694
   -21.3812 -21.1365 -20.8175 -20.7927 -20.5470 -20.3517 -20.3441 -20.3283
   -20.3006 -20.1782 -20.1551 -20.0684 -19.9720 -19.9416 -19.8947 -19.8016
   -19.6817 -18.9352 -18.8189  -9.4643  -9.0916  -8.8012  -8.6930  -8.6010
    -8.5927  -8.5663  -8.5073  -8.4913  -8.4604  -8.3625  -8.3464  -8.3024
    -8.1729  -8.0054  -7.8006  -7.7659  -7.6648  -7.4771  -7.3349  -7.2372
    -7.1170  -6.9704  -6.9090  -6.8523  -6.8045  -6.7779  -6.5828  -6.4320
    -6.3126  -6.2193  -6.1896  -6.0976  -6.0521  -5.9839  -5.8748  -5.8135
    -5.7648  -5.6284  -5.5813  -5.3667  -5.0701  -5.0161  -4.9396  -4.8542
    -4.7069  -4.5070  -4.4363  -4.3396  -4.2605  -4.0506  -3.9907  -3.8887
    -3.8103  -3.7792  -3.5919  -3.4092  -3.3276  -3.2142  -3.1050  -3.0847
    -3.0308  -3.0150  -2.9433  -2.8935  -2.8428  -2.7490  -2.6539  -2.5409
    -2.4111  -2.3301  -2.2048  -2.1310  -2.0512  -1.8437  -1.8184  -1.6440
    -1.5378  -1.3881  -1.3776  -1.2865  -0.8896  -0.7797  -0.7766   0.1429
     0.3389   0.6786   0.7163   0.9092   1.0317   1.2826   1.6939   1.7287
     1.7482   1.9306   1.9428   2.1101   4.1527   4.2160   4.7205   5.3024
     5.3544   5.4801   5.7114   5.7407   5.9433   6.0797   6.3714   6.4692
     6.5193   6.7971   7.0108   7.0885   7.1916   7.2228   7.3017   7.4139
     7.5733   7.7950   7.8430   7.9381   8.1916   8.2286   8.3445   8.4077
     8.5224   8.5894   8.7645   8.9222   9.0151   9.1229   9.3970   9.4746
     9.5512   9.7263   9.9296  10.0275  10.1000  10.1360  10.3472  10.5138
    10.6342  10.7118  10.7490  10.8748  10.9814  11.0886  11.1383  11.2092
    11.2695  11.3065  11.3622  11.4484  11.5059  11.5529  11.6240  11.6851
    11.8341  11.8776  12.0186  12.0461  12.0660  12.1723  12.2418  12.3578
    12.4420  12.5350  12.5843  12.6531  12.7142  12.7591  12.8241  12.8781
    12.9250  12.9981  13.1013  13.1429  13.1978  13.2390  13.3061  13.3537
    13.4486  13.4656  13.5567  13.6171  13.7181  13.7763  13.8105  13.9340
    13.9770  14.1063  14.1646  14.2685  14.3941  14.4242  14.4929  14.5327
    14.5678  14.5976  14.6107  14.6754  14.7273  14.8639  14.8909  14.9545
    14.9894  15.0603  15.1050  15.2494  15.2761  15.3146  15.4656  15.5222
    15.5629  15.6327  15.7583  15.8920  15.9710  16.0266  16.0472  16.1451
    16.1818  16.2353  16.3817  16.4331  16.5055  16.5912  16.6581  16.7050
    16.7523  16.8744  16.9276  16.9686  17.0298  17.0821  17.1618  17.2033
    17.2412  17.2949  17.3673  17.3975  17.4496  17.5219  17.6374  17.7245
    17.8018  17.8403  17.8960  17.9587  18.0206  18.1237  18.2151  18.2970
    18.3603  18.4094  18.4420  18.4976  18.5460  18.5819  18.6544  18.6584
    18.7343  18.8349  18.9069  18.9712  19.0315  19.0630  19.0797  19.1207
    19.2607  19.3447  19.4343  19.5023  19.6140  19.6885  19.7182  19.7820
    19.8226  19.8592  19.9203  19.9518  20.0670  20.1515  20.2600  20.4194
    20.4963  20.5359  20.5861  20.6451  20.7602  20.7958  20.8624  20.9535
    20.9794  21.1009  21.1859  21.2460  21.3085  21.4199  21.4721  21.5649
    21.6963  21.7413  21.8647  21.9066  21.9415  21.9978  22.0880  22.1211
    22.1796  22.2352  22.3091  22.3429  22.5272  22.6304

          k =-0.5000 0.0000 0.0000 ( 30524 PWs)   bands (ev):

   -49.5574 -49.4799 -49.4609 -49.4280 -49.3864 -49.3817 -49.3807 -49.3654
   -49.3619 -49.2753 -49.2657 -49.2642 -49.2542 -49.2468 -49.2262 -49.1611
   -49.1601 -49.0872 -49.0807 -49.0445 -49.0370 -49.0323 -49.0168 -48.9690
   -21.2725 -21.2583 -20.8451 -20.7875 -20.6484 -20.6011 -20.4421 -20.3354
   -20.1294 -19.9881 -19.9773 -19.9471 -19.9387 -19.9002 -19.8678 -19.7892
   -19.7809 -18.9447 -18.8975  -9.3094  -9.2939  -9.2330  -9.1954  -9.1310
    -9.1162  -8.7179  -8.5538  -8.4336  -8.4282  -8.3840  -8.3482  -8.2188
    -8.2102  -8.0426  -7.7129  -7.6952  -7.5388  -7.3379  -7.2334  -6.9654
    -6.9269  -6.8553  -6.8100  -6.7861  -6.7525  -6.6624  -6.4593  -6.4487
    -6.2795  -6.2158  -6.0987  -6.0160  -5.7973  -5.6722  -5.6265  -5.5769
    -5.5401  -5.4547  -5.4081  -5.3612  -5.1141  -5.0860  -4.9072  -4.8933
    -4.8139  -4.7456  -4.5740  -4.5581  -4.3743  -4.3127  -4.1239  -3.9244
    -3.7604  -3.7349  -3.7256  -3.3303  -3.3023  -3.2884  -3.2747  -3.2346
    -3.1505  -3.0784  -2.9335  -2.6288  -2.5433  -2.5090  -2.4360  -2.3653
[...]
    -3.0663  -3.0313  -2.9169  -2.9018  -2.8408  -2.7788  -2.7472  -2.6735
    -2.6083  -2.5227  -2.2892  -2.1265  -1.8758  -1.8029  -1.6823  -1.6591
    -1.6069  -1.4450  -1.3481  -1.2610  -0.9361  -0.4236  -0.3397  -0.0628
     0.3176   0.4580   0.7740   0.8864   1.2493   1.2989   1.4579   1.4908
     1.6442   1.7915   1.8382   2.1718   3.6729   3.9356   4.6505   5.0384
     5.3920   5.4879   5.5801   5.8999   6.1723   6.4161   6.4916   6.5285
     6.5731   6.8177   6.9457   7.1365   7.2853   7.4810   7.5520   7.7093
     7.8836   7.9454   8.0729   8.1476   8.2041   8.3888   8.4500   8.5655
     8.7615   8.8240   8.8831   8.9680   9.1025   9.2638   9.4623   9.5479
     9.6172   9.7283   9.7884   9.8742   9.9379  10.0248  10.2013  10.2222
    10.3527  10.3736  10.4368  10.5818  10.7146  10.7465  10.8503  10.9382
    10.9935  11.0634  11.1578  11.1948  11.3155  11.3426  11.4951  11.5754
    11.6014  11.7015  11.7353  11.7890  11.9038  12.0464  12.0954  12.1787
    12.2364  12.2780  12.3321  12.4084  12.5118  12.5512  12.6456  12.7156
    12.7888  12.8453  12.9099  12.9990  13.0795  13.1589  13.2180  13.2791
    13.3005  13.3600  13.4856  13.5447  13.6873  13.7882  13.8344  13.8741
    13.9358  14.0080  14.1222  14.1550  14.2517  14.3200  14.4016  14.4505
    14.5789  14.6130  14.6933  14.7890  14.9567  15.0600  15.1907  15.2951
    15.3513  15.3988  15.4879  15.5382  15.5846  15.5998  15.7014  15.7700
    15.8246  15.8610  15.9570  16.0485  16.0858  16.1248  16.2008  16.3022
    16.3399  16.4098  16.4250  16.4779  16.5082  16.5927  16.6267  16.7179
    16.7610  16.8492  16.9531  17.0180  17.1073  17.2080  17.2362  17.2791
    17.3753  17.4247  17.5085  17.5341  17.5930  17.6606  17.7671  17.8599
    17.8971  17.9706  18.0560  18.1158  18.1345  18.2634  18.2841  18.3325
    18.4497  18.5387  18.6172  18.7007  18.7606  18.8216  18.8300  18.9464
    19.0049  19.0384  19.1038  19.1348  19.2353  19.2710  19.3142  19.4652
    19.5263  19.5886  19.6209  19.6989  19.7824  19.8679  19.9539  20.0617
    20.1346  20.2119  20.2663  20.3666  20.4946  20.5520  20.6052  20.6597
    20.7182  20.7854  20.8431  20.8999  20.9834  21.0543  21.1768  21.1901
    21.2442  21.2831  21.3155  21.3868  21.4204  21.4746  21.5335  21.6890
    21.7420  21.8178  21.8574  21.8921  21.9237  21.9872  22.0621  22.1286
    22.1809  22.2598  22.3823  22.4302  22.4968  22.5352

     the Fermi energy is    -1.6779 ev

!    total energy              =   -1981.63488106 Ry
     Harris-Foulkes estimate   =   -1981.63488106 Ry
     estimated scf accuracy    <          4.3E-09 Ry

     The total energy is the sum of the following terms:

     one-electron contribution =  -23320.70570394 Ry
     hartree contribution      =   11707.69858403 Ry
     xc contribution           =    -372.78208269 Ry
     ewald contribution        =   10004.15517073 Ry
     smearing contrib. (-TS)   =      -0.00084919 Ry

     total magnetization       =     0.00 Bohr mag/cell
     absolute magnetization    =     0.00 Bohr mag/cell

     convergence has been achieved in  37 iterations

     Forces acting on atoms (Ry/au):


     negative rho (up, down):  0.347E+00 0.347E+00
     atom    1 type  1   force =    -0.00641044   -0.01373718   -0.00015999
     atom    2 type  1   force =     0.00059731    0.00637262    0.00112973
     atom    3 type  2   force =     0.03027222    0.00580990   -0.00006280
     atom    4 type  2   force =     0.00803844    0.00931871   -0.00011779
     atom    5 type  1   force =    -0.00139565   -0.02999512   -0.00032634
     atom    6 type  1   force =     0.00107402    0.02656021   -0.00032676
     atom    7 type  1   force =     0.00172415   -0.00083035   -0.00066995
     atom    8 type  1   force =    -0.00156131   -0.00091291    0.00019511
     atom    9 type  2   force =     0.00522213   -0.00017817    0.00054258
     atom   10 type  2   force =    -0.00632884   -0.00164984   -0.00097466
     atom   11 type  1   force =    -0.01199589    0.00746195    0.00050585
     atom   12 type  1   force =    -0.01215561   -0.00716381    0.00050728
     atom   13 type  1   force =    -0.00080550    0.00003990    0.00043629
     atom   14 type  1   force =    -0.00669998   -0.01396490   -0.00024434
     atom   15 type  1   force =     0.00020413    0.00686478    0.00071479
     atom   16 type  2   force =    -0.03176217    0.00501743   -0.00000797
     atom   17 type  2   force =     0.00852613    0.00943331   -0.00028939
     atom   18 type  1   force =     0.00015120   -0.02996569   -0.00030588
     atom   19 type  1   force =     0.00206811    0.02704797   -0.00032076
     atom   20 type  1   force =    -0.00092188   -0.00426515   -0.00038704
     atom   21 type  1   force =    -0.00411644   -0.00058751    0.00006873
     atom   22 type  2   force =    -0.00172280    0.00034320    0.00028850
     atom   23 type  2   force =     0.00220535   -0.00018819    0.00185899
     atom   24 type  1   force =     0.01245291    0.01190396   -0.00024017
     atom   25 type  1   force =     0.01317615   -0.01195365   -0.00027829
     atom   26 type  1   force =    -0.00121539   -0.00016872    0.00048799
     atom   27 type  3   force =    -0.00000259   -0.00050008    0.00034747
     atom   28 type  3   force =     0.00001989   -0.00038599    0.00016580
     atom   29 type  3   force =    -0.00018672    0.00010813   -0.00062317
     atom   30 type  3   force =    -0.00013721    0.00016293   -0.00047684
     atom   31 type  1   force =    -0.00025084    0.00003487   -0.00096207
     atom   32 type  3   force =     0.00193711   -0.00003259   -0.00047491

     Total force =     0.003887     Total SCF correction =     0.000121

     number of scf cycles    =  13
     number of bfgs steps    =  12

     energy   old            =   -1981.6348486399 Ry
     energy   new            =   -1981.6348810577 Ry

     CASE: energy  _new < energy  _old

     new trust radius        =       0.0069783689 bohr
     new conv_thr            =       0.0000000100 Ry


ATOMIC_POSITIONS (crystal)
O0       0.000000000   0.000000000   0.378288586    0   0   1
O0       0.000000000   0.500000000   0.401422919    0   0   1
Rh1      0.250000000   0.500000000   0.452558592    0   0   1
Rh1      0.000000000   0.000000000   0.452764063    0   0   1
O0       0.250000000   0.810000000   0.452270978    0   0   1
O0       0.250000000   0.190000000   0.452197659    0   0   1
O0       0.000000000   0.500000000   0.498384403    0   0   1
O0       0.000000000   0.000000000   0.528291050    0   0   1
Rh1      0.250000000   0.000000000   0.575723236    0   0   1
Rh1      0.000000000   0.500000000   0.570553565    0   0   1
O0       0.250000000   0.690000000   0.576259020    0   0   1
O0       0.250000000   0.310000000   0.576356967    0   0   1
O0       0.000000000   0.000000000   0.621011782    0   0   1
O0       0.500000000   0.000000000   0.378154754    0   0   1
O0       0.500000000   0.500000000   0.401114646    0   0   1
Rh1      0.750000000   0.500000000   0.452560764    0   0   1
Rh1      0.500000000   0.000000000   0.452637405    0   0   1
O0       0.750000000   0.810000000   0.452286075    0   0   1
O0       0.750000000   0.190000000   0.452219116    0   0   1
O0       0.500000000   0.500000000   0.499648508    0   0   1
O0       0.500000000   0.000000000   0.528158395    0   0   1
Rh1      0.750000000   0.000000000   0.575698398    0   0   1
Rh1      0.500000000   0.500000000   0.575712858    0   0   1
O0       0.750000000   0.690000000   0.575292240    0   0   1
O0       0.750000000   0.310000000   0.575372053    0   0   1
O0       0.500000000   0.000000000   0.620708500    0   0   1
H2      -0.000006566   0.637652771   0.384307293
H2       0.499935027   0.639191261   0.384695294
H2       0.148410256   0.033986545   0.367696922
H2       0.648209315   0.034479474   0.367518426
O0       0.515420192   0.499638130   0.648611823
H2       0.368694062   0.499470619   0.662653714


     Check: negative starting charge=(component1):   -0.645257
     NEW-OLD atomic charge density approx. for the potential

     Check: negative/imaginary core charge=   -0.000003    0.000000
     Check: negative starting charge=(component1):   -0.644965

     negative rho (up, down):  0.347E+00 0.347E+00

     total cpu time spent up to now is   164159.2 secs

     per-process dynamical memory:   354.8 Mb

     Self-consistent Calculation

     iteration #  1     ecut=    40.00 Ry     beta=0.30
     Davidson diagonalization with overlap
     ethr =  1.00E-06,  avg # of iterations =  3.8

     Threshold (ethr) on eigenvalues was too large:
     Diagonalizing with lowered threshold

     Davidson diagonalization with overlap
     ethr =  1.29E-08,  avg # of iterations =  3.5

     negative rho (up, down):  0.347E+00 0.347E+00

     total cpu time spent up to now is   165190.6 secs

     total energy              =   -1981.63488720 Ry
     Harris-Foulkes estimate   =   -1981.63489799 Ry
     estimated scf accuracy    <       0.00003110 Ry

     total magnetization       =     0.00 Bohr mag/cell
     absolute magnetization    =     0.01 Bohr mag/cell

     iteration #  2     ecut=    40.00 Ry     beta=0.30
     Davidson diagonalization with overlap
     ethr =  1.30E-08,  avg # of iterations =  1.2

     negative rho (up, down):  0.347E+00 0.347E+00

     total cpu time spent up to now is   165588.9 secs

     total energy              =   -1981.63483536 Ry
     Harris-Foulkes estimate   =   -1981.63495246 Ry
     estimated scf accuracy    <       0.00271045 Ry

     total magnetization       =     0.00 Bohr mag/cell
     absolute magnetization    =     0.01 Bohr mag/cell

     iteration #  3     ecut=    40.00 Ry     beta=0.30
     Davidson diagonalization with overlap
     ethr =  1.30E-08,  avg # of iterations =  1.0

     negative rho (up, down):  0.347E+00 0.347E+00

     total cpu time spent up to now is   165981.7 secs

     total energy              =   -1981.63488942 Ry
     Harris-Foulkes estimate   =   -1981.63490293 Ry
     estimated scf accuracy    <       0.00022958 Ry

     total magnetization       =     0.00 Bohr mag/cell
     absolute magnetization    =     0.01 Bohr mag/cell

     iteration #  4     ecut=    40.00 Ry     beta=0.30
     Davidson diagonalization with overlap
     ethr =  1.30E-08,  avg # of iterations =  1.0

     negative rho (up, down):  0.347E+00 0.347E+00

     total cpu time spent up to now is   166373.9 secs

     total energy              =   -1981.63489581 Ry
     Harris-Foulkes estimate   =   -1981.63489769 Ry
     estimated scf accuracy    <       0.00001927 Ry

     total magnetization       =     0.00 Bohr mag/cell
     absolute magnetization    =     0.01 Bohr mag/cell

     iteration #  5     ecut=    40.00 Ry     beta=0.30
     Davidson diagonalization with overlap
     ethr =  8.06E-09,  avg # of iterations =  1.0

     negative rho (up, down):  0.347E+00 0.347E+00

     total cpu time spent up to now is   166763.4 secs

     total energy              =   -1981.63489603 Ry
     Harris-Foulkes estimate   =   -1981.63489787 Ry
     estimated scf accuracy    <       0.00001650 Ry

     total magnetization       =     0.00 Bohr mag/cell
     absolute magnetization    =     0.01 Bohr mag/cell

     iteration #  6     ecut=    40.00 Ry     beta=0.30
     Davidson diagonalization with overlap
     ethr =  6.91E-09,  avg # of iterations =  1.0

     negative rho (up, down):  0.347E+00 0.347E+00

     total cpu time spent up to now is   167152.0 secs

     total energy              =   -1981.63489658 Ry
     Harris-Foulkes estimate   =   -1981.63489790 Ry
     estimated scf accuracy    <       0.00001185 Ry

     total magnetization       =     0.00 Bohr mag/cell
     absolute magnetization    =     0.01 Bohr mag/cell

     iteration #  7     ecut=    40.00 Ry     beta=0.30
     Davidson diagonalization with overlap
     ethr =  4.96E-09,  avg # of iterations =  1.0

     negative rho (up, down):  0.347E+00 0.347E+00

     total cpu time spent up to now is   167541.6 secs

     total energy              =   -1981.63489720 Ry
     Harris-Foulkes estimate   =   -1981.63489752 Ry
     estimated scf accuracy    <       0.00000266 Ry

     total magnetization       =     0.00 Bohr mag/cell
     absolute magnetization    =     0.01 Bohr mag/cell

     iteration #  8     ecut=    40.00 Ry     beta=0.30
     Davidson diagonalization with overlap
     ethr =  1.11E-09,  avg # of iterations =  1.0

     negative rho (up, down):  0.347E+00 0.347E+00

     total cpu time spent up to now is   167931.2 secs

     total energy              =   -1981.63489735 Ry
     Harris-Foulkes estimate   =   -1981.63489744 Ry
     estimated scf accuracy    <       0.00000079 Ry

     total magnetization       =     0.00 Bohr mag/cell
     absolute magnetization    =     0.01 Bohr mag/cell

     iteration #  9     ecut=    40.00 Ry     beta=0.30
     Davidson diagonalization with overlap
     ethr =  3.31E-10,  avg # of iterations =  1.0

     negative rho (up, down):  0.347E+00 0.347E+00

     total cpu time spent up to now is   168320.8 secs

     total energy              =   -1981.63489740 Ry
     Harris-Foulkes estimate   =   -1981.63489743 Ry
     estimated scf accuracy    <       0.00000032 Ry

     total magnetization       =     0.00 Bohr mag/cell
     absolute magnetization    =     0.01 Bohr mag/cell

     iteration # 10     ecut=    40.00 Ry     beta=0.30
     Davidson diagonalization with overlap
     ethr =  1.33E-10,  avg # of iterations =  1.0

     negative rho (up, down):  0.347E+00 0.347E+00

     total cpu time spent up to now is   168710.7 secs

     total energy              =   -1981.63489741 Ry
     Harris-Foulkes estimate   =   -1981.63489743 Ry
     estimated scf accuracy    <       0.00000013 Ry

     total magnetization       =     0.00 Bohr mag/cell
     absolute magnetization    =     0.01 Bohr mag/cell

     iteration # 11     ecut=    40.00 Ry     beta=0.30
     Davidson diagonalization with overlap
     ethr =  5.65E-11,  avg # of iterations =  1.0

     negative rho (up, down):  0.347E+00 0.347E+00

     total cpu time spent up to now is   169101.4 secs

     total energy              =   -1981.63489743 Ry
     Harris-Foulkes estimate   =   -1981.63489744 Ry
     estimated scf accuracy    <       0.00000014 Ry

     total magnetization       =     0.00 Bohr mag/cell
     absolute magnetization    =     0.01 Bohr mag/cell

     iteration # 12     ecut=    40.00 Ry     beta=0.30
     Davidson diagonalization with overlap
     ethr =  5.65E-11,  avg # of iterations =  1.0

     negative rho (up, down):  0.347E+00 0.347E+00

     total cpu time spent up to now is   169492.7 secs

     total energy              =   -1981.63489744 Ry
     Harris-Foulkes estimate   =   -1981.63489744 Ry
     estimated scf accuracy    <       0.00000006 Ry

     total magnetization       =     0.00 Bohr mag/cell
     absolute magnetization    =     0.01 Bohr mag/cell

     iteration # 13     ecut=    40.00 Ry     beta=0.30
     Davidson diagonalization with overlap
     ethr =  2.46E-11,  avg # of iterations =  1.0

     negative rho (up, down):  0.347E+00 0.347E+00

     total cpu time spent up to now is   169884.2 secs

     total energy              =   -1981.63489744 Ry
     Harris-Foulkes estimate   =   -1981.63489744 Ry
     estimated scf accuracy    <       0.00000020 Ry

     total magnetization       =     0.00 Bohr mag/cell
     absolute magnetization    =     0.01 Bohr mag/cell

     iteration # 14     ecut=    40.00 Ry     beta=0.30
     Davidson diagonalization with overlap
     ethr =  2.46E-11,  avg # of iterations =  1.0

     negative rho (up, down):  0.347E+00 0.347E+00

     total cpu time spent up to now is   170278.2 secs

     total energy              =   -1981.63489744 Ry
     Harris-Foulkes estimate   =   -1981.63489744 Ry
     estimated scf accuracy    <       0.00000005 Ry

     total magnetization       =     0.00 Bohr mag/cell
     absolute magnetization    =     0.01 Bohr mag/cell

     iteration # 15     ecut=    40.00 Ry     beta=0.30
     Davidson diagonalization with overlap
     ethr =  1.92E-11,  avg # of iterations =  1.0

     negative rho (up, down):  0.347E+00 0.347E+00

     total cpu time spent up to now is   170671.5 secs

     total energy              =   -1981.63489744 Ry
     Harris-Foulkes estimate   =   -1981.63489744 Ry
     estimated scf accuracy    <       0.00000002 Ry

     total magnetization       =     0.00 Bohr mag/cell
     absolute magnetization    =     0.01 Bohr mag/cell

     iteration # 16     ecut=    40.00 Ry     beta=0.30
     Davidson diagonalization with overlap
     ethr =  6.97E-12,  avg # of iterations =  1.0

     negative rho (up, down):  0.347E+00 0.347E+00

     total cpu time spent up to now is   171062.3 secs

     total energy              =   -1981.63489745 Ry
     Harris-Foulkes estimate   =   -1981.63489744 Ry
     estimated scf accuracy    <       0.00000001 Ry

     total magnetization       =     0.00 Bohr mag/cell
     absolute magnetization    =     0.01 Bohr mag/cell

     iteration # 17     ecut=    40.00 Ry     beta=0.30
     Davidson diagonalization with overlap
     ethr =  5.90E-12,  avg # of iterations =  1.0

     negative rho (up, down):  0.347E+00 0.347E+00

     total cpu time spent up to now is   171452.7 secs

     total energy              =   -1981.63489745 Ry
     Harris-Foulkes estimate   =   -1981.63489745 Ry
     estimated scf accuracy    <       0.00000002 Ry

     total magnetization       =     0.00 Bohr mag/cell
     absolute magnetization    =     0.01 Bohr mag/cell

     iteration # 18     ecut=    40.00 Ry     beta=0.30
     Davidson diagonalization with overlap
     ethr =  5.90E-12,  avg # of iterations =  1.0

     negative rho (up, down):  0.347E+00 0.347E+00

     total cpu time spent up to now is   171844.5 secs

     total energy              =   -1981.63489745 Ry
     Harris-Foulkes estimate   =   -1981.63489745 Ry
     estimated scf accuracy    <       0.00000002 Ry

     total magnetization       =     0.00 Bohr mag/cell
     absolute magnetization    =     0.01 Bohr mag/cell

     iteration # 19     ecut=    40.00 Ry     beta=0.30
     Davidson diagonalization with overlap
     ethr =  5.90E-12,  avg # of iterations =  1.0

     negative rho (up, down):  0.347E+00 0.347E+00

     total cpu time spent up to now is   172235.5 secs

     total energy              =   -1981.63489745 Ry
     Harris-Foulkes estimate   =   -1981.63489745 Ry
     estimated scf accuracy    <       0.00000001 Ry

     total magnetization       =     0.00 Bohr mag/cell
     absolute magnetization    =     0.01 Bohr mag/cell

     iteration # 20     ecut=    40.00 Ry     beta=0.30
     Davidson diagonalization with overlap
     ethr =  5.90E-12,  avg # of iterations =  1.0

     negative rho (up, down):  0.347E+00 0.347E+00

     total cpu time spent up to now is   172628.9 secs

     total energy              =   -1981.63489745 Ry
     Harris-Foulkes estimate   =   -1981.63489745 Ry
     estimated scf accuracy    <       0.00000002 Ry

     total magnetization       =     0.00 Bohr mag/cell
     absolute magnetization    =     0.01 Bohr mag/cell

     iteration # 21     ecut=    40.00 Ry     beta=0.30
     Davidson diagonalization with overlap
=>> PBS: job killed: walltime 172801 exceeded limit 172800
mpirun: killing job...

---------------------------------------
Running PBS batch system epilogue script
Job id: 329698.audhumbla.fysik.dtu.dk
Username: zhonxu
Groupname: campgst
Jobname: RhO2/Eads-2-layers/OH-relax-surf
Sessionid: 17829
Resources limits: neednodes=2:ppn=8:xeon8,nodes=2:ppn=8:xeon8,walltime=48:00:00
Resources used: cput=767:40:21,mem=10013528kb,vmem=13538676kb,walltime=48:00:02
Queuename: verylong
Accounting:
This job has allocated the following 16 nodes:
d059 d059 d059 d059 d059 d059 d059 d059 d015 d015 d015 d015 d015 d015 d015 d015
Finished epilogue job 329698.audhumbla.fysik.dtu.dk for zhonxu
