ScientificPython/2.8-dl160g6-numpy-1.7.1-1(15):ERROR:151: Module 'ScientificPython/2.8-dl160g6-numpy-1.7.1-1' depends on one of the module(s) 'numpy/1.7.1-dl160g6-gfortran-internal-1'
ScientificPython/2.8-dl160g6-numpy-1.7.1-1(15):ERROR:102: Tcl command execution failed: prereq numpy/1.7.1-dl160g6-gfortran-internal-1


     Program PWSCF v.5.0.2 (svn rev. 9656) starts on  6Jun2014 at  3:11:38 

     This program is part of the open-source Quantum ESPRESSO suite
     for quantum simulation of materials; please cite
         "P. Giannozzi et al., J. Phys.:Condens. Matter 21 395502 (2009);
          URL http://www.quantum-espresso.org", 
     in publications or presentations arising from this work. More details at
     http://www.quantum-espresso.org/quote.php

     Parallel version (MPI), running on    16 processors
     K-points division:     npool     =       4
     R & G space division:  proc/nbgrp/npool/nimage =       4

     Current dimensions of program PWSCF are:
     Max number of different atomic species (ntypx) = 10
     Max number of k-points (npk) =  40000
     Max angular momentum in pseudopotentials (lmaxx) =  3
     Reading input from pwscf.in
Warning: card &CELL ignored
Warning: card / ignored

     Subspace diagonalization in iterative solution of the eigenvalue problem:
     a serial algorithm will be used


     Parallelization info
     --------------------
     sticks:   dense  smooth     PW     G-vecs:    dense   smooth      PW
     Min        1244     397    112               291872    52833    7934
     Max        1245     398    113               291883    52857    7939
     Sum        4979    1589    451              1167509   211387   31747



     bravais-lattice index     =            0
     lattice parameter (alat)  =      10.7336  a.u.
     unit-cell volume          =    6184.1966 (a.u.)^3
     number of atoms/cell      =           33
     number of atomic types    =            3
     number of electrons       =       245.00 (up: 134.00, down: 111.00)
     number of Kohn-Sham states=          355
     kinetic-energy cutoff     =      40.0000  Ry
     charge density cutoff     =     500.0000  Ry
     convergence threshold     =      1.0E-06
     mixing beta               =       0.7000
     number of iterations used =            8  plain     mixing
     Exchange-correlation      = SLA  PW   PBE  PBE ( 1 4 3 4 0)
     EXX-fraction              =        0.00
     nstep                     =           50


     celldm(1)=  10.733644  celldm(2)=   0.000000  celldm(3)=   0.000000
     celldm(4)=   0.000000  celldm(5)=   0.000000  celldm(6)=   0.000000

     crystal axes: (cart. coord. in units of alat)
               a(1) = (   1.000000   0.000000   0.000000 )  
               a(2) = (   0.000000   1.085558   0.000000 )  
               a(3) = (   0.000000   0.000000   4.606685 )  

     reciprocal axes: (cart. coord. in units 2 pi/alat)
               b(1) = (  1.000000  0.000000  0.000000 )  
               b(2) = (  0.000000  0.921185  0.000000 )  
               b(3) = (  0.000000  0.000000  0.217076 )  


     PseudoPot. # 1 for O  read from file:
     /home/camp/zhonxu/pseudo/o_pbe_v1.01.uspp.F.UPF
     MD5 check sum: 2bcb18d16ea4b960afae9ec6d52f22d2
     Pseudo is Ultrasoft + core correction, Zval =  6.0
     Generated by new atomic code, or converted to UPF format
     Using radial grid of  737 points,  5 beta functions with: 
                l(1) =   0
                l(2) =   0
                l(3) =   1
                l(4) =   1
                l(5) =   2
     Q(r) pseudized with  8 coefficients,  rinner =    0.900   0.900   0.900
                                                       0.900   0.900

     PseudoPot. # 2 for Mn read from file:
     /home/camp/zhonxu/pseudo/mn_pbe_v1.uspp.F.UPF
     MD5 check sum: 5fd7c7b5c956fd19902447332617373a
     Pseudo is Ultrasoft + core correction, Zval = 15.0
     Generated by new atomic code, or converted to UPF format
     Using radial grid of  859 points,  6 beta functions with: 
                l(1) =   0
                l(2) =   0
                l(3) =   1
                l(4) =   1
                l(5) =   2
                l(6) =   2
     Q(r) pseudized with  6 coefficients,  rinner =    1.150   1.150   1.150
                                                       1.150   1.150

     PseudoPot. # 3 for H  read from file:
     /home/camp/zhonxu/pseudo/h_pbe_v1.uspp.F.UPF
     MD5 check sum: 3408e3ff4ec8b0a4e358431e7e038a48
     Pseudo is Ultrasoft, Zval =  1.0
     Generated by new atomic code, or converted to UPF format
     Using radial grid of  615 points,  2 beta functions with: 
                l(1) =   0
                l(2) =   0
     Q(r) pseudized with  8 coefficients,  rinner =    0.700

     atomic species   valence    mass     pseudopotential
        O0             6.00    15.99940     O ( 1.00)
        Mn1           15.00    54.93800     Mn( 1.00)
        H2             1.00     1.00794     H ( 1.00)

     Starting magnetic structure 
     atomic species   magnetization
        O0           0.000
        Mn1          0.600
        H2           0.000


     Simplified LDA+U calculation (l_max = 2) with parameters (eV):
     atomic species    L          U    alpha       J0     beta
        Mn1            2     6.0000   0.0000   0.0000   0.0000



     No symmetry found



   Cartesian axes

     site n.     atom                  positions (alat units)
         1           O0  tau(   1) = (   0.0000000   0.0000000   1.7112453  )
         2           O0  tau(   2) = (   0.0000000   0.5427791   1.8043464  )
         3           Mn1 tau(   3) = (   0.2500000   0.5427791   2.0482704  )
         4           Mn1 tau(   4) = (   0.0000000   0.0000000   2.0513569  )
         5           O0  tau(   5) = (   0.2500000   0.8684466   2.0455064  )
         6           O0  tau(   6) = (   0.2500000   0.2171117   2.0629657  )
         7           O0  tau(   7) = (   0.0000000   0.5427791   2.2706351  )
         8           O0  tau(   8) = (   0.0000000   0.0000000   2.4138569  )
         9           Mn1 tau(   9) = (   0.2500000   0.0000000   2.6413350  )
        10           Mn1 tau(  10) = (   0.0000000   0.5427791   2.6307857  )
        11           O0  tau(  11) = (   0.2500000   0.7598908   2.6890603  )
        12           O0  tau(  12) = (   0.2500000   0.3256675   2.6943580  )
        13           O0  tau(  13) = (   0.0000000   0.0000000   2.8690895  )
        14           O0  tau(  14) = (   0.5000000   0.0000000   1.7112914  )
        15           O0  tau(  15) = (   0.5000000   0.5427791   1.8019970  )
        16           Mn1 tau(  16) = (   0.7500000   0.5427791   2.0482243  )
        17           Mn1 tau(  17) = (   0.5000000   0.0000000   2.0513108  )
        18           O0  tau(  18) = (   0.7500000   0.8684466   2.0460592  )
        19           O0  tau(  19) = (   0.7500000   0.2171117   2.0630118  )
        20           O0  tau(  20) = (   0.5000000   0.5427791   2.2742743  )
        21           O0  tau(  21) = (   0.5000000   0.0000000   2.4139030  )
        22           Mn1 tau(  22) = (   0.7500000   0.0000000   2.6413350  )
        23           Mn1 tau(  23) = (   0.5000000   0.5427791   2.6404137  )
        24           O0  tau(  24) = (   0.7500000   0.7598908   2.6891063  )
        25           O0  tau(  25) = (   0.7500000   0.3256675   2.6942658  )
        26           O0  tau(  26) = (   0.5000000   0.0000000   2.8684446  )
        27           H2  tau(  27) = (   0.0005900   0.7002502   1.7276451  )
        28           H2  tau(  28) = (   0.5005100   0.7025191   1.7288889  )
        29           H2  tau(  29) = (   0.1609500   0.0512058   1.6655470  )
        30           H2  tau(  30) = (   0.6607900   0.0520200   1.6660077  )
        31           O0  tau(  31) = (   0.4995900   0.5961669   3.1169752  )
        32           O0  tau(  32) = (   0.5014800   0.3884019   3.2310828  )
        33           H2  tau(  33) = (   0.4990900   0.4341148   3.3999639  )

     number of k points=    20  Methfessel-Paxton smearing, width (Ry)=  0.0100
                       cart. coord. in units 2pi/alat
        k(    1) = (   0.0000000   0.0000000   0.0000000), wk =   0.0625000
        k(    2) = (   0.0000000   0.2302962   0.0000000), wk =   0.1250000
        k(    3) = (   0.0000000  -0.4605925   0.0000000), wk =   0.0625000
        k(    4) = (   0.2500000   0.0000000   0.0000000), wk =   0.1250000
        k(    5) = (   0.2500000   0.2302962   0.0000000), wk =   0.1250000
        k(    6) = (   0.2500000  -0.4605925   0.0000000), wk =   0.1250000
        k(    7) = (  -0.5000000   0.0000000   0.0000000), wk =   0.0625000
        k(    8) = (  -0.5000000   0.2302962   0.0000000), wk =   0.1250000
        k(    9) = (  -0.5000000  -0.4605925   0.0000000), wk =   0.0625000
        k(   10) = (  -0.2500000   0.2302962   0.0000000), wk =   0.1250000
        k(   11) = (   0.0000000   0.0000000   0.0000000), wk =   0.0625000
        k(   12) = (   0.0000000   0.2302962   0.0000000), wk =   0.1250000
        k(   13) = (   0.0000000  -0.4605925   0.0000000), wk =   0.0625000
        k(   14) = (   0.2500000   0.0000000   0.0000000), wk =   0.1250000
        k(   15) = (   0.2500000   0.2302962   0.0000000), wk =   0.1250000
        k(   16) = (   0.2500000  -0.4605925   0.0000000), wk =   0.1250000
        k(   17) = (  -0.5000000   0.0000000   0.0000000), wk =   0.0625000
        k(   18) = (  -0.5000000   0.2302962   0.0000000), wk =   0.1250000
        k(   19) = (  -0.5000000  -0.4605925   0.0000000), wk =   0.0625000
        k(   20) = (  -0.2500000   0.2302962   0.0000000), wk =   0.1250000

     Dense  grid:  1167509 G-vectors     FFT dimensions: (  80,  90, 360)

     Smooth grid:   211387 G-vectors     FFT dimensions: (  45,  48, 200)

     Largest allocated arrays     est. size (Mb)     dimensions
        Kohn-Sham Wavefunctions        35.97 Mb     (   6641,  355)
        Atomic wavefunctions           19.15 Mb     (   6641,  189)
        NL pseudopotentials            41.95 Mb     (   6641,  414)
        Each V/rho on FFT grid         19.78 Mb     ( 648000,   2)
        Each G-vector array             2.23 Mb     ( 291883)
        G-vector shells                 0.97 Mb     ( 127585)
     Largest temporary arrays     est. size (Mb)     dimensions
        Auxiliary wavefunctions       143.89 Mb     (   6641, 1420)
        Each subspace H/S matrix       30.77 Mb     (1420,1420)
        Each <psi_i|beta_j> matrix      2.24 Mb     (    414,  355)
        Arrays for rho mixing          79.10 Mb     ( 648000,   8)

     Check: negative/imaginary core charge=   -0.000023    0.000000

     Initial potential from superposition of free atoms
     Check: negative starting charge=(component1):   -0.000595
     Check: negative starting charge=(component2):   -0.000332

     starting charge  236.99986, renormalised to  245.00000

     negative rho (up, down):  0.615E-03 0.343E-03
     Number of +U iterations with fixed ns =  0
     Starting occupations:
 --- enter write_ns ---
 LDA+U parameters:
U( 2)     =  6.00000000
alpha( 2) =  0.00000000
atom    3   Tr[ns(na)] (up, down, total) =   5.00000  0.00000  5.00000
   spin  1
    eigenvalues: 
  1.000  1.000  1.000  1.000  1.000
    eigenvectors:
  1.000  0.000  0.000  0.000  0.000
  0.000  1.000  0.000  0.000  0.000
  0.000  0.000  1.000  0.000  0.000
  0.000  0.000  0.000  1.000  0.000
  0.000  0.000  0.000  0.000  1.000
    occupations:
  1.000  0.000  0.000  0.000  0.000
  0.000  1.000  0.000  0.000  0.000
  0.000  0.000  1.000  0.000  0.000
  0.000  0.000  0.000  1.000  0.000
  0.000  0.000  0.000  0.000  1.000
   spin  2
    eigenvalues: 
  0.000  0.000  0.000  0.000  0.000
    eigenvectors:
  1.000  0.000  0.000  0.000  0.000
  0.000  1.000  0.000  0.000  0.000
  0.000  0.000  1.000  0.000  0.000
  0.000  0.000  0.000  1.000  0.000
  0.000  0.000  0.000  0.000  1.000
    occupations:
  0.000  0.000  0.000  0.000  0.000
  0.000  0.000  0.000  0.000  0.000
  0.000  0.000  0.000  0.000  0.000
  0.000  0.000  0.000  0.000  0.000
  0.000  0.000  0.000  0.000  0.000
atomic mag. moment =     5.000000
atom    4   Tr[ns(na)] (up, down, total) =   5.00000  0.00000  5.00000
   spin  1
    eigenvalues: 
  1.000  1.000  1.000  1.000  1.000
    eigenvectors:
  1.000  0.000  0.000  0.000  0.000
  0.000  1.000  0.000  0.000  0.000
  0.000  0.000  1.000  0.000  0.000
  0.000  0.000  0.000  1.000  0.000
  0.000  0.000  0.000  0.000  1.000
    occupations:
  1.000  0.000  0.000  0.000  0.000
  0.000  1.000  0.000  0.000  0.000
  0.000  0.000  1.000  0.000  0.000
  0.000  0.000  0.000  1.000  0.000
  0.000  0.000  0.000  0.000  1.000
   spin  2
    eigenvalues: 
  0.000  0.000  0.000  0.000  0.000
    eigenvectors:
  1.000  0.000  0.000  0.000  0.000
  0.000  1.000  0.000  0.000  0.000
  0.000  0.000  1.000  0.000  0.000
  0.000  0.000  0.000  1.000  0.000
  0.000  0.000  0.000  0.000  1.000
    occupations:
  0.000  0.000  0.000  0.000  0.000
  0.000  0.000  0.000  0.000  0.000
  0.000  0.000  0.000  0.000  0.000
  0.000  0.000  0.000  0.000  0.000
  0.000  0.000  0.000  0.000  0.000
atomic mag. moment =     5.000000
atom    9   Tr[ns(na)] (up, down, total) =   5.00000  0.00000  5.00000
   spin  1
    eigenvalues: 
  1.000  1.000  1.000  1.000  1.000
    eigenvectors:
  1.000  0.000  0.000  0.000  0.000
  0.000  1.000  0.000  0.000  0.000
  0.000  0.000  1.000  0.000  0.000
  0.000  0.000  0.000  1.000  0.000
  0.000  0.000  0.000  0.000  1.000
    occupations:
  1.000  0.000  0.000  0.000  0.000
  0.000  1.000  0.000  0.000  0.000
  0.000  0.000  1.000  0.000  0.000
  0.000  0.000  0.000  1.000  0.000
  0.000  0.000  0.000  0.000  1.000
   spin  2
    eigenvalues: 
  0.000  0.000  0.000  0.000  0.000
    eigenvectors:
  1.000  0.000  0.000  0.000  0.000
  0.000  1.000  0.000  0.000  0.000
  0.000  0.000  1.000  0.000  0.000
  0.000  0.000  0.000  1.000  0.000
  0.000  0.000  0.000  0.000  1.000
    occupations:
  0.000  0.000  0.000  0.000  0.000
  0.000  0.000  0.000  0.000  0.000
  0.000  0.000  0.000  0.000  0.000
  0.000  0.000  0.000  0.000  0.000
  0.000  0.000  0.000  0.000  0.000
atomic mag. moment =     5.000000
atom   10   Tr[ns(na)] (up, down, total) =   5.00000  0.00000  5.00000
   spin  1
    eigenvalues: 
  1.000  1.000  1.000  1.000  1.000
    eigenvectors:
  1.000  0.000  0.000  0.000  0.000
  0.000  1.000  0.000  0.000  0.000
  0.000  0.000  1.000  0.000  0.000
  0.000  0.000  0.000  1.000  0.000
  0.000  0.000  0.000  0.000  1.000
    occupations:
  1.000  0.000  0.000  0.000  0.000
  0.000  1.000  0.000  0.000  0.000
  0.000  0.000  1.000  0.000  0.000
  0.000  0.000  0.000  1.000  0.000
  0.000  0.000  0.000  0.000  1.000
   spin  2
    eigenvalues: 
  0.000  0.000  0.000  0.000  0.000
    eigenvectors:
  1.000  0.000  0.000  0.000  0.000
  0.000  1.000  0.000  0.000  0.000
  0.000  0.000  1.000  0.000  0.000
  0.000  0.000  0.000  1.000  0.000
  0.000  0.000  0.000  0.000  1.000
    occupations:
  0.000  0.000  0.000  0.000  0.000
  0.000  0.000  0.000  0.000  0.000
  0.000  0.000  0.000  0.000  0.000
  0.000  0.000  0.000  0.000  0.000
  0.000  0.000  0.000  0.000  0.000
atomic mag. moment =     5.000000
atom   16   Tr[ns(na)] (up, down, total) =   5.00000  0.00000  5.00000
   spin  1
    eigenvalues: 
  1.000  1.000  1.000  1.000  1.000
    eigenvectors:
  1.000  0.000  0.000  0.000  0.000
  0.000  1.000  0.000  0.000  0.000
  0.000  0.000  1.000  0.000  0.000
  0.000  0.000  0.000  1.000  0.000
  0.000  0.000  0.000  0.000  1.000
    occupations:
  1.000  0.000  0.000  0.000  0.000
  0.000  1.000  0.000  0.000  0.000
  0.000  0.000  1.000  0.000  0.000
  0.000  0.000  0.000  1.000  0.000
  0.000  0.000  0.000  0.000  1.000
   spin  2
    eigenvalues: 
  0.000  0.000  0.000  0.000  0.000
    eigenvectors:
  1.000  0.000  0.000  0.000  0.000
  0.000  1.000  0.000  0.000  0.000
  0.000  0.000  1.000  0.000  0.000
  0.000  0.000  0.000  1.000  0.000
  0.000  0.000  0.000  0.000  1.000
    occupations:
  0.000  0.000  0.000  0.000  0.000
  0.000  0.000  0.000  0.000  0.000
  0.000  0.000  0.000  0.000  0.000
  0.000  0.000  0.000  0.000  0.000
  0.000  0.000  0.000  0.000  0.000
atomic mag. moment =     5.000000
atom   17   Tr[ns(na)] (up, down, total) =   5.00000  0.00000  5.00000
   spin  1
    eigenvalues: 
  1.000  1.000  1.000  1.000  1.000
    eigenvectors:
  1.000  0.000  0.000  0.000  0.000
  0.000  1.000  0.000  0.000  0.000
  0.000  0.000  1.000  0.000  0.000
  0.000  0.000  0.000  1.000  0.000
  0.000  0.000  0.000  0.000  1.000
    occupations:
  1.000  0.000  0.000  0.000  0.000
  0.000  1.000  0.000  0.000  0.000
  0.000  0.000  1.000  0.000  0.000
  0.000  0.000  0.000  1.000  0.000
  0.000  0.000  0.000  0.000  1.000
   spin  2
    eigenvalues: 
  0.000  0.000  0.000  0.000  0.000
    eigenvectors:
  1.000  0.000  0.000  0.000  0.000
  0.000  1.000  0.000  0.000  0.000
  0.000  0.000  1.000  0.000  0.000
  0.000  0.000  0.000  1.000  0.000
  0.000  0.000  0.000  0.000  1.000
    occupations:
  0.000  0.000  0.000  0.000  0.000
  0.000  0.000  0.000  0.000  0.000
  0.000  0.000  0.000  0.000  0.000
  0.000  0.000  0.000  0.000  0.000
  0.000  0.000  0.000  0.000  0.000
atomic mag. moment =     5.000000
atom   22   Tr[ns(na)] (up, down, total) =   5.00000  0.00000  5.00000
   spin  1
    eigenvalues: 
  1.000  1.000  1.000  1.000  1.000
    eigenvectors:
  1.000  0.000  0.000  0.000  0.000
  0.000  1.000  0.000  0.000  0.000
  0.000  0.000  1.000  0.000  0.000
  0.000  0.000  0.000  1.000  0.000
  0.000  0.000  0.000  0.000  1.000
    occupations:
  1.000  0.000  0.000  0.000  0.000
  0.000  1.000  0.000  0.000  0.000
  0.000  0.000  1.000  0.000  0.000
  0.000  0.000  0.000  1.000  0.000
  0.000  0.000  0.000  0.000  1.000
   spin  2
    eigenvalues: 
  0.000  0.000  0.000  0.000  0.000
    eigenvectors:
  1.000  0.000  0.000  0.000  0.000
  0.000  1.000  0.000  0.000  0.000
  0.000  0.000  1.000  0.000  0.000
  0.000  0.000  0.000  1.000  0.000
  0.000  0.000  0.000  0.000  1.000
    occupations:
  0.000  0.000  0.000  0.000  0.000
  0.000  0.000  0.000  0.000  0.000
  0.000  0.000  0.000  0.000  0.000
  0.000  0.000  0.000  0.000  0.000
  0.000  0.000  0.000  0.000  0.000
atomic mag. moment =     5.000000
atom   23   Tr[ns(na)] (up, down, total) =   5.00000  0.00000  5.00000
   spin  1
    eigenvalues: 
  1.000  1.000  1.000  1.000  1.000
    eigenvectors:
  1.000  0.000  0.000  0.000  0.000
  0.000  1.000  0.000  0.000  0.000
  0.000  0.000  1.000  0.000  0.000
  0.000  0.000  0.000  1.000  0.000
  0.000  0.000  0.000  0.000  1.000
    occupations:
  1.000  0.000  0.000  0.000  0.000
  0.000  1.000  0.000  0.000  0.000
  0.000  0.000  1.000  0.000  0.000
  0.000  0.000  0.000  1.000  0.000
  0.000  0.000  0.000  0.000  1.000
   spin  2
    eigenvalues: 
  0.000  0.000  0.000  0.000  0.000
    eigenvectors:
  1.000  0.000  0.000  0.000  0.000
  0.000  1.000  0.000  0.000  0.000
  0.000  0.000  1.000  0.000  0.000
  0.000  0.000  0.000  1.000  0.000
  0.000  0.000  0.000  0.000  1.000
    occupations:
  0.000  0.000  0.000  0.000  0.000
  0.000  0.000  0.000  0.000  0.000
  0.000  0.000  0.000  0.000  0.000
  0.000  0.000  0.000  0.000  0.000
  0.000  0.000  0.000  0.000  0.000
atomic mag. moment =     5.000000
N of occupied +U levels =  40.0000000
 --- exit write_ns ---
 Atomic wfc used for LDA+U Projector are NOT orthogonalized
     Starting wfc are  189 randomized atomic wfcs

     total cpu time spent up to now is      123.8 secs

     per-process dynamical memory:   425.6 Mb

     Self-consistent Calculation

     iteration #  1     ecut=    40.00 Ry     beta=0.70
     Davidson diagonalization with overlap
     ethr =  1.00E-02,  avg # of iterations =  5.7
 --- enter write_ns ---
 LDA+U parameters:
U( 2)     =  6.00000000
alpha( 2) =  0.00000000
atom    3   Tr[ns(na)] (up, down, total) =   4.65707  0.45813  5.11520
   spin  1
    eigenvalues: 
  0.824  0.835  0.997  0.998  1.004
    eigenvectors:
  0.005  0.214  0.000  0.750  0.031
  0.974  0.023  0.003  0.000  0.000
  0.000  0.000  0.001  0.039  0.960
  0.018  0.763  0.000  0.210  0.009
  0.003  0.000  0.996  0.001  0.001
    occupations:
  0.962 -0.001  0.001 -0.068 -0.000
 -0.001  0.824  0.000 -0.002 -0.009
  0.001  0.000  1.004 -0.001  0.000
 -0.068 -0.002 -0.001  0.870 -0.000
 -0.000 -0.009  0.000 -0.000  0.996
   spin  2
    eigenvalues: 
  0.045  0.048  0.049  0.148  0.168
    eigenvectors:
  0.646  0.000  0.150  0.000  0.205
  0.000  0.001  0.000  0.999  0.000
  0.198  0.002  0.800  0.000  0.001
  0.157  0.000  0.049  0.000  0.794
  0.000  0.997  0.002  0.001  0.000
    occupations:
  0.071 -0.000 -0.003  0.049  0.000
 -0.000  0.148 -0.000  0.000  0.003
 -0.003 -0.000  0.048 -0.002  0.000
  0.049  0.000 -0.002  0.143 -0.000
  0.000  0.003  0.000 -0.000  0.048
atomic mag. moment =     4.198935
atom    4   Tr[ns(na)] (up, down, total) =   4.75512  0.46493  5.22006
   spin  1
    eigenvalues: 
  0.879  0.886  0.991  0.996  1.003
    eigenvectors:
  0.016  0.971  0.001  0.004  0.008
  0.002  0.004  0.113  0.003  0.878
  0.000  0.003  0.867  0.026  0.104
  0.000  0.005  0.018  0.967  0.009
  0.981  0.017  0.000  0.000  0.001
    occupations:
  0.887 -0.008 -0.006  0.008  0.000
 -0.008  1.001  0.003 -0.000  0.005
 -0.006  0.003  0.992  0.001 -0.000
  0.008 -0.000  0.001  0.996 -0.000
  0.000  0.005 -0.000 -0.000  0.880
   spin  2
    eigenvalues: 
  0.047  0.051  0.052  0.154  0.161
    eigenvectors:
  0.003  0.009  0.002  0.987  0.000
  0.617  0.017  0.363  0.001  0.001
  0.365  0.130  0.504  0.001  0.000
  0.014  0.844  0.131  0.012  0.000
  0.001  0.000  0.001  0.000  0.999
    occupations:
  0.153  0.003  0.003 -0.011  0.000
  0.003  0.049 -0.002  0.000 -0.004
  0.003 -0.002  0.050 -0.000  0.000
 -0.011  0.000 -0.000  0.052  0.000
  0.000 -0.004  0.000  0.000  0.161
atomic mag. moment =     4.290194
atom    9   Tr[ns(na)] (up, down, total) =   4.67330  0.51698  5.19028
   spin  1
    eigenvalues: 
  0.835  0.847  0.991  0.997  1.003
    eigenvectors:
  0.151  0.013  0.836  0.000  0.000
  0.081  0.919  0.000  0.000  0.000
  0.000  0.000  0.000  0.077  0.923
  0.768  0.068  0.163  0.000  0.000
  0.000  0.000  0.000  0.923  0.077
    occupations:
  0.966 -0.002 -0.001 -0.057  0.000
 -0.002  0.846 -0.000 -0.003  0.000
 -0.001 -0.000  1.002 -0.001  0.002
 -0.057 -0.003 -0.001  0.861 -0.000
  0.000  0.000  0.002 -0.000  0.997
   spin  2
    eigenvalues: 
  0.059  0.059  0.060  0.169  0.170
    eigenvectors:
  0.003  0.060  0.770  0.112  0.054
  0.000  0.000  0.000  0.332  0.668
  0.318  0.620  0.062  0.000  0.000
  0.000  0.010  0.156  0.555  0.278
  0.679  0.309  0.012  0.000  0.000
    occupations:
  0.078  0.000  0.001  0.041 -0.000
  0.000  0.169 -0.000 -0.001  0.000
  0.001 -0.000  0.059  0.001 -0.000
  0.041 -0.001  0.001  0.151 -0.000
 -0.000  0.000 -0.000 -0.000  0.059
atomic mag. moment =     4.156311
atom   10   Tr[ns(na)] (up, down, total) =   4.96980  0.42234  5.39215
   spin  1
    eigenvalues: 
  0.967  0.997  1.001  1.002  1.004
    eigenvectors:
  0.000  0.738  0.000  0.261  0.001
  0.000  0.000  1.000  0.000  0.000
  0.000  0.000  0.000  0.002  0.998
  0.000  0.262  0.000  0.737  0.001
  1.000  0.000  0.000  0.000  0.000
    occupations:
  0.998  0.000 -0.000  0.002  0.000
  0.000  1.001  0.000  0.000 -0.001
 -0.000  0.000  1.004 -0.000  0.000
  0.002  0.000 -0.000  1.000  0.000
  0.000 -0.001  0.000  0.000  0.967
   spin  2
    eigenvalues: 
  0.041  0.042  0.060  0.125  0.154
    eigenvectors:
  0.000  0.000  0.547  0.453  0.000
  0.000  1.000  0.000  0.000  0.000
  0.999  0.000  0.000  0.000  0.000
  0.000  0.000  0.453  0.547  0.000
  0.000  0.000  0.000  0.000  1.000
    occupations:
  0.090 -0.000 -0.000 -0.032 -0.000
 -0.000  0.042  0.000 -0.000  0.001
 -0.000  0.000  0.041  0.001 -0.000
 -0.032 -0.000  0.001  0.096 -0.000
 -0.000  0.001 -0.000 -0.000  0.154
atomic mag. moment =     4.547460
atom   16   Tr[ns(na)] (up, down, total) =   4.65676  0.45807  5.11482
   spin  1
    eigenvalues: 
  0.824  0.834  0.997  0.998  1.004
    eigenvectors:
  0.000  0.219  0.000  0.750  0.030
  0.996  0.001  0.003  0.000  0.000
  0.000  0.000  0.001  0.039  0.960
  0.001  0.780  0.000  0.210  0.009
  0.003  0.000  0.996  0.001  0.000
    occupations:
  0.962 -0.000  0.001 -0.068 -0.000
 -0.000  0.824 -0.000  0.001 -0.009
  0.001 -0.000  1.004 -0.001  0.000
 -0.068  0.001 -0.001  0.870 -0.000
 -0.000 -0.009  0.000 -0.000  0.996
   spin  2
    eigenvalues: 
  0.045  0.048  0.049  0.148  0.168
    eigenvectors:
  0.642  0.004  0.150  0.000  0.205
  0.000  0.001  0.000  0.999  0.000
  0.202  0.010  0.788  0.000  0.001
  0.156  0.001  0.048  0.000  0.795
  0.000  0.985  0.014  0.001  0.000
    occupations:
  0.071  0.000 -0.003  0.049 -0.000
  0.000  0.148  0.000 -0.000  0.003
 -0.003  0.000  0.048 -0.002 -0.000
  0.049 -0.000 -0.002  0.143  0.000
 -0.000  0.003 -0.000  0.000  0.048
atomic mag. moment =     4.198688
atom   17   Tr[ns(na)] (up, down, total) =   4.75227  0.46480  5.21707
   spin  1
    eigenvalues: 
  0.877  0.885  0.991  0.996  1.003
    eigenvectors:
  0.011  0.977  0.001  0.004  0.008
  0.002  0.004  0.119  0.002  0.873
  0.000  0.003  0.860  0.028  0.109
  0.000  0.005  0.020  0.967  0.008
  0.987  0.012  0.000  0.000  0.001
    occupations:
  0.886 -0.008 -0.006  0.008  0.000
 -0.008  1.001  0.003 -0.000  0.005
 -0.006  0.003  0.992  0.001 -0.000
  0.008 -0.000  0.001  0.996 -0.000
  0.000  0.005 -0.000 -0.000  0.877
   spin  2
    eigenvalues: 
  0.047  0.051  0.052  0.154  0.161
    eigenvectors:
  0.003  0.010  0.001  0.987  0.000
  0.606  0.001  0.390  0.001  0.001
  0.374  0.059  0.566  0.001  0.000
  0.016  0.930  0.043  0.011  0.000
  0.001  0.000  0.001  0.000  0.998
    occupations:
  0.153  0.003  0.003 -0.011  0.000
  0.003  0.049 -0.003  0.000 -0.004
  0.003 -0.003  0.050 -0.000  0.000
 -0.011  0.000 -0.000  0.052  0.000
  0.000 -0.004  0.000  0.000  0.161
atomic mag. moment =     4.287479
atom   22   Tr[ns(na)] (up, down, total) =   4.67339  0.51686  5.19025
   spin  1
    eigenvalues: 
  0.835  0.847  0.991  0.997  1.003
    eigenvectors:
  0.154  0.010  0.836  0.000  0.000
  0.059  0.941  0.000  0.000  0.000
  0.000  0.000  0.000  0.077  0.923
  0.787  0.050  0.163  0.000  0.000
  0.000  0.000  0.000  0.923  0.077
    occupations:
  0.966  0.001 -0.001 -0.057 -0.000
  0.001  0.846  0.000  0.002  0.000
 -0.001  0.000  1.002 -0.001 -0.002
 -0.057  0.002 -0.001  0.862  0.000
 -0.000  0.000 -0.002  0.000  0.997
   spin  2
    eigenvalues: 
  0.059  0.059  0.060  0.169  0.170
    eigenvectors:
  0.004  0.047  0.782  0.112  0.055
  0.000  0.000  0.000  0.336  0.664
  0.416  0.535  0.048  0.000  0.000
  0.000  0.008  0.159  0.552  0.281
  0.579  0.410  0.011  0.000  0.000
    occupations:
  0.078 -0.000  0.001  0.041  0.000
 -0.000  0.169  0.000  0.001  0.000
  0.001  0.000  0.059  0.001  0.000
  0.041  0.001  0.001  0.151  0.000
  0.000  0.000  0.000  0.000  0.059
atomic mag. moment =     4.156533
atom   23   Tr[ns(na)] (up, down, total) =   4.94135  0.43037  5.37173
   spin  1
    eigenvalues: 
  0.945  0.991  1.000  1.001  1.004
    eigenvectors:
  0.000  0.885  0.113  0.000  0.001
  0.000  0.000  0.000  1.000  0.000
  0.000  0.001  0.000  0.000  0.999
  0.000  0.113  0.887  0.000  0.000
  1.000  0.000  0.000  0.000  0.000
    occupations:
  0.992 -0.000  0.000  0.003 -0.000
 -0.000  1.001 -0.000  0.000 -0.001
  0.000 -0.000  1.004 -0.000  0.000
  0.003  0.000 -0.000  0.999 -0.000
 -0.000 -0.001  0.000 -0.000  0.946
   spin  2
    eigenvalues: 
  0.036  0.047  0.073  0.118  0.157
    eigenvectors:
  0.001  0.000  0.199  0.800  0.000
  0.000  1.000  0.000  0.000  0.000
  0.999  0.000  0.001  0.001  0.000
  0.000  0.000  0.800  0.200  0.000
  0.000  0.000  0.000  0.000  1.000
    occupations:
  0.109  0.000 -0.002 -0.018  0.000
  0.000  0.047  0.000 -0.000  0.001
 -0.002  0.000  0.036  0.000  0.000
 -0.018 -0.000  0.000  0.082  0.000
  0.000  0.001  0.000  0.000  0.157
atomic mag. moment =     4.510977
N of occupied +U levels =  41.8115575
 --- exit write_ns ---

     negative rho (up, down):  0.693E-03 0.878E-03

     total cpu time spent up to now is      611.2 secs

     total energy              =   -2333.63672724 Ry
     Harris-Foulkes estimate   =   -2350.72143056 Ry
     estimated scf accuracy    <      28.02754794 Ry

     total magnetization       =    23.00 Bohr mag/cell
     absolute magnetization    =    46.64 Bohr mag/cell

     iteration #  2     ecut=    40.00 Ry     beta=0.70
     Davidson diagonalization with overlap
     ethr =  1.00E-02,  avg # of iterations =  5.8

     total cpu time spent up to now is     1073.1 secs

     total energy              =   -2155.17508287 Ry
     Harris-Foulkes estimate   =   -2505.52196691 Ry
     estimated scf accuracy    <    6335.44414677 Ry

     total magnetization       =    23.00 Bohr mag/cell
     absolute magnetization    =    24.03 Bohr mag/cell

     iteration #  3     ecut=    40.00 Ry     beta=0.70
     Davidson diagonalization with overlap
     ethr =  1.00E-02,  avg # of iterations =  4.0

     total cpu time spent up to now is     1534.3 secs

     total energy              =   -2316.99520596 Ry
     Harris-Foulkes estimate   =   -2372.41769813 Ry
     estimated scf accuracy    <     369.51188039 Ry

     total magnetization       =    23.00 Bohr mag/cell
     absolute magnetization    =    26.01 Bohr mag/cell

     iteration #  4     ecut=    40.00 Ry     beta=0.70
     Davidson diagonalization with overlap
     ethr =  1.00E-02,  avg # of iterations =  4.0

     total cpu time spent up to now is     1840.6 secs

     total energy              =   -2317.47759031 Ry
     Harris-Foulkes estimate   =   -2382.90579167 Ry
     estimated scf accuracy    <    1120.86697176 Ry

     total magnetization       =    23.00 Bohr mag/cell
     absolute magnetization    =    23.69 Bohr mag/cell

     iteration #  5     ecut=    40.00 Ry     beta=0.70
     Davidson diagonalization with overlap
     ethr =  1.00E-02,  avg # of iterations =  4.1

     total cpu time spent up to now is     2129.9 secs

     total energy              =   -2350.93268459 Ry
     Harris-Foulkes estimate   =   -2354.68838362 Ry
     estimated scf accuracy    <      13.80885621 Ry

     total magnetization       =    23.00 Bohr mag/cell
     absolute magnetization    =    35.38 Bohr mag/cell

     iteration #  6     ecut=    40.00 Ry     beta=0.70
     Davidson diagonalization with overlap
     ethr =  5.64E-03,  avg # of iterations =  2.5

     total cpu time spent up to now is     2374.5 secs

     total energy              =   -2351.58161780 Ry
     Harris-Foulkes estimate   =   -2352.41711500 Ry
     estimated scf accuracy    <       3.20596654 Ry

     total magnetization       =    23.00 Bohr mag/cell
     absolute magnetization    =    38.33 Bohr mag/cell

     iteration #  7     ecut=    40.00 Ry     beta=0.70
     Davidson diagonalization with overlap
     ethr =  1.31E-03,  avg # of iterations =  4.5

     total cpu time spent up to now is     2666.2 secs

     total energy              =   -2350.93262440 Ry
     Harris-Foulkes estimate   =   -2353.40821793 Ry
     estimated scf accuracy    <      15.30265852 Ry

     total magnetization       =    23.00 Bohr mag/cell
     absolute magnetization    =    37.73 Bohr mag/cell

     iteration #  8     ecut=    40.00 Ry     beta=0.70
     Davidson diagonalization with overlap
     ethr =  1.31E-03,  avg # of iterations =  2.1

     total cpu time spent up to now is     2919.2 secs

     total energy              =   -2352.10018701 Ry
     Harris-Foulkes estimate   =   -2352.39480108 Ry
     estimated scf accuracy    <       1.48284618 Ry

     total magnetization       =    23.00 Bohr mag/cell
     absolute magnetization    =    36.84 Bohr mag/cell

     iteration #  9     ecut=    40.00 Ry     beta=0.70
     Davidson diagonalization with overlap
     ethr =  6.05E-04,  avg # of iterations =  1.6

     total cpu time spent up to now is     3156.6 secs

     total energy              =   -2352.17618098 Ry
     Harris-Foulkes estimate   =   -2352.28403174 Ry
     estimated scf accuracy    <       1.09162187 Ry

     total magnetization       =    23.00 Bohr mag/cell
     absolute magnetization    =    37.67 Bohr mag/cell

     iteration # 10     ecut=    40.00 Ry     beta=0.70
     Davidson diagonalization with overlap
     ethr =  4.46E-04,  avg # of iterations =  1.0

     total cpu time spent up to now is     3393.2 secs

     total energy              =   -2352.16275548 Ry
     Harris-Foulkes estimate   =   -2352.32605080 Ry
     estimated scf accuracy    <       1.72725482 Ry

     total magnetization       =    23.00 Bohr mag/cell
     absolute magnetization    =    37.83 Bohr mag/cell

     iteration # 11     ecut=    40.00 Ry     beta=0.70
     Davidson diagonalization with overlap
     ethr =  4.46E-04,  avg # of iterations =  1.0

     total cpu time spent up to now is     3629.8 secs

     total energy              =   -2351.99952059 Ry
     Harris-Foulkes estimate   =   -2352.26430658 Ry
     estimated scf accuracy    <       0.45949878 Ry

     total magnetization       =    23.00 Bohr mag/cell
     absolute magnetization    =    37.11 Bohr mag/cell

     iteration # 12     ecut=    40.00 Ry     beta=0.70
     Davidson diagonalization with overlap
     ethr =  1.88E-04,  avg # of iterations =  6.9

     total cpu time spent up to now is     3993.0 secs

     total energy              =   -2351.83259323 Ry
     Harris-Foulkes estimate   =   -2352.17335884 Ry
     estimated scf accuracy    <       1.54446737 Ry

     total magnetization       =    23.00 Bohr mag/cell
     absolute magnetization    =    36.52 Bohr mag/cell

     iteration # 13     ecut=    40.00 Ry     beta=0.70
     Davidson diagonalization with overlap
     ethr =  1.88E-04,  avg # of iterations =  5.0

     negative rho (up, down):  0.700E-06 0.508E-06

     total cpu time spent up to now is     4280.7 secs

     total energy              =   -2351.94343722 Ry
     Harris-Foulkes estimate   =   -2352.15919103 Ry
     estimated scf accuracy    <       1.19624089 Ry

     total magnetization       =    23.00 Bohr mag/cell
     absolute magnetization    =    37.16 Bohr mag/cell

     iteration # 14     ecut=    40.00 Ry     beta=0.70
     Davidson diagonalization with overlap
     ethr =  1.88E-04,  avg # of iterations =  4.5

     negative rho (up, down):  0.872E-06 0.108E-05

     total cpu time spent up to now is     4563.4 secs

     total energy              =   -2351.91403004 Ry
     Harris-Foulkes estimate   =   -2352.18628658 Ry
     estimated scf accuracy    <       2.64063318 Ry

     total magnetization       =    23.00 Bohr mag/cell
     absolute magnetization    =    37.16 Bohr mag/cell

     iteration # 15     ecut=    40.00 Ry     beta=0.70
     Davidson diagonalization with overlap
     ethr =  1.88E-04,  avg # of iterations =  4.2

     negative rho (up, down):  0.406E-04 0.418E-04

     total cpu time spent up to now is     4841.3 secs

     total energy              =   -2352.01587814 Ry
     Harris-Foulkes estimate   =   -2352.10812986 Ry
     estimated scf accuracy    <       0.59859432 Ry

     total magnetization       =    23.00 Bohr mag/cell
     absolute magnetization    =    37.28 Bohr mag/cell

     iteration # 16     ecut=    40.00 Ry     beta=0.70
     Davidson diagonalization with overlap
     ethr =  1.88E-04,  avg # of iterations =  1.9

     negative rho (up, down):  0.935E-04 0.144E-03

     total cpu time spent up to now is     5091.2 secs

     total energy              =   -2352.06081294 Ry
     Harris-Foulkes estimate   =   -2352.07283377 Ry
     estimated scf accuracy    <       0.07979093 Ry

     total magnetization       =    23.00 Bohr mag/cell
     absolute magnetization    =    36.85 Bohr mag/cell

     iteration # 17     ecut=    40.00 Ry     beta=0.70
     Davidson diagonalization with overlap
     ethr =  3.26E-05,  avg # of iterations =  7.1

     negative rho (up, down):  0.418E-03 0.408E-03

     total cpu time spent up to now is     5386.6 secs

     total energy              =   -2352.06554610 Ry
     Harris-Foulkes estimate   =   -2352.06823337 Ry
     estimated scf accuracy    <       0.02230748 Ry

     total magnetization       =    23.00 Bohr mag/cell
     absolute magnetization    =    36.73 Bohr mag/cell

     iteration # 18     ecut=    40.00 Ry     beta=0.70
     Davidson diagonalization with overlap
     ethr =  9.11E-06,  avg # of iterations =  3.1

     negative rho (up, down):  0.883E-03 0.753E-03

     total cpu time spent up to now is     5641.1 secs

     total energy              =   -2352.06664158 Ry
     Harris-Foulkes estimate   =   -2352.06869402 Ry
     estimated scf accuracy    <       0.03082148 Ry

     total magnetization       =    23.00 Bohr mag/cell
     absolute magnetization    =    36.83 Bohr mag/cell

     iteration # 19     ecut=    40.00 Ry     beta=0.70
     Davidson diagonalization with overlap
     ethr =  9.11E-06,  avg # of iterations =  1.0

     negative rho (up, down):  0.618E-03 0.595E-03

     total cpu time spent up to now is     5880.0 secs

     total energy              =   -2352.06522796 Ry
     Harris-Foulkes estimate   =   -2352.06810515 Ry
     estimated scf accuracy    <       0.01335603 Ry

     total magnetization       =    23.00 Bohr mag/cell
     absolute magnetization    =    36.77 Bohr mag/cell

     iteration # 20     ecut=    40.00 Ry     beta=0.70
     Davidson diagonalization with overlap
     ethr =  5.45E-06,  avg # of iterations =  4.5

     negative rho (up, down):  0.745E-03 0.716E-03

     total cpu time spent up to now is     6156.3 secs

     total energy              =   -2352.06165760 Ry
     Harris-Foulkes estimate   =   -2352.07328822 Ry
     estimated scf accuracy    <       0.09321685 Ry

     total magnetization       =    23.00 Bohr mag/cell
     absolute magnetization    =    36.82 Bohr mag/cell

     iteration # 21     ecut=    40.00 Ry     beta=0.70
     Davidson diagonalization with overlap
     ethr =  5.45E-06,  avg # of iterations =  4.8

     negative rho (up, down):  0.216E-02 0.170E-02

     total cpu time spent up to now is     6433.5 secs

     total energy              =   -2352.06735859 Ry
     Harris-Foulkes estimate   =   -2352.06919483 Ry
     estimated scf accuracy    <       0.01210039 Ry

     total magnetization       =    23.00 Bohr mag/cell
     absolute magnetization    =    36.72 Bohr mag/cell

     iteration # 22     ecut=    40.00 Ry     beta=0.70
     Davidson diagonalization with overlap
     ethr =  4.94E-06,  avg # of iterations =  1.1

     negative rho (up, down):  0.224E-02 0.175E-02

     total cpu time spent up to now is     6674.4 secs

     total energy              =   -2352.06813629 Ry
     Harris-Foulkes estimate   =   -2352.06926454 Ry
     estimated scf accuracy    <       0.00831720 Ry

     total magnetization       =    23.00 Bohr mag/cell
     absolute magnetization    =    36.70 Bohr mag/cell

     iteration # 23     ecut=    40.00 Ry     beta=0.70
     Davidson diagonalization with overlap
     ethr =  3.39E-06,  avg # of iterations =  1.0

     negative rho (up, down):  0.189E-02 0.153E-02

     total cpu time spent up to now is     6915.6 secs

     total energy              =   -2352.06855944 Ry
     Harris-Foulkes estimate   =   -2352.06882112 Ry
     estimated scf accuracy    <       0.00088995 Ry

     total magnetization       =    23.00 Bohr mag/cell
     absolute magnetization    =    36.65 Bohr mag/cell

     iteration # 24     ecut=    40.00 Ry     beta=0.70
     Davidson diagonalization with overlap
     ethr =  3.63E-07,  avg # of iterations =  2.1

     negative rho (up, down):  0.187E-02 0.151E-02

     total cpu time spent up to now is     7157.9 secs

     total energy              =   -2352.06847781 Ry
     Harris-Foulkes estimate   =   -2352.06903217 Ry
     estimated scf accuracy    <       0.00796243 Ry

     total magnetization       =    23.00 Bohr mag/cell
     absolute magnetization    =    36.68 Bohr mag/cell

     iteration # 25     ecut=    40.00 Ry     beta=0.70
     Davidson diagonalization with overlap
     ethr =  3.63E-07,  avg # of iterations =  2.9

     negative rho (up, down):  0.177E-02 0.144E-02

     total cpu time spent up to now is     7409.4 secs

     total energy              =   -2352.06861919 Ry
     Harris-Foulkes estimate   =   -2352.06888498 Ry
     estimated scf accuracy    <       0.00205036 Ry

     total magnetization       =    23.00 Bohr mag/cell
     absolute magnetization    =    36.63 Bohr mag/cell

     iteration # 26     ecut=    40.00 Ry     beta=0.70
     Davidson diagonalization with overlap
     ethr =  3.63E-07,  avg # of iterations =  1.0

     negative rho (up, down):  0.164E-02 0.136E-02

     total cpu time spent up to now is     7648.6 secs

     total energy              =   -2352.06865863 Ry
     Harris-Foulkes estimate   =   -2352.06886783 Ry
     estimated scf accuracy    <       0.00113340 Ry

     total magnetization       =    23.00 Bohr mag/cell
     absolute magnetization    =    36.64 Bohr mag/cell

     iteration # 27     ecut=    40.00 Ry     beta=0.70
     Davidson diagonalization with overlap
     ethr =  3.63E-07,  avg # of iterations =  1.0

     negative rho (up, down):  0.161E-02 0.134E-02

     total cpu time spent up to now is     7887.4 secs

     total energy              =   -2352.06872856 Ry
     Harris-Foulkes estimate   =   -2352.06879934 Ry
     estimated scf accuracy    <       0.00066550 Ry

     total magnetization       =    23.00 Bohr mag/cell
     absolute magnetization    =    36.63 Bohr mag/cell

     iteration # 28     ecut=    40.00 Ry     beta=0.70
     Davidson diagonalization with overlap
     ethr =  2.72E-07,  avg # of iterations =  1.0

     negative rho (up, down):  0.158E-02 0.132E-02

     total cpu time spent up to now is     8126.6 secs

     total energy              =   -2352.06865665 Ry
     Harris-Foulkes estimate   =   -2352.06889329 Ry
     estimated scf accuracy    <       0.00128299 Ry

     total magnetization       =    23.00 Bohr mag/cell
     absolute magnetization    =    36.60 Bohr mag/cell

     iteration # 29     ecut=    40.00 Ry     beta=0.70
     Davidson diagonalization with overlap
     ethr =  2.72E-07,  avg # of iterations =  1.0

     negative rho (up, down):  0.156E-02 0.131E-02

     total cpu time spent up to now is     8365.6 secs

     total energy              =   -2352.06877561 Ry
     Harris-Foulkes estimate   =   -2352.06879532 Ry
     estimated scf accuracy    <       0.00024898 Ry

     total magnetization       =    23.00 Bohr mag/cell
     absolute magnetization    =    36.62 Bohr mag/cell

     iteration # 30     ecut=    40.00 Ry     beta=0.70
     Davidson diagonalization with overlap
     ethr =  1.02E-07,  avg # of iterations =  1.0

     negative rho (up, down):  0.155E-02 0.130E-02

     total cpu time spent up to now is     8604.6 secs

     total energy              =   -2352.06878770 Ry
     Harris-Foulkes estimate   =   -2352.06879425 Ry
     estimated scf accuracy    <       0.00005420 Ry

     total magnetization       =    23.00 Bohr mag/cell
     absolute magnetization    =    36.60 Bohr mag/cell

     iteration # 31     ecut=    40.00 Ry     beta=0.70
     Davidson diagonalization with overlap
     ethr =  2.21E-08,  avg # of iterations =  1.0

     negative rho (up, down):  0.153E-02 0.129E-02

     total cpu time spent up to now is     8840.0 secs

     total energy              =   -2352.06878633 Ry
     Harris-Foulkes estimate   =   -2352.06879568 Ry
     estimated scf accuracy    <       0.00008172 Ry

     total magnetization       =    23.00 Bohr mag/cell
     absolute magnetization    =    36.60 Bohr mag/cell

     iteration # 32     ecut=    40.00 Ry     beta=0.70
     Davidson diagonalization with overlap
     ethr =  2.21E-08,  avg # of iterations =  1.1

     negative rho (up, down):  0.153E-02 0.129E-02

     total cpu time spent up to now is     9069.9 secs

     total energy              =   -2352.06878167 Ry
     Harris-Foulkes estimate   =   -2352.06880681 Ry
     estimated scf accuracy    <       0.00014710 Ry

     total magnetization       =    23.00 Bohr mag/cell
     absolute magnetization    =    36.59 Bohr mag/cell

     iteration # 33     ecut=    40.00 Ry     beta=0.70
     Davidson diagonalization with overlap
     ethr =  2.21E-08,  avg # of iterations =  1.0

     negative rho (up, down):  0.152E-02 0.128E-02

     total cpu time spent up to now is     9297.9 secs

     total energy              =   -2352.06879196 Ry
     Harris-Foulkes estimate   =   -2352.06879559 Ry
     estimated scf accuracy    <       0.00001810 Ry

     total magnetization       =    23.00 Bohr mag/cell
     absolute magnetization    =    36.59 Bohr mag/cell

     iteration # 34     ecut=    40.00 Ry     beta=0.70
     Davidson diagonalization with overlap
     ethr =  7.39E-09,  avg # of iterations =  1.8

     negative rho (up, down):  0.153E-02 0.129E-02

     total cpu time spent up to now is     9533.2 secs

     total energy              =   -2352.06878743 Ry
     Harris-Foulkes estimate   =   -2352.06880183 Ry
     estimated scf accuracy    <       0.00007425 Ry

     total magnetization       =    23.00 Bohr mag/cell
     absolute magnetization    =    36.57 Bohr mag/cell

     iteration # 35     ecut=    40.00 Ry     beta=0.70
     Davidson diagonalization with overlap
     ethr =  7.39E-09,  avg # of iterations =  1.1

     negative rho (up, down):  0.153E-02 0.129E-02

     total cpu time spent up to now is     9761.1 secs

     total energy              =   -2352.06878920 Ry
     Harris-Foulkes estimate   =   -2352.06880237 Ry
     estimated scf accuracy    <       0.00012598 Ry

     total magnetization       =    23.00 Bohr mag/cell
     absolute magnetization    =    36.58 Bohr mag/cell

     iteration # 36     ecut=    40.00 Ry     beta=0.70
     Davidson diagonalization with overlap
     ethr =  7.39E-09,  avg # of iterations =  1.0

     negative rho (up, down):  0.153E-02 0.129E-02

     total cpu time spent up to now is     9989.2 secs

     total energy              =   -2352.06879555 Ry
     Harris-Foulkes estimate   =   -2352.06879612 Ry
     estimated scf accuracy    <       0.00000264 Ry

     total magnetization       =    23.00 Bohr mag/cell
     absolute magnetization    =    36.58 Bohr mag/cell

     iteration # 37     ecut=    40.00 Ry     beta=0.70
     Davidson diagonalization with overlap
     ethr =  1.08E-09,  avg # of iterations =  1.6

     negative rho (up, down):  0.153E-02 0.129E-02

     total cpu time spent up to now is    10228.8 secs

     total energy              =   -2352.06879533 Ry
     Harris-Foulkes estimate   =   -2352.06879711 Ry
     estimated scf accuracy    <       0.00000973 Ry

     total magnetization       =    23.00 Bohr mag/cell
     absolute magnetization    =    36.57 Bohr mag/cell

     iteration # 38     ecut=    40.00 Ry     beta=0.70
     Davidson diagonalization with overlap
     ethr =  1.08E-09,  avg # of iterations =  1.6

     negative rho (up, down):  0.153E-02 0.129E-02

     total cpu time spent up to now is    10463.6 secs

     total energy              =   -2352.06879588 Ry
     Harris-Foulkes estimate   =   -2352.06879648 Ry
     estimated scf accuracy    <       0.00000319 Ry

     total magnetization       =    23.00 Bohr mag/cell
     absolute magnetization    =    36.57 Bohr mag/cell

     iteration # 39     ecut=    40.00 Ry     beta=0.70
     Davidson diagonalization with overlap
     ethr =  1.08E-09,  avg # of iterations =  1.0

     negative rho (up, down):  0.153E-02 0.129E-02

     total cpu time spent up to now is    10691.9 secs

     total energy              =   -2352.06879594 Ry
     Harris-Foulkes estimate   =   -2352.06879660 Ry
     estimated scf accuracy    <       0.00000460 Ry

     total magnetization       =    23.00 Bohr mag/cell
     absolute magnetization    =    36.57 Bohr mag/cell

     iteration # 40     ecut=    40.00 Ry     beta=0.70
     Davidson diagonalization with overlap
     ethr =  1.08E-09,  avg # of iterations =  1.0

     negative rho (up, down):  0.153E-02 0.129E-02

     total cpu time spent up to now is    10922.3 secs

     End of self-consistent calculation
 --- enter write_ns ---
 LDA+U parameters:
U( 2)     =  6.00000000
alpha( 2) =  0.00000000
atom    3   Tr[ns(na)] (up, down, total) =   4.45624  0.90248  5.35872
   spin  1
    eigenvalues: 
  0.710  0.744  0.999  1.000  1.003
    eigenvectors:
  0.245  0.000  0.004  0.629  0.121
  0.001  0.998  0.001  0.000  0.000
  0.000  0.000  0.004  0.154  0.842
  0.754  0.001  0.001  0.209  0.036
  0.000  0.001  0.990  0.008  0.001
    occupations:
  0.929  0.001 -0.002 -0.125  0.000
  0.001  0.744  0.000 -0.002 -0.007
 -0.002  0.000  1.002 -0.002  0.000
 -0.125 -0.002 -0.002  0.782  0.000
  0.000 -0.007  0.000  0.000  0.999
   spin  2
    eigenvalues: 
  0.072  0.090  0.101  0.306  0.333
    eigenvectors:
  0.775  0.000  0.003  0.000  0.222
  0.000  0.002  0.000  0.998  0.001
  0.005  0.000  0.995  0.000  0.000
  0.221  0.000  0.002  0.000  0.777
  0.000  0.998  0.000  0.002  0.000
    occupations:
  0.130 -0.000 -0.003  0.109  0.000
 -0.000  0.306 -0.000  0.001  0.009
 -0.003 -0.000  0.101 -0.001  0.000
  0.109  0.001 -0.001  0.275 -0.000
  0.000  0.009  0.000 -0.000  0.090
atomic mag. moment =     3.553762
atom    4   Tr[ns(na)] (up, down, total) =   4.45216  0.89715  5.34931
   spin  1
    eigenvalues: 
  0.694  0.752  0.997  1.004  1.005
    eigenvectors:
  0.000  0.998  0.001  0.001  0.000
  0.000  0.001  0.000  0.760  0.240
  0.000  0.001  0.000  0.239  0.760
  0.000  0.001  0.999  0.000  0.000
  1.000  0.000  0.000  0.000  0.000
    occupations:
  0.753 -0.007 -0.006  0.007 -0.001
 -0.007  1.004 -0.001  0.000  0.003
 -0.006 -0.001  1.004  0.000 -0.000
  0.007  0.000  0.000  0.997 -0.000
 -0.001  0.003 -0.000 -0.000  0.694
   spin  2
    eigenvalues: 
  0.075  0.089  0.096  0.297  0.340
    eigenvectors:
  0.006  0.002  0.000  0.993  0.000
  0.003  0.488  0.507  0.001  0.001
  0.006  0.500  0.493  0.001  0.000
  0.984  0.010  0.000  0.005  0.000
  0.000  0.000  0.001  0.000  0.999
    occupations:
  0.296  0.008  0.006 -0.016  0.000
  0.008  0.093 -0.004  0.000 -0.007
  0.006 -0.004  0.092  0.001  0.000
 -0.016  0.000  0.001  0.076 -0.000
  0.000 -0.007  0.000 -0.000  0.340
atomic mag. moment =     3.555013
atom    9   Tr[ns(na)] (up, down, total) =   4.43193  0.94478  5.37671
   spin  1
    eigenvalues: 
  0.722  0.731  0.987  0.992  1.000
    eigenvectors:
  0.231  0.000  0.000  0.000  0.769
  0.000  1.000  0.000  0.000  0.000
  0.000  0.000  0.000  1.000  0.000
  0.769  0.000  0.000  0.000  0.231
  0.000  0.000  1.000  0.000  0.000
    occupations:
  0.936 -0.000 -0.001 -0.117 -0.000
 -0.000  0.731  0.000  0.000  0.000
 -0.001  0.000  0.992 -0.001  0.000
 -0.117  0.000 -0.001  0.786  0.000
 -0.000  0.000  0.000  0.000  0.987
   spin  2
    eigenvalues: 
  0.082  0.094  0.100  0.332  0.337
    eigenvectors:
  0.807  0.000  0.000  0.193  0.000
  0.000  0.000  0.000  0.002  0.998
  0.000  0.000  1.000  0.000  0.000
  0.193  0.000  0.000  0.805  0.001
  0.000  1.000  0.000  0.000  0.000
    occupations:
  0.130  0.000  0.001  0.099 -0.000
  0.000  0.337 -0.000 -0.000 -0.000
  0.001 -0.000  0.100  0.002 -0.000
  0.099 -0.000  0.002  0.283 -0.000
 -0.000 -0.000 -0.000 -0.000  0.094
atomic mag. moment =     3.487145
atom   10   Tr[ns(na)] (up, down, total) =   4.65755  0.62688  5.28443
   spin  1
    eigenvalues: 
  0.703  0.958  0.999  0.999  0.999
    eigenvectors:
  0.000  0.949  0.035  0.015  0.001
  0.000  0.000  0.291  0.705  0.004
  0.000  0.000  0.027  0.001  0.972
  0.000  0.051  0.647  0.279  0.024
  1.000  0.000  0.000  0.000  0.000
    occupations:
  0.960 -0.000  0.000  0.009  0.000
 -0.000  0.999  0.000  0.000 -0.002
  0.000  0.000  0.999 -0.000  0.000
  0.009  0.000 -0.000  0.997 -0.000
  0.000 -0.002  0.000 -0.000  0.703
   spin  2
    eigenvalues: 
  0.063  0.068  0.076  0.131  0.289
    eigenvectors:
  0.041  0.000  0.000  0.959  0.000
  0.000  0.000  1.000  0.000  0.000
  0.001  0.999  0.000  0.000  0.000
  0.958  0.001  0.000  0.041  0.000
  0.000  0.000  0.000  0.000  1.000
    occupations:
  0.128  0.000 -0.000 -0.013 -0.000
  0.000  0.076 -0.000 -0.000  0.002
 -0.000 -0.000  0.068 -0.000 -0.000
 -0.013 -0.000 -0.000  0.066  0.000
 -0.000  0.002 -0.000  0.000  0.289
atomic mag. moment =     4.030677
atom   16   Tr[ns(na)] (up, down, total) =   4.45625  0.90239  5.35865
   spin  1
    eigenvalues: 
  0.710  0.744  0.999  1.000  1.003
    eigenvectors:
  0.245  0.001  0.001  0.634  0.120
  0.002  0.997  0.001  0.000  0.000
  0.000  0.000  0.000  0.154  0.845
  0.753  0.001  0.000  0.210  0.035
  0.000  0.001  0.998  0.002  0.000
    occupations:
  0.929 -0.001 -0.002 -0.125  0.000
 -0.001  0.744 -0.000  0.002 -0.007
 -0.002 -0.000  1.002 -0.002 -0.000
 -0.125  0.002 -0.002  0.781  0.000
  0.000 -0.007 -0.000  0.000  0.999
   spin  2
    eigenvalues: 
  0.072  0.090  0.101  0.306  0.333
    eigenvectors:
  0.774  0.000  0.003  0.000  0.222
  0.000  0.002  0.000  0.997  0.001
  0.005  0.001  0.995  0.000  0.000
  0.221  0.000  0.002  0.001  0.777
  0.000  0.998  0.001  0.002  0.000
    occupations:
  0.130  0.000 -0.003  0.109 -0.000
  0.000  0.306  0.000 -0.001  0.009
 -0.003  0.000  0.101 -0.001 -0.000
  0.109 -0.001 -0.001  0.275 -0.000
 -0.000  0.009 -0.000 -0.000  0.090
atomic mag. moment =     3.553859
atom   17   Tr[ns(na)] (up, down, total) =   4.45221  0.89730  5.34951
   spin  1
    eigenvalues: 
  0.694  0.753  0.997  1.004  1.005
    eigenvectors:
  0.000  0.998  0.001  0.001  0.000
  0.000  0.001  0.000  0.763  0.236
  0.000  0.001  0.000  0.236  0.764
  0.000  0.001  0.999  0.000  0.000
  1.000  0.000  0.000  0.000  0.000
    occupations:
  0.753 -0.007 -0.006  0.007 -0.001
 -0.007  1.004 -0.001  0.000  0.003
 -0.006 -0.001  1.004  0.000 -0.000
  0.007  0.000  0.000  0.997 -0.000
 -0.001  0.003 -0.000 -0.000  0.694
   spin  2
    eigenvalues: 
  0.075  0.088  0.096  0.297  0.340
    eigenvectors:
  0.006  0.002  0.000  0.993  0.000
  0.004  0.483  0.512  0.001  0.001
  0.007  0.505  0.488  0.001  0.000
  0.984  0.011  0.000  0.005  0.000
  0.000  0.000  0.000  0.000  0.999
    occupations:
  0.296  0.008  0.006 -0.016  0.000
  0.008  0.093 -0.004  0.000 -0.007
  0.006 -0.004  0.092  0.001  0.000
 -0.016  0.000  0.001  0.076 -0.000
  0.000 -0.007  0.000 -0.000  0.340
atomic mag. moment =     3.554906
atom   22   Tr[ns(na)] (up, down, total) =   4.43193  0.94475  5.37668
   spin  1
    eigenvalues: 
  0.722  0.731  0.987  0.992  1.000
    eigenvectors:
  0.229  0.001  0.000  0.000  0.769
  0.006  0.994  0.000  0.000  0.000
  0.000  0.000  0.000  1.000  0.000
  0.764  0.005  0.000  0.000  0.231
  0.000  0.000  1.000  0.000  0.000
    occupations:
  0.936  0.001 -0.001 -0.117  0.000
  0.001  0.731  0.000  0.000  0.000
 -0.001  0.000  0.992 -0.001 -0.000
 -0.117  0.000 -0.001  0.786  0.000
  0.000  0.000 -0.000  0.000  0.987
   spin  2
    eigenvalues: 
  0.082  0.094  0.100  0.332  0.337
    eigenvectors:
  0.807  0.000  0.000  0.193  0.000
  0.000  0.000  0.000  0.001  0.999
  0.000  0.000  1.000  0.000  0.000
  0.193  0.000  0.000  0.806  0.001
  0.000  1.000  0.000  0.000  0.000
    occupations:
  0.130 -0.000  0.001  0.099  0.000
 -0.000  0.337 -0.000  0.000 -0.000
  0.001 -0.000  0.100  0.002  0.000
  0.099  0.000  0.002  0.283  0.000
  0.000 -0.000  0.000  0.000  0.094
atomic mag. moment =     3.487175
atom   23   Tr[ns(na)] (up, down, total) =   4.64390  0.63917  5.28307
   spin  1
    eigenvalues: 
  0.694  0.952  0.999  0.999  0.999
    eigenvectors:
  0.000  0.958  0.040  0.001  0.000
  0.000  0.000  0.000  0.008  0.992
  0.000  0.000  0.053  0.939  0.007
  0.000  0.042  0.906  0.052  0.000
  1.000  0.000  0.000  0.000  0.000
    occupations:
  0.954 -0.000  0.001  0.009 -0.000
 -0.000  0.999  0.000  0.000 -0.002
  0.001  0.000  0.999 -0.000  0.000
  0.009  0.000 -0.000  0.997  0.000
 -0.000 -0.002  0.000  0.000  0.694
   spin  2
    eigenvalues: 
  0.065  0.066  0.074  0.136  0.299
    eigenvectors:
  0.015  0.022  0.000  0.963  0.000
  0.000  0.000  1.000  0.000  0.000
  0.629  0.371  0.000  0.000  0.000
  0.356  0.607  0.000  0.037  0.000
  0.000  0.000  0.000  0.000  1.000
    occupations:
  0.133  0.000 -0.001 -0.013  0.000
  0.000  0.074 -0.000  0.000  0.002
 -0.001 -0.000  0.065 -0.000  0.000
 -0.013  0.000 -0.000  0.068 -0.000
  0.000  0.002  0.000 -0.000  0.299
atomic mag. moment =     4.004722
N of occupied +U levels =  42.7370670
 --- exit write_ns ---

 ------ SPIN UP ------------


          k = 0.0000 0.0000 0.0000 ( 26393 PWs)   bands (ev):

   -83.4930 -83.4834 -83.4250 -83.4145 -83.3643 -83.3545 -83.0407 -83.0253
   -52.2630 -52.2200 -52.1724 -52.1600 -52.1549 -52.1180 -52.1101 -52.1089
   -52.1013 -52.0976 -52.0929 -52.0561 -52.0471 -52.0108 -52.0014 -51.9974
   -51.9866 -51.9698 -51.8587 -51.7419 -51.7400 -51.7214 -51.6705 -51.6441
   -25.2258 -20.7153 -20.1408 -20.0905 -19.9761 -19.2184 -19.2005 -19.0746
   -19.0603 -18.8392 -18.8351 -18.7646 -18.7050 -18.6693 -18.6326 -18.5381
   -18.3757 -17.8886 -17.8138 -16.6525 -10.2884  -9.8826  -9.6780  -9.4363
    -9.3549  -9.2494  -9.0907  -9.0656  -8.9843  -8.7562  -8.4048  -8.2686
    -8.2012  -8.1871  -8.1729  -7.9068  -7.7690  -7.7378  -7.7164  -7.6327
    -7.5209  -7.4848  -7.4799  -7.3591  -7.2929  -7.2790  -7.2081  -7.1093
    -6.9747  -6.9497  -6.9145  -6.8048  -6.7373  -6.6630  -6.5920  -6.5662
    -6.4566  -6.3770  -6.2799  -6.1674  -6.1308  -6.1169  -5.9122  -5.5779
    -5.5705  -5.3137  -5.0767  -5.0614  -5.0357  -4.8316  -4.7664  -4.6615
    -4.4225  -4.4183  -4.2481  -4.1962  -4.0833  -3.9318  -3.8047  -3.7006
    -3.6142  -3.4606  -3.3298  -3.1739  -3.0996  -2.6960  -2.6333  -2.5259
    -2.4053  -2.3802  -2.3146  -2.1821  -2.1457  -2.1203  -2.0833  -1.9914
    -1.8843  -1.8423  -1.7641  -1.6766  -1.4784  -1.4144  -1.1560  -1.0714
    -0.9476  -0.6275  -0.5643  -0.1528  -0.1073   0.0083   0.1656   0.3117
     0.3725   0.4226   0.8899   0.9640   0.9839   1.0566   1.2072   2.5789
     3.5139   3.8241   4.3704   4.8084   5.1248   5.6639   6.0376   6.2193
     6.9382   6.9565   7.1093   7.3737   7.3821   7.4737   7.5975   7.6195
     7.7129   7.8669   8.0794   8.1494   8.2642   8.2768   8.3562   8.6065
     8.7558   8.9450   8.9738   9.0506   9.0543   9.1698   9.3053   9.3956
     9.4448   9.6670   9.6711   9.7698   9.8740  10.0054  10.0287  10.0462
    10.2520  10.4711  10.5261  10.5651  10.7595  10.7850  11.0024  11.1123
    11.1913  11.2312  11.3202  11.4117  11.4884  11.5204  11.6494  11.7113
    11.7473  11.8361  12.0197  12.0871  12.1319  12.1681  12.2883  12.3760
    12.4290  12.4665  12.5560  12.6306  12.6469  12.7140  12.7226  12.7713
    12.8187  12.9752  13.0827  13.1489  13.1910  13.2343  13.3385  13.4580
    13.4809  13.6453  13.6632  13.6984  13.7452  13.7818  13.8173  13.9251
    14.1067  14.1642  14.2498  14.2955  14.4519  14.4837  14.5543  14.5962
    14.6696  14.6875  14.9773  15.0333  15.0737  15.1333  15.2938  15.3276
    15.5138  15.5325  15.5718  15.6211  15.8302  15.8799  16.1121  16.1259
    16.1561  16.3069  16.3590  16.5241  16.5493  16.7186  16.7284  16.8158
    16.8876  16.9174  17.0667  17.3417  17.3773  17.4740  17.5651  17.6592
    17.8558  17.9377  17.9961  18.0500  18.0701  18.2473  18.3539  18.4311
    18.5015  18.5982  18.6540  18.6922  18.7715  18.7892  19.0048  19.0898
    19.1018  19.2225  19.3403  19.3561  19.5110  19.5235  19.5289  19.6238
    19.7058  19.7553  19.8859  19.9695  20.0638  20.1243  20.1731  20.2067
    20.2812  20.3345  20.4467  20.6332  20.6931  20.6981  20.7993  21.0008
    21.0219  21.1200  21.2301  21.2925  21.3886  21.3983  21.4753  21.5933
    21.6353  21.6592  21.7177  21.7266  21.7831  21.8405  22.0256  22.0470
    22.1911  22.2519  22.3346  22.3479  22.3878  22.4790  22.5400  22.5526
    22.6947  22.7339  22.8152  22.8528  22.8784  22.9432  23.0471  23.0502
    23.1284  23.1680  23.1826

          k = 0.0000 0.2303 0.0000 ( 26455 PWs)   bands (ev):

   -83.4930 -83.4834 -83.4249 -83.4146 -83.3643 -83.3545 -83.0407 -83.0254
   -52.2630 -52.2207 -52.1707 -52.1591 -52.1550 -52.1179 -52.1119 -52.1089
   -52.1013 -52.0981 -52.0927 -52.0560 -52.0471 -52.0108 -52.0014 -51.9975
   -51.9866 -51.9699 -51.8585 -51.7420 -51.7404 -51.7212 -51.6705 -51.6441
   -25.2257 -20.6359 -20.0904 -20.0381 -19.9403 -19.3411 -19.2065 -19.1121
   -19.0948 -18.9433 -18.9372 -18.8065 -18.6983 -18.6316 -18.5761 -18.5140
   -18.3880 -17.8872 -17.7795 -16.6521 -10.0234  -9.7342  -9.7218  -9.6275
    -9.3834  -9.3058  -9.2995  -9.0836  -8.9208  -8.6590  -8.1950  -8.1863
    -8.0047  -7.9996  -7.8905  -7.7835  -7.7431  -7.7169  -7.6708  -7.5861
    -7.5288  -7.5191  -7.4620  -7.3712  -7.3510  -7.2854  -7.2597  -7.2274
    -7.1017  -6.9846  -6.9750  -6.8286  -6.8108  -6.7230  -6.6829  -6.6262
    -6.5479  -6.4095  -6.3784  -6.2923  -6.1163  -5.9531  -5.8911  -5.5648
    -5.3529  -5.3033  -5.1070  -5.0758  -4.9628  -4.8345  -4.7316  -4.6680
    -4.6125  -4.4967  -4.4818  -4.2574  -4.1216  -3.9833  -3.7673  -3.5762
    -3.5043  -3.3825  -3.2651  -3.1378  -2.9043  -2.8727  -2.6862  -2.6714
    -2.5485  -2.4919  -2.3519  -2.2552  -2.1511  -2.1412  -2.0829  -2.0067
    -1.9992  -1.8600  -1.7790  -1.7049  -1.6827  -1.4204  -1.2636  -1.1674
    -1.0984  -0.7181  -0.5431  -0.5089  -0.4807  -0.1313   0.3774   0.4151
     0.8501   0.9192   0.9537   1.0597   1.0887   1.2035   1.3220   2.7632
     3.7436   4.0875   4.5469   4.6665   5.2137   5.4540   5.7646   5.9219
     6.1487   6.4112   6.6093   6.9100   7.3273   7.5963   7.6119   7.8107
     7.8282   8.1872   8.2508   8.3190   8.4388   8.4906   8.6485   8.7978
     8.9741   9.0269   9.1282   9.1821   9.3247   9.3929   9.5124   9.5281
     9.6622   9.6699   9.6909   9.7920   9.9131  10.0174  10.0450  10.2585
    10.3393  10.3712  10.4195  10.5525  10.5976  10.6147  10.7765  10.8568
    10.9597  11.0142  11.1207  11.2065  11.3613  11.4085  11.5460  11.5607
    11.6450  11.6809  11.7462  11.8409  12.0146  12.0759  12.1718  12.5368
    12.5481  12.5582  12.6942  12.8127  12.8662  12.8904  13.0395  13.0648
    13.2349  13.2980  13.3786  13.4539  13.4764  13.5211  13.6286  13.7246
    13.7676  13.8858  13.9326  13.9775  14.0340  14.1277  14.1575  14.2677
    14.3607  14.4502  14.4870  14.5059  14.5931  14.7087  14.7357  14.7435
    14.8583  14.9433  15.0524  15.1220  15.1674  15.2925  15.3390  15.3427
    15.3632  15.4731  15.5276  15.5971  15.7807  15.8020  15.8802  15.9904
    16.0326  16.1133  16.1490  16.1886  16.3817  16.4833  16.5089  16.6513
    16.7178  16.8884  16.9494  17.0740  17.1042  17.2197  17.3318  17.3984
    17.4673  17.6118  17.6913  17.7108  17.9507  18.0226  18.0492  18.1594
    18.2776  18.3132  18.5070  18.5660  18.6550  18.6682  18.8667  19.0056
    19.0340  19.1971  19.2786  19.3275  19.3927  19.4339  19.4980  19.5196
    19.5564  19.6675  19.7046  19.7924  19.8037  19.8952  20.0729  20.1191
    20.2229  20.2567  20.3239  20.4046  20.4583  20.5235  20.5728  20.7531
    20.7881  20.8333  20.8749  20.9925  21.0205  21.1282  21.2611  21.3182
    21.4196  21.4667  21.5197  21.6288  21.7304  21.7748  21.7899  21.8569
    21.8838  22.0333  22.1196  22.1718  22.2547  22.3336  22.3564  22.3716
    22.4522  22.4861  22.5583  22.5892  22.6827  22.7010  22.8739  22.9141
    22.9514  23.0168  23.0833

          k = 0.0000-0.4606 0.0000 ( 26364 PWs)   bands (ev):

   -83.4929 -83.4834 -83.4249 -83.4146 -83.3642 -83.3546 -83.0407 -83.0254
   -52.2630 -52.2212 -52.1687 -52.1582 -52.1548 -52.1175 -52.1141 -52.1088
   -52.1012 -52.0984 -52.0923 -52.0557 -52.0471 -52.0107 -52.0013 -51.9975
   -51.9865 -51.9698 -51.8581 -51.7419 -51.7408 -51.7210 -51.6704 -51.6441
   -25.2257 -20.5420 -20.0821 -20.0122 -19.7259 -19.4247 -19.4127 -19.1796
   -19.1420 -19.1331 -18.8699 -18.7804 -18.6873 -18.6180 -18.5560 -18.4951
   -18.4032 -17.8860 -17.7515 -16.6517  -9.9103  -9.7485  -9.5717  -9.5546
    -9.5370  -9.3502  -9.3441  -9.0694  -8.6334  -8.5455  -8.3422  -8.2002
    -7.8778  -7.8706  -7.7997  -7.6998  -7.6840  -7.6726  -7.6620  -7.5921
    -7.4847  -7.4515  -7.3515  -7.3271  -7.3200  -7.3135  -7.2424  -7.1813
    -7.1581  -7.1337  -7.0572  -6.9366  -6.9017  -6.8568  -6.6537  -6.5817
    -6.5338  -6.4785  -6.4390  -6.4353  -6.1479  -6.1156  -5.5773  -5.4631
    -5.3547  -5.2719  -5.1830  -5.1216  -5.0743  -5.0467  -4.9461  -4.6289
    -4.5631  -4.4587  -4.3771  -4.3368  -4.1417  -4.0187  -3.6752  -3.5734
    -3.4379  -3.2870  -3.1761  -3.1306  -2.9676  -2.8609  -2.7148  -2.6670
    -2.6148  -2.4702  -2.4390  -2.3552  -2.2959  -2.2040  -2.0660  -2.0107
    -1.9970  -1.9404  -1.9314  -1.9045  -1.8892  -1.5285  -1.4429  -1.1753
    -1.0624  -1.0593  -0.5943  -0.4616  -0.1495  -0.1178   0.4047   0.6690
     0.7525   0.9151   0.9489   0.9568   1.0681   1.6579   1.7335   3.0740
     3.9480   4.4494   4.5220   4.7416   4.9002   5.2125   5.3844   5.6672
     5.9346   6.2362   6.5044   7.0384   7.1504   7.2628   7.5054   8.0482
     8.0739   8.0943   8.2469   8.3221   8.5549   8.6347   8.6983   8.7782
     8.9542   9.0354   9.1606   9.2571   9.3285   9.4092   9.4331   9.5125
     9.5732   9.6825   9.8329   9.8495   9.8771  10.0650  10.0977  10.1832
    10.2658  10.3138  10.4636  10.6094  10.6607  10.7532  10.7718  10.9162
    11.0777  11.2806  11.3248  11.4135  11.4453  11.5116  11.6085  11.6766
    11.9009  11.9068  12.0670  12.2094  12.2459  12.3018  12.3609  12.4037
    12.5903  12.6085  12.6759  12.7942  12.9158  12.9471  13.0479  13.0804
    13.2035  13.2920  13.4046  13.4332  13.4544  13.5688  13.5896  13.6340
    13.6862  13.7751  13.8937  13.9773  14.0148  14.1073  14.1360  14.3171
    14.3395  14.4474  14.5503  14.5973  14.6767  14.7128  14.7434  14.9485
    14.9808  14.9942  14.9988  15.0577  15.1535  15.2049  15.3496  15.3811
    15.5356  15.5772  15.6261  15.7595  15.9704  15.9940  16.0771  16.1047
    16.2986  16.3448  16.4840  16.5817  16.6687  16.7320  16.8297  16.8617
    16.9694  17.0313  17.0346  17.1194  17.1717  17.2011  17.3360  17.3657
    17.4503  17.4982  17.6357  17.6950  17.7980  17.8097  17.9601  17.9692
    18.0821  18.1095  18.1155  18.2645  18.2923  18.3670  18.5419  18.6216
    18.6694  18.7093  18.7492  18.8452  18.9371  18.9594  18.9847  19.1628
    19.2338  19.2427  19.2771  19.3528  19.5887  19.7493  19.8458  19.9120
    19.9465  19.9881  20.0310  20.1164  20.1569  20.2649  20.2916  20.3152
    20.3641  20.5542  20.6370  20.7331  20.7511  20.8634  20.9032  21.0362
    21.1083  21.1378  21.3072  21.3837  21.4198  21.5824  21.6214  21.6765
    21.7104  21.8194  21.9133  22.0761  22.1590  22.2651  22.3315  22.3626
    22.4103  22.4671  22.5253  22.5369  22.5422  22.6171  22.7694  22.8020
    22.8257  22.8702  22.9836

          k = 0.2500 0.0000 0.0000 ( 26392 PWs)   bands (ev):

   -83.4913 -83.4844 -83.4231 -83.4157 -83.3626 -83.3556 -83.0394 -83.0258
   -52.2477 -52.2031 -52.1715 -52.1705 -52.1618 -52.1207 -52.1153 -52.1037
   -52.1034 -52.0950 -52.0931 -52.0548 -52.0484 -52.0145 -52.0093 -52.0027
   -51.9841 -51.9723 -51.8424 -51.7597 -51.7379 -51.7236 -51.6700 -51.6445
   -25.2258 -20.6017 -20.1486 -20.0103 -19.8890 -19.3984 -19.2440 -19.1274
   -19.0151 -18.8091 -18.7954 -18.7542 -18.7275 -18.6908 -18.6621 -18.5526
   -18.3915 -17.9324 -17.8568 -16.6522 -10.0374  -9.6454  -9.4820  -9.3516
    -9.3354  -9.0125  -8.9331  -8.8765  -8.8535  -8.7370  -8.5934  -8.4858
    -8.3107  -8.2746  -8.1506  -7.9570  -7.9149  -7.8782  -7.7839  -7.6736
    -7.5895  -7.5675  -7.4878  -7.4661  -7.3656  -7.3355  -7.2485  -7.1247
    -7.1123  -7.0694  -7.0124  -6.9552  -6.7228  -6.7095  -6.6034  -6.5016
    -6.4596  -6.4195  -6.3274  -6.1992  -6.1486  -6.1224  -5.8360  -5.7385
    -5.6410  -5.5007  -5.0761  -5.0430  -5.0053  -4.8579  -4.8028  -4.4398
    -4.2239  -4.1563  -3.9814  -3.9192  -3.8988  -3.8045  -3.7359  -3.6025
    -3.4777  -3.4373  -3.4198  -3.1837  -3.0439  -2.8338  -2.6423  -2.5828
    -2.4247  -2.3661  -2.2784  -2.2540  -2.2196  -2.1997  -2.1494  -2.0318
    -1.9032  -1.7875  -1.6881  -1.6591  -1.5216  -1.5144  -1.4684  -1.2795
    -0.7463  -0.6390  -0.5879  -0.2236  -0.0177  -0.0032   0.1923   0.2375
     0.3398   0.4630   0.5691   0.8239   0.8283   0.8936   1.0545   2.8237
     3.7943   4.1371   4.6500   4.8987   5.3493   5.3898   5.9929   6.2045
     6.3297   6.4459   6.7096   6.9815   7.2018   7.3244   7.4928   7.6825
     7.7390   7.8246   7.9205   8.1300   8.3292   8.4922   8.5599   8.6689
     8.7762   8.8982   8.9934   9.1907   9.2530   9.4019   9.4926   9.5342
     9.5980   9.7145   9.8052   9.9875  10.0334  10.1070  10.1400  10.2526
    10.3423  10.4166  10.4338  10.5929  10.6778  10.7120  10.7483  10.8441
    10.9918  11.0333  11.0567  11.1962  11.3788  11.4419  11.5616  11.6379
    11.6591  11.7198  11.7791  11.8880  11.9735  12.0747  12.1864  12.5380
    12.5577  12.6757  12.7362  12.8353  12.9019  12.9391  13.0054  13.0219
    13.0615  13.1729  13.3658  13.4105  13.5076  13.5433  13.5929  13.7569
    13.8486  13.8677  13.9565  14.0177  14.0980  14.1854  14.3545  14.3708
    14.4409  14.5127  14.5900  14.6582  14.7553  14.7758  14.8552  14.8904
    15.0119  15.0720  15.1496  15.2912  15.3413  15.4662  15.5212  15.5871
    15.6516  15.7952  15.8231  15.9065  15.9868  16.0120  16.1662  16.2272
    16.2860  16.3748  16.4198  16.5409  16.5927  16.7921  16.8309  16.8832
    16.9714  17.0804  17.1253  17.2159  17.2644  17.3689  17.4669  17.5655
    17.6406  17.7438  17.8175  17.9250  18.0384  18.1338  18.1803  18.2947
    18.3181  18.4490  18.5069  18.5571  18.6129  18.7178  18.7685  18.8021
    18.9625  19.0435  19.1252  19.2325  19.3251  19.3564  19.4315  19.5478
    19.5638  19.6939  19.7319  19.8033  19.9086  20.0173  20.0896  20.1322
    20.1464  20.2160  20.2902  20.3734  20.4078  20.4677  20.5410  20.6019
    20.6873  20.7321  20.8635  20.8735  20.9539  21.0490  21.1062  21.1408
    21.1630  21.3030  21.3719  21.4383  21.4690  21.5434  21.5990  21.6329
    21.7201  21.7741  21.8502  21.8942  21.9382  21.9636  21.9896  22.0264
    22.0721  22.1797  22.2122  22.2604  22.3283  22.3623  22.4170  22.4676
    22.5883  22.6034  22.6691

          k = 0.2500 0.2303 0.0000 ( 26396 PWs)   bands (ev):

   -83.4912 -83.4844 -83.4231 -83.4157 -83.3625 -83.3556 -83.0394 -83.0259
   -52.2477 -52.2040 -52.1714 -52.1691 -52.1603 -52.1213 -52.1153 -52.1045
   -52.1037 -52.0951 -52.0931 -52.0547 -52.0484 -52.0145 -52.0094 -52.0028
   -51.9842 -51.9723 -51.8422 -51.7596 -51.7382 -51.7234 -51.6700 -51.6446
   -25.2257 -20.5372 -20.1424 -19.9297 -19.8201 -19.3880 -19.2074 -19.1545
   -19.0524 -19.0241 -18.9389 -18.8610 -18.7328 -18.6520 -18.5716 -18.5285
   -18.3999 -17.9312 -17.8278 -16.6518  -9.7882  -9.5250  -9.5023  -9.4157
    -9.3400  -9.1470  -9.0905  -8.8980  -8.7628  -8.5569  -8.4425  -8.3557
    -8.1591  -8.1475  -7.9999  -7.9716  -7.9319  -7.7486  -7.7060  -7.6258
    -7.5944  -7.5536  -7.4597  -7.4301  -7.4007  -7.3416  -7.2751  -7.2041
    -7.1047  -7.0887  -6.9979  -6.9674  -6.9407  -6.7842  -6.6782  -6.6167
    -6.5831  -6.5401  -6.3454  -6.3306  -6.1928  -6.1237  -6.0499  -5.7922
    -5.6106  -5.3059  -5.0081  -4.9839  -4.9015  -4.8665  -4.5925  -4.4412
    -4.3890  -4.2603  -4.1044  -3.9435  -3.9150  -3.8480  -3.7212  -3.6329
    -3.6135  -3.3445  -3.3079  -3.1092  -3.0775  -2.8493  -2.7409  -2.5980
    -2.5355  -2.4962  -2.4152  -2.2893  -2.2538  -2.1301  -2.0850  -2.0088
    -1.8793  -1.8527  -1.8258  -1.7366  -1.6331  -1.4626  -1.4167  -1.2280
    -1.0230  -0.6456  -0.5188  -0.3957  -0.3860  -0.2090   0.0532   0.3601
     0.4755   0.7046   0.7531   0.8600   1.1288   1.1955   1.2502   2.9980
     4.0201   4.3829   4.7251   4.9349   5.3178   5.5709   5.7977   6.1393
     6.1975   6.3759   6.4766   6.6104   6.7265   6.9810   7.1172   7.4701
     7.6268   7.7451   7.8913   7.9913   8.2794   8.3649   8.4713   8.6529
     8.7423   8.8417   8.9124   9.0015   9.2466   9.3583   9.5157   9.5799
     9.6360   9.8199   9.8490  10.0192  10.0750  10.1468  10.1924  10.3579
    10.5496  10.6796  10.7391  10.7981  10.8524  11.0392  11.1168  11.2075
    11.2641  11.4202  11.4608  11.5240  11.6245  11.6625  11.8085  11.8648
    11.9467  12.0451  12.1186  12.2396  12.2702  12.3746  12.4313  12.4995
    12.6198  12.8227  12.9099  12.9445  13.0426  13.0710  13.1061  13.2004
    13.2423  13.2917  13.4078  13.4275  13.5229  13.5878  13.6550  13.7235
    13.8203  13.8429  13.9741  14.0213  14.1277  14.1974  14.2171  14.2819
    14.3519  14.4117  14.4877  14.5502  14.6467  14.7440  14.8288  14.8914
    14.9616  15.0558  15.1316  15.1820  15.3030  15.4491  15.5070  15.5694
    15.6536  15.7244  15.8087  15.8957  15.9818  16.0802  16.1332  16.2476
    16.3204  16.3769  16.4710  16.5105  16.6104  16.6443  16.7472  16.8373
    16.8931  16.9652  17.0097  17.0736  17.1294  17.2175  17.3123  17.4168
    17.4352  17.5674  17.6072  17.6289  17.7589  17.8399  17.8878  17.9756
    18.0576  18.1031  18.2011  18.2388  18.3130  18.3807  18.4994  18.5761
    18.6441  18.6702  18.7547  18.8416  18.9468  19.0071  19.0848  19.1186
    19.2054  19.3049  19.3781  19.4266  19.5247  19.6177  19.7574  19.7707
    19.8681  19.8856  19.9730  19.9954  20.0385  20.1018  20.2189  20.2535
    20.2973  20.3844  20.4547  20.5341  20.5949  20.6821  20.7970  20.9198
    20.9811  21.1168  21.1397  21.2128  21.2706  21.3994  21.4592  21.5561
    21.6131  21.6582  21.7418  21.8428  21.8799  21.9888  22.0195  22.1455
    22.1892  22.2877  22.3252  22.4414  22.5028  22.6111  22.6686  22.7391
    22.8105  22.8359  22.8912

          k = 0.2500-0.4606 0.0000 ( 26462 PWs)   bands (ev):

   -83.4912 -83.4844 -83.4231 -83.4158 -83.3625 -83.3556 -83.0394 -83.0259
   -52.2478 -52.2048 -52.1715 -52.1676 -52.1593 -52.1212 -52.1151 -52.1064
   -52.1037 -52.0952 -52.0932 -52.0545 -52.0485 -52.0145 -52.0094 -52.0028
   -51.9842 -51.9724 -51.8420 -51.7597 -51.7385 -51.7234 -51.6701 -51.6446
   -25.2257 -20.4664 -20.1352 -19.8743 -19.5992 -19.3741 -19.3466 -19.2061
   -19.1600 -19.0848 -19.0596 -18.9306 -18.7139 -18.6367 -18.5461 -18.5130
   -18.4097 -17.9303 -17.8040 -16.6514  -9.6608  -9.5450  -9.3480  -9.3369
    -9.3116  -9.3003  -9.1497  -8.8790  -8.5697  -8.4157  -8.3108  -8.2289
    -8.0333  -7.9668  -7.8992  -7.8744  -7.8242  -7.7575  -7.6871  -7.6479
    -7.5793  -7.5263  -7.5189  -7.4678  -7.4195  -7.3953  -7.3747  -7.3280
    -7.2813  -7.2515  -7.1685  -7.0776  -7.0416  -6.8107  -6.7087  -6.6404
    -6.5201  -6.4802  -6.2759  -6.2265  -6.1246  -6.1193  -6.0159  -5.7986
    -5.7272  -5.4678  -5.1732  -4.9422  -4.9031  -4.7388  -4.7368  -4.6055
    -4.4694  -4.3117  -4.2608  -4.0942  -3.8533  -3.6897  -3.6047  -3.5667
    -3.4989  -3.3011  -3.2083  -3.1970  -2.9364  -2.8691  -2.8610  -2.6967
    -2.5878  -2.5770  -2.4240  -2.2728  -2.2158  -2.1517  -2.0944  -2.0069
    -1.9567  -1.9174  -1.8680  -1.8219  -1.7384  -1.5037  -1.4658  -1.2254
    -1.1357  -0.9542  -0.6051  -0.4250  -0.2164  -0.0843   0.0566   0.2688
     0.2852   0.7064   0.8085   1.0547   1.1144   1.5667   1.6356   3.2784
     4.2100   4.7184   4.7864   5.0164   5.1582   5.4404   5.6210   5.6908
     6.0256   6.3143   6.5682   6.7212   6.8718   6.9475   7.1498   7.2536
     7.3484   7.4629   7.6065   7.7538   7.9098   8.0653   8.1537   8.4617
     8.5888   8.7057   8.7690   8.8954   9.2079   9.3552   9.4625   9.4782
     9.7202   9.8281   9.8753  10.0364  10.1328  10.4365  10.5763  10.6310
    10.7595  10.8329  11.1210  11.1476  11.2973  11.3907  11.4512  11.5972
    11.6871  11.7510  11.8591  11.8938  11.9437  12.0043  12.0926  12.1273
    12.2218  12.3407  12.4405  12.4896  12.5602  12.6173  12.6360  12.7600
    12.8650  12.9853  13.0220  13.0881  13.1306  13.1909  13.2355  13.2972
    13.3768  13.4742  13.5123  13.5445  13.6242  13.6680  13.7275  13.8002
    13.8457  13.9151  13.9628  13.9887  14.0903  14.1312  14.2587  14.2884
    14.3527  14.4436  14.5094  14.5525  14.6472  14.7250  14.8019  14.8501
    14.9083  14.9433  14.9854  15.0340  15.0826  15.1733  15.3186  15.3546
    15.4471  15.5011  15.5545  15.5787  15.6798  15.7147  15.7918  15.8057
    15.9280  15.9754  16.1596  16.2188  16.2482  16.3190  16.3823  16.5139
    16.6352  16.7430  16.8534  16.8761  16.9998  17.0757  17.1638  17.2190
    17.3020  17.3984  17.4510  17.6418  17.6584  17.7466  17.8407  17.8817
    18.0765  18.1607  18.2036  18.2619  18.3434  18.3918  18.4366  18.5598
    18.6447  18.6686  18.7900  18.8134  18.8747  18.9170  18.9803  19.0004
    19.0472  19.2207  19.2875  19.3145  19.3487  19.4517  19.5359  19.5985
    19.7171  19.7879  19.8313  19.8626  19.9194  19.9684  19.9839  20.0874
    20.1148  20.2180  20.3183  20.3538  20.4115  20.5269  20.6181  20.7608
    20.8226  20.8451  20.9155  20.9619  21.0309  21.1028  21.1487  21.2718
    21.3573  21.3669  21.4735  21.5408  21.6088  21.6640  21.7834  21.8601
    21.9147  21.9633  22.1174  22.2392  22.3176  22.4349  22.5286  22.6013
    22.6661  22.7567  22.8672

          k =-0.5000 0.0000 0.0000 ( 26466 PWs)   bands (ev):

   -83.4876 -83.4874 -83.4198 -83.4183 -83.3588 -83.3587 -83.0380 -83.0265
   -52.2108 -52.2097 -52.1666 -52.1663 -52.1624 -52.1611 -52.1097 -52.1095
   -52.1007 -52.0991 -52.0545 -52.0543 -52.0518 -52.0517 -52.0067 -52.0055
   -51.9783 -51.9782 -51.8058 -51.7978 -51.7349 -51.7267 -51.6696 -51.6450
   -25.2258 -20.3744 -20.3157 -19.7278 -19.7189 -19.6177 -19.6008 -18.9478
   -18.9388 -18.8956 -18.8938 -18.7456 -18.7264 -18.6863 -18.5755 -18.5191
   -18.5146 -17.9490 -17.9274 -16.6521  -9.3685  -9.3680  -9.3520  -9.1786
    -9.1273  -9.0970  -9.0154  -8.7604  -8.7231  -8.6027  -8.5705  -8.5560
    -8.5472  -8.4873  -8.4485  -8.1159  -8.1065  -7.9192  -7.9099  -7.8024
    -7.8006  -7.6709  -7.6539  -7.2842  -7.2729  -7.2695  -7.2477  -7.2335
    -7.0527  -6.9947  -6.9461  -6.9230  -6.9077  -6.9017  -6.6205  -6.6121
    -6.5127  -6.5108  -6.2789  -6.2728  -6.1283  -6.0184  -6.0000  -5.7747
    -5.7710  -5.3867  -5.3633  -5.1632  -5.1276  -4.5541  -4.5496  -4.3685
    -4.3601  -3.9577  -3.9523  -3.8102  -3.7759  -3.6849  -3.6781  -3.2213
    -3.1961  -3.1816  -3.1583  -3.0896  -3.0742  -2.7191  -2.7098  -2.7041
    -2.6809  -2.4448  -2.4260  -2.3551  -2.2927  -2.1567  -2.1025  -2.0962
    -1.7783  -1.7592  -1.7243  -1.7184  -1.6793  -1.6535  -1.5601  -1.5531
    -0.6631  -0.6096  -0.5979  -0.2562  -0.2392   0.0682   0.0802   0.3238
     0.3690   0.3930   0.3974   0.5765   0.6712   0.8851   0.8939   3.2553
     4.1552   4.6316   4.7493   4.9921   5.0358   5.2975   5.5371   5.5617
     6.1289   6.3227   6.7998   6.9840   7.2481   7.3206   7.5915   7.9098
     7.9660   8.0142   8.0740   8.0844   8.2013   8.5341   8.5759   8.5782
     8.6908   8.7195   8.7848   8.9449   9.0291   9.0410   9.2653   9.4022
     9.4717   9.4786   9.7078   9.8905   9.9245  10.1634  10.2221  10.2904
    10.3812  10.4173  10.4372  10.4893  10.6894  10.7268  10.8431  10.9112
    11.0825  11.2184  11.3056  11.3391  11.4228  11.4425  11.4574  11.6007
    11.7566  12.1636  12.2254  12.2620  12.3873  12.4762  12.4911  12.5112
    12.6250  12.8986  12.9186  12.9940  13.0695  13.1617  13.3224  13.3510
    13.3867  13.3946  13.5564  13.6072  13.6702  13.8417  13.9229  13.9414
    13.9579  14.0047  14.1213  14.1473  14.2264  14.2858  14.3667  14.4378
    14.5226  14.6507  14.7793  14.7879  14.8969  14.9224  15.1331  15.1428
    15.2492  15.2669  15.3365  15.3656  15.4304  15.4848  15.5351  15.7677
    15.8771  15.9643  16.0014  16.0109  16.1371  16.3106  16.4109  16.4462
    16.6541  16.6907  16.7647  16.8675  16.8913  16.9348  16.9798  17.1463
    17.1638  17.1975  17.2236  17.2623  17.3482  17.3673  17.5271  17.6278
    17.7224  17.7757  17.8190  17.9140  17.9337  17.9722  17.9992  18.2049
[...]
    19.9541  20.0805  20.1236  20.1876  20.2294  20.2571  20.3243  20.3591
    20.3820  20.4658  20.5347  20.5675  20.6705  20.7306  20.8086  20.8366
    20.8915  20.9390  21.0763  21.1320  21.1728  21.2306  21.2857  21.3504
    21.3696  21.5123  21.5270  21.5586  21.6307  21.7054  21.7156  21.8040
    21.8276  21.8857  21.9690  22.0731  22.0865  22.1063  22.1577  22.2821
    22.4072  22.4184  22.4721

          k =-0.5000 0.2303 0.0000 ( 26450 PWs)   bands (ev):

   -79.1930 -79.1928 -79.1627 -79.1626 -79.1362 -79.1361 -78.2835 -78.2674
   -48.0786 -48.0779 -48.0608 -48.0601 -48.0303 -48.0289 -48.0097 -48.0095
   -47.9987 -47.9984 -47.9700 -47.9695 -47.9030 -47.9025 -47.8749 -47.8748
   -47.7686 -47.7682 -47.3830 -47.3563 -47.2564 -47.2277 -46.7266 -46.7120
   -25.8361 -20.4836 -20.4761 -19.9113 -19.9009 -19.7479 -19.7446 -19.3111
   -19.3003 -19.2267 -19.2241 -19.0883 -19.0826 -18.8176 -18.8089 -18.7739
   -18.7144 -18.6729 -18.6588 -17.5560  -9.7468  -7.8612  -7.8474  -7.7428
    -7.6076  -7.2549  -7.2179  -6.9729  -6.9574  -6.7163  -6.6849  -6.3580
    -6.2979  -6.2354  -6.1813  -6.1148  -6.0284  -5.8935  -5.8621  -5.5960
    -5.5599  -5.4542  -5.4410  -5.2255  -5.2137  -5.0455  -5.0218  -4.9099
    -4.8973  -4.8705  -4.8597  -4.7444  -4.7225  -4.5259  -4.5188  -4.3645
    -4.3578  -4.3164  -4.2884  -4.0638  -4.0198  -3.8863  -3.8558  -3.5778
    -3.5495  -3.3670  -3.3167  -3.2408  -3.1859  -3.0876  -3.0528  -2.7849
    -2.7472  -2.6591  -2.6355  -2.5989  -2.4920  -2.1656  -2.1567   2.1876
     2.1915   2.4361   2.4434   2.4964   2.4994   2.5732   2.5988   2.6439
     2.6458   2.6806   2.6851   2.7324   2.7357   2.7740   2.7790   2.9776
     2.9792   3.0184   3.0261   3.1172   3.1255   3.2774   3.3428   3.3460
     3.3864   3.3920   3.4332   3.4387   3.5801   3.5848   3.6736   3.6903
     3.7973   3.8853   4.0611   4.0775   4.2014   4.2075   4.3171   4.3180
     4.3880   4.6811   4.9103   4.9963   5.2753   5.3218   5.7379   5.7978
     6.2388   6.3495   6.4501   6.6369   6.9147   6.9246   7.0721   7.1631
     7.2718   7.5352   7.6524   7.7593   7.8433   8.0064   8.3574   8.4359
     8.5678   8.7360   8.8403   9.0375   9.2931   9.3285   9.6207   9.6748
     9.8622   9.9313  10.1071  10.1478  10.4278  10.5020  10.7003  10.7178
    10.7908  10.8456  10.9449  10.9757  11.0750  11.2094  11.3883  11.5039
    11.5956  11.7973  11.8901  11.9327  11.9598  12.0020  12.1400  12.2594
    12.3501  12.5745  12.6090  12.6562  12.7511  12.7967  12.8065  13.0586
    13.1257  13.2240  13.3710  13.4703  13.5558  13.5808  13.7324  13.7357
    13.8345  13.8694  13.9627  14.1037  14.1695  14.2258  14.2342  14.3174
    14.3824  14.4646  14.5572  14.6544  14.7056  14.7221  14.7647  14.8527
    14.8913  14.9934  15.0395  15.0667  15.1400  15.2035  15.2377  15.2896
    15.3426  15.3841  15.4979  15.5412  15.7153  15.8273  15.9234  15.9533
    16.0594  16.1339  16.1494  16.1794  16.2295  16.2569  16.3081  16.3301
    16.3720  16.4010  16.4679  16.5028  16.6021  16.6317  16.7521  16.7848
    16.7961  16.8654  16.9664  17.0011  17.0662  17.2301  17.2418  17.2904
    17.3833  17.4449  17.5390  17.5998  17.6560  17.7662  17.8277  17.8575
    17.9873  18.0047  18.0967  18.1655  18.2244  18.2421  18.2980  18.4168
    18.4945  18.5466  18.7057  18.7257  18.8083  18.8871  18.9960  19.0707
    19.0964  19.1645  19.3322  19.3568  19.4412  19.5595  19.7202  19.8113
    19.8381  19.8960  19.9373  20.0241  20.0338  20.1431  20.2508  20.2844
    20.3960  20.4255  20.4517  20.4863  20.6046  20.6644  20.7454  20.7978
    20.8510  20.9520  20.9582  21.1114  21.1507  21.3486  21.4539  21.4884
    21.5403  21.6458  21.7083  21.7688  21.8162  21.8329  21.9684  22.0355
    22.0877  22.2104  22.3725  22.4294  22.5693  22.5966  22.6751  22.7181
    22.7847  22.8433  22.9063

          k =-0.5000-0.4606 0.0000 ( 26416 PWs)   bands (ev):

   -79.1930 -79.1928 -79.1627 -79.1626 -79.1362 -79.1361 -78.2835 -78.2674
   -48.0807 -48.0803 -48.0569 -48.0566 -48.0306 -48.0293 -48.0097 -48.0095
   -47.9985 -47.9982 -47.9710 -47.9704 -47.9030 -47.9025 -47.8748 -47.8748
   -47.7686 -47.7681 -47.3829 -47.3562 -47.2566 -47.2278 -46.7266 -46.7120
   -25.8361 -20.4417 -20.4346 -19.8094 -19.8071 -19.6460 -19.6362 -19.5445
   -19.5402 -19.3177 -19.3014 -19.1256 -19.1222 -18.7621 -18.7544 -18.7525
   -18.6970 -18.6637 -18.6523 -17.5556  -9.7446  -7.8167  -7.8134  -7.7427
    -7.6043  -6.8474  -6.8441  -6.6744  -6.6726  -6.5812  -6.5632  -6.3985
    -6.3930  -6.1682  -6.1361  -5.9953  -5.9686  -5.8207  -5.7825  -5.6157
    -5.5995  -5.5499  -5.5486  -5.4896  -5.4764  -5.2564  -5.2550  -5.1380
    -5.1212  -5.0611  -5.0505  -4.8138  -4.7829  -4.5923  -4.5839  -4.4433
    -4.4340  -4.3608  -4.3522  -4.0489  -4.0366  -3.7876  -3.7733  -3.6397
    -3.6273  -3.4155  -3.4041  -3.2263  -3.1076  -2.9997  -2.9780  -2.9062
    -2.8765  -2.6601  -2.6299  -2.4983  -2.4541  -2.1238  -2.1231   2.2749
     2.2788   2.4999   2.5142   2.5435   2.5464   2.6629   2.6647   2.6655
     2.7112   2.7553   2.7616   2.7861   2.7871   2.8049   2.8088   2.9653
     2.9705   3.0253   3.0303   3.0685   3.0775   3.1120   3.1128   3.3570
     3.3580   3.4400   3.4432   3.4511   3.6468   3.6571   3.8149   3.8718
     3.8766   3.8868   3.8969   3.9031   4.1502   4.2063   4.2309   4.2457
     4.5425   4.9332   5.2681   5.3780   5.6059   5.6694   5.7770   5.8209
     5.9340   5.9566   6.1249   6.1930   6.4232   6.4841   6.6448   6.8008
     7.0161   7.2793   7.3427   7.5907   7.7458   8.1422   8.1769   8.3466
     8.4278   8.5109   8.8886   8.9269   9.0162   9.2515   9.3865   9.3905
     9.6267   9.6500  10.1501  10.1659  10.4093  10.5770  10.8658  11.2985
    11.3619  11.4183  11.4707  11.4910  11.5945  11.6587  11.7620  12.2582
    12.3042  12.4161  12.6464  12.7273  12.8204  12.8928  12.9041  12.9468
    12.9684  13.1432  13.2165  13.2299  13.2448  13.3414  13.3841  13.4851
    13.4926  13.5064  13.5900  13.6267  13.6550  13.7278  13.7896  13.8437
    13.9933  14.0136  14.0265  14.0526  14.1621  14.2314  14.2490  14.2713
    14.3211  14.3481  14.5054  14.5209  14.5614  14.5780  14.6000  14.6385
    14.7122  14.7286  14.8115  14.8559  14.9009  14.9316  14.9363  14.9761
    15.0570  15.0755  15.2730  15.3500  15.4166  15.4311  15.4604  15.4850
    15.5067  15.5392  15.6264  15.6920  15.7722  15.7961  15.8097  15.9122
    15.9352  16.1124  16.1221  16.2115  16.2266  16.2521  16.4181  16.4188
    16.4628  16.5246  16.6480  16.6629  16.7768  16.8785  16.9324  16.9779
    17.0737  17.1556  17.2063  17.2723  17.2947  17.3691  17.4116  17.4475
    17.5007  17.7119  17.7623  17.7876  17.8971  18.0599  18.0949  18.1504
    18.3121  18.3536  18.3842  18.4444  18.5675  18.5726  18.6685  18.8447
    18.8763  18.9626  19.0748  19.1058  19.2575  19.3063  19.4213  19.4517
    19.4936  19.5812  19.7603  19.8184  20.1679  20.1846  20.3098  20.3492
    20.3925  20.5219  20.6092  20.6264  20.7965  20.9240  21.0047  21.0441
    21.2172  21.3939  21.4189  21.5227  21.5618  21.5771  21.7034  21.8058
    22.0015  22.0487  22.0745  22.0872  22.1650  22.2097  22.3006  22.3843
    22.4285  22.5714  22.6310  22.6756  22.7629  22.8201  22.8603  22.9050
    22.9469  23.0513  23.0796

          k =-0.2500 0.2303 0.0000 ( 26396 PWs)   bands (ev):

   -79.1965 -79.1887 -79.1664 -79.1584 -79.1401 -79.1316 -78.2841 -78.2660
   -48.1291 -48.0776 -48.0696 -48.0595 -48.0581 -48.0211 -48.0025 -47.9946
   -47.9829 -47.9775 -47.9612 -47.9602 -47.9110 -47.8946 -47.8837 -47.8660
   -47.7722 -47.7646 -47.4244 -47.3154 -47.2591 -47.2250 -46.7279 -46.7108
   -25.8361 -20.7208 -20.2479 -20.2019 -19.9909 -19.5329 -19.4691 -19.4459
   -19.3732 -19.1666 -19.1573 -19.0818 -18.9930 -18.8769 -18.8212 -18.7768
   -18.7193 -18.6836 -18.6233 -17.5563  -9.7472  -8.0206  -7.8034  -7.7522
    -7.6011  -7.4145  -7.3654  -7.2062  -7.0038  -6.8002  -6.6266  -6.4742
    -6.3688  -6.1755  -6.1611  -6.0402  -6.0018  -5.9320  -5.7979  -5.7316
    -5.6001  -5.5605  -5.4169  -5.3357  -5.2498  -5.2056  -5.1020  -4.9376
    -4.8306  -4.7809  -4.7403  -4.6674  -4.5382  -4.4515  -4.3644  -4.2632
    -4.1835  -4.1482  -4.0757  -4.0153  -3.8514  -3.7883  -3.6571  -3.5673
    -3.5348  -3.4649  -3.3333  -3.3033  -3.1980  -3.0448  -2.9452  -2.8375
    -2.8035  -2.7107  -2.6680  -2.6050  -2.3663  -2.3600  -2.0565   2.2028
     2.2584   2.2707   2.3446   2.3556   2.4719   2.4923   2.5140   2.5619
     2.5725   2.6418   2.6964   2.7619   2.8061   2.8376   2.9028   2.9193
     2.9504   3.0156   3.0689   3.1357   3.1582   3.2177   3.3098   3.3740
     3.4078   3.4672   3.4712   3.4987   3.6051   3.7346   3.7832   3.8012
     3.8691   3.8779   3.9640   4.0125   4.1017   4.1985   4.2066   4.2432
     4.4057   4.4174   4.5864   4.9292   5.2735   5.5967   5.7546   6.1205
     6.2744   6.3927   6.5339   6.6449   6.8595   6.9941   7.1642   7.4938
     7.6502   7.7901   7.9206   8.0376   8.2597   8.3672   8.4732   8.7352
     8.7933   8.9884   9.0950   9.1904   9.2665   9.5317   9.6066   9.6283
     9.7418   9.9153  10.0145  10.0586  10.1761  10.3373  10.4140  10.4715
    10.6276  10.7875  10.8301  10.8738  11.1054  11.1745  11.2039  11.3119
    11.5172  11.5506  11.7124  11.7610  11.8356  11.8979  11.9749  12.0088
    12.1393  12.1904  12.3290  12.3415  12.4338  12.5031  12.5144  12.6451
    12.8340  12.9653  12.9908  13.0696  13.1645  13.2058  13.3398  13.3877
    13.4478  13.5096  13.5811  13.6375  13.7913  13.9428  13.9712  14.0131
    14.1729  14.2071  14.3081  14.3687  14.3873  14.4169  14.4700  14.5613
    14.6030  14.7583  14.7890  14.8513  14.9485  14.9991  15.0830  15.1772
    15.2572  15.3466  15.4457  15.4827  15.5540  15.6583  15.7137  15.8060
    15.8588  15.9418  15.9996  16.0581  16.1644  16.2714  16.3078  16.4310
    16.4780  16.6079  16.6754  16.7474  16.8183  16.9179  17.0098  17.0513
    17.1124  17.1706  17.2662  17.3284  17.4525  17.4906  17.5509  17.6013
    17.6792  17.7439  17.8321  17.9191  17.9645  18.0136  18.0718  18.1318
    18.2230  18.2969  18.3464  18.4152  18.4804  18.5920  18.6784  18.7308
    18.7548  18.8707  18.9561  19.0298  19.0774  19.1293  19.2823  19.2917
    19.3542  19.4836  19.5597  19.6051  19.6533  19.7788  19.8668  19.9569
    20.0038  20.1108  20.1380  20.1799  20.2731  20.3706  20.4648  20.5141
    20.5889  20.6506  20.6818  20.7399  20.8170  20.9486  21.0042  21.0873
    21.1935  21.3050  21.3407  21.4458  21.5039  21.5520  21.6589  21.7273
    21.8348  21.9061  21.9887  22.0034  22.1297  22.1770  22.2342  22.2566
    22.3158  22.3878  22.4592  22.5466  22.6218  22.6965  22.8053  22.8735
    22.9557  22.9790  23.0431

     the spin up/dw Fermi energies are    -1.4971    0.1251 ev

!    total energy              =   -2352.06927038 Ry
     Harris-Foulkes estimate   =   -2352.06927039 Ry
     estimated scf accuracy    <          8.2E-09 Ry

     The total energy is the sum of the following terms:

     one-electron contribution =  -25906.46251779 Ry
     hartree contribution      =   12982.30210079 Ry
     xc contribution           =    -356.76326877 Ry
     ewald contribution        =   10927.08161502 Ry
     Hubbard energy            =       1.77306552 Ry
     smearing contrib. (-TS)   =      -0.00026514 Ry

     total magnetization       =    23.00 Bohr mag/cell
     absolute magnetization    =    36.55 Bohr mag/cell

     convergence has been achieved in  15 iterations

     Forces acting on atoms (Ry/au):


     negative rho (up, down):  0.154E-02 0.129E-02
     atom    1 type  1   force =    -0.00460882   -0.01263146   -0.00024941
     atom    2 type  1   force =     0.00048767    0.00811845   -0.00066775
     atom    3 type  2   force =     0.00295109    0.00061939    0.00029673
     atom    4 type  2   force =     0.00611940    0.01022536    0.00018128
     atom    5 type  1   force =     0.00171483    0.01302747   -0.00004592
     atom    6 type  1   force =    -0.00158972   -0.01857022   -0.00000903
     atom    7 type  1   force =     0.00007255    0.00204022    0.00039799
     atom    8 type  1   force =    -0.00141171   -0.00215831   -0.00019527
     atom    9 type  2   force =     0.00163579    0.00120134    0.00010792
     atom   10 type  2   force =    -0.00008810   -0.00172223    0.00055503
     atom   11 type  1   force =    -0.00709104   -0.01710183   -0.00013527
     atom   12 type  1   force =    -0.00652578    0.01831808   -0.00004861
     atom   13 type  1   force =    -0.00045082   -0.00047922   -0.00035394
     atom   14 type  1   force =    -0.00477184   -0.01277543   -0.00020231
     atom   15 type  1   force =     0.00054054    0.00848670    0.00033382
     atom   16 type  2   force =    -0.00443076    0.00066266    0.00030583
     atom   17 type  2   force =     0.00618324    0.01021612    0.00026658
     atom   18 type  1   force =     0.00134819    0.01303815   -0.00006654
     atom   19 type  1   force =    -0.00204319   -0.01859048    0.00000515
     atom   20 type  1   force =     0.00004373    0.00216037    0.00069252
     atom   21 type  1   force =    -0.00144176   -0.00224662   -0.00017860
     atom   22 type  2   force =    -0.00009707    0.00121975    0.00010560
     atom   23 type  2   force =    -0.00002898   -0.00159508   -0.00017869
     atom   24 type  1   force =     0.00722781   -0.01700088   -0.00012700
     atom   25 type  1   force =     0.00655426    0.01835638   -0.00005076
     atom   26 type  1   force =    -0.00043099   -0.00180471   -0.00038761
     atom   27 type  3   force =    -0.00002424    0.00007458   -0.00049089
     atom   28 type  3   force =    -0.00003500   -0.00031726   -0.00036455
     atom   29 type  3   force =     0.00011674   -0.00014415   -0.00014492
     atom   30 type  3   force =     0.00010852   -0.00018032   -0.00014641
     atom   31 type  1   force =    -0.00004636   -0.00045580   -0.00016813
     atom   32 type  1   force =     0.00001665   -0.00006946    0.00042971
     atom   33 type  3   force =    -0.00000484    0.00007845    0.00053345

     Total force =     0.001913     Total SCF correction =     0.000532
     SCF correction compared to forces is large: reduce conv_thr to get better values


     entering subroutine stress ...


     negative rho (up, down):  0.154E-02 0.129E-02
          total   stress  (Ry/bohr**3)                   (kbar)     P=   32.45
   0.00036263  -0.00000221   0.00000348         53.34     -0.32      0.51
  -0.00000221   0.00034386   0.00000417         -0.32     50.58      0.61
   0.00000348   0.00000417  -0.00004474          0.51      0.61     -6.58


     bfgs converged in  12 scf cycles and  11 bfgs steps
     (criteria: energy < 0.10E-03, force < 0.10E-02)

     End of BFGS Geometry Optimization

     Final energy   =   -2352.0692703808 Ry
Begin final coordinates

ATOMIC_POSITIONS (crystal)
O0       0.000000000   0.000000000   0.371536902    0   0   1
O0       0.000000000   0.500000000   0.391302930    0   0   1
Mn1      0.250000000   0.500000000   0.444653216    0   0   1
Mn1      0.000000000   0.000000000   0.445355017    0   0   1
O0       0.250000000   0.800000000   0.443862308    0   0   1
O0       0.250000000   0.200000000   0.447367814    0   0   1
O0       0.000000000   0.500000000   0.492999908    0   0   1
O0       0.000000000   0.000000000   0.524033460    0   0   1
Mn1      0.250000000   0.000000000   0.573249627    0   0   1
Mn1      0.000000000   0.500000000   0.570702984    0   0   1
O0       0.250000000   0.700000000   0.583894313    0   0   1
O0       0.250000000   0.300000000   0.584508767    0   0   1
O0       0.000000000   0.000000000   0.622610916    0   0   1
O0       0.500000000   0.000000000   0.371490807    0   0   1
O0       0.500000000   0.500000000   0.391395483    0   0   1
Mn1      0.750000000   0.500000000   0.444650529    0   0   1
Mn1      0.500000000   0.000000000   0.445288295    0   0   1
O0       0.750000000   0.800000000   0.443921522    0   0   1
O0       0.750000000   0.200000000   0.447334421    0   0   1
O0       0.500000000   0.500000000   0.493718628    0   0   1
O0       0.500000000   0.000000000   0.523995669    0   0   1
Mn1      0.750000000   0.000000000   0.573247830    0   0   1
Mn1      0.500000000   0.500000000   0.573401600    0   0   1
O0       0.750000000   0.700000000   0.583898694    0   0   1
O0       0.750000000   0.300000000   0.584499937    0   0   1
O0       0.500000000   0.000000000   0.622448265    0   0   1
H2       0.000681858   0.648584949   0.376182481
H2       0.500700881   0.648586384   0.376255995
H2       0.161027506   0.045677351   0.361331012
H2       0.660878033   0.046032958   0.361281610
O0       0.499366822   0.545999942   0.676336014
O0       0.501545320   0.356852058   0.701996831
H2       0.499073762   0.400892663   0.738566213
End final coordinates



     init_run     :    116.57s CPU    122.67s WALL (       1 calls)
     electrons    :  52116.85s CPU  54548.31s WALL (      12 calls)
     update_pot   :    192.67s CPU    199.42s WALL (      11 calls)
     forces       :   2329.60s CPU   2408.18s WALL (      12 calls)
     stress       :  11593.35s CPU  12098.10s WALL (      12 calls)

     Called by init_run:
     wfcinit      :     52.28s CPU     57.59s WALL (       1 calls)
     potinit      :      7.46s CPU      7.81s WALL (       1 calls)

     Called by electrons:
     c_bands      :  29822.30s CPU  31355.36s WALL (     220 calls)
     sum_band     :  11750.20s CPU  12215.79s WALL (     220 calls)
     v_of_rho     :    468.48s CPU    523.44s WALL (     223 calls)
     newd         :  10305.31s CPU  10364.84s WALL (     223 calls)
     mix_rho      :     77.42s CPU     80.57s WALL (     220 calls)

     Called by c_bands:
     init_us_2    :     82.44s CPU     83.00s WALL (    2985 calls)
     cegterg      :  28878.39s CPU  29826.54s WALL (    1100 calls)

     Called by *egterg:
     h_psi        :  16498.42s CPU  17137.91s WALL (    2901 calls)
     s_psi        :   2152.52s CPU   2176.66s WALL (    3561 calls)
     g_psi        :     36.70s CPU     36.71s WALL (    1796 calls)
     cdiaghg      :   2794.28s CPU   2801.40s WALL (    2796 calls)

     Called by h_psi:
     add_vuspsi   :   1699.21s CPU   1723.10s WALL (    2901 calls)
     vhpsi        :   1710.90s CPU   1736.42s WALL (    2901 calls)

     General routines
     calbec       :   5132.34s CPU   5208.63s WALL (   27742 calls)
     fft          :    538.77s CPU    674.27s WALL (    7393 calls)
     ffts         :      5.87s CPU      6.17s WALL (     886 calls)
     fftw         :   9359.99s CPU  10059.32s WALL ( 2026096 calls)
     interpolate  :     60.54s CPU     61.33s WALL (     886 calls)
     davcio       :      0.21s CPU     51.05s WALL (    3525 calls)

     Parallel routines
     fft_scatter  :   3692.32s CPU   4503.48s WALL ( 2034375 calls)
     Hubbard U routines
     new_ns       :    412.26s CPU    437.15s WALL (     220 calls)
     vhpsi        :   1710.90s CPU   1736.42s WALL (    2901 calls)
     force_hub    :    656.77s CPU    676.01s WALL (      12 calls)
     stres_hub    :   6216.93s CPU   6540.29s WALL (      12 calls)

     PWSCF        :    18h35m CPU       19h26m WALL


   This run was terminated on:  22:37:41   6Jun2014            

=------------------------------------------------------------------------------=
   JOB DONE.
=------------------------------------------------------------------------------=
---------------------------------------
Running PBS batch system epilogue script
Job id: 381438.audhumbla.fysik.dtu.dk
Username: zhonxu
Groupname: campgst
Jobname: MnO2/Eads-2-layers/OOH-U-6.0
Sessionid: 23533
Resources limits: neednodes=2:ppn=8:xeon8,nodes=2:ppn=8:xeon8,walltime=48:00:00
Resources used: cput=310:39:17,mem=17686356kb,vmem=21760208kb,walltime=19:26:05
Queuename: verylong
Accounting:
This job has allocated the following 16 nodes:
c036 c036 c036 c036 c036 c036 c036 c036 c002 c002 c002 c002 c002 c002 c002 c002
Finished epilogue job 381438.audhumbla.fysik.dtu.dk for zhonxu
