--------------------------------------------------------------------------
WARNING: It appears that your OpenFabrics subsystem is configured to only
allow registering part of your physical memory.  This can cause MPI jobs to
run with erratic performance, hang, and/or crash.

This may be caused by your OpenFabrics vendor limiting the amount of
physical memory that can be registered.  You should investigate the
relevant Linux kernel module parameters that control how much physical
memory can be registered, and increase them to allow registering all
physical memory on your machine.

See this Open MPI FAQ item for more information on these Linux kernel module
parameters:

    http://www.open-mpi.org/faq/?category=openfabrics#ib-locked-pages

  Local host:              g109.dcsc.fysik.dtu.dk
  Registerable memory:     4096 MiB
  Total memory:            131037 MiB

Your MPI job will continue, but may be behave poorly and/or hang.
--------------------------------------------------------------------------

     Program PWSCF v.5.0.2 (svn rev. 9656) starts on 10May2014 at 23:52:48 

     This program is part of the open-source Quantum ESPRESSO suite
     for quantum simulation of materials; please cite
         "P. Giannozzi et al., J. Phys.:Condens. Matter 21 395502 (2009);
          URL http://www.quantum-espresso.org", 
     in publications or presentations arising from this work. More details at
     http://www.quantum-espresso.org/quote.php

     Parallel version (MPI), running on    32 processors
     K-points division:     npool     =       4
     R & G space division:  proc/nbgrp/npool/nimage =       8

     Current dimensions of program PWSCF are:
     Max number of different atomic species (ntypx) = 10
     Max number of k-points (npk) =  40000
     Max angular momentum in pseudopotentials (lmaxx) =  3
     Reading input from pwscf.in
Warning: card &CELL ignored
Warning: card / ignored

     Subspace diagonalization in iterative solution of the eigenvalue problem:
     a serial algorithm will be used


     Parallelization info
     --------------------
     sticks:   dense  smooth     PW     G-vecs:    dense   smooth      PW
     Min         678     217     60               228772    41403    6156
     Max         679     218     61               228787    41436    6169
     Sum        5431    1737    483              1830247   331341   49301



     bravais-lattice index     =            0
     lattice parameter (alat)  =      10.3179  a.u.
     unit-cell volume          =    9693.3575 (a.u.)^3
     number of atoms/cell      =           51
     number of atomic types    =            3
     number of electrons       =       429.00
     number of Kohn-Sham states=          643
     kinetic-energy cutoff     =      40.0000  Ry
     charge density cutoff     =     500.0000  Ry
     convergence threshold     =      1.0E-06
     mixing beta               =       0.3000
     number of iterations used =            8  plain     mixing
     Exchange-correlation      = SLA  PW   PBE  PBE ( 1 4 3 4 0)
     EXX-fraction              =        0.00
     nstep                     =           50


     celldm(1)=  10.317905  celldm(2)=   0.000000  celldm(3)=   0.000000
     celldm(4)=   0.000000  celldm(5)=   0.000000  celldm(6)=   0.000000

     crystal axes: (cart. coord. in units of alat)
               a(1) = (   1.000000   0.000000   0.000000 )  
               a(2) = (   0.000000   1.282117   0.000000 )  
               a(3) = (   0.000000   0.000000   6.882911 )  

     reciprocal axes: (cart. coord. in units 2 pi/alat)
               b(1) = (  1.000000  0.000000  0.000000 )  
               b(2) = (  0.000000  0.779960  0.000000 )  
               b(3) = (  0.000000  0.000000  0.145287 )  


     PseudoPot. # 1 for O  read from file:
     /home/camp/zhonxu/pseudo/o_pbe_v1.01.uspp.F.UPF
     MD5 check sum: 2bcb18d16ea4b960afae9ec6d52f22d2
     Pseudo is Ultrasoft + core correction, Zval =  6.0
     Generated by new atomic code, or converted to UPF format
     Using radial grid of  737 points,  5 beta functions with: 
                l(1) =   0
                l(2) =   0
                l(3) =   1
                l(4) =   1
                l(5) =   2
     Q(r) pseudized with  8 coefficients,  rinner =    0.900   0.900   0.900
                                                       0.900   0.900

     PseudoPot. # 2 for Mo read from file:
     /home/camp/zhonxu/pseudo/mo_pbe_v1.uspp.F.UPF
     MD5 check sum: 30c4dcd161f5d35cd49bb5239c51a633
     Pseudo is Ultrasoft + core correction, Zval = 14.0
     Generated by new atomic code, or converted to UPF format
     Using radial grid of  889 points,  6 beta functions with: 
                l(1) =   0
                l(2) =   0
                l(3) =   1
                l(4) =   1
                l(5) =   2
                l(6) =   2
     Q(r) pseudized with  6 coefficients,  rinner =    1.000   1.000   1.000
                                                       1.000   1.000

     PseudoPot. # 3 for H  read from file:
     /home/camp/zhonxu/pseudo/h_pbe_v1.uspp.F.UPF
     MD5 check sum: 3408e3ff4ec8b0a4e358431e7e038a48
     Pseudo is Ultrasoft, Zval =  1.0
     Generated by new atomic code, or converted to UPF format
     Using radial grid of  615 points,  2 beta functions with: 
                l(1) =   0
                l(2) =   0
     Q(r) pseudized with  8 coefficients,  rinner =    0.700

     atomic species   valence    mass     pseudopotential
        O0             6.00    15.99940     O ( 1.00)
        Mo1           14.00    95.94000     Mo( 1.00)
        H2             1.00     1.00794     H ( 1.00)

      2 Sym. Ops. (no inversion) found



   Cartesian axes

     site n.     atom                  positions (alat units)
         1           O0  tau(   1) = (   0.0000000   0.6410583   2.1977822  )
         2           Mo1 tau(   2) = (   0.2500000   0.6410583   2.4798439  )
         3           Mo1 tau(   3) = (   0.0000000   0.0000000   2.4798439  )
         4           O0  tau(   4) = (   0.2500000   1.0000510   2.4798439  )
         5           O0  tau(   5) = (   0.2500000   0.2820657   2.4798439  )
         6           O0  tau(   6) = (   0.0000000   0.6410583   2.7619056  )
         7           O0  tau(   7) = (   0.0000000   0.0000000   2.8388565  )
         8           Mo1 tau(   8) = (   0.2500000   0.0000000   3.1209182  )
         9           Mo1 tau(   9) = (   0.0000000   0.6410583   3.1209182  )
        10           O0  tau(  10) = (   0.2500000   0.9231240   3.1209182  )
        11           O0  tau(  11) = (   0.2500000   0.3589927   3.1209182  )
        12           O0  tau(  12) = (   0.0000000   0.0000000   3.4029799  )
        13           O0  tau(  13) = (   0.0000000   0.6410583   3.4705701  )
        14           Mo1 tau(  14) = (   0.2286600   0.6410583   3.7488462  )
        15           Mo1 tau(  15) = (   0.0000000   0.0000000   3.7864269  )
        16           O0  tau(  16) = (   0.2460200   1.0042564   3.7683248  )
        17           O0  tau(  17) = (   0.2460200   0.2778603   3.7683248  )
        18           O0  tau(  18) = (   0.0000000   0.6410583   4.0400621  )
        19           O0  tau(  19) = (   0.0000000   0.0000000   4.1500511  )
        20           Mo1 tau(  20) = (   0.2719400   0.0000000   4.4350036  )
        21           Mo1 tau(  21) = (   0.0000000   0.6410583   4.3760858  )
        22           O0  tau(  22) = (   0.2568700   0.9035974   4.4329387  )
        23           O0  tau(  23) = (   0.2568700   0.3785193   4.4329387  )
        24           O0  tau(  24) = (   0.0000000   0.0000000   4.6642045  )
        25           O0  tau(  25) = (   0.5000000   0.6410583   2.1977822  )
        26           Mo1 tau(  26) = (   0.7500000   0.6410583   2.4798439  )
        27           Mo1 tau(  27) = (   0.5000000   0.0000000   2.4798439  )
        28           O0  tau(  28) = (   0.7500000   1.0000510   2.4798439  )
        29           O0  tau(  29) = (   0.7500000   0.2820657   2.4798439  )
        30           O0  tau(  30) = (   0.5000000   0.6410583   2.7619056  )
        31           O0  tau(  31) = (   0.5000000   0.0000000   2.8388565  )
        32           Mo1 tau(  32) = (   0.7500000   0.0000000   3.1209182  )
        33           Mo1 tau(  33) = (   0.5000000   0.6410583   3.1209182  )
        34           O0  tau(  34) = (   0.7500000   0.9231240   3.1209182  )
        35           O0  tau(  35) = (   0.7500000   0.3589927   3.1209182  )
        36           O0  tau(  36) = (   0.5000000   0.0000000   3.4029799  )
        37           O0  tau(  37) = (   0.5000000   0.6410583   3.4927331  )
        38           Mo1 tau(  38) = (   0.7713400   0.6410583   3.7488462  )
        39           Mo1 tau(  39) = (   0.5000000   0.0000000   3.7719728  )
        40           O0  tau(  40) = (   0.7539800   1.0042564   3.7683248  )
        41           O0  tau(  41) = (   0.7539800   0.2778603   3.7683248  )
        42           O0  tau(  42) = (   0.5000000   0.6410583   4.0184498  )
        43           O0  tau(  43) = (   0.5000000   0.0000000   4.1341515  )
        44           Mo1 tau(  44) = (   0.7280600   0.0000000   4.4350036  )
        45           Mo1 tau(  45) = (   0.5000000   0.6410583   4.3550241  )
        46           O0  tau(  46) = (   0.7431300   0.9035974   4.4329387  )
        47           O0  tau(  47) = (   0.7431300   0.3785193   4.4329387  )
        48           O0  tau(  48) = (   0.5000000   0.0000000   4.7053643  )
        49           O0  tau(  49) = (   0.5000000   0.6410583   4.7213326  )
        50           O0  tau(  50) = (   0.5000000   0.4276885   4.8470146  )
        51           H2  tau(  51) = (   0.5000000   0.4819220   5.0204639  )

     number of k points=     9  Methfessel-Paxton smearing, width (Ry)=  0.0100
                       cart. coord. in units 2pi/alat
        k(    1) = (   0.0000000   0.0000000   0.0000000), wk =   0.1250000
        k(    2) = (   0.0000000   0.1949901   0.0000000), wk =   0.2500000
        k(    3) = (   0.0000000  -0.3899801   0.0000000), wk =   0.1250000
        k(    4) = (   0.2500000   0.0000000   0.0000000), wk =   0.2500000
        k(    5) = (   0.2500000   0.1949901   0.0000000), wk =   0.5000000
        k(    6) = (   0.2500000  -0.3899801   0.0000000), wk =   0.2500000
        k(    7) = (  -0.5000000   0.0000000   0.0000000), wk =   0.1250000
        k(    8) = (  -0.5000000   0.1949901   0.0000000), wk =   0.2500000
        k(    9) = (  -0.5000000  -0.3899801   0.0000000), wk =   0.1250000

     Dense  grid:  1830247 G-vectors     FFT dimensions: (  75,  96, 512)

     Smooth grid:   331341 G-vectors     FFT dimensions: (  45,  54, 288)

     Largest allocated arrays     est. size (Mb)     dimensions
        Kohn-Sham Wavefunctions        51.24 Mb     (   5223,  643)
        NL pseudopotentials            58.34 Mb     (   5223,  732)
        Each V/rho on FFT grid          7.03 Mb     ( 460800)
        Each G-vector array             1.75 Mb     ( 228787)
        G-vector shells                 0.82 Mb     ( 107356)
     Largest temporary arrays     est. size (Mb)     dimensions
        Auxiliary wavefunctions       204.98 Mb     (   5223, 2572)
        Each subspace H/S matrix      100.94 Mb     (2572,2572)
        Each <psi_i|beta_j> matrix      7.18 Mb     (    732,  643)
        Arrays for rho mixing          56.25 Mb     ( 460800,   8)
[g109.dcsc.fysik.dtu.dk:14592] 31 more processes have sent help message help-mpi-btl-openib.txt / reg mem limit low
[g109.dcsc.fysik.dtu.dk:14592] Set MCA parameter "orte_base_help_aggregate" to 0 to see all help / error messages

     Check: negative/imaginary core charge=   -0.000004    0.000000

     Initial potential from superposition of free atoms
     Check: negative starting charge=   -0.003279

     starting charge  428.98293, renormalised to  429.00000

     negative rho (up, down):  0.328E-02 0.000E+00
     Starting wfc are  345 randomized atomic wfcs

     total cpu time spent up to now is      130.7 secs

     Self-consistent Calculation

     iteration #  1     ecut=    40.00 Ry     beta=0.30
     Davidson diagonalization with overlap
     ethr =  1.00E-02,  avg # of iterations =  6.0

     negative rho (up, down):  0.334E-02 0.000E+00

     total cpu time spent up to now is     1014.4 secs

     total energy              =   -3323.90330209 Ry
     Harris-Foulkes estimate   =   -3330.92709571 Ry
     estimated scf accuracy    <      16.05486198 Ry

     iteration #  2     ecut=    40.00 Ry     beta=0.30
     Davidson diagonalization with overlap
     ethr =  3.74E-03,  avg # of iterations =  3.1

     negative rho (up, down):  0.687E-02 0.000E+00

     total cpu time spent up to now is     1332.0 secs

     total energy              =   -3315.03994259 Ry
     Harris-Foulkes estimate   =   -3330.41743143 Ry
     estimated scf accuracy    <     241.42466805 Ry

     iteration #  3     ecut=    40.00 Ry     beta=0.30
     Davidson diagonalization with overlap
     ethr =  3.74E-03,  avg # of iterations =  4.2

     negative rho (up, down):  0.101E-01 0.000E+00

     total cpu time spent up to now is     1738.0 secs

     total energy              =   -3307.32098415 Ry
     Harris-Foulkes estimate   =   -3343.44782251 Ry
     estimated scf accuracy    <    1854.46264068 Ry

     iteration #  4     ecut=    40.00 Ry     beta=0.30
     Davidson diagonalization with overlap
     ethr =  3.74E-03,  avg # of iterations =  3.7

     negative rho (up, down):  0.110E-01 0.000E+00

     total cpu time spent up to now is     2095.8 secs

     total energy              =   -3325.69850828 Ry
     Harris-Foulkes estimate   =   -3329.39749303 Ry
     estimated scf accuracy    <      39.52626000 Ry

     iteration #  5     ecut=    40.00 Ry     beta=0.30
     Davidson diagonalization with overlap
     ethr =  3.74E-03,  avg # of iterations =  3.0

     negative rho (up, down):  0.118E-01 0.000E+00

     total cpu time spent up to now is     2407.3 secs

     total energy              =   -3326.23327960 Ry
     Harris-Foulkes estimate   =   -3329.02301053 Ry
     estimated scf accuracy    <      40.18167640 Ry

     iteration #  6     ecut=    40.00 Ry     beta=0.30
     Davidson diagonalization with overlap
     ethr =  3.74E-03,  avg # of iterations =  2.3

     negative rho (up, down):  0.118E-01 0.000E+00

     total cpu time spent up to now is     2691.3 secs

     total energy              =   -3327.40706014 Ry
     Harris-Foulkes estimate   =   -3328.07266598 Ry
     estimated scf accuracy    <       9.39065373 Ry

     iteration #  7     ecut=    40.00 Ry     beta=0.30
     Davidson diagonalization with overlap
     ethr =  2.19E-03,  avg # of iterations =  1.0

     negative rho (up, down):  0.111E-01 0.000E+00

     total cpu time spent up to now is     2955.2 secs

     total energy              =   -3327.54542862 Ry
     Harris-Foulkes estimate   =   -3327.67014018 Ry
     estimated scf accuracy    <       2.57118195 Ry

     iteration #  8     ecut=    40.00 Ry     beta=0.30
     Davidson diagonalization with overlap
     ethr =  5.99E-04,  avg # of iterations =  1.2

     negative rho (up, down):  0.951E-02 0.000E+00

     total cpu time spent up to now is     3223.1 secs

     total energy              =   -3327.48413413 Ry
     Harris-Foulkes estimate   =   -3327.59975351 Ry
     estimated scf accuracy    <       1.14480991 Ry

     iteration #  9     ecut=    40.00 Ry     beta=0.30
     Davidson diagonalization with overlap
     ethr =  2.67E-04,  avg # of iterations =  3.9

     negative rho (up, down):  0.764E-02 0.000E+00

     total cpu time spent up to now is     3580.5 secs

     total energy              =   -3327.47924130 Ry
     Harris-Foulkes estimate   =   -3327.53349988 Ry
     estimated scf accuracy    <       0.39248965 Ry

     iteration # 10     ecut=    40.00 Ry     beta=0.30
     Davidson diagonalization with overlap
     ethr =  9.15E-05,  avg # of iterations =  7.3

     negative rho (up, down):  0.553E-02 0.000E+00

     total cpu time spent up to now is     4014.1 secs

     total energy              =   -3327.48837822 Ry
     Harris-Foulkes estimate   =   -3327.50760154 Ry
     estimated scf accuracy    <       0.13123504 Ry

     iteration # 11     ecut=    40.00 Ry     beta=0.30
     Davidson diagonalization with overlap
     ethr =  3.06E-05,  avg # of iterations =  3.8

     negative rho (up, down):  0.590E-02 0.000E+00

     total cpu time spent up to now is     4312.9 secs

     total energy              =   -3327.48106654 Ry
     Harris-Foulkes estimate   =   -3327.50696706 Ry
     estimated scf accuracy    <       0.17243609 Ry

     iteration # 12     ecut=    40.00 Ry     beta=0.30
     Davidson diagonalization with overlap
     ethr =  3.06E-05,  avg # of iterations =  2.7

     negative rho (up, down):  0.501E-02 0.000E+00

     total cpu time spent up to now is     4595.8 secs

     total energy              =   -3327.49633757 Ry
     Harris-Foulkes estimate   =   -3327.50315918 Ry
     estimated scf accuracy    <       0.10766866 Ry

     iteration # 13     ecut=    40.00 Ry     beta=0.30
     Davidson diagonalization with overlap
     ethr =  2.51E-05,  avg # of iterations =  1.0

     negative rho (up, down):  0.479E-02 0.000E+00

     total cpu time spent up to now is     4855.8 secs

     total energy              =   -3327.49271760 Ry
     Harris-Foulkes estimate   =   -3327.50244837 Ry
     estimated scf accuracy    <       0.06989770 Ry

     iteration # 14     ecut=    40.00 Ry     beta=0.30
     Davidson diagonalization with overlap
     ethr =  1.63E-05,  avg # of iterations =  5.4

     negative rho (up, down):  0.467E-02 0.000E+00

     total cpu time spent up to now is     5208.7 secs

     total energy              =   -3327.49137680 Ry
     Harris-Foulkes estimate   =   -3327.50446277 Ry
     estimated scf accuracy    <       0.55579204 Ry

     iteration # 15     ecut=    40.00 Ry     beta=0.30
     Davidson diagonalization with overlap
     ethr =  1.63E-05,  avg # of iterations =  3.0

     negative rho (up, down):  0.464E-02 0.000E+00

     total cpu time spent up to now is     5542.4 secs

     total energy              =   -3327.49750729 Ry
     Harris-Foulkes estimate   =   -3327.49983910 Ry
     estimated scf accuracy    <       0.05286527 Ry

     iteration # 16     ecut=    40.00 Ry     beta=0.30
     Davidson diagonalization with overlap
     ethr =  1.23E-05,  avg # of iterations =  2.1

     negative rho (up, down):  0.463E-02 0.000E+00

     total cpu time spent up to now is     5822.8 secs

     total energy              =   -3327.49712614 Ry
     Harris-Foulkes estimate   =   -3327.50074503 Ry
     estimated scf accuracy    <       0.08275480 Ry

     iteration # 17     ecut=    40.00 Ry     beta=0.30
     Davidson diagonalization with overlap
     ethr =  1.23E-05,  avg # of iterations =  1.0

     negative rho (up, down):  0.462E-02 0.000E+00

     total cpu time spent up to now is     6083.6 secs

     total energy              =   -3327.49897898 Ry
     Harris-Foulkes estimate   =   -3327.49908646 Ry
     estimated scf accuracy    <       0.00105890 Ry

     iteration # 18     ecut=    40.00 Ry     beta=0.30
     Davidson diagonalization with overlap
     ethr =  2.47E-07,  avg # of iterations =  4.3

     negative rho (up, down):  0.462E-02 0.000E+00

     total cpu time spent up to now is     6423.1 secs

     total energy              =   -3327.49898991 Ry
     Harris-Foulkes estimate   =   -3327.49910585 Ry
     estimated scf accuracy    <       0.00131753 Ry

     iteration # 19     ecut=    40.00 Ry     beta=0.30
     Davidson diagonalization with overlap
     ethr =  2.47E-07,  avg # of iterations =  1.0

     negative rho (up, down):  0.462E-02 0.000E+00

     total cpu time spent up to now is     6684.9 secs

     total energy              =   -3327.49904085 Ry
     Harris-Foulkes estimate   =   -3327.49909735 Ry
     estimated scf accuracy    <       0.00104420 Ry

     iteration # 20     ecut=    40.00 Ry     beta=0.30
     Davidson diagonalization with overlap
     ethr =  2.43E-07,  avg # of iterations =  1.0

     negative rho (up, down):  0.463E-02 0.000E+00

     total cpu time spent up to now is     6947.5 secs

     total energy              =   -3327.49906195 Ry
     Harris-Foulkes estimate   =   -3327.49909136 Ry
     estimated scf accuracy    <       0.00034740 Ry

     iteration # 21     ecut=    40.00 Ry     beta=0.30
     Davidson diagonalization with overlap
     ethr =  8.10E-08,  avg # of iterations =  1.0

     negative rho (up, down):  0.463E-02 0.000E+00

     total cpu time spent up to now is     7209.0 secs

     total energy              =   -3327.49907654 Ry
     Harris-Foulkes estimate   =   -3327.49909300 Ry
     estimated scf accuracy    <       0.00016155 Ry

     iteration # 22     ecut=    40.00 Ry     beta=0.30
     Davidson diagonalization with overlap
     ethr =  3.77E-08,  avg # of iterations =  1.0

     negative rho (up, down):  0.463E-02 0.000E+00

     total cpu time spent up to now is     7469.9 secs

     total energy              =   -3327.49908529 Ry
     Harris-Foulkes estimate   =   -3327.49908955 Ry
     estimated scf accuracy    <       0.00002666 Ry

     iteration # 23     ecut=    40.00 Ry     beta=0.30
     Davidson diagonalization with overlap
     ethr =  6.21E-09,  avg # of iterations =  1.0

     negative rho (up, down):  0.463E-02 0.000E+00

     total cpu time spent up to now is     7731.3 secs

     total energy              =   -3327.49908687 Ry
     Harris-Foulkes estimate   =   -3327.49908909 Ry
     estimated scf accuracy    <       0.00001903 Ry

     iteration # 24     ecut=    40.00 Ry     beta=0.30
     Davidson diagonalization with overlap
     ethr =  4.43E-09,  avg # of iterations =  1.0

     negative rho (up, down):  0.463E-02 0.000E+00

     total cpu time spent up to now is     7992.5 secs

     total energy              =   -3327.49908725 Ry
     Harris-Foulkes estimate   =   -3327.49908871 Ry
     estimated scf accuracy    <       0.00002561 Ry

     iteration # 25     ecut=    40.00 Ry     beta=0.30
     Davidson diagonalization with overlap
     ethr =  4.43E-09,  avg # of iterations =  1.0

     negative rho (up, down):  0.463E-02 0.000E+00

     total cpu time spent up to now is     8253.9 secs

     total energy              =   -3327.49908717 Ry
     Harris-Foulkes estimate   =   -3327.49908871 Ry
     estimated scf accuracy    <       0.00005039 Ry

     iteration # 26     ecut=    40.00 Ry     beta=0.30
     Davidson diagonalization with overlap
     ethr =  4.43E-09,  avg # of iterations =  1.0

     negative rho (up, down):  0.463E-02 0.000E+00

     total cpu time spent up to now is     8516.5 secs

     total energy              =   -3327.49908738 Ry
     Harris-Foulkes estimate   =   -3327.49908861 Ry
     estimated scf accuracy    <       0.00002323 Ry

     iteration # 27     ecut=    40.00 Ry     beta=0.30
     Davidson diagonalization with overlap
     ethr =  4.43E-09,  avg # of iterations =  1.0

     negative rho (up, down):  0.463E-02 0.000E+00

     total cpu time spent up to now is     8780.7 secs

     total energy              =   -3327.49908734 Ry
     Harris-Foulkes estimate   =   -3327.49908858 Ry
     estimated scf accuracy    <       0.00002900 Ry

     iteration # 28     ecut=    40.00 Ry     beta=0.30
     Davidson diagonalization with overlap
     ethr =  4.43E-09,  avg # of iterations =  1.0

     negative rho (up, down):  0.463E-02 0.000E+00

     total cpu time spent up to now is     9041.2 secs

     total energy              =   -3327.49908781 Ry
     Harris-Foulkes estimate   =   -3327.49908824 Ry
     estimated scf accuracy    <       0.00000702 Ry

     iteration # 29     ecut=    40.00 Ry     beta=0.30
     Davidson diagonalization with overlap
     ethr =  1.64E-09,  avg # of iterations =  1.0

     negative rho (up, down):  0.463E-02 0.000E+00

     total cpu time spent up to now is     9304.6 secs

     total energy              =   -3327.49908790 Ry
     Harris-Foulkes estimate   =   -3327.49908810 Ry
     estimated scf accuracy    <       0.00000156 Ry

     iteration # 30     ecut=    40.00 Ry     beta=0.30
     Davidson diagonalization with overlap
     ethr =  3.65E-10,  avg # of iterations =  1.0

     negative rho (up, down):  0.462E-02 0.000E+00

     total cpu time spent up to now is     9567.1 secs

     total energy              =   -3327.49908793 Ry
     Harris-Foulkes estimate   =   -3327.49908806 Ry
     estimated scf accuracy    <       0.00000163 Ry

     iteration # 31     ecut=    40.00 Ry     beta=0.30
     Davidson diagonalization with overlap
     ethr =  3.65E-10,  avg # of iterations =  1.0

     negative rho (up, down):  0.462E-02 0.000E+00

     total cpu time spent up to now is     9828.3 secs

     End of self-consistent calculation

          k = 0.0000 0.0000 0.0000 ( 41461 PWs)   bands (ev):

   -60.9537 -60.8072 -60.7593 -60.7349 -60.6910 -60.6563 -60.6263 -60.6042
   -60.5659 -60.5394 -60.5343 -60.5292 -60.4871 -60.4478 -60.4465 -60.3535
   -35.4864 -35.4210 -35.3902 -35.3839 -35.2952 -35.2538 -35.2306 -35.2180
   -35.1770 -35.1271 -35.1185 -35.0405 -35.0074 -34.9615 -34.9335 -34.9076
   -34.8844 -34.8612 -34.8291 -34.8084 -34.7895 -34.7610 -34.7603 -34.7389
   -34.7328 -34.7261 -34.7123 -34.7029 -34.6693 -34.6585 -34.6553 -34.6359
   -34.5613 -34.5527 -34.5247 -34.5160 -34.5126 -34.4860 -34.4378 -34.3963
   -34.3682 -34.2914 -34.2362 -34.1810 -34.1363 -34.0733 -34.0421 -33.8764
   -22.4805 -18.7633 -18.4480 -18.3516 -18.2044 -18.1755 -18.1329 -17.8777
   -17.7576 -17.6651 -17.5912 -17.5744 -17.4694 -17.4455 -17.4454 -17.3656
   -17.3574 -17.2541 -17.1456 -17.1025 -17.0979 -17.0654 -17.0624 -17.0571
   -17.0499 -17.0028 -16.9770 -16.9352 -16.6574 -16.1465 -15.9109 -15.6261
   -15.3446 -14.5334  -7.1596  -6.7540  -6.6491  -6.5922  -6.5797  -6.4762
    -6.4551  -6.3487  -6.0691  -5.8536  -5.7595  -5.7497  -5.6655  -5.6288
    -5.5504  -5.4277  -5.3621  -5.3414  -5.2448  -5.2215  -5.2111  -5.1961
    -5.1063  -5.0777  -5.0538  -4.9428  -4.9105  -4.8202  -4.7756  -4.7222
    -4.6591  -4.6270  -4.6091  -4.5862  -4.5610  -4.5289  -4.5084  -4.2103
    -4.0797  -4.0220  -4.0137  -3.8546  -3.8160  -3.7444  -3.7341  -3.7169
    -3.6058  -3.5533  -3.5392  -3.4879  -3.4604  -3.3572  -3.3529  -3.3085
    -3.2117  -3.1589  -3.0567  -2.9997  -2.9290  -2.9118  -2.8822  -2.8112
    -2.6875  -2.6847  -2.6235  -2.5805  -2.5632  -2.5040  -2.4735  -2.4404
    -2.4398  -2.3692  -2.3093  -2.2820  -2.1759  -2.1250  -2.0616  -1.9820
    -1.8986  -1.8529  -1.7725  -1.7357  -1.6552  -1.6485  -1.5945  -1.5612
    -1.4550  -1.4010  -1.3854  -1.3042  -1.2989  -1.2763  -1.1513  -1.0492
    -0.8366  -0.7752  -0.7422  -0.7146  -0.6912  -0.6495  -0.5257  -0.5032
    -0.3994  -0.3410  -0.2889  -0.0670   0.5842   0.9221   0.9708   1.2911
     1.3400   1.4346   1.4674   1.5321   1.6575   1.7874   1.9863   2.0616
     2.0675   2.1598   2.2115   2.2873   2.2885   2.3252   2.4063   2.4931
     2.5278   2.5806   2.6676   2.6707   2.7449   2.7774   2.8579   2.9038
     2.9575   3.1384   3.1640   3.4119   3.4486   3.5739   3.5930   3.8150
     4.2017   4.3700   4.5713   4.6058   4.7427   4.8137   4.8294   4.8372
     4.8990   4.9874   5.1429   5.1876   5.2441   5.4227   5.4508   5.6398
     5.7390   5.8890   6.0044   6.0416   6.0882   6.2264   6.2487   6.2606
     6.2956   6.3492   6.3532   6.3617   6.3681   6.5880   6.6268   6.6602
     6.6937   6.7099   6.7148   6.7855   6.8356   6.8911   6.9197   6.9280
     7.1174   7.1698   7.2969   7.6503   7.8023   7.9448   8.2496   8.3685
     8.6088   8.6747   9.0308   9.1104   9.2027   9.3143   9.4470   9.5243
     9.6027   9.7353   9.8380   9.8852   9.8870  10.0002  10.1811  10.3313
    10.3636  10.5107  10.5537  10.5920  10.6768  10.7380  10.8226  10.9559
    11.0111  11.0632  11.1905  11.2353  11.2539  11.2895  11.3445  11.4064
    11.4173  11.5715  11.5727  11.5954  11.6385  11.6468  11.7521  11.8012
    11.8366  11.8387  11.9158  11.9809  12.0457  12.0714  12.1312  12.2574
    12.3424  12.4553  12.4777  12.4836  12.7645  12.9491  12.9697  12.9903
    13.0718  13.1066  13.2484  13.2808  13.4041  13.4479  13.5060  13.5193
    13.5778  13.6423  13.6450  13.6604  13.7234  13.7963  13.9504  14.0335
    14.0464  14.1098  14.2867  14.3391  14.3401  14.3612  14.3849  14.4108
    14.4474  14.4815  14.5168  14.5678  14.6077  14.6219  14.7338  14.7384
    14.8371  14.8376  14.8625  14.8897  14.8909  14.9659  14.9967  15.0472
    15.0655  15.1371  15.1732  15.1957  15.2913  15.3651  15.3945  15.5006
    15.5383  15.5839  15.6330  15.7616  15.8834  15.9747  15.9816  16.0544
    16.1034  16.1883  16.2652  16.2874  16.3658  16.4402  16.4474  16.5305
    16.6162  16.6388  16.6494  16.7136  16.7235  16.7789  16.9283  16.9767
    17.0027  17.0230  17.0638  17.0855  17.1014  17.1032  17.1306  17.2102
    17.2675  17.2904  17.3192  17.3562  17.4008  17.4920  17.5009  17.5477
    17.5772  17.6364  17.7512  17.7613  17.7967  17.8549  17.9166  17.9361
    18.0593  18.0955  18.1502  18.1579  18.2808  18.3122  18.3652  18.4114
    18.4814  18.4948  18.6195  18.6202  18.6388  18.7338  18.8280  18.9503
    18.9906  19.0217  19.0523  19.1769  19.1779  19.2288  19.2861  19.3536
    19.3886  19.4910  19.5334  19.6304  19.6421  19.6873  19.7275  19.8354
    19.8445  19.9465  19.9918  20.0329  20.0556  20.1328  20.2306  20.2580
    20.2796  20.3666  20.3678  20.4125  20.4384  20.4799  20.4961  20.5519
    20.6004  20.6514  20.7266  20.7511  20.7639  20.7815  20.8366  20.8533
    20.8884  20.9481  20.9749  21.0634  21.1094  21.1767  21.2306  21.3744
    21.3854  21.3977  21.4332  21.4888  21.5129  21.5880  21.6158  21.6464
    21.7516  21.7821  21.8763  21.9293  22.0730  22.0798  22.2111  22.2219
    22.2843  22.3071  22.3138  22.3933  22.5481  22.6430  22.6445  22.6771
    22.7799  22.8309  22.8470  22.9198  22.9892  23.0528  23.0708  23.1531
    23.1702  23.2211  23.2507  23.3529  23.3959  23.4315  23.4528  23.4775
    23.4789  23.5464  23.5765  23.5817  23.6118  23.6461  23.6601  23.7300
    23.7372  23.7724  23.8246  23.8911  23.9083  23.9365  23.9665  23.9778
    23.9863  24.0540  24.0823  24.0845  24.1348  24.1443  24.2254  24.2315
    24.2740  24.2753  24.3094  24.3142  24.4158  24.4202  24.4342  24.4411
    24.5085  24.5256  24.6146  24.6337  24.7141  24.7194  24.7574  24.8585
    24.8602  24.8913  24.9479  24.9562  24.9789  25.0268  25.1007  25.1057
    25.1074  25.1480  25.1922  25.2884  25.3418  25.3492  25.4149  25.4630
    25.4983  25.6000  25.6276  25.6681  25.7440  25.7727  25.7863  25.8367
    25.8554  25.9730  25.9785  26.0017  26.0605  26.1293  26.1965  26.2195
    26.2372  26.3026  26.3550  26.4038  26.4745  26.5024  26.5483  26.5570
    26.5890  26.6515  26.6672  26.7096  26.7830  26.8468  26.8568  26.8639
    26.8992  26.9186  26.9599  26.9648  27.1347  27.1499  27.1726  27.2379
    27.2472  27.2744  27.3109

          k = 0.0000 0.1950 0.0000 ( 41423 PWs)   bands (ev):

   -60.9537 -60.8072 -60.7593 -60.7349 -60.6910 -60.6563 -60.6264 -60.6042
   -60.5659 -60.5394 -60.5343 -60.5292 -60.4871 -60.4478 -60.4465 -60.3535
   -35.4874 -35.4211 -35.3903 -35.3840 -35.2968 -35.2539 -35.2307 -35.2182
   -35.1803 -35.1283 -35.1203 -35.0308 -34.9971 -34.9495 -34.9333 -34.9079
   -34.8616 -34.8609 -34.8254 -34.8086 -34.7970 -34.7610 -34.7604 -34.7493
   -34.7389 -34.7350 -34.7121 -34.7032 -34.6821 -34.6572 -34.6533 -34.6436
   -34.5613 -34.5526 -34.5247 -34.5160 -34.5134 -34.4857 -34.4376 -34.3963
   -34.3681 -34.2914 -34.2361 -34.1806 -34.1367 -34.0734 -34.0422 -33.8765
   -22.4803 -18.7371 -18.4175 -18.2600 -18.0883 -18.0716 -18.0064 -17.8780
   -17.7562 -17.7320 -17.7304 -17.6775 -17.6640 -17.6487 -17.5760 -17.4706
   -17.3761 -17.2277 -17.1926 -17.1628 -17.1183 -17.0893 -17.0413 -16.9850
   -16.9231 -16.8993 -16.8297 -16.8125 -16.6571 -16.1465 -15.9103 -15.6250
   -15.3445 -14.5305  -7.1519  -6.6897  -6.4499  -6.4049  -6.2612  -6.2302
    -6.2027  -6.1789  -6.0257  -5.9327  -5.8835  -5.8556  -5.8391  -5.7883
    -5.7848  -5.6828  -5.6795  -5.6154  -5.6032  -5.5828  -5.5527  -5.4189
    -5.3621  -5.2071  -5.1146  -5.1007  -5.0061  -4.7997  -4.7925  -4.4847
    -4.3606  -4.3538  -4.3128  -4.2751  -4.2549  -4.1919  -4.0964  -4.0829
    -4.0332  -4.0012  -3.8311  -3.8246  -3.7523  -3.7372  -3.6660  -3.6402
    -3.5284  -3.4951  -3.4443  -3.4367  -3.4312  -3.3858  -3.3759  -3.3542
    -3.2959  -3.2729  -3.2619  -3.1613  -3.1108  -3.0624  -2.9985  -2.9917
    -2.8899  -2.6659  -2.6470  -2.6154  -2.4803  -2.4156  -2.4128  -2.3547
    -2.3300  -2.2719  -2.2651  -2.2225  -2.1407  -2.1069  -2.0773  -2.0330
    -1.9936  -1.8847  -1.7537  -1.7010  -1.6934  -1.6691  -1.6464  -1.6197
    -1.5890  -1.5174  -1.5127  -1.4817  -1.4293  -1.3149  -1.2806  -1.2094
    -0.8898  -0.8569  -0.7181  -0.6921  -0.4223  -0.3644  -0.3036  -0.2436
    -0.2107  -0.1850  -0.0786   0.0394   0.5862   0.7158   0.7656   0.8073
     1.0496   1.1098   1.2731   1.4666   1.5357   1.6438   1.7487   1.8548
     2.1671   2.2401   2.5243   2.5736   2.6515   2.6530   2.6845   2.7421
     2.7705   2.8008   2.8114   2.8231   2.8794   2.9147   2.9545   2.9744
     3.0070   3.0346   3.2467   3.2790   3.4717   3.5052   3.5356   3.7235
     3.9991   4.3462   4.4307   4.7412   4.7845   4.8457   4.8676   4.9197
     4.9612   4.9945   5.0079   5.2140   5.3174   5.4160   5.4283   5.4356
     5.5301   5.5646   5.6678   5.7761   5.8886   5.9421   5.9654   6.0076
     6.0272   6.0714   6.0766   6.1310   6.3246   6.3547   6.5311   6.6352
     6.7630   6.8532   6.8963   6.9428   7.0266   7.2221   7.3066   7.5695
     7.7034   7.7720   7.8493   7.9205   7.9860   8.0176   8.0601   8.1298
     8.2312   8.3568   8.4747   8.6164   8.7236   9.0267   9.2106   9.3895
     9.4366   9.5731   9.6245   9.8398   9.9872  10.0344  10.0818  10.3421
    10.5843  10.6163  10.7243  10.8052  10.9439  11.1264  11.1643  11.2036
    11.2873  11.3284  11.3680  11.4213  11.5226  11.5334  11.5423  11.5725
    11.6315  11.6380  11.6916  11.7206  11.8086  11.8170  11.8646  11.9851
    12.0593  12.0678  12.1639  12.1807  12.2436  12.3487  12.3700  12.4400
    12.5026  12.5365  12.6188  12.6714  12.7406  12.8784  12.9280  12.9938
    13.0333  13.1044  13.1325  13.1757  13.2263  13.2355  13.3653  13.4689
    13.5077  13.5458  13.5822  13.6233  13.6579  13.7083  13.7495  13.7881
    13.8407  13.9064  13.9274  13.9498  14.0072  14.0666  14.1836  14.2181
    14.2278  14.3029  14.3736  14.4441  14.4731  14.5011  14.5493  14.6502
    14.6552  14.7252  14.7339  14.7609  14.8686  14.9064  14.9703  15.0178
    15.1648  15.2289  15.3069  15.4143  15.4910  15.5302  15.6491  15.6850
    15.7366  15.7965  15.8424  15.9936  16.0264  16.0851  16.1408  16.1573
    16.2084  16.2592  16.2621  16.3542  16.3774  16.4569  16.4956  16.5493
    16.5571  16.5618  16.5825  16.6214  16.6714  16.7099  16.7714  16.8009
    16.8314  16.8601  16.8660  16.9194  16.9245  16.9454  16.9778  17.0659
    17.1508  17.2208  17.2675  17.3266  17.3441  17.3789  17.3953  17.4424
    17.4796  17.5199  17.5307  17.6029  17.6210  17.6993  17.7893  17.8941
    17.9742  18.0144  18.0549  18.1042  18.1286  18.1809  18.2687  18.3639
    18.4378  18.4545  18.5562  18.5927  18.6844  18.7344  18.7981  18.9187
    18.9228  18.9733  19.0679  19.1082  19.2021  19.3020  19.3119  19.3470
    19.3908  19.4651  19.5034  19.5068  19.5376  19.6195  19.7086  19.7395
    19.7563  19.8558  19.9620  20.0342  20.1211  20.1457  20.2680  20.2874
    20.2995  20.3611  20.4293  20.5049  20.5337  20.6161  20.6444  20.6888
    20.6991  20.7243  20.7318  20.7476  20.7968  20.8615  20.8629  20.9338
    20.9692  20.9813  21.0198  21.0738  21.1301  21.1635  21.2151  21.2194
    21.3484  21.4231  21.4614  21.5610  21.5917  21.6432  21.7119  21.7316
    21.7656  21.7717  21.8023  21.8552  21.9287  22.0165  22.0345  22.0540
    22.1263  22.1489  22.2027  22.2633  22.2634  22.3047  22.3655  22.3717
    22.4444  22.4487  22.5117  22.6075  22.6134  22.6628  22.7244  22.8037
    22.8766  22.8826  22.9585  22.9712  22.9919  23.0936  23.1466  23.1978
    23.1991  23.2768  23.3005  23.3420  23.3866  23.4666  23.5323  23.5489
    23.6242  23.6612  23.7423  23.7490  23.8009  23.8016  23.9060  23.9755
    24.0033  24.0614  24.1058  24.1492  24.1815  24.1929  24.2272  24.2844
    24.3200  24.3322  24.4276  24.4294  24.4950  24.5038  24.5691  24.6597
    24.6648  24.7621  24.8005  24.8036  24.8954  24.9783  24.9978  25.0408
    25.0589  25.1556  25.1742  25.2011  25.2415  25.2812  25.3667  25.4048
    25.5061  25.5296  25.5698  25.5940  25.6647  25.6956  25.7775  25.7938
    25.8100  25.9451  25.9957  26.0074  26.1059  26.1150  26.1677  26.1907
    26.2456  26.3598  26.3754  26.4401  26.4471  26.5406  26.5891  26.6116
    26.7036  26.7095  26.7612  26.7914  26.8226  26.8611  26.8728  26.9079
    26.9521  26.9721  27.0184  27.0422  27.0755  27.1288  27.1663  27.1842
    27.2026  27.2175  27.2591  27.3175  27.3885  27.4150  27.4205  27.4322
    27.5350  27.5664  27.5937

          k = 0.0000-0.3900 0.0000 ( 41482 PWs)   bands (ev):

   -60.9537 -60.8072 -60.7593 -60.7349 -60.6910 -60.6562 -60.6264 -60.6043
   -60.5659 -60.5394 -60.5343 -60.5292 -60.4871 -60.4479 -60.4465 -60.3535
   -35.4885 -35.4213 -35.3905 -35.3842 -35.2984 -35.2541 -35.2309 -35.2185
   -35.1834 -35.1368 -35.1133 -35.0201 -34.9883 -34.9363 -34.9331 -34.9080
   -34.8611 -34.8218 -34.8128 -34.8054 -34.8041 -34.8029 -34.7609 -34.7604
   -34.7390 -34.7369 -34.7118 -34.7035 -34.6962 -34.6559 -34.6515 -34.6513
   -34.5613 -34.5526 -34.5247 -34.5160 -34.5141 -34.4855 -34.4375 -34.3962
   -34.3680 -34.2914 -34.2360 -34.1801 -34.1371 -34.0734 -34.0423 -33.8765
   -22.4801 -18.7143 -18.4060 -18.1143 -17.9813 -17.9005 -17.8540 -17.8451
   -17.8309 -17.8110 -17.7933 -17.7269 -17.6747 -17.6630 -17.6272 -17.5448
   -17.4809 -17.4348 -17.4184 -17.3328 -17.2912 -17.0943 -17.0417 -16.9860
   -16.7751 -16.7368 -16.6571 -16.6570 -16.6270 -16.1468 -15.9099 -15.6241
   -15.3444 -14.5276  -7.1424  -6.6608  -6.4425  -6.3886  -6.2496  -6.1748
    -6.1403  -6.1069  -6.0635  -6.0560  -6.0265  -5.9939  -5.7866  -5.7529
    -5.6889  -5.6403  -5.5976  -5.5851  -5.5685  -5.4271  -5.4121  -5.3370
    -5.2246  -5.1845  -5.1208  -5.0516  -4.9136  -4.8345  -4.7987  -4.7647
    -4.7528  -4.7019  -4.6599  -4.4616  -4.3287  -4.3168  -4.2751  -4.0867
    -4.0865  -3.9745  -3.8901  -3.8438  -3.8338  -3.7228  -3.6812  -3.6243
    -3.5983  -3.4098  -3.3669  -3.3268  -3.3203  -3.2870  -3.2511  -3.1842
    -3.1377  -3.1187  -3.0925  -3.0616  -3.0326  -2.9941  -2.9161  -2.9130
    -2.8840  -2.7833  -2.6400  -2.6336  -2.5237  -2.5227  -2.4455  -2.3238
    -2.3056  -2.2341  -2.2207  -2.1575  -2.1421  -2.0367  -1.9894  -1.9174
    -1.8763  -1.8334  -1.8086  -1.7936  -1.7587  -1.7258  -1.7183  -1.6616
    -1.6568  -1.6045  -1.5976  -1.4882  -1.4071  -1.3825  -1.2816  -1.2407
    -1.0941  -0.9328  -0.8720  -0.6760  -0.4079  -0.3572  -0.3126  -0.0872
     0.0555   0.0686   0.1061   0.3166   0.3638   0.5884   0.6268   0.6939
     0.7882   0.7919   0.8200   1.4679   1.5248   1.6196   1.7017   2.1658
     2.2806   2.4419   2.5252   2.5402   2.5601   2.6406   2.7852   2.8110
     2.9079   2.9310   2.9448   2.9593   3.0455   3.0838   3.1233   3.1287
     3.2063   3.2689   3.3167   3.3813   3.5145   3.5383   3.5465   3.6287
     3.9487   4.0160   4.4793   4.4839   4.5634   4.5958   4.6325   4.7870
     4.9391   4.9512   5.0185   5.1185   5.1687   5.3342   5.4197   5.4542
     5.4814   5.5946   5.6009   5.6324   5.7898   5.8280   5.8469   5.8902
     6.0158   6.0354   6.1898   6.3446   6.3546   6.3805   6.6873   6.7136
     6.8381   6.9066   6.9348   7.0402   7.1252   7.1703   7.3790   7.4018
     7.6491   7.6976   7.9352   8.0167   8.0298   8.0871   8.1508   8.3042
     8.4516   8.4584   8.4872   8.5584   8.5620   8.6911   9.0199   9.0818
     9.1387   9.2104   9.4854   9.5646   9.8946   9.9822  10.0284  10.1930
    10.3080  10.7364  10.8917  10.9510  11.1055  11.1265  11.1499  11.2603
    11.4573  11.4632  11.5759  11.6991  11.7172  11.8093  11.8497  11.9332
    12.0329  12.0700  12.0971  12.1498  12.1756  12.1934  12.2695  12.2835
    12.3354  12.3518  12.4785  12.5205  12.5696  12.6036  12.6290  12.6692
    12.6979  12.7870  12.8030  12.8118  12.9240  12.9442  13.0262  13.0308
    13.0834  13.0916  13.1362  13.1506  13.1895  13.2315  13.2646  13.2698
    13.2986  13.3230  13.3501  13.4305  13.5277  13.5556  13.5838  13.6865
    13.7364  13.7525  13.7706  13.7871  13.8052  13.8832  13.8997  13.9368
    14.0380  14.0492  14.1491  14.1803  14.1999  14.2972  14.3356  14.4082
    14.4318  14.4968  14.5297  14.5556  14.5900  14.6313  14.7095  14.8353
    14.9725  14.9940  15.0710  15.1354  15.1735  15.2156  15.3933  15.5477
    15.5499  15.5862  15.7941  15.8451  15.9435  15.9578  15.9731  16.0499
    16.1217  16.1612  16.2332  16.2442  16.3053  16.3815  16.5467  16.5733
    16.6256  16.6826  16.7144  16.7512  16.7705  16.8265  16.8274  16.8392
    16.8925  16.9223  16.9435  17.0191  17.0424  17.1550  17.2013  17.2299
    17.3701  17.4356  17.4523  17.4788  17.5218  17.5538  17.6350  17.6457
    17.8149  17.8608  17.8691  17.9369  17.9782  18.0525  18.1526  18.2060
    18.2388  18.3101  18.3227  18.3536  18.3672  18.3829  18.4789  18.4989
    18.5548  18.5917  18.6319  18.6350  18.6524  18.7520  18.7754  18.7890
    18.8477  18.8609  18.8966  18.9289  18.9709  18.9794  19.0008  19.0309
    19.1272  19.1413  19.2172  19.2727  19.2861  19.3124  19.3894  19.4439
    19.5012  19.5572  19.6232  19.7332  19.8220  19.8848  19.8872  19.9237
    19.9601  20.0392  20.0526  20.1503  20.1752  20.1774  20.2040  20.2417
    20.3287  20.3414  20.3982  20.4095  20.4497  20.4525  20.6248  20.6716
    20.7532  20.8124  20.9000  20.9163  21.0202  21.0492  21.1293  21.1780
    21.2384  21.3216  21.3646  21.4007  21.4960  21.5670  21.6292  21.6471
    21.7986  21.8424  21.8723  21.8921  21.9485  22.0500  22.0833  22.1030
    22.1303  22.1307  22.1661  22.2972  22.3295  22.3536  22.3920  22.4263
    22.4285  22.4780  22.5212  22.5323  22.5798  22.6802  22.7104  22.7919
    22.8077  22.8091  22.9307  22.9414  22.9953  23.0937  23.1697  23.2039
    23.2611  23.4128  23.4472  23.5010  23.5674  23.6353  23.6406  23.7418
    23.7648  23.7700  23.8016  23.8380  23.9251  23.9678  23.9777  24.0308
    24.0902  24.0997  24.1603  24.3185  24.3797  24.4104  24.4793  24.5644
    24.5833  24.6419  24.6447  24.6632  24.7543  24.8173  24.8766  24.8888
    24.9848  25.0519  25.1044  25.1182  25.1972  25.2379  25.2907  25.3084
    25.3705  25.4637  25.4815  25.4994  25.5148  25.5324  25.5760  25.6390
    25.6909  25.7172  25.7313  25.7492  25.7633  25.8194  25.8832  25.9352
    25.9958  26.1488  26.1526  26.2375  26.2539  26.3078  26.3267  26.3356
    26.4591  26.5220  26.5548  26.5757  26.5974  26.6587  26.6927  26.7166
    26.7574  26.8018  26.8115  26.8798  26.8944  26.9391  26.9544  26.9889
    27.0155  27.0407  27.0839  27.1082  27.1564  27.1653  27.2205  27.2470
    27.2769  27.3036  27.3329  27.3444  27.3976  27.4587  27.4680  27.4979
    27.5646  27.5801  27.5970

          k = 0.2500 0.0000 0.0000 ( 41449 PWs)   bands (ev):

   -60.9445 -60.7903 -60.7690 -60.7264 -60.7082 -60.6394 -60.6156 -60.5873
   -60.5567 -60.5493 -60.5382 -60.5236 -60.5045 -60.4635 -60.4590 -60.3646
   -35.4023 -35.3361 -35.2975 -35.2485 -35.2322 -35.1540 -35.1415 -35.1095
   -35.0751 -35.0329 -35.0248 -35.0159 -34.9737 -34.9416 -34.9150 -34.8951
   -34.8629 -34.8480 -34.8444 -34.7882 -34.7849 -34.7739 -34.7709 -34.7617
   -34.7547 -34.7161 -34.6875 -34.6783 -34.6744 -34.6604 -34.6441 -34.6085
   -34.5860 -34.5568 -34.5546 -34.5452 -34.5271 -34.5256 -34.5247 -34.5138
   -34.4671 -34.3945 -34.3408 -34.3167 -34.2973 -34.2352 -34.1736 -34.0117
   -22.4801 -18.6294 -18.3791 -18.2244 -18.0661 -18.0421 -17.9860 -17.8328
   -17.7469 -17.6516 -17.5810 -17.5079 -17.4184 -17.4029 -17.3858 -17.3702
   -17.3522 -17.2901 -17.2797 -17.2622 -17.2272 -17.1350 -17.1225 -17.1112
   -17.0380 -17.0172 -16.9932 -16.9918 -16.7143 -16.2252 -15.9793 -15.6171
   -15.4229 -14.5326  -7.1359  -6.5691  -6.4794  -6.3598  -6.2903  -6.2787
    -6.2060  -6.0390  -5.8423  -5.7825  -5.6653  -5.6243  -5.5324  -5.5043
    -5.4290  -5.4013  -5.3837  -5.2613  -5.2228  -5.2016  -5.1946  -5.1616
    -5.1167  -5.0744  -5.0256  -4.9023  -4.8992  -4.7978  -4.7198  -4.7051
    -4.6973  -4.6367  -4.5159  -4.5040  -4.4681  -4.3534  -4.3315  -4.2735
    -4.1948  -4.1529  -4.1320  -4.0879  -4.0293  -3.9271  -3.8534  -3.8208
    -3.7588  -3.7184  -3.6328  -3.5999  -3.5205  -3.4400  -3.4101  -3.3075
    -3.2425  -3.1493  -3.1155  -2.9077  -2.8912  -2.7679  -2.7057  -2.6511
    -2.6149  -2.5790  -2.5687  -2.5411  -2.4833  -2.4533  -2.3927  -2.3787
    -2.3577  -2.3063  -2.2860  -2.2636  -2.2377  -2.2079  -2.1890  -2.1447
    -2.0599  -2.0457  -2.0347  -1.9520  -1.9393  -1.8555  -1.8295  -1.7929
    -1.7789  -1.6670  -1.5331  -1.4768  -1.4273  -1.3307  -1.1411  -1.1174
    -1.0960  -0.8667  -0.7017  -0.6530  -0.5172  -0.3500  -0.0373   0.0297
     0.0400   0.0842   0.1464   0.2730   0.9331   1.0262   1.0580   1.1826
     1.3034   1.3233   1.3535   1.5291   1.6503   1.7162   1.7537   1.8472
     1.9813   2.0819   2.1759   2.2025   2.2280   2.3137   2.4284   2.4369
     2.4714   2.5429   2.5615   2.5841   2.8515   2.8644   2.8784   3.0317
     3.0769   3.0900   3.2196   3.2755   3.3098   3.4357   3.4570   3.4895
     3.5282   3.5485   3.7104   3.7119   3.7698   3.8914   4.0681   4.1945
     4.4193   4.4405   4.9693   5.3038   5.4843   5.5562   5.6791   5.8194
     5.8223   5.9070   6.0750   6.0981   6.1241   6.1281   6.1603   6.1789
     6.2140   6.3542   6.4473   6.4811   6.5127   6.5558   6.6221   6.6669
     6.6911   6.7062   6.7198   6.8200   6.9102   6.9846   7.0378   7.1360
     7.2607   7.4649   7.5550   7.8005   7.9410   7.9847   8.3290   8.4301
     8.5281   8.6366   8.8240   9.1320   9.2810   9.3238   9.3873   9.4662
     9.6062   9.6240   9.7727   9.8261   9.8813  10.0554  10.1094  10.1496
    10.2271  10.3737  10.4644  10.4799  10.5717  10.6529  10.7129  10.8565
    10.8750  10.8991  11.1133  11.1722  11.2388  11.2510  11.3017  11.4247
    11.4874  11.5490  11.6314  11.7746  11.7917  11.8291  11.8829  11.9215
    11.9980  12.0189  12.0523  12.1625  12.2072  12.2315  12.2657  12.3259
    12.3309  12.4158  12.5183  12.5271  12.5803  12.6649  12.6876  12.8043
    12.8940  12.9367  12.9686  13.0489  13.2422  13.2837  13.3631  13.4322
    13.4913  13.5469  13.6043  13.6247  13.7186  13.8757  13.9725  14.0884
    14.1461  14.1669  14.2175  14.2380  14.2943  14.3214  14.4379  14.5034
    14.5483  14.6094  14.6380  14.6984  14.7418  14.7489  14.7850  14.7942
    14.8935  15.0369  15.0685  15.1006  15.2728  15.2993  15.3409  15.3571
    15.3867  15.4243  15.4695  15.5425  15.6418  15.7083  15.7582  15.8910
    15.9122  15.9564  16.0865  16.1278  16.2137  16.3010  16.4165  16.4930
    16.5481  16.5716  16.6190  16.6687  16.7162  16.7745  16.8577  16.9777
    17.0278  17.1099  17.1388  17.1672  17.1858  17.2379  17.2494  17.2653
    17.2784  17.3422  17.3661  17.4081  17.4507  17.4561  17.4835  17.5318
    17.5700  17.5886  17.6221  17.6452  17.7221  17.7528  17.7977  17.8516
    17.9191  17.9523  17.9687  18.0628  18.1185  18.1509  18.1708  18.2027
    18.2626  18.3798  18.4603  18.5153  18.5858  18.6662  18.6745  18.6876
    18.7355  18.7937  18.8157  18.8316  18.8700  18.9447  18.9875  19.0017
    19.0927  19.1481  19.2094  19.2903  19.3297  19.4202  19.4605  19.4874
    19.5512  19.6055  19.6512  19.6964  19.7226  19.7721  19.8120  19.8238
    19.8727  19.9107  19.9854  20.0065  20.0785  20.1231  20.1432  20.2305
    20.2548  20.2730  20.3351  20.3947  20.4470  20.4533  20.5436  20.6079
    20.6349  20.7234  20.7550  20.8027  20.8173  20.8427  20.9147  21.0088
    21.0578  21.0730  21.0767  21.0899  21.1310  21.2260  21.3223  21.3509
    21.3819  21.4727  21.4788  21.5321  21.5573  21.5823  21.6232  21.6505
    21.6765  21.6911  21.7273  21.7687  21.7846  21.8021  21.8711  21.8864
    21.8925  21.9441  21.9577  21.9684  22.0494  22.0970  22.1326  22.2434
    22.2918  22.3324  22.3777  22.4142  22.4604  22.5610  22.5865  22.6487
    22.6876  22.7339  22.7848  22.8358  22.8494  22.9811  23.0286  23.0564
    23.0986  23.1265  23.1806  23.2023  23.2877  23.3178  23.3978  23.4587
    23.5099  23.5284  23.5661  23.6468  23.6940  23.7554  23.7641  23.7900
    23.8802  23.9069  23.9700  24.0038  24.0342  24.0409  24.0899  24.1303
    24.1554  24.2518  24.2946  24.3142  24.3596  24.4059  24.4296  24.4893
    24.5317  24.5530  24.5631  24.6069  24.6358  24.6508  24.6838  24.7182
    24.7487  24.8138  24.8495  24.8799  24.9019  24.9376  24.9867  25.0099
    25.0513  25.0621  25.1083  25.1389  25.1837  25.2364  25.2682  25.3168
    25.3810  25.3895  25.4323  25.4772  25.5716  25.6151  25.6660  25.6824
    25.7079  25.7524  25.7619  25.8380  25.8696  25.9163  25.9448  25.9954
    26.0198  26.0362  26.0603  26.0986  26.1645  26.2042  26.2271  26.2473
    26.3113  26.3271  26.3644  26.4204  26.4563  26.5153  26.5311  26.5771
    26.6007  26.6498  26.6710  26.7234  26.7781  26.8069  26.8323  26.8915
    26.9169  26.9570  26.9942

          k = 0.2500 0.1950 0.0000 ( 41402 PWs)   bands (ev):

   -60.9445 -60.7903 -60.7689 -60.7263 -60.7082 -60.6393 -60.6156 -60.5873
   -60.5567 -60.5493 -60.5382 -60.5236 -60.5045 -60.4635 -60.4590 -60.3646
   -35.4025 -35.3371 -35.2976 -35.2487 -35.2322 -35.1559 -35.1419 -35.1040
   -35.0753 -35.0398 -35.0382 -35.0069 -34.9575 -34.9319 -34.9149 -34.8953
   -34.8443 -34.8417 -34.8407 -34.7899 -34.7874 -34.7738 -34.7710 -34.7629
   -34.7547 -34.7375 -34.6873 -34.6785 -34.6685 -34.6635 -34.6550 -34.6153
   -34.5860 -34.5561 -34.5546 -34.5453 -34.5316 -34.5256 -34.5243 -34.5152
   -34.4680 -34.3939 -34.3404 -34.3167 -34.2973 -34.2350 -34.1736 -34.0117
   -22.4799 -18.6116 -18.3649 -18.1310 -17.9776 -17.9484 -17.8722 -17.8171
   -17.7478 -17.7222 -17.6654 -17.6560 -17.6276 -17.5999 -17.5480 -17.4073
   -17.3632 -17.2540 -17.2446 -17.1937 -17.1456 -17.1307 -17.0656 -17.0508
   -17.0348 -16.9889 -16.9433 -16.9298 -16.7126 -16.2258 -15.9794 -15.6165
   -15.4233 -14.5296  -7.1264  -6.5559  -6.4365  -6.1527  -6.0415  -5.9914
    -5.9554  -5.9404  -5.8881  -5.8835  -5.8573  -5.8192  -5.7552  -5.6634
    -5.6159  -5.5161  -5.4638  -5.4391  -5.3425  -5.3273  -5.3034  -5.2942
    -5.2075  -5.1392  -5.1015  -4.9284  -4.8692  -4.7947  -4.7237  -4.6745
    -4.6266  -4.5676  -4.4747  -4.4335  -4.3921  -4.3699  -4.3150  -4.2284
    -4.1243  -4.0731  -4.0181  -3.9857  -3.9012  -3.8326  -3.7329  -3.6806
    -3.6245  -3.5164  -3.4484  -3.4048  -3.3799  -3.3560  -3.3508  -3.3168
    -3.2144  -3.1536  -3.0433  -2.9639  -2.9380  -2.8397  -2.8232  -2.8024
    -2.7700  -2.7360  -2.7092  -2.6846  -2.6368  -2.6161  -2.5619  -2.5069
    -2.4373  -2.4252  -2.3785  -2.3615  -2.3234  -2.2798  -2.2422  -2.1974
    -2.0587  -2.0271  -1.9544  -1.9153  -1.8943  -1.8358  -1.7957  -1.7420
    -1.7124  -1.6242  -1.5338  -1.4640  -1.4100  -1.3884  -1.1709  -1.1044
    -1.0945  -0.9120  -0.7063  -0.6815  -0.6017  -0.3483   0.0577   0.2228
     0.3744   0.3990   0.4136   0.4560   0.7971   0.8436   0.9568   1.0195
     1.1171   1.2005   1.3424   1.3653   1.5210   1.6051   1.7489   1.9064
     1.9794   2.1895   2.2068   2.3791   2.4011   2.4551   2.5105   2.5298
     2.5905   2.6595   2.7171   2.8625   2.8746   2.9422   3.0008   3.0335
     3.1132   3.1329   3.2389   3.2553   3.2997   3.4171   3.5061   3.5601
     3.6066   3.6429   3.6950   3.7937   3.8294   3.9243   3.9713   4.1983
     4.2734   4.4514   5.1331   5.2749   5.3789   5.4011   5.4190   5.4404
     5.5783   5.5947   5.6608   5.6936   5.7452   5.7872   5.9331   6.0083
     6.0954   6.1662   6.2481   6.2979   6.4916   6.6116   6.6647   6.7514
     6.8423   6.9234   7.0122   7.1923   7.2958   7.3315   7.3981   7.4688
     7.6067   7.6207   7.7447   7.8106   8.0494   8.1556   8.2449   8.4045
     8.4410   8.5074   8.5701   8.6656   8.7859   8.9567   9.0786   9.3178
     9.3670   9.6071   9.7272   9.7461   9.8384   9.9108  10.0513  10.2109
    10.3252  10.3914  10.4586  10.5495  10.6397  10.6640  10.8045  10.8988
    10.9394  10.9759  11.0593  11.1410  11.1702  11.2168  11.2679  11.4343
    11.4951  11.5797  11.6590  11.7857  11.8226  11.9028  11.9460  11.9827
    12.0494  12.1323  12.2115  12.2546  12.3104  12.3954  12.4329  12.4891
    12.5530  12.5771  12.6194  12.7349  12.7638  12.8526  12.9233  12.9952
    13.1006  13.2241  13.2605  13.3427  13.4213  13.5499  13.5766  13.6428
    13.7797  13.8591  13.8945  13.9847  14.0513  14.1012  14.1442  14.1896
    14.2648  14.2982  14.3420  14.3693  14.4144  14.4632  14.4927  14.5323
    14.5945  14.6383  14.6644  14.7081  14.7695  14.8143  14.8505  14.8927
    14.9542  15.0056  15.0438  15.0934  15.1551  15.1733  15.2283  15.2416
    15.3579  15.3893  15.4512  15.5761  15.7119  15.7490  15.8035  15.8773
    15.9166  15.9328  15.9905  16.0458  16.0631  16.1237  16.1438  16.2222
    16.2745  16.3408  16.4193  16.4400  16.5091  16.5666  16.6217  16.6574
    16.6706  16.6974  16.7256  16.7741  16.8028  16.8264  16.9287  16.9713
    17.0300  17.0675  17.0877  17.1291  17.1701  17.2608  17.3205  17.3841
    17.4722  17.5117  17.5456  17.6029  17.6534  17.6936  17.7144  17.7532
    17.8127  17.8649  17.9017  17.9443  17.9769  18.0285  18.0716  18.1388
    18.1680  18.2618  18.3180  18.3684  18.3967  18.4489  18.5278  18.5911
    18.6051  18.6363  18.6858  18.7244  18.8071  18.8454  18.8621  18.8805
    18.9526  18.9765  19.0137  19.0502  19.0850  19.1495  19.2000  19.2798
    19.3541  19.4213  19.4594  19.5069  19.5305  19.5576  19.6314  19.7428
    19.7840  19.8136  19.8892  19.9238  20.0003  20.0526  20.0885  20.1821
    20.2175  20.2509  20.2931  20.3515  20.4231  20.4455  20.4852  20.5253
    20.5801  20.6360  20.7068  20.7864  20.8418  20.8793  20.9364  21.0042
    21.0385  21.0853  21.1302  21.2340  21.2566  21.2866  21.3216  21.4224
    21.4700  21.4877  21.5733  21.6549  21.6829  21.7495  21.7782  21.8593
    21.9198  21.9503  21.9837  22.0214  22.0543  22.0689  22.1206  22.1652
    22.1775  22.2016  22.2702  22.3117  22.3488  22.4095  22.4670  22.5147
    22.5411  22.5829  22.6060  22.6472  22.7308  22.7622  22.8105  22.8732
    22.9151  22.9355  22.9740  23.0143  23.0913  23.1484  23.1709  23.1936
    23.2395  23.2989  23.3258  23.3662  23.3980  23.4734  23.4789  23.5332
    23.5481  23.5917  23.6149  23.6566  23.7062  23.7410  23.7751  23.8050
    23.8327  23.8571  23.9008  23.9349  24.0283  24.0356  24.0765  24.1360
    24.1562  24.2088  24.2325  24.2711  24.3360  24.3717  24.4004  24.4229
    24.4879  24.5129  24.5494  24.5783  24.6027  24.6498  24.6855  24.6941
    24.7382  24.7693  24.7824  24.8275  24.8697  24.8915  24.9334  24.9570
    24.9853  25.0410  25.0676  25.1056  25.1484  25.2013  25.2423  25.2955
    25.3140  25.3591  25.4000  25.4636  25.4979  25.5674  25.5998  25.6197
    25.6512  25.6762  25.7583  25.8097  25.8594  25.8991  25.9153  25.9863
    26.0538  26.0668  26.1557  26.1954  26.2261  26.2506  26.2866  26.3426
    26.3747  26.4589  26.4780  26.5285  26.5501  26.6101  26.6386  26.6897
    26.6976  26.7534  26.8041  26.8310  26.8668  26.9110  26.9458  26.9579
    27.0108  27.0395  27.1034

          k = 0.2500-0.3900 0.0000 ( 41418 PWs)   bands (ev):

   -60.9445 -60.7903 -60.7689 -60.7263 -60.7082 -60.6393 -60.6156 -60.5874
   -60.5567 -60.5493 -60.5382 -60.5236 -60.5045 -60.4635 -60.4590 -60.3646
   -35.4028 -35.3380 -35.2978 -35.2488 -35.2322 -35.1579 -35.1423 -35.0983
   -35.0755 -35.0503 -35.0432 -34.9972 -34.9457 -34.9213 -34.9147 -34.8955
   -34.8443 -34.8339 -34.7974 -34.7938 -34.7908 -34.7825 -34.7737 -34.7710
   -34.7614 -34.7547 -34.6872 -34.6787 -34.6667 -34.6667 -34.6623 -34.6222
   -34.5861 -34.5554 -34.5546 -34.5453 -34.5363 -34.5255 -34.5240 -34.5166
   -34.4688 -34.3933 -34.3399 -34.3167 -34.2972 -34.2347 -34.1735 -34.0116
   -22.4797 -18.5960 -18.3556 -17.9861 -17.9490 -17.8545 -17.7782 -17.7622
   -17.7536 -17.7243 -17.7102 -17.6764 -17.6279 -17.5967 -17.5917 -17.5020
   -17.4644 -17.4635 -17.4314 -17.3279 -17.3027 -17.1321 -17.0347 -16.9871
   -16.9388 -16.8948 -16.8126 -16.7824 -16.7103 -16.2266 -15.9796 -15.6160
   -15.4237 -14.5266  -7.1162  -6.5485  -6.4201  -6.2089  -6.1410  -6.1294
    -6.0216  -5.8664  -5.8564  -5.7725  -5.7501  -5.6814  -5.6294  -5.5972
    -5.5073  -5.4295  -5.3798  -5.3522  -5.3175  -5.2962  -5.2576  -5.2254
    -5.1924  -5.1881  -5.0984  -5.0746  -5.0447  -4.9721  -4.9556  -4.9305
    -4.9051  -4.7448  -4.6711  -4.5380  -4.5065  -4.3194  -4.2089  -4.1828
    -4.0756  -4.0201  -3.8984  -3.8600  -3.8011  -3.6107  -3.5247  -3.4900
    -3.4676  -3.4465  -3.3859  -3.3638  -3.3470  -3.3107  -3.2303  -3.1960
    -3.1330  -3.0906  -3.0466  -3.0281  -3.0135  -2.9880  -2.9784  -2.9084
    -2.8765  -2.8323  -2.8163  -2.7678  -2.7166  -2.7130  -2.6965  -2.6799
    -2.5799  -2.5418  -2.4915  -2.4250  -2.3871  -2.2714  -2.1944  -2.1143
    -1.9951  -1.9910  -1.9780  -1.9485  -1.8273  -1.7356  -1.7139  -1.6784
    -1.6039  -1.5518  -1.4762  -1.4631  -1.4382  -1.3634  -1.1816  -1.1119
    -1.0752  -1.0622  -0.8494  -0.6462  -0.6055  -0.3490   0.0632   0.2305
     0.5482   0.5991   0.6054   0.6175   0.6505   0.7391   0.8642   0.9183
     0.9742   1.0172   1.1047   1.3349   1.4203   1.7190   1.9084   1.9178
     2.1277   2.1735   2.2050   2.3544   2.5375   2.6355   2.6625   2.7460
     2.7724   2.8362   2.8628   2.9507   2.9642   3.0115   3.0677   3.0764
     3.1958   3.2236   3.2906   3.3221   3.3499   3.4296   3.5399   3.6033
     3.7179   3.7740   3.8325   3.8754   3.9628   3.9919   4.0644   4.1625
     4.2877   4.3955   4.6546   4.6679   4.7313   4.7561   5.1567   5.1683
     5.2640   5.3002   5.4428   5.5523   5.7093   5.7162   5.9599   6.0358
     6.1380   6.1825   6.4600   6.4904   6.6392   6.6863   6.6938   6.8091
     6.9049   7.0931   7.1304   7.2357   7.4266   7.4674   7.6347   7.6434
     7.7092   7.7293   7.8324   7.9682   8.0101   8.1110   8.1813   8.3111
     8.3292   8.4458   8.4940   8.5825   8.7923   8.8792   8.9372   8.9646
     9.4479   9.4944   9.5496   9.5716   9.7812   9.9261  10.0557  10.1152
    10.2473  10.2622  10.3163  10.3466  10.4542  10.4726  10.5247  10.6391
    10.7981  10.8614  10.9949  11.0501  11.1451  11.1864  11.3856  11.4865
    11.5318  11.5444  11.6766  11.8010  11.9597  12.0878  12.2480  12.3096
    12.3587  12.4229  12.5002  12.5535  12.5856  12.6384  12.8408  13.0223
    13.0941  13.1057  13.1457  13.1591  13.2550  13.2586  13.3284  13.3469
    13.3967  13.4429  13.4820  13.5372  13.5425  13.5885  13.6243  13.7035
    13.7759  13.8165  13.8496  13.9494  14.0246  14.0721  14.1350  14.1596
    14.1793  14.2342  14.2567  14.2873  14.3124  14.4262  14.5065  14.5655
    14.6274  14.6909  14.7090  14.7786  14.8061  14.8410  14.8858  14.9112
    14.9839  15.0128  15.0431  15.0632  15.1652  15.2160  15.2538  15.3151
    15.3287  15.3721  15.4649  15.5473  15.5814  15.6086  15.7317  15.7651
    15.8479  15.8711  15.9018  15.9940  16.0407  16.1390  16.1541  16.1814
    16.1886  16.3050  16.3229  16.3372  16.3734  16.3769  16.3858  16.4074
    16.4384  16.4644  16.5331  16.5681  16.6267  16.7407  16.7692  16.8315
    16.8667  16.8891  16.9266  16.9597  17.0111  17.0525  17.0711  17.0994
    17.1497  17.2215  17.2655  17.3300  17.3815  17.4254  17.5189  17.5415
    17.5630  17.6048  17.7096  17.7317  17.7727  17.8287  17.8768  17.9403
    17.9850  18.1500  18.1666  18.2007  18.2477  18.2738  18.3200  18.3458
    18.4153  18.4307  18.4624  18.4996  18.5451  18.5965  18.6514  18.7006
    18.7651  18.8253  18.8406  18.9225  18.9442  19.0488  19.0798  19.1007
    19.2805  19.3927  19.4760  19.4844  19.5492  19.5869  19.6646  19.7149
    19.7477  19.8346  19.8957  19.9422  19.9972  20.0130  20.0682  20.1275
    20.1542  20.3167  20.4025  20.4879  20.5142  20.5810  20.6370  20.6542
    20.7102  20.8040  20.8928  20.9126  20.9969  21.0774  21.1413  21.1593
    21.1783  21.2391  21.2571  21.3076  21.3267  21.3825  21.4075  21.4324
    21.4850  21.5246  21.6363  21.6657  21.6987  21.7382  21.7593  21.8144
    21.8801  21.9697  22.0802  22.1000  22.1812  22.2104  22.2789  22.2905
    22.3339  22.3600  22.3764  22.4025  22.4543  22.4713  22.5476  22.5693
    22.6304  22.6633  22.6906  22.7134  22.7518  22.7607  22.8062  22.8356
    22.8576  22.8771  22.9013  22.9170  22.9738  22.9882  23.0351  23.1121
    23.1980  23.2180  23.2300  23.2401  23.2794  23.2982  23.3482  23.3725
    23.4351  23.4561  23.4886  23.5365  23.5756  23.6466  23.6507  23.6650
    23.7449  23.7948  23.8542  23.9661  24.0127  24.0498  24.1075  24.1438
    24.1916  24.2209  24.2486  24.3055  24.3346  24.3683  24.4013  24.4690
    24.5023  24.5246  24.5391  24.6304  24.6615  24.7472  24.7798  24.8054
    24.8442  24.8958  24.9777  25.0075  25.0755  25.1566  25.2105  25.2801
    25.3101  25.3157  25.3361  25.3906  25.4443  25.5104  25.5399  25.5491
    25.6280  25.6528  25.6946  25.7576  25.7729  25.8221  25.8564  25.8832
    25.9560  26.0767  26.0895  26.1272  26.1747  26.2099  26.2447  26.2476
    26.2627  26.3049  26.3227  26.3756  26.3796  26.4202  26.4675  26.5046
    26.5511  26.5799  26.6257  26.6347  26.6910  26.7435  26.7630  26.8133
    26.9476  26.9774  27.0206  27.0439  27.1039  27.1478  27.1855  27.2243
    27.2655  27.2940  27.3551

          k =-0.5000 0.0000 0.0000 ( 41396 PWs)   bands (ev):

   -60.9341 -60.7797 -60.7495 -60.7494 -60.7169 -60.6030 -60.5983 -60.5981
   -60.5481 -60.5480 -60.5440 -60.5176 -60.5112 -60.4956 -60.4719 -60.3774
   -35.3833 -35.2679 -35.1343 -35.0672 -35.0668 -35.0628 -34.9968 -34.9839
   -34.9095 -34.8980 -34.8947 -34.8939 -34.8841 -34.8737 -34.8734 -34.8520
   -34.8352 -34.8157 -34.8084 -34.7929 -34.7918 -34.7865 -34.7668 -34.7599
   -34.7092 -34.7091 -34.7044 -34.6999 -34.6918 -34.6824 -34.6670 -34.6655
   -34.6231 -34.6221 -34.6215 -34.6179 -34.6126 -34.6087 -34.6033 -34.5898
   -34.5708 -34.5522 -34.5430 -34.5253 -34.4838 -34.3486 -34.3403 -34.1874
   -22.4797 -18.4646 -18.2418 -18.0925 -17.9058 -17.8531 -17.7382 -17.7031
   -17.6782 -17.6600 -17.6322 -17.5796 -17.5757 -17.5454 -17.4794 -17.3293
   -17.3052 -17.3015 -17.2996 -17.2509 -17.2507 -17.2063 -17.1880 -17.1719
   -17.1365 -17.1346 -17.0324 -16.9644 -16.7179 -16.3541 -16.0420 -15.5666
   -15.5445 -14.5317  -7.1202  -6.6037  -6.1062  -6.0780  -5.7691  -5.7109
    -5.6984  -5.6513  -5.6440  -5.6403  -5.5950  -5.5661  -5.5204  -5.4912
    -5.4586  -5.3734  -5.3642  -5.3173  -5.2969  -5.2539  -5.2245  -5.1839
    -5.1429  -5.1316  -5.0819  -5.0775  -5.0244  -4.9955  -4.9637  -4.8194
    -4.7004  -4.6356  -4.6176  -4.4564  -4.4201  -4.3857  -4.1512  -4.1421
    -4.0835  -3.9326  -3.9251  -3.7824  -3.7637  -3.7403  -3.6580  -3.5899
    -3.5729  -3.4983  -3.4710  -3.4010  -3.3969  -3.3641  -3.3310  -3.2499
    -3.2499  -3.2172  -3.2137  -3.1516  -3.0690  -3.0284  -3.0064  -2.9278
    -2.9133  -2.9027  -2.8531  -2.8337  -2.7933  -2.7058  -2.6819  -2.6690
    -2.6207  -2.5300  -2.5052  -2.4509  -2.4441  -2.3697  -2.3693  -2.3058
    -2.2565  -2.1743  -2.1621  -1.9892  -1.9711  -1.8972  -1.8915  -1.8384
    -1.6509  -1.5337  -1.5074  -1.4685  -1.2865  -1.1266  -1.0571  -0.9955
    -0.9848  -0.8065  -0.8051  -0.6297  -0.6109  -0.2987   0.2509   0.8250
     0.9993   1.0656   1.0688   1.1843   1.2800   1.2947   1.3158   1.3277
     1.3796   1.4648   1.4656   1.4725   1.4837   1.5314   1.5637   1.5954
     1.7209   1.7431   1.7470   1.8915   1.8918   1.8979   2.0799   2.1106
     2.1133   2.1626   2.2082   2.3699   2.3759   2.3967   2.5195   2.6151
     2.6817   2.6980   2.9089   2.9269   2.9371   3.1156   3.2144   3.3100
     3.3485   3.4122   3.4379   3.4825   3.6384   3.7581   3.8914   3.9452
     4.0120   4.0618   5.1322   5.2667   5.3214   5.5517   5.7781   5.9605
     6.0191   6.0778   6.0919   6.1475   6.1533   6.1878   6.1905   6.2331
     6.2462   6.2693   6.3297   6.3366   6.3779   6.4530   6.4912   6.6049
     6.6416   6.7361   6.7699   7.0652   7.0687   7.2408   7.3364   7.5183
     7.6098   7.6791   7.7383   7.9546   7.9885   8.0929   8.1561   8.2407
     8.4090   8.4204   8.6867   8.8078   8.9137   8.9214   9.3620   9.4389
     9.5706   9.5900   9.9513  10.0871  10.1380  10.1423  10.1946  10.2379
    10.3074  10.4328  10.4587  10.5313  10.6790  10.6944  10.7285  10.7564
    10.9060  10.9587  10.9598  10.9960  11.0411  11.0703  11.1038  11.2350
    11.3817  11.4046  11.4806  11.5201  11.5225  11.6141  11.6859  11.7846
    11.7888  11.9426  12.1232  12.1546  12.1666  12.1922  12.2095  12.2504
    12.3665  12.4724  12.5202  12.5536  12.6039  12.6316  12.7894  12.8217
    12.8902  12.9494  13.0741  13.1338  13.1940  13.2348  13.2847  13.3651
    13.3905  13.4796  13.6372  13.6697  13.8693  13.9158  13.9911  13.9912
    14.0943  14.1873  14.2568  14.2861  14.3503  14.3625  14.5725  14.7255
    14.8226  14.9215  15.0215  15.0989  15.1298  15.1991  15.2644  15.3132
    15.3476  15.3582  15.4224  15.4380  15.4983  15.6226  15.6409  15.6882
    15.8219  15.8536  15.8614  15.8753  16.0790  16.0795  16.1390  16.1545
    16.3012  16.3470  16.3595  16.4091  16.4136  16.4544  16.4980  16.5042
    16.6114  16.6693  16.7260  16.8078  16.8750  16.8961  16.9386  16.9600
    16.9622  17.0785  17.1220  17.1325  17.3016  17.3552  17.3786  17.4114
    17.6098  17.6672  17.6820  17.7215  17.7619  17.8002  17.8722  17.8998
    17.9193  17.9559  18.0102  18.0229  18.1343  18.1861  18.2957  18.3441
    18.3770  18.3885  18.4127  18.4578  18.5425  18.5555  18.5906  18.6320
    18.6695  18.7136  18.7628  18.8136  18.8149  18.8774  18.8776  18.9111
    18.9936  19.0624  19.1000  19.1968  19.2604  19.2630  19.3332  19.4051
    19.4297  19.5257  19.5447  19.5858  19.6295  19.6716  19.6891  19.7541
    19.8328  19.8467  19.8660  19.8766  19.8854  19.8881  19.9514  20.0610
    20.0841  20.1281  20.1356  20.1798  20.1976  20.2590  20.2594  20.3009
    20.3612  20.3980  20.4074  20.4913  20.5201  20.5558  20.6033  20.6437
    20.6807  20.6906  20.7010  20.7066  20.7518  20.7792  20.8152  20.8315
    20.9116  20.9361  20.9755  20.9847  21.0164  21.0345  21.1111  21.1112
    21.1629  21.1800  21.1953  21.2253  21.2652  21.3144  21.3341  21.3666
    21.4515  21.4824  21.4843  21.5289  21.5462  21.6198  21.6251  21.6706
    21.6737  21.7110  21.8479  21.9171  21.9343  21.9482  22.0236  22.0750
    22.1253  22.1314  22.1692  22.1711  22.1964  22.2198  22.3650  22.3881
    22.3956  22.4227  22.4257  22.5502  22.5704  22.6019  22.7103  22.7840
    22.8347  22.8792  22.8928  22.9332  22.9669  23.0273  23.0685  23.0762
    23.1439  23.1735  23.2112  23.2457  23.2755  23.2910  23.2941  23.3694
    23.4782  23.5340  23.5656  23.6705  23.6767  23.7122  23.7774  23.7903
    23.8643  23.8700  23.9607  23.9699  24.0226  24.0840  24.1456  24.1744
    24.1881  24.2612  24.3248  24.3380  24.4123  24.4431  24.4752  24.5247
    24.5312  24.5736  24.6189  24.6325  24.6689  24.6992  24.6999  24.7680
    24.7949  24.8159  24.8698  24.9301  25.0383  25.0514  25.0539  25.1038
    25.1425  25.1669  25.2643  25.2876  25.2980  25.3807  25.3859  25.4681
    25.4734  25.5177  25.5659  25.6052  25.6557  25.6660  25.6836  25.7012
    25.7240  25.7764  25.8042  25.8415  25.8507  25.8916  25.9277  25.9518
    25.9663  26.0463  26.0940  26.1045  26.1451  26.1806  26.2115  26.2694
    26.3561  26.3649  26.4034  26.4259  26.4800  26.5121  26.5381  26.6109
    26.6140  26.7509  26.7603

          k =-0.5000 0.1950 0.0000 ( 41404 PWs)   bands (ev):

   -60.9340 -60.7797 -60.7495 -60.7494 -60.7169 -60.6031 -60.5983 -60.5981
   -60.5482 -60.5480 -60.5441 -60.5176 -60.5112 -60.4956 -60.4719 -60.3774
   -35.3835 -35.2679 -35.1345 -35.0653 -35.0651 -35.0642 -34.9990 -34.9744
   -34.9097 -34.8983 -34.8919 -34.8913 -34.8843 -34.8768 -34.8738 -34.8570
   -34.8192 -34.8157 -34.8007 -34.7929 -34.7918 -34.7868 -34.7692 -34.7601
   -34.7284 -34.7096 -34.7094 -34.6872 -34.6838 -34.6798 -34.6719 -34.6644
   -34.6222 -34.6220 -34.6214 -34.6174 -34.6128 -34.6081 -34.6023 -34.5949
   -34.5757 -34.5555 -34.5526 -34.5286 -34.4838 -34.3486 -34.3398 -34.1873
   -22.4795 -18.4619 -18.2338 -18.0846 -17.8671 -17.8235 -17.7194 -17.7054
   -17.6568 -17.6508 -17.6506 -17.5805 -17.5715 -17.5558 -17.5141 -17.3717
   -17.3434 -17.3153 -17.2948 -17.2518 -17.2514 -17.2502 -17.1772 -17.1502
   -17.1344 -17.1254 -17.0069 -16.9653 -16.7190 -16.3548 -16.0426 -15.5670
   -15.5449 -14.5287  -7.1096  -6.6016  -6.0997  -6.0641  -5.8656  -5.8610
    -5.7990  -5.7917  -5.7515  -5.7354  -5.6622  -5.6307  -5.6253  -5.6082
    -5.4805  -5.4021  -5.3243  -5.2219  -5.1960  -5.1414  -5.1058  -5.0652
    -4.9903  -4.9139  -4.8754  -4.8587  -4.8582  -4.7745  -4.7267  -4.6694
    -4.6545  -4.6291  -4.4652  -4.4280  -4.3197  -4.2854  -4.1820  -4.1275
    -4.1041  -4.0311  -4.0279  -3.9863  -3.9620  -3.9190  -3.8973  -3.8140
    -3.7212  -3.6116  -3.5892  -3.5654  -3.5252  -3.4258  -3.3968  -3.3816
    -3.3797  -3.2213  -3.1863  -3.1462  -3.0953  -3.0362  -3.0079  -2.9673
    -2.9542  -2.9071  -2.8838  -2.8305  -2.7656  -2.7511  -2.6873  -2.6601
    -2.5820  -2.5621  -2.5452  -2.4552  -2.4303  -2.4091  -2.3649  -2.3074
    -2.2791  -2.1401  -2.1026  -1.9097  -1.8624  -1.8325  -1.7642  -1.6612
    -1.5873  -1.5661  -1.4439  -1.4417  -1.3509  -1.1671  -1.0969  -1.0225
    -0.9619  -0.7892  -0.7861  -0.6747  -0.6586  -0.3239   0.2652   0.7723
     0.9768   0.9966   1.0898   1.1216   1.1857   1.2625   1.2859   1.4074
     1.4330   1.5239   1.5558   1.5663   1.6127   1.6342   1.6883   1.6989
     1.7484   1.8066   1.8966   1.9120   1.9157   2.0765   2.0874   2.1793
     2.2155   2.3128   2.3500   2.3838   2.4264   2.4668   2.5739   2.6704
     2.8085   2.9378   3.0068   3.0472   3.0788   3.1146   3.2000   3.3140
     3.3165   3.4169   3.4508   3.4588   3.5223   3.6987   3.8292   3.8630
     3.9626   4.1637   5.1283   5.1859   5.2077   5.3229   5.3511   5.4020
     5.4112   5.4742   5.4962   5.5810   5.6752   5.6753   5.9726   6.2681
     6.3331   6.3807   6.4468   6.6053   6.6679   6.6794   6.8413   6.9589
     6.9750   7.0777   7.1761   7.1966   7.1998   7.2948   7.4378   7.5913
     7.7233   7.8065   7.8431   7.9892   8.1037   8.1484   8.1789   8.1791
     8.5003   8.5292   8.8240   8.9442   8.9853   9.0646   9.1771   9.2168
     9.3184   9.3626   9.4604   9.4805   9.5639   9.7070   9.8055   9.8281
     9.8936  10.0011  10.1180  10.2569  10.4951  10.5404  10.5750  10.5838
    10.6296  10.7181  10.7436  10.8482  11.1900  11.2021  11.2720  11.3085
    11.3103  11.5458  11.6668  11.7302  11.9049  12.1063  12.1087  12.1241
    12.1351  12.2774  12.3862  12.4044  12.4217  12.4344  12.6340  12.7043
    12.7473  12.7617  12.7916  12.8151  12.8523  12.9333  13.0190  13.0994
    13.1967  13.2273  13.2540  13.3104  13.3345  13.3804  13.6835  13.7713
    13.7826  13.8334  13.8351  13.9145  13.9985  13.9986  14.0712  14.1234
    14.3333  14.3759  14.4787  14.4975  14.5894  14.6510  14.6722  14.7501
    14.8609  14.9893  15.0689  15.0756  15.1515  15.1933  15.3362  15.3753
    15.4725  15.4801  15.5166  15.5872  15.6477  15.6830  15.7433  15.7513
    15.8086  15.8333  15.8652  15.9079  15.9875  16.0236  16.0884  16.1217
    16.1465  16.1789  16.2445  16.2518  16.2999  16.3235  16.3643  16.4116
    16.4221  16.4312  16.4883  16.5801  16.6034  16.6397  16.7470  16.8068
    16.9127  16.9464  16.9491  17.0401  17.0737  17.1252  17.1717  17.2279
    17.2606  17.3315  17.3986  17.4309  17.4923  17.4980  17.5549  17.5674
    17.6668  17.7701  17.8342  17.8513  17.8809  17.8854  17.9386  17.9569
    18.0328  18.0469  18.1199  18.1717  18.1763  18.2141  18.3514  18.3858
    18.4750  18.4764  18.4869  18.5157  18.5622  18.6174  18.6476  18.6512
    18.7406  18.7534  18.8426  18.8773  18.9298  18.9812  19.0073  19.0480
    19.0813  19.1061  19.1511  19.2212  19.2494  19.2735  19.2867  19.3471
    19.3839  19.4340  19.4905  19.4950  19.5758  19.6230  19.6386  19.6612
    19.7153  19.7630  19.8152  19.8321  19.8843  19.9348  20.0028  20.1028
    20.1502  20.1800  20.2480  20.2757  20.2779  20.3266  20.4384  20.4593
    20.5389  20.5618  20.6248  20.6594  20.7560  20.8148  20.9024  20.9611
    21.0269  21.0621  21.0639  21.1308  21.1440  21.1901  21.2804  21.2991
    21.3440  21.3950  21.4096  21.4767  21.5179  21.5946  21.6132  21.6803
    21.7504  21.8243  21.8632  21.9018  21.9582  21.9929  22.0783  22.1544
    22.2119  22.2283  22.2960  22.3255  22.3844  22.4369  22.4936  22.4971
    22.5355  22.5771  22.5810  22.6460  22.6674  22.7352  22.7630  22.7703
    22.7877  22.8215  22.8607  22.8788  22.9407  22.9450  23.0212  23.0615
    23.1333  23.1744  23.2304  23.2322  23.2997  23.3109  23.3535  23.3539
    23.4176  23.4276  23.5258  23.5541  23.6167  23.6527  23.6835  23.7085
    23.7691  23.7786  23.8048  23.8766  23.8961  23.9135  23.9687  23.9912
    24.0130  24.0484  24.1024  24.1198  24.1570  24.1788  24.2089  24.2172
    24.2583  24.3469  24.3896  24.4120  24.4331  24.4602  24.5143  24.5503
    24.5775  24.5935  24.6335  24.6392  24.7092  24.7243  24.7896  24.8419
    24.8877  24.9447  24.9530  24.9805  25.0203  25.0705  25.0786  25.1136
    25.1412  25.2465  25.2667  25.2745  25.3527  25.4114  25.4329  25.5021
    25.5186  25.5789  25.5864  25.6831  25.7174  25.7620  25.8376  25.8928
    25.9101  25.9206  25.9559  25.9894  26.0596  26.1330  26.1365  26.1913
    26.2032  26.2665  26.2905  26.3453  26.3815  26.4069  26.4168  26.5352
    26.5721  26.5843  26.5900  26.6385  26.6497  26.6823  26.6913  26.7584
    26.8102  26.8294  26.9029

          k =-0.5000-0.3900 0.0000 ( 41316 PWs)   bands (ev):

   -60.9340 -60.7797 -60.7495 -60.7494 -60.7169 -60.6031 -60.5983 -60.5981
   -60.5482 -60.5480 -60.5441 -60.5176 -60.5112 -60.4956 -60.4719 -60.3774
   -35.3836 -35.2679 -35.1346 -35.0656 -35.0633 -35.0633 -34.9999 -34.9652
   -34.9098 -34.8985 -34.8892 -34.8887 -34.8845 -34.8800 -34.8740 -34.8631
   -34.8156 -34.7944 -34.7929 -34.7917 -34.7884 -34.7871 -34.7715 -34.7649
   -34.7552 -34.7103 -34.7101 -34.6807 -34.6790 -34.6765 -34.6728 -34.6612
   -34.6219 -34.6216 -34.6210 -34.6170 -34.6130 -34.6074 -34.6011 -34.6006
   -34.5811 -34.5639 -34.5591 -34.5319 -34.4837 -34.3486 -34.3393 -34.1871
   -22.4794 -18.4592 -18.2258 -18.0767 -17.7860 -17.7620 -17.7575 -17.7551
   -17.6480 -17.6415 -17.5964 -17.5897 -17.5726 -17.5649 -17.5464 -17.4203
   -17.3602 -17.3284 -17.3215 -17.2888 -17.2522 -17.2516 -17.1788 -17.1319
   -17.1239 -17.1104 -16.9906 -16.9661 -16.7201 -16.3554 -16.0431 -15.5673
   -15.5452 -14.5256  -7.0989  -6.5997  -6.0938  -6.0414  -5.9284  -5.9263
    -5.8475  -5.8443  -5.8335  -5.7963  -5.6745  -5.6573  -5.6265  -5.5896
    -5.4896  -5.4058  -5.3329  -5.2823  -5.2176  -5.1315  -5.0487  -4.9523
    -4.9421  -4.9163  -4.8717  -4.7087  -4.6158  -4.6003  -4.5850  -4.5679
    -4.5667  -4.4537  -4.4087  -4.3595  -4.2141  -4.1953  -4.1534  -4.1449
    -4.1282  -4.0872  -4.0783  -4.0455  -4.0291  -3.9817  -3.9676  -3.9580
    -3.8072  -3.7312  -3.6613  -3.6053  -3.5548  -3.4625  -3.4089  -3.4000
    -3.3479  -3.3147  -3.2864  -3.2108  -3.1786  -3.1202  -3.0878  -3.0183
    -3.0130  -2.9646  -2.9104  -2.8652  -2.8375  -2.7971  -2.7726  -2.7494
    -2.7101  -2.7067  -2.6280  -2.5597  -2.4048  -2.3921  -2.3019  -2.3014
    -2.2199  -1.9815  -1.9749  -1.8529  -1.7597  -1.7019  -1.6720  -1.6650
    -1.5684  -1.5146  -1.4478  -1.4319  -1.2711  -1.2523  -1.1941  -1.0538
    -0.9521  -0.7452  -0.7390  -0.7366  -0.7212  -0.3384   0.2738   0.7312
     0.9508   0.9570   1.0876   1.1356   1.1514   1.3077   1.3149   1.3166
     1.3431   1.3516   1.4666   1.4982   1.5271   1.6279   1.7182   1.7313
     1.7497   1.8439   1.9791   2.1227   2.2012   2.2214   2.3859   2.4316
     2.4564   2.5044   2.5853   2.6637   2.7091   2.7316   2.7880   2.8721
     2.9529   3.0067   3.0150   3.1373   3.1479   3.2151   3.2326   3.3533
     3.3968   3.4542   3.4905   3.5338   3.6419   3.6539   3.6584   3.6916
     4.0000   4.2192   4.5532   4.5784   4.7279   4.7340   4.7344   4.7376
     4.9427   5.0290   5.2127   5.5029   5.5852   5.6211   5.9784   6.3352
     6.3732   6.4080   6.5452   6.7229   6.8117   6.9423   7.0326   7.1027
     7.1610   7.2304   7.3739   7.4879   7.4902   7.5486   7.6975   7.7140
     7.7381   7.7847   7.9070   7.9776   8.2232   8.2998   8.3558   8.3690
     8.5129   8.5667   8.5923   8.6203   8.7949   8.8394   8.8649   8.9294
     9.1198   9.1904   9.2713   9.3832   9.5194   9.6623   9.7348   9.7905
     9.8313   9.8361   9.8489   9.9417  10.2881  10.3674  10.3771  10.4108
    10.4338  10.5025  10.5429  10.6746  11.1391  11.1606  11.1745  11.1840
    11.2521  11.3130  11.3768  11.5637  11.8751  11.9268  11.9574  12.2458
    12.3908  12.4060  12.4527  12.4627  12.9899  13.1213  13.1239  13.2635
    13.2998  13.3162  13.4153  13.4295  13.4936  13.5973  13.6004  13.6110
    13.6672  13.7039  13.7436  13.7577  13.8717  13.9854  14.0581  14.0710
    14.1863  14.2559  14.3587  14.3635  14.4555  14.4742  14.4787  14.5440
    14.5690  14.6701  14.7284  14.7498  14.7535  14.7900  14.8593  14.8720
    14.8777  14.9268  14.9294  14.9940  15.0498  15.0957  15.1106  15.1638
    15.3251  15.3555  15.3736  15.4268  15.4423  15.4472  15.4624  15.5244
    15.5371  15.5852  15.6288  15.7327  15.7418  15.7698  15.8593  15.8951
    15.9007  15.9819  15.9998  16.0335  16.0497  16.1206  16.1292  16.1399
    16.1568  16.1971  16.2331  16.2578  16.2892  16.2972  16.3200  16.3574
    16.3784  16.3821  16.6036  16.6700  16.7352  16.8153  16.8851  17.0293
    17.0755  17.1017  17.1346  17.1386  17.1408  17.1569  17.2900  17.3099
    17.4380  17.5088  17.5938  17.5956  17.7002  17.7026  17.7967  17.8998
    17.9595  17.9813  18.0398  18.0429  18.0890  18.1236  18.2555  18.2584
    18.3328  18.3496  18.4191  18.4477  18.5160  18.5208  18.5938  18.6215
    18.6560  18.7274  18.7493  18.7873  18.7946  18.8303  18.8477  18.8698
    18.9282  18.9789  19.0886  19.1003  19.1374  19.1495  19.1600  19.2625
    19.2957  19.3412  19.4174  19.4237  19.6640  19.6804  19.7083  19.7362
    19.7597  19.7713  19.7880  19.8456  19.8557  19.8777  19.9088  19.9558
    20.0285  20.0383  20.1063  20.1981  20.2033  20.2113  20.2567  20.3188
    20.4515  20.4746  20.4883  20.5534  20.5781  20.5963  20.6086  20.6656
    20.7395  20.7705  20.8446  20.8810  20.9513  21.0159  21.1377  21.1523
    21.2629  21.3133  21.4154  21.4184  21.5468  21.5929  21.6273  21.6335
    21.6612  21.6815  21.6939  21.7880  21.8488  21.8512  21.9737  22.0025
    22.1307  22.1595  22.1872  22.3095  22.4843  22.4929  22.5373  22.5658
    22.5764  22.7550  22.7734  22.9025  22.9341  23.0048  23.0246  23.0829
    23.1757  23.1946  23.2294  23.2572  23.2788  23.2939  23.3381  23.3547
    23.4195  23.4651  23.5351  23.5866  23.5927  23.6494  23.6749  23.6793
    23.7383  23.7602  23.7729  23.8116  23.8593  23.9442  23.9757  23.9977
    24.0094  24.0302  24.1826  24.1997  24.2239  24.2371  24.3495  24.3945
    24.4110  24.4365  24.5257  24.5411  24.5534  24.5622  24.6207  24.6300
    24.6520  24.6599  24.6726  24.7109  24.7400  24.7779  24.7987  24.8321
    24.8458  24.8857  24.9320  24.9602  24.9825  24.9988  25.0333  25.0802
    25.1644  25.1675  25.2317  25.2458  25.3431  25.4070  25.4215  25.4662
    25.4806  25.5302  25.5568  25.5783  25.6057  25.6292  25.6570  25.7527
    25.8187  25.8233  25.9215  25.9228  25.9531  25.9548  26.0094  26.0285
    26.1526  26.1891  26.2069  26.2206  26.2539  26.3074  26.3167  26.3596
    26.3782  26.4035  26.4186  26.4595  26.4642  26.4967  26.5446  26.5912
    26.6058  26.6995  26.7115  26.7367  26.7843  26.8000  26.8431  26.8751
    26.9386  26.9502  26.9877

     the Fermi energy is     1.7229 ev

!    total energy              =   -3327.49908715 Ry
     Harris-Foulkes estimate   =   -3327.49908803 Ry
[...]
    11.3250  11.5656  11.7005  11.7432  11.9416  12.0766  12.0805  12.1219
    12.1242  12.2761  12.3582  12.3778  12.4407  12.4569  12.6296  12.6782
    12.7352  12.7470  12.7843  12.8110  12.8356  12.9615  13.0091  13.0894
    13.1829  13.2107  13.2345  13.2911  13.3167  13.3604  13.6807  13.7589
    13.7683  13.8232  13.8237  13.9336  13.9671  13.9908  14.0547  14.0914
    14.3158  14.3567  14.4560  14.4762  14.5688  14.6395  14.6677  14.7408
    14.8405  14.9665  15.0528  15.0554  15.1397  15.1642  15.3048  15.3339
    15.4486  15.4584  15.4921  15.5644  15.6361  15.6468  15.7107  15.7258
    15.7872  15.7969  15.8473  15.8673  15.9591  15.9729  16.0601  16.0929
    16.1128  16.1524  16.2099  16.2178  16.2715  16.2839  16.3211  16.3638
    16.3795  16.4024  16.4467  16.5479  16.5738  16.6177  16.7791  16.8230
    16.9102  16.9359  17.0187  17.0433  17.0911  17.0917  17.1595  17.1999
    17.2539  17.3156  17.3708  17.4078  17.4880  17.4895  17.5330  17.5397
    17.6604  17.7627  17.8253  17.8307  17.8791  17.8962  17.9427  17.9456
    18.0161  18.0316  18.0672  18.1647  18.1705  18.2156  18.3225  18.3734
    18.4575  18.4592  18.4925  18.5039  18.5547  18.5967  18.6197  18.6290
    18.7141  18.7193  18.8232  18.8484  18.9192  18.9477  19.0235  19.0413
    19.0711  19.0888  19.1393  19.2064  19.2329  19.2638  19.2877  19.3336
    19.3835  19.4267  19.4797  19.4892  19.5488  19.6160  19.6174  19.6502
    19.7079  19.7490  19.7862  19.8041  19.8607  19.9316  19.9869  20.0781
    20.1319  20.1870  20.2263  20.2507  20.2803  20.3256  20.4127  20.4726
    20.5566  20.5619  20.5975  20.6577  20.7614  20.8043  20.8931  20.9535
    21.0099  21.0509  21.0727  21.1146  21.1181  21.1757  21.2617  21.2969
    21.3452  21.3780  21.4360  21.4689  21.4964  21.5947  21.6166  21.6826
    21.7400  21.8344  21.8664  21.8890  21.9561  21.9949  22.0733  22.1318
    22.2035  22.2098  22.2687  22.3067  22.4035  22.4333  22.4976  22.5010
    22.5293  22.5708  22.5862  22.6350  22.6806  22.7295  22.7472  22.7614
    22.7804  22.8055  22.8576  22.8900  22.9501  22.9576  23.0490  23.0641
    23.1476  23.1791  23.2349  23.2378  23.2944  23.3082  23.3496  23.3534
    23.4137  23.4191  23.5186  23.5810  23.5887  23.6310  23.6722  23.6948
    23.7532  23.7799  23.7910  23.8593  23.8831  23.9027  23.9528  23.9676
    23.9697  24.0394  24.0945  24.0989  24.1356  24.1652  24.1941  24.2060
    24.2522  24.3167  24.3648  24.4042  24.4258  24.4562  24.5010  24.5429
    24.5668  24.5701  24.6044  24.6056  24.6846  24.6893  24.7770  24.8332
    24.8707  24.9416  24.9555  24.9915  25.0026  25.0478  25.0893  25.1097
    25.1272  25.2103  25.2496  25.2551  25.3374  25.3979  25.4383  25.4777
    25.5110  25.5846  25.5980  25.6706  25.7181  25.7574  25.8238  25.8593
    25.8972  25.9080  25.9276  25.9768  26.0416  26.1186  26.1215  26.1929
    26.1930  26.2531  26.2811  26.3399  26.3641  26.3916  26.3947  26.4940
    26.5434  26.5624  26.5867  26.6224  26.6406  26.6693  26.6796  26.7378
    26.7966  26.8214  26.8876

          k =-0.5000-0.3900 0.0000 ( 41316 PWs)   bands (ev):

   -60.9992 -60.8348 -60.8010 -60.8010 -60.7683 -60.6562 -60.6502 -60.6500
   -60.6002 -60.5981 -60.5958 -60.5692 -60.5595 -60.5473 -60.5250 -60.4256
   -35.4138 -35.3207 -35.1888 -35.1236 -35.1150 -35.1150 -35.0503 -35.0266
   -34.9615 -34.9500 -34.9412 -34.9407 -34.9355 -34.9312 -34.9258 -34.9157
   -34.8672 -34.8478 -34.8447 -34.8439 -34.8409 -34.8374 -34.8217 -34.8174
   -34.8077 -34.7621 -34.7619 -34.7312 -34.7290 -34.7280 -34.7251 -34.7130
   -34.6736 -34.6729 -34.6727 -34.6688 -34.6660 -34.6591 -34.6527 -34.6525
   -34.6330 -34.6142 -34.6108 -34.5836 -34.5293 -34.3935 -34.3926 -34.2366
   -21.6545 -18.5096 -18.2783 -18.1470 -17.8375 -17.8135 -17.8091 -17.8064
   -17.7005 -17.6860 -17.6487 -17.6337 -17.6238 -17.6161 -17.5990 -17.4717
   -17.4048 -17.3801 -17.3733 -17.3315 -17.3035 -17.3030 -17.2313 -17.1836
   -17.1757 -17.1627 -17.0416 -17.0180 -16.7703 -16.3778 -16.0749 -15.6187
   -15.5957 -14.4638  -6.7701  -6.6527  -6.0915  -5.9798  -5.9777  -5.9115
    -5.8991  -5.8960  -5.8852  -5.8282  -5.7166  -5.6951  -5.6780  -5.6357
    -5.5411  -5.4567  -5.3444  -5.2308  -5.2021  -5.1823  -5.0989  -4.9942
    -4.9731  -4.9721  -4.8298  -4.7604  -4.6622  -4.6485  -4.6330  -4.6182
    -4.5543  -4.5068  -4.4598  -4.4111  -4.2654  -4.2439  -4.2034  -4.1976
    -4.1696  -4.1355  -4.1268  -4.0964  -4.0790  -4.0395  -4.0055  -3.8714
    -3.8005  -3.7436  -3.7206  -3.6490  -3.6047  -3.5064  -3.4465  -3.4224
    -3.3874  -3.3589  -3.3295  -3.2670  -3.2155  -3.1660  -3.1341  -3.0685
    -3.0556  -3.0020  -2.9366  -2.9116  -2.8911  -2.8429  -2.8201  -2.7912
    -2.7592  -2.7583  -2.6113  -2.6053  -2.4555  -2.4428  -2.3528  -2.3516
    -2.2635  -2.0293  -2.0262  -1.8965  -1.8017  -1.7529  -1.7217  -1.7105
    -1.5924  -1.5619  -1.4904  -1.4831  -1.3219  -1.3030  -1.2415  -1.0957
    -0.9816  -0.7960  -0.7899  -0.7879  -0.7719  -0.1454   0.2237   0.8229
     0.9019   0.9142   1.0394   1.0841   1.1000   1.2601   1.2633   1.2651
     1.2940   1.3006   1.4168   1.4480   1.4748   1.5767   1.6669   1.6692
     1.6985   1.7946   1.9122   2.0705   2.1490   2.1695   2.3338   2.3800
     2.4048   2.4535   2.5325   2.6137   2.6538   2.6802   2.7328   2.8198
     2.8951   2.9501   2.9637   3.0920   3.0992   3.1649   3.1812   3.3016
     3.3438   3.4032   3.4332   3.4821   3.5906   3.6031   3.6105   3.6406
     3.9535   4.1820   4.5026   4.5253   4.6764   4.6825   4.6827   4.6859
     4.8920   4.9729   5.1302   5.4529   5.5361   5.5717   5.8505   6.1303
     6.3299   6.3599   6.4962   6.6969   6.7695   6.8987   7.0157   7.0576
     7.1142   7.1816   7.3251   7.4195   7.4389   7.4990   7.6260   7.6638
     7.7163   7.7865   7.7976   7.8542   8.2718   8.2965   8.3839   8.3972
     8.5313   8.5565   8.5886   8.6204   8.8022   8.8384   8.8552   8.9424
     9.1088   9.2004   9.2692   9.3956   9.5204   9.6569   9.6616   9.7629
     9.7972   9.8089   9.8206   9.9479  10.2722  10.3554  10.3736  10.3779
    10.4220  10.4658  10.5236  10.6790  11.1194  11.1503  11.1735  11.1885
    11.2393  11.2796  11.3482  11.5719  11.8656  11.9512  11.9556  12.2355
    12.4119  12.4192  12.4438  12.4841  12.9848  13.0879  13.0983  13.2342
    13.2918  13.3079  13.4284  13.4405  13.4637  13.5494  13.5992  13.6224
    13.6449  13.6760  13.7040  13.7126  13.8535  14.0097  14.0302  14.0424
    14.1494  14.2611  14.3463  14.3569  14.4713  14.4897  14.5048  14.5405
    14.5865  14.6617  14.7138  14.7289  14.7428  14.7870  14.8487  14.8747
    14.8751  14.9253  14.9503  14.9635  15.0345  15.0776  15.0951  15.1453
    15.2888  15.3161  15.3362  15.3991  15.4242  15.4354  15.4446  15.5079
    15.5138  15.5435  15.6253  15.6939  15.7311  15.7366  15.8398  15.8414
    15.8779  15.9369  15.9683  15.9969  16.0156  16.0880  16.0925  16.1125
    16.1175  16.1694  16.1920  16.2301  16.2633  16.2666  16.3225  16.3770
    16.3921  16.4084  16.5603  16.6384  16.7233  16.7854  16.8390  17.0173
    17.0922  17.0956  17.1134  17.1248  17.1300  17.1629  17.2778  17.3171
    17.3813  17.4926  17.5659  17.5857  17.6639  17.7177  17.7820  17.9050
    17.9593  17.9746  18.0344  18.0471  18.0693  18.1246  18.2390  18.2507
    18.3419  18.3610  18.4183  18.4341  18.5054  18.5105  18.5802  18.6136
    18.6473  18.7215  18.7458  18.7832  18.8003  18.8203  18.8282  18.8580
    18.9209  18.9544  19.0799  19.0846  19.1086  19.1497  19.1595  19.2183
    19.3002  19.3244  19.4131  19.4313  19.6485  19.6669  19.6964  19.7318
    19.7444  19.7469  19.7743  19.8082  19.8461  19.8487  19.8876  19.9394
    20.0001  20.0322  20.0950  20.1710  20.1753  20.1957  20.2416  20.3038
    20.4355  20.4550  20.4601  20.5377  20.5551  20.5673  20.5910  20.6618
    20.7153  20.7312  20.8400  20.8460  20.9718  20.9904  21.1303  21.1615
    21.2698  21.2923  21.4130  21.4152  21.5198  21.5385  21.6041  21.6250
    21.6453  21.6845  21.6911  21.8164  21.8316  21.8485  21.9728  21.9815
    22.1368  22.1518  22.2197  22.3140  22.4696  22.4866  22.5104  22.5420
    22.5590  22.7555  22.7624  22.8387  22.9174  22.9994  23.0083  23.0553
    23.1605  23.1635  23.2142  23.2466  23.2504  23.2823  23.3158  23.3642
    23.3870  23.4512  23.5401  23.5627  23.5988  23.6044  23.6433  23.6517
    23.7098  23.7447  23.7449  23.7947  23.8560  23.9093  23.9532  23.9684
    24.0044  24.0281  24.1568  24.1776  24.1835  24.2198  24.3216  24.3983
    24.4046  24.4238  24.4906  24.5602  24.5744  24.5745  24.6125  24.6205
    24.6394  24.6647  24.6881  24.7027  24.7069  24.7806  24.7952  24.7986
    24.8498  24.8945  24.9151  24.9410  24.9831  24.9839  25.0129  25.0775
    25.1442  25.1635  25.2289  25.2311  25.3674  25.4189  25.4297  25.4394
    25.4528  25.5357  25.5682  25.5771  25.6055  25.6303  25.6570  25.7523
    25.8144  25.8153  25.9046  25.9259  25.9462  25.9483  25.9998  26.0514
    26.1468  26.1528  26.1970  26.2175  26.2424  26.2889  26.3154  26.3429
    26.3792  26.4000  26.4230  26.4565  26.4801  26.4913  26.5310  26.5919
    26.6112  26.7022  26.7325  26.7501  26.8050  26.8093  26.8432  26.8947
    26.9328  26.9470  26.9882

     the Fermi energy is     1.6712 ev

!    total energy              =   -3327.50508254 Ry
     Harris-Foulkes estimate   =   -3327.50508255 Ry
     estimated scf accuracy    <       0.00000001 Ry

     The total energy is the sum of the following terms:

     one-electron contribution =  -77343.76861144 Ry
     hartree contribution      =   38734.48890374 Ry
     xc contribution           =    -553.52858162 Ry
     ewald contribution        =   35835.30374089 Ry
     smearing contrib. (-TS)   =      -0.00053411 Ry

     convergence has been achieved in  18 iterations

     Forces acting on atoms (Ry/au):


     negative rho (up, down):  0.462E-02 0.000E+00
     atom    1 type  1   force =     0.00000000   -0.00000946    0.12810071
     atom    2 type  2   force =    -0.00154005   -0.00001130   -0.15014366
     atom    3 type  2   force =     0.00000000    0.00001849    0.09368605
     atom    4 type  1   force =     0.00079805    0.02483512   -0.01350018
     atom    5 type  1   force =     0.00081332   -0.02482822   -0.01352466
     atom    6 type  1   force =     0.00000000    0.00001503   -0.01259442
     atom    7 type  1   force =     0.00000000    0.00001708   -0.03532152
     atom    8 type  2   force =    -0.00583834   -0.00005790    0.02596207
     atom    9 type  2   force =     0.00000000   -0.00002141   -0.04608971
     atom   10 type  1   force =     0.00328758   -0.01625989   -0.00144606
     atom   11 type  1   force =     0.00330857    0.01630414   -0.00144194
     atom   12 type  1   force =     0.00000000   -0.00001349    0.00014077
     atom   13 type  1   force =     0.00000000    0.00011448    0.00300186
     atom   14 type  2   force =     0.00053633   -0.00081031   -0.00003505
     atom   15 type  2   force =     0.00000000    0.00028948    0.00054357
     atom   16 type  1   force =    -0.00073012    0.00088552   -0.00040631
     atom   17 type  1   force =    -0.00103285   -0.00086858   -0.00050715
     atom   18 type  1   force =     0.00000000    0.00034081    0.00576443
     atom   19 type  1   force =     0.00000000   -0.00039736   -0.00420072
     atom   20 type  2   force =    -0.01078834    0.00031175    0.00928342
     atom   21 type  2   force =     0.00000000   -0.00139212    0.01792842
     atom   22 type  1   force =    -0.02156284    0.02217439   -0.03100960
     atom   23 type  1   force =    -0.02593889   -0.02162048   -0.03615064
     atom   24 type  1   force =     0.00000000    0.00048606   -0.00509233
     atom   25 type  1   force =     0.00000000   -0.00001599    0.13002274
     atom   26 type  2   force =     0.00154005   -0.00001130   -0.15014366
     atom   27 type  2   force =     0.00000000    0.00000903    0.09409577
     atom   28 type  1   force =    -0.00079805    0.02483512   -0.01350018
     atom   29 type  1   force =    -0.00081332   -0.02482822   -0.01352466
     atom   30 type  1   force =     0.00000000    0.00002378    0.00763003
     atom   31 type  1   force =     0.00000000    0.00000577   -0.03904565
     atom   32 type  2   force =     0.00583834   -0.00005790    0.02596207
     atom   33 type  2   force =     0.00000000   -0.00009530   -0.00630230
     atom   34 type  1   force =    -0.00328758   -0.01625989   -0.00144606
     atom   35 type  1   force =    -0.00330857    0.01630414   -0.00144194
     atom   36 type  1   force =     0.00000000    0.00001590   -0.00370777
     atom   37 type  1   force =     0.00000000   -0.00004722   -0.00268499
     atom   38 type  2   force =    -0.00053633   -0.00081031   -0.00003505
     atom   39 type  2   force =     0.00000000    0.00004653    0.00160914
     atom   40 type  1   force =     0.00073012    0.00088552   -0.00040631
     atom   41 type  1   force =     0.00103285   -0.00086858   -0.00050715
     atom   42 type  1   force =     0.00000000   -0.00051083   -0.04450430
     atom   43 type  1   force =     0.00000000   -0.00011010    0.00089156
     atom   44 type  2   force =     0.01078834    0.00031175    0.00928342
     atom   45 type  2   force =     0.00000000   -0.01310860    0.16035602
     atom   46 type  1   force =     0.02156284    0.02217439   -0.03100960
     atom   47 type  1   force =     0.02593889   -0.02162048   -0.03615064
     atom   48 type  1   force =     0.00000000   -0.01853659   -0.01826154
     atom   49 type  1   force =     0.00000000    0.05659350    0.00062568
     atom   50 type  1   force =     0.00000000   -0.04252492   -0.00004928
     atom   51 type  3   force =     0.00000000    0.01869896   -0.00070270

     Total force =     0.000942     Total SCF correction =     0.000030

     bfgs converged in   8 scf cycles and   7 bfgs steps
     (criteria: energy < 0.10E-03, force < 0.10E-02)

     End of BFGS Geometry Optimization

     Final energy   =   -3327.5050825422 Ry
Begin final coordinates

ATOMIC_POSITIONS (crystal)
O0       0.000000000   0.500000000   0.319310000    0   0   0
Mo1      0.250000000   0.500000000   0.360290000    0   0   0
Mo1      0.000000000   0.000000000   0.360290000    0   0   0
O0       0.250000000   0.780000000   0.360290000    0   0   0
O0       0.250000000   0.220000000   0.360290000    0   0   0
O0       0.000000000   0.500000000   0.401270000    0   0   0
O0       0.000000000   0.000000000   0.412450000    0   0   0
Mo1      0.250000000   0.000000000   0.453430000    0   0   0
Mo1      0.000000000   0.500000000   0.453430000    0   0   0
O0       0.250000000   0.720000000   0.453430000    0   0   0
O0       0.250000000   0.280000000   0.453430000    0   0   0
O0       0.000000000   0.000000000   0.494410000    0   0   0
O0       0.000000000   0.500000000   0.504230000    0   0   0
Mo1      0.228660000   0.500000000   0.544660000    0   0   0
Mo1      0.000000000   0.000000000   0.550120000    0   0   0
O0       0.246020000   0.783280000   0.547490000    0   0   0
O0       0.246020000   0.216720000   0.547490000    0   0   0
O0       0.000000000   0.500000000   0.586970000    0   0   0
O0       0.000000000   0.000000000   0.602950000    0   0   0
Mo1      0.271940000   0.000000000   0.644350000    0   0   0
Mo1      0.000000000   0.500000000   0.635790000    0   0   0
O0       0.256870000   0.704770000   0.644050000    0   0   0
O0       0.256870000   0.295230000   0.644050000    0   0   0
O0       0.000000000   0.000000000   0.677650000    0   0   0
O0       0.500000000   0.500000000   0.319310000    0   0   0
Mo1      0.750000000   0.500000000   0.360290000    0   0   0
Mo1      0.500000000   0.000000000   0.360290000    0   0   0
O0       0.750000000   0.780000000   0.360290000    0   0   0
O0       0.750000000   0.220000000   0.360290000    0   0   0
O0       0.500000000   0.500000000   0.401270000    0   0   0
O0       0.500000000   0.000000000   0.412450000    0   0   0
Mo1      0.750000000   0.000000000   0.453430000    0   0   0
Mo1      0.500000000   0.500000000   0.453430000    0   0   0
O0       0.750000000   0.720000000   0.453430000    0   0   0
O0       0.750000000   0.280000000   0.453430000    0   0   0
O0       0.500000000   0.000000000   0.494410000    0   0   0
O0       0.500000000   0.500000000   0.507450000    0   0   0
Mo1      0.771340000   0.500000000   0.544660000    0   0   0
Mo1      0.500000000   0.000000000   0.548020000    0   0   0
O0       0.753980000   0.783280000   0.547490000    0   0   0
O0       0.753980000   0.216720000   0.547490000    0   0   0
O0       0.500000000   0.500000000   0.583830000    0   0   0
O0       0.500000000   0.000000000   0.600640000    0   0   0
Mo1      0.728060000   0.000000000   0.644350000    0   0   0
Mo1      0.500000000   0.500000000   0.632730000    0   0   0
O0       0.743130000   0.704770000   0.644050000    0   0   0
O0       0.743130000   0.295230000   0.644050000    0   0   0
O0       0.500000000   0.000000000   0.683630000    0   0   0
O0       0.500000000   0.500000000   0.687880477    1   0   1
O0       0.500000000   0.333580000   0.708049737    1   0   1
H2       0.500000000   0.375880000   0.733042653    1   0   1
End final coordinates



     init_run     :    106.74s CPU    130.19s WALL (       1 calls)
     electrons    :  42354.29s CPU  47048.80s WALL (       8 calls)
     update_pot   :     85.18s CPU     88.21s WALL (       7 calls)
     forces       :    817.75s CPU    821.71s WALL (       8 calls)

     Called by init_run:
     wfcinit      :     59.34s CPU     62.44s WALL (       1 calls)
     potinit      :      4.47s CPU      4.54s WALL (       1 calls)

     Called by electrons:
     c_bands      :  30578.20s CPU  31747.60s WALL (     162 calls)
     sum_band     :   5720.19s CPU   6019.28s WALL (     162 calls)
     v_of_rho     :    107.04s CPU    115.00s WALL (     169 calls)
     newd         :   5967.03s CPU   9283.92s WALL (     169 calls)
     mix_rho      :     16.80s CPU     18.25s WALL (     162 calls)

     Called by c_bands:
     init_us_2    :     28.01s CPU     29.31s WALL (     999 calls)
     cegterg      :  30447.71s CPU  31614.51s WALL (     486 calls)

     Called by *egterg:
     h_psi        :   9905.78s CPU  10803.65s WALL (    1393 calls)
     s_psi        :   2357.53s CPU   2374.28s WALL (    1393 calls)
     g_psi        :     18.87s CPU     18.91s WALL (     904 calls)
     cdiaghg      :   7304.57s CPU   7389.71s WALL (    1366 calls)

     Called by h_psi:
     add_vuspsi   :   2359.10s CPU   2376.39s WALL (    1393 calls)

     General routines
     calbec       :   3607.00s CPU   3629.21s WALL (    1903 calls)
     fft          :    139.80s CPU    148.54s WALL (    2771 calls)
     ffts         :      2.24s CPU      2.53s WALL (     331 calls)
     fftw         :   4678.26s CPU   5805.08s WALL ( 1601048 calls)
     interpolate  :     16.37s CPU     18.77s WALL (     331 calls)

     Parallel routines
     fft_scatter  :   1590.46s CPU   2365.12s WALL ( 1604150 calls)

     PWSCF        :    12h 6m CPU       13h27m WALL


   This run was terminated on:  13:20:46  11May2014            

=------------------------------------------------------------------------------=
   JOB DONE.
=------------------------------------------------------------------------------=
---------------------------------------
Running PBS batch system epilogue script
Job id: 349455.audhumbla.fysik.dtu.dk
Username: zhonxu
Groupname: campgst
Jobname: MoO2/Eads-4-layers/OOH
Sessionid: 14521
Resources limits: neednodes=2:ppn=16:xeon16,nodes=2:ppn=16:xeon16,walltime=48:00:00
Resources used: cput=429:51:49,mem=45143216kb,vmem=54345760kb,walltime=13:28:00
Queuename: verylong
Accounting:
This job has allocated the following 32 nodes:
g109 g109 g109 g109 g109 g109 g109 g109 g109 g109 g109 g109 g109 g109 g109 g109 g089 g089 g089 g089 g089 g089 g089 g089 g089 g089 g089 g089 g089 g089 g089 g089
Finished epilogue job 349455.audhumbla.fysik.dtu.dk for zhonxu
