
     Program PWSCF v.5.0.2 (svn rev. 9656) starts on  4May2014 at 20: 5:52 

     This program is part of the open-source Quantum ESPRESSO suite
     for quantum simulation of materials; please cite
         "P. Giannozzi et al., J. Phys.:Condens. Matter 21 395502 (2009);
          URL http://www.quantum-espresso.org", 
     in publications or presentations arising from this work. More details at
     http://www.quantum-espresso.org/quote.php

     Parallel version (MPI), running on    16 processors
     K-points division:     npool     =       4
     R & G space division:  proc/nbgrp/npool/nimage =       4

     Current dimensions of program PWSCF are:
     Max number of different atomic species (ntypx) = 10
     Max number of k-points (npk) =  40000
     Max angular momentum in pseudopotentials (lmaxx) =  3
     Reading input from pwscf.in
Warning: card &CELL ignored
Warning: card / ignored

     Subspace diagonalization in iterative solution of the eigenvalue problem:
     a serial algorithm will be used


     Parallelization info
     --------------------
     sticks:   dense  smooth     PW     G-vecs:    dense   smooth      PW
     Min        1244     397    112               291872    52833    7934
     Max        1245     398    113               291883    52857    7939
     Sum        4979    1589    451              1167509   211387   31747



     bravais-lattice index     =            0
     lattice parameter (alat)  =      10.7336  a.u.
     unit-cell volume          =    6184.1966 (a.u.)^3
     number of atoms/cell      =           32
     number of atomic types    =            3
     number of electrons       =       239.00 (up: 131.00, down: 108.00)
     number of Kohn-Sham states=          346
     kinetic-energy cutoff     =      40.0000  Ry
     charge density cutoff     =     500.0000  Ry
     convergence threshold     =      1.0E-06
     mixing beta               =       0.7000
     number of iterations used =            8  plain     mixing
     Exchange-correlation      = SLA  PW   PBE  PBE ( 1 4 3 4 0)
     EXX-fraction              =        0.00
     nstep                     =           50


     celldm(1)=  10.733644  celldm(2)=   0.000000  celldm(3)=   0.000000
     celldm(4)=   0.000000  celldm(5)=   0.000000  celldm(6)=   0.000000

     crystal axes: (cart. coord. in units of alat)
               a(1) = (   1.000000   0.000000   0.000000 )  
               a(2) = (   0.000000   1.085558   0.000000 )  
               a(3) = (   0.000000   0.000000   4.606685 )  

     reciprocal axes: (cart. coord. in units 2 pi/alat)
               b(1) = (  1.000000  0.000000  0.000000 )  
               b(2) = (  0.000000  0.921185  0.000000 )  
               b(3) = (  0.000000  0.000000  0.217076 )  


     PseudoPot. # 1 for O  read from file:
     /home/camp/zhonxu/pseudo/o_pbe_v1.01.uspp.F.UPF
     MD5 check sum: 2bcb18d16ea4b960afae9ec6d52f22d2
     Pseudo is Ultrasoft + core correction, Zval =  6.0
     Generated by new atomic code, or converted to UPF format
     Using radial grid of  737 points,  5 beta functions with: 
                l(1) =   0
                l(2) =   0
                l(3) =   1
                l(4) =   1
                l(5) =   2
     Q(r) pseudized with  8 coefficients,  rinner =    0.900   0.900   0.900
                                                       0.900   0.900

     PseudoPot. # 2 for Mn read from file:
     /home/camp/zhonxu/pseudo/mn_pbe_v1.uspp.F.UPF
     MD5 check sum: 5fd7c7b5c956fd19902447332617373a
     Pseudo is Ultrasoft + core correction, Zval = 15.0
     Generated by new atomic code, or converted to UPF format
     Using radial grid of  859 points,  6 beta functions with: 
                l(1) =   0
                l(2) =   0
                l(3) =   1
                l(4) =   1
                l(5) =   2
                l(6) =   2
     Q(r) pseudized with  6 coefficients,  rinner =    1.150   1.150   1.150
                                                       1.150   1.150

     PseudoPot. # 3 for H  read from file:
     /home/camp/zhonxu/pseudo/h_pbe_v1.uspp.F.UPF
     MD5 check sum: 3408e3ff4ec8b0a4e358431e7e038a48
     Pseudo is Ultrasoft, Zval =  1.0
     Generated by new atomic code, or converted to UPF format
     Using radial grid of  615 points,  2 beta functions with: 
                l(1) =   0
                l(2) =   0
     Q(r) pseudized with  8 coefficients,  rinner =    0.700

     atomic species   valence    mass     pseudopotential
        O0             6.00    15.99940     O ( 1.00)
        Mn1           15.00    54.93800     Mn( 1.00)
        H2             1.00     1.00794     H ( 1.00)

     Starting magnetic structure 
     atomic species   magnetization
        O0           0.000
        Mn1          0.600
        H2           0.000


     Simplified LDA+U calculation (l_max = 2) with parameters (eV):
     atomic species    L          U    alpha       J0     beta
        Mn1            2     4.5000   0.0000   0.0000   0.0000



     No symmetry found



   Cartesian axes

     site n.     atom                  positions (alat units)
         1           O0  tau(   1) = (   0.0000000   0.0000000   1.7414191  )
         2           O0  tau(   2) = (   0.0000000   0.5427791   1.8381134  )
         3           Mn1 tau(   3) = (   0.2500000   0.5427791   2.0740217  )
         4           Mn1 tau(   4) = (   0.0000000   0.0000000   2.0686319  )
         5           O0  tau(   5) = (   0.2500000   0.8684466   2.0678488  )
         6           O0  tau(   6) = (   0.2500000   0.2171117   2.0737453  )
         7           O0  tau(   7) = (   0.0000000   0.5427791   2.2873573  )
         8           O0  tau(   8) = (   0.0000000   0.0000000   2.4132120  )
         9           Mn1 tau(   9) = (   0.2500000   0.0000000   2.6399991  )
        10           Mn1 tau(  10) = (   0.0000000   0.5427791   2.6085815  )
        11           O0  tau(  11) = (   0.2500000   0.7598908   2.6551551  )
        12           O0  tau(  12) = (   0.2500000   0.3256675   2.6556157  )
        13           O0  tau(  13) = (   0.0000000   0.0000000   2.8417258  )
        14           O0  tau(  14) = (   0.5000000   0.0000000   1.7428932  )
        15           O0  tau(  15) = (   0.5000000   0.5427791   1.8386662  )
        16           Mn1 tau(  16) = (   0.7500000   0.5427791   2.0740678  )
        17           Mn1 tau(  17) = (   0.5000000   0.0000000   2.0707510  )
        18           O0  tau(  18) = (   0.7500000   0.8684466   2.0677106  )
        19           O0  tau(  19) = (   0.7500000   0.2171117   2.0738835  )
        20           O0  tau(  20) = (   0.5000000   0.5427791   2.2871270  )
        21           O0  tau(  21) = (   0.5000000   0.0000000   2.4132120  )
        22           Mn1 tau(  22) = (   0.7500000   0.0000000   2.6413811  )
        23           Mn1 tau(  23) = (   0.5000000   0.5427791   2.6662572  )
        24           O0  tau(  24) = (   0.7500000   0.7598908   2.6473698  )
        25           O0  tau(  25) = (   0.7500000   0.3256675   2.6477844  )
        26           O0  tau(  26) = (   0.5000000   0.0000000   2.8412191  )
        27           H2  tau(  27) = (   0.0000400   0.7014118   1.7620570  )
        28           H2  tau(  28) = (   0.5000900   0.7016832   1.7629323  )
        29           H2  tau(  29) = (   0.1613600   0.0398291   1.6869220  )
        30           H2  tau(  30) = (   0.6610200   0.0399703   1.6876591  )
        31           O0  tau(  31) = (   0.5153900   0.5432351   2.9826904  )
        32           H2  tau(  32) = (   0.3575300   0.5430397   3.0540479  )

     number of k points=    20  Methfessel-Paxton smearing, width (Ry)=  0.0100
                       cart. coord. in units 2pi/alat
        k(    1) = (   0.0000000   0.0000000   0.0000000), wk =   0.0625000
        k(    2) = (   0.0000000   0.2302962   0.0000000), wk =   0.1250000
        k(    3) = (   0.0000000  -0.4605925   0.0000000), wk =   0.0625000
        k(    4) = (   0.2500000   0.0000000   0.0000000), wk =   0.1250000
        k(    5) = (   0.2500000   0.2302962   0.0000000), wk =   0.1250000
        k(    6) = (   0.2500000  -0.4605925   0.0000000), wk =   0.1250000
        k(    7) = (  -0.5000000   0.0000000   0.0000000), wk =   0.0625000
        k(    8) = (  -0.5000000   0.2302962   0.0000000), wk =   0.1250000
        k(    9) = (  -0.5000000  -0.4605925   0.0000000), wk =   0.0625000
        k(   10) = (  -0.2500000   0.2302962   0.0000000), wk =   0.1250000
        k(   11) = (   0.0000000   0.0000000   0.0000000), wk =   0.0625000
        k(   12) = (   0.0000000   0.2302962   0.0000000), wk =   0.1250000
        k(   13) = (   0.0000000  -0.4605925   0.0000000), wk =   0.0625000
        k(   14) = (   0.2500000   0.0000000   0.0000000), wk =   0.1250000
        k(   15) = (   0.2500000   0.2302962   0.0000000), wk =   0.1250000
        k(   16) = (   0.2500000  -0.4605925   0.0000000), wk =   0.1250000
        k(   17) = (  -0.5000000   0.0000000   0.0000000), wk =   0.0625000
        k(   18) = (  -0.5000000   0.2302962   0.0000000), wk =   0.1250000
        k(   19) = (  -0.5000000  -0.4605925   0.0000000), wk =   0.0625000
        k(   20) = (  -0.2500000   0.2302962   0.0000000), wk =   0.1250000

     Dense  grid:  1167509 G-vectors     FFT dimensions: (  80,  90, 360)

     Smooth grid:   211387 G-vectors     FFT dimensions: (  45,  48, 200)

     Largest allocated arrays     est. size (Mb)     dimensions
        Kohn-Sham Wavefunctions        35.06 Mb     (   6641,  346)
        Atomic wavefunctions           18.75 Mb     (   6641,  185)
        NL pseudopotentials            40.63 Mb     (   6641,  401)
        Each V/rho on FFT grid         19.78 Mb     ( 648000,   2)
        Each G-vector array             2.23 Mb     ( 291883)
        G-vector shells                 0.97 Mb     ( 127585)
     Largest temporary arrays     est. size (Mb)     dimensions
        Auxiliary wavefunctions       140.25 Mb     (   6641, 1384)
        Each subspace H/S matrix       29.23 Mb     (1384,1384)
        Each <psi_i|beta_j> matrix      2.12 Mb     (    401,  346)
        Arrays for rho mixing          79.10 Mb     ( 648000,   8)

     Check: negative/imaginary core charge=   -0.000022    0.000000

     Initial potential from superposition of free atoms
     Check: negative starting charge=(component1):   -0.000716
     Check: negative starting charge=(component2):   -0.000389

     starting charge  230.99986, renormalised to  239.00000

     negative rho (up, down):  0.741E-03 0.403E-03
     Number of +U iterations with fixed ns =  0
     Starting occupations:
 --- enter write_ns ---
 LDA+U parameters:
U( 2)     =  4.50000000
alpha( 2) =  0.00000000
atom    3   Tr[ns(na)] (up, down, total) =   5.00000  0.00000  5.00000
   spin  1
    eigenvalues: 
  1.000  1.000  1.000  1.000  1.000
    eigenvectors:
  1.000  0.000  0.000  0.000  0.000
  0.000  1.000  0.000  0.000  0.000
  0.000  0.000  1.000  0.000  0.000
  0.000  0.000  0.000  1.000  0.000
  0.000  0.000  0.000  0.000  1.000
    occupations:
  1.000  0.000  0.000  0.000  0.000
  0.000  1.000  0.000  0.000  0.000
  0.000  0.000  1.000  0.000  0.000
  0.000  0.000  0.000  1.000  0.000
  0.000  0.000  0.000  0.000  1.000
   spin  2
    eigenvalues: 
  0.000  0.000  0.000  0.000  0.000
    eigenvectors:
  1.000  0.000  0.000  0.000  0.000
  0.000  1.000  0.000  0.000  0.000
  0.000  0.000  1.000  0.000  0.000
  0.000  0.000  0.000  1.000  0.000
  0.000  0.000  0.000  0.000  1.000
    occupations:
  0.000  0.000  0.000  0.000  0.000
  0.000  0.000  0.000  0.000  0.000
  0.000  0.000  0.000  0.000  0.000
  0.000  0.000  0.000  0.000  0.000
  0.000  0.000  0.000  0.000  0.000
atomic mag. moment =     5.000000
atom    4   Tr[ns(na)] (up, down, total) =   5.00000  0.00000  5.00000
   spin  1
    eigenvalues: 
  1.000  1.000  1.000  1.000  1.000
    eigenvectors:
  1.000  0.000  0.000  0.000  0.000
  0.000  1.000  0.000  0.000  0.000
  0.000  0.000  1.000  0.000  0.000
  0.000  0.000  0.000  1.000  0.000
  0.000  0.000  0.000  0.000  1.000
    occupations:
  1.000  0.000  0.000  0.000  0.000
  0.000  1.000  0.000  0.000  0.000
  0.000  0.000  1.000  0.000  0.000
  0.000  0.000  0.000  1.000  0.000
  0.000  0.000  0.000  0.000  1.000
   spin  2
    eigenvalues: 
  0.000  0.000  0.000  0.000  0.000
    eigenvectors:
  1.000  0.000  0.000  0.000  0.000
  0.000  1.000  0.000  0.000  0.000
  0.000  0.000  1.000  0.000  0.000
  0.000  0.000  0.000  1.000  0.000
  0.000  0.000  0.000  0.000  1.000
    occupations:
  0.000  0.000  0.000  0.000  0.000
  0.000  0.000  0.000  0.000  0.000
  0.000  0.000  0.000  0.000  0.000
  0.000  0.000  0.000  0.000  0.000
  0.000  0.000  0.000  0.000  0.000
atomic mag. moment =     5.000000
atom    9   Tr[ns(na)] (up, down, total) =   5.00000  0.00000  5.00000
   spin  1
    eigenvalues: 
  1.000  1.000  1.000  1.000  1.000
    eigenvectors:
  1.000  0.000  0.000  0.000  0.000
  0.000  1.000  0.000  0.000  0.000
  0.000  0.000  1.000  0.000  0.000
  0.000  0.000  0.000  1.000  0.000
  0.000  0.000  0.000  0.000  1.000
    occupations:
  1.000  0.000  0.000  0.000  0.000
  0.000  1.000  0.000  0.000  0.000
  0.000  0.000  1.000  0.000  0.000
  0.000  0.000  0.000  1.000  0.000
  0.000  0.000  0.000  0.000  1.000
   spin  2
    eigenvalues: 
  0.000  0.000  0.000  0.000  0.000
    eigenvectors:
  1.000  0.000  0.000  0.000  0.000
  0.000  1.000  0.000  0.000  0.000
  0.000  0.000  1.000  0.000  0.000
  0.000  0.000  0.000  1.000  0.000
  0.000  0.000  0.000  0.000  1.000
    occupations:
  0.000  0.000  0.000  0.000  0.000
  0.000  0.000  0.000  0.000  0.000
  0.000  0.000  0.000  0.000  0.000
  0.000  0.000  0.000  0.000  0.000
  0.000  0.000  0.000  0.000  0.000
atomic mag. moment =     5.000000
atom   10   Tr[ns(na)] (up, down, total) =   5.00000  0.00000  5.00000
   spin  1
    eigenvalues: 
  1.000  1.000  1.000  1.000  1.000
    eigenvectors:
  1.000  0.000  0.000  0.000  0.000
  0.000  1.000  0.000  0.000  0.000
  0.000  0.000  1.000  0.000  0.000
  0.000  0.000  0.000  1.000  0.000
  0.000  0.000  0.000  0.000  1.000
    occupations:
  1.000  0.000  0.000  0.000  0.000
  0.000  1.000  0.000  0.000  0.000
  0.000  0.000  1.000  0.000  0.000
  0.000  0.000  0.000  1.000  0.000
  0.000  0.000  0.000  0.000  1.000
   spin  2
    eigenvalues: 
  0.000  0.000  0.000  0.000  0.000
    eigenvectors:
  1.000  0.000  0.000  0.000  0.000
  0.000  1.000  0.000  0.000  0.000
  0.000  0.000  1.000  0.000  0.000
  0.000  0.000  0.000  1.000  0.000
  0.000  0.000  0.000  0.000  1.000
    occupations:
  0.000  0.000  0.000  0.000  0.000
  0.000  0.000  0.000  0.000  0.000
  0.000  0.000  0.000  0.000  0.000
  0.000  0.000  0.000  0.000  0.000
  0.000  0.000  0.000  0.000  0.000
atomic mag. moment =     5.000000
atom   16   Tr[ns(na)] (up, down, total) =   5.00000  0.00000  5.00000
   spin  1
    eigenvalues: 
  1.000  1.000  1.000  1.000  1.000
    eigenvectors:
  1.000  0.000  0.000  0.000  0.000
  0.000  1.000  0.000  0.000  0.000
  0.000  0.000  1.000  0.000  0.000
  0.000  0.000  0.000  1.000  0.000
  0.000  0.000  0.000  0.000  1.000
    occupations:
  1.000  0.000  0.000  0.000  0.000
  0.000  1.000  0.000  0.000  0.000
  0.000  0.000  1.000  0.000  0.000
  0.000  0.000  0.000  1.000  0.000
  0.000  0.000  0.000  0.000  1.000
   spin  2
    eigenvalues: 
  0.000  0.000  0.000  0.000  0.000
    eigenvectors:
  1.000  0.000  0.000  0.000  0.000
  0.000  1.000  0.000  0.000  0.000
  0.000  0.000  1.000  0.000  0.000
  0.000  0.000  0.000  1.000  0.000
  0.000  0.000  0.000  0.000  1.000
    occupations:
  0.000  0.000  0.000  0.000  0.000
  0.000  0.000  0.000  0.000  0.000
  0.000  0.000  0.000  0.000  0.000
  0.000  0.000  0.000  0.000  0.000
  0.000  0.000  0.000  0.000  0.000
atomic mag. moment =     5.000000
atom   17   Tr[ns(na)] (up, down, total) =   5.00000  0.00000  5.00000
   spin  1
    eigenvalues: 
  1.000  1.000  1.000  1.000  1.000
    eigenvectors:
  1.000  0.000  0.000  0.000  0.000
  0.000  1.000  0.000  0.000  0.000
  0.000  0.000  1.000  0.000  0.000
  0.000  0.000  0.000  1.000  0.000
  0.000  0.000  0.000  0.000  1.000
    occupations:
  1.000  0.000  0.000  0.000  0.000
  0.000  1.000  0.000  0.000  0.000
  0.000  0.000  1.000  0.000  0.000
  0.000  0.000  0.000  1.000  0.000
  0.000  0.000  0.000  0.000  1.000
   spin  2
    eigenvalues: 
  0.000  0.000  0.000  0.000  0.000
    eigenvectors:
  1.000  0.000  0.000  0.000  0.000
  0.000  1.000  0.000  0.000  0.000
  0.000  0.000  1.000  0.000  0.000
  0.000  0.000  0.000  1.000  0.000
  0.000  0.000  0.000  0.000  1.000
    occupations:
  0.000  0.000  0.000  0.000  0.000
  0.000  0.000  0.000  0.000  0.000
  0.000  0.000  0.000  0.000  0.000
  0.000  0.000  0.000  0.000  0.000
  0.000  0.000  0.000  0.000  0.000
atomic mag. moment =     5.000000
atom   22   Tr[ns(na)] (up, down, total) =   5.00000  0.00000  5.00000
   spin  1
    eigenvalues: 
  1.000  1.000  1.000  1.000  1.000
    eigenvectors:
  1.000  0.000  0.000  0.000  0.000
  0.000  1.000  0.000  0.000  0.000
  0.000  0.000  1.000  0.000  0.000
  0.000  0.000  0.000  1.000  0.000
  0.000  0.000  0.000  0.000  1.000
    occupations:
  1.000  0.000  0.000  0.000  0.000
  0.000  1.000  0.000  0.000  0.000
  0.000  0.000  1.000  0.000  0.000
  0.000  0.000  0.000  1.000  0.000
  0.000  0.000  0.000  0.000  1.000
   spin  2
    eigenvalues: 
  0.000  0.000  0.000  0.000  0.000
    eigenvectors:
  1.000  0.000  0.000  0.000  0.000
  0.000  1.000  0.000  0.000  0.000
  0.000  0.000  1.000  0.000  0.000
  0.000  0.000  0.000  1.000  0.000
  0.000  0.000  0.000  0.000  1.000
    occupations:
  0.000  0.000  0.000  0.000  0.000
  0.000  0.000  0.000  0.000  0.000
  0.000  0.000  0.000  0.000  0.000
  0.000  0.000  0.000  0.000  0.000
  0.000  0.000  0.000  0.000  0.000
atomic mag. moment =     5.000000
atom   23   Tr[ns(na)] (up, down, total) =   5.00000  0.00000  5.00000
   spin  1
    eigenvalues: 
  1.000  1.000  1.000  1.000  1.000
    eigenvectors:
  1.000  0.000  0.000  0.000  0.000
  0.000  1.000  0.000  0.000  0.000
  0.000  0.000  1.000  0.000  0.000
  0.000  0.000  0.000  1.000  0.000
  0.000  0.000  0.000  0.000  1.000
    occupations:
  1.000  0.000  0.000  0.000  0.000
  0.000  1.000  0.000  0.000  0.000
  0.000  0.000  1.000  0.000  0.000
  0.000  0.000  0.000  1.000  0.000
  0.000  0.000  0.000  0.000  1.000
   spin  2
    eigenvalues: 
  0.000  0.000  0.000  0.000  0.000
    eigenvectors:
  1.000  0.000  0.000  0.000  0.000
  0.000  1.000  0.000  0.000  0.000
  0.000  0.000  1.000  0.000  0.000
  0.000  0.000  0.000  1.000  0.000
  0.000  0.000  0.000  0.000  1.000
    occupations:
  0.000  0.000  0.000  0.000  0.000
  0.000  0.000  0.000  0.000  0.000
  0.000  0.000  0.000  0.000  0.000
  0.000  0.000  0.000  0.000  0.000
  0.000  0.000  0.000  0.000  0.000
atomic mag. moment =     5.000000
N of occupied +U levels =  40.0000000
 --- exit write_ns ---
 Atomic wfc used for LDA+U Projector are NOT orthogonalized
     Starting wfc are  185 randomized atomic wfcs

     total cpu time spent up to now is      129.0 secs

     per-process dynamical memory:   468.4 Mb

     Self-consistent Calculation

     iteration #  1     ecut=    40.00 Ry     beta=0.70
     Davidson diagonalization with overlap
     ethr =  1.00E-02,  avg # of iterations =  5.5
 --- enter write_ns ---
 LDA+U parameters:
U( 2)     =  4.50000000
alpha( 2) =  0.00000000
atom    3   Tr[ns(na)] (up, down, total) =   4.34153  0.51747  4.85900
   spin  1
    eigenvalues: 
  0.685  0.729  0.960  0.982  0.985
    eigenvectors:
  0.233  0.000  0.003  0.752  0.012
  0.000  0.996  0.000  0.000  0.003
  0.000  0.000  0.997  0.003  0.000
  0.767  0.000  0.000  0.229  0.004
  0.000  0.003  0.000  0.016  0.981
    occupations:
  0.913  0.002 -0.001 -0.125  0.000
  0.002  0.729  0.000 -0.001 -0.015
 -0.001  0.000  0.960 -0.005  0.000
 -0.125 -0.001 -0.005  0.754 -0.000
  0.000 -0.015  0.000 -0.000  0.984
   spin  2
    eigenvalues: 
  0.051  0.056  0.057  0.171  0.183
    eigenvectors:
  0.507  0.149  0.155  0.002  0.186
  0.000  0.000  0.000  0.990  0.009
  0.369  0.211  0.420  0.000  0.000
  0.118  0.034  0.036  0.008  0.804
  0.006  0.605  0.389  0.001  0.000
    occupations:
  0.078 -0.000 -0.002  0.051  0.000
 -0.000  0.171  0.000 -0.001  0.003
 -0.002  0.000  0.055  0.001 -0.001
  0.051 -0.001  0.001  0.158 -0.000
  0.000  0.003 -0.001 -0.000  0.056
atomic mag. moment =     3.824065
atom    4   Tr[ns(na)] (up, down, total) =   4.22313  0.52975  4.75288
   spin  1
    eigenvalues: 
  0.611  0.748  0.933  0.947  0.984
    eigenvectors:
  0.000  0.988  0.008  0.001  0.003
  0.000  0.008  0.986  0.000  0.006
  0.000  0.001  0.000  0.996  0.003
  0.000  0.004  0.005  0.003  0.988
  1.000  0.000  0.000  0.000  0.000
    occupations:
  0.751  0.016  0.006  0.014 -0.000
  0.016  0.932 -0.000 -0.005  0.004
  0.006 -0.000  0.947 -0.002  0.000
  0.014 -0.005 -0.002  0.983 -0.000
 -0.000  0.004  0.000 -0.000  0.611
   spin  2
    eigenvalues: 
  0.051  0.057  0.065  0.172  0.184
    eigenvectors:
  0.009  0.001  0.000  0.000  0.991
  0.012  0.807  0.180  0.000  0.001
  0.003  0.176  0.820  0.000  0.000
  0.976  0.016  0.000  0.000  0.008
  0.000  0.000  0.000  1.000  0.000
    occupations:
  0.183  0.005  0.002 -0.012  0.000
  0.005  0.059 -0.003  0.000 -0.002
  0.002 -0.003  0.063  0.000  0.000
 -0.012  0.000  0.000  0.053  0.000
  0.000 -0.002  0.000  0.000  0.172
atomic mag. moment =     3.693384
atom    9   Tr[ns(na)] (up, down, total) =   4.45535  0.58097  5.03632
   spin  1
    eigenvalues: 
  0.728  0.739  0.991  0.994  1.004
    eigenvectors:
  0.065  0.085  0.850  0.000  0.000
  0.556  0.444  0.000  0.000  0.000
  0.000  0.000  0.000  0.026  0.974
  0.379  0.471  0.150  0.000  0.000
  0.000  0.000  0.000  0.974  0.026
    occupations:
  0.952  0.001 -0.000 -0.092  0.000
  0.001  0.733  0.000  0.005  0.000
 -0.000  0.000  1.004 -0.000  0.002
 -0.092  0.005 -0.000  0.772  0.000
  0.000  0.000  0.002  0.000  0.994
   spin  2
    eigenvalues: 
  0.061  0.067  0.070  0.190  0.193
    eigenvectors:
  0.000  0.858  0.000  0.141  0.001
  0.000  0.000  0.000  0.008  0.992
  1.000  0.000  0.000  0.000  0.000
  0.000  0.142  0.000  0.851  0.007
  0.000  0.000  1.000  0.000  0.000
    occupations:
  0.085  0.000  0.000  0.043 -0.000
  0.000  0.193  0.000 -0.000 -0.000
  0.000  0.000  0.061  0.000 -0.000
  0.043 -0.000  0.000  0.172  0.000
 -0.000 -0.000 -0.000  0.000  0.070
atomic mag. moment =     3.874385
atom   10   Tr[ns(na)] (up, down, total) =   4.89324  0.45173  5.34497
   spin  1
    eigenvalues: 
  0.908  0.984  0.997  1.000  1.004
    eigenvectors:
  0.000  0.744  0.256  0.000  0.000
  0.000  0.001  0.002  0.997  0.000
  0.000  0.000  0.000  0.000  1.000
  0.000  0.255  0.742  0.003  0.000
  1.000  0.000  0.000  0.000  0.000
    occupations:
  0.987 -0.000 -0.000  0.006  0.000
 -0.000  1.000  0.000  0.000 -0.000
 -0.000  0.000  1.004 -0.000  0.002
  0.006  0.000 -0.000  0.994 -0.000
  0.000 -0.000  0.002 -0.000  0.908
   spin  2
    eigenvalues: 
  0.049  0.052  0.058  0.124  0.168
    eigenvectors:
  0.018  0.000  0.000  0.982  0.000
  0.001  0.000  0.999  0.000  0.000
  0.000  1.000  0.000  0.000  0.000
  0.981  0.000  0.001  0.018  0.000
  0.000  0.000  0.000  0.000  1.000
    occupations:
  0.123  0.000 -0.000 -0.010 -0.000
  0.000  0.058 -0.000 -0.000  0.000
 -0.000 -0.000  0.052 -0.000 -0.002
 -0.010 -0.000 -0.000  0.051  0.000
 -0.000  0.000 -0.002  0.000  0.168
atomic mag. moment =     4.441507
atom   16   Tr[ns(na)] (up, down, total) =   4.33930  0.51715  4.85646
   spin  1
    eigenvalues: 
  0.685  0.728  0.959  0.982  0.985
    eigenvectors:
  0.233  0.000  0.004  0.763  0.000
  0.000  0.996  0.000  0.000  0.003
  0.000  0.000  0.996  0.003  0.000
  0.766  0.000  0.000  0.233  0.000
  0.000  0.003  0.000  0.001  0.996
    occupations:
  0.912 -0.002 -0.001 -0.126 -0.000
 -0.002  0.729 -0.000  0.001 -0.015
 -0.001 -0.000  0.959 -0.005 -0.000
 -0.126  0.001 -0.005  0.754  0.000
 -0.000 -0.015 -0.000  0.000  0.984
   spin  2
    eigenvalues: 
  0.051  0.056  0.057  0.170  0.183
    eigenvectors:
  0.511  0.145  0.155  0.002  0.187
  0.000  0.000  0.000  0.990  0.009
  0.365  0.216  0.419  0.000  0.000
  0.119  0.033  0.036  0.007  0.805
  0.005  0.605  0.389  0.001  0.000
    occupations:
  0.078  0.000 -0.002  0.051 -0.000
  0.000  0.170 -0.000  0.001  0.003
 -0.002 -0.000  0.055  0.001  0.001
  0.051  0.001  0.001  0.158  0.000
 -0.000  0.003  0.001  0.000  0.056
atomic mag. moment =     3.822146
atom   17   Tr[ns(na)] (up, down, total) =   4.22248  0.52955  4.75202
   spin  1
    eigenvalues: 
  0.611  0.746  0.935  0.947  0.984
    eigenvectors:
  0.000  0.988  0.008  0.001  0.003
  0.000  0.007  0.985  0.001  0.007
  0.000  0.001  0.002  0.995  0.003
  0.000  0.004  0.006  0.003  0.988
  1.000  0.000  0.000  0.000  0.000
    occupations:
  0.748  0.016  0.006  0.014 -0.000
  0.016  0.933  0.000 -0.005  0.004
  0.006  0.000  0.947 -0.002  0.000
  0.014 -0.005 -0.002  0.982 -0.000
 -0.000  0.004  0.000 -0.000  0.611
   spin  2
    eigenvalues: 
  0.051  0.057  0.064  0.172  0.185
    eigenvectors:
  0.009  0.001  0.000  0.000  0.991
  0.011  0.799  0.188  0.000  0.001
  0.003  0.184  0.812  0.000  0.000
  0.977  0.015  0.000  0.000  0.008
  0.000  0.000  0.000  1.000  0.000
    occupations:
  0.183  0.005  0.002 -0.012  0.000
  0.005  0.059 -0.003  0.000 -0.002
  0.002 -0.003  0.063  0.000  0.000
 -0.012  0.000  0.000  0.052  0.000
  0.000 -0.002  0.000  0.000  0.172
atomic mag. moment =     3.692931
atom   22   Tr[ns(na)] (up, down, total) =   4.44932  0.58319  5.03251
   spin  1
    eigenvalues: 
  0.729  0.732  0.991  0.993  1.004
    eigenvectors:
  0.141  0.008  0.851  0.000  0.000
  0.060  0.940  0.000  0.000  0.000
  0.000  0.000  0.000  0.036  0.964
  0.798  0.053  0.149  0.000  0.000
  0.000  0.000  0.000  0.964  0.036
    occupations:
  0.952  0.002 -0.000 -0.093  0.000
  0.002  0.732  0.000  0.000  0.000
 -0.000  0.000  1.004 -0.000 -0.002
 -0.093  0.000 -0.000  0.768 -0.000
  0.000  0.000 -0.002 -0.000  0.994
   spin  2
    eigenvalues: 
  0.061  0.068  0.071  0.190  0.193
    eigenvectors:
  0.000  0.859  0.000  0.140  0.001
  0.000  0.000  0.000  0.011  0.989
  1.000  0.000  0.000  0.000  0.000
  0.000  0.141  0.000  0.849  0.010
  0.000  0.000  1.000  0.000  0.000
    occupations:
  0.085 -0.000  0.000  0.043  0.000
 -0.000  0.193 -0.000  0.000 -0.000
  0.000 -0.000  0.061  0.000  0.000
  0.043  0.000  0.000  0.173 -0.000
  0.000 -0.000  0.000 -0.000  0.071
atomic mag. moment =     3.866130
atom   23   Tr[ns(na)] (up, down, total) =   4.55242  0.51089  5.06332
   spin  1
    eigenvalues: 
  0.745  0.808  0.992  1.002  1.005
    eigenvectors:
  0.998  0.000  0.001  0.000  0.000
  0.000  0.000  0.006  0.993  0.000
  0.000  0.000  0.000  0.000  1.000
  0.001  0.000  0.992  0.006  0.000
  0.000  1.000  0.000  0.000  0.000
    occupations:
  0.745 -0.004  0.002  0.009  0.000
 -0.004  1.002  0.000 -0.001 -0.000
  0.002  0.000  1.005  0.000 -0.003
  0.009 -0.001  0.000  0.992  0.000
  0.000 -0.000 -0.003  0.000  0.808
   spin  2
    eigenvalues: 
  0.050  0.057  0.061  0.171  0.172
    eigenvectors:
  0.009  0.000  0.000  0.000  0.991
  0.000  1.000  0.000  0.000  0.000
  0.000  0.000  1.000  0.000  0.000
  0.991  0.000  0.000  0.000  0.009
  0.000  0.000  0.000  1.000  0.000
    occupations:
  0.171 -0.001 -0.000 -0.012  0.000
 -0.001  0.057 -0.000  0.000  0.000
 -0.000 -0.000  0.061  0.000  0.001
 -0.012  0.000  0.000  0.051 -0.000
  0.000  0.000  0.001 -0.000  0.171
atomic mag. moment =     4.041526
N of occupied +U levels =  39.6974779
 --- exit write_ns ---

     negative rho (up, down):  0.106E-02 0.105E-02

     total cpu time spent up to now is      631.2 secs

     total energy              =   -2306.40998917 Ry
     Harris-Foulkes estimate   =   -2318.17029733 Ry
     estimated scf accuracy    <      23.24311882 Ry

     total magnetization       =    23.00 Bohr mag/cell
     absolute magnetization    =    39.85 Bohr mag/cell

     iteration #  2     ecut=    40.00 Ry     beta=0.70
     Davidson diagonalization with overlap
     ethr =  9.73E-03,  avg # of iterations =  5.0

     negative rho (up, down):  0.784E-02 0.353E-02

     total cpu time spent up to now is     1133.7 secs

     total energy              =   -2172.08289938 Ry
     Harris-Foulkes estimate   =   -2497.35394874 Ry
     estimated scf accuracy    <    4755.20844875 Ry

     total magnetization       =    23.00 Bohr mag/cell
     absolute magnetization    =    23.33 Bohr mag/cell

     iteration #  3     ecut=    40.00 Ry     beta=0.70
     Davidson diagonalization with overlap
     ethr =  9.73E-03,  avg # of iterations =  5.1

     negative rho (up, down):  0.665E-02 0.562E-02

     total cpu time spent up to now is     1601.9 secs

     total energy              =   -2309.48851836 Ry
     Harris-Foulkes estimate   =   -2325.33363758 Ry
     estimated scf accuracy    <      79.17741423 Ry

     total magnetization       =    23.00 Bohr mag/cell
     absolute magnetization    =    30.07 Bohr mag/cell

     iteration #  4     ecut=    40.00 Ry     beta=0.70
     Davidson diagonalization with overlap
     ethr =  9.73E-03,  avg # of iterations =  2.0

     negative rho (up, down):  0.727E-02 0.101E-01

     total cpu time spent up to now is     1847.6 secs

     total energy              =   -2312.80254346 Ry
     Harris-Foulkes estimate   =   -2324.80071945 Ry
     estimated scf accuracy    <     160.97040878 Ry

     total magnetization       =    23.00 Bohr mag/cell
     absolute magnetization    =    27.87 Bohr mag/cell

     iteration #  5     ecut=    40.00 Ry     beta=0.70
     Davidson diagonalization with overlap
     ethr =  9.73E-03,  avg # of iterations =  3.0

     negative rho (up, down):  0.518E-02 0.280E-02

     total cpu time spent up to now is     2108.8 secs

     total energy              =   -2319.57301251 Ry
     Harris-Foulkes estimate   =   -2321.85878418 Ry
     estimated scf accuracy    <       9.32721437 Ry

     total magnetization       =    23.00 Bohr mag/cell
     absolute magnetization    =    30.39 Bohr mag/cell

     iteration #  6     ecut=    40.00 Ry     beta=0.70
     Davidson diagonalization with overlap
     ethr =  3.90E-03,  avg # of iterations =  3.0

     negative rho (up, down):  0.263E-02 0.205E-02

     total cpu time spent up to now is     2360.9 secs

     total energy              =   -2319.77594508 Ry
     Harris-Foulkes estimate   =   -2321.21385609 Ry
     estimated scf accuracy    <      11.87170516 Ry

     total magnetization       =    23.00 Bohr mag/cell
     absolute magnetization    =    34.21 Bohr mag/cell

     iteration #  7     ecut=    40.00 Ry     beta=0.70
     Davidson diagonalization with overlap
     ethr =  3.90E-03,  avg # of iterations =  1.0

     negative rho (up, down):  0.392E-02 0.221E-02

     total cpu time spent up to now is     2594.5 secs

     total energy              =   -2320.30075547 Ry
     Harris-Foulkes estimate   =   -2320.83750384 Ry
     estimated scf accuracy    <       2.64885489 Ry

     total magnetization       =    23.00 Bohr mag/cell
     absolute magnetization    =    30.65 Bohr mag/cell

     iteration #  8     ecut=    40.00 Ry     beta=0.70
     Davidson diagonalization with overlap
     ethr =  1.11E-03,  avg # of iterations =  1.3

     negative rho (up, down):  0.389E-02 0.205E-02

     total cpu time spent up to now is     2829.1 secs

     total energy              =   -2320.45998636 Ry
     Harris-Foulkes estimate   =   -2320.60709615 Ry
     estimated scf accuracy    <       0.94114737 Ry

     total magnetization       =    23.00 Bohr mag/cell
     absolute magnetization    =    30.24 Bohr mag/cell

     iteration #  9     ecut=    40.00 Ry     beta=0.70
     Davidson diagonalization with overlap
     ethr =  3.94E-04,  avg # of iterations =  4.8

     negative rho (up, down):  0.267E-02 0.156E-02

     total cpu time spent up to now is     3096.0 secs

     total energy              =   -2320.47171038 Ry
     Harris-Foulkes estimate   =   -2320.53624353 Ry
     estimated scf accuracy    <       0.44542774 Ry

     total magnetization       =    23.00 Bohr mag/cell
     absolute magnetization    =    30.48 Bohr mag/cell

     iteration # 10     ecut=    40.00 Ry     beta=0.70
     Davidson diagonalization with overlap
     ethr =  1.86E-04,  avg # of iterations =  4.7

     negative rho (up, down):  0.229E-02 0.142E-02

     total cpu time spent up to now is     3359.0 secs

     total energy              =   -2320.47549076 Ry
     Harris-Foulkes estimate   =   -2320.51911902 Ry
     estimated scf accuracy    <       0.45012559 Ry

     total magnetization       =    23.00 Bohr mag/cell
     absolute magnetization    =    30.69 Bohr mag/cell

     iteration # 11     ecut=    40.00 Ry     beta=0.70
     Davidson diagonalization with overlap
     ethr =  1.86E-04,  avg # of iterations =  1.0

     negative rho (up, down):  0.153E-02 0.138E-02

     total cpu time spent up to now is     3599.6 secs

     total energy              =   -2320.41188368 Ry
     Harris-Foulkes estimate   =   -2320.49973459 Ry
     estimated scf accuracy    <       0.19987118 Ry

     total magnetization       =    23.00 Bohr mag/cell
     absolute magnetization    =    30.68 Bohr mag/cell

     iteration # 12     ecut=    40.00 Ry     beta=0.70
     Davidson diagonalization with overlap
     ethr =  8.36E-05,  avg # of iterations =  6.7

     negative rho (up, down):  0.187E-02 0.111E-02

     total cpu time spent up to now is     3961.5 secs

     total energy              =   -2320.34030920 Ry
     Harris-Foulkes estimate   =   -2320.52110340 Ry
     estimated scf accuracy    <       1.13103756 Ry

     total magnetization       =    23.00 Bohr mag/cell
     absolute magnetization    =    31.38 Bohr mag/cell

     iteration # 13     ecut=    40.00 Ry     beta=0.70
     Davidson diagonalization with overlap
     ethr =  8.36E-05,  avg # of iterations =  4.0

     negative rho (up, down):  0.136E-02 0.106E-02

     total cpu time spent up to now is     4238.4 secs

     total energy              =   -2320.38226816 Ry
     Harris-Foulkes estimate   =   -2320.49524519 Ry
     estimated scf accuracy    <       0.32521022 Ry

     total magnetization       =    23.00 Bohr mag/cell
     absolute magnetization    =    30.96 Bohr mag/cell

     iteration # 14     ecut=    40.00 Ry     beta=0.70
     Davidson diagonalization with overlap
     ethr =  8.36E-05,  avg # of iterations =  4.5

     negative rho (up, down):  0.202E-02 0.121E-02

     total cpu time spent up to now is     4527.7 secs

     total energy              =   -2320.28947960 Ry
     Harris-Foulkes estimate   =   -2320.66518319 Ry
     estimated scf accuracy    <       3.11394745 Ry

     total magnetization       =    23.00 Bohr mag/cell
     absolute magnetization    =    30.70 Bohr mag/cell

     iteration # 15     ecut=    40.00 Ry     beta=0.70
     Davidson diagonalization with overlap
     ethr =  8.36E-05,  avg # of iterations =  4.2

     negative rho (up, down):  0.163E-02 0.110E-02

     total cpu time spent up to now is     4803.6 secs

     total energy              =   -2320.43169600 Ry
     Harris-Foulkes estimate   =   -2320.48120990 Ry
     estimated scf accuracy    <       0.21768233 Ry

     total magnetization       =    23.00 Bohr mag/cell
     absolute magnetization    =    30.49 Bohr mag/cell

     iteration # 16     ecut=    40.00 Ry     beta=0.70
     Davidson diagonalization with overlap
     ethr =  8.36E-05,  avg # of iterations =  4.0

     negative rho (up, down):  0.196E-02 0.106E-02

     total cpu time spent up to now is     5075.4 secs

     total energy              =   -2320.38549200 Ry
     Harris-Foulkes estimate   =   -2320.49657392 Ry
     estimated scf accuracy    <       1.95447959 Ry

     total magnetization       =    23.00 Bohr mag/cell
     absolute magnetization    =    31.24 Bohr mag/cell

     iteration # 17     ecut=    40.00 Ry     beta=0.70
     Davidson diagonalization with overlap
     ethr =  8.36E-05,  avg # of iterations =  3.6

     negative rho (up, down):  0.143E-02 0.106E-02

     total cpu time spent up to now is     5347.3 secs

     total energy              =   -2320.45486823 Ry
     Harris-Foulkes estimate   =   -2320.46041265 Ry
     estimated scf accuracy    <       0.03693652 Ry

     total magnetization       =    23.00 Bohr mag/cell
     absolute magnetization    =    30.56 Bohr mag/cell

     iteration # 18     ecut=    40.00 Ry     beta=0.70
     Davidson diagonalization with overlap
     ethr =  1.55E-05,  avg # of iterations =  2.1

     negative rho (up, down):  0.145E-02 0.112E-02

     total cpu time spent up to now is     5594.3 secs

     total energy              =   -2320.45475630 Ry
     Harris-Foulkes estimate   =   -2320.46044406 Ry
     estimated scf accuracy    <       0.05656398 Ry

     total magnetization       =    23.00 Bohr mag/cell
     absolute magnetization    =    30.69 Bohr mag/cell

     iteration # 19     ecut=    40.00 Ry     beta=0.70
     Davidson diagonalization with overlap
     ethr =  1.55E-05,  avg # of iterations =  1.2

     negative rho (up, down):  0.155E-02 0.115E-02

     total cpu time spent up to now is     5833.2 secs

     total energy              =   -2320.45623929 Ry
     Harris-Foulkes estimate   =   -2320.45991595 Ry
     estimated scf accuracy    <       0.03024636 Ry

     total magnetization       =    23.00 Bohr mag/cell
     absolute magnetization    =    30.48 Bohr mag/cell

     iteration # 20     ecut=    40.00 Ry     beta=0.70
     Davidson diagonalization with overlap
     ethr =  1.27E-05,  avg # of iterations =  1.0

     negative rho (up, down):  0.153E-02 0.116E-02

     total cpu time spent up to now is     6074.4 secs

     total energy              =   -2320.45710191 Ry
     Harris-Foulkes estimate   =   -2320.45866742 Ry
     estimated scf accuracy    <       0.01638581 Ry

     total magnetization       =    23.00 Bohr mag/cell
     absolute magnetization    =    30.52 Bohr mag/cell

     iteration # 21     ecut=    40.00 Ry     beta=0.70
     Davidson diagonalization with overlap
     ethr =  6.86E-06,  avg # of iterations =  1.7

     negative rho (up, down):  0.218E-02 0.146E-02

     total cpu time spent up to now is     6313.3 secs

     total energy              =   -2320.45738104 Ry
     Harris-Foulkes estimate   =   -2320.45816648 Ry
     estimated scf accuracy    <       0.00797815 Ry

     total magnetization       =    23.00 Bohr mag/cell
     absolute magnetization    =    30.53 Bohr mag/cell

     iteration # 22     ecut=    40.00 Ry     beta=0.70
     Davidson diagonalization with overlap
     ethr =  3.34E-06,  avg # of iterations =  5.1

     negative rho (up, down):  0.205E-02 0.141E-02

     total cpu time spent up to now is     6590.4 secs

     total energy              =   -2320.45762673 Ry
     Harris-Foulkes estimate   =   -2320.45810954 Ry
     estimated scf accuracy    <       0.00435947 Ry

     total magnetization       =    23.00 Bohr mag/cell
     absolute magnetization    =    30.48 Bohr mag/cell

     iteration # 23     ecut=    40.00 Ry     beta=0.70
     Davidson diagonalization with overlap
     ethr =  1.82E-06,  avg # of iterations =  1.5

     negative rho (up, down):  0.203E-02 0.140E-02

     total cpu time spent up to now is     6828.5 secs

     total energy              =   -2320.45765243 Ry
     Harris-Foulkes estimate   =   -2320.45808818 Ry
     estimated scf accuracy    <       0.00371192 Ry

     total magnetization       =    23.00 Bohr mag/cell
     absolute magnetization    =    30.48 Bohr mag/cell

     iteration # 24     ecut=    40.00 Ry     beta=0.70
     Davidson diagonalization with overlap
     ethr =  1.55E-06,  avg # of iterations =  1.0

     negative rho (up, down):  0.201E-02 0.140E-02

     total cpu time spent up to now is     7066.0 secs

     total energy              =   -2320.45782732 Ry
     Harris-Foulkes estimate   =   -2320.45789845 Ry
     estimated scf accuracy    <       0.00191057 Ry

     total magnetization       =    23.00 Bohr mag/cell
     absolute magnetization    =    30.47 Bohr mag/cell

     iteration # 25     ecut=    40.00 Ry     beta=0.70
     Davidson diagonalization with overlap
     ethr =  7.99E-07,  avg # of iterations =  1.0

     negative rho (up, down):  0.217E-02 0.146E-02

     total cpu time spent up to now is     7303.4 secs

     total energy              =   -2320.45737518 Ry
     Harris-Foulkes estimate   =   -2320.45791389 Ry
     estimated scf accuracy    <       0.00134179 Ry

     total magnetization       =    23.00 Bohr mag/cell
     absolute magnetization    =    30.45 Bohr mag/cell

     iteration # 26     ecut=    40.00 Ry     beta=0.70
     Davidson diagonalization with overlap
     ethr =  5.61E-07,  avg # of iterations =  4.5

     negative rho (up, down):  0.218E-02 0.145E-02

     total cpu time spent up to now is     7575.3 secs

     total energy              =   -2320.45665974 Ry
     Harris-Foulkes estimate   =   -2320.45891684 Ry
     estimated scf accuracy    <       0.01894070 Ry

     total magnetization       =    23.00 Bohr mag/cell
     absolute magnetization    =    30.32 Bohr mag/cell

     iteration # 27     ecut=    40.00 Ry     beta=0.70
     Davidson diagonalization with overlap
     ethr =  5.61E-07,  avg # of iterations =  3.5

     negative rho (up, down):  0.213E-02 0.144E-02

     total cpu time spent up to now is     7834.8 secs

     total energy              =   -2320.45769955 Ry
     Harris-Foulkes estimate   =   -2320.45793519 Ry
     estimated scf accuracy    <       0.00125496 Ry

     total magnetization       =    23.00 Bohr mag/cell
     absolute magnetization    =    30.44 Bohr mag/cell

     iteration # 28     ecut=    40.00 Ry     beta=0.70
     Davidson diagonalization with overlap
     ethr =  5.25E-07,  avg # of iterations =  1.0

     negative rho (up, down):  0.210E-02 0.143E-02

     total cpu time spent up to now is     8075.3 secs

     total energy              =   -2320.45780280 Ry
     Harris-Foulkes estimate   =   -2320.45782848 Ry
     estimated scf accuracy    <       0.00015639 Ry

     total magnetization       =    23.00 Bohr mag/cell
     absolute magnetization    =    30.42 Bohr mag/cell

     iteration # 29     ecut=    40.00 Ry     beta=0.70
     Davidson diagonalization with overlap
     ethr =  6.54E-08,  avg # of iterations =  1.0

     negative rho (up, down):  0.204E-02 0.141E-02

     total cpu time spent up to now is     8316.3 secs

     total energy              =   -2320.45781624 Ry
     Harris-Foulkes estimate   =   -2320.45782576 Ry
     estimated scf accuracy    <       0.00007112 Ry

     total magnetization       =    23.00 Bohr mag/cell
     absolute magnetization    =    30.41 Bohr mag/cell

     iteration # 30     ecut=    40.00 Ry     beta=0.70
     Davidson diagonalization with overlap
     ethr =  2.98E-08,  avg # of iterations =  1.0

     negative rho (up, down):  0.204E-02 0.141E-02

     total cpu time spent up to now is     8553.4 secs

     total energy              =   -2320.45781901 Ry
     Harris-Foulkes estimate   =   -2320.45782486 Ry
     estimated scf accuracy    <       0.00002676 Ry

     total magnetization       =    23.00 Bohr mag/cell
     absolute magnetization    =    30.41 Bohr mag/cell

     iteration # 31     ecut=    40.00 Ry     beta=0.70
     Davidson diagonalization with overlap
     ethr =  1.12E-08,  avg # of iterations =  1.0

     negative rho (up, down):  0.202E-02 0.140E-02

     total cpu time spent up to now is     8793.1 secs

     total energy              =   -2320.45782201 Ry
     Harris-Foulkes estimate   =   -2320.45782312 Ry
     estimated scf accuracy    <       0.00000674 Ry

     total magnetization       =    23.00 Bohr mag/cell
     absolute magnetization    =    30.41 Bohr mag/cell

     iteration # 32     ecut=    40.00 Ry     beta=0.70
     Davidson diagonalization with overlap
     ethr =  2.82E-09,  avg # of iterations =  1.3

     negative rho (up, down):  0.202E-02 0.140E-02

     total cpu time spent up to now is     9035.3 secs

     total energy              =   -2320.45782239 Ry
     Harris-Foulkes estimate   =   -2320.45782358 Ry
     estimated scf accuracy    <       0.00000632 Ry

     total magnetization       =    23.00 Bohr mag/cell
     absolute magnetization    =    30.41 Bohr mag/cell

     iteration # 33     ecut=    40.00 Ry     beta=0.70
     Davidson diagonalization with overlap
     ethr =  2.64E-09,  avg # of iterations =  1.0

     negative rho (up, down):  0.201E-02 0.140E-02

     total cpu time spent up to now is     9275.1 secs

     total energy              =   -2320.45782287 Ry
     Harris-Foulkes estimate   =   -2320.45782335 Ry
     estimated scf accuracy    <       0.00000208 Ry

     total magnetization       =    23.00 Bohr mag/cell
     absolute magnetization    =    30.41 Bohr mag/cell

     iteration # 34     ecut=    40.00 Ry     beta=0.70
     Davidson diagonalization with overlap
     ethr =  8.68E-10,  avg # of iterations =  1.0

     negative rho (up, down):  0.201E-02 0.140E-02

     total cpu time spent up to now is     9523.8 secs

     total energy              =   -2320.45782270 Ry
     Harris-Foulkes estimate   =   -2320.45782361 Ry
     estimated scf accuracy    <       0.00000433 Ry

     total magnetization       =    23.00 Bohr mag/cell
     absolute magnetization    =    30.41 Bohr mag/cell

     iteration # 35     ecut=    40.00 Ry     beta=0.70
     Davidson diagonalization with overlap
     ethr =  8.68E-10,  avg # of iterations =  1.0

     negative rho (up, down):  0.201E-02 0.140E-02

     total cpu time spent up to now is     9772.9 secs

     total energy              =   -2320.45782292 Ry
     Harris-Foulkes estimate   =   -2320.45782348 Ry
     estimated scf accuracy    <       0.00000406 Ry

     total magnetization       =    23.00 Bohr mag/cell
     absolute magnetization    =    30.41 Bohr mag/cell

     iteration # 36     ecut=    40.00 Ry     beta=0.70
     Davidson diagonalization with overlap
     ethr =  8.68E-10,  avg # of iterations =  1.0

     negative rho (up, down):  0.201E-02 0.140E-02

     total cpu time spent up to now is    10016.9 secs

     total energy              =   -2320.45782311 Ry
     Harris-Foulkes estimate   =   -2320.45782332 Ry
     estimated scf accuracy    <       0.00000146 Ry

     total magnetization       =    23.00 Bohr mag/cell
     absolute magnetization    =    30.41 Bohr mag/cell

     iteration # 37     ecut=    40.00 Ry     beta=0.70
     Davidson diagonalization with overlap
     ethr =  6.09E-10,  avg # of iterations =  1.0

     negative rho (up, down):  0.201E-02 0.140E-02

     total cpu time spent up to now is    10253.5 secs

     End of self-consistent calculation
 --- enter write_ns ---
 LDA+U parameters:
U( 2)     =  4.50000000
alpha( 2) =  0.00000000
atom    3   Tr[ns(na)] (up, down, total) =   4.32084  1.10288  5.42373
   spin  1
    eigenvalues: 
  0.658  0.663  0.998  0.999  1.004
    eigenvectors:
  0.043  0.191  0.750  0.000  0.016
  0.801  0.198  0.000  0.001  0.000
  0.000  0.000  0.018  0.001  0.980
  0.155  0.611  0.231  0.000  0.003
  0.001  0.000  0.001  0.997  0.001
    occupations:
  0.919 -0.002 -0.003 -0.142  0.000
 -0.002  0.659 -0.001  0.004 -0.009
 -0.003 -0.001  1.004 -0.004  0.000
 -0.142  0.004 -0.004  0.741  0.000
  0.000 -0.009  0.000  0.000  0.998
   spin  2
    eigenvalues: 
  0.095  0.122  0.144  0.362  0.380
    eigenvectors:
  0.788  0.000  0.004  0.084  0.124
  0.000  0.002  0.000  0.625  0.373
  0.004  0.065  0.931  0.000  0.000
  0.207  0.000  0.000  0.290  0.503
  0.000  0.933  0.065  0.001  0.001
    occupations:
  0.153 -0.000 -0.002  0.113  0.000
 -0.000  0.368  0.001 -0.010  0.011
 -0.002  0.001  0.143  0.004 -0.005
  0.113 -0.010  0.004  0.316 -0.001
  0.000  0.011 -0.005 -0.001  0.124
atomic mag. moment =     3.217963
atom    4   Tr[ns(na)] (up, down, total) =   4.31351  1.10623  5.41974
   spin  1
    eigenvalues: 
  0.634  0.677  0.996  1.003  1.004
    eigenvectors:
  0.000  0.998  0.000  0.000  0.001
  0.000  0.001  0.000  0.001  0.998
  0.000  0.000  0.000  0.999  0.001
  0.000  0.000  1.000  0.000  0.000
  1.000  0.000  0.000  0.000  0.000
    occupations:
  0.678 -0.010 -0.004  0.007 -0.000
 -0.010  1.004 -0.000  0.000  0.000
 -0.004 -0.000  1.003  0.000  0.000
  0.007  0.000  0.000  0.996  0.000
 -0.000  0.000  0.000  0.000  0.634
   spin  2
    eigenvalues: 
  0.090  0.122  0.143  0.372  0.379
    eigenvectors:
  0.003  0.003  0.000  0.001  0.994
  0.001  0.899  0.097  0.000  0.003
  0.000  0.097  0.902  0.000  0.000
  0.996  0.002  0.000  0.000  0.003
  0.000  0.000  0.000  0.999  0.001
    occupations:
  0.377  0.014  0.005 -0.015 -0.000
  0.014  0.125 -0.006  0.000 -0.002
  0.005 -0.006  0.141  0.001  0.000
 -0.015  0.000  0.001  0.090 -0.000
 -0.000 -0.002  0.000 -0.000  0.372
atomic mag. moment =     3.207285
atom    9   Tr[ns(na)] (up, down, total) =   4.28078  1.19077  5.47155
   spin  1
    eigenvalues: 
  0.663  0.673  0.961  0.986  0.998
    eigenvectors:
  0.188  0.000  0.000  0.000  0.812
  0.000  1.000  0.000  0.000  0.000
  0.000  0.000  0.053  0.947  0.000
  0.811  0.000  0.000  0.000  0.188
  0.000  0.000  0.947  0.053  0.000
    occupations:
  0.935 -0.000  0.000 -0.131  0.000
 -0.000  0.673  0.000  0.000 -0.000
  0.000  0.000  0.985  0.000  0.006
 -0.131  0.000  0.000  0.726  0.000
  0.000 -0.000  0.006  0.000  0.962
   spin  2
    eigenvalues: 
  0.125  0.135  0.140  0.383  0.408
    eigenvectors:
  0.840  0.000  0.000  0.160  0.000
  0.000  0.000  0.000  0.000  1.000
  0.000  0.976  0.024  0.000  0.000
  0.160  0.000  0.000  0.840  0.000
  0.000  0.024  0.976  0.000  0.000
    occupations:
  0.166 -0.000  0.000  0.095 -0.000
 -0.000  0.408 -0.000 -0.000 -0.000
  0.000 -0.000  0.135  0.000  0.001
  0.095 -0.000  0.000  0.342 -0.000
 -0.000 -0.000  0.001 -0.000  0.140
atomic mag. moment =     3.090008
atom   10   Tr[ns(na)] (up, down, total) =   4.48587  0.88185  5.36772
   spin  1
    eigenvalues: 
  0.647  0.840  0.997  0.998  1.003
    eigenvectors:
  0.000  0.991  0.007  0.002  0.000
  0.000  0.000  0.406  0.593  0.000
  0.000  0.000  0.000  0.000  1.000
  0.000  0.009  0.586  0.405  0.000
  1.000  0.000  0.000  0.000  0.000
    occupations:
  0.842 -0.003  0.001  0.015  0.000
 -0.003  0.998  0.000  0.000 -0.000
  0.001  0.000  1.003 -0.000  0.002
  0.015  0.000 -0.000  0.996 -0.000
  0.000 -0.000  0.002 -0.000  0.647
   spin  2
    eigenvalues: 
  0.081  0.116  0.116  0.225  0.344
    eigenvectors:
  0.012  0.000  0.000  0.988  0.000
  0.000  0.998  0.002  0.000  0.000
  0.000  0.002  0.998  0.000  0.000
  0.988  0.000  0.000  0.012  0.000
  0.000  0.000  0.000  0.000  1.000
    occupations:
  0.223  0.001 -0.000 -0.016 -0.000
  0.001  0.116 -0.000 -0.000  0.000
 -0.000 -0.000  0.116 -0.000 -0.002
 -0.016 -0.000 -0.000  0.082 -0.000
 -0.000  0.000 -0.002 -0.000  0.344
atomic mag. moment =     3.604013
atom   16   Tr[ns(na)] (up, down, total) =   4.32148  1.10148  5.42297
   spin  1
    eigenvalues: 
  0.659  0.663  0.998  0.999  1.004
    eigenvectors:
  0.038  0.195  0.750  0.001  0.015
  0.821  0.178  0.000  0.001  0.000
  0.000  0.000  0.017  0.001  0.982
  0.140  0.626  0.231  0.000  0.003
  0.001  0.000  0.001  0.998  0.001
    occupations:
  0.919  0.002 -0.003 -0.142  0.000
  0.002  0.660  0.001 -0.003 -0.009
 -0.003  0.001  1.003 -0.004 -0.000
 -0.142 -0.003 -0.004  0.741  0.000
  0.000 -0.009 -0.000  0.000  0.998
   spin  2
    eigenvalues: 
  0.095  0.122  0.144  0.361  0.379
    eigenvectors:
  0.788  0.000  0.004  0.080  0.128
  0.000  0.002  0.000  0.645  0.352
  0.004  0.063  0.932  0.000  0.000
  0.207  0.000  0.000  0.274  0.519
  0.000  0.935  0.063  0.001  0.001
    occupations:
  0.153 -0.000 -0.002  0.113 -0.001
 -0.000  0.367 -0.000  0.010  0.011
 -0.002 -0.000  0.142  0.004  0.005
  0.113  0.010  0.004  0.315  0.000
 -0.001  0.011  0.005  0.000  0.124
atomic mag. moment =     3.219997
atom   17   Tr[ns(na)] (up, down, total) =   4.31145  1.10638  5.41783
   spin  1
    eigenvalues: 
  0.634  0.676  0.996  1.002  1.004
    eigenvectors:
  0.000  0.998  0.000  0.000  0.001
  0.000  0.001  0.000  0.003  0.995
  0.000  0.000  0.000  0.996  0.003
  0.000  0.000  0.999  0.000  0.000
  1.000  0.000  0.000  0.000  0.000
    occupations:
  0.677 -0.011 -0.004  0.006 -0.000
 -0.011  1.003 -0.000  0.000  0.000
 -0.004 -0.000  1.002  0.000  0.000
  0.006  0.000  0.000  0.996  0.000
 -0.000  0.000  0.000  0.000  0.634
   spin  2
    eigenvalues: 
  0.090  0.123  0.142  0.372  0.380
    eigenvectors:
  0.003  0.003  0.000  0.001  0.994
  0.001  0.897  0.099  0.000  0.003
  0.000  0.098  0.901  0.000  0.000
  0.996  0.002  0.000  0.000  0.003
  0.000  0.000  0.000  0.999  0.001
    occupations:
  0.379  0.014  0.005 -0.015 -0.000
  0.014  0.125 -0.005  0.000 -0.002
  0.005 -0.005  0.140  0.001  0.000
 -0.015  0.000  0.001  0.091 -0.000
 -0.000 -0.002  0.000 -0.000  0.372
atomic mag. moment =     3.205066
atom   22   Tr[ns(na)] (up, down, total) =   4.27673  1.19647  5.47320
   spin  1
    eigenvalues: 
  0.663  0.671  0.958  0.987  0.998
    eigenvectors:
  0.185  0.004  0.000  0.000  0.811
  0.019  0.981  0.000  0.000  0.000
  0.000  0.000  0.073  0.927  0.000
  0.795  0.016  0.000  0.000  0.189
  0.000  0.000  0.927  0.073  0.000
    occupations:
  0.934  0.001  0.000 -0.131  0.000
  0.001  0.671  0.000  0.001 -0.000
  0.000  0.000  0.985 -0.000 -0.007
 -0.131  0.001 -0.000  0.726  0.000
  0.000 -0.000 -0.007  0.000  0.961
   spin  2
    eigenvalues: 
  0.126  0.137  0.141  0.385  0.407
    eigenvectors:
  0.841  0.000  0.000  0.159  0.000
  0.000  0.000  0.000  0.000  1.000
  0.000  0.955  0.045  0.000  0.000
  0.159  0.000  0.000  0.841  0.000
  0.000  0.045  0.955  0.000  0.000
    occupations:
  0.167  0.000  0.000  0.095 -0.000
  0.000  0.407 -0.000  0.000 -0.000
  0.000 -0.000  0.137  0.000 -0.001
  0.095  0.000  0.000  0.344  0.000
 -0.000 -0.000 -0.001  0.000  0.141
atomic mag. moment =     3.080262
atom   23   Tr[ns(na)] (up, down, total) =   4.32366  1.08499  5.40864
   spin  1
    eigenvalues: 
  0.643  0.687  0.997  0.997  1.000
    eigenvectors:
  0.000  1.000  0.000  0.000  0.000
  0.000  0.000  0.600  0.399  0.000
  0.000  0.000  0.000  0.000  1.000
  0.000  0.000  0.400  0.600  0.000
  1.000  0.000  0.000  0.000  0.000
    occupations:
  0.687 -0.004  0.001  0.005 -0.000
 -0.004  0.997  0.000 -0.000 -0.000
  0.001  0.000  1.000 -0.000 -0.001
  0.005 -0.000 -0.000  0.997 -0.000
 -0.000 -0.000 -0.001 -0.000  0.643
   spin  2
    eigenvalues: 
  0.090  0.119  0.146  0.356  0.375
    eigenvectors:
  0.003  0.001  0.000  0.996  0.000
  0.000  0.999  0.000  0.001  0.000
  0.000  0.000  1.000  0.000  0.000
  0.997  0.000  0.000  0.003  0.000
  0.000  0.000  0.000  0.000  1.000
    occupations:
  0.355  0.008 -0.000 -0.015 -0.000
  0.008  0.119 -0.000 -0.001  0.000
 -0.000 -0.000  0.146  0.000  0.003
 -0.015 -0.001  0.000  0.090  0.000
 -0.000  0.000  0.003  0.000  0.375
atomic mag. moment =     3.238670
N of occupied +U levels =  43.4053609
 --- exit write_ns ---

 ------ SPIN UP ------------


          k = 0.0000 0.0000 0.0000 ( 26393 PWs)   bands (ev):

   -84.3895 -84.3792 -84.2223 -84.1236 -84.0911 -84.0878 -84.0588 -84.0355
   -53.1878 -53.0802 -53.0330 -53.0178 -53.0164 -52.9969 -52.9920 -52.9338
   -52.8712 -52.8270 -52.8186 -52.8184 -52.8111 -52.8068 -52.7841 -52.7767
   -52.7603 -52.7578 -52.7435 -52.6878 -52.6700 -52.6546 -52.6329 -52.6253
   -21.8405 -21.1923 -21.1701 -20.8437 -20.4126 -20.1980 -20.0467 -19.9852
   -19.9787 -19.8292 -19.8007 -19.7530 -19.5937 -19.5814 -19.5171 -19.4332
   -19.2303 -19.0785 -18.8173 -10.6655 -10.5241 -10.4391 -10.0621  -9.7636
    -9.6381  -9.4889  -9.4117  -9.3646  -8.8858  -8.8374  -8.7932  -8.7189
    -8.6442  -8.5134  -8.4942  -8.3751  -8.3078  -8.0841  -7.9980  -7.9956
    -7.9043  -7.8669  -7.7965  -7.6858  -7.5805  -7.5265  -7.5125  -7.4752
    -7.3883  -7.2610  -7.0796  -6.8995  -6.8776  -6.8332  -6.8101  -6.7720
    -6.6512  -6.4750  -6.4339  -6.3086  -6.0073  -5.8634  -5.8173  -5.7671
    -5.7475  -5.6879  -5.5626  -5.4332  -5.3114  -5.2057  -5.0672  -5.0404
    -4.9670  -4.8713  -4.8321  -4.7057  -4.4788  -4.3626  -4.3206  -4.2186
    -4.0325  -3.7982  -3.6525  -3.4912  -3.2164  -3.1581  -3.1414  -3.0371
    -2.9491  -2.8483  -2.7599  -2.7160  -2.6402  -2.5676  -2.4999  -2.4727
    -2.4401  -2.2737  -2.1993  -1.9016  -1.8698  -1.4644  -1.1641  -0.8808
    -0.6263  -0.5319  -0.4051  -0.3689  -0.0348  -0.0155   0.0976   0.5066
     0.6048   0.7528   0.9112   1.0129   3.1787   3.3737   3.7713   4.2562
     4.7633   5.5143   6.0805   6.3908   6.7754   6.9329   7.1245   7.2647
     7.3677   7.4832   7.5940   7.6809   7.7650   7.9506   8.1697   8.2481
     8.2730   8.3855   8.4706   8.4846   8.5363   8.7613   8.8810   8.9408
     9.0256   9.2663   9.3991   9.4310   9.4455   9.5144   9.6106   9.7515
     9.8676   9.9513  10.0760  10.2893  10.3496  10.3633  10.5727  10.5785
    10.6994  10.7930  10.8995  11.0795  11.1068  11.1559  11.2932  11.4195
    11.5393  11.5778  11.6193  11.7459  11.9329  11.9629  12.0616  12.1972
    12.2700  12.2976  12.3290  12.3751  12.4275  12.5013  12.5865  12.6200
    12.6360  12.6951  12.7632  12.8343  12.9326  12.9660  13.0955  13.1766
    13.1957  13.2418  13.2727  13.3004  13.3347  13.4530  13.5306  13.7260
    13.7486  13.7987  13.8565  13.9473  14.0336  14.0799  14.1714  14.2232
    14.3186  14.3580  14.3888  14.4804  14.5332  14.5996  14.7467  14.8561
    14.9069  14.9987  15.1616  15.1915  15.2171  15.3108  15.3382  15.3849
    15.5390  15.6704  15.7780  15.8524  15.9697  16.0934  16.2227  16.2953
    16.3590  16.5020  16.5326  16.6828  16.7461  16.7768  16.9149  17.0967
    17.1575  17.2666  17.4326  17.4733  17.5498  17.6949  17.7133  17.8816
    17.9015  17.9539  17.9760  18.2296  18.3841  18.4281  18.5027  18.6550
    18.7267  18.7755  18.8443  18.8920  18.9558  19.1029  19.1723  19.2421
    19.4177  19.5013  19.5527  19.5661  19.6056  19.7050  19.7605  19.8800
    19.9162  19.9754  20.0006  20.0455  20.1432  20.2677  20.3177  20.3551
    20.5006  20.5401  20.6654  20.7320  20.8339  20.9731  21.0660  21.2056
    21.2154  21.3380  21.3625  21.4255  21.4818  21.5177  21.6044  21.6314
    21.7327  21.8112  21.9293  22.0800  22.1209  22.1874  22.2844  22.3321
    22.3641  22.3742  22.4445  22.4753  22.5638  22.6132  22.7168  22.7521
    22.8058  22.8951

          k = 0.0000 0.2303 0.0000 ( 26455 PWs)   bands (ev):

   -84.3895 -84.3792 -84.2223 -84.1236 -84.0911 -84.0878 -84.0588 -84.0355
   -53.1879 -53.0803 -53.0328 -53.0180 -53.0163 -52.9971 -52.9922 -52.9333
   -52.8706 -52.8270 -52.8188 -52.8188 -52.8111 -52.8069 -52.7836 -52.7768
   -52.7603 -52.7565 -52.7454 -52.6880 -52.6700 -52.6546 -52.6329 -52.6254
   -21.7833 -21.1775 -21.0701 -20.8330 -20.4348 -20.2414 -20.0892 -20.0410
   -20.0253 -19.9672 -19.7489 -19.7190 -19.6880 -19.5754 -19.4694 -19.3954
   -19.2373 -19.0785 -18.8103 -10.5485 -10.2959 -10.2588 -10.2314  -9.7907
    -9.7675  -9.5291  -9.5018  -9.3887  -8.7774  -8.7371  -8.6521  -8.6004
    -8.5405  -8.3315  -8.2402  -8.1955  -8.1827  -8.1039  -8.0839  -7.9946
    -7.9310  -7.8700  -7.8366  -7.7745  -7.5831  -7.5057  -7.4720  -7.3988
    -7.3620  -7.2940  -7.1945  -7.0597  -7.0012  -6.9326  -6.8759  -6.7957
    -6.7472  -6.6935  -6.5783  -6.5094  -5.9862  -5.8609  -5.8304  -5.7696
    -5.7283  -5.6524  -5.6141  -5.4362  -5.3388  -5.2637  -5.1809  -5.0986
    -4.9062  -4.8291  -4.7751  -4.5430  -4.4192  -4.3582  -4.2095  -4.0865
    -3.8811  -3.7464  -3.6416  -3.5406  -3.4052  -3.2847  -3.1551  -3.1202
    -3.0986  -3.0134  -2.8990  -2.8098  -2.6682  -2.5333  -2.4509  -2.4334
    -2.4123  -2.3980  -2.1401  -1.9675  -1.8944  -1.7745  -1.5860  -1.1837
    -0.8304  -0.7253  -0.2040  -0.0368   0.0659   0.3716   0.4838   0.6893
     0.7866   0.8288   0.9420   1.0203   3.4500   3.5721   4.0219   4.4775
     4.9800   5.3678   5.6928   5.9310   6.1452   6.3590   6.6084   6.9665
     7.1199   7.3146   7.5189   7.5395   7.8692   8.0853   8.3266   8.3330
     8.5028   8.6157   8.6604   8.7339   8.8208   8.9937   9.0871   9.1320
     9.2778   9.5191   9.5893   9.6365   9.7215   9.8321   9.8918   9.9985
    10.0622  10.1305  10.2235  10.2819  10.3320  10.3610  10.4398  10.5588
    10.6199  10.6803  10.7148  10.8588  10.9096  10.9787  11.1076  11.2179
    11.2573  11.3192  11.4481  11.5115  11.5787  11.7100  11.7562  11.8260
    11.9187  12.0784  12.1494  12.3088  12.4774  12.5753  12.6649  12.7239
    12.7521  12.8598  12.9248  12.9859  13.0483  13.2479  13.2988  13.3762
    13.4479  13.5105  13.5784  13.6938  13.7430  13.8485  13.8998  13.9724
    14.1011  14.1971  14.2879  14.3776  14.4023  14.4272  14.4910  14.5331
    14.5730  14.6103  14.6328  14.6883  14.7469  14.8421  14.9146  14.9846
    15.0585  15.1050  15.2163  15.2812  15.3634  15.4026  15.4509  15.5122
    15.6103  15.6576  15.7588  15.8365  15.9148  15.9690  16.0466  16.2038
    16.2584  16.2896  16.3326  16.4092  16.5166  16.6248  16.7068  16.7763
    16.9409  16.9627  17.1261  17.2145  17.2769  17.4090  17.4772  17.5254
    17.6358  17.6968  17.7987  17.8622  17.8856  18.0794  18.2519  18.3769
    18.5446  18.6848  18.7369  18.8031  18.8574  18.9128  19.0392  19.0755
    19.1364  19.2334  19.2786  19.3116  19.4130  19.5349  19.6505  19.7087
    19.7475  20.0051  20.0983  20.1979  20.2504  20.2811  20.3403  20.4457
    20.4834  20.5064  20.5226  20.6103  20.6734  20.8124  20.8847  20.9390
    20.9525  21.0498  21.0884  21.1640  21.2168  21.2802  21.3185  21.3848
    21.4584  21.5796  21.6744  21.7246  21.8135  21.8824  21.9849  22.0004
    22.1215  22.2506  22.3664  22.4262  22.4616  22.5461  22.6152  22.6768
    22.7000  22.7952

          k = 0.0000-0.4606 0.0000 ( 26364 PWs)   bands (ev):

   -84.3894 -84.3792 -84.2223 -84.1236 -84.0911 -84.0878 -84.0588 -84.0355
   -53.1878 -53.0802 -53.0326 -53.0182 -53.0160 -52.9971 -52.9922 -52.9326
   -52.8699 -52.8269 -52.8191 -52.8188 -52.8110 -52.8069 -52.7831 -52.7767
   -52.7603 -52.7546 -52.7478 -52.6879 -52.6699 -52.6545 -52.6329 -52.6253
   -21.7198 -21.1728 -20.9256 -20.7876 -20.4705 -20.4123 -20.1253 -20.1149
   -20.0696 -19.9378 -19.8225 -19.7190 -19.6901 -19.5646 -19.4332 -19.3707
   -19.2462 -19.0786 -18.8052 -10.5035 -10.4325 -10.0076  -9.9633  -9.8864
    -9.8125  -9.5619  -9.4494  -9.1633  -8.7290  -8.6869  -8.5898  -8.5578
    -8.5197  -8.3126  -8.2494  -8.1409  -8.1275  -8.0501  -8.0322  -8.0153
    -7.9590  -7.8339  -7.7346  -7.6368  -7.5727  -7.4858  -7.4754  -7.4215
    -7.3887  -7.3327  -7.2534  -7.1123  -7.0991  -7.0216  -6.9891  -6.9524
    -6.9203  -6.8301  -6.5459  -6.3172  -6.2389  -6.0289  -5.8593  -5.7772
    -5.7653  -5.6971  -5.5924  -5.5693  -5.5057  -5.2154  -5.1708  -5.1433
    -4.9148  -4.8346  -4.5587  -4.4690  -4.3260  -4.2295  -4.1514  -3.9642
    -3.7251  -3.6148  -3.5459  -3.4880  -3.4383  -3.3842  -3.3450  -3.2900
    -3.2324  -3.1102  -3.0107  -2.7793  -2.7720  -2.6700  -2.5768  -2.4853
    -2.3696  -2.3106  -2.2685  -2.1953  -2.1354  -1.9948  -1.8787  -1.0310
    -0.7836  -0.2937  -0.1544  -0.0463   0.2277   0.2388   0.3628   0.6418
     0.8281   1.0246   1.1765   1.4111   3.8640   4.0192   4.3781   4.6981
     4.7744   4.9849   5.2030   5.4898   5.7767   6.1238   6.4730   6.8961
     7.0900   7.1892   7.5964   7.7146   7.8809   7.9551   8.0017   8.2770
     8.3543   8.7401   9.0572   9.0857   9.0983   9.2284   9.3036   9.3345
     9.3742   9.4113   9.4358   9.5523   9.6237   9.7018   9.7808   9.8585
     9.8690   9.9262  10.0772  10.2016  10.3223  10.3635  10.4952  10.5876
    10.6449  10.7370  10.9340  10.9822  11.0403  11.0910  11.1587  11.3117
    11.3902  11.4969  11.6660  11.6942  11.7742  11.8494  12.1637  12.2477
    12.2998  12.3799  12.4232  12.5134  12.5355  12.5814  12.6387  12.7522
    12.8658  12.9427  13.0279  13.0643  13.2017  13.2509  13.2745  13.3147
    13.3866  13.4627  13.5484  13.6078  13.6541  13.7358  13.8489  13.9521
    13.9866  14.0846  14.1414  14.1923  14.2736  14.3569  14.3846  14.4852
    14.5723  14.6482  14.6759  14.7592  14.7678  14.8234  14.8711  14.9223
    14.9492  15.1090  15.1961  15.2344  15.2842  15.3659  15.4993  15.6562
    15.7767  15.8142  15.9366  15.9837  16.1887  16.2303  16.2962  16.4822
    16.5933  16.6493  16.7587  16.8031  16.8416  16.9478  17.0285  17.1640
    17.1972  17.2418  17.2718  17.3486  17.3591  17.5795  17.6297  17.6451
    17.6827  17.7824  17.8340  17.8851  17.9177  17.9800  18.0185  18.1355
    18.1996  18.3399  18.4276  18.5114  18.5229  18.6191  18.6460  18.6659
    18.7066  18.7291  18.8042  18.8260  18.9246  19.0511  19.0973  19.1638
    19.2517  19.4480  19.4807  19.7213  19.8497  19.9189  20.0069  20.0843
    20.1358  20.1507  20.1677  20.2425  20.2528  20.3426  20.4633  20.5895
    20.6030  20.6905  20.8364  20.8705  20.9162  21.1273  21.1287  21.1573
    21.2436  21.3353  21.4228  21.4609  21.5382  21.6291  21.6379  21.8421
    21.9563  22.0208  22.1940  22.2209  22.3451  22.4206  22.5522  22.6809
    22.7433  22.7924

          k = 0.2500 0.0000 0.0000 ( 26392 PWs)   bands (ev):

   -84.3878 -84.3803 -84.2220 -84.1230 -84.0910 -84.0879 -84.0580 -84.0359
   -53.1719 -53.0955 -53.0307 -53.0198 -53.0143 -53.0006 -52.9836 -52.9176
   -52.8707 -52.8318 -52.8295 -52.8232 -52.8116 -52.7937 -52.7840 -52.7779
   -52.7602 -52.7587 -52.7432 -52.7059 -52.6695 -52.6530 -52.6334 -52.6271
   -21.7274 -21.2482 -21.0573 -20.7509 -20.4737 -20.2612 -20.1762 -20.0864
   -19.9150 -19.7753 -19.7342 -19.7251 -19.6190 -19.6092 -19.5462 -19.4314
   -19.2606 -19.1061 -18.8708 -10.4266 -10.3136 -10.2563  -9.9872  -9.5233
    -9.4905  -9.3426  -9.2860  -9.2302  -9.0947  -9.0455  -8.9931  -8.8423
    -8.7072  -8.6813  -8.5026  -8.4208  -8.3823  -8.1988  -8.0857  -7.9981
    -7.9687  -7.8023  -7.7656  -7.7341  -7.6396  -7.5853  -7.5511  -7.3643
    -7.3083  -7.2276  -7.0656  -7.0118  -6.9596  -6.9247  -6.8927  -6.7750
    -6.7138  -6.6809  -6.6353  -6.4434  -6.1817  -6.0756  -5.9756  -5.7980
    -5.7208  -5.6171  -5.5391  -5.2864  -5.1518  -5.0951  -4.9969  -4.7856
    -4.7518  -4.7044  -4.5892  -4.5470  -4.4573  -4.3232  -4.2618  -4.1573
    -3.9777  -3.7914  -3.7335  -3.5426  -3.2345  -3.2131  -3.0849  -2.9466
    -2.9022  -2.8747  -2.8080  -2.7496  -2.7275  -2.6799  -2.5035  -2.4485
    -2.3436  -2.3174  -2.2747  -2.0897  -2.0116  -1.3587  -0.9971  -0.8698
    -0.5564  -0.4410  -0.4287  -0.3659  -0.3427   0.0014   0.2062   0.2502
     0.3087   0.4984   0.7047   0.9579   3.5010   3.6738   4.0742   4.5485
     5.0729   5.6061   5.7543   6.1953   6.3587   6.4531   6.7524   6.8523
     7.2548   7.3952   7.5143   7.6228   7.7181   7.8736   7.9650   8.0059
     8.1442   8.3718   8.4828   8.5557   8.7399   8.8602   9.0576   9.1754
     9.2362   9.4629   9.5363   9.6471   9.7029   9.8604   9.8934   9.9667
    10.0742  10.1472  10.1760  10.2287  10.2844  10.4060  10.4749  10.5959
    10.7279  10.7572  10.8202  10.8993  11.0105  11.0516  11.1508  11.2408
    11.3376  11.4328  11.4570  11.5143  11.5727  11.6437  11.7688  11.8551
    11.9187  12.1551  12.2801  12.3442  12.4347  12.5373  12.6060  12.7294
    12.7752  12.8039  12.9153  13.0637  13.1497  13.2396  13.2676  13.3440
    13.3698  13.4002  13.4948  13.6950  13.7483  13.8418  13.9404  14.0367
    14.0791  14.1269  14.1853  14.3042  14.3614  14.4304  14.4905  14.5737
    14.6148  14.6963  14.8026  14.8489  14.9087  15.0108  15.0685  15.1095
    15.2115  15.2859  15.4039  15.5147  15.5691  15.6907  15.7566  15.7976
    15.8749  15.9296  15.9789  16.0109  16.0750  16.1104  16.1911  16.3810
    16.5523  16.6234  16.6490  16.6934  16.7597  16.8668  17.0110  17.0449
    17.1963  17.2882  17.3491  17.5143  17.5571  17.6442  17.6914  17.8077
    17.8833  17.9474  17.9894  18.0883  18.1318  18.1584  18.2905  18.3108
    18.3569  18.5135  18.6118  18.7757  18.8853  18.9735  18.9924  19.0372
    19.1593  19.2473  19.3241  19.4460  19.5478  19.6628  19.6934  19.7713
    19.7942  19.8360  19.8839  19.9433  19.9959  20.0566  20.2469  20.3069
    20.3444  20.4040  20.4890  20.5909  20.6834  20.7276  20.7763  20.8447
    20.8792  20.9600  21.0112  21.1518  21.2449  21.3491  21.3700  21.4926
    21.5568  21.5993  21.6791  21.7379  21.7726  21.8182  21.8771  21.9358
    21.9851  22.0330  22.0707  22.0930  22.1672  22.1965  22.2362  22.2644
    22.3050  22.3755

          k = 0.2500 0.2303 0.0000 ( 26396 PWs)   bands (ev):

   -84.3878 -84.3803 -84.2220 -84.1230 -84.0910 -84.0879 -84.0580 -84.0359
   -53.1719 -53.0955 -53.0305 -53.0199 -53.0142 -53.0006 -52.9837 -52.9172
   -52.8702 -52.8320 -52.8297 -52.8233 -52.8118 -52.7938 -52.7832 -52.7780
   -52.7603 -52.7572 -52.7452 -52.7059 -52.6695 -52.6531 -52.6334 -52.6271
   -21.6805 -21.2423 -20.9533 -20.7199 -20.4751 -20.2587 -20.1572 -20.0954
   -19.9691 -19.9163 -19.8511 -19.7671 -19.6969 -19.5771 -19.4724 -19.4011
   -19.2611 -19.1069 -18.8648 -10.3443 -10.1109 -10.0510 -10.0367  -9.5874
    -9.5308  -9.3949  -9.3619  -9.2147  -8.9504  -8.9235  -8.8268  -8.7871
    -8.6848  -8.5555  -8.4097  -8.3320  -8.1908  -8.1692  -8.0767  -7.9624
    -7.8921  -7.8419  -7.7476  -7.6650  -7.5883  -7.5646  -7.5264  -7.4813
    -7.3446  -7.2805  -7.2422  -7.1977  -7.1272  -7.0499  -7.0023  -6.9469
    -6.8792  -6.8557  -6.7357  -6.6481  -6.1688  -6.0439  -5.9439  -5.6756
    -5.6076  -5.5790  -5.4854  -5.3181  -5.2285  -5.2124  -5.0508  -4.9606
    -4.8258  -4.6342  -4.5498  -4.4363  -4.3147  -4.2716  -4.1998  -4.1022
    -3.9009  -3.7865  -3.6940  -3.5018  -3.3135  -3.2442  -3.1804  -3.1356
    -2.9603  -2.9332  -2.8582  -2.8356  -2.6361  -2.6042  -2.5382  -2.5228
    -2.4451  -2.4159  -2.1459  -2.1194  -2.0176  -1.5620  -1.3387  -1.1271
    -0.7722  -0.6772  -0.3909  -0.2789  -0.0354   0.0347   0.3777   0.5123
     0.5689   0.7763   0.9094   0.9621   3.7572   3.8554   4.3184   4.7643
     5.2640   5.6406   5.8019   5.9662   6.1997   6.3933   6.4707   6.6070
     6.7426   6.9230   7.0597   7.3503   7.4994   7.6495   7.8220   8.0283
     8.1604   8.3562   8.4793   8.5707   8.6875   8.8614   9.0497   9.0966
     9.1918   9.3261   9.4010   9.5045   9.6855   9.7561   9.8585   9.9629
    10.1152  10.1563  10.2514  10.4088  10.5255  10.6085  10.6829  10.8427
    10.9686  11.0559  11.1116  11.2010  11.2583  11.3916  11.4691  11.4987
    11.5844  11.7191  11.7501  11.7867  11.9490  12.0244  12.1126  12.2773
    12.3474  12.4393  12.4826  12.5867  12.6554  12.7474  12.8263  12.9026
    12.9282  12.9737  13.0206  13.1517  13.2267  13.2857  13.3540  13.4083
    13.4879  13.4938  13.6011  13.7008  13.7671  13.7971  13.8420  13.9709
    13.9973  14.0624  14.1694  14.2223  14.3002  14.3421  14.4152  14.4817
    14.5705  14.6290  14.6970  14.7986  14.8188  14.9227  14.9983  15.0419
    15.1321  15.3052  15.3898  15.4234  15.5223  15.5967  15.7708  15.8101
    15.8987  15.9639  16.0684  16.1065  16.1506  16.2623  16.2924  16.3395
    16.4119  16.5380  16.5610  16.6971  16.7429  16.8185  16.9385  17.0357
    17.0561  17.1489  17.1829  17.2649  17.2790  17.4209  17.4420  17.5409
    17.6316  17.7377  17.7893  17.9046  17.9387  18.0233  18.1637  18.2015
    18.2531  18.3617  18.3717  18.4415  18.5105  18.6051  18.7183  18.7629
    18.8645  18.9641  19.0018  19.0300  19.0982  19.1197  19.1819  19.3131
    19.3656  19.5043  19.5496  19.6456  19.6745  19.7627  19.8065  19.9427
    19.9626  20.0181  20.0660  20.1474  20.2194  20.3108  20.4023  20.4447
    20.5639  20.7361  20.8025  20.8641  20.8798  20.8973  21.0115  21.0658
    21.1864  21.2472  21.3124  21.4061  21.4546  21.5492  21.6304  21.6665
    21.7516  21.8382  21.9063  21.9838  22.0365  22.2067  22.2611  22.3668
    22.4142  22.5269

          k = 0.2500-0.4606 0.0000 ( 26462 PWs)   bands (ev):

   -84.3878 -84.3803 -84.2220 -84.1230 -84.0910 -84.0879 -84.0580 -84.0359
   -53.1720 -53.0955 -53.0303 -53.0201 -53.0140 -53.0007 -52.9839 -52.9169
   -52.8696 -52.8322 -52.8296 -52.8234 -52.8122 -52.7939 -52.7826 -52.7781
   -52.7603 -52.7551 -52.7482 -52.7059 -52.6696 -52.6531 -52.6335 -52.6271
   -21.6305 -21.2359 -20.7903 -20.6937 -20.4506 -20.3705 -20.1197 -20.1105
   -20.0854 -19.9513 -19.8812 -19.8465 -19.7950 -19.5534 -19.4323 -19.3788
   -19.2631 -19.1078 -18.8603 -10.3058 -10.2054  -9.7735  -9.7557  -9.6710
    -9.5994  -9.3922  -9.3067  -9.0872  -8.8609  -8.7515  -8.6748  -8.5983
    -8.4808  -8.4214  -8.3693  -8.3254  -8.2439  -8.1302  -8.1084  -7.9955
    -7.9616  -7.9043  -7.8284  -7.7759  -7.7397  -7.6311  -7.5848  -7.5293
    -7.5076  -7.4649  -7.4038  -7.1556  -7.0966  -7.0077  -6.9537  -6.8832
    -6.8571  -6.7692  -6.7327  -6.6810  -6.2830  -6.1994  -6.1004  -5.7771
    -5.7333  -5.6999  -5.5722  -5.4850  -5.4459  -5.3462  -5.0091  -4.8207
    -4.7636  -4.5506  -4.4839  -4.2859  -4.2528  -4.1239  -4.0784  -3.9713
    -3.8491  -3.7160  -3.5782  -3.4127  -3.3815  -3.2967  -3.2170  -3.1921
    -3.1490  -2.9983  -2.9292  -2.7998  -2.7380  -2.6590  -2.6278  -2.4917
    -2.4638  -2.4023  -2.1982  -2.1141  -2.0071  -1.9486  -1.9283  -1.0261
    -0.7103  -0.4323  -0.3364  -0.2633  -0.1890  -0.1222   0.5282   0.5924
     0.6931   0.9158   1.0695   1.3315   4.1145   4.2974   4.6721   4.9888
     5.0607   5.2761   5.4819   5.7840   6.0408   6.1466   6.4129   6.6600
     6.8125   6.9602   7.2242   7.2835   7.3371   7.4747   7.5387   7.7513
     7.9251   8.0514   8.1662   8.3194   8.4581   8.6272   8.7081   8.8642
     9.1316   9.1830   9.4407   9.5441   9.5865   9.8206   9.8588   9.9177
    10.0069  10.2809  10.5069  10.6183  10.7403  10.9321  11.0228  11.1565
    11.2975  11.3775  11.3992  11.6161  11.7273  11.7785  11.8816  11.9727
    11.9892  12.0463  12.0830  12.1831  12.2662  12.3216  12.3798  12.5992
    12.6607  12.7373  12.7691  12.8247  12.8676  12.9210  12.9683  12.9968
    13.0525  13.1032  13.1799  13.2315  13.3045  13.4083  13.4746  13.5032
    13.5570  13.6448  13.7200  13.7361  13.8150  13.8570  13.9045  13.9964
    14.0541  14.1914  14.2494  14.2617  14.3052  14.4335  14.4821  14.5454
    14.6318  14.6933  14.7070  14.7736  14.8502  14.8756  14.9656  15.0134
    15.0536  15.1247  15.1889  15.2230  15.2804  15.3426  15.4091  15.4668
    15.5545  15.5933  15.6426  15.7475  15.8292  15.8791  15.9253  16.0457
    16.1049  16.2468  16.2941  16.3511  16.4022  16.5059  16.6297  16.7040
    16.8102  16.8950  16.9299  17.0452  17.1055  17.1419  17.1870  17.4104
    17.5424  17.6774  17.7422  17.8609  17.9045  17.9681  18.0560  18.1035
    18.2638  18.3024  18.3923  18.4790  18.5262  18.5724  18.6525  18.7103
    18.7997  18.8773  18.9107  19.0173  19.0420  19.0783  19.1613  19.2106
    19.2457  19.4561  19.5687  19.6308  19.6983  19.7360  19.7751  19.7946
    19.8416  19.9367  20.0155  20.0447  20.0985  20.1258  20.1629  20.1932
    20.2371  20.3878  20.4859  20.6205  20.7227  20.7960  20.8681  20.9608
    20.9839  21.0410  21.0987  21.1299  21.1830  21.2123  21.3123  21.3293
    21.3744  21.4578  21.5113  21.6578  21.8292  21.9917  22.0488  22.2120
    22.3193  22.3721

          k =-0.5000 0.0000 0.0000 ( 26466 PWs)   bands (ev):

   -84.3850 -84.3826 -84.2217 -84.1224 -84.0908 -84.0880 -84.0571 -84.0363
   -53.1354 -53.1317 -53.0263 -53.0242 -53.0094 -53.0071 -52.9739 -52.8892
   -52.8704 -52.8578 -52.8416 -52.8241 -52.8117 -52.7839 -52.7792 -52.7602
   -52.7597 -52.7578 -52.7429 -52.7426 -52.6691 -52.6513 -52.6342 -52.6288
   -21.4844 -21.4463 -20.7767 -20.7375 -20.5157 -20.4672 -20.3011 -20.1219
   -19.7946 -19.7467 -19.7118 -19.6854 -19.6554 -19.5956 -19.5175 -19.4603
   -19.4198 -19.0365 -18.9716  -9.9538  -9.9060  -9.8013  -9.7776  -9.7739
    -9.6907  -9.4015  -9.2143  -9.1975  -9.1118  -9.0291  -8.9962  -8.9936
    -8.9672  -8.9396  -8.6461  -8.3911  -8.3839  -8.3533  -8.2384  -8.0277
    -7.8564  -7.7275  -7.6705  -7.5401  -7.4703  -7.4513  -7.4217  -7.4032
    -7.3171  -7.2892  -7.2744  -7.1767  -7.1561  -6.9904  -6.9759  -6.9451
    -6.8526  -6.8348  -6.7096  -6.6244  -6.3537  -6.2275  -6.1635  -6.0689
    -5.6507  -5.4059  -5.3275  -5.1509  -5.1025  -5.0362  -4.7812  -4.7511
    -4.6392  -4.6099  -4.4642  -4.3817  -4.3171  -4.1973  -4.0472  -4.0222
    -3.9683  -3.8869  -3.6106  -3.5294  -3.5048  -3.2078  -2.9808  -2.9632
    -2.8983  -2.8831  -2.8361  -2.7847  -2.7330  -2.6230  -2.5325  -2.4986
    -2.4205  -2.3418  -2.3270  -2.2172  -2.1416  -1.1863  -0.9677  -0.8674
    -0.6584  -0.4867  -0.2194  -0.2131  -0.2051  -0.2026  -0.1401  -0.1103
     0.0543   0.3619   0.7476   0.7648   4.1893   4.3495   4.3577   4.8707
     4.9352   5.1289   5.3729   5.6096   5.9212   6.1608   6.5327   6.7984
     7.0928   7.3408   7.6207   7.7880   8.0442   8.1423   8.2112   8.3642
     8.3682   8.5270   8.6008   8.7465   8.8070   8.8342   8.8611   8.8860
     8.9868   9.0674   9.2628   9.3743   9.3980   9.4367   9.6230   9.7495
     9.9100  10.0701  10.1728  10.2584  10.3428  10.4079  10.5137  10.5628
    10.6493  10.7326  10.8881  10.9510  10.9938  11.1321  11.1892  11.2319
    11.2585  11.4225  11.4832  11.5128  11.8839  11.9605  12.0246  12.1670
    12.2030  12.2684  12.4354  12.5715  12.5960  12.8085  12.8397  12.9656
    13.0463  13.1584  13.2092  13.2459  13.3466  13.4823  13.5045  13.5589
    13.6643  13.7442  13.8951  13.9133  13.9677  14.0564  14.0988  14.1265
    14.1948  14.2250  14.2651  14.3898  14.4894  14.5159  14.6658  14.7932
    14.8152  14.8521  14.9197  14.9804  14.9906  15.0509  15.0972  15.1561
    15.2129  15.2907  15.4327  15.4732  15.7031  15.7211  15.8282  15.8990
    15.9480  15.9957  16.0697  16.2870  16.4237  16.4650  16.5672  16.6363
    16.7414  16.8279  16.8757  16.9006  16.9889  17.1905  17.2471  17.2946
    17.3775  17.4560  17.5691  17.7206  17.7822  17.8833  17.9163  18.0085
    18.0349  18.0755  18.1139  18.1589  18.2672  18.3077  18.3572  18.4347
    18.5162  18.5568  18.6490  18.7011  18.7106  18.7693  18.7889  18.8265
    18.8958  18.9761  19.0527  19.0792  19.0922  19.1553  19.2460  19.3389
    19.4150  19.4494  19.5688  19.7670  19.8546  19.9623  20.0454  20.1563
    20.2067  20.2839  20.3179  20.3959  20.4661  20.5202  20.5603  20.5834
    20.6418  20.6566  20.7709  20.7877  20.8525  20.8838  20.9127  20.9599
    20.9807  21.0487  21.0867  21.1162  21.1827  21.2253  21.2647  21.2899
    21.2983  21.3375  21.4136  21.5380  21.6195  21.6466  21.6613  21.7254
    21.7343  21.7729

          k =-0.5000 0.2303 0.0000 ( 26450 PWs)   bands (ev):

   -84.3850 -84.3826 -84.2217 -84.1224 -84.0908 -84.0880 -84.0571 -84.0363
   -53.1354 -53.1317 -53.0262 -53.0240 -53.0093 -53.0071 -52.9740 -52.8890
   -52.8698 -52.8576 -52.8418 -52.8242 -52.8119 -52.7830 -52.7793 -52.7603
   -52.7588 -52.7574 -52.7460 -52.7415 -52.6691 -52.6513 -52.6342 -52.6288
   -21.4647 -21.4218 -20.6961 -20.6587 -20.4582 -20.3850 -20.3377 -20.1338
   -19.9333 -19.8615 -19.8067 -19.7879 -19.6859 -19.6775 -19.4348 -19.4076
   -19.3929 -19.0353 -18.9671  -9.9705  -9.9343  -9.5863  -9.5619  -9.4870
    -9.4636  -9.3007  -9.2315  -9.1827  -9.1231  -9.0623  -9.0050  -8.9681
    -8.8890  -8.8140  -8.5825  -8.3865  -8.3660  -8.3056  -8.1230  -7.9841
    -7.8522  -7.7775  -7.6867  -7.6419  -7.6044  -7.5539  -7.5181  -7.4383
    -7.3955  -7.3222  -7.2892  -7.2699  -7.2201  -7.1341  -7.0787  -7.0301
    -6.9914  -6.9046  -6.8632  -6.8190  -6.3324  -6.1530  -6.0701  -6.0077
    -5.6508  -5.4865  -5.3209  -5.2109  -5.1052  -5.0733  -4.9948  -4.9285
    -4.6136  -4.5119  -4.4456  -4.3446  -4.2411  -4.1136  -4.0188  -3.9176
    -3.8838  -3.8321  -3.6235  -3.4527  -3.3834  -3.3084  -3.1250  -3.0864
    -2.9529  -2.8848  -2.8464  -2.7742  -2.6830  -2.6314  -2.5810  -2.5484
    -2.4470  -2.3915  -2.3362  -2.2175  -2.0981  -1.1709  -1.0094  -0.9983
[...]
     1.5470   1.5669   1.6589   1.7356   1.7704   1.7937   1.8451   2.0150
     2.0698   2.1370   2.2606   2.3718   2.4115   2.4203   2.4987   2.6933
     2.7640   2.8201   2.8336   2.9120   4.3931   4.4222   4.4253   4.9149
     4.9912   5.1889   5.4544   5.6845   6.0352   6.2546   6.6904   6.9268
     7.2556   7.4147   7.6042   7.7222   7.9377   8.1787   8.3463   8.4221
     8.4465   8.4768   8.5268   8.7641   8.8533   8.8752   8.8958   8.9218
     9.0373   9.1176   9.3225   9.4214   9.4892   9.5089   9.6738   9.7999
     9.9178  10.0565  10.2329  10.3237  10.3485  10.4371  10.4962  10.5319
    10.6843  10.8114  10.8658  10.9642  11.0735  11.2350  11.2574  11.3361
    11.4081  11.4894  11.5839  11.6421  11.9845  12.0911  12.1675  12.3620
    12.3985  12.3993  12.5323  12.7566  12.8209  12.9373  13.0235  13.0601
    13.1240  13.2024  13.2467  13.3737  13.4784  13.6822  13.7566  13.7654
    13.8706  13.9247  14.0415  14.0788  14.1303  14.1735  14.2067  14.2665
    14.3242  14.3352  14.4341  14.5637  14.6736  14.7140  14.8280  14.9373
    15.0005  15.0313  15.1437  15.1863  15.2195  15.2332  15.2942  15.3483
    15.4881  15.5458  15.7151  15.7280  15.9325  15.9661  16.0415  16.1107
    16.1756  16.2344  16.3379  16.5780  16.6136  16.6840  16.7574  16.8392
    16.9777  17.0101  17.0454  17.1466  17.1890  17.3012  17.3601  17.4399
    17.5648  17.6513  17.7354  17.8801  17.9147  18.0082  18.0332  18.0683
    18.1025  18.1916  18.2400  18.3019  18.3498  18.3979  18.4315  18.5892
    18.6416  18.6918  18.8007  18.9007  18.9503  18.9698  18.9755  19.0019
    19.1844  19.1933  19.2517  19.2666  19.3364  19.3943  19.4332  19.5041
    19.5553  19.5784  19.7448  19.9400  20.0130  20.1204  20.1830  20.2882
    20.3332  20.3948  20.3998  20.5103  20.5739  20.6197  20.6670  20.6899
    20.7286  20.7641  20.9034  20.9343  20.9656  21.0136  21.0293  21.1133
    21.1727  21.2091  21.2200  21.2777  21.3495  21.3651  21.4118  21.4465
    21.4594  21.5643  21.6471  21.6988  21.7359  21.7573  21.8208  21.8358
    21.8572  21.9292

          k =-0.5000 0.2303 0.0000 ( 26450 PWs)   bands (ev):

   -80.3981 -80.3941 -80.3134 -80.3098 -80.2972 -80.2753 -80.2537 -79.3981
   -49.2404 -49.2350 -49.2246 -49.2215 -49.2143 -49.1977 -49.1824 -49.1699
   -49.1638 -49.1628 -49.1621 -49.1101 -49.1071 -49.1064 -49.0977 -49.0786
   -48.9711 -48.9710 -48.9347 -48.8924 -48.8648 -48.5093 -48.3823 -47.7867
   -21.4608 -21.3602 -20.9378 -20.7558 -20.5936 -20.5425 -20.4265 -20.2001
   -20.1157 -20.0414 -19.9941 -19.8576 -19.8475 -19.7529 -19.7398 -19.6729
   -19.5431 -19.4149 -19.3996  -8.8990  -8.8316  -8.1771  -8.1546  -8.1263
    -8.0680  -7.7511  -7.6179  -7.5904  -7.4445  -7.3328  -7.2996  -7.1932
    -7.0862  -7.0168  -6.9535  -6.8835  -6.5660  -6.5185  -6.4619  -6.4236
    -6.2534  -6.1974  -6.0793  -6.0244  -5.8704  -5.8517  -5.8231  -5.7948
    -5.7384  -5.6160  -5.4685  -5.4006  -5.3764  -5.2805  -5.2640  -5.1584
    -5.0308  -4.9226  -4.8533  -4.6463  -4.5006  -4.4328  -4.3649  -4.2759
    -4.1631  -4.0465  -3.9821  -3.8379  -3.7784  -3.6036  -3.4694  -3.3839
    -3.2691  -3.1215  -2.8964  -2.8901   0.5547   0.5666   0.7022   0.7364
     0.7936   0.8143   0.8435   0.8611   0.9245   0.9407   1.0075   1.0452
     1.1179   1.1242   1.1884   1.2047   1.2773   1.3106   1.3598   1.4403
     1.4985   1.6523   1.6725   1.7009   1.7919   1.7966   1.8944   1.9299
     1.9974   2.0479   2.1104   2.2422   2.2920   2.3677   2.4486   2.4661
     2.8397   2.8933   2.9629   3.0565   4.5364   4.6543   4.6614   5.1584
     5.2276   5.4254   5.6653   5.9024   6.1677   6.3427   6.5034   6.6761
     6.8144   7.0696   7.1350   7.2374   7.2986   7.4089   7.6109   7.7409
     7.7986   7.9143   8.1995   8.3824   8.4764   8.6502   8.7095   8.8739
     9.1927   9.3663   9.3854   9.5934   9.6610   9.7443  10.0437  10.0746
    10.3516  10.4408  10.6268  10.6554  10.7809  10.8604  10.9256  11.0032
    11.0613  11.1008  11.2776  11.3579  11.5311  11.6511  11.7002  11.7135
    11.7860  11.8409  11.9663  12.0117  12.3202  12.3794  12.4098  12.4771
    12.5568  12.6876  12.8060  12.8682  12.9422  12.9987  13.1479  13.2235
    13.3944  13.4133  13.4942  13.5873  13.6775  13.7008  13.7810  13.9275
    13.9667  14.1400  14.2305  14.2654  14.3313  14.3511  14.4077  14.4815
    14.5245  14.5622  14.5969  14.6199  14.6966  14.7563  14.8366  14.8772
    14.9224  15.0328  15.1269  15.1892  15.2182  15.3021  15.3595  15.4967
    15.5984  15.6396  15.7137  15.7403  15.7701  15.9073  16.0007  16.0898
    16.1241  16.1538  16.2334  16.2904  16.3131  16.3765  16.4031  16.4682
    16.5688  16.5962  16.6322  16.7749  16.8344  16.9212  16.9376  16.9657
    17.0147  17.0836  17.1301  17.2028  17.3061  17.3735  17.4287  17.4790
    17.5881  17.6494  17.6930  17.7123  17.7707  17.8219  17.9317  17.9676
    18.0613  18.1359  18.1916  18.2098  18.3090  18.3882  18.4661  18.5276
    18.5895  18.6442  18.7923  18.9143  19.0952  19.2009  19.2444  19.3440
    19.4059  19.5092  19.6236  19.6534  19.7167  19.8161  19.9010  19.9769
    20.0645  20.1182  20.2176  20.2605  20.2945  20.3149  20.3778  20.4138
    20.4769  20.5047  20.5511  20.5993  20.6374  20.8993  20.9877  21.0598
    21.1181  21.2109  21.2905  21.3398  21.4838  21.5205  21.6310  21.6849
    21.7617  21.8125  21.8756  21.9239  22.0122  22.1177  22.2139  22.3051
    22.4322  22.4499

          k =-0.5000-0.4606 0.0000 ( 26416 PWs)   bands (ev):

   -80.3981 -80.3941 -80.3134 -80.3098 -80.2972 -80.2753 -80.2536 -79.3981
   -49.2404 -49.2350 -49.2254 -49.2220 -49.2152 -49.1959 -49.1812 -49.1681
   -49.1640 -49.1626 -49.1610 -49.1097 -49.1087 -49.1057 -49.0991 -49.0795
   -48.9711 -48.9710 -48.9347 -48.8924 -48.8648 -48.5092 -48.3824 -47.7867
   -21.4317 -21.3261 -20.7765 -20.6494 -20.6059 -20.4792 -20.4493 -20.4257
   -20.2073 -20.1729 -20.0616 -19.8854 -19.8609 -19.7249 -19.7088 -19.6365
   -19.5332 -19.4089 -19.3837  -8.8698  -8.8007  -7.9288  -7.7523  -7.7234
    -7.6476  -7.6147  -7.5381  -7.4568  -7.4350  -7.3513  -7.2338  -7.1496
    -7.0467  -6.9830  -6.8917  -6.8022  -6.7325  -6.6340  -6.6084  -6.5422
    -6.4332  -6.3982  -6.2272  -6.1500  -6.1233  -6.0855  -6.0707  -6.0040
    -5.8500  -5.6904  -5.6592  -5.5386  -5.4562  -5.3364  -5.2761  -5.1932
    -4.9769  -4.8660  -4.7555  -4.6956  -4.6460  -4.4907  -4.4079  -4.2639
    -4.2388  -3.9890  -3.9208  -3.8948  -3.7406  -3.5946  -3.4794  -3.3532
    -3.2616  -3.0377  -2.8669  -2.8217   0.5619   0.5639   0.7094   0.8176
     0.8408   0.8456   0.8693   0.9853   1.0004   1.0188   1.1742   1.2086
     1.2244   1.2435   1.2898   1.2958   1.3599   1.3634   1.3695   1.3807
     1.4010   1.4872   1.5553   1.6408   1.6686   1.7308   1.8010   1.8215
     1.8728   1.9386   2.0715   2.1273   2.3516   2.4188   2.4268   2.4770
     2.9370   2.9556   2.9887   3.0744   4.7381   5.1473   5.1519   5.5452
     5.5483   5.8574   5.8648   5.9248   5.9510   6.0910   6.1292   6.2349
     6.3844   6.5713   6.6517   6.7701   6.9649   7.1455   7.3050   7.4419
     7.6918   7.8591   8.0911   8.2460   8.2801   8.4560   8.6510   8.8031
     8.8272   9.0666   9.2357   9.3650   9.4856   9.5718  10.0050  10.1875
    10.2347  10.4887  10.7734  10.8487  10.9962  11.0596  11.2182  11.3033
    11.3921  11.5100  11.6094  11.9981  12.0569  12.3980  12.4480  12.4990
    12.5014  12.5421  12.6528  12.7264  12.7398  12.9870  13.0475  13.1061
    13.1870  13.2717  13.3414  13.3745  13.4931  13.5296  13.5939  13.7082
    13.7478  13.7760  13.8327  13.8389  13.8696  13.8753  13.9415  14.0455
    14.0793  14.1023  14.1399  14.1901  14.2574  14.3180  14.3317  14.3599
    14.4034  14.5258  14.5421  14.5734  14.7829  14.8773  14.9159  14.9278
    15.0048  15.0361  15.0906  15.1242  15.1633  15.1717  15.2210  15.2771
    15.3388  15.3611  15.3915  15.4682  15.5118  15.5302  15.5615  15.6015
    15.6638  15.6977  15.7702  15.8139  15.8479  15.9117  15.9851  16.0374
    16.0682  16.1122  16.1816  16.2155  16.2826  16.4201  16.5600  16.6072
    16.6381  16.6459  16.7316  16.7841  16.8076  16.9315  17.0180  17.0462
    17.0736  17.0799  17.1607  17.2494  17.2910  17.3358  17.3450  17.4759
    17.6147  17.7666  17.9239  18.1153  18.1363  18.1617  18.2065  18.2839
    18.3291  18.3602  18.4352  18.5395  18.6576  18.6917  18.7930  18.8391
    18.8993  19.0777  19.1346  19.3392  19.3783  19.4106  19.5402  19.6734
    19.8991  20.2077  20.2560  20.2736  20.3464  20.4229  20.4722  20.6734
    20.7109  20.7426  20.8307  20.8496  20.8921  20.9439  21.1229  21.3050
    21.5355  21.6674  21.7493  21.8098  21.9016  21.9266  21.9742  22.0604
    22.1477  22.2021  22.3715  22.4617  22.6142  22.6663  22.6844  22.7330
    22.8518  22.9197

          k =-0.2500 0.2303 0.0000 ( 26396 PWs)   bands (ev):

   -80.4003 -80.3915 -80.3158 -80.3070 -80.2970 -80.2759 -80.2527 -79.3979
   -49.2859 -49.2471 -49.2268 -49.2181 -49.2142 -49.2135 -49.1896 -49.1722
   -49.1601 -49.1389 -49.1168 -49.1133 -49.1070 -49.1011 -49.0991 -49.0754
   -48.9802 -48.9619 -48.9348 -48.8929 -48.8644 -48.5057 -48.3822 -47.7867
   -21.6470 -21.1920 -21.1486 -20.8275 -20.5567 -20.4053 -20.2660 -20.2467
   -20.1375 -20.0009 -19.9502 -19.9199 -19.7889 -19.7608 -19.7340 -19.6734
   -19.5307 -19.4179 -19.3897  -9.0300  -8.7959  -8.3819  -8.3156  -8.2679
    -8.0249  -7.8891  -7.7730  -7.5250  -7.4492  -7.3698  -7.1960  -7.1326
    -7.0437  -7.0028  -6.9287  -6.8554  -6.7577  -6.6313  -6.5834  -6.4124
    -6.3637  -6.2747  -6.1546  -6.0962  -6.0317  -5.8269  -5.7094  -5.6443
    -5.5829  -5.4711  -5.4032  -5.3176  -5.2374  -5.2011  -5.0659  -4.9836
    -4.8283  -4.7049  -4.6494  -4.5949  -4.5182  -4.4111  -4.3500  -4.3033
    -4.1574  -4.0640  -3.9939  -3.8700  -3.7303  -3.6005  -3.5638  -3.4620
    -3.2019  -3.1328  -3.0666  -2.7427   0.5515   0.5828   0.6016   0.6659
     0.6755   0.7186   0.7417   0.7763   0.8604   0.8881   0.9682   1.0307
     1.1149   1.1484   1.2172   1.2884   1.3264   1.3553   1.3941   1.4909
     1.5671   1.6267   1.6668   1.7215   1.7448   1.7897   1.8441   1.9264
     2.0484   2.1830   2.2030   2.2894   2.3833   2.4694   2.5983   2.6199
     2.7362   2.9356   3.0369   3.1244   3.8314   4.0469   4.3863   4.8585
     5.3851   5.7251   5.8974   6.0239   6.2841   6.4532   6.5629   6.7111
     6.8007   6.9495   7.0956   7.3897   7.5065   7.7689   7.8939   7.9912
     8.2774   8.4112   8.4949   8.6555   8.7584   8.9095   8.9281   9.0809
     9.2046   9.3260   9.4583   9.5475   9.7013   9.8294   9.9300  10.0574
    10.1636  10.2128  10.3167  10.4250  10.5678  10.7221  10.7995  10.9682
    11.0217  11.1113  11.1758  11.2756  11.3817  11.4511  11.5194  11.6949
    11.7285  11.7872  11.8501  11.9652  12.0012  12.1288  12.2031  12.3131
    12.4228  12.4777  12.5969  12.7064  12.8186  12.8845  12.9091  12.9948
    13.0612  13.1196  13.1753  13.2574  13.3367  13.3846  13.4557  13.5803
    13.6130  13.7005  13.7635  13.8158  13.8492  13.9346  14.0385  14.0844
    14.1434  14.2497  14.2959  14.3382  14.4389  14.4883  14.5377  14.6422
    14.7405  14.8071  14.8423  14.9462  15.0316  15.0944  15.1216  15.2398
    15.3332  15.3931  15.5247  15.6471  15.7039  15.8423  15.8599  16.0322
    16.0900  16.1902  16.2644  16.3091  16.3864  16.4518  16.4883  16.5617
    16.6383  16.7079  16.8398  16.8919  16.9728  17.0281  17.1375  17.1938
    17.2538  17.3186  17.3966  17.4586  17.5489  17.6170  17.6869  17.7741
    17.8636  17.8932  17.9946  18.0773  18.0977  18.2225  18.3009  18.3157
    18.4023  18.4786  18.5614  18.5933  18.6534  18.8030  18.8476  18.9345
    19.0437  19.0819  19.1299  19.2127  19.2474  19.3291  19.4099  19.4708
    19.5412  19.6638  19.8154  19.8674  19.9054  19.9888  20.0643  20.0906
    20.1345  20.2262  20.2880  20.3246  20.3760  20.4298  20.5880  20.6397
    20.7148  20.8716  20.9679  21.0222  21.0742  21.1353  21.1980  21.2321
    21.3561  21.4180  21.5012  21.5880  21.6655  21.7131  21.7507  21.8088
    21.8462  21.9852  22.0694  22.1537  22.2390  22.3495  22.4210  22.4658
    22.5347  22.6510

     the spin up/dw Fermi energies are    -2.3034   -0.0803 ev

!    total energy              =   -2320.48750005 Ry
     Harris-Foulkes estimate   =   -2320.48750005 Ry
     estimated scf accuracy    <          4.8E-09 Ry

     The total energy is the sum of the following terms:

     one-electron contribution =  -26329.27750387 Ry
     hartree contribution      =   13183.54579618 Ry
     xc contribution           =    -349.46472177 Ry
     ewald contribution        =   11173.15339548 Ry
     Hubbard energy            =       1.55507688 Ry
     smearing contrib. (-TS)   =       0.00045706 Ry

     total magnetization       =    23.00 Bohr mag/cell
     absolute magnetization    =    31.86 Bohr mag/cell

     convergence has been achieved in  15 iterations

     Forces acting on atoms (Ry/au):


     negative rho (up, down):  0.194E-02 0.140E-02
     atom    1 type  1   force =    -0.00548987   -0.01446961    0.00035196
     atom    2 type  1   force =     0.00039458    0.00805912    0.00003033
     atom    3 type  2   force =     0.01723839    0.00083623    0.00007507
     atom    4 type  2   force =     0.00691788    0.01232454   -0.00018574
     atom    5 type  1   force =     0.00203006    0.01445062   -0.00014134
     atom    6 type  1   force =    -0.00175569   -0.02023589   -0.00026783
     atom    7 type  1   force =     0.00258499    0.00163411   -0.00002083
     atom    8 type  1   force =     0.00077607   -0.00227294   -0.00042524
     atom    9 type  2   force =     0.00788800    0.00008624    0.00046170
     atom   10 type  2   force =    -0.00037897   -0.00125923   -0.00020986
     atom   11 type  1   force =    -0.01407509   -0.02944044   -0.00004699
     atom   12 type  1   force =    -0.01406245    0.02985146    0.00013032
     atom   13 type  1   force =    -0.00202897   -0.00055326   -0.00017271
     atom   14 type  1   force =    -0.00505617   -0.01376535    0.00030254
     atom   15 type  1   force =     0.00052214    0.00724981   -0.00042668
     atom   16 type  2   force =    -0.01904049    0.00087033    0.00003701
     atom   17 type  2   force =     0.00708791    0.01216023   -0.00050005
     atom   18 type  1   force =     0.00183115    0.01431595   -0.00010663
     atom   19 type  1   force =    -0.00240917   -0.02017023   -0.00021354
     atom   20 type  1   force =    -0.00242677    0.00186223    0.00077098
     atom   21 type  1   force =    -0.00370466   -0.00228814   -0.00062174
     atom   22 type  2   force =    -0.00691862    0.00040642    0.00019957
     atom   23 type  2   force =     0.00336621   -0.00041139   -0.00012947
     atom   24 type  1   force =     0.01252222   -0.02429405    0.00022540
     atom   25 type  1   force =     0.01310852    0.02453255    0.00033551
     atom   26 type  1   force =     0.00138566   -0.00043435   -0.00004415
     atom   27 type  3   force =     0.00001978    0.00018923    0.00036983
     atom   28 type  3   force =     0.00001098    0.00050757    0.00039168
     atom   29 type  3   force =    -0.00024925    0.00005616   -0.00018179
     atom   30 type  3   force =    -0.00021293    0.00008462   -0.00003240
     atom   31 type  1   force =     0.00011120    0.00013139   -0.00046692
     atom   32 type  3   force =     0.00001335   -0.00001393    0.00051202

     Total force =     0.001943     Total SCF correction =     0.000150

     bfgs converged in  20 scf cycles and  19 bfgs steps
     (criteria: energy < 0.10E-03, force < 0.10E-02)

     End of BFGS Geometry Optimization

     Final energy   =   -2320.4875000497 Ry
Begin final coordinates

ATOMIC_POSITIONS (crystal)
O0       0.000000000   0.000000000   0.374836399    0   0   1
O0       0.000000000   0.500000000   0.395966015    0   0   1
Mn1      0.250000000   0.500000000   0.448418921    0   0   1
Mn1      0.000000000   0.000000000   0.447280614    0   0   1
O0       0.250000000   0.800000000   0.446621384    0   0   1
O0       0.250000000   0.200000000   0.449503569    0   0   1
O0       0.000000000   0.500000000   0.494571929    0   0   1
O0       0.000000000   0.000000000   0.524734688    0   0   1
Mn1      0.250000000   0.000000000   0.573334927    0   0   1
Mn1      0.000000000   0.500000000   0.569710664    0   0   1
O0       0.250000000   0.700000000   0.581283203    0   0   1
O0       0.250000000   0.300000000   0.581656425    0   0   1
O0       0.000000000   0.000000000   0.621007102    0   0   1
O0       0.500000000   0.000000000   0.374950733    0   0   1
O0       0.500000000   0.500000000   0.396117281    0   0   1
Mn1      0.750000000   0.500000000   0.448448960    0   0   1
Mn1      0.500000000   0.000000000   0.447350734    0   0   1
O0       0.750000000   0.800000000   0.446494282    0   0   1
O0       0.750000000   0.200000000   0.449397450    0   0   1
O0       0.500000000   0.500000000   0.497425620    0   0   1
O0       0.500000000   0.000000000   0.524808404    0   0   1
Mn1      0.750000000   0.000000000   0.573367608    0   0   1
Mn1      0.500000000   0.500000000   0.578388510    0   0   1
O0       0.750000000   0.700000000   0.578404304    0   0   1
O0       0.750000000   0.300000000   0.578895853    0   0   1
O0       0.500000000   0.000000000   0.621520739    0   0   1
H2       0.000371656   0.647187793   0.379995565
H2       0.500420385   0.646500572   0.379924382
H2       0.161548638   0.041397091   0.364057190
H2       0.661758797   0.041051151   0.364177212
O0       0.519070018   0.501495726   0.650719113
H2       0.357680446   0.500206849   0.664510218
End final coordinates



     init_run     :    124.54s CPU    128.37s WALL (       1 calls)
     electrons    :  97320.98s CPU 101060.27s WALL (      20 calls)
     update_pot   :    365.27s CPU    379.77s WALL (      19 calls)
     forces       :   4042.50s CPU   4178.31s WALL (      20 calls)

     Called by init_run:
     wfcinit      :     56.31s CPU     59.10s WALL (       1 calls)
     potinit      :      8.24s CPU      8.58s WALL (       1 calls)

     Called by electrons:
     c_bands      :  56835.62s CPU  59021.18s WALL (     390 calls)
     sum_band     :  21218.54s CPU  21963.77s WALL (     390 calls)
     v_of_rho     :    860.68s CPU    966.80s WALL (     404 calls)
     newd         :  18739.46s CPU  18876.92s WALL (     404 calls)
     mix_rho      :    148.93s CPU    153.72s WALL (     390 calls)

     Called by c_bands:
     init_us_2    :    114.17s CPU    115.14s WALL (    4205 calls)
     cegterg      :  55959.27s CPU  57745.65s WALL (    1950 calls)

     Called by *egterg:
     h_psi        :  31590.95s CPU  32741.21s WALL (    5391 calls)
     s_psi        :   3296.34s CPU   3345.35s WALL (    5591 calls)
     g_psi        :     72.02s CPU     72.33s WALL (    3436 calls)
     cdiaghg      :   5841.55s CPU   5869.79s WALL (    5261 calls)

     Called by h_psi:
     add_vuspsi   :   3195.07s CPU   3245.52s WALL (    5391 calls)
     vhpsi        :   3176.61s CPU   3249.69s WALL (    5391 calls)

     General routines
     calbec       :   7937.90s CPU   8076.70s WALL (   43882 calls)
     fft          :    936.85s CPU   1148.31s WALL (   12752 calls)
     ffts         :     10.81s CPU     11.39s WALL (    1588 calls)
     fftw         :  17745.68s CPU  18898.34s WALL ( 3554446 calls)
     interpolate  :    114.44s CPU    116.32s WALL (    1588 calls)
     davcio       :      0.35s CPU     70.44s WALL (    4305 calls)

     Parallel routines
     fft_scatter  :   6936.99s CPU   8232.83s WALL ( 3568786 calls)
     Hubbard U routines
     new_ns       :    755.10s CPU    801.92s WALL (     390 calls)
     vhpsi        :   3176.61s CPU   3249.69s WALL (    5391 calls)
     force_hub    :   1104.57s CPU   1145.95s WALL (      20 calls)

     PWSCF        :     1d    4h33m CPU        1d    5h39m WALL


   This run was terminated on:   1:44:53   6May2014            

=------------------------------------------------------------------------------=
   JOB DONE.
=------------------------------------------------------------------------------=
