
     Program PWSCF v.5.0.2 (svn rev. 9656) starts on  1Jun2014 at 23:22:49 

     This program is part of the open-source Quantum ESPRESSO suite
     for quantum simulation of materials; please cite
         "P. Giannozzi et al., J. Phys.:Condens. Matter 21 395502 (2009);
          URL http://www.quantum-espresso.org", 
     in publications or presentations arising from this work. More details at
     http://www.quantum-espresso.org/quote.php

     Parallel version (MPI), running on    16 processors
     K-points division:     npool     =       4
     R & G space division:  proc/nbgrp/npool/nimage =       4

     Current dimensions of program PWSCF are:
     Max number of different atomic species (ntypx) = 10
     Max number of k-points (npk) =  40000
     Max angular momentum in pseudopotentials (lmaxx) =  3
     Reading input from pwscf.in
Warning: card &CELL ignored
Warning: card / ignored

     Subspace diagonalization in iterative solution of the eigenvalue problem:
     a serial algorithm will be used


     Parallelization info
     --------------------
     sticks:   dense  smooth     PW     G-vecs:    dense   smooth      PW
     Min        1274     408    116               299662    54238    8133
     Max        1275     409    117               299663    54251    8135
     Sum        5097    1635    467              1198649   216969   32535



     bravais-lattice index     =            0
     lattice parameter (alat)  =      10.9604  a.u.
     unit-cell volume          =    6350.6732 (a.u.)^3
     number of atoms/cell      =           33
     number of atomic types    =            3
     number of electrons       =       237.00 (up: 126.00, down: 111.00)
     number of Kohn-Sham states=          343
     kinetic-energy cutoff     =      40.0000  Ry
     charge density cutoff     =     500.0000  Ry
     convergence threshold     =      1.0E-06
     mixing beta               =       0.7000
     number of iterations used =            8  plain     mixing
     Exchange-correlation      = SLA  PW   PBE  PBE ( 1 4 3 4 0)
     EXX-fraction              =        0.00
     nstep                     =           50


     celldm(1)=  10.960412  celldm(2)=   0.000000  celldm(3)=   0.000000
     celldm(4)=   0.000000  celldm(5)=   0.000000  celldm(6)=   0.000000

     crystal axes: (cart. coord. in units of alat)
               a(1) = (   1.000000   0.000000   0.000000 )  
               a(2) = (   0.000000   1.067975   0.000000 )  
               a(3) = (   0.000000   0.000000   4.516251 )  

     reciprocal axes: (cart. coord. in units 2 pi/alat)
               b(1) = (  1.000000  0.000000  0.000000 )  
               b(2) = (  0.000000  0.936351  0.000000 )  
               b(3) = (  0.000000  0.000000  0.221423 )  


     PseudoPot. # 1 for O  read from file:
     /home/camp/zhonxu/pseudo/o_pbe_v1.01.uspp.F.UPF
     MD5 check sum: 2bcb18d16ea4b960afae9ec6d52f22d2
     Pseudo is Ultrasoft + core correction, Zval =  6.0
     Generated by new atomic code, or converted to UPF format
     Using radial grid of  737 points,  5 beta functions with: 
                l(1) =   0
                l(2) =   0
                l(3) =   1
                l(4) =   1
                l(5) =   2
     Q(r) pseudized with  8 coefficients,  rinner =    0.900   0.900   0.900
                                                       0.900   0.900

     PseudoPot. # 2 for Cr read from file:
     /home/camp/zhonxu/pseudo/cr_pbe_v1.uspp.F.UPF
     MD5 check sum: 68b6f918d1762dccfb11451fe85b0e0e
     Pseudo is Ultrasoft + core correction, Zval = 14.0
     Generated by new atomic code, or converted to UPF format
     Using radial grid of  857 points,  6 beta functions with: 
                l(1) =   0
                l(2) =   0
                l(3) =   1
                l(4) =   1
                l(5) =   2
                l(6) =   2
     Q(r) pseudized with  6 coefficients,  rinner =    1.000   1.000   1.000
                                                       1.000   1.000

     PseudoPot. # 3 for H  read from file:
     /home/camp/zhonxu/pseudo/h_pbe_v1.uspp.F.UPF
     MD5 check sum: 3408e3ff4ec8b0a4e358431e7e038a48
     Pseudo is Ultrasoft, Zval =  1.0
     Generated by new atomic code, or converted to UPF format
     Using radial grid of  615 points,  2 beta functions with: 
                l(1) =   0
                l(2) =   0
     Q(r) pseudized with  8 coefficients,  rinner =    0.700

     atomic species   valence    mass     pseudopotential
        O0             6.00    15.99940     O ( 1.00)
        Cr1           14.00    51.99600     Cr( 1.00)
        H2             1.00     1.00794     H ( 1.00)

     Starting magnetic structure 
     atomic species   magnetization
        O0           0.000
        Cr1          0.600
        H2           0.000


     Simplified LDA+U calculation (l_max = 2) with parameters (eV):
     atomic species    L          U    alpha       J0     beta
        Cr1            2     1.5000   0.0000   0.0000   0.0000



     No symmetry found



   Cartesian axes

     site n.     atom                  positions (alat units)
         1           O0  tau(   1) = (   0.0000000   0.0000000   1.7057880  )
         2           O0  tau(   2) = (   0.0000000   0.5339875   1.8101134  )
         3           Cr1 tau(   3) = (   0.2500000   0.5339875   2.0412099  )
         4           Cr1 tau(   4) = (   0.0000000   0.0000000   2.0263515  )
         5           O0  tau(   5) = (   0.2500000   0.8543801   2.0311839  )
         6           O0  tau(   6) = (   0.2500000   0.2135950   2.0319065  )
         7           O0  tau(   7) = (   0.0000000   0.5339875   2.2504478  )
         8           O0  tau(   8) = (   0.0000000   0.0000000   2.3617283  )
         9           Cr1 tau(   9) = (   0.2500000   0.0000000   2.5571464  )
        10           Cr1 tau(  10) = (   0.0000000   0.5339875   2.5545270  )
        11           O0  tau(  11) = (   0.2500000   0.7475825   2.5883086  )
        12           O0  tau(  12) = (   0.2500000   0.3203925   2.5986508  )
        13           O0  tau(  13) = (   0.0000000   0.0000000   2.7891463  )
        14           O0  tau(  14) = (   0.5000000   0.0000000   1.7052460  )
        15           O0  tau(  15) = (   0.5000000   0.5339875   1.8091650  )
        16           Cr1 tau(  16) = (   0.7500000   0.5339875   2.0419325  )
        17           Cr1 tau(  17) = (   0.5000000   0.0000000   2.0263063  )
        18           O0  tau(  18) = (   0.7500000   0.8543801   2.0310484  )
        19           O0  tau(  19) = (   0.7500000   0.2135950   2.0321774  )
        20           O0  tau(  20) = (   0.5000000   0.5339875   2.2541963  )
        21           O0  tau(  21) = (   0.5000000   0.0000000   2.3617283  )
        22           Cr1 tau(  22) = (   0.7500000   0.0000000   2.6331549  )
        23           Cr1 tau(  23) = (   0.5000000   0.5339875   2.6097156  )
        24           O0  tau(  24) = (   0.7500000   0.7475825   2.5944507  )
        25           O0  tau(  25) = (   0.7500000   0.3203925   2.6044767  )
        26           O0  tau(  26) = (   0.5000000   0.0000000   2.7840880  )
        27           H2  tau(  27) = (  -0.0006600   0.6808768   1.7228142  )
        28           H2  tau(  28) = (   0.4998000   0.6828846   1.7250724  )
        29           H2  tau(  29) = (   0.1568300   0.0328936   1.6463090  )
        30           H2  tau(  30) = (   0.6565800   0.0331499   1.6456315  )
        31           O0  tau(  31) = (   0.4998600   0.5715162   2.9254467  )
        32           O0  tau(  32) = (   0.5002200   0.3713883   3.0709603  )
        33           H2  tau(  33) = (   0.4998900   0.4494573   3.2222096  )

     number of k points=    20  Methfessel-Paxton smearing, width (Ry)=  0.0100
                       cart. coord. in units 2pi/alat
        k(    1) = (   0.0000000   0.0000000   0.0000000), wk =   0.0625000
        k(    2) = (   0.0000000   0.2340879   0.0000000), wk =   0.1250000
        k(    3) = (   0.0000000  -0.4681757   0.0000000), wk =   0.0625000
        k(    4) = (   0.2500000   0.0000000   0.0000000), wk =   0.1250000
        k(    5) = (   0.2500000   0.2340879   0.0000000), wk =   0.1250000
        k(    6) = (   0.2500000  -0.4681757   0.0000000), wk =   0.1250000
        k(    7) = (  -0.5000000   0.0000000   0.0000000), wk =   0.0625000
        k(    8) = (  -0.5000000   0.2340879   0.0000000), wk =   0.1250000
        k(    9) = (  -0.5000000  -0.4681757   0.0000000), wk =   0.0625000
        k(   10) = (  -0.2500000   0.2340879   0.0000000), wk =   0.1250000
        k(   11) = (   0.0000000   0.0000000   0.0000000), wk =   0.0625000
        k(   12) = (   0.0000000   0.2340879   0.0000000), wk =   0.1250000
        k(   13) = (   0.0000000  -0.4681757   0.0000000), wk =   0.0625000
        k(   14) = (   0.2500000   0.0000000   0.0000000), wk =   0.1250000
        k(   15) = (   0.2500000   0.2340879   0.0000000), wk =   0.1250000
        k(   16) = (   0.2500000  -0.4681757   0.0000000), wk =   0.1250000
        k(   17) = (  -0.5000000   0.0000000   0.0000000), wk =   0.0625000
        k(   18) = (  -0.5000000   0.2340879   0.0000000), wk =   0.1250000
        k(   19) = (  -0.5000000  -0.4681757   0.0000000), wk =   0.0625000
        k(   20) = (  -0.2500000   0.2340879   0.0000000), wk =   0.1250000

     Dense  grid:  1198649 G-vectors     FFT dimensions: (  80,  90, 360)

     Smooth grid:   216969 G-vectors     FFT dimensions: (  45,  48, 200)

     Largest allocated arrays     est. size (Mb)     dimensions
        Kohn-Sham Wavefunctions        36.03 Mb     (   6884,  343)
        Atomic wavefunctions           17.33 Mb     (   6884,  165)
        NL pseudopotentials            43.49 Mb     (   6884,  414)
        Each V/rho on FFT grid         19.78 Mb     ( 648000,   2)
        Each G-vector array             2.29 Mb     ( 299662)
        G-vector shells                 0.99 Mb     ( 129803)
     Largest temporary arrays     est. size (Mb)     dimensions
        Auxiliary wavefunctions       144.12 Mb     (   6884, 1372)
        Each subspace H/S matrix       28.72 Mb     (1372,1372)
        Each <psi_i|beta_j> matrix      2.17 Mb     (    414,  343)
        Arrays for rho mixing          79.10 Mb     ( 648000,   8)

     Check: negative/imaginary core charge=   -0.000012    0.000000

     Initial potential from superposition of free atoms
     Check: negative starting charge=(component1):   -0.001299
     Check: negative starting charge=(component2):   -0.000449

     starting charge  228.99983, renormalised to  237.00000

     negative rho (up, down):  0.134E-02 0.465E-03
     Number of +U iterations with fixed ns =  0
     Starting occupations:
 --- enter write_ns ---
 LDA+U parameters:
U( 2)     =  1.50000000
alpha( 2) =  0.00000000
atom    3   Tr[ns(na)] (up, down, total) =   5.00000  0.00000  5.00000
   spin  1
    eigenvalues: 
  1.000  1.000  1.000  1.000  1.000
    eigenvectors:
  1.000  0.000  0.000  0.000  0.000
  0.000  1.000  0.000  0.000  0.000
  0.000  0.000  1.000  0.000  0.000
  0.000  0.000  0.000  1.000  0.000
  0.000  0.000  0.000  0.000  1.000
    occupations:
  1.000  0.000  0.000  0.000  0.000
  0.000  1.000  0.000  0.000  0.000
  0.000  0.000  1.000  0.000  0.000
  0.000  0.000  0.000  1.000  0.000
  0.000  0.000  0.000  0.000  1.000
   spin  2
    eigenvalues: 
  0.000  0.000  0.000  0.000  0.000
    eigenvectors:
  1.000  0.000  0.000  0.000  0.000
  0.000  1.000  0.000  0.000  0.000
  0.000  0.000  1.000  0.000  0.000
  0.000  0.000  0.000  1.000  0.000
  0.000  0.000  0.000  0.000  1.000
    occupations:
  0.000  0.000  0.000  0.000  0.000
  0.000  0.000  0.000  0.000  0.000
  0.000  0.000  0.000  0.000  0.000
  0.000  0.000  0.000  0.000  0.000
  0.000  0.000  0.000  0.000  0.000
atomic mag. moment =     5.000000
atom    4   Tr[ns(na)] (up, down, total) =   5.00000  0.00000  5.00000
   spin  1
    eigenvalues: 
  1.000  1.000  1.000  1.000  1.000
    eigenvectors:
  1.000  0.000  0.000  0.000  0.000
  0.000  1.000  0.000  0.000  0.000
  0.000  0.000  1.000  0.000  0.000
  0.000  0.000  0.000  1.000  0.000
  0.000  0.000  0.000  0.000  1.000
    occupations:
  1.000  0.000  0.000  0.000  0.000
  0.000  1.000  0.000  0.000  0.000
  0.000  0.000  1.000  0.000  0.000
  0.000  0.000  0.000  1.000  0.000
  0.000  0.000  0.000  0.000  1.000
   spin  2
    eigenvalues: 
  0.000  0.000  0.000  0.000  0.000
    eigenvectors:
  1.000  0.000  0.000  0.000  0.000
  0.000  1.000  0.000  0.000  0.000
  0.000  0.000  1.000  0.000  0.000
  0.000  0.000  0.000  1.000  0.000
  0.000  0.000  0.000  0.000  1.000
    occupations:
  0.000  0.000  0.000  0.000  0.000
  0.000  0.000  0.000  0.000  0.000
  0.000  0.000  0.000  0.000  0.000
  0.000  0.000  0.000  0.000  0.000
  0.000  0.000  0.000  0.000  0.000
atomic mag. moment =     5.000000
atom    9   Tr[ns(na)] (up, down, total) =   5.00000  0.00000  5.00000
   spin  1
    eigenvalues: 
  1.000  1.000  1.000  1.000  1.000
    eigenvectors:
  1.000  0.000  0.000  0.000  0.000
  0.000  1.000  0.000  0.000  0.000
  0.000  0.000  1.000  0.000  0.000
  0.000  0.000  0.000  1.000  0.000
  0.000  0.000  0.000  0.000  1.000
    occupations:
  1.000  0.000  0.000  0.000  0.000
  0.000  1.000  0.000  0.000  0.000
  0.000  0.000  1.000  0.000  0.000
  0.000  0.000  0.000  1.000  0.000
  0.000  0.000  0.000  0.000  1.000
   spin  2
    eigenvalues: 
  0.000  0.000  0.000  0.000  0.000
    eigenvectors:
  1.000  0.000  0.000  0.000  0.000
  0.000  1.000  0.000  0.000  0.000
  0.000  0.000  1.000  0.000  0.000
  0.000  0.000  0.000  1.000  0.000
  0.000  0.000  0.000  0.000  1.000
    occupations:
  0.000  0.000  0.000  0.000  0.000
  0.000  0.000  0.000  0.000  0.000
  0.000  0.000  0.000  0.000  0.000
  0.000  0.000  0.000  0.000  0.000
  0.000  0.000  0.000  0.000  0.000
atomic mag. moment =     5.000000
atom   10   Tr[ns(na)] (up, down, total) =   5.00000  0.00000  5.00000
   spin  1
    eigenvalues: 
  1.000  1.000  1.000  1.000  1.000
    eigenvectors:
  1.000  0.000  0.000  0.000  0.000
  0.000  1.000  0.000  0.000  0.000
  0.000  0.000  1.000  0.000  0.000
  0.000  0.000  0.000  1.000  0.000
  0.000  0.000  0.000  0.000  1.000
    occupations:
  1.000  0.000  0.000  0.000  0.000
  0.000  1.000  0.000  0.000  0.000
  0.000  0.000  1.000  0.000  0.000
  0.000  0.000  0.000  1.000  0.000
  0.000  0.000  0.000  0.000  1.000
   spin  2
    eigenvalues: 
  0.000  0.000  0.000  0.000  0.000
    eigenvectors:
  1.000  0.000  0.000  0.000  0.000
  0.000  1.000  0.000  0.000  0.000
  0.000  0.000  1.000  0.000  0.000
  0.000  0.000  0.000  1.000  0.000
  0.000  0.000  0.000  0.000  1.000
    occupations:
  0.000  0.000  0.000  0.000  0.000
  0.000  0.000  0.000  0.000  0.000
  0.000  0.000  0.000  0.000  0.000
  0.000  0.000  0.000  0.000  0.000
  0.000  0.000  0.000  0.000  0.000
atomic mag. moment =     5.000000
atom   16   Tr[ns(na)] (up, down, total) =   5.00000  0.00000  5.00000
   spin  1
    eigenvalues: 
  1.000  1.000  1.000  1.000  1.000
    eigenvectors:
  1.000  0.000  0.000  0.000  0.000
  0.000  1.000  0.000  0.000  0.000
  0.000  0.000  1.000  0.000  0.000
  0.000  0.000  0.000  1.000  0.000
  0.000  0.000  0.000  0.000  1.000
    occupations:
  1.000  0.000  0.000  0.000  0.000
  0.000  1.000  0.000  0.000  0.000
  0.000  0.000  1.000  0.000  0.000
  0.000  0.000  0.000  1.000  0.000
  0.000  0.000  0.000  0.000  1.000
   spin  2
    eigenvalues: 
  0.000  0.000  0.000  0.000  0.000
    eigenvectors:
  1.000  0.000  0.000  0.000  0.000
  0.000  1.000  0.000  0.000  0.000
  0.000  0.000  1.000  0.000  0.000
  0.000  0.000  0.000  1.000  0.000
  0.000  0.000  0.000  0.000  1.000
    occupations:
  0.000  0.000  0.000  0.000  0.000
  0.000  0.000  0.000  0.000  0.000
  0.000  0.000  0.000  0.000  0.000
  0.000  0.000  0.000  0.000  0.000
  0.000  0.000  0.000  0.000  0.000
atomic mag. moment =     5.000000
atom   17   Tr[ns(na)] (up, down, total) =   5.00000  0.00000  5.00000
   spin  1
    eigenvalues: 
  1.000  1.000  1.000  1.000  1.000
    eigenvectors:
  1.000  0.000  0.000  0.000  0.000
  0.000  1.000  0.000  0.000  0.000
  0.000  0.000  1.000  0.000  0.000
  0.000  0.000  0.000  1.000  0.000
  0.000  0.000  0.000  0.000  1.000
    occupations:
  1.000  0.000  0.000  0.000  0.000
  0.000  1.000  0.000  0.000  0.000
  0.000  0.000  1.000  0.000  0.000
  0.000  0.000  0.000  1.000  0.000
  0.000  0.000  0.000  0.000  1.000
   spin  2
    eigenvalues: 
  0.000  0.000  0.000  0.000  0.000
    eigenvectors:
  1.000  0.000  0.000  0.000  0.000
  0.000  1.000  0.000  0.000  0.000
  0.000  0.000  1.000  0.000  0.000
  0.000  0.000  0.000  1.000  0.000
  0.000  0.000  0.000  0.000  1.000
    occupations:
  0.000  0.000  0.000  0.000  0.000
  0.000  0.000  0.000  0.000  0.000
  0.000  0.000  0.000  0.000  0.000
  0.000  0.000  0.000  0.000  0.000
  0.000  0.000  0.000  0.000  0.000
atomic mag. moment =     5.000000
atom   22   Tr[ns(na)] (up, down, total) =   5.00000  0.00000  5.00000
   spin  1
    eigenvalues: 
  1.000  1.000  1.000  1.000  1.000
    eigenvectors:
  1.000  0.000  0.000  0.000  0.000
  0.000  1.000  0.000  0.000  0.000
  0.000  0.000  1.000  0.000  0.000
  0.000  0.000  0.000  1.000  0.000
  0.000  0.000  0.000  0.000  1.000
    occupations:
  1.000  0.000  0.000  0.000  0.000
  0.000  1.000  0.000  0.000  0.000
  0.000  0.000  1.000  0.000  0.000
  0.000  0.000  0.000  1.000  0.000
  0.000  0.000  0.000  0.000  1.000
   spin  2
    eigenvalues: 
  0.000  0.000  0.000  0.000  0.000
    eigenvectors:
  1.000  0.000  0.000  0.000  0.000
  0.000  1.000  0.000  0.000  0.000
  0.000  0.000  1.000  0.000  0.000
  0.000  0.000  0.000  1.000  0.000
  0.000  0.000  0.000  0.000  1.000
    occupations:
  0.000  0.000  0.000  0.000  0.000
  0.000  0.000  0.000  0.000  0.000
  0.000  0.000  0.000  0.000  0.000
  0.000  0.000  0.000  0.000  0.000
  0.000  0.000  0.000  0.000  0.000
atomic mag. moment =     5.000000
atom   23   Tr[ns(na)] (up, down, total) =   5.00000  0.00000  5.00000
   spin  1
    eigenvalues: 
  1.000  1.000  1.000  1.000  1.000
    eigenvectors:
  1.000  0.000  0.000  0.000  0.000
  0.000  1.000  0.000  0.000  0.000
  0.000  0.000  1.000  0.000  0.000
  0.000  0.000  0.000  1.000  0.000
  0.000  0.000  0.000  0.000  1.000
    occupations:
  1.000  0.000  0.000  0.000  0.000
  0.000  1.000  0.000  0.000  0.000
  0.000  0.000  1.000  0.000  0.000
  0.000  0.000  0.000  1.000  0.000
  0.000  0.000  0.000  0.000  1.000
   spin  2
    eigenvalues: 
  0.000  0.000  0.000  0.000  0.000
    eigenvectors:
  1.000  0.000  0.000  0.000  0.000
  0.000  1.000  0.000  0.000  0.000
  0.000  0.000  1.000  0.000  0.000
  0.000  0.000  0.000  1.000  0.000
  0.000  0.000  0.000  0.000  1.000
    occupations:
  0.000  0.000  0.000  0.000  0.000
  0.000  0.000  0.000  0.000  0.000
  0.000  0.000  0.000  0.000  0.000
  0.000  0.000  0.000  0.000  0.000
  0.000  0.000  0.000  0.000  0.000
atomic mag. moment =     5.000000
N of occupied +U levels =  40.0000000
 --- exit write_ns ---
 Atomic wfc used for LDA+U Projector are NOT orthogonalized
     Starting wfc are  165 randomized atomic wfcs

     total cpu time spent up to now is      121.5 secs

     per-process dynamical memory:   428.0 Mb

     Self-consistent Calculation

     iteration #  1     ecut=    40.00 Ry     beta=0.70
     Davidson diagonalization with overlap
     ethr =  1.00E-02,  avg # of iterations =  5.3
 --- enter write_ns ---
 LDA+U parameters:
U( 2)     =  1.50000000
alpha( 2) =  0.00000000
atom    3   Tr[ns(na)] (up, down, total) =   3.86421  0.67300  4.53721
   spin  1
    eigenvalues: 
  0.559  0.578  0.816  0.943  0.968
    eigenvectors:
  0.242  0.001  0.007  0.744  0.006
  0.003  0.994  0.000  0.000  0.002
  0.000  0.000  0.985  0.012  0.003
  0.754  0.002  0.003  0.238  0.002
  0.000  0.002  0.004  0.006  0.987
    occupations:
  0.849  0.000  0.012 -0.164 -0.003
  0.000  0.579 -0.001  0.001 -0.019
  0.012 -0.001  0.818 -0.005  0.010
 -0.164  0.001 -0.005  0.652  0.001
 -0.003 -0.019  0.010  0.001  0.966
   spin  2
    eigenvalues: 
  0.070  0.079  0.081  0.212  0.230
    eigenvectors:
  0.616  0.081  0.119  0.001  0.183
  0.000  0.001  0.000  0.995  0.004
  0.239  0.249  0.512  0.000  0.000
  0.144  0.016  0.023  0.003  0.813
  0.001  0.652  0.346  0.001  0.000
    occupations:
  0.102 -0.001 -0.003  0.061  0.000
 -0.001  0.212  0.000 -0.001  0.005
 -0.003  0.000  0.078  0.004 -0.001
  0.061 -0.001  0.004  0.201 -0.000
  0.000  0.005 -0.001 -0.000  0.080
atomic mag. moment =     3.191211
atom    4   Tr[ns(na)] (up, down, total) =   3.64025  0.70378  4.34403
   spin  1
    eigenvalues: 
  0.492  0.602  0.761  0.817  0.968
    eigenvectors:
  0.000  0.880  0.118  0.000  0.002
  0.000  0.112  0.852  0.036  0.000
  0.000  0.006  0.030  0.963  0.002
  0.000  0.002  0.000  0.001  0.996
  1.000  0.000  0.000  0.000  0.000
    occupations:
  0.622  0.050  0.012  0.016 -0.000
  0.050  0.745 -0.014 -0.005  0.000
  0.012 -0.014  0.815 -0.007 -0.000
  0.016 -0.005 -0.007  0.967 -0.000
 -0.000  0.000 -0.000 -0.000  0.492
   spin  2
    eigenvalues: 
  0.069  0.084  0.099  0.210  0.241
    eigenvectors:
  0.009  0.002  0.000  0.000  0.989
  0.004  0.899  0.094  0.000  0.003
  0.001  0.094  0.906  0.000  0.000
  0.987  0.005  0.000  0.000  0.008
  0.000  0.000  0.000  1.000  0.000
    occupations:
  0.239  0.008  0.002 -0.015  0.000
  0.008  0.086 -0.004  0.000 -0.000
  0.002 -0.004  0.098  0.000  0.000
 -0.015  0.000  0.000  0.070  0.000
  0.000 -0.000  0.000  0.000  0.210
atomic mag. moment =     2.936467
atom    9   Tr[ns(na)] (up, down, total) =   4.02098  0.73559  4.75657
   spin  1
    eigenvalues: 
  0.579  0.588  0.924  0.956  0.974
    eigenvectors:
  0.185  0.001  0.000  0.001  0.813
  0.008  0.992  0.000  0.000  0.000
  0.000  0.000  0.208  0.790  0.001
  0.806  0.007  0.000  0.001  0.186
  0.000  0.000  0.792  0.208  0.000
    occupations:
  0.901  0.001 -0.004 -0.154 -0.000
  0.001  0.588 -0.001  0.001  0.000
 -0.004 -0.001  0.949 -0.007  0.013
 -0.154  0.001 -0.007  0.653  0.001
 -0.000  0.000  0.013  0.001  0.930
   spin  2
    eigenvalues: 
  0.087  0.089  0.094  0.231  0.234
    eigenvectors:
  0.843  0.013  0.000  0.104  0.040
  0.000  0.000  0.000  0.288  0.712
  0.014  0.977  0.009  0.000  0.000
  0.143  0.001  0.000  0.608  0.248
  0.000  0.009  0.991  0.000  0.000
    occupations:
  0.108  0.000  0.001  0.051  0.000
  0.000  0.234 -0.000 -0.002  0.000
  0.001 -0.000  0.089  0.003 -0.000
  0.051 -0.002  0.003  0.211 -0.000
  0.000  0.000 -0.000 -0.000  0.094
atomic mag. moment =     3.285385
atom   10   Tr[ns(na)] (up, down, total) =   4.14746  0.61592  4.76338
   spin  1
    eigenvalues: 
  0.566  0.636  0.979  0.982  0.983
    eigenvectors:
  0.000  0.996  0.001  0.000  0.003
  0.000  0.000  0.774  0.006  0.220
  0.001  0.000  0.000  0.975  0.023
  0.000  0.004  0.225  0.018  0.753
  0.999  0.000  0.000  0.001  0.000
    occupations:
  0.638  0.002  0.006  0.021  0.000
  0.002  0.980 -0.000  0.002 -0.004
  0.006 -0.000  0.982 -0.000 -0.014
  0.021  0.002 -0.000  0.981  0.001
  0.000 -0.004 -0.014  0.001  0.567
   spin  2
    eigenvalues: 
  0.069  0.077  0.085  0.173  0.211
    eigenvectors:
  0.017  0.000  0.000  0.983  0.000
  0.002  0.001  0.997  0.000  0.000
  0.006  0.994  0.000  0.000  0.000
  0.975  0.006  0.002  0.017  0.000
  0.000  0.000  0.000  0.000  0.999
    occupations:
  0.172 -0.000 -0.001 -0.014  0.000
 -0.000  0.085 -0.000  0.001  0.003
 -0.001 -0.000  0.077 -0.001  0.002
 -0.014  0.001 -0.001  0.071 -0.000
  0.000  0.003  0.002 -0.000  0.211
atomic mag. moment =     3.531535
atom   16   Tr[ns(na)] (up, down, total) =   3.85741  0.67304  4.53044
   spin  1
    eigenvalues: 
  0.559  0.576  0.813  0.942  0.967
    eigenvectors:
  0.239  0.001  0.008  0.739  0.013
  0.004  0.993  0.000  0.000  0.002
  0.000  0.000  0.988  0.011  0.001
  0.757  0.003  0.004  0.233  0.004
  0.000  0.002  0.000  0.017  0.980
    occupations:
  0.849  0.000  0.013 -0.163  0.003
  0.000  0.577  0.000 -0.002 -0.019
  0.013  0.000  0.814 -0.005  0.003
 -0.163 -0.002 -0.005  0.651 -0.001
  0.003 -0.019  0.003 -0.001  0.966
   spin  2
    eigenvalues: 
  0.070  0.079  0.081  0.212  0.230
    eigenvectors:
  0.640  0.073  0.103  0.001  0.183
  0.000  0.001  0.000  0.995  0.004
  0.210  0.273  0.517  0.000  0.000
  0.149  0.014  0.020  0.003  0.813
  0.001  0.639  0.359  0.001  0.000
    occupations:
  0.101  0.001 -0.003  0.061 -0.000
  0.001  0.212 -0.000  0.001  0.004
 -0.003 -0.000  0.078  0.003  0.001
  0.061  0.001  0.003  0.201  0.000
 -0.000  0.004  0.001  0.000  0.080
atomic mag. moment =     3.184370
atom   17   Tr[ns(na)] (up, down, total) =   3.62472  0.70063  4.32535
   spin  1
    eigenvalues: 
  0.489  0.597  0.758  0.813  0.967
    eigenvectors:
  0.000  0.870  0.128  0.000  0.002
  0.000  0.121  0.836  0.043  0.000
  0.000  0.007  0.035  0.956  0.001
  0.000  0.003  0.000  0.001  0.996
  1.000  0.000  0.000  0.000  0.000
    occupations:
  0.619  0.052  0.013  0.017  0.000
  0.052  0.741 -0.016 -0.007  0.000
  0.013 -0.016  0.810 -0.007  0.001
  0.017 -0.007 -0.007  0.966  0.000
  0.000  0.000  0.001  0.000  0.489
   spin  2
    eigenvalues: 
  0.068  0.084  0.098  0.210  0.241
    eigenvectors:
  0.009  0.002  0.000  0.000  0.989
  0.007  0.893  0.097  0.000  0.003
  0.001  0.096  0.903  0.000  0.000
  0.984  0.009  0.000  0.000  0.008
  0.000  0.000  0.000  1.000  0.000
    occupations:
  0.239  0.008  0.002 -0.015  0.000
  0.008  0.086 -0.004  0.001 -0.000
  0.002 -0.004  0.097  0.000  0.000
 -0.015  0.001  0.000  0.070  0.000
  0.000 -0.000  0.000  0.000  0.210
atomic mag. moment =     2.924093
atom   22   Tr[ns(na)] (up, down, total) =   3.44829  0.85541  4.30370
   spin  1
    eigenvalues: 
  0.577  0.588  0.676  0.751  0.856
    eigenvectors:
  0.043  0.020  0.000  0.923  0.013
  0.443  0.556  0.000  0.001  0.000
  0.000  0.000  0.004  0.014  0.982
  0.514  0.424  0.000  0.061  0.001
  0.000  0.000  0.996  0.000  0.004
    occupations:
  0.741  0.007 -0.012 -0.041 -0.002
  0.007  0.583  0.001  0.004  0.001
 -0.012  0.001  0.854  0.003  0.012
 -0.041  0.004  0.003  0.593  0.001
 -0.002  0.001  0.012  0.001  0.677
   spin  2
    eigenvalues: 
  0.091  0.128  0.133  0.245  0.258
    eigenvectors:
  0.000  0.988  0.004  0.001  0.008
  0.000  0.000  0.000  0.961  0.039
  0.998  0.000  0.002  0.000  0.000
  0.000  0.008  0.000  0.038  0.954
  0.002  0.004  0.994  0.000  0.000
    occupations:
  0.129 -0.001  0.000  0.012 -0.000
 -0.001  0.246  0.000  0.003  0.000
  0.000  0.000  0.091  0.002  0.002
  0.012  0.003  0.002  0.256  0.000
 -0.000  0.000  0.002  0.000  0.133
atomic mag. moment =     2.592884
atom   23   Tr[ns(na)] (up, down, total) =   3.91551  0.75552  4.67103
   spin  1
    eigenvalues: 
  0.503  0.626  0.864  0.959  0.964
    eigenvectors:
  0.000  0.950  0.001  0.007  0.042
  0.000  0.001  0.999  0.000  0.000
  0.002  0.043  0.000  0.001  0.955
  0.000  0.006  0.000  0.993  0.002
  0.998  0.000  0.000  0.000  0.001
    occupations:
  0.642 -0.006  0.069  0.024  0.002
 -0.006  0.864  0.002  0.001 -0.007
  0.069  0.002  0.948 -0.005  0.017
  0.024  0.001 -0.005  0.957 -0.001
  0.002 -0.007  0.017 -0.001  0.504
   spin  2
    eigenvalues: 
  0.067  0.075  0.157  0.209  0.247
    eigenvectors:
  0.003  0.002  0.000  0.000  0.995
  0.000  0.000  0.994  0.005  0.000
  0.214  0.786  0.000  0.000  0.000
  0.783  0.212  0.000  0.000  0.005
  0.000  0.000  0.005  0.994  0.000
    occupations:
  0.246  0.000 -0.001 -0.012 -0.000
  0.000  0.158 -0.000 -0.000 -0.004
 -0.001 -0.000  0.073  0.004 -0.002
 -0.012 -0.000  0.004  0.069  0.000
 -0.000 -0.004 -0.002  0.000  0.209
atomic mag. moment =     3.159994
N of occupied +U levels =  36.2316974
 --- exit write_ns ---

     negative rho (up, down):  0.289E-02 0.107E-02

     total cpu time spent up to now is      606.1 secs

     total energy              =   -2047.54623436 Ry
     Harris-Foulkes estimate   =   -2055.10032345 Ry
     estimated scf accuracy    <      18.95125958 Ry

     total magnetization       =    15.00 Bohr mag/cell
     absolute magnetization    =    34.63 Bohr mag/cell

     iteration #  2     ecut=    40.00 Ry     beta=0.70
     Davidson diagonalization with overlap
     ethr =  8.00E-03,  avg # of iterations =  5.3

     total cpu time spent up to now is      962.0 secs

     total energy              =   -1947.80477383 Ry
     Harris-Foulkes estimate   =   -2124.66928445 Ry
     estimated scf accuracy    <    2672.16083385 Ry

     total magnetization       =    15.00 Bohr mag/cell
     absolute magnetization    =    17.28 Bohr mag/cell

     iteration #  3     ecut=    40.00 Ry     beta=0.70
     Davidson diagonalization with overlap
     ethr =  8.00E-03,  avg # of iterations =  4.0

     negative rho (up, down):  0.122E-07 0.000E+00

     total cpu time spent up to now is     1341.7 secs

     total energy              =   -2047.69331972 Ry
     Harris-Foulkes estimate   =   -2066.53787283 Ry
     estimated scf accuracy    <      73.15203401 Ry

     total magnetization       =    15.00 Bohr mag/cell
     absolute magnetization    =    24.70 Bohr mag/cell

     iteration #  4     ecut=    40.00 Ry     beta=0.70
     Davidson diagonalization with overlap
     ethr =  8.00E-03,  avg # of iterations =  3.0

     negative rho (up, down):  0.663E-06 0.000E+00

     total cpu time spent up to now is     1608.1 secs

     total energy              =   -2053.75468296 Ry
     Harris-Foulkes estimate   =   -2062.02117647 Ry
     estimated scf accuracy    <      50.31189673 Ry

     total magnetization       =    15.00 Bohr mag/cell
     absolute magnetization    =    19.10 Bohr mag/cell

     iteration #  5     ecut=    40.00 Ry     beta=0.70
     Davidson diagonalization with overlap
     ethr =  8.00E-03,  avg # of iterations =  3.5

     total cpu time spent up to now is     1872.1 secs

     total energy              =   -2050.24677341 Ry
     Harris-Foulkes estimate   =   -2062.69969561 Ry
     estimated scf accuracy    <     195.97392376 Ry

     total magnetization       =    15.00 Bohr mag/cell
     absolute magnetization    =    18.88 Bohr mag/cell

     iteration #  6     ecut=    40.00 Ry     beta=0.70
     Davidson diagonalization with overlap
     ethr =  8.00E-03,  avg # of iterations =  3.0

     total cpu time spent up to now is     2145.7 secs

     total energy              =   -2057.04483052 Ry
     Harris-Foulkes estimate   =   -2059.28350050 Ry
     estimated scf accuracy    <      18.42323366 Ry

     total magnetization       =    15.00 Bohr mag/cell
     absolute magnetization    =    23.40 Bohr mag/cell

     iteration #  7     ecut=    40.00 Ry     beta=0.70
     Davidson diagonalization with overlap
     ethr =  7.77E-03,  avg # of iterations =  1.0

     total cpu time spent up to now is     2381.7 secs

     total energy              =   -2057.28781668 Ry
     Harris-Foulkes estimate   =   -2059.53522138 Ry
     estimated scf accuracy    <      14.59960890 Ry

     total magnetization       =    15.00 Bohr mag/cell
     absolute magnetization    =    22.09 Bohr mag/cell

     iteration #  8     ecut=    40.00 Ry     beta=0.70
     Davidson diagonalization with overlap
     ethr =  6.16E-03,  avg # of iterations =  1.0

     total cpu time spent up to now is     2620.5 secs

     total energy              =   -2057.59340655 Ry
     Harris-Foulkes estimate   =   -2059.22834520 Ry
     estimated scf accuracy    <      12.70686724 Ry

     total magnetization       =    15.00 Bohr mag/cell
     absolute magnetization    =    19.18 Bohr mag/cell

     iteration #  9     ecut=    40.00 Ry     beta=0.70
     Davidson diagonalization with overlap
     ethr =  5.36E-03,  avg # of iterations =  1.0

     total cpu time spent up to now is     2857.6 secs

     total energy              =   -2058.17240333 Ry
     Harris-Foulkes estimate   =   -2058.62313785 Ry
     estimated scf accuracy    <       4.18480460 Ry

     total magnetization       =    15.00 Bohr mag/cell
     absolute magnetization    =    19.96 Bohr mag/cell

     iteration # 10     ecut=    40.00 Ry     beta=0.70
     Davidson diagonalization with overlap
     ethr =  1.77E-03,  avg # of iterations =  1.0

     total cpu time spent up to now is     3097.0 secs

     total energy              =   -2058.29810701 Ry
     Harris-Foulkes estimate   =   -2058.60704691 Ry
     estimated scf accuracy    <       2.70014345 Ry

     total magnetization       =    15.00 Bohr mag/cell
     absolute magnetization    =    19.61 Bohr mag/cell

     iteration # 11     ecut=    40.00 Ry     beta=0.70
     Davidson diagonalization with overlap
     ethr =  1.14E-03,  avg # of iterations =  1.0

     negative rho (up, down):  0.163E-05 0.000E+00

     total cpu time spent up to now is     3332.4 secs

     total energy              =   -2058.14965882 Ry
     Harris-Foulkes estimate   =   -2058.51714955 Ry
     estimated scf accuracy    <       1.01390727 Ry

     total magnetization       =    15.00 Bohr mag/cell
     absolute magnetization    =    21.27 Bohr mag/cell

     iteration # 12     ecut=    40.00 Ry     beta=0.70
     Davidson diagonalization with overlap
     ethr =  4.28E-04,  avg # of iterations =  7.0

     negative rho (up, down):  0.129E-04 0.000E+00

     total cpu time spent up to now is     3684.7 secs

     total energy              =   -2057.95461684 Ry
     Harris-Foulkes estimate   =   -2058.50591207 Ry
     estimated scf accuracy    <       2.82244491 Ry

     total magnetization       =    15.00 Bohr mag/cell
     absolute magnetization    =    19.73 Bohr mag/cell

     iteration # 13     ecut=    40.00 Ry     beta=0.70
     Davidson diagonalization with overlap
     ethr =  4.28E-04,  avg # of iterations =  3.5

     negative rho (up, down):  0.398E-04 0.754E-08

     total cpu time spent up to now is     3940.0 secs

     total energy              =   -2058.17028523 Ry
     Harris-Foulkes estimate   =   -2058.39824709 Ry
     estimated scf accuracy    <       1.15015243 Ry

     total magnetization       =    15.00 Bohr mag/cell
     absolute magnetization    =    20.44 Bohr mag/cell

     iteration # 14     ecut=    40.00 Ry     beta=0.70
     Davidson diagonalization with overlap
     ethr =  4.28E-04,  avg # of iterations =  1.3

     negative rho (up, down):  0.206E-03 0.903E-07

     total cpu time spent up to now is     4167.9 secs

     total energy              =   -2058.22228387 Ry
     Harris-Foulkes estimate   =   -2058.34403245 Ry
     estimated scf accuracy    <       0.64873155 Ry

     total magnetization       =    15.00 Bohr mag/cell
     absolute magnetization    =    20.98 Bohr mag/cell

     iteration # 15     ecut=    40.00 Ry     beta=0.70
     Davidson diagonalization with overlap
     ethr =  2.74E-04,  avg # of iterations =  1.4

     negative rho (up, down):  0.107E-02 0.233E-05

     total cpu time spent up to now is     4396.9 secs

     total energy              =   -2058.24230579 Ry
     Harris-Foulkes estimate   =   -2058.34345864 Ry
     estimated scf accuracy    <       0.67287497 Ry

     total magnetization       =    15.00 Bohr mag/cell
     absolute magnetization    =    20.14 Bohr mag/cell

     iteration # 16     ecut=    40.00 Ry     beta=0.70
     Davidson diagonalization with overlap
     ethr =  2.74E-04,  avg # of iterations =  3.4

     negative rho (up, down):  0.468E-02 0.173E-03

     total cpu time spent up to now is     4641.6 secs

     total energy              =   -2058.17422492 Ry
     Harris-Foulkes estimate   =   -2058.40222570 Ry
     estimated scf accuracy    <       2.97053553 Ry

     total magnetization       =    15.00 Bohr mag/cell
     absolute magnetization    =    20.16 Bohr mag/cell

     iteration # 17     ecut=    40.00 Ry     beta=0.70
     Davidson diagonalization with overlap
     ethr =  2.74E-04,  avg # of iterations =  2.6

     negative rho (up, down):  0.417E-02 0.110E-02

     total cpu time spent up to now is     4885.3 secs

     total energy              =   -2058.29485917 Ry
     Harris-Foulkes estimate   =   -2058.31475056 Ry
     estimated scf accuracy    <       0.17664606 Ry

     total magnetization       =    15.00 Bohr mag/cell
     absolute magnetization    =    20.50 Bohr mag/cell

     iteration # 18     ecut=    40.00 Ry     beta=0.70
     Davidson diagonalization with overlap
     ethr =  7.45E-05,  avg # of iterations =  2.3

     negative rho (up, down):  0.682E-02 0.334E-02

     total cpu time spent up to now is     5126.8 secs

     total energy              =   -2058.29833833 Ry
     Harris-Foulkes estimate   =   -2058.31004103 Ry
     estimated scf accuracy    <       0.08809298 Ry

     total magnetization       =    15.00 Bohr mag/cell
     absolute magnetization    =    20.45 Bohr mag/cell

     iteration # 19     ecut=    40.00 Ry     beta=0.70
     Davidson diagonalization with overlap
     ethr =  3.72E-05,  avg # of iterations =  4.0

     negative rho (up, down):  0.440E-02 0.127E-02

     total cpu time spent up to now is     5391.1 secs

     total energy              =   -2058.29981704 Ry
     Harris-Foulkes estimate   =   -2058.31055307 Ry
     estimated scf accuracy    <       0.07100948 Ry

     total magnetization       =    15.00 Bohr mag/cell
     absolute magnetization    =    20.30 Bohr mag/cell

     iteration # 20     ecut=    40.00 Ry     beta=0.70
     Davidson diagonalization with overlap
     ethr =  3.00E-05,  avg # of iterations =  1.1

     negative rho (up, down):  0.415E-02 0.978E-03

     total cpu time spent up to now is     5628.0 secs

     total energy              =   -2058.29771433 Ry
     Harris-Foulkes estimate   =   -2058.31482212 Ry
     estimated scf accuracy    <       0.12288302 Ry

     total magnetization       =    15.00 Bohr mag/cell
     absolute magnetization    =    20.51 Bohr mag/cell

     iteration # 21     ecut=    40.00 Ry     beta=0.70
     Davidson diagonalization with overlap
     ethr =  3.00E-05,  avg # of iterations =  1.0

     negative rho (up, down):  0.459E-02 0.154E-02

     total cpu time spent up to now is     5867.4 secs

     total energy              =   -2058.30571203 Ry
     Harris-Foulkes estimate   =   -2058.30751132 Ry
     estimated scf accuracy    <       0.02012998 Ry

     total magnetization       =    15.00 Bohr mag/cell
     absolute magnetization    =    20.30 Bohr mag/cell

     iteration # 22     ecut=    40.00 Ry     beta=0.70
     Davidson diagonalization with overlap
     ethr =  8.49E-06,  avg # of iterations =  1.4

     negative rho (up, down):  0.479E-02 0.169E-02

     total cpu time spent up to now is     6106.0 secs

     total energy              =   -2058.30515455 Ry
     Harris-Foulkes estimate   =   -2058.30833905 Ry
     estimated scf accuracy    <       0.03465680 Ry

     total magnetization       =    15.00 Bohr mag/cell
     absolute magnetization    =    20.37 Bohr mag/cell

     iteration # 23     ecut=    40.00 Ry     beta=0.70
     Davidson diagonalization with overlap
     ethr =  8.49E-06,  avg # of iterations =  1.0

     negative rho (up, down):  0.471E-02 0.165E-02

     total cpu time spent up to now is     6345.8 secs

     total energy              =   -2058.30622088 Ry
     Harris-Foulkes estimate   =   -2058.30780757 Ry
     estimated scf accuracy    <       0.01020877 Ry

     total magnetization       =    15.00 Bohr mag/cell
     absolute magnetization    =    20.24 Bohr mag/cell

     iteration # 24     ecut=    40.00 Ry     beta=0.70
     Davidson diagonalization with overlap
     ethr =  4.31E-06,  avg # of iterations =  1.1

     negative rho (up, down):  0.464E-02 0.167E-02

     total cpu time spent up to now is     6598.4 secs

     total energy              =   -2058.30692281 Ry
     Harris-Foulkes estimate   =   -2058.30743297 Ry
     estimated scf accuracy    <       0.00387129 Ry

     total magnetization       =    15.00 Bohr mag/cell
     absolute magnetization    =    20.26 Bohr mag/cell

     iteration # 25     ecut=    40.00 Ry     beta=0.70
     Davidson diagonalization with overlap
     ethr =  1.63E-06,  avg # of iterations =  2.4

     negative rho (up, down):  0.474E-02 0.172E-02

     total cpu time spent up to now is     6853.7 secs

     total energy              =   -2058.30639401 Ry
     Harris-Foulkes estimate   =   -2058.30841632 Ry
     estimated scf accuracy    <       0.01284396 Ry

     total magnetization       =    15.00 Bohr mag/cell
     absolute magnetization    =    20.25 Bohr mag/cell

     iteration # 26     ecut=    40.00 Ry     beta=0.70
     Davidson diagonalization with overlap
     ethr =  1.63E-06,  avg # of iterations =  3.0

     negative rho (up, down):  0.468E-02 0.169E-02

     total cpu time spent up to now is     7116.2 secs

     total energy              =   -2058.30707610 Ry
     Harris-Foulkes estimate   =   -2058.30773626 Ry
     estimated scf accuracy    <       0.00323525 Ry

     total magnetization       =    15.00 Bohr mag/cell
     absolute magnetization    =    20.15 Bohr mag/cell

     iteration # 27     ecut=    40.00 Ry     beta=0.70
     Davidson diagonalization with overlap
     ethr =  1.37E-06,  avg # of iterations =  4.4

     negative rho (up, down):  0.474E-02 0.168E-02

     total cpu time spent up to now is     7397.7 secs

     total energy              =   -2058.30640255 Ry
     Harris-Foulkes estimate   =   -2058.30863850 Ry
     estimated scf accuracy    <       0.01803583 Ry

     total magnetization       =    15.00 Bohr mag/cell
     absolute magnetization    =    20.18 Bohr mag/cell

     iteration # 28     ecut=    40.00 Ry     beta=0.70
     Davidson diagonalization with overlap
     ethr =  1.37E-06,  avg # of iterations =  3.5

     negative rho (up, down):  0.471E-02 0.169E-02

     total cpu time spent up to now is     7665.4 secs

     total energy              =   -2058.30723380 Ry
     Harris-Foulkes estimate   =   -2058.30773471 Ry
     estimated scf accuracy    <       0.00340579 Ry

     total magnetization       =    15.00 Bohr mag/cell
     absolute magnetization    =    20.17 Bohr mag/cell

     iteration # 29     ecut=    40.00 Ry     beta=0.70
     Davidson diagonalization with overlap
     ethr =  1.37E-06,  avg # of iterations =  1.0

     negative rho (up, down):  0.469E-02 0.169E-02

     total cpu time spent up to now is     7902.2 secs

     total energy              =   -2058.30732486 Ry
     Harris-Foulkes estimate   =   -2058.30770140 Ry
     estimated scf accuracy    <       0.00271427 Ry

     total magnetization       =    15.00 Bohr mag/cell
     absolute magnetization    =    20.19 Bohr mag/cell

     iteration # 30     ecut=    40.00 Ry     beta=0.70
     Davidson diagonalization with overlap
     ethr =  1.15E-06,  avg # of iterations =  1.0

     negative rho (up, down):  0.467E-02 0.168E-02

     total cpu time spent up to now is     8141.2 secs

     total energy              =   -2058.30745509 Ry
     Harris-Foulkes estimate   =   -2058.30760743 Ry
     estimated scf accuracy    <       0.00100583 Ry

     total magnetization       =    15.00 Bohr mag/cell
     absolute magnetization    =    20.16 Bohr mag/cell

     iteration # 31     ecut=    40.00 Ry     beta=0.70
     Davidson diagonalization with overlap
     ethr =  4.24E-07,  avg # of iterations =  1.0

     negative rho (up, down):  0.468E-02 0.169E-02

     total cpu time spent up to now is     8377.6 secs

     total energy              =   -2058.30733431 Ry
     Harris-Foulkes estimate   =   -2058.30783631 Ry
     estimated scf accuracy    <       0.00425779 Ry

     total magnetization       =    15.00 Bohr mag/cell
     absolute magnetization    =    20.16 Bohr mag/cell

     iteration # 32     ecut=    40.00 Ry     beta=0.70
     Davidson diagonalization with overlap
     ethr =  4.24E-07,  avg # of iterations =  1.0

     negative rho (up, down):  0.468E-02 0.169E-02

     total cpu time spent up to now is     8614.4 secs

     total energy              =   -2058.30754330 Ry
     Harris-Foulkes estimate   =   -2058.30762205 Ry
     estimated scf accuracy    <       0.00051830 Ry

     total magnetization       =    15.00 Bohr mag/cell
     absolute magnetization    =    20.13 Bohr mag/cell

     iteration # 33     ecut=    40.00 Ry     beta=0.70
     Davidson diagonalization with overlap
     ethr =  2.19E-07,  avg # of iterations =  1.0

     negative rho (up, down):  0.468E-02 0.168E-02

     total cpu time spent up to now is     8851.2 secs

     total energy              =   -2058.30751510 Ry
     Harris-Foulkes estimate   =   -2058.30764152 Ry
     estimated scf accuracy    <       0.00077980 Ry

     total magnetization       =    15.00 Bohr mag/cell
     absolute magnetization    =    20.15 Bohr mag/cell

     iteration # 34     ecut=    40.00 Ry     beta=0.70
     Davidson diagonalization with overlap
     ethr =  2.19E-07,  avg # of iterations =  1.0

     negative rho (up, down):  0.467E-02 0.168E-02

     total cpu time spent up to now is     9087.7 secs

     total energy              =   -2058.30757435 Ry
     Harris-Foulkes estimate   =   -2058.30760215 Ry
     estimated scf accuracy    <       0.00020697 Ry

     total magnetization       =    15.00 Bohr mag/cell
     absolute magnetization    =    20.14 Bohr mag/cell

     iteration # 35     ecut=    40.00 Ry     beta=0.70
     Davidson diagonalization with overlap
     ethr =  8.73E-08,  avg # of iterations =  1.0

     negative rho (up, down):  0.468E-02 0.168E-02

     total cpu time spent up to now is     9328.8 secs

     total energy              =   -2058.30753531 Ry
     Harris-Foulkes estimate   =   -2058.30766575 Ry
     estimated scf accuracy    <       0.00154745 Ry

     total magnetization       =    15.00 Bohr mag/cell
     absolute magnetization    =    20.11 Bohr mag/cell

     iteration # 36     ecut=    40.00 Ry     beta=0.70
     Davidson diagonalization with overlap
     ethr =  8.73E-08,  avg # of iterations =  1.0

     negative rho (up, down):  0.467E-02 0.168E-02

     total cpu time spent up to now is     9565.6 secs

     total energy              =   -2058.30759754 Ry
     Harris-Foulkes estimate   =   -2058.30761404 Ry
     estimated scf accuracy    <       0.00017903 Ry

     total magnetization       =    15.00 Bohr mag/cell
     absolute magnetization    =    20.13 Bohr mag/cell

     iteration # 37     ecut=    40.00 Ry     beta=0.70
     Davidson diagonalization with overlap
     ethr =  7.55E-08,  avg # of iterations =  1.0

     negative rho (up, down):  0.467E-02 0.168E-02

     total cpu time spent up to now is     9802.1 secs

     total energy              =   -2058.30760023 Ry
     Harris-Foulkes estimate   =   -2058.30761355 Ry
     estimated scf accuracy    <       0.00006242 Ry

     total magnetization       =    15.00 Bohr mag/cell
     absolute magnetization    =    20.11 Bohr mag/cell

     iteration # 38     ecut=    40.00 Ry     beta=0.70
     Davidson diagonalization with overlap
     ethr =  2.63E-08,  avg # of iterations =  1.0

     negative rho (up, down):  0.467E-02 0.168E-02

     total cpu time spent up to now is    10039.2 secs

     total energy              =   -2058.30759414 Ry
     Harris-Foulkes estimate   =   -2058.30762804 Ry
     estimated scf accuracy    <       0.00022836 Ry

     total magnetization       =    15.00 Bohr mag/cell
     absolute magnetization    =    20.12 Bohr mag/cell

     iteration # 39     ecut=    40.00 Ry     beta=0.70
     Davidson diagonalization with overlap
     ethr =  2.63E-08,  avg # of iterations =  1.2

     negative rho (up, down):  0.467E-02 0.168E-02

     total cpu time spent up to now is    10279.6 secs

     total energy              =   -2058.30760826 Ry
     Harris-Foulkes estimate   =   -2058.30762170 Ry
     estimated scf accuracy    <       0.00007346 Ry

     total magnetization       =    15.00 Bohr mag/cell
     absolute magnetization    =    20.10 Bohr mag/cell

     iteration # 40     ecut=    40.00 Ry     beta=0.70
     Davidson diagonalization with overlap
     ethr =  2.63E-08,  avg # of iterations =  1.0

     negative rho (up, down):  0.467E-02 0.168E-02

     total cpu time spent up to now is    10516.4 secs

     total energy              =   -2058.30760982 Ry
     Harris-Foulkes estimate   =   -2058.30762400 Ry
     estimated scf accuracy    <       0.00011940 Ry

     total magnetization       =    15.00 Bohr mag/cell
     absolute magnetization    =    20.10 Bohr mag/cell

     iteration # 41     ecut=    40.00 Ry     beta=0.70
     Davidson diagonalization with overlap
     ethr =  2.63E-08,  avg # of iterations =  1.0

     negative rho (up, down):  0.468E-02 0.168E-02

     total cpu time spent up to now is    10756.5 secs

     total energy              =   -2058.30760935 Ry
     Harris-Foulkes estimate   =   -2058.30762515 Ry
     estimated scf accuracy    <       0.00011501 Ry

     total magnetization       =    15.00 Bohr mag/cell
     absolute magnetization    =    20.09 Bohr mag/cell

     iteration # 42     ecut=    40.00 Ry     beta=0.70
     Davidson diagonalization with overlap
     ethr =  2.63E-08,  avg # of iterations =  1.0

     negative rho (up, down):  0.467E-02 0.168E-02

     total cpu time spent up to now is    10993.0 secs

     total energy              =   -2058.30761612 Ry
     Harris-Foulkes estimate   =   -2058.30762025 Ry
     estimated scf accuracy    <       0.00004567 Ry

     total magnetization       =    15.00 Bohr mag/cell
     absolute magnetization    =    20.10 Bohr mag/cell

     iteration # 43     ecut=    40.00 Ry     beta=0.70
     Davidson diagonalization with overlap
     ethr =  1.93E-08,  avg # of iterations =  1.0

     negative rho (up, down):  0.467E-02 0.168E-02

     total cpu time spent up to now is    11229.8 secs

     total energy              =   -2058.30761718 Ry
     Harris-Foulkes estimate   =   -2058.30762370 Ry
     estimated scf accuracy    <       0.00004293 Ry

     total magnetization       =    15.00 Bohr mag/cell
     absolute magnetization    =    20.09 Bohr mag/cell

     iteration # 44     ecut=    40.00 Ry     beta=0.70
     Davidson diagonalization with overlap
     ethr =  1.81E-08,  avg # of iterations =  1.0

     negative rho (up, down):  0.467E-02 0.168E-02

     total cpu time spent up to now is    11466.5 secs

     total energy              =   -2058.30761975 Ry
     Harris-Foulkes estimate   =   -2058.30762358 Ry
     estimated scf accuracy    <       0.00003463 Ry

     total magnetization       =    15.00 Bohr mag/cell
     absolute magnetization    =    20.09 Bohr mag/cell

     iteration # 45     ecut=    40.00 Ry     beta=0.70
     Davidson diagonalization with overlap
     ethr =  1.46E-08,  avg # of iterations =  1.0

     negative rho (up, down):  0.468E-02 0.168E-02

     total cpu time spent up to now is    11703.1 secs

     total energy              =   -2058.30761687 Ry
     Harris-Foulkes estimate   =   -2058.30762651 Ry
     estimated scf accuracy    <       0.00008688 Ry

     total magnetization       =    15.00 Bohr mag/cell
     absolute magnetization    =    20.08 Bohr mag/cell

     iteration # 46     ecut=    40.00 Ry     beta=0.70
     Davidson diagonalization with overlap
     ethr =  1.46E-08,  avg # of iterations =  1.0

     negative rho (up, down):  0.467E-02 0.168E-02

     total cpu time spent up to now is    11939.4 secs

     total energy              =   -2058.30761950 Ry
     Harris-Foulkes estimate   =   -2058.30762311 Ry
     estimated scf accuracy    <       0.00003520 Ry

     total magnetization       =    15.00 Bohr mag/cell
     absolute magnetization    =    20.08 Bohr mag/cell

     iteration # 47     ecut=    40.00 Ry     beta=0.70
     Davidson diagonalization with overlap
     ethr =  1.46E-08,  avg # of iterations =  1.0

     negative rho (up, down):  0.467E-02 0.168E-02

     total cpu time spent up to now is    12176.6 secs

     total energy              =   -2058.30762210 Ry
     Harris-Foulkes estimate   =   -2058.30762192 Ry
     estimated scf accuracy    <       0.00000820 Ry

     total magnetization       =    15.00 Bohr mag/cell
     absolute magnetization    =    20.09 Bohr mag/cell

     iteration # 48     ecut=    40.00 Ry     beta=0.70
     Davidson diagonalization with overlap
     ethr =  3.46E-09,  avg # of iterations =  1.0

     negative rho (up, down):  0.467E-02 0.168E-02

     total cpu time spent up to now is    12413.5 secs

     total energy              =   -2058.30762173 Ry
     Harris-Foulkes estimate   =   -2058.30762445 Ry
     estimated scf accuracy    <       0.00001475 Ry

     total magnetization       =    15.00 Bohr mag/cell
     absolute magnetization    =    20.08 Bohr mag/cell

     iteration # 49     ecut=    40.00 Ry     beta=0.70
     Davidson diagonalization with overlap
     ethr =  3.46E-09,  avg # of iterations =  1.1

     negative rho (up, down):  0.468E-02 0.168E-02

     total cpu time spent up to now is    12649.9 secs

     total energy              =   -2058.30762150 Ry
     Harris-Foulkes estimate   =   -2058.30762463 Ry
     estimated scf accuracy    <       0.00002328 Ry

     total magnetization       =    15.00 Bohr mag/cell
     absolute magnetization    =    20.08 Bohr mag/cell

     iteration # 50     ecut=    40.00 Ry     beta=0.70
     Davidson diagonalization with overlap
     ethr =  3.46E-09,  avg # of iterations =  1.1

     negative rho (up, down):  0.468E-02 0.168E-02

     total cpu time spent up to now is    12888.5 secs

     total energy              =   -2058.30762260 Ry
     Harris-Foulkes estimate   =   -2058.30762399 Ry
     estimated scf accuracy    <       0.00000910 Ry

     total magnetization       =    15.00 Bohr mag/cell
     absolute magnetization    =    20.08 Bohr mag/cell

     iteration # 51     ecut=    40.00 Ry     beta=0.70
     Davidson diagonalization with overlap
     ethr =  3.46E-09,  avg # of iterations =  1.0

     negative rho (up, down):  0.468E-02 0.168E-02

     total cpu time spent up to now is    13125.7 secs

     total energy              =   -2058.30762284 Ry
     Harris-Foulkes estimate   =   -2058.30762421 Ry
     estimated scf accuracy    <       0.00001405 Ry

     total magnetization       =    15.00 Bohr mag/cell
     absolute magnetization    =    20.08 Bohr mag/cell

     iteration # 52     ecut=    40.00 Ry     beta=0.70
     Davidson diagonalization with overlap
     ethr =  3.46E-09,  avg # of iterations =  1.0

     negative rho (up, down):  0.468E-02 0.168E-02

     total cpu time spent up to now is    13363.2 secs

     total energy              =   -2058.30762345 Ry
     Harris-Foulkes estimate   =   -2058.30762423 Ry
     estimated scf accuracy    <       0.00000728 Ry

     total magnetization       =    15.00 Bohr mag/cell
     absolute magnetization    =    20.08 Bohr mag/cell

     iteration # 53     ecut=    40.00 Ry     beta=0.70
     Davidson diagonalization with overlap
     ethr =  3.07E-09,  avg # of iterations =  1.0

     negative rho (up, down):  0.468E-02 0.168E-02

     total cpu time spent up to now is    13600.2 secs

     total energy              =   -2058.30762347 Ry
     Harris-Foulkes estimate   =   -2058.30762435 Ry
     estimated scf accuracy    <       0.00000717 Ry

     total magnetization       =    15.00 Bohr mag/cell
     absolute magnetization    =    20.08 Bohr mag/cell

     iteration # 54     ecut=    40.00 Ry     beta=0.70
     Davidson diagonalization with overlap
     ethr =  3.03E-09,  avg # of iterations =  1.0

     negative rho (up, down):  0.468E-02 0.168E-02

     total cpu time spent up to now is    13837.4 secs

     total energy              =   -2058.30762376 Ry
     Harris-Foulkes estimate   =   -2058.30762457 Ry
     estimated scf accuracy    <       0.00000593 Ry

     total magnetization       =    15.00 Bohr mag/cell
     absolute magnetization    =    20.07 Bohr mag/cell

     iteration # 55     ecut=    40.00 Ry     beta=0.70
     Davidson diagonalization with overlap
     ethr =  2.50E-09,  avg # of iterations =  1.0

     negative rho (up, down):  0.468E-02 0.168E-02

     total cpu time spent up to now is    14078.6 secs

     total energy              =   -2058.30762363 Ry
     Harris-Foulkes estimate   =   -2058.30762459 Ry
     estimated scf accuracy    <       0.00000864 Ry

     total magnetization       =    15.00 Bohr mag/cell
     absolute magnetization    =    20.07 Bohr mag/cell

     iteration # 56     ecut=    40.00 Ry     beta=0.70
     Davidson diagonalization with overlap
     ethr =  2.50E-09,  avg # of iterations =  1.0

     negative rho (up, down):  0.468E-02 0.168E-02

     total cpu time spent up to now is    14315.5 secs

     total energy              =   -2058.30762398 Ry
     Harris-Foulkes estimate   =   -2058.30762452 Ry
     estimated scf accuracy    <       0.00000825 Ry

     total magnetization       =    15.00 Bohr mag/cell
     absolute magnetization    =    20.08 Bohr mag/cell

     iteration # 57     ecut=    40.00 Ry     beta=0.70
     Davidson diagonalization with overlap
     ethr =  2.50E-09,  avg # of iterations =  1.0

     negative rho (up, down):  0.468E-02 0.168E-02

     total cpu time spent up to now is    14553.7 secs

     total energy              =   -2058.30762431 Ry
     Harris-Foulkes estimate   =   -2058.30762447 Ry
     estimated scf accuracy    <       0.00000252 Ry

     total magnetization       =    15.00 Bohr mag/cell
     absolute magnetization    =    20.07 Bohr mag/cell

     iteration # 58     ecut=    40.00 Ry     beta=0.70
     Davidson diagonalization with overlap
     ethr =  1.06E-09,  avg # of iterations =  1.0

     negative rho (up, down):  0.468E-02 0.168E-02

     total cpu time spent up to now is    14790.3 secs

     total energy              =   -2058.30762444 Ry
     Harris-Foulkes estimate   =   -2058.30762456 Ry
     estimated scf accuracy    <       0.00000163 Ry

     total magnetization       =    15.00 Bohr mag/cell
     absolute magnetization    =    20.07 Bohr mag/cell

     iteration # 59     ecut=    40.00 Ry     beta=0.70
     Davidson diagonalization with overlap
     ethr =  6.87E-10,  avg # of iterations =  1.0

     negative rho (up, down):  0.468E-02 0.168E-02

     total cpu time spent up to now is    15027.5 secs

     total energy              =   -2058.30762432 Ry
     Harris-Foulkes estimate   =   -2058.30762475 Ry
     estimated scf accuracy    <       0.00000196 Ry

     total magnetization       =    15.00 Bohr mag/cell
     absolute magnetization    =    20.07 Bohr mag/cell

     iteration # 60     ecut=    40.00 Ry     beta=0.70
     Davidson diagonalization with overlap
     ethr =  6.87E-10,  avg # of iterations =  1.1

     negative rho (up, down):  0.468E-02 0.168E-02

     total cpu time spent up to now is    15263.9 secs

     total energy              =   -2058.30762429 Ry
     Harris-Foulkes estimate   =   -2058.30762482 Ry
     estimated scf accuracy    <       0.00000460 Ry

     total magnetization       =    15.00 Bohr mag/cell
     absolute magnetization    =    20.07 Bohr mag/cell

     iteration # 61     ecut=    40.00 Ry     beta=0.70
     Davidson diagonalization with overlap
     ethr =  6.87E-10,  avg # of iterations =  1.1

     negative rho (up, down):  0.468E-02 0.168E-02

     total cpu time spent up to now is    15499.9 secs

     total energy              =   -2058.30762441 Ry
     Harris-Foulkes estimate   =   -2058.30762470 Ry
     estimated scf accuracy    <       0.00000137 Ry

     total magnetization       =    15.00 Bohr mag/cell
     absolute magnetization    =    20.07 Bohr mag/cell

     iteration # 62     ecut=    40.00 Ry     beta=0.70
     Davidson diagonalization with overlap
     ethr =  5.77E-10,  avg # of iterations =  1.0

     negative rho (up, down):  0.468E-02 0.168E-02

     total cpu time spent up to now is    15737.4 secs

     total energy              =   -2058.30762441 Ry
     Harris-Foulkes estimate   =   -2058.30762481 Ry
     estimated scf accuracy    <       0.00000432 Ry

     total magnetization       =    15.00 Bohr mag/cell
     absolute magnetization    =    20.07 Bohr mag/cell

     iteration # 63     ecut=    40.00 Ry     beta=0.70
     Davidson diagonalization with overlap
     ethr =  5.77E-10,  avg # of iterations =  1.0

     negative rho (up, down):  0.468E-02 0.168E-02

     total cpu time spent up to now is    15975.0 secs

     total energy              =   -2058.30762464 Ry
     Harris-Foulkes estimate   =   -2058.30762481 Ry
     estimated scf accuracy    <       0.00000158 Ry

     total magnetization       =    15.00 Bohr mag/cell
     absolute magnetization    =    20.07 Bohr mag/cell

     iteration # 64     ecut=    40.00 Ry     beta=0.70
     Davidson diagonalization with overlap
     ethr =  5.77E-10,  avg # of iterations =  1.0

     negative rho (up, down):  0.468E-02 0.168E-02

     total cpu time spent up to now is    16217.4 secs

     End of self-consistent calculation
 --- enter write_ns ---
 LDA+U parameters:
U( 2)     =  1.50000000
alpha( 2) =  0.00000000
atom    3   Tr[ns(na)] (up, down, total) =   3.50657  1.17286  4.67943
   spin  1
    eigenvalues: 
  0.463  0.507  0.669  0.893  0.976
    eigenvectors:
  0.007  0.212  0.001  0.000  0.780
  0.979  0.021  0.000  0.000  0.000
  0.000  0.000  0.978  0.020  0.002
  0.014  0.767  0.001  0.000  0.217
  0.000  0.000  0.020  0.980  0.000
    occupations:
  0.873 -0.010  0.014 -0.194 -0.003
 -0.010  0.464 -0.003 -0.002 -0.006
  0.014 -0.003  0.674 -0.005  0.031
 -0.194 -0.002 -0.005  0.608 -0.001
 -0.003 -0.006  0.031 -0.001  0.888
   spin  2
    eigenvalues: 
  0.115  0.140  0.172  0.361  0.385
    eigenvectors:
  0.766  0.001  0.014  0.022  0.197
  0.000  0.002  0.000  0.907  0.091
  0.016  0.038  0.946  0.000  0.000
  0.218  0.000  0.001  0.069  0.711
  0.000  0.959  0.039  0.002  0.000
    occupations:
  0.174 -0.001 -0.004  0.110  0.001
 -0.001  0.363  0.001 -0.007  0.011
 -0.004  0.001  0.170  0.007 -0.006
  0.110 -0.007  0.007  0.324 -0.000
  0.001  0.011 -0.006 -0.000  0.142
atomic mag. moment =     2.333715
atom    4   Tr[ns(na)] (up, down, total) =   3.42928  1.25240  4.68168
   spin  1
    eigenvalues: 
  0.483  0.526  0.575  0.865  0.981
    eigenvectors:
  0.002  0.992  0.000  0.001  0.005
  0.000  0.001  0.017  0.981  0.000
  0.000  0.000  0.983  0.017  0.000
  0.000  0.005  0.000  0.000  0.995
  0.998  0.002  0.000  0.000  0.000
    occupations:
  0.528 -0.012 -0.001  0.031  0.002
 -0.012  0.859  0.038  0.002  0.000
 -0.001  0.038  0.580  0.002 -0.001
  0.031  0.002  0.002  0.979 -0.000
  0.002  0.000 -0.001 -0.000  0.483
   spin  2
    eigenvalues: 
  0.117  0.152  0.200  0.380  0.402
    eigenvectors:
  0.002  0.003  0.000  0.002  0.992
  0.002  0.953  0.042  0.000  0.003
  0.000  0.041  0.958  0.000  0.000
  0.996  0.002  0.000  0.000  0.002
  0.000  0.000  0.000  0.998  0.002
    occupations:
  0.401  0.015  0.003 -0.013  0.001
  0.015  0.155 -0.009  0.001 -0.000
  0.003 -0.009  0.198  0.000 -0.000
 -0.013  0.001  0.000  0.118  0.000
  0.001 -0.000 -0.000  0.000  0.380
atomic mag. moment =     2.176882
atom    9   Tr[ns(na)] (up, down, total) =   3.44605  1.27871  4.72476
   spin  1
    eigenvalues: 
  0.497  0.507  0.631  0.835  0.976
    eigenvectors:
  0.006  0.157  0.000  0.000  0.837
  0.964  0.036  0.000  0.000  0.000
  0.000  0.001  0.991  0.007  0.000
  0.030  0.806  0.001  0.000  0.163
  0.000  0.000  0.007  0.993  0.000
    occupations:
  0.899  0.001 -0.000 -0.173 -0.000
  0.001  0.498  0.002  0.001 -0.000
 -0.000  0.002  0.632 -0.005 -0.017
 -0.173  0.001 -0.005  0.584  0.003
 -0.000 -0.000 -0.017  0.003  0.833
   spin  2
    eigenvalues: 
  0.138  0.171  0.188  0.389  0.392
    eigenvectors:
  0.825  0.000  0.000  0.174  0.001
  0.000  0.000  0.000  0.008  0.992
  0.000  0.019  0.980  0.000  0.000
  0.175  0.000  0.000  0.818  0.007
  0.000  0.981  0.019  0.000  0.000
    occupations:
  0.182  0.001  0.001  0.095 -0.000
  0.001  0.392 -0.000 -0.001  0.000
  0.001 -0.000  0.188  0.004  0.002
  0.095 -0.001  0.004  0.345 -0.000
 -0.000  0.000  0.002 -0.000  0.172
atomic mag. moment =     2.167335
atom   10   Tr[ns(na)] (up, down, total) =   3.55537  1.11243  4.66780
   spin  1
    eigenvalues: 
  0.473  0.498  0.716  0.890  0.979
    eigenvectors:
  0.000  0.996  0.000  0.000  0.004
  0.000  0.000  0.000  0.962  0.037
  0.001  0.000  0.999  0.000  0.000
  0.000  0.004  0.000  0.037  0.959
  0.999  0.000  0.001  0.000  0.000
    occupations:
  0.500 -0.005  0.001  0.031  0.000
 -0.005  0.893 -0.001 -0.017 -0.009
  0.001 -0.001  0.716  0.001  0.006
  0.031 -0.017  0.001  0.973  0.000
  0.000 -0.009  0.006  0.000  0.473
   spin  2
    eigenvalues: 
  0.108  0.161  0.173  0.308  0.362
    eigenvectors:
  0.005  0.000  0.000  0.995  0.000
  0.001  0.997  0.002  0.000  0.000
  0.000  0.002  0.998  0.000  0.000
  0.993  0.001  0.000  0.005  0.000
  0.000  0.000  0.000  0.000  0.999
    occupations:
  0.307  0.000 -0.001 -0.014  0.000
  0.000  0.161 -0.000  0.002  0.004
 -0.001 -0.000  0.173 -0.001  0.003
 -0.014  0.002 -0.001  0.109 -0.000
  0.000  0.004  0.003 -0.000  0.362
atomic mag. moment =     2.442931
atom   16   Tr[ns(na)] (up, down, total) =   3.50272  1.17740  4.68012
   spin  1
    eigenvalues: 
  0.463  0.508  0.667  0.890  0.976
    eigenvectors:
  0.007  0.212  0.002  0.000  0.780
  0.977  0.022  0.000  0.000  0.000
  0.000  0.000  0.971  0.026  0.002
  0.015  0.766  0.001  0.000  0.218
  0.000  0.000  0.026  0.974  0.000
    occupations:
  0.872  0.011  0.014 -0.193  0.003
  0.011  0.464  0.003  0.002 -0.006
  0.014  0.003  0.673 -0.006 -0.035
 -0.193  0.002 -0.006  0.609 -0.000
  0.003 -0.006 -0.035 -0.000  0.884
   spin  2
    eigenvalues: 
  0.115  0.141  0.173  0.363  0.386
    eigenvectors:
  0.767  0.001  0.013  0.023  0.196
  0.000  0.002  0.000  0.901  0.096
  0.015  0.047  0.937  0.000  0.000
  0.218  0.000  0.001  0.073  0.707
  0.000  0.950  0.048  0.002  0.000
    occupations:
  0.175  0.001 -0.004  0.111 -0.001
  0.001  0.364 -0.001  0.007  0.011
 -0.004 -0.001  0.171  0.007  0.007
  0.111  0.007  0.007  0.325  0.000
 -0.001  0.011  0.007  0.000  0.143
atomic mag. moment =     2.325313
atom   17   Tr[ns(na)] (up, down, total) =   3.43950  1.24082  4.68032
   spin  1
    eigenvalues: 
  0.481  0.526  0.605  0.845  0.982
    eigenvectors:
  0.001  0.993  0.001  0.001  0.003
  0.000  0.001  0.015  0.984  0.000
  0.001  0.001  0.983  0.015  0.000
  0.000  0.003  0.000  0.000  0.997
  0.998  0.001  0.001  0.000  0.000
    occupations:
  0.528 -0.011 -0.003  0.027  0.002
 -0.011  0.841  0.029  0.001 -0.000
 -0.003  0.029  0.609  0.001  0.003
  0.027  0.001  0.001  0.981 -0.000
  0.002 -0.000  0.003 -0.000  0.481
   spin  2
    eigenvalues: 
  0.116  0.151  0.197  0.376  0.401
    eigenvectors:
  0.003  0.004  0.000  0.001  0.992
  0.002  0.949  0.045  0.000  0.004
  0.000  0.044  0.955  0.000  0.000
  0.995  0.002  0.000  0.000  0.002
  0.000  0.000  0.000  0.999  0.001
    occupations:
  0.399  0.017  0.004 -0.014  0.001
  0.017  0.154 -0.009  0.001 -0.000
  0.004 -0.009  0.195  0.001 -0.000
 -0.014  0.001  0.001  0.117  0.000
  0.001 -0.000 -0.000  0.000  0.376
atomic mag. moment =     2.198684
atom   22   Tr[ns(na)] (up, down, total) =   2.99603  1.85428  4.85031
   spin  1
    eigenvalues: 
  0.512  0.540  0.554  0.628  0.762
    eigenvectors:
  0.997  0.001  0.002  0.000  0.000
  0.001  0.999  0.000  0.000  0.000
  0.000  0.000  0.000  0.019  0.981
  0.002  0.000  0.998  0.000  0.000
  0.000  0.000  0.000  0.981  0.019
    occupations:
  0.512 -0.001  0.004  0.002 -0.000
 -0.001  0.540  0.001 -0.000 -0.000
  0.004  0.001  0.760 -0.003  0.018
  0.002 -0.000 -0.003  0.554 -0.000
 -0.000 -0.000  0.018 -0.000  0.631
   spin  2
    eigenvalues: 
  0.252  0.321  0.339  0.470  0.472
    eigenvectors:
  0.000  0.001  0.995  0.003  0.001
  0.000  0.000  0.000  0.012  0.988
  0.997  0.003  0.000  0.000  0.000
  0.000  0.000  0.003  0.985  0.012
  0.003  0.996  0.001  0.000  0.000
    occupations:
  0.340 -0.003  0.000  0.007 -0.001
 -0.003  0.472 -0.000 -0.000  0.001
  0.000 -0.000  0.252  0.003 -0.004
  0.007 -0.000  0.003  0.469  0.001
 -0.001  0.001 -0.004  0.001  0.321
atomic mag. moment =     1.141745
atom   23   Tr[ns(na)] (up, down, total) =   3.51300  1.16041  4.67341
   spin  1
    eigenvalues: 
  0.472  0.496  0.676  0.902  0.966
    eigenvectors:
  0.000  0.996  0.003  0.000  0.000
  0.001  0.003  0.990  0.000  0.006
  0.000  0.000  0.000  0.999  0.000
  0.000  0.000  0.006  0.000  0.994
  0.999  0.000  0.001  0.000  0.000
    occupations:
  0.497  0.010  0.008 -0.004 -0.001
  0.010  0.677  0.001  0.022 -0.005
  0.008  0.001  0.902 -0.001 -0.005
 -0.004  0.022 -0.001  0.964 -0.001
 -0.001 -0.005 -0.005 -0.001  0.473
   spin  2
    eigenvalues: 
  0.112  0.123  0.192  0.361  0.372
    eigenvectors:
  0.003  0.000  0.000  0.995  0.001
  0.002  0.000  0.998  0.000  0.000
  0.016  0.983  0.000  0.000  0.000
  0.979  0.016  0.002  0.003  0.000
  0.000  0.000  0.000  0.001  0.998
    occupations:
  0.361  0.000 -0.002 -0.014 -0.000
  0.000  0.192 -0.000 -0.003  0.002
 -0.002 -0.000  0.123  0.002 -0.004
 -0.014 -0.003  0.002  0.113  0.000
 -0.000  0.002 -0.004  0.000  0.372
atomic mag. moment =     2.352585
N of occupied +U levels =  37.6378253
 --- exit write_ns ---

 ------ SPIN UP ------------


          k = 0.0000 0.0000 0.0000 ( 27003 PWs)   bands (ev):

   -75.0105 -74.6606 -74.5238 -74.4863 -74.4572 -74.4535 -74.4456 -74.4248
   -46.4016 -46.2942 -46.2804 -46.1584 -45.9667 -45.9211 -45.8770 -45.8673
   -45.8472 -45.8258 -45.8113 -45.8081 -45.8054 -45.7885 -45.7820 -45.7756
   -45.7539 -45.7414 -45.7378 -45.7254 -45.7189 -45.7107 -45.6481 -45.6067
   -23.9993 -20.7575 -20.2976 -19.9787 -19.8790 -19.7661 -19.3444 -19.2779
   -19.2066 -19.1417 -19.0278 -19.0088 -18.8629 -18.8328 -18.7494 -18.6664
   -18.6134 -18.5018 -18.4265 -17.3792  -9.1639  -8.7690  -8.5748  -8.3973
    -8.2199  -8.0800  -7.7055  -7.5370  -7.4211  -7.3642  -7.2781  -7.2293
    -7.1950  -7.1383  -7.1156  -6.6644  -6.5232  -6.5078  -6.4346  -6.4187
    -6.4116  -6.3327  -6.2353  -6.0110  -5.9673  -5.8187  -5.6355  -5.5666
    -5.3288  -5.2077  -5.1519  -4.9314  -4.8873  -4.7838  -4.6559  -4.5581
    -4.4278  -4.3482  -4.3297  -4.2865  -4.2288  -4.0958  -3.9260  -3.8137
    -3.7652  -3.7131  -3.6228  -3.5340  -3.4310  -3.3618  -3.3091  -3.2803
    -3.2054  -3.1181  -3.0788  -3.0116  -2.9654  -2.7662  -2.7145  -2.5553
    -2.3616  -2.3111  -2.2840  -2.2681  -2.1668  -2.0810  -2.0601  -1.9600
    -1.8606  -1.6668  -1.4583  -1.3622  -1.1337  -1.0937  -1.0403  -0.8632
    -0.7606  -0.6682  -0.5660  -0.5371  -0.3207  -0.1913   0.0362   0.2170
     0.9163   1.0895   1.3977   1.8215   1.8233   2.0245   2.0443   2.1367
     2.2754   2.3417   2.5418   2.6469   2.7651   2.8209   2.8315   3.1843
     3.5561   3.7025   3.8214   4.3464   4.9412   5.5427   6.0058   6.4727
     6.8458   6.9946   7.2037   7.3916   7.3931   7.4724   7.5142   7.6090
     7.7036   7.7652   7.8736   8.0651   8.1376   8.2029   8.2864   8.5315
     8.6827   8.7372   8.8914   8.9723   9.1162   9.2654   9.3944   9.4679
     9.6389   9.7798   9.9253   9.9383  10.0663  10.1500  10.1874  10.4930
    10.5510  10.5999  10.6204  10.8317  10.8485  10.9592  10.9907  11.1130
    11.1667  11.4238  11.4448  11.5312  11.6353  11.6950  11.7642  11.8145
    11.8976  11.9307  11.9694  12.0575  12.1301  12.2025  12.2269  12.2998
    12.3285  12.4397  12.4704  12.6417  12.7085  12.7946  12.8253  12.9263
    12.9795  13.0211  13.1463  13.2802  13.3008  13.3488  13.4843  13.5579
    13.5667  13.6080  13.6621  13.7332  13.7567  13.8798  13.9035  14.0873
    14.1892  14.3410  14.3513  14.4339  14.4661  14.4945  14.8040  14.8288
    14.9634  15.0138  15.0894  15.1272  15.1948  15.2508  15.2898  15.3475
    15.3872  15.5293  15.5913  15.7387  15.7648  15.8569  15.9761  16.1314
    16.2108  16.4968  16.5424  16.6902  16.7082  16.7742  16.8465  16.9104
    17.0066  17.0975  17.2727  17.3700  17.4014  17.4942  17.6110  17.6666
    17.7058  17.7609  17.8724  18.0526  18.1776  18.2688  18.3246  18.4386
    18.4844  18.5877  18.6427  18.6935  18.8117  18.9596  19.0171  19.0676
    19.1472  19.1778  19.2463  19.2825  19.4521  19.4804  19.5709  19.6482
    19.6962  19.7126  19.7432  19.7669  19.9578  19.9902  20.0528  20.1151
    20.1589  20.3564  20.3798  20.5238  20.5428  20.5876  20.6848  20.7846
    20.8511  20.9220  20.9752  21.0578  21.1716  21.2004  21.2366  21.3371
    21.3652  21.3839  21.4768  21.5380  21.5978  21.6424  21.7067  21.7390
    21.8258  21.9036  21.9256  22.0310  22.1501  22.1773  22.2387

          k = 0.0000 0.2341 0.0000 ( 27088 PWs)   bands (ev):

   -75.0105 -74.6606 -74.5238 -74.4863 -74.4572 -74.4535 -74.4456 -74.4248
   -46.4017 -46.2942 -46.2803 -46.1584 -45.9675 -45.9189 -45.8769 -45.8682
   -45.8406 -45.8318 -45.8117 -45.8053 -45.8033 -45.7924 -45.7827 -45.7756
   -45.7546 -45.7411 -45.7389 -45.7254 -45.7189 -45.7102 -45.6478 -45.6069
   -23.9990 -20.6779 -20.1956 -19.9750 -19.9336 -19.7549 -19.4255 -19.2970
   -19.2760 -19.1614 -19.0647 -18.9866 -18.8243 -18.8106 -18.7894 -18.7373
   -18.5733 -18.5086 -18.4221 -17.3768  -9.1448  -8.6934  -8.3221  -8.2822
    -8.1290  -8.1065  -7.8891  -7.5955  -7.5392  -7.3901  -7.2293  -7.1121
    -7.0972  -7.0075  -6.8367  -6.6665  -6.5635  -6.4051  -6.3759  -6.3284
    -6.2534  -6.1814  -6.1287  -6.0143  -5.9009  -5.8382  -5.6203  -5.5343
    -5.4839  -5.4328  -5.2574  -5.1866  -5.1093  -4.9531  -4.7574  -4.5912
    -4.5190  -4.4380  -4.3898  -4.3069  -4.2226  -4.1721  -4.0963  -3.9596
    -3.8995  -3.8092  -3.6412  -3.5840  -3.5403  -3.4994  -3.4191  -3.2567
    -3.2021  -3.1372  -3.0330  -2.9500  -2.7334  -2.5891  -2.5219  -2.4431
    -2.3582  -2.3089  -2.2533  -2.1531  -2.1006  -2.0675  -2.0262  -1.9085
    -1.8830  -1.6910  -1.6359  -1.6009  -1.4284  -1.0807  -1.0389  -0.8465
    -0.6930  -0.6445  -0.4980  -0.3732  -0.2711  -0.2390  -0.1587   0.3964
     0.9519   1.0640   1.1155   1.1474   1.7011   2.1039   2.2746   2.3335
     2.4399   2.6370   2.6740   2.7727   2.8419   2.9258   3.0329   3.0907
     3.6837   3.8550   4.0281   4.5637   5.1636   5.2749   5.7086   5.8228
     5.9968   6.3823   6.5937   7.1265   7.2636   7.5741   7.6087   7.6655
     7.8670   7.9704   8.1435   8.2566   8.3745   8.4703   8.7275   8.8586
     8.9042   8.9533   9.0384   9.2339   9.3905   9.4186   9.5056   9.5949
     9.6746   9.7186   9.8477  10.0344  10.1786  10.2051  10.2498  10.2837
    10.2974  10.4450  10.4724  10.6218  10.6572  10.7166  10.8381  10.9197
    10.9654  11.0502  11.1982  11.3843  11.4380  11.5189  11.6396  11.7359
    11.7925  11.8692  11.9464  11.9766  12.1552  12.1945  12.2656  12.5346
    12.5599  12.6622  12.7047  12.7271  12.8454  13.0629  13.1439  13.1801
    13.3146  13.3669  13.4149  13.5957  13.6709  13.7414  13.7620  13.8800
    13.9548  14.0415  14.1187  14.1742  14.2041  14.2491  14.3301  14.3993
    14.4865  14.5290  14.6113  14.6198  14.7405  14.8664  14.8999  14.9719
    15.0060  15.0834  15.1872  15.2359  15.2643  15.3408  15.3877  15.4619
    15.5176  15.5729  15.6449  15.7631  15.8451  15.8895  15.9142  15.9788
    16.0872  16.1146  16.1927  16.2618  16.4117  16.4912  16.5626  16.6925
    16.8081  16.8383  16.9219  17.0069  17.1339  17.1780  17.2373  17.2840
    17.4367  17.4962  17.5347  17.6964  17.7994  17.8898  18.0446  18.1163
    18.2323  18.3149  18.4148  18.4534  18.5763  18.7232  18.7543  18.8228
    18.8461  18.9954  19.0984  19.1675  19.2313  19.2551  19.3642  19.4284
    19.5738  19.6975  19.7432  19.7854  19.9337  19.9540  20.0412  20.1399
    20.1740  20.2637  20.3028  20.3982  20.4675  20.5385  20.5616  20.6343
    20.6554  20.7254  20.7735  20.8429  20.8885  20.9398  21.0268  21.0878
    21.1762  21.2354  21.3244  21.3717  21.4300  21.4426  21.4975  21.5236
    21.6073  21.6673  21.7231  21.7453  21.8506  21.8820  21.9576

          k = 0.0000-0.4682 0.0000 ( 27136 PWs)   bands (ev):

   -75.0105 -74.6606 -74.5238 -74.4863 -74.4572 -74.4534 -74.4456 -74.4248
   -46.4017 -46.2942 -46.2801 -46.1583 -45.9681 -45.9168 -45.8769 -45.8692
   -45.8398 -45.8238 -45.8154 -45.8074 -45.8053 -45.7921 -45.7845 -45.7754
   -45.7548 -45.7411 -45.7396 -45.7254 -45.7189 -45.7098 -45.6476 -45.6072
   -23.9987 -20.5763 -20.0821 -19.9782 -19.9374 -19.7644 -19.6380 -19.2898
   -19.2565 -19.1826 -19.0854 -18.9746 -18.9294 -18.7936 -18.7869 -18.7233
   -18.5380 -18.5265 -18.4249 -17.3744  -9.1229  -8.6523  -8.4208  -8.1093
    -8.0944  -7.8740  -7.7604  -7.6123  -7.5448  -7.3794  -7.0884  -7.0521
    -6.8616  -6.8126  -6.7600  -6.7229  -6.6095  -6.3571  -6.2898  -6.2522
    -6.2077  -6.1435  -6.0461  -6.0365  -5.9521  -5.8235  -5.7265  -5.6832
    -5.6359  -5.4979  -5.3320  -5.2837  -5.1615  -5.0525  -4.9672  -4.7745
    -4.6180  -4.5865  -4.5611  -4.4708  -4.3545  -4.3231  -4.0878  -3.8951
    -3.8835  -3.7914  -3.7448  -3.6177  -3.5691  -3.5276  -3.3636  -3.1991
    -3.0749  -3.0183  -2.8468  -2.7839  -2.7297  -2.6810  -2.5763  -2.4753
    -2.4031  -2.3831  -2.2669  -2.2299  -2.1714  -2.1372  -2.0633  -2.0272
    -1.9767  -1.6774  -1.4201  -1.4077  -1.3201  -1.0593  -0.9103  -0.8859
    -0.8213  -0.7062  -0.5983  -0.4358  -0.2882  -0.1939  -0.0530   0.5220
     0.5911   0.7160   1.0622   1.3182   1.9218   2.1465   2.3095   2.3201
     2.5114   2.5609   2.6726   2.7231   2.8049   3.1979   3.2433   3.4257
     3.7072   4.3526   4.4933   4.6029   4.7768   4.9734   5.2632   5.5155
     5.7494   6.1104   6.3208   6.9066   7.1392   7.6650   7.6998   7.8057
     8.0711   8.1870   8.2507   8.3673   8.5439   8.5638   8.6097   8.7203
     8.9126   9.0040   9.0548   9.1273   9.1932   9.2995   9.4129   9.5925
     9.6029   9.6718   9.8866   9.9136  10.0093  10.0507  10.1751  10.2484
    10.2821  10.5099  10.5476  10.6665  10.7503  10.9735  11.1423  11.1996
    11.2682  11.3269  11.3470  11.4170  11.5940  11.6418  11.7111  11.9427
    12.0358  12.1143  12.1509  12.1727  12.2840  12.2979  12.4044  12.4772
    12.5746  12.6566  12.8107  12.8305  12.9772  13.0428  13.1734  13.2411
    13.2729  13.4064  13.4371  13.6054  13.6225  13.7617  13.8276  13.8473
    13.8980  13.9611  14.0647  14.1385  14.2788  14.3309  14.4455  14.4914
    14.5108  14.6071  14.6547  14.7995  14.8318  14.9215  15.0202  15.1419
    15.1992  15.2443  15.2793  15.5015  15.5327  15.5871  15.6283  15.6437
    15.6832  15.7486  15.9001  15.9317  15.9736  16.0584  16.1137  16.2208
    16.2747  16.3042  16.4197  16.4265  16.4854  16.6147  16.7195  16.7788
    16.8152  16.8294  16.8436  16.9130  16.9571  17.1043  17.1598  17.2328
    17.3295  17.3618  17.4358  17.4926  17.6092  17.7110  17.7757  17.7957
    17.9953  18.0514  18.0820  18.1252  18.2103  18.3042  18.3844  18.4545
    18.5761  18.6404  18.7250  18.7806  18.8889  18.9085  18.9556  19.0276
    19.0714  19.1070  19.1901  19.2574  19.3883  19.5663  19.5796  19.7765
    19.8063  19.8847  19.9801  20.0521  20.2305  20.2435  20.2729  20.3000
    20.4056  20.5309  20.6359  20.6545  20.7293  20.7754  20.8534  20.8726
    21.0130  21.0363  21.0935  21.1475  21.1653  21.2440  21.3085  21.3645
    21.4147  21.4888  21.5717  21.6912  21.8126  21.8684  21.9525

          k = 0.2500 0.0000 0.0000 ( 27178 PWs)   bands (ev):

   -75.0104 -74.6604 -74.5238 -74.4854 -74.4573 -74.4542 -74.4442 -74.4260
   -46.3978 -46.2942 -46.2804 -46.1585 -45.9441 -45.9203 -45.8774 -45.8676
   -45.8428 -45.8281 -45.8160 -45.8133 -45.8001 -45.7841 -45.7760 -45.7637
   -45.7540 -45.7385 -45.7333 -45.7258 -45.7219 -45.7147 -45.6730 -45.6306
   -23.9992 -20.6389 -20.1862 -20.0528 -19.8331 -19.7667 -19.4485 -19.3155
   -19.2665 -19.1481 -19.0298 -18.9883 -18.8588 -18.8284 -18.7724 -18.6895
   -18.5933 -18.5278 -18.4487 -17.3783  -9.1617  -8.6006  -8.4139  -8.2539
[...]
     9.3707   9.4804   9.6552   9.9031   9.9626  10.0759  10.1641  10.2571
    10.3843  10.6823  10.7457  10.8960  10.9362  10.9756  11.0634  11.0885
    11.2441  11.2994  11.6117  11.7451  11.8300  11.9794  12.0550  12.1259
    12.2174  12.2899  12.3315  12.4491  12.5924  12.6907  12.7614  12.8149
    12.9459  13.0143  13.1470  13.1805  13.4047  13.4676  13.5428  13.5928
    13.6738  13.7126  13.7865  13.7962  13.9549  13.9747  13.9791  14.0750
    14.2667  14.3119  14.3559  14.3993  14.5900  14.6684  14.6993  14.7581
    14.9245  14.9718  15.0083  15.1948  15.2181  15.2634  15.3480  15.4145
    15.6386  15.7269  15.7299  15.7860  15.8678  15.8743  15.8881  16.0615
    16.1753  16.2179  16.4247  16.4730  16.5465  16.6268  16.6833  16.7679
    16.8064  16.8449  16.8671  16.9735  17.0183  17.0543  17.1242  17.2597
    17.3004  17.3457  17.4179  17.4887  17.5495  17.5866  17.5969  17.6345
    17.6648  17.7382  17.8437  17.9079  17.9546  17.9824  18.0884  18.1083
    18.1444  18.1602  18.2360  18.3421  18.3803  18.4432  18.5453  18.6090
    18.6270  18.6800  18.7191  18.7884  18.8222  19.1274  19.1876  19.2294
    19.2690  19.3261  19.4010  19.4595  19.5377  19.5747  19.6480  19.7171
    19.9154  19.9366  20.0313  20.0616  20.0883  20.1420  20.1975  20.2268
    20.2533  20.3268  20.3993  20.4338  20.5163  20.5546  20.6221  20.6467
    20.6693  20.6954  20.7969  20.8823  20.9585  21.0773  21.1176  21.1779
    21.2779  21.3175  21.3419  21.3868  21.4664  21.5228  21.5469

          k =-0.5000 0.2341 0.0000 ( 27132 PWs)   bands (ev):

   -73.6709 -72.0875 -72.0482 -72.0311 -71.9855 -71.8801 -71.8725 -71.8536
   -45.3330 -44.9739 -44.7345 -43.7391 -43.6913 -43.6626 -43.6264 -43.5113
   -43.4773 -43.4568 -43.4361 -43.4035 -43.3449 -43.3311 -43.3004 -43.2753
   -43.2569 -43.1837 -43.1481 -43.1266 -43.1183 -42.9651 -42.9561 -42.9476
   -24.3785 -20.3891 -20.2622 -19.9937 -19.8998 -19.7330 -19.6360 -19.6233
   -19.3388 -19.2394 -19.2166 -19.1783 -19.0166 -18.9977 -18.9866 -18.9023
   -18.7340 -18.7103 -18.6708 -17.5616  -9.2316  -8.0072  -7.9020  -7.7037
    -7.2738  -7.2505  -7.1789  -7.1052  -7.0059  -6.9439  -6.8311  -6.7497
    -6.6941  -6.6291  -6.5986  -6.5039  -6.3464  -6.3116  -6.2439  -5.9263
    -5.8723  -5.7246  -5.6931  -5.6204  -5.4770  -5.4147  -5.3528  -5.2962
    -5.1544  -5.0783  -4.9871  -4.8671  -4.7836  -4.6182  -4.5394  -4.5099
    -4.4670  -4.4457  -4.3586  -4.2911  -4.1958  -4.1348  -4.0659  -3.9557
    -3.7448  -3.6394  -3.5829  -3.3975  -3.3454  -3.2211  -3.1459  -3.1093
    -2.9518  -2.8836  -2.8030  -2.7273  -2.5224  -2.4475  -2.1010   0.1615
     0.3076   0.3217   0.7150   0.8773   0.9415   1.0442   1.0850   1.1693
     1.2328   1.2765   1.3440   1.4433   1.4970   1.5345   1.5552   1.5798
     1.6227   1.6687   1.7067   1.7317   1.7752   1.9432   2.0111   2.2006
     2.2654   2.6367   2.7299   2.9588   3.0408   3.1128   3.1206   3.1460
     3.2020   3.3790   3.4608   3.6611   3.7411   3.9843   4.1629   4.2200
     4.3604   4.5146   4.9426   4.9949   5.1693   5.2064   5.6717   5.6953
     6.2067   6.2761   6.4791   6.5430   6.7824   6.8629   7.0192   7.0805
     7.1558   7.4103   7.5847   7.7178   7.8088   8.1336   8.2918   8.4077
     8.6757   8.9362   9.0948   9.1821   9.2404   9.3543   9.5835   9.6997
     9.9116   9.9732  10.2212  10.2714  10.3619  10.5040  10.7163  10.7601
    10.7979  10.8263  10.8479  11.0281  11.1810  11.2588  11.4183  11.4472
    11.6265  11.6539  11.8844  12.0004  12.0613  12.1079  12.2577  12.2862
    12.4352  12.5395  12.6595  12.7705  12.9528  13.0035  13.0977  13.1690
    13.1983  13.2817  13.3845  13.4734  13.5315  13.5971  13.6495  13.7184
    13.7521  13.8378  13.9408  13.9585  14.1318  14.1660  14.2508  14.3240
    14.4043  14.4435  14.5169  14.5488  14.6483  14.7066  14.7603  14.8117
    14.9372  14.9936  15.0511  15.0967  15.1543  15.2340  15.2670  15.3700
    15.4142  15.5364  15.6592  15.6766  15.7668  15.8123  15.8594  15.8896
    15.9337  15.9694  16.0689  16.1297  16.1849  16.2356  16.2719  16.3316
    16.3785  16.4040  16.4713  16.5438  16.5902  16.6212  16.6617  16.7162
    16.7962  16.8495  16.8961  16.9648  17.0456  17.0991  17.1505  17.2314
    17.2738  17.3616  17.4207  17.4488  17.5124  17.6151  17.6683  17.7225
    17.8735  17.9393  17.9646  18.0164  18.0582  18.1154  18.1943  18.2448
    18.3862  18.4296  18.5185  18.5665  18.6976  18.7498  18.7914  18.8480
    18.9358  19.0693  19.0928  19.2556  19.3376  19.4509  19.5131  19.6296
    19.6764  19.7074  19.7638  19.7904  19.8674  19.9037  19.9519  20.0423
    20.0874  20.1361  20.1887  20.2342  20.3314  20.3587  20.4224  20.5600
    20.6104  20.6725  20.7194  20.8817  20.9365  21.0376  21.1173  21.2636
    21.3246  21.3588  21.4593  21.5778  21.6453  21.7183  21.8071

          k =-0.5000-0.4682 0.0000 ( 27168 PWs)   bands (ev):

   -73.6709 -72.0875 -72.0482 -72.0311 -71.9856 -71.8801 -71.8725 -71.8536
   -45.3330 -44.9739 -44.7344 -43.7389 -43.6913 -43.6626 -43.6264 -43.5033
   -43.4783 -43.4597 -43.4360 -43.4088 -43.3447 -43.3312 -43.3010 -43.2753
   -43.2569 -43.1836 -43.1480 -43.1260 -43.1178 -42.9651 -42.9563 -42.9476
   -24.3782 -20.3365 -20.2140 -19.9563 -19.7595 -19.7491 -19.5784 -19.5606
   -19.5317 -19.4026 -19.2092 -19.1457 -19.1082 -19.0994 -18.9948 -18.8725
   -18.7103 -18.7078 -18.6697 -17.5588  -9.2157  -7.9863  -7.8811  -7.7222
    -7.1960  -7.0684  -6.9782  -6.8056  -6.7669  -6.6907  -6.6431  -6.5934
    -6.5539  -6.4515  -6.3732  -6.3326  -6.3164  -6.1937  -6.1418  -6.0676
    -5.9887  -5.9631  -5.8374  -5.8110  -5.7336  -5.6142  -5.5291  -5.3927
    -5.2956  -5.1531  -5.0817  -4.9794  -4.9431  -4.8162  -4.7988  -4.7493
    -4.6705  -4.5427  -4.4809  -4.3904  -4.2422  -4.2106  -4.0884  -3.9917
    -3.8160  -3.6142  -3.4091  -3.3388  -3.2527  -3.1791  -3.1052  -3.0668
    -2.9610  -2.9394  -2.9014  -2.6814  -2.4153  -2.3881  -2.0858   0.1346
     0.2546   0.3184   0.7859   0.8143   0.8754   1.0393   1.0668   1.1484
     1.2241   1.2931   1.4876   1.5100   1.5602   1.5897   1.6303   1.6931
     1.7611   1.8391   1.9083   1.9143   1.9818   2.0057   2.0375   2.1644
     2.2719   2.3327   2.5454   2.6673   2.7512   2.7719   3.1032   3.1418
     3.2532   3.5170   3.5471   3.7510   3.8968   4.1699   4.1838   4.2307
     4.3085   5.0392   5.3786   5.3988   5.5851   5.5991   5.7113   5.7252
     5.8533   5.8751   6.0529   6.1002   6.3144   6.3890   6.5709   6.6876
     6.8962   7.1252   7.2488   7.4636   7.6169   7.9794   8.0456   8.3501
     8.4298   8.6972   8.8627   9.0330   9.3158   9.3284   9.7148   9.8568
     9.9804   9.9970  10.0091  10.1034  10.2810  10.4039  11.0473  11.1664
    11.2086  11.3485  11.4969  11.6055  11.6716  11.7662  11.9723  12.0810
    12.3934  12.4032  12.5360  12.6823  12.7046  12.8753  12.9265  13.0442
    13.1812  13.2076  13.2471  13.3133  13.3458  13.4124  13.4726  13.4958
    13.5414  13.5536  13.5726  13.6621  13.7967  13.8507  13.8928  13.9313
    13.9611  14.0200  14.0480  14.1167  14.1587  14.2072  14.2610  14.2932
    14.3461  14.4097  14.4374  14.4701  14.5082  14.6076  14.6342  14.6590
    14.6807  14.7134  14.7700  14.8143  14.9015  14.9381  14.9946  15.0175
    15.0986  15.1482  15.2463  15.2796  15.3225  15.3709  15.4030  15.4114
    15.4441  15.4926  15.5223  15.5823  15.6201  15.7285  15.8062  15.8146
    15.8850  15.9000  15.9401  16.0890  16.1436  16.1917  16.2493  16.2891
    16.3807  16.4736  16.5451  16.6549  16.7288  16.8071  16.8762  16.9417
    16.9929  17.0571  17.1627  17.2268  17.2949  17.4220  17.4936  17.5439
    17.6310  17.7058  17.7256  17.7707  17.7941  17.9191  18.0591  18.1131
    18.1454  18.1952  18.2103  18.2656  18.3196  18.3838  18.3960  18.6508
    18.8733  18.9091  18.9724  19.0695  19.1557  19.1867  19.2305  19.2796
    19.4158  19.4672  19.5833  19.6255  19.7823  19.8487  19.9722  20.0235
    20.1631  20.2686  20.3194  20.4462  20.5841  20.6826  20.8466  20.9451
    20.9890  21.0860  21.1905  21.2756  21.4390  21.5361  21.6179  21.6704
    21.6924  21.7983  21.8230  21.9680  21.9814  22.0207  22.0600

          k =-0.2500 0.2341 0.0000 ( 27132 PWs)   bands (ev):

   -73.6708 -72.0880 -72.0482 -72.0304 -71.9857 -71.8798 -71.8738 -71.8520
   -45.3346 -44.9740 -44.7345 -43.7391 -43.6917 -43.6626 -43.6261 -43.5145
   -43.4762 -43.4562 -43.4412 -43.4034 -43.3581 -43.3311 -43.3008 -43.2814
   -43.2507 -43.1895 -43.1815 -43.1296 -43.0539 -43.0232 -42.9556 -42.8891
   -24.3786 -20.6039 -20.1700 -20.0617 -19.9381 -19.8257 -19.5190 -19.4476
   -19.3819 -19.3105 -19.1840 -19.1241 -18.9853 -18.9772 -18.9567 -18.8896
   -18.7481 -18.7096 -18.6428 -17.5627  -9.2324  -8.1430  -7.8970  -7.7309
    -7.5762  -7.4951  -7.3284  -7.0387  -6.9682  -6.9113  -6.8273  -6.8096
    -6.7166  -6.5900  -6.5094  -6.4168  -6.2936  -6.2595  -6.1668  -6.1045
    -5.9405  -5.8253  -5.7862  -5.6941  -5.6341  -5.3606  -5.2830  -5.1762
    -5.0782  -4.9804  -4.8196  -4.7484  -4.7146  -4.6551  -4.6348  -4.5477
    -4.4368  -4.3903  -4.2744  -4.2400  -4.0973  -3.9639  -3.8087  -3.7504
    -3.6492  -3.5672  -3.4994  -3.4247  -3.3840  -3.3170  -3.2609  -3.1284
    -2.9862  -2.9550  -2.8396  -2.6821  -2.5581  -2.3321  -2.1100   0.1477
     0.2383   0.2846   0.7320   0.7667   0.8836   0.9467   1.0314   1.0918
     1.1424   1.2449   1.2867   1.3693   1.4107   1.4948   1.5689   1.6199
     1.6932   1.7398   1.7555   1.7972   1.9680   2.0015   2.0574   2.1194
     2.2031   2.5043   2.6325   2.7778   3.0336   3.1262   3.2706   3.2897
     3.4050   3.4563   3.6114   3.6718   3.7337   3.9714   4.0432   4.1605
     4.1951   4.3435   4.4440   4.8795   5.2919   5.5150   5.7766   6.0807
     6.2297   6.2995   6.3699   6.5330   6.8080   6.9269   7.1497   7.4725
     7.5720   7.7061   7.9085   8.0936   8.3153   8.3683   8.4837   8.6339
     8.7523   8.9261   9.1295   9.2503   9.4384   9.5065   9.5712   9.7777
     9.9083   9.9738  10.0662  10.1261  10.1642  10.3897  10.4636  10.4909
    10.6061  10.6962  10.8084  10.9337  11.0613  11.1425  11.2654  11.3345
    11.4030  11.5346  11.6456  11.7690  11.8346  11.9217  12.0529  12.1003
    12.1558  12.3240  12.3743  12.4042  12.4788  12.5748  12.6992  12.7195
    12.8528  12.8732  13.0208  13.0848  13.1909  13.2811  13.3410  13.4364
    13.4972  13.5471  13.6163  13.6984  13.7920  13.8496  13.9466  14.0243
    14.1457  14.1849  14.2436  14.3009  14.3603  14.4565  14.4844  14.5737
    14.7617  14.8374  14.8837  14.9692  15.0928  15.1780  15.2387  15.2806
    15.4168  15.4514  15.5845  15.6427  15.7056  15.7843  15.8580  15.9391
    15.9781  16.0295  16.0627  16.1566  16.1991  16.2451  16.3084  16.3763
    16.4712  16.5291  16.6073  16.7192  16.7787  16.8300  16.9185  16.9988
    17.0462  17.1344  17.1877  17.2531  17.3193  17.3603  17.4631  17.4846
    17.5364  17.5811  17.7338  17.7710  17.8224  17.8812  17.9504  18.0090
    18.0576  18.1713  18.2266  18.2998  18.4066  18.4757  18.5174  18.5760
    18.6051  18.6930  18.7781  18.8653  18.9145  18.9994  19.0225  19.0902
    19.1602  19.2901  19.3761  19.4144  19.4382  19.5135  19.5626  19.6742
    19.7098  19.8027  19.8575  19.9322  20.0080  20.1440  20.1994  20.2975
    20.3343  20.4051  20.5152  20.5812  20.6889  20.8325  20.8752  20.9531
    21.0430  21.1058  21.1716  21.2252  21.2918  21.3630  21.4187  21.5159
    21.5980  21.6934  21.8056  21.8508  21.9298  21.9758  22.0385

     the spin up/dw Fermi energies are    -1.0435   -1.9969 ev

!    total energy              =   -2058.30923797 Ry
     Harris-Foulkes estimate   =   -2058.30923797 Ry
     estimated scf accuracy    <          5.8E-09 Ry

     The total energy is the sum of the following terms:

     one-electron contribution =  -24558.89493846 Ry
     hartree contribution      =   12305.64424104 Ry
     xc contribution           =    -329.79011077 Ry
     ewald contribution        =   10523.95119438 Ry
     Hubbard energy            =       0.78055919 Ry
     smearing contrib. (-TS)   =      -0.00018335 Ry

     total magnetization       =    15.00 Bohr mag/cell
     absolute magnetization    =    20.32 Bohr mag/cell

     convergence has been achieved in  20 iterations

     Forces acting on atoms (Ry/au):


     negative rho (up, down):  0.467E-02 0.170E-02
     atom    1 type  1   force =    -0.00352395   -0.01193276    0.00002439
     atom    2 type  1   force =    -0.00030109    0.00702100   -0.00020545
     atom    3 type  2   force =     0.04320221   -0.00314592    0.00060809
     atom    4 type  2   force =    -0.00135927    0.00824295    0.00007511
     atom    5 type  1   force =    -0.00107352    0.00870770    0.00014514
     atom    6 type  1   force =    -0.00176964   -0.00631987    0.00015131
     atom    7 type  1   force =     0.00024951   -0.00449252   -0.00022699
     atom    8 type  1   force =    -0.01512361    0.00229806   -0.00041231
     atom    9 type  2   force =     0.00703633   -0.00195235    0.00016385
     atom   10 type  2   force =     0.00530971    0.00266206   -0.00029342
     atom   11 type  1   force =    -0.02922861   -0.02632311   -0.00034278
     atom   12 type  1   force =    -0.02116617    0.03308684   -0.00001085
     atom   13 type  1   force =    -0.04740978   -0.00301213    0.00025159
     atom   14 type  1   force =    -0.00563604   -0.01239227    0.00014743
     atom   15 type  1   force =     0.00019288    0.00693111   -0.00052662
     atom   16 type  2   force =    -0.04543656   -0.00226661    0.00049420
     atom   17 type  2   force =     0.00624925    0.00811279    0.00014786
     atom   18 type  1   force =     0.00441425    0.00758504    0.00015821
     atom   19 type  1   force =     0.00330970   -0.00660451    0.00022436
     atom   20 type  1   force =     0.00206127   -0.00392529    0.00047323
     atom   21 type  1   force =     0.00980334    0.00342150   -0.00070822
     atom   22 type  2   force =     0.01622156   -0.00461168    0.00052923
     atom   23 type  2   force =    -0.00586047   -0.00479831   -0.00023152
     atom   24 type  1   force =     0.02454731   -0.01798197   -0.00043586
     atom   25 type  1   force =     0.01715880    0.03000818    0.00020628
     atom   26 type  1   force =     0.03840100   -0.00814858    0.00046738
     atom   27 type  3   force =    -0.00000894    0.00004823   -0.00053654
     atom   28 type  3   force =    -0.00001121    0.00022869   -0.00061540
     atom   29 type  3   force =     0.00020693   -0.00019042    0.00012791
     atom   30 type  3   force =     0.00013559   -0.00013521    0.00003005
     atom   31 type  1   force =    -0.00077297    0.00027403    0.00002911
     atom   32 type  1   force =     0.00016846   -0.00067541    0.00080844
     atom   33 type  3   force =     0.00001373    0.00028073   -0.00071722

     Total force =     0.002527     Total SCF correction =     0.000127


     entering subroutine stress ...


     negative rho (up, down):  0.467E-02 0.170E-02
          total   stress  (Ry/bohr**3)                   (kbar)     P=    7.45
   0.00005214   0.00000035   0.00000414          7.67      0.05      0.61
   0.00000035   0.00013200   0.00000358          0.05     19.42      0.53
   0.00000414   0.00000358  -0.00003231          0.61      0.53     -4.75


     bfgs converged in  10 scf cycles and   9 bfgs steps
     (criteria: energy < 0.10E-03, force < 0.10E-02)

     End of BFGS Geometry Optimization

     Final energy   =   -2058.3092379672 Ry
Begin final coordinates

ATOMIC_POSITIONS (crystal)
O0       0.000000000   0.000000000   0.377567815    0   0   1
O0       0.000000000   0.500000000   0.400026228    0   0   1
Cr1      0.250000000   0.500000000   0.451462679    0   0   1
Cr1      0.000000000   0.000000000   0.448854362    0   0   1
O0       0.250000000   0.800000000   0.449560843    0   0   1
O0       0.250000000   0.200000000   0.449715860    0   0   1
O0       0.000000000   0.500000000   0.498303287    0   0   1
O0       0.000000000   0.000000000   0.523047140    0   0   1
Cr1      0.250000000   0.000000000   0.567288952    0   0   1
Cr1      0.000000000   0.500000000   0.565855769    0   0   1
O0       0.250000000   0.700000000   0.573249298    0   0   1
O0       0.250000000   0.300000000   0.575306972    0   0   1
O0       0.000000000   0.000000000   0.617803193    0   0   1
O0       0.500000000   0.000000000   0.377311835    0   0   1
O0       0.500000000   0.500000000   0.400044982    0   0   1
Cr1      0.750000000   0.500000000   0.451492213    0   0   1
Cr1      0.500000000   0.000000000   0.448722370    0   0   1
O0       0.750000000   0.800000000   0.449573778    0   0   1
O0       0.750000000   0.200000000   0.449745265    0   0   1
O0       0.500000000   0.500000000   0.499495239    0   0   1
O0       0.500000000   0.000000000   0.523024387    0   0   1
Cr1      0.750000000   0.000000000   0.582853119    0   0   1
Cr1      0.500000000   0.500000000   0.577048184    0   0   1
O0       0.750000000   0.700000000   0.575040380    0   0   1
O0       0.750000000   0.300000000   0.577035862    0   0   1
O0       0.500000000   0.000000000   0.616879161    0   0   1
H2      -0.000561300   0.638332083   0.381068965
H2       0.499670701   0.639870996   0.381678809
H2       0.157633338   0.030019881   0.364719026
H2       0.657314268   0.030495461   0.364461503
O0       0.497820063   0.538122599   0.648742862
O0       0.499800215   0.350389582   0.679847354
H2       0.500255161   0.418613554   0.713952306
End final coordinates



     init_run     :    113.11s CPU    115.81s WALL (       1 calls)
     electrons    :  61981.36s CPU  64935.19s WALL (      10 calls)
     update_pot   :    160.78s CPU    169.02s WALL (       9 calls)
     forces       :   2066.43s CPU   2146.87s WALL (      10 calls)
     stress       :  10213.56s CPU  10654.42s WALL (      10 calls)

     Called by init_run:
     wfcinit      :     48.23s CPU     49.25s WALL (       1 calls)
     potinit      :      7.54s CPU      7.85s WALL (       1 calls)

     Called by electrons:
     c_bands      :  34349.17s CPU  36142.90s WALL (     263 calls)
     sum_band     :  14331.54s CPU  14970.41s WALL (     263 calls)
     v_of_rho     :    541.67s CPU    610.27s WALL (     267 calls)
     newd         :  12843.70s CPU  12906.36s WALL (     267 calls)
     mix_rho      :    103.50s CPU    106.96s WALL (     263 calls)

     Called by c_bands:
     init_us_2    :    105.49s CPU    106.13s WALL (    3285 calls)
     cegterg      :  33088.50s CPU  33972.76s WALL (    1315 calls)

     Called by *egterg:
     h_psi        :  19530.59s CPU  20077.91s WALL (    3249 calls)
     s_psi        :   2374.27s CPU   2403.09s WALL (    3799 calls)
     g_psi        :     42.75s CPU     42.80s WALL (    1929 calls)
     cdiaghg      :   2702.82s CPU   2712.39s WALL (    3169 calls)

     Called by h_psi:
     add_vuspsi   :   2002.56s CPU   2029.80s WALL (    3249 calls)
     vhpsi        :   1954.54s CPU   1970.25s WALL (    3249 calls)

     General routines
     calbec       :   5340.18s CPU   5389.45s WALL (   25578 calls)
     fft          :    636.58s CPU    789.90s WALL (    8665 calls)
     ffts         :      7.69s CPU      8.07s WALL (    1060 calls)
     fftw         :  10781.51s CPU  11385.99s WALL ( 2319263 calls)
     interpolate  :     74.32s CPU     75.35s WALL (    1060 calls)
     davcio       :      0.19s CPU     46.77s WALL (    3735 calls)

     Parallel routines
     fft_scatter  :   4187.70s CPU   4928.41s WALL ( 2328988 calls)
     Hubbard U routines
     new_ns       :    436.50s CPU    465.46s WALL (     263 calls)
     vhpsi        :   1954.54s CPU   1970.25s WALL (    3249 calls)
     force_hub    :    534.84s CPU    549.15s WALL (      10 calls)
     stres_hub    :   5134.42s CPU   5309.71s WALL (      10 calls)

     PWSCF        :    20h50m CPU       21h49m WALL


   This run was terminated on:  21:11:51   2Jun2014            

=------------------------------------------------------------------------------=
   JOB DONE.
=------------------------------------------------------------------------------=
