
     Program PWSCF v.5.0.2 (svn rev. 9656) starts on 31Jan2014 at 16:41:12 

     This program is part of the open-source Quantum ESPRESSO suite
     for quantum simulation of materials; please cite
         "P. Giannozzi et al., J. Phys.:Condens. Matter 21 395502 (2009);
          URL http://www.quantum-espresso.org", 
     in publications or presentations arising from this work. More details at
     http://www.quantum-espresso.org/quote.php

     Parallel version (MPI), running on     1 processors

     Current dimensions of program PWSCF are:
     Max number of different atomic species (ntypx) = 10
     Max number of k-points (npk) =  40000
     Max angular momentum in pseudopotentials (lmaxx) =  3
     Waiting for input...
     Reading input from standard input

     Subspace diagonalization in iterative solution of the eigenvalue problem:
     a serial algorithm will be used


     G-vector sticks info
     --------------------
     sticks:   dense  smooth     PW     G-vecs:    dense   smooth      PW
     Sum        3061     973    293                81597    14739    2441



     bravais-lattice index     =            0
     lattice parameter (alat)  =       8.7548  a.u.
     unit-cell volume          =     432.4333 (a.u.)^3
     number of atoms/cell      =            6
     number of atomic types    =            2
     number of electrons       =        56.00
     number of Kohn-Sham states=           81
     kinetic-energy cutoff     =      40.0000  Ry
     charge density cutoff     =     500.0000  Ry
     convergence threshold     =      1.0E-06
     mixing beta               =       0.3000
     number of iterations used =            8  plain     mixing
     Exchange-correlation      = SLA  PW   PBE  PBE ( 1 4 3 4 0)
     EXX-fraction              =        0.00
     nstep                     =           50


     celldm(1)=   8.754766  celldm(2)=   0.000000  celldm(3)=   0.000000
     celldm(4)=   0.000000  celldm(5)=   0.000000  celldm(6)=   0.000000

     crystal axes: (cart. coord. in units of alat)
               a(1) = (   1.000000   0.000000   0.000000 )  
               a(2) = (   0.000000   1.000000   0.000000 )  
               a(3) = (   0.000000   0.000000   0.644444 )  

     reciprocal axes: (cart. coord. in units 2 pi/alat)
               b(1) = (  1.000000  0.000000  0.000000 )  
               b(2) = (  0.000000  1.000000  0.000000 )  
               b(3) = (  0.000000  0.000000  1.551724 )  


     PseudoPot. # 1 for Ru read from file:
     /home/camp/zhonxu/pseudo/ru_pbe_v1.uspp.F.UPF
     MD5 check sum: df00be1c11b23341d9806d8f1dfa10cf
     Pseudo is Ultrasoft + core correction, Zval = 16.0
     Generated by new atomic code, or converted to UPF format
     Using radial grid of  967 points,  6 beta functions with: 
                l(1) =   0
                l(2) =   0
                l(3) =   1
                l(4) =   1
                l(5) =   2
                l(6) =   2
     Q(r) pseudized with  8 coefficients,  rinner =    1.300   1.300   1.300
                                                       1.300   1.300

     PseudoPot. # 2 for O  read from file:
     /home/camp/zhonxu/pseudo/o_pbe_v1.01.uspp.F.UPF
     MD5 check sum: 2bcb18d16ea4b960afae9ec6d52f22d2
     Pseudo is Ultrasoft + core correction, Zval =  6.0
     Generated by new atomic code, or converted to UPF format
     Using radial grid of  737 points,  5 beta functions with: 
                l(1) =   0
                l(2) =   0
                l(3) =   1
                l(4) =   1
                l(5) =   2
     Q(r) pseudized with  8 coefficients,  rinner =    0.900   0.900   0.900
                                                       0.900   0.900

     atomic species   valence    mass     pseudopotential
        Ru0           16.00   101.07000     Ru( 1.00)
        O1             6.00    15.99940     O ( 1.00)

     Starting magnetic structure 
     atomic species   magnetization
        Ru0          0.000
        O1           0.000

      8 Sym. Ops., with inversion, found
          (note:  8 additional sym.ops. were found but ignored
           their fractional translations are incommensurate with FFT grid)


   Cartesian axes

     site n.     atom                  positions (alat units)
         1           Ru0 tau(   1) = (   0.0000000   0.0000000   0.0000000  )
         2           Ru0 tau(   2) = (   0.5000000   0.5000000   0.3222222  )
         3           O1  tau(   3) = (   0.3050000   0.3050000   0.0000000  )
         4           O1  tau(   4) = (  -0.3050000  -0.3050000   0.0000000  )
         5           O1  tau(   5) = (   0.8050000   0.1950000   0.3222222  )
         6           O1  tau(   6) = (   0.1950000   0.8050000   0.3222222  )

     number of k points=    54  Methfessel-Paxton smearing, width (Ry)=  0.0100
                       cart. coord. in units 2pi/alat
        k(    1) = (   0.0000000   0.0000000   0.0000000), wk =   0.0080000
        k(    2) = (   0.0000000   0.0000000   0.3103448), wk =   0.0160000
        k(    3) = (   0.0000000   0.0000000   0.6206897), wk =   0.0160000
        k(    4) = (   0.0000000   0.2000000   0.0000000), wk =   0.0320000
        k(    5) = (   0.0000000   0.2000000   0.3103448), wk =   0.0640000
        k(    6) = (   0.0000000   0.2000000   0.6206897), wk =   0.0640000
        k(    7) = (   0.0000000   0.4000000   0.0000000), wk =   0.0320000
        k(    8) = (   0.0000000   0.4000000   0.3103448), wk =   0.0640000
        k(    9) = (   0.0000000   0.4000000   0.6206897), wk =   0.0640000
        k(   10) = (   0.2000000   0.2000000   0.0000000), wk =   0.0160000
        k(   11) = (   0.2000000   0.2000000   0.3103448), wk =   0.0320000
        k(   12) = (   0.2000000   0.2000000   0.6206897), wk =   0.0320000
        k(   13) = (   0.2000000   0.4000000   0.0000000), wk =   0.0320000
        k(   14) = (   0.2000000   0.4000000   0.3103448), wk =   0.0640000
        k(   15) = (   0.2000000   0.4000000   0.6206897), wk =   0.0640000
        k(   16) = (   0.4000000   0.4000000   0.0000000), wk =   0.0160000
        k(   17) = (   0.4000000   0.4000000   0.3103448), wk =   0.0320000
        k(   18) = (   0.4000000   0.4000000   0.6206897), wk =   0.0320000
        k(   19) = (  -0.2000000   0.2000000   0.0000000), wk =   0.0160000
        k(   20) = (  -0.2000000   0.2000000  -0.3103448), wk =   0.0320000
        k(   21) = (  -0.2000000   0.2000000  -0.6206897), wk =   0.0320000
        k(   22) = (  -0.2000000   0.4000000   0.0000000), wk =   0.0320000
        k(   23) = (  -0.2000000   0.4000000  -0.3103448), wk =   0.0640000
        k(   24) = (  -0.2000000   0.4000000  -0.6206897), wk =   0.0640000
        k(   25) = (  -0.4000000   0.4000000   0.0000000), wk =   0.0160000
        k(   26) = (  -0.4000000   0.4000000  -0.3103448), wk =   0.0320000
        k(   27) = (  -0.4000000   0.4000000  -0.6206897), wk =   0.0320000
        k(   28) = (   0.0000000   0.0000000   0.0000000), wk =   0.0080000
        k(   29) = (   0.0000000   0.0000000   0.3103448), wk =   0.0160000
        k(   30) = (   0.0000000   0.0000000   0.6206897), wk =   0.0160000
        k(   31) = (   0.0000000   0.2000000   0.0000000), wk =   0.0320000
        k(   32) = (   0.0000000   0.2000000   0.3103448), wk =   0.0640000
        k(   33) = (   0.0000000   0.2000000   0.6206897), wk =   0.0640000
        k(   34) = (   0.0000000   0.4000000   0.0000000), wk =   0.0320000
        k(   35) = (   0.0000000   0.4000000   0.3103448), wk =   0.0640000
        k(   36) = (   0.0000000   0.4000000   0.6206897), wk =   0.0640000
        k(   37) = (   0.2000000   0.2000000   0.0000000), wk =   0.0160000
        k(   38) = (   0.2000000   0.2000000   0.3103448), wk =   0.0320000
        k(   39) = (   0.2000000   0.2000000   0.6206897), wk =   0.0320000
        k(   40) = (   0.2000000   0.4000000   0.0000000), wk =   0.0320000
        k(   41) = (   0.2000000   0.4000000   0.3103448), wk =   0.0640000
        k(   42) = (   0.2000000   0.4000000   0.6206897), wk =   0.0640000
        k(   43) = (   0.4000000   0.4000000   0.0000000), wk =   0.0160000
        k(   44) = (   0.4000000   0.4000000   0.3103448), wk =   0.0320000
        k(   45) = (   0.4000000   0.4000000   0.6206897), wk =   0.0320000
        k(   46) = (  -0.2000000   0.2000000   0.0000000), wk =   0.0160000
        k(   47) = (  -0.2000000   0.2000000  -0.3103448), wk =   0.0320000
        k(   48) = (  -0.2000000   0.2000000  -0.6206897), wk =   0.0320000
        k(   49) = (  -0.2000000   0.4000000   0.0000000), wk =   0.0320000
        k(   50) = (  -0.2000000   0.4000000  -0.3103448), wk =   0.0640000
        k(   51) = (  -0.2000000   0.4000000  -0.6206897), wk =   0.0640000
        k(   52) = (  -0.4000000   0.4000000   0.0000000), wk =   0.0160000
        k(   53) = (  -0.4000000   0.4000000  -0.3103448), wk =   0.0320000
        k(   54) = (  -0.4000000   0.4000000  -0.6206897), wk =   0.0320000

     Dense  grid:    81597 G-vectors     FFT dimensions: (  64,  64,  45)

     Smooth grid:    14739 G-vectors     FFT dimensions: (  36,  36,  24)

     Largest allocated arrays     est. size (Mb)     dimensions
        Kohn-Sham Wavefunctions         2.32 Mb     (   1875,   81)
        NL pseudopotentials             2.52 Mb     (   1875,   88)
        Each V/rho on FFT grid          5.63 Mb     ( 184320,   2)
        Each G-vector array             0.62 Mb     (  81597)
        G-vector shells                 0.62 Mb     (  81597)
     Largest temporary arrays     est. size (Mb)     dimensions
        Auxiliary wavefunctions         9.27 Mb     (   1875,  324)
        Each subspace H/S matrix        1.60 Mb     ( 324, 324)
        Each <psi_i|beta_j> matrix      0.11 Mb     (     88,   81)
        Arrays for rho mixing          22.50 Mb     ( 184320,   8)

     Check: negative/imaginary core charge=   -0.000008    0.000000

     Initial potential from superposition of free atoms
     Check: negative starting charge=(component1):   -0.064860
     Check: negative starting charge=(component2):   -0.064860

     starting charge   53.99996, renormalised to   56.00000

     negative rho (up, down):  0.673E-01 0.673E-01
     Starting wfc are   42 randomized atomic wfcs

     total cpu time spent up to now is       48.2 secs

     per-process dynamical memory:   199.9 Mb

     Self-consistent Calculation

     iteration #  1     ecut=    40.00 Ry     beta=0.30
     Davidson diagonalization with overlap
     ethr =  1.00E-02,  avg # of iterations =  5.2

     negative rho (up, down):  0.717E-01 0.717E-01

     total cpu time spent up to now is      232.5 secs

     total energy              =    -514.84146212 Ry
     Harris-Foulkes estimate   =    -516.44397391 Ry
     estimated scf accuracy    <       3.43177397 Ry

     total magnetization       =     0.00 Bohr mag/cell
     absolute magnetization    =     0.00 Bohr mag/cell

     iteration #  2     ecut=    40.00 Ry     beta=0.30
     Davidson diagonalization with overlap
     ethr =  6.13E-03,  avg # of iterations =  1.0

     negative rho (up, down):  0.712E-01 0.712E-01

     total cpu time spent up to now is      331.2 secs

     total energy              =    -515.52525457 Ry
     Harris-Foulkes estimate   =    -515.66328342 Ry
     estimated scf accuracy    <       0.41965078 Ry

     total magnetization       =    -0.00 Bohr mag/cell
     absolute magnetization    =     0.00 Bohr mag/cell

     iteration #  3     ecut=    40.00 Ry     beta=0.30
     Davidson diagonalization with overlap
     ethr =  7.49E-04,  avg # of iterations =  1.2

     negative rho (up, down):  0.724E-01 0.724E-01

     total cpu time spent up to now is      424.6 secs

     total energy              =    -515.56794551 Ry
     Harris-Foulkes estimate   =    -515.59079907 Ry
     estimated scf accuracy    <       0.05445594 Ry

     total magnetization       =    -0.00 Bohr mag/cell
     absolute magnetization    =     0.00 Bohr mag/cell

     iteration #  4     ecut=    40.00 Ry     beta=0.30
     Davidson diagonalization with overlap
     ethr =  9.72E-05,  avg # of iterations =  3.1

     negative rho (up, down):  0.722E-01 0.722E-01

     total cpu time spent up to now is      531.0 secs

     total energy              =    -515.57602604 Ry
     Harris-Foulkes estimate   =    -515.58134867 Ry
     estimated scf accuracy    <       0.01532757 Ry

     total magnetization       =    -0.00 Bohr mag/cell
     absolute magnetization    =     0.00 Bohr mag/cell

     iteration #  5     ecut=    40.00 Ry     beta=0.30
     Davidson diagonalization with overlap
     ethr =  2.74E-05,  avg # of iterations =  1.3

     negative rho (up, down):  0.725E-01 0.725E-01

     total cpu time spent up to now is      639.8 secs

     total energy              =    -515.57865510 Ry
     Harris-Foulkes estimate   =    -515.57954983 Ry
     estimated scf accuracy    <       0.00323971 Ry

     total magnetization       =    -0.00 Bohr mag/cell
     absolute magnetization    =     0.00 Bohr mag/cell

     iteration #  6     ecut=    40.00 Ry     beta=0.30
     Davidson diagonalization with overlap
     ethr =  5.79E-06,  avg # of iterations =  2.1

     negative rho (up, down):  0.726E-01 0.726E-01

     total cpu time spent up to now is      735.6 secs

     total energy              =    -515.57918448 Ry
     Harris-Foulkes estimate   =    -515.58052117 Ry
     estimated scf accuracy    <       0.02360061 Ry

     total magnetization       =    -0.00 Bohr mag/cell
     absolute magnetization    =     0.00 Bohr mag/cell

     iteration #  7     ecut=    40.00 Ry     beta=0.30
     Davidson diagonalization with overlap
     ethr =  5.79E-06,  avg # of iterations =  1.0

     negative rho (up, down):  0.724E-01 0.724E-01

     total cpu time spent up to now is      844.8 secs

     total energy              =    -515.57893475 Ry
     Harris-Foulkes estimate   =    -515.58005324 Ry
     estimated scf accuracy    <       0.00346497 Ry

     total magnetization       =    -0.00 Bohr mag/cell
     absolute magnetization    =     0.00 Bohr mag/cell

     iteration #  8     ecut=    40.00 Ry     beta=0.30
     Davidson diagonalization with overlap
     ethr =  5.79E-06,  avg # of iterations =  1.0

     negative rho (up, down):  0.724E-01 0.724E-01

     total cpu time spent up to now is      959.6 secs

     total energy              =    -515.57945519 Ry
     Harris-Foulkes estimate   =    -515.57945272 Ry
     estimated scf accuracy    <       0.00000514 Ry

     total magnetization       =    -0.00 Bohr mag/cell
     absolute magnetization    =     0.00 Bohr mag/cell

     iteration #  9     ecut=    40.00 Ry     beta=0.30
     Davidson diagonalization with overlap
     ethr =  9.18E-09,  avg # of iterations =  2.0

     negative rho (up, down):  0.724E-01 0.724E-01

     total cpu time spent up to now is     1053.5 secs

     End of self-consistent calculation

 ------ SPIN UP ------------


          k = 0.0000 0.0000 0.0000 (  1875 PWs)   bands (ev):

   -60.8244 -60.8194 -30.9872 -30.9872 -30.7380 -30.7376 -30.6017 -30.5827
    -7.3989  -6.3950  -5.5588  -5.5580   4.3862   4.4621   5.6031   6.0400
     6.0407   8.3067   8.3069   8.8401  10.0275  10.2856  10.2856  10.5712
    10.9611  11.5259  11.5261  11.5392  11.6419  13.9499  14.4075  17.2510
    17.2515  18.2753  18.6683  22.5107  22.5108  25.7828  27.1291  27.1885
    28.4891  29.9152  29.9153  30.0906  31.8143  33.4032  34.2573  34.2573
    35.4040  35.4040  36.6434  38.4636  38.7715  38.7716  39.8068  41.5268
    41.8267  42.1229  42.6030  43.3648  43.5557  43.5559  44.3285  44.3285
    45.0435  45.1276  45.1278  47.2741  48.6987  50.4368  50.4372  50.6145
    50.9728  51.5099  51.5100  52.3982  52.4096  52.4371  52.4552  52.4554
    54.0072

          k = 0.0000 0.0000 0.3103 (  1871 PWs)   bands (ev):

   -60.8178 -60.8137 -30.9792 -30.9792 -30.7232 -30.7228 -30.6913 -30.6762
    -7.0320  -6.1821  -5.7651  -5.7643   4.8371   5.0540   6.0320   6.0325
     6.0533   7.6366   8.4579   8.7670   8.7672   9.1928   9.1932  10.6266
    11.1777  11.7859  12.0029  12.4960  12.4962  14.0132  14.7254  16.6713
    16.6718  17.5929  19.8558  23.9572  23.9573  25.9529  26.6404  27.6288
    27.7299  28.9313  29.4709  29.4709  30.0270  34.3559  34.5127  34.5128
    35.1216  35.1217  36.2018  38.1284  38.6624  39.4973  39.4974  39.7137
    40.6248  40.8587  40.8589  41.2440  44.7073  45.1021  45.1023  46.8398
    47.0587  47.5860  47.6447  47.6447  48.3391  48.8093  49.5804  49.5808
    50.2290  51.2243  51.2244  52.7896  53.4942  53.6548  54.3303  54.3305
    56.3168

          k = 0.0000 0.0000 0.6207 (  1824 PWs)   bands (ev):

   -60.8065 -60.8050 -30.9663 -30.9663 -30.8321 -30.8265 -30.6989 -30.6986
    -6.2946  -6.0865  -6.0857  -5.9424   5.5349   5.7760   6.4463   6.4466
     6.7056   7.1113   7.3217   7.7705   7.7709   9.1075   9.2845   9.2846
    11.8678  12.1900  12.7161  13.0158  13.3808  13.3812  15.4782  16.0346
    16.3657  16.3663  22.2934  24.5971  26.1849  26.1851  26.5339  27.5292
    27.5580  27.8915  28.3482  28.3483  28.8394  30.8638  33.8473  33.8473
    35.8564  35.8565  37.6606  37.6823  37.9604  38.9123  39.5963  39.6358
    39.6358  41.6569  41.6570  42.6373  45.0604  45.0606  45.8621  47.2753
    47.2756  47.5254  48.0852  48.4196  48.4196  48.5638  49.2191  51.3005
    51.3005  51.3990  52.0772  52.3104  53.5311  53.5311  55.0425  55.6096
    55.6620

          k = 0.0000 0.2000 0.0000 (  1860 PWs)   bands (ev):

   -60.8239 -60.8198 -30.9859 -30.9858 -30.7395 -30.7392 -30.5998 -30.5844
    -7.2696  -6.3918  -5.6936  -5.6225   4.6260   4.7407   5.8610   6.0646
     6.0745   7.8761   7.9714   8.7545   9.3402   9.6142   9.9338  10.5992
    11.3508  11.7851  11.9180  11.9389  12.0322  14.1538  14.4417  17.0919
    17.1212  18.0279  19.0821  22.3584  22.7689  25.7794  26.6819  26.9623
    28.1197  30.1461  30.4934  30.5602  32.2097  33.2461  33.3296  33.4295
    34.8087  36.0384  37.0895  38.1066  38.8327  38.8864  40.4831  40.5895
    41.2270  42.2017  42.9306  43.3862  43.5613  44.3176  44.6862  45.1528
    45.6909  45.8464  46.4216  47.3620  48.4218  49.5471  49.7573  50.2819
    50.3504  50.6645  50.8740  51.0021  51.9225  52.1405  52.7595  54.3787
    54.8622

          k = 0.0000 0.2000 0.3103 (  1850 PWs)   bands (ev):

   -60.8174 -60.8141 -30.9787 -30.9785 -30.7246 -30.7242 -30.6892 -30.6769
    -6.9245  -6.1605  -5.8859  -5.8078   5.0540   5.2209   5.9301   6.0192
     6.4972   7.4552   7.8339   8.5212   8.6343   9.1386   9.2427  10.4358
    11.3328  12.1999  12.2728  12.3956  12.6688  13.8271  15.0202  16.2154
    16.5744  17.7089  20.2367  23.5249  24.1405  26.2028  26.5767  27.2150
    27.7940  28.6755  28.9311  30.0662  30.8600  33.1920  33.6353  34.5875
    35.0792  35.2870  37.3558  37.9062  38.5306  38.6400  39.3263  40.2148
    40.4275  41.1614  41.7598  43.0135  44.9697  45.3271  45.6714  45.8552
    46.5085  47.0391  47.5364  47.9655  48.9944  49.1019  49.3275  49.4804
    49.6503  51.1643  51.5394  52.5384  52.8132  53.3681  54.4889  54.8869
    55.9354

          k = 0.0000 0.2000 0.6207 (  1845 PWs)   bands (ev):

   -60.8064 -60.8051 -30.9677 -30.9675 -30.8305 -30.8261 -30.6989 -30.6985
    -6.3690  -6.2253  -5.9704  -5.8275   5.5250   5.7148   5.9257   6.3524
     6.8132   7.1889   7.6009   8.0540   8.1813   9.0282   9.0768   9.4467
    11.5310  12.3226  12.5042  12.7334  13.4924  13.5449  15.2661  15.2885
    16.7490  17.1740  22.3451  24.2458  25.5780  26.2707  26.7834  27.0344
    27.9134  27.9764  28.1144  28.2121  29.9474  30.5471  33.3863  33.7717
    35.5806  36.0129  37.1510  37.5695  38.7462  39.1279  39.7086  39.8453
    40.8104  41.3871  41.6055  43.4358  44.8789  45.4607  45.9492  46.1539
    47.0099  47.0142  47.6489  48.5152  48.7217  49.0838  49.5622  50.7539
    50.9624  51.4581  52.3017  52.8338  53.9543  54.0993  54.2497  54.8746
    55.3171

          k = 0.0000 0.4000 0.0000 (  1860 PWs)   bands (ev):

   -60.8227 -60.8211 -30.9837 -30.9837 -30.7422 -30.7418 -30.5951 -30.5891
    -6.9257  -6.5336  -5.8553  -5.7681   5.1855   5.2825   6.1142   6.1243
     6.6588   7.1604   7.1951   7.9301   8.7301   9.0314   9.9341  10.2752
    11.8402  12.0907  12.2419  12.3435  12.7774  13.5467  15.6761  16.8398
    16.8727  17.0393  20.3008  21.5893  23.6002  24.8892  26.7624  26.8325
    28.0510  29.4825  30.5862  31.5851  31.5890  32.8088  33.2448  34.5484
    34.8133  35.8552  37.1772  37.7670  38.6186  38.7926  38.9490  39.3540
    42.3246  42.3492  43.3873  43.8010  44.8271  44.8707  45.5405  45.5995
    47.0097  47.0581  47.6351  48.5382  48.5702  48.6773  48.9138  49.1111
    49.5011  49.9702  50.0922  50.7216  51.1325  51.5159  54.0952  54.1894
    54.3966

          k = 0.0000 0.4000 0.3103 (  1846 PWs)   bands (ev):

   -60.8164 -60.8151 -30.9777 -30.9776 -30.7269 -30.7265 -30.6845 -30.6797
    -6.6356  -6.2734  -6.0136  -5.9124   5.5803   5.5928   5.9544   6.0168
     6.8680   7.1147   7.5716   7.9515   8.0168   8.5756   9.7167  10.0806
    11.8191  12.1668  12.6670  12.7556  13.0442  13.3829  15.4297  15.6466
    16.6914  17.3420  21.2777  22.5013  24.7815  25.7807  26.8175  26.9782
    27.9677  28.1032  28.7666  30.1659  31.4697  32.3180  33.3339  34.9026
    35.2481  35.3557  37.3545  37.4328  38.3663  38.6341  39.3849  39.5391
    40.7467  42.4147  43.0439  43.9100  44.7009  45.1542  46.0918  46.3604
    46.8267  47.2250  47.6100  47.8885  48.8215  49.2193  49.2589  49.3999
    50.2326  50.8703  51.2420  52.3920  52.6017  53.3369  53.9236  54.2277
    55.1231

          k = 0.0000 0.4000 0.6207 (  1842 PWs)   bands (ev):

   -60.8060 -60.8055 -30.9696 -30.9695 -30.8275 -30.8259 -30.6987 -30.6984
    -6.4181  -6.3674  -5.8193  -5.7596   5.4885   5.5139   5.7713   5.9300
     7.0936   7.5186   7.7560   8.4269   8.4984   8.6111   9.2214   9.9388
    11.0091  11.6263  12.5828  12.7341  13.6295  13.6353  14.7941  14.9236
    17.4169  17.6703  22.6778  23.4169  25.4386  25.8412  26.7519  26.9036
    27.4212  27.7748  28.7876  29.1466  29.6667  30.4205  33.1524  33.7343
    35.8174  36.1764  37.1242  37.3714  39.3202  39.3892  39.6176  39.7044
    40.9920  41.6152  43.6208  43.8694  44.4264  44.5334  45.7809  45.8972
    46.9983  47.0815  47.6245  48.2581  48.6058  48.7016  50.4925  51.3017
    51.9504  51.9832  52.2373  52.6216  53.3782  53.7622  54.1007  55.2913
    55.4122

          k = 0.2000 0.2000 0.0000 (  1847 PWs)   bands (ev):

   -60.8235 -60.8202 -30.9878 -30.9835 -30.7418 -30.7377 -30.5983 -30.5858
    -7.1729  -6.4152  -5.8182  -5.6004   4.4242   5.2738   6.0199   6.0937
     6.1274   7.1939   8.2274   8.7102   9.3206   9.5168   9.6002  10.5502
    11.1030  11.5337  12.0895  12.3040  12.4090  14.0290  14.7300  16.8570
    17.2472  17.6787  19.5990  22.5826  22.6588  25.8087  25.8702  27.0866
    27.9225  29.6608  30.8933  31.9753  32.4602  33.2297  33.3301  33.4133
    33.9188  35.5162  36.6839  37.6592  38.7828  39.2860  39.9626  40.6411
    41.8709  41.9446  43.0515  43.5320  44.2674  44.3779  45.4928  45.4970
    45.8049  46.5557  47.1979  47.2110  48.4664  48.4765  48.8772  50.0503
    50.1219  50.2123  51.1569  51.3432  52.8914  53.0632  53.3578  53.5055
    53.5247

          k = 0.2000 0.2000 0.3103 (  1846 PWs)   bands (ev):

   -60.8170 -60.8144 -30.9796 -30.9775 -30.7266 -30.7231 -30.6878 -30.6779
    -6.8410  -6.1579  -5.9936  -5.8015   4.9371   5.5782   5.8011   6.1216
     6.7130   7.1680   7.9528   8.1069   8.6181   9.1309   9.4330  10.1982
    11.4893  11.8234  12.3327  12.7924  12.8134  13.6898  15.1398  15.9965
    16.6733  17.5810  20.6229  23.5479  23.8824  26.3577  26.3729  26.6243
    27.8249  28.4620  29.8763  30.1218  30.9394  32.3202  33.4817  34.7880
    35.2229  35.4617  36.9957  37.7697  38.5739  38.9721  39.6623  39.8590
    40.5013  41.4220  43.0009  43.2456  44.7103  45.0197  45.7523  45.9601
    46.2409  47.5288  47.5460  48.5431  48.6696  48.7480  49.0915  49.4053
    50.0118  50.4944  51.2099  51.8896  53.4915  53.5677  54.7258  54.9899
    55.9011

          k = 0.2000 0.2000 0.6207 (  1836 PWs)   bands (ev):

   -60.8063 -60.8052 -30.9695 -30.9666 -30.8309 -30.8251 -30.6991 -30.6983
    -6.4142  -6.1160  -6.0868  -5.7664   5.5303   5.7000   5.9767   6.0859
     6.5427   7.6009   7.6495   8.0871   8.3599   8.7594   9.2082   9.7102
    11.3290  12.3800  12.5636  12.7053  13.0687  13.7754  14.7417  16.0048
    16.3584  17.4963  22.3948  24.2283  24.7458  26.2794  26.3071  27.0973
    27.2010  28.1896  28.6738  29.3157  29.6134  31.0474  32.8789  33.8793
    35.3821  35.7625  36.4471  38.4415  39.0880  39.7165  39.8672  40.4704
    41.0891  41.1447  42.1572  43.7419  44.5094  45.1220  45.6435  46.5159
    46.5986  46.6966  47.5258  48.4489  48.5000  48.9450  49.7795  50.1963
    50.7609  51.8508  52.2395  53.0795  53.1999  53.9004  55.0775  55.1556
    55.3789

          k = 0.2000 0.4000 0.0000 (  1852 PWs)   bands (ev):

   -60.8225 -60.8212 -30.9867 -30.9841 -30.7416 -30.7392 -30.5944 -30.5896
    -6.9159  -6.6012  -5.8366  -5.7010   4.6778   5.2448   6.0414   6.1085
     6.7722   7.2572   7.7470   8.4656   8.8469   9.2524   9.5023  10.0379
    11.5246  11.8495  11.9773  12.2987  13.0391  13.6223  15.6281  16.7583
    16.8547  17.1021  20.7450  21.9024  23.4761  24.7014  26.1038  26.5509
    28.1842  29.1186  31.9697  32.0202  32.3869  32.9867  33.2339  34.2178
    34.6462  34.6727  36.1844  37.7350  38.0784  38.6756  39.2716  40.0457
    42.2092  42.3656  43.4499  43.6465  44.3774  44.9406  46.0606  46.4743
    46.9423  47.0333  47.1670  48.3293  48.7838  48.8058  49.3897  49.6649
    49.8457  50.2329  50.6331  51.0763  51.4958  52.2250  52.5753  53.2948
    54.5182

          k = 0.2000 0.4000 0.3103 (  1851 PWs)   bands (ev):

   -60.8162 -60.8152 -30.9793 -30.9779 -30.7265 -30.7245 -30.6844 -30.6807
    -6.6193  -6.3382  -5.9850  -5.8762   5.1446   5.6115   5.8313   5.9403
     7.0956   7.3210   7.7977   8.0812   8.3799   8.7689   9.4487   9.7880
    11.8893  12.0507  12.3391  12.7726  13.0073  13.3405  15.5179  15.9392
    16.6781  17.1538  21.5665  22.6648  24.4348  25.4171  26.5201  26.5785
    28.0085  28.2389  29.5973  30.1980  31.3143  32.0368  33.4881  35.1611
    35.3303  35.5932  37.1585  37.3137  38.4884  38.9121  39.4306  40.0135
    40.8778  41.9735  43.0754  43.5892  44.6644  45.6153  45.7965  46.3779
    46.4140  47.5184  47.5344  48.0965  48.4201  49.0147  49.2657  49.6441
    50.4010  50.6781  51.6372  51.7995  52.2323  52.9732  53.6498  54.3787
    55.7913

          k = 0.2000 0.4000 0.6207 (  1847 PWs)   bands (ev):

   -60.8060 -60.8055 -30.9697 -30.9679 -30.8291 -30.8259 -30.6990 -30.6984
    -6.3976  -6.2823  -5.9100  -5.7796   5.4782   5.6083   5.8474   6.0423
     6.6696   7.2905   7.8442   8.1182   8.5571   8.9328   9.4059  10.0031
    11.1860  11.8725  12.5212  12.6725  13.2697  13.6206  14.8438  15.4435
    17.0433  17.5528  22.6917  23.4327  24.6567  25.3674  26.3593  26.8001
    27.3612  28.0227  29.0026  29.4999  30.1882  31.3154  32.8799  33.9849
    35.5417  35.9805  36.3381  37.5442  39.5353  39.7546  40.2598  40.7563
    41.6461  42.4081  43.2505  43.7685  44.2777  44.6200  45.4130  45.9857
    46.2849  46.7138  46.9750  47.7364  48.7672  49.6949  49.9124  50.1257
    50.5939  51.4546  51.6565  52.5137  53.4809  53.9321  54.3667  55.4025
    56.0871

          k = 0.4000 0.4000 0.0000 (  1848 PWs)   bands (ev):

   -60.8221 -60.8216 -30.9889 -30.9873 -30.7386 -30.7373 -30.5929 -30.5910
    -6.8624  -6.7442  -5.7370  -5.6656   4.4327   4.6842   5.9877   6.0253
     7.3478   7.9417   8.0757   8.6894   9.1683   9.2121   9.4737   9.8183
    11.0655  11.5184  11.5467  11.8578  13.4352  13.6417  15.7560  16.1942
    17.0994  17.2408  21.6533  22.3134  23.3520  24.0817  25.6863  25.8922
    28.5725  29.0206  32.8215  33.0119  33.1924  33.3003  33.3426  33.4683
    33.7472  34.2637  36.4047  37.0515  37.1409  38.8398  39.8540  40.5978
    41.0836  42.5347  42.7225  42.7673  44.1316  44.9242  46.0556  46.7393
    47.3517  47.4177  48.5506  48.8520  48.9733  49.3934  49.4030  49.8305
    50.5871  50.6751  51.2001  51.3888  51.6264  52.3060  52.6282  53.5328
    55.3884

          k = 0.4000 0.4000 0.3103 (  1856 PWs)   bands (ev):

   -60.8159 -60.8155 -30.9805 -30.9796 -30.7240 -30.7229 -30.6840 -30.6827
    -6.5628  -6.4608  -5.9098  -5.8589   4.9491   5.1545   5.7399   5.8078
     7.6825   7.8459   8.0397   8.3916   8.7367   8.9604   8.9632   9.3067
    11.8013  12.0807  12.1592  12.2770  13.0889  13.2088  15.9291  16.1852
    16.6688  16.7959  22.2273  22.8157  24.0030  24.5698  26.4597  26.4759
    27.9750  28.2420  29.4512  29.8441  31.7645  32.6123  33.8465  35.2510
    35.3340  35.4780  37.4022  38.0915  38.1974  39.3777  39.5761  40.0332
    41.6066  41.6254  42.7400  42.7802  44.2865  44.8008  46.1321  46.1460
    46.6562  46.7682  47.2621  47.7938  48.5287  49.4840  49.8577  50.1729
    50.6613  51.1957  51.5772  52.1422  52.2817  53.0141  54.0374  54.2845
    54.5470

          k = 0.4000 0.4000 0.6207 (  1855 PWs)   bands (ev):

   -60.8059 -60.8056 -30.9682 -30.9670 -30.8298 -30.8277 -30.6993 -30.6988
    -6.2909  -6.1627  -6.0308  -5.8933   5.5655   5.8247   5.9016   6.0360
     6.4769   6.8340   7.6492   7.8521   8.8674   9.0558   9.7495  10.0108
    11.7179  12.2640  12.4780  12.5404  12.8084  13.2366  15.4294  16.1929
    16.3433  17.0488  22.7545  23.1055  24.3916  24.9464  25.8022  26.2534
    27.2202  27.4595  29.9509  30.0527  31.1845  31.6877  33.4079  34.1728
    35.6958  35.8083  36.0827  37.0775  39.6276  39.7144  41.5016  41.8818
    42.3690  42.9699  43.1238  44.0456  44.4240  44.9754  45.3556  45.7642
    46.0114  46.2415  46.5474  47.0816  47.9072  48.2476  48.3917  50.5249
    50.5370  51.1896  51.7988  52.0513  52.4555  52.7887  54.2212  54.9004
    55.4044

          k =-0.2000 0.2000 0.0000 (  1847 PWs)   bands (ev):

   -60.8235 -60.8202 -30.9879 -30.9834 -30.7422 -30.7374 -30.5983 -30.5858
    -7.1727  -6.4155  -5.8189  -5.5997   4.4247   5.2732   6.0205   6.0937
     6.1268   7.1934   8.2274   8.7099   9.3211   9.5170   9.6007  10.5501
    11.1032  11.5335  12.0892  12.3040  12.4088  14.0291  14.7300  16.8564
    17.2477  17.6787  19.5990  22.5826  22.6587  25.8087  25.8704  27.0865
    27.9225  29.6608  30.8933  31.9753  32.4602  33.2298  33.3301  33.4134
    33.9187  35.5162  36.6840  37.6591  38.7828  39.2858  39.9628  40.6411
    41.8711  41.9446  43.0513  43.5322  44.2674  44.3779  45.4928  45.4971
    45.8050  46.5558  47.1979  47.2107  48.4663  48.4763  48.8773  50.0501
    50.1220  50.2124  51.1568  51.3436  52.8914  53.0631  53.3576  53.5055
    53.5248

          k =-0.2000 0.2000-0.3103 (  1846 PWs)   bands (ev):

   -60.8170 -60.8144 -30.9797 -30.9775 -30.7269 -30.7227 -30.6878 -30.6779
    -6.8408  -6.1582  -5.9942  -5.8008   4.9376   5.5777   5.8015   6.1211
     6.7132   7.1677   7.9525   8.1073   8.6178   9.1314   9.4332  10.1982
    11.4893  11.8238  12.3328  12.7921  12.8130  13.6898  15.1397  15.9962
    16.6738  17.5809  20.6228  23.5480  23.8823  26.3578  26.3730  26.6243
    27.8249  28.4620  29.8762  30.1218  30.9394  32.3203  33.4816  34.7879
    35.2230  35.4617  36.9956  37.7697  38.5739  38.9721  39.6623  39.8590
    40.5012  41.4222  43.0010  43.2456  44.7105  45.0197  45.7524  45.9601
    46.2409  47.5288  47.5457  48.5430  48.6697  48.7479  49.0915  49.4053
    50.0120  50.4942  51.2099  51.8898  53.4914  53.5676  54.7258  54.9900
    55.9009

          k =-0.2000 0.2000-0.6207 (  1836 PWs)   bands (ev):

   -60.8063 -60.8052 -30.9695 -30.9666 -30.8306 -30.8254 -30.6987 -30.6986
    -6.4148  -6.1152  -6.0864  -5.7670   5.5301   5.6997   5.9771   6.0860
     6.5430   7.6013   7.6490   8.0873   8.3593   8.7595   9.2083   9.7099
    11.3291  12.3802  12.5637  12.7050  13.0690  13.7751  14.7415  16.0048
    16.3590  17.4959  22.3948  24.2283  24.7458  26.2795  26.3069  27.0971
    27.2012  28.1896  28.6740  29.3158  29.6133  31.0472  32.8788  33.8793
    35.3820  35.7627  36.4470  38.4413  39.0881  39.7165  39.8673  40.4702
    41.0891  41.1448  42.1572  43.7420  44.5094  45.1222  45.6435  46.5157
    46.5986  46.6965  47.5260  48.4489  48.4998  48.9449  49.7796  50.1963
    50.7610  51.8508  52.2395  53.0795  53.1998  53.9005  55.0774  55.1558
    55.3791

          k =-0.2000 0.4000 0.0000 (  1852 PWs)   bands (ev):

   -60.8225 -60.8212 -30.9868 -30.9841 -30.7420 -30.7388 -30.5944 -30.5896
    -6.9155  -6.6016  -5.8372  -5.7003   4.6784   5.2443   6.0420   6.1078
     6.7722   7.2567   7.7469   8.4662   8.8465   9.2529   9.5025  10.0378
    11.5250  11.8494  11.9770  12.2987  13.0389  13.6224  15.6280  16.7583
    16.8541  17.1027  20.7450  21.9024  23.4760  24.7016  26.1039  26.5509
    28.1842  29.1186  31.9697  32.0201  32.3869  32.9867  33.2339  34.2179
    34.6461  34.6727  36.1844  37.7349  38.0783  38.6757  39.2716  40.0457
    42.2091  42.3657  43.4498  43.6466  44.3775  44.9406  46.0605  46.4743
    46.9425  47.0334  47.1670  48.3293  48.7836  48.8057  49.3899  49.6648
    49.8456  50.2329  50.6334  51.0763  51.4957  52.2251  52.5752  53.2947
    54.5183

          k =-0.2000 0.4000-0.3103 (  1851 PWs)   bands (ev):

   -60.8162 -60.8152 -30.9793 -30.9779 -30.7269 -30.7241 -30.6844 -30.6807
    -6.6189  -6.3388  -5.9855  -5.8756   5.1451   5.6110   5.8316   5.9398
     7.0954   7.3211   7.7979   8.0806   8.3799   8.7694   9.4487   9.7880
    11.8893  12.0509  12.3393  12.7722  13.0070  13.3407  15.5176  15.9393
    16.6784  17.1537  21.5665  22.6648  24.4347  25.4173  26.5200  26.5785
    28.0085  28.2388  29.5972  30.1981  31.3144  32.0368  33.4880  35.1612
    35.3303  35.5933  37.1587  37.3135  38.4885  38.9120  39.4306  40.0136
    40.8778  41.9735  43.0754  43.5892  44.6645  45.6154  45.7965  46.3779
    46.4140  47.5183  47.5344  48.0965  48.4201  49.0148  49.2657  49.6441
    50.4009  50.6780  51.6372  51.7996  52.2323  52.9731  53.6498  54.3787
    55.7914

          k =-0.2000 0.4000-0.6207 (  1847 PWs)   bands (ev):

   -60.8060 -60.8055 -30.9697 -30.9679 -30.8288 -30.8262 -30.6988 -30.6987
    -6.3982  -6.2817  -5.9094  -5.7802   5.4779   5.6085   5.8469   6.0427
     6.6699   7.2902   7.8444   8.1178   8.5574   8.9328   9.4058  10.0030
    11.1860  11.8726  12.5216  12.6721  13.2700  13.6203  14.8435  15.4438
    17.0437  17.5525  22.6917  23.4327  24.6566  25.3674  26.3591  26.8003
    27.3611  28.0229  29.0026  29.4999  30.1882  31.3153  32.8797  33.9852
    35.5416  35.9807  36.3380  37.5443  39.5352  39.7547  40.2599  40.7562
    41.6460  42.4082  43.2505  43.7686  44.2777  44.6200  45.4130  45.9856
    46.2850  46.7136  46.9750  47.7363  48.7672  49.6948  49.9123  50.1256
    50.5939  51.4547  51.6565  52.5138  53.4808  53.9321  54.3668  55.4025
    56.0870

          k =-0.4000 0.4000 0.0000 (  1848 PWs)   bands (ev):

   -60.8221 -60.8216 -30.9889 -30.9873 -30.7390 -30.7369 -30.5929 -30.5910
    -6.8619  -6.7448  -5.7377  -5.6649   4.4333   4.6836   5.9883   6.0246
     7.3479   7.9416   8.0753   8.6897   9.1684   9.2115   9.4744   9.8184
    11.0658  11.5181  11.5465  11.8579  13.4349  13.6420  15.7560  16.1942
    17.0988  17.2413  21.6534  22.3134  23.3519  24.0819  25.6862  25.8922
    28.5725  29.0206  32.8216  33.0119  33.1924  33.3004  33.3425  33.4684
    33.7471  34.2637  36.4045  37.0516  37.1411  38.8397  39.8540  40.5978
    41.0837  42.5347  42.7225  42.7672  44.1315  44.9243  46.0556  46.7394
    47.3516  47.4177  48.5508  48.8520  48.9732  49.3935  49.4029  49.8305
    50.5868  50.6753  51.2000  51.3892  51.6264  52.3059  52.6282  53.5327
    55.3884

          k =-0.4000 0.4000-0.3103 (  1856 PWs)   bands (ev):

   -60.8159 -60.8155 -30.9805 -30.9796 -30.7244 -30.7225 -30.6840 -30.6826
    -6.5622  -6.4615  -5.9105  -5.8582   4.9496   5.1539   5.7403   5.8073
     7.6821   7.8461   8.0403   8.3912   8.7361   8.9606   8.9632   9.3071
    11.8017  12.0806  12.1590  12.2771  13.0886  13.2091  15.9289  16.1852
    16.6693  16.7956  22.2273  22.8157  24.0029  24.5699  26.4597  26.4760
    27.9751  28.2419  29.4510  29.8443  31.7646  32.6123  33.8464  35.2511
    35.3342  35.4779  37.4023  38.0914  38.1974  39.3776  39.5762  40.0331
    41.6066  41.6253  42.7399  42.7802  44.2866  44.8008  46.1321  46.1461
    46.6563  46.7683  47.2619  47.7938  48.5288  49.4838  49.8575  50.1731
    50.6615  51.1957  51.5771  52.1422  52.2816  53.0142  54.0375  54.2846
    54.5470

          k =-0.4000 0.4000-0.6207 (  1855 PWs)   bands (ev):

   -60.8059 -60.8056 -30.9681 -30.9670 -30.8294 -30.8281 -30.6992 -30.6989
    -6.2916  -6.1620  -6.0302  -5.8940   5.5652   5.8248   5.9020   6.0358
     6.4772   6.8337   7.6497   7.8516   8.8677   9.0555   9.7492  10.0110
    11.7178  12.2641  12.4784  12.5400  12.8087  13.2363  15.4291  16.1929
    16.3439  17.0484  22.7544  23.1055  24.3916  24.9462  25.8023  26.2535
    27.2200  27.4598  29.9509  30.0528  31.1845  31.6877  33.4076  34.1732
    35.6957  35.8084  36.0826  37.0776  39.6274  39.7146  41.5016  41.8818
    42.3690  42.9699  43.1239  44.0457  44.4239  44.9754  45.3555  45.7643
    46.0113  46.2415  46.5474  47.0818  47.9070  48.2475  48.3916  50.5248
    50.5372  51.1895  51.7988  52.0514  52.4555  52.7888  54.2213  54.9004
    55.4043

 ------ SPIN DOWN ----------


          k = 0.0000 0.0000 0.0000 (  1875 PWs)   bands (ev):

   -60.8244 -60.8194 -30.9872 -30.9872 -30.7380 -30.7377 -30.6017 -30.5827
    -7.3989  -6.3950  -5.5588  -5.5580   4.3862   4.4621   5.6031   6.0400
     6.0406   8.3067   8.3069   8.8401  10.0275  10.2856  10.2856  10.5712
    10.9610  11.5259  11.5260  11.5392  11.6419  13.9499  14.4075  17.2510
    17.2515  18.2753  18.6682  22.5107  22.5107  25.7828  27.1290  27.1885
    28.4891  29.9152  29.9153  30.0906  31.8143  33.4032  34.2572  34.2573
    35.4040  35.4040  36.6434  38.4636  38.7715  38.7716  39.8068  41.5268
    41.8266  42.1229  42.6030  43.3648  43.5557  43.5559  44.3285  44.3285
    45.0435  45.1276  45.1278  47.2741  48.6987  50.4368  50.4371  50.6145
    50.9727  51.5099  51.5099  52.3982  52.4096  52.4371  52.4552  52.4554
    54.0072

          k = 0.0000 0.0000 0.3103 (  1871 PWs)   bands (ev):

   -60.8178 -60.8137 -30.9792 -30.9792 -30.7232 -30.7229 -30.6913 -30.6762
    -7.0320  -6.1822  -5.7651  -5.7643   4.8371   5.0540   6.0320   6.0325
     6.0533   7.6366   8.4579   8.7670   8.7672   9.1928   9.1932  10.6266
    11.1777  11.7858  12.0028  12.4960  12.4962  14.0131  14.7253  16.6712
    16.6718  17.5929  19.8558  23.9572  23.9573  25.9529  26.6403  27.6288
    27.7299  28.9313  29.4709  29.4709  30.0270  34.3559  34.5127  34.5128
    35.1216  35.1217  36.2017  38.1284  38.6624  39.4973  39.4974  39.7137
    40.6248  40.8587  40.8589  41.2440  44.7073  45.1021  45.1023  46.8398
    47.0587  47.5860  47.6447  47.6447  48.3391  48.8092  49.5804  49.5807
    50.2290  51.2243  51.2244  52.7896  53.4942  53.6548  54.3303  54.3305
    56.3168

          k = 0.0000 0.0000 0.6207 (  1824 PWs)   bands (ev):

   -60.8065 -60.8050 -30.9663 -30.9663 -30.8321 -30.8266 -30.6990 -30.6986
    -6.2946  -6.0865  -6.0857  -5.9424   5.5349   5.7759   6.4463   6.4466
     6.7056   7.1113   7.3217   7.7705   7.7709   9.1074   9.2845   9.2846
    11.8678  12.1899  12.7160  13.0158  13.3808  13.3811  15.4782  16.0346
    16.3657  16.3663  22.2934  24.5971  26.1849  26.1851  26.5339  27.5292
    27.5579  27.8915  28.3482  28.3482  28.8394  30.8638  33.8473  33.8473
    35.8564  35.8565  37.6606  37.6823  37.9604  38.9123  39.5963  39.6358
    39.6358  41.6569  41.6570  42.6372  45.0604  45.0606  45.8621  47.2753
    47.2756  47.5254  48.0852  48.4196  48.4196  48.5638  49.2191  51.3005
    51.3005  51.3990  52.0772  52.3104  53.5310  53.5311  55.0425  55.6093
    55.6596

          k = 0.0000 0.2000 0.0000 (  1860 PWs)   bands (ev):

   -60.8239 -60.8199 -30.9859 -30.9859 -30.7396 -30.7392 -30.5998 -30.5845
    -7.2696  -6.3918  -5.6937  -5.6225   4.6260   4.7407   5.8610   6.0646
     6.0745   7.8761   7.9714   8.7545   9.3402   9.6142   9.9338  10.5992
    11.3507  11.7851  11.9179  11.9389  12.0322  14.1538  14.4417  17.0919
    17.1212  18.0279  19.0821  22.3584  22.7689  25.7794  26.6818  26.9623
    28.1197  30.1460  30.4934  30.5602  32.2097  33.2461  33.3296  33.4295
    34.8087  36.0383  37.0895  38.1066  38.8327  38.8864  40.4831  40.5895
    41.2270  42.2017  42.9306  43.3862  43.5612  44.3176  44.6862  45.1528
    45.6909  45.8463  46.4216  47.3620  48.4218  49.5471  49.7573  50.2819
    50.3504  50.6645  50.8740  51.0021  51.9225  52.1404  52.7594  54.3787
    54.8622

          k = 0.0000 0.2000 0.3103 (  1850 PWs)   bands (ev):

   -60.8174 -60.8141 -30.9787 -30.9785 -30.7247 -30.7242 -30.6892 -30.6769
    -6.9245  -6.1605  -5.8859  -5.8078   5.0540   5.2209   5.9301   6.0192
     6.4971   7.4552   7.8339   8.5212   8.6342   9.1385   9.2427  10.4358
    11.3328  12.1999  12.2728  12.3956  12.6688  13.8271  15.0202  16.2154
    16.5744  17.7088  20.2367  23.5249  24.1405  26.2028  26.5767  27.2150
    27.7940  28.6755  28.9311  30.0662  30.8600  33.1920  33.6353  34.5875
    35.0792  35.2869  37.3558  37.9062  38.5306  38.6400  39.3263  40.2148
    40.4274  41.1614  41.7598  43.0135  44.9697  45.3271  45.6714  45.8552
    46.5085  47.0391  47.5364  47.9655  48.9944  49.1019  49.3275  49.4803
    49.6503  51.1643  51.5394  52.5384  52.8131  53.3681  54.4888  54.8869
    55.9354

          k = 0.0000 0.2000 0.6207 (  1845 PWs)   bands (ev):

   -60.8064 -60.8051 -30.9677 -30.9675 -30.8305 -30.8262 -30.6989 -30.6985
    -6.3690  -6.2253  -5.9704  -5.8275   5.5250   5.7148   5.9257   6.3524
     6.8132   7.1889   7.6009   8.0540   8.1813   9.0282   9.0768   9.4467
    11.5309  12.3225  12.5042  12.7333  13.4924  13.5449  15.2661  15.2885
    16.7489  17.1740  22.3450  24.2458  25.5780  26.2707  26.7834  27.0343
    27.9133  27.9764  28.1143  28.2121  29.9474  30.5470  33.3863  33.7717
    35.5806  36.0129  37.1510  37.5695  38.7462  39.1279  39.7086  39.8453
    40.8104  41.3871  41.6055  43.4358  44.8789  45.4607  45.9492  46.1539
    47.0099  47.0142  47.6489  48.5151  48.7217  49.0837  49.5622  50.7539
    50.9624  51.4581  52.3017  52.8338  53.9543  54.0993  54.2497  54.8745
    55.3171

          k = 0.0000 0.4000 0.0000 (  1860 PWs)   bands (ev):

   -60.8227 -60.8211 -30.9837 -30.9837 -30.7422 -30.7418 -30.5951 -30.5892
    -6.9257  -6.5336  -5.8553  -5.7681   5.1854   5.2825   6.1142   6.1243
     6.6588   7.1604   7.1951   7.9301   8.7301   9.0314   9.9341  10.2752
    11.8402  12.0906  12.2419  12.3435  12.7774  13.5467  15.6760  16.8398
    16.8727  17.0393  20.3008  21.5893  23.6002  24.8892  26.7624  26.8325
    28.0510  29.4825  30.5862  31.5851  31.5890  32.8088  33.2447  34.5484
    34.8133  35.8552  37.1772  37.7670  38.6186  38.7926  38.9490  39.3540
    42.3246  42.3492  43.3873  43.8010  44.8270  44.8707  45.5405  45.5995
    47.0097  47.0581  47.6351  48.5382  48.5702  48.6773  48.9138  49.1111
    49.5010  49.9702  50.0922  50.7216  51.1325  51.5159  54.0952  54.1894
    54.3966

          k = 0.0000 0.4000 0.3103 (  1846 PWs)   bands (ev):

   -60.8164 -60.8151 -30.9777 -30.9776 -30.7269 -30.7265 -30.6845 -30.6797
    -6.6356  -6.2734  -6.0136  -5.9124   5.5803   5.5928   5.9544   6.0168
     6.8679   7.1146   7.5716   7.9514   8.0168   8.5756   9.7166  10.0806
    11.8191  12.1668  12.6669  12.7555  13.0442  13.3829  15.4297  15.6466
    16.6914  17.3420  21.2777  22.5013  24.7814  25.7807  26.8175  26.9782
    27.9677  28.1032  28.7666  30.1659  31.4697  32.3180  33.3339  34.9026
    35.2481  35.3557  37.3545  37.4328  38.3663  38.6341  39.3849  39.5391
    40.7467  42.4147  43.0439  43.9100  44.7009  45.1542  46.0918  46.3604
    46.8267  47.2249  47.6100  47.8885  48.8215  49.2193  49.2589  49.3999
    50.2326  50.8703  51.2420  52.3920  52.6017  53.3369  53.9236  54.2277
    55.1231

          k = 0.0000 0.4000 0.6207 (  1842 PWs)   bands (ev):

   -60.8060 -60.8055 -30.9696 -30.9695 -30.8276 -30.8260 -30.6987 -30.6984
    -6.4181  -6.3674  -5.8193  -5.7596   5.4885   5.5139   5.7713   5.9300
     7.0936   7.5186   7.7560   8.4269   8.4983   8.6111   9.2214   9.9388
    11.0091  11.6263  12.5828  12.7341  13.6295  13.6353  14.7941  14.9236
    17.4168  17.6703  22.6778  23.4168  25.4386  25.8412  26.7518  26.9035
    27.4212  27.7748  28.7876  29.1466  29.6667  30.4205  33.1524  33.7343
    35.8174  36.1764  37.1242  37.3714  39.3202  39.3892  39.6176  39.7044
    40.9920  41.6152  43.6208  43.8694  44.4264  44.5334  45.7809  45.8972
    46.9983  47.0814  47.6245  48.2581  48.6058  48.7016  50.4925  51.3017
    51.9504  51.9832  52.2373  52.6216  53.3782  53.7622  54.1006  55.2915
    55.4122

          k = 0.2000 0.2000 0.0000 (  1847 PWs)   bands (ev):

   -60.8235 -60.8202 -30.9879 -30.9835 -30.7419 -30.7378 -30.5983 -30.5858
    -7.1729  -6.4152  -5.8183  -5.6004   4.4242   5.2737   6.0199   6.0937
     6.1274   7.1939   8.2274   8.7102   9.3206   9.5168   9.6002  10.5501
    11.1029  11.5336  12.0895  12.3040  12.4090  14.0290  14.7300  16.8570
    17.2472  17.6786  19.5990  22.5826  22.6587  25.8087  25.8702  27.0866
    27.9225  29.6608  30.8933  31.9753  32.4602  33.2297  33.3301  33.4133
    33.9188  35.5161  36.6839  37.6592  38.7828  39.2860  39.9626  40.6411
    41.8709  41.9446  43.0515  43.5320  44.2674  44.3778  45.4928  45.4970
    45.8049  46.5557  47.1979  47.2110  48.4664  48.4765  48.8772  50.0503
    50.1218  50.2122  51.1569  51.3432  52.8914  53.0631  53.3578  53.5055
    53.5247

          k = 0.2000 0.2000 0.3103 (  1846 PWs)   bands (ev):

   -60.8171 -60.8144 -30.9797 -30.9775 -30.7266 -30.7231 -30.6878 -30.6780
    -6.8410  -6.1579  -5.9936  -5.8015   4.9371   5.5782   5.8011   6.1216
     6.7130   7.1680   7.9528   8.1069   8.6181   9.1308   9.4330  10.1981
    11.4893  11.8234  12.3327  12.7923  12.8133  13.6898  15.1398  15.9965
    16.6733  17.5810  20.6228  23.5479  23.8824  26.3576  26.3729  26.6243
    27.8249  28.4620  29.8762  30.1218  30.9394  32.3202  33.4817  34.7880
    35.2229  35.4617  36.9957  37.7697  38.5739  38.9720  39.6623  39.8590
    40.5012  41.4220  43.0009  43.2456  44.7103  45.0197  45.7523  45.9601
    46.2409  47.5287  47.5460  48.5431  48.6696  48.7480  49.0915  49.4053
    50.0118  50.4944  51.2099  51.8896  53.4914  53.5677  54.7258  54.9899
    55.9010

          k = 0.2000 0.2000 0.6207 (  1836 PWs)   bands (ev):

   -60.8063 -60.8052 -30.9695 -30.9666 -30.8309 -30.8252 -30.6991 -30.6983
    -6.4142  -6.1160  -6.0869  -5.7664   5.5303   5.7000   5.9767   6.0859
     6.5427   7.6009   7.6495   8.0870   8.3599   8.7593   9.2082   9.7102
    11.3290  12.3799  12.5636  12.7052  13.0686  13.7754  14.7417  16.0048
    16.3584  17.4963  22.3948  24.2283  24.7458  26.2794  26.3071  27.0973
    27.2010  28.1896  28.6737  29.3157  29.6134  31.0474  32.8789  33.8793
    35.3821  35.7625  36.4471  38.4414  39.0880  39.7165  39.8672  40.4704
    41.0891  41.1447  42.1572  43.7419  44.5093  45.1220  45.6435  46.5159
    46.5986  46.6966  47.5258  48.4489  48.5000  48.9450  49.7795  50.1963
    50.7609  51.8508  52.2395  53.0795  53.1999  53.9004  55.0775  55.1556
    55.3789

          k = 0.2000 0.4000 0.0000 (  1852 PWs)   bands (ev):

   -60.8225 -60.8213 -30.9868 -30.9841 -30.7417 -30.7392 -30.5945 -30.5897
    -6.9159  -6.6012  -5.8366  -5.7010   4.6778   5.2448   6.0414   6.1084
     6.7722   7.2572   7.7470   8.4656   8.8469   9.2523   9.5023  10.0379
    11.5246  11.8495  11.9772  12.2987  13.0391  13.6223  15.6281  16.7583
    16.8547  17.1021  20.7450  21.9024  23.4761  24.7014  26.1038  26.5509
    28.1842  29.1186  31.9697  32.0202  32.3869  32.9867  33.2339  34.2178
    34.6462  34.6727  36.1844  37.7350  38.0784  38.6755  39.2716  40.0457
    42.2091  42.3656  43.4499  43.6465  44.3774  44.9406  46.0605  46.4743
    46.9423  47.0333  47.1670  48.3293  48.7838  48.8058  49.3897  49.6649
    49.8457  50.2329  50.6331  51.0763  51.4958  52.2249  52.5753  53.2948
    54.5182

          k = 0.2000 0.4000 0.3103 (  1851 PWs)   bands (ev):

   -60.8163 -60.8152 -30.9793 -30.9779 -30.7266 -30.7245 -30.6844 -30.6807
    -6.6193  -6.3383  -5.9850  -5.8762   5.1446   5.6115   5.8313   5.9402
     7.0956   7.3210   7.7977   8.0812   8.3799   8.7689   9.4487   9.7880
    11.8893  12.0507  12.3390  12.7726  13.0072  13.3405  15.5179  15.9392
    16.6781  17.1538  21.5665  22.6648  24.4348  25.4171  26.5200  26.5785
    28.0085  28.2388  29.5973  30.1980  31.3143  32.0368  33.4881  35.1611
    35.3303  35.5932  37.1585  37.3137  38.4884  38.9121  39.4306  40.0135
    40.8778  41.9735  43.0753  43.5891  44.6644  45.6153  45.7965  46.3779
    46.4140  47.5184  47.5344  48.0965  48.4201  49.0147  49.2657  49.6441
    50.4010  50.6781  51.6372  51.7994  52.2323  52.9732  53.6498  54.3787
    55.7913

          k = 0.2000 0.4000 0.6207 (  1847 PWs)   bands (ev):

   -60.8060 -60.8055 -30.9697 -30.9679 -30.8292 -30.8259 -30.6991 -30.6985
    -6.3976  -6.2823  -5.9101  -5.7796   5.4781   5.6083   5.8474   6.0423
     6.6696   7.2905   7.8442   8.1182   8.5571   8.9328   9.4059  10.0031
    11.1859  11.8725  12.5212  12.6724  13.2697  13.6206  14.8437  15.4435
    17.0433  17.5527  22.6917  23.4327  24.6567  25.3674  26.3593  26.8001
    27.3612  28.0227  29.0026  29.4999  30.1882  31.3154  32.8798  33.9849
    35.5417  35.9805  36.3381  37.5442  39.5353  39.7546  40.2598  40.7563
    41.6461  42.4081  43.2505  43.7685  44.2777  44.6200  45.4129  45.9857
    46.2848  46.7137  46.9750  47.7364  48.7672  49.6948  49.9123  50.1257
    50.5939  51.4546  51.6565  52.5137  53.4809  53.9321  54.3667  55.4024
    56.0871

          k = 0.4000 0.4000 0.0000 (  1848 PWs)   bands (ev):

   -60.8221 -60.8216 -30.9889 -30.9873 -30.7386 -30.7373 -30.5929 -30.5910
    -6.8625  -6.7443  -5.7370  -5.6656   4.4327   4.6842   5.9877   6.0252
     7.3478   7.9417   8.0757   8.6894   9.1683   9.2121   9.4737   9.8182
    11.0655  11.5183  11.5466  11.8578  13.4352  13.6417  15.7560  16.1942
    17.0994  17.2408  21.6533  22.3134  23.3520  24.0817  25.6863  25.8922
    28.5725  29.0205  32.8215  33.0119  33.1924  33.3003  33.3425  33.4683
    33.7472  34.2637  36.4047  37.0515  37.1409  38.8398  39.8539  40.5978
    41.0835  42.5347  42.7225  42.7672  44.1316  44.9242  46.0556  46.7393
    47.3517  47.4177  48.5506  48.8520  48.9733  49.3934  49.4030  49.8304
    50.5871  50.6751  51.2001  51.3888  51.6264  52.3060  52.6282  53.5328
    55.3887

          k = 0.4000 0.4000 0.3103 (  1856 PWs)   bands (ev):

   -60.8160 -60.8155 -30.9805 -30.9796 -30.7241 -30.7229 -30.6840 -30.6827
    -6.5628  -6.4608  -5.9098  -5.8590   4.9490   5.1544   5.7399   5.8077
     7.6825   7.8459   8.0397   8.3916   8.7366   8.9603   8.9632   9.3067
    11.8013  12.0807  12.1592  12.2770  13.0889  13.2088  15.9291  16.1852
    16.6687  16.7959  22.2272  22.8157  24.0030  24.5698  26.4597  26.4759
    27.9750  28.2420  29.4512  29.8441  31.7645  32.6123  33.8464  35.2510
    35.3340  35.4780  37.4022  38.0915  38.1973  39.3777  39.5761  40.0332
    41.6066  41.6253  42.7400  42.7802  44.2865  44.8008  46.1321  46.1460
    46.6562  46.7682  47.2621  47.7938  48.5287  49.4840  49.8577  50.1729
    50.6613  51.1957  51.5771  52.1422  52.2816  53.0141  54.0374  54.2845
    54.5470

          k = 0.4000 0.4000 0.6207 (  1855 PWs)   bands (ev):

   -60.8059 -60.8056 -30.9682 -30.9670 -30.8298 -30.8277 -30.6993 -30.6988
    -6.2909  -6.1627  -6.0308  -5.8933   5.5655   5.8247   5.9016   6.0360
     6.4769   6.8340   7.6492   7.8521   8.8674   9.0558   9.7495  10.0108
    11.7179  12.2640  12.4779  12.5404  12.8084  13.2365  15.4294  16.1928
    16.3433  17.0487  22.7545  23.1055  24.3915  24.9463  25.8022  26.2534
    27.2202  27.4595  29.9509  30.0527  31.1845  31.6877  33.4079  34.1728
    35.6958  35.8083  36.0827  37.0775  39.6276  39.7144  41.5016  41.8818
    42.3690  42.9698  43.1238  44.0456  44.4239  44.9754  45.3556  45.7642
    46.0114  46.2415  46.5474  47.0816  47.9072  48.2476  48.3917  50.5249
    50.5370  51.1896  51.7988  52.0513  52.4555  52.7887  54.2212  54.9004
    55.4044

          k =-0.2000 0.2000 0.0000 (  1847 PWs)   bands (ev):

   -60.8235 -60.8202 -30.9879 -30.9835 -30.7422 -30.7374 -30.5983 -30.5858
    -7.1727  -6.4155  -5.8189  -5.5997   4.4247   5.2732   6.0205   6.0937
     6.1267   7.1934   8.2274   8.7099   9.3211   9.5170   9.6007  10.5501
    11.1032  11.5335  12.0892  12.3040  12.4088  14.0291  14.7300  16.8564
    17.2477  17.6786  19.5990  22.5826  22.6586  25.8087  25.8704  27.0865
    27.9225  29.6607  30.8933  31.9753  32.4602  33.2298  33.3301  33.4134
    33.9187  35.5162  36.6840  37.6591  38.7828  39.2858  39.9628  40.6411
    41.8711  41.9446  43.0513  43.5321  44.2674  44.3779  45.4928  45.4971
    45.8050  46.5558  47.1979  47.2107  48.4663  48.4763  48.8773  50.0501
    50.1219  50.2124  51.1568  51.3436  52.8914  53.0631  53.3576  53.5055
    53.5248

          k =-0.2000 0.2000-0.3103 (  1846 PWs)   bands (ev):

   -60.8171 -60.8144 -30.9797 -30.9775 -30.7269 -30.7228 -30.6878 -30.6780
    -6.8408  -6.1582  -5.9942  -5.8008   4.9376   5.5777   5.8015   6.1211
     6.7132   7.1677   7.9525   8.1072   8.6178   9.1314   9.4332  10.1982
    11.4893  11.8238  12.3328  12.7921  12.8130  13.6898  15.1397  15.9962
    16.6738  17.5809  20.6228  23.5480  23.8822  26.3578  26.3730  26.6243
    27.8249  28.4620  29.8762  30.1218  30.9394  32.3203  33.4816  34.7879
    35.2230  35.4617  36.9956  37.7697  38.5739  38.9721  39.6623  39.8590
    40.5012  41.4222  43.0010  43.2456  44.7105  45.0197  45.7523  45.9601
    46.2409  47.5288  47.5457  48.5430  48.6697  48.7479  49.0915  49.4053
    50.0119  50.4942  51.2099  51.8897  53.4914  53.5676  54.7258  54.9900
    55.9010

          k =-0.2000 0.2000-0.6207 (  1836 PWs)   bands (ev):

   -60.8063 -60.8052 -30.9695 -30.9666 -30.8306 -30.8255 -30.6987 -30.6987
    -6.4148  -6.1152  -6.0864  -5.7670   5.5301   5.6997   5.9771   6.0860
     6.5430   7.6013   7.6490   8.0873   8.3593   8.7595   9.2083   9.7099
    11.3291  12.3802  12.5637  12.7050  13.0689  13.7751  14.7415  16.0048
    16.3589  17.4959  22.3947  24.2282  24.7458  26.2794  26.3069  27.0971
    27.2012  28.1896  28.6740  29.3158  29.6133  31.0472  32.8788  33.8793
    35.3820  35.7627  36.4470  38.4413  39.0881  39.7165  39.8673  40.4702
    41.0891  41.1448  42.1572  43.7420  44.5094  45.1222  45.6435  46.5157
    46.5986  46.6965  47.5260  48.4489  48.4998  48.9449  49.7795  50.1963
    50.7610  51.8508  52.2395  53.0795  53.1998  53.9005  55.0774  55.1558
    55.3791

          k =-0.2000 0.4000 0.0000 (  1852 PWs)   bands (ev):

   -60.8225 -60.8213 -30.9868 -30.9841 -30.7420 -30.7389 -30.5945 -30.5897
    -6.9156  -6.6016  -5.8372  -5.7003   4.6784   5.2443   6.0420   6.1078
     6.7722   7.2567   7.7469   8.4662   8.8465   9.2529   9.5025  10.0378
    11.5249  11.8494  11.9769  12.2987  13.0389  13.6224  15.6280  16.7583
    16.8541  17.1027  20.7450  21.9023  23.4760  24.7015  26.1038  26.5509
    28.1842  29.1186  31.9697  32.0201  32.3869  32.9867  33.2339  34.2178
    34.6461  34.6727  36.1844  37.7349  38.0783  38.6757  39.2716  40.0457
    42.2091  42.3657  43.4498  43.6466  44.3775  44.9406  46.0605  46.4743
    46.9425  47.0333  47.1670  48.3293  48.7836  48.8057  49.3899  49.6648
    49.8456  50.2329  50.6333  51.0763  51.4957  52.2251  52.5752  53.2947
    54.5184

          k =-0.2000 0.4000-0.3103 (  1851 PWs)   bands (ev):

   -60.8163 -60.8152 -30.9793 -30.9779 -30.7269 -30.7242 -30.6844 -30.6807
    -6.6189  -6.3388  -5.9855  -5.8756   5.1451   5.6110   5.8316   5.9398
     7.0954   7.3211   7.7979   8.0806   8.3799   8.7694   9.4487   9.7880
    11.8892  12.0508  12.3393  12.7722  13.0070  13.3407  15.5176  15.9393
    16.6784  17.1537  21.5664  22.6648  24.4346  25.4173  26.5199  26.5785
    28.0085  28.2388  29.5972  30.1981  31.3144  32.0368  33.4880  35.1612
    35.3303  35.5933  37.1586  37.3135  38.4885  38.9120  39.4306  40.0135
    40.8778  41.9735  43.0754  43.5892  44.6645  45.6154  45.7965  46.3779
    46.4140  47.5182  47.5344  48.0965  48.4201  49.0148  49.2657  49.6441
    50.4009  50.6780  51.6372  51.7996  52.2323  52.9731  53.6498  54.3787
    55.7915

          k =-0.2000 0.4000-0.6207 (  1847 PWs)   bands (ev):

   -60.8060 -60.8055 -30.9697 -30.9679 -30.8288 -30.8263 -30.6988 -30.6987
    -6.3982  -6.2817  -5.9094  -5.7802   5.4779   5.6085   5.8469   6.0427
     6.6699   7.2902   7.8444   8.1178   8.5573   8.9328   9.4057  10.0030
    11.1860  11.8726  12.5215  12.6720  13.2700  13.6203  14.8435  15.4438
    17.0436  17.5525  22.6917  23.4327  24.6566  25.3674  26.3591  26.8003
    27.3611  28.0229  29.0026  29.4999  30.1882  31.3153  32.8797  33.9852
    35.5415  35.9806  36.3380  37.5443  39.5352  39.7547  40.2599  40.7562
    41.6460  42.4081  43.2505  43.7686  44.2777  44.6200  45.4130  45.9856
    46.2850  46.7136  46.9750  47.7363  48.7672  49.6948  49.9123  50.1256
    50.5939  51.4547  51.6565  52.5138  53.4808  53.9321  54.3668  55.4025
    56.0870

          k =-0.4000 0.4000 0.0000 (  1848 PWs)   bands (ev):

   -60.8221 -60.8216 -30.9889 -30.9873 -30.7390 -30.7370 -30.5929 -30.5911
    -6.8619  -6.7449  -5.7377  -5.6649   4.4332   4.6836   5.9883   6.0246
     7.3479   7.9416   8.0753   8.6897   9.1684   9.2114   9.4744   9.8184
    11.0657  11.5180  11.5465  11.8578  13.4349  13.6420  15.7560  16.1942
    17.0988  17.2413  21.6534  22.3133  23.3519  24.0819  25.6862  25.8922
    28.5725  29.0206  32.8216  33.0119  33.1924  33.3004  33.3425  33.4684
    33.7471  34.2637  36.4045  37.0516  37.1411  38.8397  39.8539  40.5978
    41.0837  42.5347  42.7225  42.7672  44.1315  44.9243  46.0555  46.7394
    47.3516  47.4177  48.5508  48.8520  48.9731  49.3935  49.4029  49.8304
    50.5868  50.6753  51.2000  51.3892  51.6264  52.3059  52.6282  53.5327
    55.3884

          k =-0.4000 0.4000-0.3103 (  1856 PWs)   bands (ev):

   -60.8160 -60.8155 -30.9805 -30.9796 -30.7244 -30.7226 -30.6840 -30.6827
    -6.5622  -6.4615  -5.9105  -5.8582   4.9496   5.1539   5.7403   5.8073
     7.6821   7.8461   8.0403   8.3912   8.7361   8.9606   8.9632   9.3071
    11.8017  12.0805  12.1589  12.2770  13.0886  13.2091  15.9289  16.1852
    16.6693  16.7956  22.2272  22.8157  24.0029  24.5699  26.4596  26.4760
    27.9751  28.2419  29.4510  29.8443  31.7646  32.6123  33.8463  35.2511
    35.3341  35.4779  37.4023  38.0914  38.1974  39.3776  39.5762  40.0331
    41.6066  41.6253  42.7399  42.7802  44.2865  44.8007  46.1321  46.1461
    46.6563  46.7683  47.2619  47.7938  48.5288  49.4838  49.8575  50.1731
    50.6615  51.1957  51.5770  52.1422  52.2815  53.0142  54.0374  54.2846
    54.5469

          k =-0.4000 0.4000-0.6207 (  1855 PWs)   bands (ev):

   -60.8059 -60.8056 -30.9682 -30.9670 -30.8294 -30.8281 -30.6992 -30.6990
    -6.2916  -6.1620  -6.0302  -5.8940   5.5652   5.8248   5.9020   6.0358
     6.4772   6.8337   7.6497   7.8516   8.8677   9.0555   9.7492  10.0109
    11.7178  12.2641  12.4784  12.5400  12.8087  13.2363  15.4291  16.1929
    16.3439  17.0484  22.7544  23.1055  24.3916  24.9461  25.8023  26.2534
    27.2199  27.4597  29.9509  30.0528  31.1845  31.6877  33.4076  34.1732
    35.6957  35.8084  36.0826  37.0776  39.6274  39.7146  41.5016  41.8818
    42.3690  42.9699  43.1239  44.0457  44.4239  44.9754  45.3555  45.7643
    46.0113  46.2415  46.5474  47.0818  47.9070  48.2474  48.3916  50.5248
    50.5372  51.1895  51.7988  52.0514  52.4555  52.7888  54.2213  54.9003
    55.4043

     the Fermi energy is    12.7702 ev

!    total energy              =    -515.57945937 Ry
     Harris-Foulkes estimate   =    -515.57945653 Ry
     estimated scf accuracy    <       0.00000077 Ry

     The total energy is the sum of the following terms:

     one-electron contribution =    -174.89810530 Ry
     hartree contribution      =     118.81380589 Ry
     xc contribution           =     -78.48399385 Ry
     ewald contribution        =    -381.01023004 Ry
     smearing contrib. (-TS)   =      -0.00093607 Ry

     total magnetization       =    -0.00 Bohr mag/cell
     absolute magnetization    =     0.00 Bohr mag/cell

     convergence has been achieved in   9 iterations

     Forces acting on atoms (Ry/au):


     negative rho (up, down):  0.724E-01 0.724E-01
     atom    1 type  1   force =     0.00000000    0.00000000    0.00000000
     atom    2 type  1   force =     0.00000000    0.00000000    0.00000000
     atom    3 type  2   force =    -0.01526422   -0.01526422    0.00000000
     atom    4 type  2   force =     0.01526422    0.01526422    0.00000000
     atom    5 type  2   force =    -0.01548318    0.01548318   -0.00000000
     atom    6 type  2   force =     0.01548318   -0.01548318   -0.00000000

     Total force =     0.043484     Total SCF correction =     0.001824


     entering subroutine stress ...


     negative rho (up, down):  0.724E-01 0.724E-01
          total   stress  (Ry/bohr**3)                   (kbar)     P=   17.96
  -0.00030800   0.00000233   0.00000000        -45.31      0.34      0.00
   0.00000233  -0.00030800   0.00000000          0.34    -45.31      0.00
   0.00000000   0.00000000   0.00098222          0.00      0.00    144.49

     Volume is kept fixed: isostatic pressure set to zero

     BFGS Geometry Optimization

     number of scf cycles    =   1
     number of bfgs steps    =   0

     enthalpy new            =    -515.5794593724 Ry

     new trust radius        =       0.0894340327 bohr
     new conv_thr            =       0.0000010000 Ry

     new unit-cell volume =    432.43328 a.u.^3 (    64.08000 Ang^3 )

CELL_PARAMETERS (alat=  8.75476599)
   0.989361715   0.000058310   0.000000000
   0.000058310   0.989361715   0.000000000
   0.000000000   0.000000000   0.658377961

ATOMIC_POSITIONS (crystal)
Ru0      0.000000000   0.000000000   0.000000000    0   0   0
Ru0      0.500000000   0.500000000   0.500000000    0   0   0
O1       0.303256467   0.303256467   0.000000000    1   1   0
O1      -0.303256467  -0.303256467   0.000000000    1   1   0
O1       0.803231457   0.196768543   0.500000000    1   1   0
O1       0.196768543   0.803231457   0.500000000    1   1   0


     Check: negative starting charge=(component1):   -0.129720
     NEW-OLD atomic charge density approx. for the potential
     NEW k-points:
        k(    1) = (   0.0000000   0.0000000   0.0000000), wk =   0.0080000
        k(    2) = (   0.0000000   0.0000000   0.3037769), wk =   0.0160000
        k(    3) = (   0.0000000   0.0000000   0.6075538), wk =   0.0160000
        k(    4) = (  -0.0000119   0.2021505   0.0000000), wk =   0.0320000
        k(    5) = (  -0.0000119   0.2021505   0.3037769), wk =   0.0640000
        k(    6) = (  -0.0000119   0.2021505   0.6075538), wk =   0.0640000
        k(    7) = (  -0.0000238   0.4043011   0.0000000), wk =   0.0320000
        k(    8) = (  -0.0000238   0.4043011   0.3037769), wk =   0.0640000
        k(    9) = (  -0.0000238   0.4043011   0.6075538), wk =   0.0640000
        k(   10) = (   0.2021386   0.2021386   0.0000000), wk =   0.0160000
        k(   11) = (   0.2021386   0.2021386   0.3037769), wk =   0.0320000
        k(   12) = (   0.2021386   0.2021386   0.6075538), wk =   0.0320000
        k(   13) = (   0.2021267   0.4042892   0.0000000), wk =   0.0320000
        k(   14) = (   0.2021267   0.4042892   0.3037769), wk =   0.0640000
        k(   15) = (   0.2021267   0.4042892   0.6075538), wk =   0.0640000
        k(   16) = (   0.4042772   0.4042772   0.0000000), wk =   0.0160000
        k(   17) = (   0.4042772   0.4042772   0.3037769), wk =   0.0320000
        k(   18) = (   0.4042772   0.4042772   0.6075538), wk =   0.0320000
        k(   19) = (  -0.2021624   0.2021624   0.0000000), wk =   0.0160000
        k(   20) = (  -0.2021624   0.2021624  -0.3037769), wk =   0.0320000
        k(   21) = (  -0.2021624   0.2021624  -0.6075538), wk =   0.0320000
        k(   22) = (  -0.2021744   0.4043130   0.0000000), wk =   0.0320000
        k(   23) = (  -0.2021744   0.4043130  -0.3037769), wk =   0.0640000
        k(   24) = (  -0.2021744   0.4043130  -0.6075538), wk =   0.0640000
        k(   25) = (  -0.4043249   0.4043249   0.0000000), wk =   0.0160000
        k(   26) = (  -0.4043249   0.4043249  -0.3037769), wk =   0.0320000
        k(   27) = (  -0.4043249   0.4043249  -0.6075538), wk =   0.0320000
        k(   28) = (   0.0000000   0.0000000   0.0000000), wk =   0.0080000
        k(   29) = (   0.0000000   0.0000000   0.3037769), wk =   0.0160000
        k(   30) = (   0.0000000   0.0000000   0.6075538), wk =   0.0160000
        k(   31) = (  -0.0000119   0.2021505   0.0000000), wk =   0.0320000
        k(   32) = (  -0.0000119   0.2021505   0.3037769), wk =   0.0640000
        k(   33) = (  -0.0000119   0.2021505   0.6075538), wk =   0.0640000
        k(   34) = (  -0.0000238   0.4043011   0.0000000), wk =   0.0320000
        k(   35) = (  -0.0000238   0.4043011   0.3037769), wk =   0.0640000
        k(   36) = (  -0.0000238   0.4043011   0.6075538), wk =   0.0640000
        k(   37) = (   0.2021386   0.2021386   0.0000000), wk =   0.0160000
        k(   38) = (   0.2021386   0.2021386   0.3037769), wk =   0.0320000
        k(   39) = (   0.2021386   0.2021386   0.6075538), wk =   0.0320000
        k(   40) = (   0.2021267   0.4042892   0.0000000), wk =   0.0320000
        k(   41) = (   0.2021267   0.4042892   0.3037769), wk =   0.0640000
        k(   42) = (   0.2021267   0.4042892   0.6075538), wk =   0.0640000
        k(   43) = (   0.4042772   0.4042772   0.0000000), wk =   0.0160000
        k(   44) = (   0.4042772   0.4042772   0.3037769), wk =   0.0320000
        k(   45) = (   0.4042772   0.4042772   0.6075538), wk =   0.0320000
        k(   46) = (  -0.2021624   0.2021624   0.0000000), wk =   0.0160000
        k(   47) = (  -0.2021624   0.2021624  -0.3037769), wk =   0.0320000
        k(   48) = (  -0.2021624   0.2021624  -0.6075538), wk =   0.0320000
        k(   49) = (  -0.2021744   0.4043130   0.0000000), wk =   0.0320000
        k(   50) = (  -0.2021744   0.4043130  -0.3037769), wk =   0.0640000
        k(   51) = (  -0.2021744   0.4043130  -0.6075538), wk =   0.0640000
        k(   52) = (  -0.4043249   0.4043249   0.0000000), wk =   0.0160000
        k(   53) = (  -0.4043249   0.4043249  -0.3037769), wk =   0.0320000
        k(   54) = (  -0.4043249   0.4043249  -0.6075538), wk =   0.0320000

     Check: negative/imaginary core charge=   -0.000008    0.000000
     Check: negative starting charge=(component1):   -0.130365

     negative rho (up, down):  0.727E-01 0.727E-01

     total cpu time spent up to now is     1181.4 secs

     per-process dynamical memory:   220.6 Mb

     Self-consistent Calculation

     iteration #  1     ecut=    40.00 Ry     beta=0.30
     Davidson diagonalization with overlap
     ethr =  1.00E-06,  avg # of iterations =  6.6

     negative rho (up, down):  0.727E-01 0.727E-01

     total cpu time spent up to now is     1400.5 secs

     total energy              =    -515.58930587 Ry
     Harris-Foulkes estimate   =    -515.58953596 Ry
     estimated scf accuracy    <       0.00102229 Ry

     total magnetization       =    -0.00 Bohr mag/cell
     absolute magnetization    =     0.00 Bohr mag/cell

     iteration #  2     ecut=    40.00 Ry     beta=0.30
     Davidson diagonalization with overlap
     ethr =  1.83E-06,  avg # of iterations =  1.1

     negative rho (up, down):  0.727E-01 0.727E-01

     total cpu time spent up to now is     1508.9 secs

     total energy              =    -515.58910642 Ry
     Harris-Foulkes estimate   =    -515.58952658 Ry
     estimated scf accuracy    <       0.00355020 Ry

     total magnetization       =    -0.00 Bohr mag/cell
     absolute magnetization    =     0.00 Bohr mag/cell

     iteration #  3     ecut=    40.00 Ry     beta=0.30
     Davidson diagonalization with overlap
     ethr =  1.83E-06,  avg # of iterations =  1.1

     negative rho (up, down):  0.727E-01 0.727E-01

     total cpu time spent up to now is     1612.4 secs

     total energy              =    -515.58929266 Ry
     Harris-Foulkes estimate   =    -515.58941554 Ry
     estimated scf accuracy    <       0.00105275 Ry

     total magnetization       =    -0.00 Bohr mag/cell
     absolute magnetization    =     0.00 Bohr mag/cell

     iteration #  4     ecut=    40.00 Ry     beta=0.30
     Davidson diagonalization with overlap
     ethr =  1.83E-06,  avg # of iterations =  1.0

     negative rho (up, down):  0.727E-01 0.727E-01

     total cpu time spent up to now is     1709.3 secs

     total energy              =    -515.58935336 Ry
     Harris-Foulkes estimate   =    -515.58935122 Ry
     estimated scf accuracy    <       0.00002349 Ry

     total magnetization       =    -0.00 Bohr mag/cell
     absolute magnetization    =     0.00 Bohr mag/cell

     iteration #  5     ecut=    40.00 Ry     beta=0.30
     Davidson diagonalization with overlap
     ethr =  4.20E-08,  avg # of iterations =  1.0

     negative rho (up, down):  0.727E-01 0.727E-01

     total cpu time spent up to now is     1821.7 secs

     total energy              =    -515.58935769 Ry
     Harris-Foulkes estimate   =    -515.58935580 Ry
     estimated scf accuracy    <       0.00000730 Ry

     total magnetization       =    -0.00 Bohr mag/cell
     absolute magnetization    =     0.00 Bohr mag/cell

     iteration #  6     ecut=    40.00 Ry     beta=0.30
     Davidson diagonalization with overlap
     ethr =  1.30E-08,  avg # of iterations =  1.0

     negative rho (up, down):  0.727E-01 0.727E-01

     total cpu time spent up to now is     1914.7 secs

     End of self-consistent calculation

 ------ SPIN UP ------------


          k = 0.0000 0.0000 0.0000 (  1875 PWs)   bands (ev):

   -60.8180 -60.8126 -31.0419 -31.0408 -30.6806 -30.6800 -30.5910 -30.5696
    -7.3743  -6.3526  -5.5216  -5.5215   4.4041   4.5055   5.6021   6.0987
     6.0990   8.4120   8.4124   8.6894  10.0037  10.3279  10.3281  10.8473
    11.0616  11.3638  11.4566  11.4571  11.6045  14.0718  14.3972  17.0916
    17.0923  18.5349  18.5597  22.3558  22.3559  26.0130  26.9500  27.3248
    28.6026  29.5238  30.1821  30.1852  31.2793  33.0214  34.6573  34.6594
    35.7324  35.7357  36.4384  38.4425  38.4447  38.8495  39.9425  41.4276
    41.5544  41.7707  41.8995  43.2266  43.2282  43.3603  44.5268  44.5278
    44.7388  45.5681  45.5736  47.3654  47.7433  49.8623  50.4078  50.4106
    51.0513  51.7627  51.8667  51.8681  52.2765  52.2783  52.8782  52.8848
    53.9092

          k = 0.0000 0.0000 0.3038 (  1871 PWs)   bands (ev):

   -60.8129 -60.8085 -31.0358 -31.0347 -30.6687 -30.6682 -30.6623 -30.6452
    -7.0396  -6.1788  -5.7026  -5.7025   4.7997   5.0422   6.0292   6.1283
     6.1289   7.6131   8.5520   8.8593   8.8602   9.2183   9.2188  10.5151
    11.2939  11.7970  11.9995  12.4474  12.4474  14.0342  14.8008  16.4958
    16.4965  17.7763  19.7473  23.7388  23.7389  26.1588  26.4232  27.7210
    27.9505  28.6241  29.6800  29.6829  29.7954  33.8404  34.7057  34.7060
    35.5179  35.5190  35.8860  38.3965  38.7395  39.3236  39.4793  39.4800
    40.7292  40.7305  40.7307  41.2475  44.2210  45.5039  45.5080  46.4701
    46.7208  47.2725  47.5226  47.5270  47.9561  48.9312  49.4254  49.4273
    50.6292  51.4128  51.4128  53.1201  53.1375  53.6265  54.2174  54.2177
    56.2202

          k = 0.0000 0.0000 0.6076 (  1824 PWs)   bands (ev):

   -60.8041 -60.8024 -31.0257 -31.0247 -30.7740 -30.7677 -30.6495 -30.6490
    -6.3590  -6.0058  -5.9847  -5.9847   5.4468   5.7213   6.5233   6.5245
     6.7524   7.2331   7.2346   7.9028   7.9030   8.9343   9.3722   9.3734
    12.0578  12.0885  12.5455  13.1175  13.3591  13.3594  15.5895  16.0356
    16.0361  16.2348  22.1746  24.5140  25.9205  25.9205  26.6482  27.4757
    27.6915  27.9558  28.5173  28.5199  28.9037  30.8033  34.0795  34.0805
    36.0770  36.0775  37.3235  37.8589  38.2951  39.1550  39.3743  39.7323
    39.7332  41.5318  41.5345  41.6769  45.1510  45.3655  45.3706  47.0210
    47.0218  47.8907  48.2144  48.2358  48.3318  48.3336  49.6433  51.0670
    51.0710  51.5096  51.7278  51.8724  53.5503  53.5545  55.0215  55.6405
    55.6880

          k =-0.0000 0.2022 0.0000 (  1860 PWs)   bands (ev):

   -60.8175 -60.8131 -31.0409 -31.0399 -30.6818 -30.6812 -30.5889 -30.5716
    -7.2375  -6.3314  -5.6803  -5.5946   4.6664   4.8084   5.8669   6.1290
     6.1434   7.9435   8.0419   8.5854   9.4254   9.5283   9.9833  10.7401
    11.4257  11.7485  11.8668  11.9120  11.9866  14.1307  14.5870  16.9092
    16.9467  18.1778  19.1049  22.2675  22.6550  25.9665  26.5549  27.0781
    28.2975  29.9385  30.2649  30.8408  31.6890  32.9227  33.4428  33.6111
    35.1857  36.3151  36.7112  38.0501  38.5188  39.1587  40.2904  40.7869
    41.2520  42.0721  42.8820  43.0031  43.0567  44.0557  44.9464  45.3298
    46.0020  46.0867  46.2868  47.5146  47.6304  49.0550  49.7655  50.4586
    50.4949  50.5117  50.5872  51.2307  52.2257  52.3264  52.5550  54.1924
    55.3722

          k =-0.0000 0.2022 0.3038 (  1850 PWs)   bands (ev):

   -60.8125 -60.8089 -31.0354 -31.0343 -30.6707 -30.6702 -30.6590 -30.6456
    -6.9254  -6.1451  -5.8399  -5.7541   5.0366   5.2338   5.9779   6.1190
     6.5429   7.4189   7.8787   8.5172   8.6307   9.2427   9.3510  10.5063
    11.2692  12.1842  12.2453  12.3389  12.6647  13.8382  15.1414  16.0922
    16.3878  17.8155  20.1730  23.4118  23.9619  26.3082  26.3938  27.2904
    28.0020  28.4604  29.0573  29.8587  31.0589  33.3242  33.5458  34.1625
    35.2327  35.6299  37.3007  38.1112  38.2966  38.6942  39.2886  39.9891
    40.5273  41.1243  41.7821  43.0581  45.0661  45.0865  45.9520  46.1774
    46.3207  46.7106  47.0270  47.7442  48.9521  49.0583  49.1734  49.4439
    49.7895  51.2863  51.7726  52.8013  52.9056  53.2218  54.0629  54.6258
    55.6889

          k =-0.0000 0.2022 0.6076 (  1845 PWs)   bands (ev):

   -60.8040 -60.8025 -31.0266 -31.0256 -30.7729 -30.7678 -30.6493 -30.6488
    -6.3845  -6.1821  -5.9196  -5.8346   5.4862   5.7047   5.9575   6.3601
     6.9540   7.2030   7.6458   8.0788   8.2775   9.0730   9.1785   9.3563
    11.6891  12.2184  12.5409  12.5623  13.4869  13.5587  15.1955  15.2672
    16.5815  17.1194  22.2586  24.1901  25.4871  26.0278  26.7699  27.0005
    27.9899  28.0313  28.1700  28.3342  30.1311  30.6004  33.5706  33.9014
    35.6695  36.1146  37.0872  37.7732  39.0716  39.3315  39.3817  39.6766
    40.8218  41.1200  41.7769  42.6449  45.1396  45.4701  45.9182  46.2500
    46.8144  46.8213  47.6473  48.3692  48.4463  48.9551  49.4811  50.7844
    50.9266  51.4473  52.3252  52.5927  54.0075  54.0432  54.2993  54.7768
    55.3569

          k =-0.0000 0.4043 0.0000 (  1860 PWs)   bands (ev):

   -60.8162 -60.8144 -31.0394 -31.0384 -30.6838 -30.6833 -30.5835 -30.5769
    -6.8707  -6.4465  -5.8784  -5.7640   5.2991   5.4193   6.1930   6.2085
     6.6871   7.1497   7.1739   7.9911   8.5455   8.8777   9.9960  10.3580
    11.8995  12.1377  12.2682  12.3922  12.6796  13.4872  15.8423  16.6187
    16.6617  17.1943  20.3447  21.5979  23.5752  24.9343  26.7927  26.9204
    28.2167  29.6543  30.6029  31.0664  31.6237  32.3387  32.7628  34.3853
    34.8161  36.1170  37.3444  37.9701  38.6001  38.6726  39.0915  39.1080
    42.3354  42.6238  43.0286  43.3668  44.9474  44.9999  45.1160  45.9716
    46.5632  47.4100  48.0046  48.0548  48.4174  48.7386  48.7989  49.2696
    49.7298  49.7340  50.2138  50.3161  51.4520  51.8981  54.1755  54.7069
    54.8803

          k =-0.0000 0.4043 0.3038 (  1846 PWs)   bands (ev):

   -60.8115 -60.8100 -31.0348 -31.0337 -30.6733 -30.6729 -30.6532 -30.6481
    -6.6170  -6.2226  -6.0103  -5.8800   5.6257   5.6639   6.0607   6.1124
     6.8493   7.0959   7.5646   7.8979   7.9605   8.6492   9.8451  10.1968
    11.7526  12.1066  12.6020  12.7024  13.0646  13.3848  15.4902  15.5707
    16.6020  17.3833  21.2645  22.4819  24.6910  25.7262  26.8539  27.0391
    27.9730  27.9794  28.8514  30.1838  31.3204  32.1059  33.4751  34.5844
    35.2115  35.6561  37.4170  37.4203  38.1856  38.5913  39.3684  39.6306
    40.7284  42.5249  43.1757  43.9165  44.5898  44.9829  46.1683  46.3190
    46.4856  47.1338  47.6761  47.7543  48.8622  49.2325  49.3289  49.4297
    50.3612  51.0203  51.1994  52.5385  52.6301  53.2638  53.9335  54.2089
    55.0249

          k =-0.0000 0.4043 0.6076 (  1842 PWs)   bands (ev):

   -60.8037 -60.8028 -31.0279 -31.0269 -30.7706 -30.7687 -30.6491 -30.6485
    -6.3943  -6.3278  -5.8106  -5.7664   5.5076   5.5435   5.8089   5.9750
     7.1164   7.5321   7.7685   8.4551   8.5803   8.6403   9.3323   9.9442
    11.0810  11.6352  12.4490  12.5683  13.6365  13.6458  14.7195  14.8552
    17.3411  17.6221  22.6513  23.4104  25.3235  25.7042  26.7217  26.9451
    27.4713  27.8055  28.8124  29.1409  29.7558  30.5345  33.3853  33.9362
    35.7891  36.1586  37.0455  37.3998  39.3055  39.4483  39.8480  39.9645
    40.5572  41.3161  43.7132  43.8425  44.1348  44.3409  45.7223  45.8063
    46.9879  47.0044  47.6049  48.1051  48.5102  48.7621  49.9727  51.2946
    52.0125  52.1883  52.1910  52.5888  53.5768  53.9997  54.2086  55.3653
    55.5730

          k = 0.2021 0.2021 0.0000 (  1847 PWs)   bands (ev):

   -60.8171 -60.8135 -31.0425 -31.0382 -30.6838 -30.6799 -30.5871 -30.5732
    -7.1367  -6.3381  -5.8330  -5.5671   4.4511   5.4074   6.0736   6.1057
     6.2111   7.1770   8.3224   8.5278   9.3549   9.5234   9.6427  10.5938
    11.1984  11.4669  12.1341  12.2953  12.3446  13.9963  14.8662  16.6399
    17.0882  17.8257  19.6402  22.5012  22.6193  25.8807  25.9676  27.0182
    28.0921  29.9030  30.3492  31.9545  32.1012  32.9039  33.3835  33.5511
    34.2030  35.7657  36.2557  37.3859  38.8563  39.4463  39.7385  41.0008
    41.7704  41.8835  42.7211  43.6451  43.8671  44.5448  45.2924  45.9203
    46.0370  46.1160  47.3527  47.5119  47.6882  48.8346  48.8395  49.3286
    49.9557  50.4436  51.3738  51.5621  52.5913  52.8811  53.0554  54.0113
    54.1266

          k = 0.2021 0.2021 0.3038 (  1846 PWs)   bands (ev):

   -60.8122 -60.8092 -31.0362 -31.0336 -30.6735 -30.6682 -30.6576 -30.6466
    -6.8379  -6.1197  -5.9807  -5.7431   4.9094   5.6405   5.8585   6.2461
     6.7345   7.1121   7.9141   8.1305   8.6899   9.1435   9.5653  10.3243
    11.3645  11.8054  12.2945  12.7860  12.7873  13.6967  15.2443  15.8889
    16.4984  17.6662  20.5878  23.4737  23.7843  26.2527  26.3885  26.5831
    27.9802  28.3928  29.7430  30.2339  31.0049  32.2148  33.6496  34.4888
    35.3496  35.5337  36.9061  37.7092  38.7149  38.9828  39.5250  39.6325
    40.5383  41.6035  43.0743  43.1469  44.9595  45.0116  45.5358  46.0766
    46.2422  47.1781  47.4366  48.2609  48.6649  48.8022  49.3806  49.5865
    49.6628  50.3813  51.3945  51.9579  53.1268  53.8548  54.5773  55.0918
    55.8097

          k = 0.2021 0.2021 0.6076 (  1836 PWs)   bands (ev):

   -60.8039 -60.8026 -31.0268 -31.0261 -30.7726 -30.7678 -30.6492 -30.6490
    -6.4003  -6.1240  -6.0183  -5.7707   5.5254   5.7206   5.9253   6.1081
     6.6518   7.6979   7.7069   8.0612   8.3683   8.9490   9.2331   9.6389
    11.4712  12.2658  12.5442  12.6566  12.9940  13.7955  14.6835  16.0275
    16.1585  17.4244  22.3380  24.1784  24.7449  26.1331  26.1427  27.1110
    27.1736  28.1832  28.7973  29.4046  29.7878  31.2230  33.0487  33.8521
    35.4257  35.9076  36.5357  38.5587  38.8076  39.8362  40.1398  40.2458
    40.9542  41.0753  42.2803  43.0878  44.7757  45.0084  45.8605  46.1108
    46.6891  46.7166  47.5440  48.2371  48.2574  48.7205  49.6547  50.4821
    50.5714  51.9250  52.3323  52.7579  53.2789  53.8700  54.8001  55.2217
    55.5288

          k = 0.2021 0.4043 0.0000 (  1852 PWs)   bands (ev):

   -60.8160 -60.8145 -31.0418 -31.0387 -30.6837 -30.6811 -30.5829 -30.5775
    -6.8664  -6.5282  -5.8490  -5.6826   4.7269   5.3676   6.1007   6.1861
[...]
    35.2767  35.9340  37.2319  37.3676  38.1401  38.5291  39.3539  39.7688
    40.7278  42.5316  43.2593  43.9581  44.3864  44.7615  45.9433  46.3377
    46.3884  47.0031  47.6086  47.7032  48.9030  49.3978  49.5578  49.6776
    50.3651  51.0036  51.2636  52.4866  52.5128  53.2528  53.8574  54.2022
    54.9344

          k = 0.0000 0.4090 0.5938 (  1856 PWs)   bands (ev):

   -60.8159 -60.8153 -31.0431 -31.0431 -30.7844 -30.7823 -30.6242 -30.6242
    -6.3539  -6.2718  -5.8251  -5.7972   5.5506   5.5663   5.9655   6.1083
     7.1301   7.5030   7.8167   8.4831   8.6149   8.6636   9.3781   9.9537
    11.1309  11.6578  12.2510  12.3304  13.6572  13.6668  14.6377  14.7719
    17.2489  17.5250  22.5700  23.3056  25.1800  25.5172  26.6614  27.0119
    27.6856  27.8008  28.9246  29.3208  29.9321  30.7237  33.6454  34.1165
    35.6843  36.0407  36.9921  37.5066  39.1649  39.4242  39.9811  40.1772
    40.3925  41.1691  43.1179  43.7896  44.0479  44.3528  45.6367  45.7971
    47.0665  47.1676  47.4732  47.9156  48.4746  48.5980  49.6170  50.9629
    51.8620  52.3506  52.5009  52.5807  53.8272  53.8301  54.1857  54.8162
    56.0342

          k = 0.2045 0.2045 0.0000 (  1844 PWs)   bands (ev):

   -60.8266 -60.8228 -31.0541 -31.0512 -30.6521 -30.6489 -30.6360 -30.6205
    -7.1347  -6.3352  -5.7865  -5.5047   4.4636   5.4495   5.9887   6.1348
     6.1678   7.2974   8.3853   8.4348   9.3588   9.4440   9.7889  10.5998
    11.3398  11.3934  12.2517  12.2854  12.2902  13.9623  14.9281  16.6690
    17.1223  17.8563  19.6688  22.4528  22.5872  25.8422  26.0607  27.0764
    28.4084  29.8216  30.0679  31.4652  32.2410  32.3397  33.5888  33.7926
    34.4497  35.7615  36.0615  37.0789  38.9085  39.3250  39.6725  41.4957
    41.5500  41.8741  42.2463  42.8378  44.3788  44.8524  45.2161  45.9242
    46.1015  46.1019  47.0662  47.5489  47.7883  48.5525  48.6304  49.3932
    50.0042  50.6975  51.7342  51.8637  52.0996  52.9523  52.9620  54.4786
    54.6953

          k = 0.2045 0.2045 0.2969 (  1848 PWs)   bands (ev):

   -60.8228 -60.8197 -31.0491 -31.0479 -30.6948 -30.6827 -30.6407 -30.6397
    -6.8478  -6.1320  -5.9320  -5.6764   4.8883   5.6995   5.8741   6.2891
     6.7813   7.0475   7.9115   8.1434   8.7221   9.2661   9.6256  10.3585
    11.3244  11.8127  12.3185  12.7482  12.7772  13.6782  15.3108  15.8482
    16.4558  17.6337  20.5699  23.3918  23.6794  26.0079  26.3836  26.7132
    28.2626  28.2690  29.6267  30.3342  31.0792  32.2429  33.8841  34.0817
    35.4248  35.6192  36.9891  37.5389  38.8363  38.9623  39.2953  39.3343
    40.5787  41.8952  42.9930  43.2867  44.8702  45.1180  45.3710  45.7882
    46.3538  46.9465  47.4927  48.1229  48.5781  49.0133  49.3299  49.5568
    49.7523  50.4288  51.5427  52.1308  52.5827  54.1637  54.2202  55.2817
    55.7341

          k = 0.2045 0.2045 0.5938 (  1855 PWs)   bands (ev):

   -60.8162 -60.8150 -31.0430 -31.0409 -30.7869 -30.7813 -30.6247 -30.6242
    -6.3782  -6.1367  -5.9430  -5.7947   5.5229   5.8200   5.9253   6.1334
     6.7658   7.6584   7.8532   8.1427   8.4091   9.0104   9.2722   9.6250
    11.5323  12.0746  12.3213  12.6887  12.9927  13.8224  14.6208  15.7715
    16.1724  17.3252  22.2663  24.0434  24.6863  25.9159  25.9560  27.0344
    27.4354  28.1762  29.1109  29.5662  29.8995  31.4830  33.3107  33.8380
    35.4352  35.9931  36.6245  38.3617  38.8356  39.8565  39.8664  40.4641
    40.8393  41.1363  42.3302  42.6658  44.8656  45.1590  45.5044  46.1894
    46.5805  46.8315  47.4263  48.0618  48.2659  48.5275  49.5058  50.0190
    50.7965  51.8921  52.2439  52.4527  53.3162  53.8513  54.2912  55.1756
    55.5875

          k = 0.2045 0.4090 0.0000 (  1836 PWs)   bands (ev):

   -60.8254 -60.8239 -31.0535 -31.0517 -30.6521 -30.6501 -30.6311 -30.6252
    -6.8598  -6.5183  -5.8080  -5.6292   4.7507   5.4118   6.0149   6.1050
     6.8615   7.3676   7.8921   8.5539   8.6897   9.0343   9.5692  10.0982
    11.7421  11.7623  12.1710  12.2823  12.9078  13.5247  15.8389  16.6672
    16.9563  16.9688  20.7997  21.8989  23.4927  24.7657  26.2435  26.6147
    28.4793  29.4115  30.9334  31.9801  32.1621  32.2702  32.6173  33.7745
    34.6428  34.9707  36.7539  37.0960  37.9990  38.8060  39.4694  40.2511
    42.2834  42.6485  42.9627  43.3608  44.1491  45.1543  45.3269  45.9109
    47.2965  47.5866  47.6951  47.9899  48.0811  48.8411  49.3274  49.6366
    49.8317  50.4276  51.0374  51.1403  51.7801  53.1970  53.7473  54.0834
    54.4199

          k = 0.2045 0.4090 0.2969 (  1842 PWs)   bands (ev):

   -60.8218 -60.8206 -31.0490 -31.0482 -30.6912 -30.6864 -30.6407 -30.6401
    -6.6079  -6.2992  -5.9348  -5.7772   5.1396   5.7336   5.9137   6.0522
     7.0459   7.3566   7.8302   8.0489   8.4838   8.8999   9.5744   9.9333
    11.7853  11.9929  12.3345  12.6875  12.9897  13.3139  15.5699  15.9480
    16.5152  17.1596  21.5370  22.6121  24.3715  25.4279  26.2268  26.4027
    28.2233  28.3681  29.4749  30.2327  31.1756  32.1046  33.5290  34.7155
    35.3916  35.7020  37.0322  37.2135  38.3035  38.9691  39.3072  39.8920
    41.0793  42.1130  42.8895  43.5810  44.7932  45.1656  45.5217  45.9942
    46.9096  47.5545  47.7613  48.2881  48.5524  48.9373  49.4556  49.8197
    50.3387  50.8858  51.2976  51.8586  52.0638  53.1433  54.1404  54.5663
    55.5536

          k = 0.2045 0.4090 0.5938 (  1856 PWs)   bands (ev):

   -60.8159 -60.8154 -31.0433 -31.0420 -30.7851 -30.7825 -30.6247 -30.6243
    -6.3194  -6.2144  -5.8966  -5.8136   5.5338   5.6455   5.9775   6.0515
     6.7949   7.3662   8.0417   8.2400   8.5728   8.9802   9.5656  10.0479
    11.2830  11.9188  12.1946  12.3000  13.2806  13.6560  14.6842  15.2162
    16.8882  17.3885  22.6306  23.3766  24.5392  25.2380  26.1113  26.6057
    27.4329  28.3171  29.0186  29.6502  30.4748  31.6533  33.3775  34.3100
    35.4289  35.9947  36.3447  37.5974  39.3520  39.5754  40.1704  40.4726
    41.7441  42.3219  42.8598  43.0866  44.4475  44.5861  45.3452  45.7915
    46.3363  46.8986  47.2318  48.0621  48.5636  49.4053  49.6714  49.9336
    50.3536  51.4859  51.7189  52.3932  53.2386  53.9789  54.4227  55.2060
    55.5339

          k = 0.4090 0.4090 0.0000 (  1828 PWs)   bands (ev):

   -60.8249 -60.8244 -31.0552 -31.0541 -30.6500 -30.6488 -30.6293 -30.6270
    -6.8134  -6.6866  -5.6728  -5.5808   4.4711   4.7553   5.9419   5.9900
     7.4564   8.0768   8.2784   8.9130   8.9875   9.2313   9.2982   9.9193
    11.3084  11.4135  11.7392  11.7748  13.3170  13.5347  15.9188  16.3732
    16.9521  17.1146  21.6791  22.2928  23.4731  24.1810  25.7609  25.9309
    28.7546  29.2633  31.9789  32.2327  32.3339  32.8025  33.2607  33.3328
    33.9620  34.2716  35.8677  36.5287  37.6921  39.4990  39.9914  40.6565
    42.1046  42.9583  43.2844  43.3541  43.6274  44.3328  44.4404  45.3845
    47.8271  48.0051  48.0450  48.1294  48.8924  49.2186  49.8889  50.4226
    50.9399  51.0518  51.2431  51.9318  52.0368  52.1712  53.5576  54.1158
    55.3174

          k = 0.4090 0.4090 0.2969 (  1845 PWs)   bands (ev):

   -60.8214 -60.8210 -31.0500 -31.0495 -30.6896 -30.6876 -30.6402 -30.6399
    -6.5617  -6.4516  -5.8186  -5.7452   4.8994   5.1462   5.8024   5.8815
     7.6898   7.9413   8.0948   8.5317   8.8600   9.0191   9.0994   9.4291
    11.7882  11.9860  12.1697  12.2227  13.0498  13.1677  15.9766  16.2514
    16.4513  16.7087  22.1991  22.7765  24.0546  24.6503  26.0620  26.1406
    28.1732  28.4262  29.1899  29.6495  31.9866  33.0039  33.5351  35.0583
    35.1860  35.2752  37.2359  37.8719  38.3438  39.4359  39.6357  39.7290
    41.4111  41.6022  42.6675  43.4774  44.3674  44.9100  45.6001  45.7836
    46.3337  46.9493  47.6787  48.1879  48.8858  49.7476  49.9539  50.6518
    50.7495  51.2442  51.6805  51.7409  52.4215  52.6105  54.2290  54.2431
    54.5072

          k = 0.4090 0.4090 0.5938 (  1845 PWs)   bands (ev):

   -60.8157 -60.8155 -31.0423 -31.0415 -30.7852 -30.7838 -30.6251 -30.6248
    -6.2155  -6.1148  -6.0016  -5.9055   5.6007   5.7456   5.8467   5.9631
     6.6814   7.0039   8.0305   8.1117   8.8627   9.0766   9.8892  10.1183
    11.7963  12.1354  12.2019  12.3837  12.7677  13.2686  15.1951  15.7534
    16.3554  16.8812  22.7061  23.0472  24.4280  25.2516  25.4632  26.0902
    26.9315  27.3441  29.9769  30.1158  31.6070  32.0912  33.9017  34.5515
    35.5597  35.9119  36.1170  37.1592  39.7236  39.8304  40.3993  40.8541
    41.9100  42.2713  43.3790  44.2805  44.4731  45.0862  45.3259  46.1537
    46.1890  46.2896  47.1897  47.4786  48.1370  49.0738  49.1264  50.1157
    50.5152  50.8082  50.9470  51.7825  52.0375  53.1944  53.3456  53.8830
    55.4883

          k =-0.2045 0.2045 0.0000 (  1844 PWs)   bands (ev):

   -60.8266 -60.8228 -31.0542 -31.0512 -30.6521 -30.6489 -30.6360 -30.6205
    -7.1348  -6.3351  -5.7863  -5.5048   4.4633   5.4497   5.9886   6.1349
     6.1678   7.2975   8.3854   8.4349   9.3587   9.4439   9.7889  10.5998
    11.3398  11.3934  12.2517  12.2853  12.2902  13.9624  14.9281  16.6690
    17.1225  17.8562  19.6687  22.4528  22.5873  25.8422  26.0606  27.0765
    28.4084  29.8216  30.0681  31.4653  32.2407  32.3397  33.5887  33.7926
    34.4499  35.7614  36.0616  37.0791  38.9085  39.3250  39.6726  41.4957
    41.5499  41.8743  42.2463  42.8378  44.3790  44.8521  45.2161  45.9241
    46.1016  46.1018  47.0661  47.5488  47.7879  48.5525  48.6302  49.3929
    50.0040  50.6977  51.7344  51.8639  52.0996  52.9529  52.9620  54.4786
    54.6951

          k =-0.2045 0.2045-0.2969 (  1848 PWs)   bands (ev):

   -60.8228 -60.8197 -31.0492 -31.0478 -30.6948 -30.6827 -30.6407 -30.6397
    -6.8479  -6.1319  -5.9319  -5.6765   4.8881   5.6997   5.8741   6.2892
     6.7812   7.0476   7.9116   8.1433   8.7222   9.2660   9.6256  10.3585
    11.3244  11.8127  12.3185  12.7481  12.7772  13.6782  15.3108  15.8483
    16.4559  17.6337  20.5699  23.3918  23.6794  26.0079  26.3835  26.7132
    28.2627  28.2690  29.6267  30.3344  31.0791  32.2428  33.8843  34.0816
    35.4248  35.6192  36.9890  37.5390  38.8365  38.9623  39.2955  39.3344
    40.5787  41.8952  42.9929  43.2866  44.8701  45.1179  45.3714  45.7881
    46.3540  46.9462  47.4926  48.1228  48.5782  49.0130  49.3301  49.5566
    49.7526  50.4287  51.5429  52.1307  52.5826  54.1635  54.2202  55.2818
    55.7338

          k =-0.2045 0.2045-0.5938 (  1855 PWs)   bands (ev):

   -60.8162 -60.8150 -31.0430 -31.0410 -30.7869 -30.7813 -30.6247 -30.6242
    -6.3782  -6.1368  -5.9431  -5.7945   5.5228   5.8201   5.9253   6.1334
     6.7657   7.6585   7.8531   8.1426   8.4091   9.0103   9.2722   9.6250
    11.5323  12.0746  12.3213  12.6888  12.9928  13.8223  14.6207  15.7715
    16.1725  17.3251  22.2663  24.0434  24.6862  25.9160  25.9560  27.0343
    27.4354  28.1762  29.1110  29.5661  29.8997  31.4829  33.3108  33.8379
    35.4353  35.9931  36.6247  38.3617  38.8356  39.8565  39.8666  40.4638
    40.8394  41.1362  42.3302  42.6659  44.8657  45.1595  45.5043  46.1892
    46.5806  46.8314  47.4264  48.0615  48.2663  48.5275  49.5058  50.0192
    50.7964  51.8922  52.2439  52.4527  53.3161  53.8511  54.2911  55.1758
    55.5877

          k =-0.2045 0.4090 0.0000 (  1836 PWs)   bands (ev):

   -60.8254 -60.8239 -31.0536 -31.0517 -30.6521 -30.6501 -30.6311 -30.6252
    -6.8599  -6.5182  -5.8078  -5.6293   4.7505   5.4120   6.0147   6.1052
     6.8615   7.3677   7.8921   8.5540   8.6896   9.0342   9.5692  10.0981
    11.7421  11.7623  12.1709  12.2822  12.9078  13.5248  15.8390  16.6671
    16.9564  16.9687  20.7996  21.8989  23.4927  24.7657  26.2434  26.6148
    28.4792  29.4117  30.9334  31.9801  32.1620  32.2702  32.6173  33.7745
    34.6428  34.9707  36.7537  37.0962  37.9988  38.8061  39.4694  40.2512
    42.2834  42.6486  42.9627  43.3607  44.1494  45.1543  45.3267  45.9110
    47.2969  47.5862  47.6950  47.9894  48.0810  48.8410  49.3272  49.6366
    49.8316  50.4279  51.0375  51.1405  51.7804  53.1969  53.7471  54.0832
    54.4201

          k =-0.2045 0.4090-0.2969 (  1842 PWs)   bands (ev):

   -60.8218 -60.8206 -31.0491 -31.0482 -30.6912 -30.6864 -30.6407 -30.6401
    -6.6080  -6.2991  -5.9347  -5.7773   5.1394   5.7338   5.9137   6.0523
     7.0459   7.3566   7.8301   8.0490   8.4839   8.8998   9.5743   9.9333
    11.7853  11.9929  12.3345  12.6875  12.9897  13.3139  15.5698  15.9481
    16.5153  17.1596  21.5370  22.6121  24.3715  25.4278  26.2268  26.4026
    28.2233  28.3681  29.4749  30.2327  31.1756  32.1047  33.5291  34.7154
    35.3915  35.7020  37.0323  37.2134  38.3036  38.9692  39.3073  39.8920
    41.0794  42.1129  42.8895  43.5811  44.7931  45.1656  45.5218  45.9942
    46.9097  47.5546  47.7610  48.2877  48.5526  48.9373  49.4557  49.8198
    50.3385  50.8859  51.2976  51.8586  52.0638  53.1432  54.1404  54.5663
    55.5536

          k =-0.2045 0.4090-0.5938 (  1856 PWs)   bands (ev):

   -60.8159 -60.8154 -31.0433 -31.0421 -30.7851 -30.7825 -30.6247 -30.6244
    -6.3193  -6.2145  -5.8967  -5.8135   5.5339   5.6454   5.9774   6.0515
     6.7948   7.3663   8.0418   8.2400   8.5727   8.9803   9.5656  10.0479
    11.2830  11.9188  12.1945  12.3000  13.2807  13.6560  14.6841  15.2163
    16.8883  17.3884  22.6306  23.3766  24.5391  25.2380  26.1114  26.6056
    27.4330  28.3171  29.0186  29.6502  30.4748  31.6533  33.3775  34.3100
    35.4290  35.9948  36.3448  37.5973  39.3520  39.5754  40.1703  40.4727
    41.7441  42.3218  42.8598  43.0865  44.4478  44.5860  45.3451  45.7916
    46.3364  46.8985  47.2319  48.0620  48.5636  49.4055  49.6715  49.9336
    50.3534  51.4860  51.7189  52.3932  53.2386  53.9788  54.4228  55.2059
    55.5338

          k =-0.4090 0.4090 0.0000 (  1828 PWs)   bands (ev):

   -60.8249 -60.8244 -31.0553 -31.0541 -30.6500 -30.6488 -30.6293 -30.6270
    -6.8135  -6.6864  -5.6727  -5.5809   4.4709   4.7555   5.9417   5.9901
     7.4564   8.0767   8.2785   8.9130   8.9877   9.2313   9.2981   9.9192
    11.3085  11.4135  11.7392  11.7748  13.3170  13.5348  15.9188  16.3732
    16.9519  17.1147  21.6790  22.2929  23.4732  24.1809  25.7608  25.9310
    28.7545  29.2635  31.9788  32.2327  32.3339  32.8026  33.2606  33.3326
    33.9618  34.2719  35.8680  36.5284  37.6917  39.4993  39.9914  40.6566
    42.1050  42.9581  43.2843  43.3542  43.6270  44.3329  44.4403  45.3846
    47.8271  48.0047  48.0450  48.1298  48.8921  49.2186  49.8893  50.4223
    50.9397  51.0521  51.2432  51.9315  52.0367  52.1714  53.5575  54.1158
    55.3179

          k =-0.4090 0.4090-0.2969 (  1845 PWs)   bands (ev):

   -60.8214 -60.8210 -31.0500 -31.0495 -30.6896 -30.6875 -30.6402 -30.6398
    -6.5618  -6.4514  -5.8185  -5.7453   4.8992   5.1464   5.8023   5.8816
     7.6899   7.9412   8.0947   8.5318   8.8600   9.0191   9.0994   9.4290
    11.7882  11.9860  12.1696  12.2227  13.0498  13.1677  15.9765  16.2515
    16.4515  16.7086  22.1990  22.7766  24.0547  24.6502  26.0621  26.1405
    28.1731  28.4263  29.1899  29.6494  31.9866  33.0042  33.5350  35.0582
    35.1860  35.2751  37.2358  37.8722  38.3435  39.4361  39.6358  39.7290
    41.4112  41.6023  42.6675  43.4775  44.3674  44.9099  45.5999  45.7837
    46.3335  46.9492  47.6791  48.1874  48.8859  49.7478  49.9537  50.6519
    50.7495  51.2442  51.6804  51.7409  52.4215  52.6106  54.2291  54.2429
    54.5070

          k =-0.4090 0.4090-0.5938 (  1845 PWs)   bands (ev):

   -60.8157 -60.8155 -31.0423 -31.0416 -30.7852 -30.7838 -30.6251 -30.6249
    -6.2154  -6.1149  -6.0017  -5.9054   5.6009   5.7454   5.8467   5.9632
     6.6813   7.0040   8.0304   8.1117   8.8625   9.0768   9.8892  10.1184
    11.7963  12.1354  12.2019  12.3838  12.7677  13.2685  15.1951  15.7534
    16.3556  16.8811  22.7062  23.0472  24.4280  25.2516  25.4632  26.0902
    26.9316  27.3440  29.9769  30.1158  31.6070  32.0913  33.9016  34.5515
    35.5596  35.9121  36.1170  37.1593  39.7237  39.8303  40.3993  40.8540
    41.9100  42.2713  43.3791  44.2808  44.4731  45.0861  45.3255  46.1536
    46.1887  46.2899  47.1899  47.4790  48.1369  49.0736  49.1266  50.1157
    50.5152  50.8081  50.9473  51.7826  52.0378  53.1939  53.3456  53.8829
    55.4881

     the Fermi energy is    12.6968 ev

!    total energy              =    -515.59289710 Ry
     Harris-Foulkes estimate   =    -515.59289676 Ry
     estimated scf accuracy    <          3.4E-09 Ry

     The total energy is the sum of the following terms:

     one-electron contribution =    -169.93246437 Ry
     hartree contribution      =     116.34433430 Ry
     xc contribution           =     -78.42109998 Ry
     ewald contribution        =    -383.58284136 Ry
     smearing contrib. (-TS)   =      -0.00082569 Ry

     total magnetization       =    -0.00 Bohr mag/cell
     absolute magnetization    =     0.00 Bohr mag/cell

     convergence has been achieved in  12 iterations

     Forces acting on atoms (Ry/au):


     negative rho (up, down):  0.730E-01 0.730E-01
     atom    1 type  1   force =     0.00000000    0.00000000    0.00000000
     atom    2 type  1   force =     0.00000000    0.00000000    0.00000000
     atom    3 type  2   force =     0.00020082    0.00020082    0.00000000
     atom    4 type  2   force =    -0.00020082   -0.00020082    0.00000000
     atom    5 type  2   force =     0.00020179   -0.00020179    0.00000000
     atom    6 type  2   force =    -0.00020179    0.00020179    0.00000000

     Total force =     0.000569     Total SCF correction =     0.000077
     SCF correction compared to forces is large: reduce conv_thr to get better values


     entering subroutine stress ...


     negative rho (up, down):  0.730E-01 0.730E-01
          total   stress  (Ry/bohr**3)                   (kbar)     P=  -19.59
  -0.00013879   0.00000017   0.00000000        -20.42      0.03      0.00
   0.00000017  -0.00013879   0.00000000          0.03    -20.42      0.00
   0.00000000   0.00000000  -0.00012187          0.00      0.00    -17.93


     init_run     :     89.61s CPU     90.13s WALL (       2 calls)
     electrons    :   6985.16s CPU   7138.93s WALL (       8 calls)
     update_pot   :    105.01s CPU    121.20s WALL (       6 calls)
     forces       :    218.10s CPU    218.63s WALL (       8 calls)
     stress       :    649.05s CPU    649.63s WALL (       8 calls)

     Called by init_run:
     wfcinit      :     58.83s CPU     59.23s WALL (       2 calls)
     potinit      :      6.38s CPU      6.44s WALL (       2 calls)

     Called by electrons:
     c_bands      :   5235.75s CPU   5340.48s WALL (      62 calls)
     sum_band     :   1298.00s CPU   1304.48s WALL (      62 calls)
     v_of_rho     :     64.12s CPU     64.54s WALL (      66 calls)
     newd         :    421.98s CPU    423.02s WALL (      66 calls)
     mix_rho      :      7.93s CPU      7.96s WALL (      62 calls)

     Called by c_bands:
     init_us_2    :     31.62s CPU     31.74s WALL (    7668 calls)
     cegterg      :   5127.20s CPU   5231.60s WALL (    3348 calls)

     Called by *egterg:
     h_psi        :   3326.28s CPU   3357.51s WALL (    9274 calls)
     s_psi        :    202.87s CPU    203.32s WALL (    9274 calls)
     g_psi        :     17.71s CPU     17.84s WALL (    5818 calls)
     cdiaghg      :    392.03s CPU    392.69s WALL (    8626 calls)

     Called by h_psi:
     add_vuspsi   :    203.60s CPU    204.22s WALL (    9274 calls)

     General routines
     calbec       :    317.70s CPU    329.88s WALL (   13486 calls)
     fft          :     61.85s CPU     62.14s WALL (    2350 calls)
     ffts         :      0.42s CPU      0.44s WALL (     256 calls)
     fftw         :   2018.48s CPU   2029.88s WALL ( 1519166 calls)
     interpolate  :      9.38s CPU      9.53s WALL (     256 calls)

     Parallel routines
     fft_scatter  :    357.58s CPU    366.79s WALL ( 1521772 calls)

     PWSCF        :     2h14m CPU        2h17m WALL


   This run was terminated on:  18:58:44  31Jan2014            

=------------------------------------------------------------------------------=
   JOB DONE.
=------------------------------------------------------------------------------=
