
     Program PWSCF v.5.0.2 (svn rev. 9656) starts on  4May2014 at 17:46:33 

     This program is part of the open-source Quantum ESPRESSO suite
     for quantum simulation of materials; please cite
         "P. Giannozzi et al., J. Phys.:Condens. Matter 21 395502 (2009);
          URL http://www.quantum-espresso.org", 
     in publications or presentations arising from this work. More details at
     http://www.quantum-espresso.org/quote.php

     Parallel version (MPI), running on    16 processors
     K-points division:     npool     =       4
     R & G space division:  proc/nbgrp/npool/nimage =       4

     Current dimensions of program PWSCF are:
     Max number of different atomic species (ntypx) = 10
     Max number of k-points (npk) =  40000
     Max angular momentum in pseudopotentials (lmaxx) =  3
     Reading input from pwscf.in
Warning: card &CELL ignored
Warning: card / ignored

     Subspace diagonalization in iterative solution of the eigenvalue problem:
     a serial algorithm will be used


     Parallelization info
     --------------------
     sticks:   dense  smooth     PW     G-vecs:    dense   smooth      PW
     Min        1244     397    112               291872    52833    7934
     Max        1245     398    113               291883    52857    7939
     Sum        4979    1589    451              1167509   211387   31747



     bravais-lattice index     =            0
     lattice parameter (alat)  =      10.7336  a.u.
     unit-cell volume          =    6184.1966 (a.u.)^3
     number of atoms/cell      =           31
     number of atomic types    =            3
     number of electrons       =       238.00 (up: 130.00, down: 108.00)
     number of Kohn-Sham states=          345
     kinetic-energy cutoff     =      40.0000  Ry
     charge density cutoff     =     500.0000  Ry
     convergence threshold     =      1.0E-06
     mixing beta               =       0.7000
     number of iterations used =            8  plain     mixing
     Exchange-correlation      = SLA  PW   PBE  PBE ( 1 4 3 4 0)
     EXX-fraction              =        0.00
     nstep                     =           50


     celldm(1)=  10.733644  celldm(2)=   0.000000  celldm(3)=   0.000000
     celldm(4)=   0.000000  celldm(5)=   0.000000  celldm(6)=   0.000000

     crystal axes: (cart. coord. in units of alat)
               a(1) = (   1.000000   0.000000   0.000000 )  
               a(2) = (   0.000000   1.085558   0.000000 )  
               a(3) = (   0.000000   0.000000   4.606685 )  

     reciprocal axes: (cart. coord. in units 2 pi/alat)
               b(1) = (  1.000000  0.000000  0.000000 )  
               b(2) = (  0.000000  0.921185  0.000000 )  
               b(3) = (  0.000000  0.000000  0.217076 )  


     PseudoPot. # 1 for O  read from file:
     /home/camp/zhonxu/pseudo/o_pbe_v1.01.uspp.F.UPF
     MD5 check sum: 2bcb18d16ea4b960afae9ec6d52f22d2
     Pseudo is Ultrasoft + core correction, Zval =  6.0
     Generated by new atomic code, or converted to UPF format
     Using radial grid of  737 points,  5 beta functions with: 
                l(1) =   0
                l(2) =   0
                l(3) =   1
                l(4) =   1
                l(5) =   2
     Q(r) pseudized with  8 coefficients,  rinner =    0.900   0.900   0.900
                                                       0.900   0.900

     PseudoPot. # 2 for Mn read from file:
     /home/camp/zhonxu/pseudo/mn_pbe_v1.uspp.F.UPF
     MD5 check sum: 5fd7c7b5c956fd19902447332617373a
     Pseudo is Ultrasoft + core correction, Zval = 15.0
     Generated by new atomic code, or converted to UPF format
     Using radial grid of  859 points,  6 beta functions with: 
                l(1) =   0
                l(2) =   0
                l(3) =   1
                l(4) =   1
                l(5) =   2
                l(6) =   2
     Q(r) pseudized with  6 coefficients,  rinner =    1.150   1.150   1.150
                                                       1.150   1.150

     PseudoPot. # 3 for H  read from file:
     /home/camp/zhonxu/pseudo/h_pbe_v1.uspp.F.UPF
     MD5 check sum: 3408e3ff4ec8b0a4e358431e7e038a48
     Pseudo is Ultrasoft, Zval =  1.0
     Generated by new atomic code, or converted to UPF format
     Using radial grid of  615 points,  2 beta functions with: 
                l(1) =   0
                l(2) =   0
     Q(r) pseudized with  8 coefficients,  rinner =    0.700

     atomic species   valence    mass     pseudopotential
        O0             6.00    15.99940     O ( 1.00)
        Mn1           15.00    54.93800     Mn( 1.00)
        H2             1.00     1.00794     H ( 1.00)

     Starting magnetic structure 
     atomic species   magnetization
        O0           0.000
        Mn1          0.600
        H2           0.000


     Simplified LDA+U calculation (l_max = 2) with parameters (eV):
     atomic species    L          U    alpha       J0     beta
        Mn1            2     7.5000   0.0000   0.0000   0.0000



     No symmetry found



   Cartesian axes

     site n.     atom                  positions (alat units)
         1           O0  tau(   1) = (   0.0000000   0.0000000   1.7399910  )
         2           O0  tau(   2) = (   0.0000000   0.5427791   1.8336449  )
         3           Mn1 tau(   3) = (   0.2500000   0.5427791   2.0703364  )
         4           Mn1 tau(   4) = (   0.0000000   0.0000000   2.0664668  )
         5           O0  tau(   5) = (   0.2500000   0.8684466   2.0675263  )
         6           O0  tau(   6) = (   0.2500000   0.2171117   2.0713959  )
         7           O0  tau(   7) = (   0.0000000   0.5427791   2.2853304  )
         8           O0  tau(   8) = (   0.0000000   0.0000000   2.4130738  )
         9           Mn1 tau(   9) = (   0.2500000   0.0000000   2.6404597  )
        10           Mn1 tau(  10) = (   0.0000000   0.5427791   2.6100556  )
        11           O0  tau(  11) = (   0.2500000   0.7598908   2.6550169  )
        12           O0  tau(  12) = (   0.2500000   0.3256675   2.6553393  )
        13           O0  tau(  13) = (   0.0000000   0.0000000   2.8422786  )
        14           O0  tau(  14) = (   0.5000000   0.0000000   1.7417876  )
        15           O0  tau(  15) = (   0.5000000   0.5427791   1.8324472  )
        16           Mn1 tau(  16) = (   0.7500000   0.5427791   2.0703364  )
        17           Mn1 tau(  17) = (   0.5000000   0.0000000   2.0689544  )
        18           O0  tau(  18) = (   0.7500000   0.8684466   2.0673421  )
        19           O0  tau(  19) = (   0.7500000   0.2171117   2.0716263  )
        20           O0  tau(  20) = (   0.5000000   0.5427791   2.2770384  )
        21           O0  tau(  21) = (   0.5000000   0.0000000   2.4133962  )
        22           Mn1 tau(  22) = (   0.7500000   0.0000000   2.6405058  )
        23           Mn1 tau(  23) = (   0.5000000   0.5427791   2.7093297  )
        24           O0  tau(  24) = (   0.7500000   0.7598908   2.6549708  )
        25           O0  tau(  25) = (   0.7500000   0.3256675   2.6552472  )
        26           O0  tau(  26) = (   0.5000000   0.0000000   2.8420483  )
        27           H2  tau(  27) = (   0.0000300   0.7005108   1.7564369  )
        28           H2  tau(  28) = (   0.5000400   0.7015529   1.7568515  )
        29           H2  tau(  29) = (   0.1610500   0.0407627   1.6853097  )
        30           H2  tau(  30) = (   0.6609300   0.0408604   1.6868759  )
        31           O0  tau(  31) = (   0.5000700   0.5432134   2.9889094  )

     number of k points=    20  Methfessel-Paxton smearing, width (Ry)=  0.0100
                       cart. coord. in units 2pi/alat
        k(    1) = (   0.0000000   0.0000000   0.0000000), wk =   0.0625000
        k(    2) = (   0.0000000   0.2302962   0.0000000), wk =   0.1250000
        k(    3) = (   0.0000000  -0.4605925   0.0000000), wk =   0.0625000
        k(    4) = (   0.2500000   0.0000000   0.0000000), wk =   0.1250000
        k(    5) = (   0.2500000   0.2302962   0.0000000), wk =   0.1250000
        k(    6) = (   0.2500000  -0.4605925   0.0000000), wk =   0.1250000
        k(    7) = (  -0.5000000   0.0000000   0.0000000), wk =   0.0625000
        k(    8) = (  -0.5000000   0.2302962   0.0000000), wk =   0.1250000
        k(    9) = (  -0.5000000  -0.4605925   0.0000000), wk =   0.0625000
        k(   10) = (  -0.2500000   0.2302962   0.0000000), wk =   0.1250000
        k(   11) = (   0.0000000   0.0000000   0.0000000), wk =   0.0625000
        k(   12) = (   0.0000000   0.2302962   0.0000000), wk =   0.1250000
        k(   13) = (   0.0000000  -0.4605925   0.0000000), wk =   0.0625000
        k(   14) = (   0.2500000   0.0000000   0.0000000), wk =   0.1250000
        k(   15) = (   0.2500000   0.2302962   0.0000000), wk =   0.1250000
        k(   16) = (   0.2500000  -0.4605925   0.0000000), wk =   0.1250000
        k(   17) = (  -0.5000000   0.0000000   0.0000000), wk =   0.0625000
        k(   18) = (  -0.5000000   0.2302962   0.0000000), wk =   0.1250000
        k(   19) = (  -0.5000000  -0.4605925   0.0000000), wk =   0.0625000
        k(   20) = (  -0.2500000   0.2302962   0.0000000), wk =   0.1250000

     Dense  grid:  1167509 G-vectors     FFT dimensions: (  80,  90, 360)

     Smooth grid:   211387 G-vectors     FFT dimensions: (  45,  48, 200)

     Largest allocated arrays     est. size (Mb)     dimensions
        Kohn-Sham Wavefunctions        34.96 Mb     (   6641,  345)
        Atomic wavefunctions           18.65 Mb     (   6641,  184)
        NL pseudopotentials            40.43 Mb     (   6641,  399)
        Each V/rho on FFT grid         19.78 Mb     ( 648000,   2)
        Each G-vector array             2.23 Mb     ( 291883)
        G-vector shells                 0.97 Mb     ( 127585)
     Largest temporary arrays     est. size (Mb)     dimensions
        Auxiliary wavefunctions       139.84 Mb     (   6641, 1380)
        Each subspace H/S matrix       29.06 Mb     (1380,1380)
        Each <psi_i|beta_j> matrix      2.10 Mb     (    399,  345)
        Arrays for rho mixing          79.10 Mb     ( 648000,   8)

     Check: negative/imaginary core charge=   -0.000022    0.000000

     Initial potential from superposition of free atoms
     Check: negative starting charge=(component1):   -0.000737
     Check: negative starting charge=(component2):   -0.000364

     starting charge  229.99987, renormalised to  238.00000

     negative rho (up, down):  0.762E-03 0.377E-03
     Number of +U iterations with fixed ns =  0
     Starting occupations:
 --- enter write_ns ---
 LDA+U parameters:
U( 2)     =  7.50000000
alpha( 2) =  0.00000000
atom    3   Tr[ns(na)] (up, down, total) =   5.00000  0.00000  5.00000
   spin  1
    eigenvalues: 
  1.000  1.000  1.000  1.000  1.000
    eigenvectors:
  1.000  0.000  0.000  0.000  0.000
  0.000  1.000  0.000  0.000  0.000
  0.000  0.000  1.000  0.000  0.000
  0.000  0.000  0.000  1.000  0.000
  0.000  0.000  0.000  0.000  1.000
    occupations:
  1.000  0.000  0.000  0.000  0.000
  0.000  1.000  0.000  0.000  0.000
  0.000  0.000  1.000  0.000  0.000
  0.000  0.000  0.000  1.000  0.000
  0.000  0.000  0.000  0.000  1.000
   spin  2
    eigenvalues: 
  0.000  0.000  0.000  0.000  0.000
    eigenvectors:
  1.000  0.000  0.000  0.000  0.000
  0.000  1.000  0.000  0.000  0.000
  0.000  0.000  1.000  0.000  0.000
  0.000  0.000  0.000  1.000  0.000
  0.000  0.000  0.000  0.000  1.000
    occupations:
  0.000  0.000  0.000  0.000  0.000
  0.000  0.000  0.000  0.000  0.000
  0.000  0.000  0.000  0.000  0.000
  0.000  0.000  0.000  0.000  0.000
  0.000  0.000  0.000  0.000  0.000
atomic mag. moment =     5.000000
atom    4   Tr[ns(na)] (up, down, total) =   5.00000  0.00000  5.00000
   spin  1
    eigenvalues: 
  1.000  1.000  1.000  1.000  1.000
    eigenvectors:
  1.000  0.000  0.000  0.000  0.000
  0.000  1.000  0.000  0.000  0.000
  0.000  0.000  1.000  0.000  0.000
  0.000  0.000  0.000  1.000  0.000
  0.000  0.000  0.000  0.000  1.000
    occupations:
  1.000  0.000  0.000  0.000  0.000
  0.000  1.000  0.000  0.000  0.000
  0.000  0.000  1.000  0.000  0.000
  0.000  0.000  0.000  1.000  0.000
  0.000  0.000  0.000  0.000  1.000
   spin  2
    eigenvalues: 
  0.000  0.000  0.000  0.000  0.000
    eigenvectors:
  1.000  0.000  0.000  0.000  0.000
  0.000  1.000  0.000  0.000  0.000
  0.000  0.000  1.000  0.000  0.000
  0.000  0.000  0.000  1.000  0.000
  0.000  0.000  0.000  0.000  1.000
    occupations:
  0.000  0.000  0.000  0.000  0.000
  0.000  0.000  0.000  0.000  0.000
  0.000  0.000  0.000  0.000  0.000
  0.000  0.000  0.000  0.000  0.000
  0.000  0.000  0.000  0.000  0.000
atomic mag. moment =     5.000000
atom    9   Tr[ns(na)] (up, down, total) =   5.00000  0.00000  5.00000
   spin  1
    eigenvalues: 
  1.000  1.000  1.000  1.000  1.000
    eigenvectors:
  1.000  0.000  0.000  0.000  0.000
  0.000  1.000  0.000  0.000  0.000
  0.000  0.000  1.000  0.000  0.000
  0.000  0.000  0.000  1.000  0.000
  0.000  0.000  0.000  0.000  1.000
    occupations:
  1.000  0.000  0.000  0.000  0.000
  0.000  1.000  0.000  0.000  0.000
  0.000  0.000  1.000  0.000  0.000
  0.000  0.000  0.000  1.000  0.000
  0.000  0.000  0.000  0.000  1.000
   spin  2
    eigenvalues: 
  0.000  0.000  0.000  0.000  0.000
    eigenvectors:
  1.000  0.000  0.000  0.000  0.000
  0.000  1.000  0.000  0.000  0.000
  0.000  0.000  1.000  0.000  0.000
  0.000  0.000  0.000  1.000  0.000
  0.000  0.000  0.000  0.000  1.000
    occupations:
  0.000  0.000  0.000  0.000  0.000
  0.000  0.000  0.000  0.000  0.000
  0.000  0.000  0.000  0.000  0.000
  0.000  0.000  0.000  0.000  0.000
  0.000  0.000  0.000  0.000  0.000
atomic mag. moment =     5.000000
atom   10   Tr[ns(na)] (up, down, total) =   5.00000  0.00000  5.00000
   spin  1
    eigenvalues: 
  1.000  1.000  1.000  1.000  1.000
    eigenvectors:
  1.000  0.000  0.000  0.000  0.000
  0.000  1.000  0.000  0.000  0.000
  0.000  0.000  1.000  0.000  0.000
  0.000  0.000  0.000  1.000  0.000
  0.000  0.000  0.000  0.000  1.000
    occupations:
  1.000  0.000  0.000  0.000  0.000
  0.000  1.000  0.000  0.000  0.000
  0.000  0.000  1.000  0.000  0.000
  0.000  0.000  0.000  1.000  0.000
  0.000  0.000  0.000  0.000  1.000
   spin  2
    eigenvalues: 
  0.000  0.000  0.000  0.000  0.000
    eigenvectors:
  1.000  0.000  0.000  0.000  0.000
  0.000  1.000  0.000  0.000  0.000
  0.000  0.000  1.000  0.000  0.000
  0.000  0.000  0.000  1.000  0.000
  0.000  0.000  0.000  0.000  1.000
    occupations:
  0.000  0.000  0.000  0.000  0.000
  0.000  0.000  0.000  0.000  0.000
  0.000  0.000  0.000  0.000  0.000
  0.000  0.000  0.000  0.000  0.000
  0.000  0.000  0.000  0.000  0.000
atomic mag. moment =     5.000000
atom   16   Tr[ns(na)] (up, down, total) =   5.00000  0.00000  5.00000
   spin  1
    eigenvalues: 
  1.000  1.000  1.000  1.000  1.000
    eigenvectors:
  1.000  0.000  0.000  0.000  0.000
  0.000  1.000  0.000  0.000  0.000
  0.000  0.000  1.000  0.000  0.000
  0.000  0.000  0.000  1.000  0.000
  0.000  0.000  0.000  0.000  1.000
    occupations:
  1.000  0.000  0.000  0.000  0.000
  0.000  1.000  0.000  0.000  0.000
  0.000  0.000  1.000  0.000  0.000
  0.000  0.000  0.000  1.000  0.000
  0.000  0.000  0.000  0.000  1.000
   spin  2
    eigenvalues: 
  0.000  0.000  0.000  0.000  0.000
    eigenvectors:
  1.000  0.000  0.000  0.000  0.000
  0.000  1.000  0.000  0.000  0.000
  0.000  0.000  1.000  0.000  0.000
  0.000  0.000  0.000  1.000  0.000
  0.000  0.000  0.000  0.000  1.000
    occupations:
  0.000  0.000  0.000  0.000  0.000
  0.000  0.000  0.000  0.000  0.000
  0.000  0.000  0.000  0.000  0.000
  0.000  0.000  0.000  0.000  0.000
  0.000  0.000  0.000  0.000  0.000
atomic mag. moment =     5.000000
atom   17   Tr[ns(na)] (up, down, total) =   5.00000  0.00000  5.00000
   spin  1
    eigenvalues: 
  1.000  1.000  1.000  1.000  1.000
    eigenvectors:
  1.000  0.000  0.000  0.000  0.000
  0.000  1.000  0.000  0.000  0.000
  0.000  0.000  1.000  0.000  0.000
  0.000  0.000  0.000  1.000  0.000
  0.000  0.000  0.000  0.000  1.000
    occupations:
  1.000  0.000  0.000  0.000  0.000
  0.000  1.000  0.000  0.000  0.000
  0.000  0.000  1.000  0.000  0.000
  0.000  0.000  0.000  1.000  0.000
  0.000  0.000  0.000  0.000  1.000
   spin  2
    eigenvalues: 
  0.000  0.000  0.000  0.000  0.000
    eigenvectors:
  1.000  0.000  0.000  0.000  0.000
  0.000  1.000  0.000  0.000  0.000
  0.000  0.000  1.000  0.000  0.000
  0.000  0.000  0.000  1.000  0.000
  0.000  0.000  0.000  0.000  1.000
    occupations:
  0.000  0.000  0.000  0.000  0.000
  0.000  0.000  0.000  0.000  0.000
  0.000  0.000  0.000  0.000  0.000
  0.000  0.000  0.000  0.000  0.000
  0.000  0.000  0.000  0.000  0.000
atomic mag. moment =     5.000000
atom   22   Tr[ns(na)] (up, down, total) =   5.00000  0.00000  5.00000
   spin  1
    eigenvalues: 
  1.000  1.000  1.000  1.000  1.000
    eigenvectors:
  1.000  0.000  0.000  0.000  0.000
  0.000  1.000  0.000  0.000  0.000
  0.000  0.000  1.000  0.000  0.000
  0.000  0.000  0.000  1.000  0.000
  0.000  0.000  0.000  0.000  1.000
    occupations:
  1.000  0.000  0.000  0.000  0.000
  0.000  1.000  0.000  0.000  0.000
  0.000  0.000  1.000  0.000  0.000
  0.000  0.000  0.000  1.000  0.000
  0.000  0.000  0.000  0.000  1.000
   spin  2
    eigenvalues: 
  0.000  0.000  0.000  0.000  0.000
    eigenvectors:
  1.000  0.000  0.000  0.000  0.000
  0.000  1.000  0.000  0.000  0.000
  0.000  0.000  1.000  0.000  0.000
  0.000  0.000  0.000  1.000  0.000
  0.000  0.000  0.000  0.000  1.000
    occupations:
  0.000  0.000  0.000  0.000  0.000
  0.000  0.000  0.000  0.000  0.000
  0.000  0.000  0.000  0.000  0.000
  0.000  0.000  0.000  0.000  0.000
  0.000  0.000  0.000  0.000  0.000
atomic mag. moment =     5.000000
atom   23   Tr[ns(na)] (up, down, total) =   5.00000  0.00000  5.00000
   spin  1
    eigenvalues: 
  1.000  1.000  1.000  1.000  1.000
    eigenvectors:
  1.000  0.000  0.000  0.000  0.000
  0.000  1.000  0.000  0.000  0.000
  0.000  0.000  1.000  0.000  0.000
  0.000  0.000  0.000  1.000  0.000
  0.000  0.000  0.000  0.000  1.000
    occupations:
  1.000  0.000  0.000  0.000  0.000
  0.000  1.000  0.000  0.000  0.000
  0.000  0.000  1.000  0.000  0.000
  0.000  0.000  0.000  1.000  0.000
  0.000  0.000  0.000  0.000  1.000
   spin  2
    eigenvalues: 
  0.000  0.000  0.000  0.000  0.000
    eigenvectors:
  1.000  0.000  0.000  0.000  0.000
  0.000  1.000  0.000  0.000  0.000
  0.000  0.000  1.000  0.000  0.000
  0.000  0.000  0.000  1.000  0.000
  0.000  0.000  0.000  0.000  1.000
    occupations:
  0.000  0.000  0.000  0.000  0.000
  0.000  0.000  0.000  0.000  0.000
  0.000  0.000  0.000  0.000  0.000
  0.000  0.000  0.000  0.000  0.000
  0.000  0.000  0.000  0.000  0.000
atomic mag. moment =     5.000000
N of occupied +U levels =  40.0000000
 --- exit write_ns ---
 Atomic wfc used for LDA+U Projector are NOT orthogonalized
     Starting wfc are  184 randomized atomic wfcs

     total cpu time spent up to now is      138.5 secs

     per-process dynamical memory:   417.7 Mb

     Self-consistent Calculation

     iteration #  1     ecut=    40.00 Ry     beta=0.70
     Davidson diagonalization with overlap
     ethr =  1.00E-02,  avg # of iterations =  5.5
 --- enter write_ns ---
 LDA+U parameters:
U( 2)     =  7.50000000
alpha( 2) =  0.00000000
atom    3   Tr[ns(na)] (up, down, total) =   4.46467  0.44348  4.90815
   spin  1
    eigenvalues: 
  0.737  0.797  0.960  0.984  0.987
    eigenvectors:
  0.260  0.003  0.021  0.225  0.491
  0.012  0.986  0.000  0.001  0.000
  0.001  0.000  0.962  0.022  0.015
  0.727  0.009  0.014  0.084  0.166
  0.000  0.002  0.003  0.668  0.328
    occupations:
  0.920  0.003  0.007 -0.109 -0.003
  0.003  0.797 -0.002  0.006 -0.008
  0.007 -0.002  0.961  0.003  0.001
 -0.109  0.006  0.003  0.803 -0.002
 -0.003 -0.008  0.001 -0.002  0.985
   spin  2
    eigenvalues: 
  0.043  0.046  0.048  0.147  0.161
    eigenvectors:
  0.386  0.367  0.061  0.015  0.171
  0.000  0.000  0.000  0.936  0.063
  0.488  0.267  0.245  0.000  0.000
  0.089  0.083  0.014  0.049  0.766
  0.036  0.284  0.679  0.000  0.000
    occupations:
  0.066  0.000 -0.001  0.045  0.000
  0.000  0.148  0.000 -0.004  0.002
 -0.001  0.000  0.045  0.001 -0.001
  0.045 -0.004  0.001  0.138 -0.000
  0.000  0.002 -0.001 -0.000  0.047
atomic mag. moment =     4.021193
atom    4   Tr[ns(na)] (up, down, total) =   4.39730  0.44822  4.84552
   spin  1
    eigenvalues: 
  0.705  0.800  0.946  0.962  0.985
    eigenvectors:
  0.000  0.989  0.008  0.001  0.002
  0.000  0.008  0.985  0.004  0.003
  0.000  0.000  0.004  0.994  0.001
  0.000  0.002  0.002  0.001  0.995
  1.000  0.000  0.000  0.000  0.000
    occupations:
  0.801  0.013  0.004  0.008  0.001
  0.013  0.945  0.001 -0.003  0.001
  0.004  0.001  0.962 -0.001 -0.000
  0.008 -0.003 -0.001  0.985 -0.000
  0.001  0.001 -0.000 -0.000  0.705
   spin  2
    eigenvalues: 
  0.043  0.046  0.051  0.150  0.158
    eigenvectors:
  0.009  0.000  0.000  0.000  0.990
  0.019  0.707  0.273  0.000  0.001
  0.007  0.266  0.727  0.000  0.000
  0.965  0.026  0.000  0.000  0.009
  0.000  0.000  0.000  1.000  0.000
    occupations:
  0.156  0.003  0.001 -0.011  0.000
  0.003  0.048 -0.002  0.000 -0.001
  0.001 -0.002  0.050  0.000  0.000
 -0.011  0.000  0.000  0.044  0.000
  0.000 -0.001  0.000  0.000  0.150
atomic mag. moment =     3.949077
atom    9   Tr[ns(na)] (up, down, total) =   4.62376  0.49370  5.11746
   spin  1
    eigenvalues: 
  0.805  0.819  0.996  0.999  1.005
    eigenvectors:
  0.150  0.005  0.845  0.000  0.000
  0.031  0.969  0.000  0.000  0.000
  0.000  0.000  0.000  0.109  0.891
  0.818  0.026  0.155  0.000  0.000
  0.000  0.000  0.000  0.891  0.109
    occupations:
  0.966  0.001 -0.000 -0.069  0.000
  0.001  0.819  0.000  0.002  0.000
 -0.000  0.000  1.004 -0.000  0.002
 -0.069  0.002 -0.000  0.835  0.000
  0.000  0.000  0.002  0.000  1.000
   spin  2
    eigenvalues: 
  0.049  0.054  0.057  0.166  0.167
    eigenvectors:
  0.000  0.854  0.000  0.146  0.000
  0.000  0.000  0.000  0.001  0.999
  0.999  0.000  0.001  0.000  0.000
  0.000  0.146  0.000  0.853  0.001
  0.001  0.000  0.999  0.000  0.000
    occupations:
  0.071  0.000  0.000  0.040 -0.000
  0.000  0.167  0.000 -0.000 -0.000
  0.000  0.000  0.049  0.000  0.000
  0.040 -0.000  0.000  0.150 -0.000
 -0.000 -0.000  0.000 -0.000  0.057
atomic mag. moment =     4.130054
atom   10   Tr[ns(na)] (up, down, total) =   4.92927  0.37701  5.30628
   spin  1
    eigenvalues: 
  0.937  0.987  0.999  1.001  1.005
    eigenvectors:
  0.000  0.873  0.125  0.000  0.001
  0.000  0.000  0.000  1.000  0.000
  0.000  0.001  0.001  0.000  0.998
  0.000  0.126  0.874  0.000  0.000
  1.000  0.000  0.000  0.000  0.000
    occupations:
  0.988  0.000  0.001  0.004  0.000
  0.000  1.001  0.000  0.000 -0.000
  0.001  0.000  1.005 -0.000 -0.000
  0.004  0.000 -0.000  0.998 -0.000
  0.000 -0.000 -0.000 -0.000  0.937
   spin  2
    eigenvalues: 
  0.040  0.042  0.047  0.104  0.144
    eigenvectors:
  0.020  0.000  0.000  0.980  0.000
  0.000  0.000  1.000  0.000  0.000
  0.000  1.000  0.000  0.000  0.000
  0.980  0.000  0.000  0.020  0.000
  0.000  0.000  0.000  0.000  1.000
    occupations:
  0.102  0.000 -0.000 -0.009 -0.000
  0.000  0.047 -0.000 -0.000  0.000
 -0.000 -0.000  0.042 -0.000 -0.000
 -0.009 -0.000 -0.000  0.042  0.000
 -0.000  0.000 -0.000  0.000  0.144
atomic mag. moment =     4.552255
atom   16   Tr[ns(na)] (up, down, total) =   4.46567  0.44347  4.90914
   spin  1
    eigenvalues: 
  0.737  0.797  0.960  0.985  0.987
    eigenvectors:
  0.261  0.003  0.023  0.266  0.448
  0.009  0.989  0.000  0.001  0.001
  0.001  0.000  0.954  0.036  0.009
  0.729  0.007  0.016  0.098  0.151
  0.000  0.002  0.008  0.598  0.392
    occupations:
  0.920 -0.002  0.008 -0.109  0.002
 -0.002  0.797  0.001 -0.005 -0.008
  0.008  0.001  0.961  0.003 -0.002
 -0.109 -0.005  0.003  0.803  0.001
  0.002 -0.008 -0.002  0.001  0.985
   spin  2
    eigenvalues: 
  0.043  0.046  0.048  0.147  0.161
    eigenvectors:
  0.390  0.365  0.060  0.015  0.171
  0.000  0.000  0.000  0.936  0.063
  0.486  0.273  0.241  0.000  0.000
  0.090  0.082  0.014  0.048  0.766
  0.035  0.280  0.685  0.000  0.000
    occupations:
  0.066 -0.000 -0.001  0.045 -0.000
 -0.000  0.148 -0.000  0.004  0.002
 -0.001 -0.000  0.045  0.001  0.001
  0.045  0.004  0.001  0.138  0.000
 -0.000  0.002  0.001  0.000  0.047
atomic mag. moment =     4.022194
atom   17   Tr[ns(na)] (up, down, total) =   4.39217  0.44771  4.83989
   spin  1
    eigenvalues: 
  0.702  0.797  0.946  0.962  0.984
    eigenvectors:
  0.000  0.990  0.008  0.001  0.001
  0.000  0.008  0.982  0.006  0.004
  0.000  0.000  0.007  0.992  0.000
  0.000  0.002  0.003  0.001  0.994
  1.000  0.000  0.000  0.000  0.000
    occupations:
  0.799  0.013  0.003  0.008  0.000
  0.013  0.945  0.001 -0.003  0.002
  0.003  0.001  0.962 -0.001  0.000
  0.008 -0.003 -0.001  0.984 -0.000
  0.000  0.002  0.000 -0.000  0.702
   spin  2
    eigenvalues: 
  0.043  0.046  0.051  0.150  0.158
    eigenvectors:
  0.009  0.000  0.000  0.000  0.990
  0.017  0.691  0.290  0.000  0.001
  0.007  0.284  0.710  0.000  0.000
  0.967  0.025  0.000  0.000  0.009
  0.000  0.000  0.000  1.000  0.000
    occupations:
  0.157  0.003  0.001 -0.011  0.000
  0.003  0.048 -0.002  0.000 -0.001
  0.001 -0.002  0.049  0.000  0.000
 -0.011  0.000  0.000  0.044  0.000
  0.000 -0.001  0.000  0.000  0.150
atomic mag. moment =     3.944461
atom   22   Tr[ns(na)] (up, down, total) =   4.62234  0.49375  5.11609
   spin  1
    eigenvalues: 
  0.805  0.818  0.996  0.999  1.005
    eigenvectors:
  0.147  0.009  0.845  0.000  0.000
  0.062  0.938  0.000  0.000  0.000
  0.000  0.000  0.000  0.109  0.891
  0.792  0.053  0.155  0.000  0.000
  0.000  0.000  0.000  0.891  0.109
    occupations:
  0.966  0.002 -0.000 -0.069  0.000
  0.002  0.817  0.000  0.003  0.000
 -0.000  0.000  1.004 -0.000 -0.002
 -0.069  0.003 -0.000  0.835  0.000
  0.000  0.000 -0.002  0.000  1.000
   spin  2
    eigenvalues: 
  0.049  0.054  0.057  0.166  0.167
    eigenvectors:
  0.000  0.854  0.000  0.146  0.000
  0.000  0.000  0.000  0.000  1.000
  0.999  0.000  0.001  0.000  0.000
  0.000  0.146  0.000  0.854  0.000
  0.001  0.000  0.999  0.000  0.000
    occupations:
  0.071 -0.000  0.000  0.040  0.000
 -0.000  0.167 -0.000  0.000 -0.000
  0.000 -0.000  0.049  0.000 -0.000
  0.040  0.000  0.000  0.150 -0.000
  0.000 -0.000 -0.000 -0.000  0.057
atomic mag. moment =     4.128593
atom   23   Tr[ns(na)] (up, down, total) =   4.72258  0.53349  5.25607
   spin  1
    eigenvalues: 
  0.795  0.930  0.995  0.998  1.005
    eigenvectors:
  0.999  0.000  0.000  0.001  0.000
  0.000  0.000  1.000  0.000  0.000
  0.000  0.000  0.000  0.000  1.000
  0.001  0.000  0.000  0.999  0.000
  0.000  1.000  0.000  0.000  0.000
    occupations:
  0.795  0.000  0.001  0.007  0.000
  0.000  0.995  0.000  0.000  0.000
  0.001  0.000  1.005 -0.000 -0.000
  0.007  0.000 -0.000  0.998 -0.000
  0.000  0.000 -0.000 -0.000  0.930
   spin  2
    eigenvalues: 
  0.038  0.083  0.089  0.135  0.188
    eigenvectors:
  0.004  0.000  0.000  0.000  0.996
  0.000  0.000  1.000  0.000  0.000
  0.000  1.000  0.000  0.000  0.000
  0.996  0.000  0.000  0.000  0.004
  0.000  0.000  0.000  1.000  0.000
    occupations:
  0.187 -0.000 -0.000 -0.010 -0.000
 -0.000  0.089 -0.000 -0.000 -0.000
 -0.000 -0.000  0.083  0.000 -0.000
 -0.010 -0.000  0.000  0.038  0.000
 -0.000 -0.000 -0.000  0.000  0.135
atomic mag. moment =     4.189091
N of occupied +U levels =  40.2985997
 --- exit write_ns ---

     negative rho (up, down):  0.927E-03 0.108E-02

     total cpu time spent up to now is      645.2 secs

     total energy              =   -2296.45362341 Ry
     Harris-Foulkes estimate   =   -2315.97075978 Ry
     estimated scf accuracy    <      31.35749327 Ry

     total magnetization       =    22.00 Bohr mag/cell
     absolute magnetization    =    43.73 Bohr mag/cell

     iteration #  2     ecut=    40.00 Ry     beta=0.70
     Davidson diagonalization with overlap
     ethr =  1.00E-02,  avg # of iterations =  7.0

     negative rho (up, down):  0.738E-02 0.447E-02

     total cpu time spent up to now is     1165.1 secs

     total energy              =   -2159.57527176 Ry
     Harris-Foulkes estimate   =   -2595.45853912 Ry
     estimated scf accuracy    <    5299.61695275 Ry

     total magnetization       =    22.00 Bohr mag/cell
     absolute magnetization    =    22.44 Bohr mag/cell

     iteration #  3     ecut=    40.00 Ry     beta=0.70
     Davidson diagonalization with overlap
     ethr =  1.00E-02,  avg # of iterations =  6.0

     negative rho (up, down):  0.677E-02 0.409E-02

     total cpu time spent up to now is     1702.1 secs

     total energy              =   -2310.78920808 Ry
     Harris-Foulkes estimate   =   -2321.92081341 Ry
     estimated scf accuracy    <      52.78938105 Ry

     total magnetization       =    22.00 Bohr mag/cell
     absolute magnetization    =    39.09 Bohr mag/cell

     iteration #  4     ecut=    40.00 Ry     beta=0.70
     Davidson diagonalization with overlap
     ethr =  1.00E-02,  avg # of iterations =  3.9

     negative rho (up, down):  0.465E-02 0.269E-02

     total cpu time spent up to now is     2001.4 secs

     total energy              =   -2314.86297488 Ry
     Harris-Foulkes estimate   =   -2321.56112289 Ry
     estimated scf accuracy    <      35.53476574 Ry

     total magnetization       =    22.00 Bohr mag/cell
     absolute magnetization    =    41.79 Bohr mag/cell

     iteration #  5     ecut=    40.00 Ry     beta=0.70
     Davidson diagonalization with overlap
     ethr =  1.00E-02,  avg # of iterations =  2.0

     negative rho (up, down):  0.367E-02 0.167E-02

     total cpu time spent up to now is     2273.8 secs

     total energy              =   -2317.25879690 Ry
     Harris-Foulkes estimate   =   -2318.85733029 Ry
     estimated scf accuracy    <       6.29970126 Ry

     total magnetization       =    22.00 Bohr mag/cell
     absolute magnetization    =    38.64 Bohr mag/cell

     iteration #  6     ecut=    40.00 Ry     beta=0.70
     Davidson diagonalization with overlap
     ethr =  2.65E-03,  avg # of iterations =  3.5

     negative rho (up, down):  0.299E-02 0.110E-02

     total cpu time spent up to now is     2561.2 secs

     total energy              =   -2317.45543897 Ry
     Harris-Foulkes estimate   =   -2318.60721157 Ry
     estimated scf accuracy    <       7.04203608 Ry

     total magnetization       =    22.00 Bohr mag/cell
     absolute magnetization    =    39.09 Bohr mag/cell

     iteration #  7     ecut=    40.00 Ry     beta=0.70
     Davidson diagonalization with overlap
     ethr =  2.65E-03,  avg # of iterations =  1.2

     negative rho (up, down):  0.318E-02 0.138E-02

     total cpu time spent up to now is     2820.0 secs

     total energy              =   -2317.89682942 Ry
     Harris-Foulkes estimate   =   -2318.40125677 Ry
     estimated scf accuracy    <       2.70467873 Ry

     total magnetization       =    22.00 Bohr mag/cell
     absolute magnetization    =    38.93 Bohr mag/cell

     iteration #  8     ecut=    40.00 Ry     beta=0.70
     Davidson diagonalization with overlap
     ethr =  1.14E-03,  avg # of iterations =  1.2

     negative rho (up, down):  0.235E-02 0.124E-02

     total cpu time spent up to now is     3078.0 secs

     total energy              =   -2318.00906100 Ry
     Harris-Foulkes estimate   =   -2318.18775172 Ry
     estimated scf accuracy    <       1.00550326 Ry

     total magnetization       =    22.00 Bohr mag/cell
     absolute magnetization    =    37.90 Bohr mag/cell

     iteration #  9     ecut=    40.00 Ry     beta=0.70
     Davidson diagonalization with overlap
     ethr =  4.22E-04,  avg # of iterations =  4.5

     negative rho (up, down):  0.175E-02 0.112E-02

     total cpu time spent up to now is     3365.5 secs

     total energy              =   -2318.06933047 Ry
     Harris-Foulkes estimate   =   -2318.14055662 Ry
     estimated scf accuracy    <       0.46799228 Ry

     total magnetization       =    22.00 Bohr mag/cell
     absolute magnetization    =    37.69 Bohr mag/cell

     iteration # 10     ecut=    40.00 Ry     beta=0.70
     Davidson diagonalization with overlap
     ethr =  1.97E-04,  avg # of iterations =  3.4

     negative rho (up, down):  0.172E-02 0.113E-02

     total cpu time spent up to now is     3644.6 secs

     total energy              =   -2318.05662679 Ry
     Harris-Foulkes estimate   =   -2318.12861383 Ry
     estimated scf accuracy    <       0.54951145 Ry

     total magnetization       =    22.00 Bohr mag/cell
     absolute magnetization    =    37.70 Bohr mag/cell

     iteration # 11     ecut=    40.00 Ry     beta=0.70
     Davidson diagonalization with overlap
     ethr =  1.97E-04,  avg # of iterations =  1.6

     negative rho (up, down):  0.135E-02 0.120E-02

     total cpu time spent up to now is     3907.2 secs

     total energy              =   -2318.07177635 Ry
     Harris-Foulkes estimate   =   -2318.10904420 Ry
     estimated scf accuracy    <       0.29343192 Ry

     total magnetization       =    22.00 Bohr mag/cell
     absolute magnetization    =    37.74 Bohr mag/cell

     iteration # 12     ecut=    40.00 Ry     beta=0.70
     Davidson diagonalization with overlap
     ethr =  1.23E-04,  avg # of iterations =  6.2

     negative rho (up, down):  0.158E-02 0.117E-02

     total cpu time spent up to now is     4225.7 secs

     total energy              =   -2318.05002300 Ry
     Harris-Foulkes estimate   =   -2318.11302000 Ry
     estimated scf accuracy    <       0.32546310 Ry

     total magnetization       =    22.00 Bohr mag/cell
     absolute magnetization    =    37.08 Bohr mag/cell

     iteration # 13     ecut=    40.00 Ry     beta=0.70
     Davidson diagonalization with overlap
     ethr =  1.23E-04,  avg # of iterations =  3.6

     negative rho (up, down):  0.212E-02 0.121E-02

     total cpu time spent up to now is     4511.8 secs

     total energy              =   -2318.05618429 Ry
     Harris-Foulkes estimate   =   -2318.14848755 Ry
     estimated scf accuracy    <       1.26526128 Ry

     total magnetization       =    22.00 Bohr mag/cell
     absolute magnetization    =    37.17 Bohr mag/cell

     iteration # 14     ecut=    40.00 Ry     beta=0.70
     Davidson diagonalization with overlap
     ethr =  1.23E-04,  avg # of iterations =  1.0

     negative rho (up, down):  0.154E-02 0.121E-02

     total cpu time spent up to now is     4776.5 secs

     total energy              =   -2318.09062197 Ry
     Harris-Foulkes estimate   =   -2318.09919679 Ry
     estimated scf accuracy    <       0.06760606 Ry

     total magnetization       =    22.00 Bohr mag/cell
     absolute magnetization    =    37.16 Bohr mag/cell

     iteration # 15     ecut=    40.00 Ry     beta=0.70
     Davidson diagonalization with overlap
     ethr =  2.84E-05,  avg # of iterations =  3.2

     negative rho (up, down):  0.133E-02 0.125E-02

     total cpu time spent up to now is     5058.3 secs

     total energy              =   -2318.09382112 Ry
     Harris-Foulkes estimate   =   -2318.09613320 Ry
     estimated scf accuracy    <       0.01861692 Ry

     total magnetization       =    22.00 Bohr mag/cell
     absolute magnetization    =    37.06 Bohr mag/cell

     iteration # 16     ecut=    40.00 Ry     beta=0.70
     Davidson diagonalization with overlap
     ethr =  7.82E-06,  avg # of iterations =  5.0

     negative rho (up, down):  0.136E-02 0.128E-02

     total cpu time spent up to now is     5364.3 secs

     total energy              =   -2318.09368576 Ry
     Harris-Foulkes estimate   =   -2318.09717982 Ry
     estimated scf accuracy    <       0.02574931 Ry

     total magnetization       =    22.00 Bohr mag/cell
     absolute magnetization    =    37.03 Bohr mag/cell

     iteration # 17     ecut=    40.00 Ry     beta=0.70
     Davidson diagonalization with overlap
     ethr =  7.82E-06,  avg # of iterations =  3.1

     negative rho (up, down):  0.135E-02 0.131E-02

     total cpu time spent up to now is     5643.7 secs

     total energy              =   -2318.09521566 Ry
     Harris-Foulkes estimate   =   -2318.09653615 Ry
     estimated scf accuracy    <       0.01453132 Ry

     total magnetization       =    22.00 Bohr mag/cell
     absolute magnetization    =    37.01 Bohr mag/cell

     iteration # 18     ecut=    40.00 Ry     beta=0.70
     Davidson diagonalization with overlap
     ethr =  6.11E-06,  avg # of iterations =  1.0

     negative rho (up, down):  0.168E-02 0.150E-02

     total cpu time spent up to now is     5904.0 secs

     total energy              =   -2318.09467880 Ry
     Harris-Foulkes estimate   =   -2318.09744090 Ry
     estimated scf accuracy    <       0.02003408 Ry

     total magnetization       =    22.00 Bohr mag/cell
     absolute magnetization    =    37.01 Bohr mag/cell

     iteration # 19     ecut=    40.00 Ry     beta=0.70
     Davidson diagonalization with overlap
     ethr =  6.11E-06,  avg # of iterations =  2.2

     negative rho (up, down):  0.180E-02 0.157E-02

     total cpu time spent up to now is     6177.7 secs

     total energy              =   -2318.09531738 Ry
     Harris-Foulkes estimate   =   -2318.09733244 Ry
     estimated scf accuracy    <       0.01179018 Ry

     total magnetization       =    22.00 Bohr mag/cell
     absolute magnetization    =    36.95 Bohr mag/cell

     iteration # 20     ecut=    40.00 Ry     beta=0.70
     Davidson diagonalization with overlap
     ethr =  4.95E-06,  avg # of iterations =  1.0

     negative rho (up, down):  0.154E-02 0.144E-02

     total cpu time spent up to now is     6449.5 secs

     total energy              =   -2318.09587452 Ry
     Harris-Foulkes estimate   =   -2318.09701661 Ry
     estimated scf accuracy    <       0.00677366 Ry

     total magnetization       =    22.00 Bohr mag/cell
     absolute magnetization    =    36.92 Bohr mag/cell

     iteration # 21     ecut=    40.00 Ry     beta=0.70
     Davidson diagonalization with overlap
     ethr =  2.85E-06,  avg # of iterations =  1.0

     negative rho (up, down):  0.159E-02 0.146E-02

     total cpu time spent up to now is     6706.2 secs

     total energy              =   -2318.09638259 Ry
     Harris-Foulkes estimate   =   -2318.09686429 Ry
     estimated scf accuracy    <       0.00387782 Ry

     total magnetization       =    22.00 Bohr mag/cell
     absolute magnetization    =    36.89 Bohr mag/cell

     iteration # 22     ecut=    40.00 Ry     beta=0.70
     Davidson diagonalization with overlap
     ethr =  1.63E-06,  avg # of iterations =  1.0

     negative rho (up, down):  0.178E-02 0.156E-02

     total cpu time spent up to now is     6967.6 secs

     total energy              =   -2318.09652677 Ry
     Harris-Foulkes estimate   =   -2318.09679360 Ry
     estimated scf accuracy    <       0.00269353 Ry

     total magnetization       =    22.00 Bohr mag/cell
     absolute magnetization    =    36.87 Bohr mag/cell

     iteration # 23     ecut=    40.00 Ry     beta=0.70
     Davidson diagonalization with overlap
     ethr =  1.13E-06,  avg # of iterations =  3.5

     negative rho (up, down):  0.181E-02 0.156E-02

     total cpu time spent up to now is     7266.1 secs

     total energy              =   -2318.09614246 Ry
     Harris-Foulkes estimate   =   -2318.09744244 Ry
     estimated scf accuracy    <       0.01448792 Ry

     total magnetization       =    22.00 Bohr mag/cell
     absolute magnetization    =    36.82 Bohr mag/cell

     iteration # 24     ecut=    40.00 Ry     beta=0.70
     Davidson diagonalization with overlap
     ethr =  1.13E-06,  avg # of iterations =  2.6

     negative rho (up, down):  0.165E-02 0.149E-02

     total cpu time spent up to now is     7540.8 secs

     total energy              =   -2318.09626913 Ry
     Harris-Foulkes estimate   =   -2318.09718181 Ry
     estimated scf accuracy    <       0.00688368 Ry

     total magnetization       =    22.00 Bohr mag/cell
     absolute magnetization    =    36.82 Bohr mag/cell

     iteration # 25     ecut=    40.00 Ry     beta=0.70
     Davidson diagonalization with overlap
     ethr =  1.13E-06,  avg # of iterations =  1.1

     negative rho (up, down):  0.166E-02 0.150E-02

     total cpu time spent up to now is     7806.8 secs

     total energy              =   -2318.09660576 Ry
     Harris-Foulkes estimate   =   -2318.09702224 Ry
     estimated scf accuracy    <       0.00398274 Ry

     total magnetization       =    22.00 Bohr mag/cell
     absolute magnetization    =    36.84 Bohr mag/cell

     iteration # 26     ecut=    40.00 Ry     beta=0.70
     Davidson diagonalization with overlap
     ethr =  1.13E-06,  avg # of iterations =  1.0

     negative rho (up, down):  0.165E-02 0.149E-02

     total cpu time spent up to now is     8076.2 secs

     total energy              =   -2318.09679997 Ry
     Harris-Foulkes estimate   =   -2318.09687304 Ry
     estimated scf accuracy    <       0.00065702 Ry

     total magnetization       =    22.00 Bohr mag/cell
     absolute magnetization    =    36.84 Bohr mag/cell

     iteration # 27     ecut=    40.00 Ry     beta=0.70
     Davidson diagonalization with overlap
     ethr =  2.76E-07,  avg # of iterations =  1.0

     negative rho (up, down):  0.165E-02 0.149E-02

     total cpu time spent up to now is     8340.7 secs

     total energy              =   -2318.09678969 Ry
     Harris-Foulkes estimate   =   -2318.09691797 Ry
     estimated scf accuracy    <       0.00101291 Ry

     total magnetization       =    22.00 Bohr mag/cell
     absolute magnetization    =    36.82 Bohr mag/cell

     iteration # 28     ecut=    40.00 Ry     beta=0.70
     Davidson diagonalization with overlap
     ethr =  2.76E-07,  avg # of iterations =  1.0

     negative rho (up, down):  0.164E-02 0.149E-02

     total cpu time spent up to now is     8605.9 secs

     total energy              =   -2318.09680535 Ry
     Harris-Foulkes estimate   =   -2318.09694808 Ry
     estimated scf accuracy    <       0.00106505 Ry

     total magnetization       =    22.00 Bohr mag/cell
     absolute magnetization    =    36.80 Bohr mag/cell

     iteration # 29     ecut=    40.00 Ry     beta=0.70
     Davidson diagonalization with overlap
     ethr =  2.76E-07,  avg # of iterations =  1.0

     negative rho (up, down):  0.164E-02 0.149E-02

     total cpu time spent up to now is     8875.2 secs

     total energy              =   -2318.09688777 Ry
     Harris-Foulkes estimate   =   -2318.09690524 Ry
     estimated scf accuracy    <       0.00022576 Ry

     total magnetization       =    22.00 Bohr mag/cell
     absolute magnetization    =    36.80 Bohr mag/cell

     iteration # 30     ecut=    40.00 Ry     beta=0.70
     Davidson diagonalization with overlap
     ethr =  9.49E-08,  avg # of iterations =  1.1

     negative rho (up, down):  0.163E-02 0.149E-02

     total cpu time spent up to now is     9138.2 secs

     total energy              =   -2318.09687959 Ry
     Harris-Foulkes estimate   =   -2318.09691540 Ry
     estimated scf accuracy    <       0.00011638 Ry

     total magnetization       =    22.00 Bohr mag/cell
     absolute magnetization    =    36.79 Bohr mag/cell

     iteration # 31     ecut=    40.00 Ry     beta=0.70
     Davidson diagonalization with overlap
     ethr =  4.89E-08,  avg # of iterations =  2.0

     negative rho (up, down):  0.163E-02 0.149E-02

     total cpu time spent up to now is     9418.0 secs

     total energy              =   -2318.09680210 Ry
     Harris-Foulkes estimate   =   -2318.09700618 Ry
     estimated scf accuracy    <       0.00114097 Ry

     total magnetization       =    22.00 Bohr mag/cell
     absolute magnetization    =    36.79 Bohr mag/cell

     iteration # 32     ecut=    40.00 Ry     beta=0.70
     Davidson diagonalization with overlap
     ethr =  4.89E-08,  avg # of iterations =  2.0

     negative rho (up, down):  0.163E-02 0.148E-02

     total cpu time spent up to now is     9689.0 secs

     total energy              =   -2318.09689389 Ry
     Harris-Foulkes estimate   =   -2318.09692634 Ry
     estimated scf accuracy    <       0.00033414 Ry

     total magnetization       =    22.00 Bohr mag/cell
     absolute magnetization    =    36.80 Bohr mag/cell

     iteration # 33     ecut=    40.00 Ry     beta=0.70
     Davidson diagonalization with overlap
     ethr =  4.89E-08,  avg # of iterations =  1.5

     negative rho (up, down):  0.163E-02 0.148E-02

     total cpu time spent up to now is     9948.5 secs

     total energy              =   -2318.09691026 Ry
     Harris-Foulkes estimate   =   -2318.09691874 Ry
     estimated scf accuracy    <       0.00005015 Ry

     total magnetization       =    22.00 Bohr mag/cell
     absolute magnetization    =    36.78 Bohr mag/cell

     iteration # 34     ecut=    40.00 Ry     beta=0.70
     Davidson diagonalization with overlap
     ethr =  2.11E-08,  avg # of iterations =  1.0

     negative rho (up, down):  0.163E-02 0.148E-02

     total cpu time spent up to now is    10207.2 secs

     total energy              =   -2318.09690035 Ry
     Harris-Foulkes estimate   =   -2318.09692809 Ry
     estimated scf accuracy    <       0.00033989 Ry

     total magnetization       =    22.00 Bohr mag/cell
     absolute magnetization    =    36.78 Bohr mag/cell

     iteration # 35     ecut=    40.00 Ry     beta=0.70
     Davidson diagonalization with overlap
     ethr =  2.11E-08,  avg # of iterations =  1.0

     negative rho (up, down):  0.163E-02 0.148E-02

     total cpu time spent up to now is    10468.8 secs

     total energy              =   -2318.09691071 Ry
     Harris-Foulkes estimate   =   -2318.09691829 Ry
     estimated scf accuracy    <       0.00003487 Ry

     total magnetization       =    22.00 Bohr mag/cell
     absolute magnetization    =    36.78 Bohr mag/cell

     iteration # 36     ecut=    40.00 Ry     beta=0.70
     Davidson diagonalization with overlap
     ethr =  1.47E-08,  avg # of iterations =  1.0

     negative rho (up, down):  0.163E-02 0.148E-02

     total cpu time spent up to now is    10727.7 secs

     total energy              =   -2318.09690651 Ry
     Harris-Foulkes estimate   =   -2318.09692278 Ry
     estimated scf accuracy    <       0.00010561 Ry

     total magnetization       =    22.00 Bohr mag/cell
     absolute magnetization    =    36.78 Bohr mag/cell

     iteration # 37     ecut=    40.00 Ry     beta=0.70
     Davidson diagonalization with overlap
     ethr =  1.47E-08,  avg # of iterations =  1.0

     negative rho (up, down):  0.163E-02 0.148E-02

     total cpu time spent up to now is    10984.4 secs

     total energy              =   -2318.09691100 Ry
     Harris-Foulkes estimate   =   -2318.09692145 Ry
     estimated scf accuracy    <       0.00010225 Ry

     total magnetization       =    22.00 Bohr mag/cell
     absolute magnetization    =    36.78 Bohr mag/cell

     iteration # 38     ecut=    40.00 Ry     beta=0.70
     Davidson diagonalization with overlap
     ethr =  1.47E-08,  avg # of iterations =  1.1

     negative rho (up, down):  0.163E-02 0.148E-02

     total cpu time spent up to now is    11250.0 secs

     total energy              =   -2318.09691481 Ry
     Harris-Foulkes estimate   =   -2318.09691848 Ry
     estimated scf accuracy    <       0.00001386 Ry

     total magnetization       =    22.00 Bohr mag/cell
     absolute magnetization    =    36.78 Bohr mag/cell

     iteration # 39     ecut=    40.00 Ry     beta=0.70
     Davidson diagonalization with overlap
     ethr =  5.82E-09,  avg # of iterations =  1.1

     negative rho (up, down):  0.163E-02 0.148E-02

     total cpu time spent up to now is    11521.4 secs

     total energy              =   -2318.09691549 Ry
     Harris-Foulkes estimate   =   -2318.09691837 Ry
     estimated scf accuracy    <       0.00002976 Ry

     total magnetization       =    22.00 Bohr mag/cell
     absolute magnetization    =    36.78 Bohr mag/cell

     iteration # 40     ecut=    40.00 Ry     beta=0.70
     Davidson diagonalization with overlap
     ethr =  5.82E-09,  avg # of iterations =  1.0

     negative rho (up, down):  0.163E-02 0.148E-02

     total cpu time spent up to now is    11787.8 secs

     total energy              =   -2318.09691713 Ry
     Harris-Foulkes estimate   =   -2318.09691761 Ry
     estimated scf accuracy    <       0.00000382 Ry

     total magnetization       =    22.00 Bohr mag/cell
     absolute magnetization    =    36.78 Bohr mag/cell

     iteration # 41     ecut=    40.00 Ry     beta=0.70
     Davidson diagonalization with overlap
     ethr =  1.60E-09,  avg # of iterations =  1.0

     negative rho (up, down):  0.163E-02 0.148E-02

     total cpu time spent up to now is    12055.0 secs

     total energy              =   -2318.09691684 Ry
     Harris-Foulkes estimate   =   -2318.09691827 Ry
     estimated scf accuracy    <       0.00001006 Ry

     total magnetization       =    22.00 Bohr mag/cell
     absolute magnetization    =    36.78 Bohr mag/cell

     iteration # 42     ecut=    40.00 Ry     beta=0.70
     Davidson diagonalization with overlap
     ethr =  1.60E-09,  avg # of iterations =  1.3

     negative rho (up, down):  0.163E-02 0.148E-02

     total cpu time spent up to now is    12318.0 secs

     total energy              =   -2318.09691597 Ry
     Harris-Foulkes estimate   =   -2318.09691914 Ry
     estimated scf accuracy    <       0.00002333 Ry

     total magnetization       =    22.00 Bohr mag/cell
     absolute magnetization    =    36.77 Bohr mag/cell

     iteration # 43     ecut=    40.00 Ry     beta=0.70
     Davidson diagonalization with overlap
     ethr =  1.60E-09,  avg # of iterations =  1.4

     negative rho (up, down):  0.163E-02 0.148E-02

     total cpu time spent up to now is    12584.2 secs

     total energy              =   -2318.09691720 Ry
     Harris-Foulkes estimate   =   -2318.09691791 Ry
     estimated scf accuracy    <       0.00000411 Ry

     total magnetization       =    22.00 Bohr mag/cell
     absolute magnetization    =    36.78 Bohr mag/cell

     iteration # 44     ecut=    40.00 Ry     beta=0.70
     Davidson diagonalization with overlap
     ethr =  1.60E-09,  avg # of iterations =  1.0

     negative rho (up, down):  0.163E-02 0.148E-02

     total cpu time spent up to now is    12856.0 secs

     total energy              =   -2318.09691727 Ry
     Harris-Foulkes estimate   =   -2318.09691831 Ry
     estimated scf accuracy    <       0.00000948 Ry

     total magnetization       =    22.00 Bohr mag/cell
     absolute magnetization    =    36.77 Bohr mag/cell

     iteration # 45     ecut=    40.00 Ry     beta=0.70
     Davidson diagonalization with overlap
     ethr =  1.60E-09,  avg # of iterations =  1.0

     negative rho (up, down):  0.163E-02 0.148E-02

     total cpu time spent up to now is    13124.7 secs

     total energy              =   -2318.09691775 Ry
     Harris-Foulkes estimate   =   -2318.09691794 Ry
     estimated scf accuracy    <       0.00000275 Ry

     total magnetization       =    22.00 Bohr mag/cell
     absolute magnetization    =    36.77 Bohr mag/cell

     iteration # 46     ecut=    40.00 Ry     beta=0.70
     Davidson diagonalization with overlap
     ethr =  1.16E-09,  avg # of iterations =  1.0

     negative rho (up, down):  0.163E-02 0.148E-02

     total cpu time spent up to now is    13392.9 secs

     total energy              =   -2318.09691791 Ry
     Harris-Foulkes estimate   =   -2318.09691796 Ry
     estimated scf accuracy    <       0.00000121 Ry

     total magnetization       =    22.00 Bohr mag/cell
     absolute magnetization    =    36.77 Bohr mag/cell

     iteration # 47     ecut=    40.00 Ry     beta=0.70
     Davidson diagonalization with overlap
     ethr =  5.10E-10,  avg # of iterations =  1.1

     negative rho (up, down):  0.163E-02 0.148E-02

     total cpu time spent up to now is    13655.4 secs

     total energy              =   -2318.09691779 Ry
     Harris-Foulkes estimate   =   -2318.09691812 Ry
     estimated scf accuracy    <       0.00000229 Ry

     total magnetization       =    22.00 Bohr mag/cell
     absolute magnetization    =    36.77 Bohr mag/cell

     iteration # 48     ecut=    40.00 Ry     beta=0.70
     Davidson diagonalization with overlap
     ethr =  5.10E-10,  avg # of iterations =  1.0

     negative rho (up, down):  0.163E-02 0.148E-02

     total cpu time spent up to now is    13923.3 secs

     total energy              =   -2318.09691790 Ry
     Harris-Foulkes estimate   =   -2318.09691804 Ry
     estimated scf accuracy    <       0.00000126 Ry

     total magnetization       =    22.00 Bohr mag/cell
     absolute magnetization    =    36.77 Bohr mag/cell

     iteration # 49     ecut=    40.00 Ry     beta=0.70
     Davidson diagonalization with overlap
     ethr =  5.10E-10,  avg # of iterations =  1.0

     negative rho (up, down):  0.163E-02 0.148E-02

     total cpu time spent up to now is    14188.6 secs

     total energy              =   -2318.09691784 Ry
     Harris-Foulkes estimate   =   -2318.09691818 Ry
     estimated scf accuracy    <       0.00000285 Ry

     total magnetization       =    22.00 Bohr mag/cell
     absolute magnetization    =    36.77 Bohr mag/cell

     iteration # 50     ecut=    40.00 Ry     beta=0.70
     Davidson diagonalization with overlap
     ethr =  5.10E-10,  avg # of iterations =  1.0

     negative rho (up, down):  0.163E-02 0.148E-02

     total cpu time spent up to now is    14452.4 secs

     End of self-consistent calculation
 --- enter write_ns ---
 LDA+U parameters:
U( 2)     =  7.50000000
alpha( 2) =  0.00000000
atom    3   Tr[ns(na)] (up, down, total) =   4.48980  0.87183  5.36163
   spin  1
    eigenvalues: 
  0.737  0.753  0.998  1.000  1.002
    eigenvectors:
  0.123  0.087  0.036  0.682  0.071
  0.361  0.638  0.000  0.001  0.000
  0.000  0.000  0.179  0.033  0.788
  0.515  0.275  0.011  0.184  0.015
  0.000  0.000  0.774  0.100  0.125
    occupations:
  0.946 -0.003 -0.002 -0.104  0.000
 -0.003  0.748 -0.001  0.010 -0.007
 -0.002 -0.001  1.001 -0.003  0.001
 -0.104  0.010 -0.003  0.796  0.001
  0.000 -0.007  0.001  0.001  0.999
   spin  2
    eigenvalues: 
  0.070  0.082  0.089  0.302  0.328
    eigenvectors:
  0.791  0.003  0.012  0.065  0.129
  0.001  0.001  0.000  0.721  0.277
  0.017  0.181  0.802  0.000  0.000
  0.191  0.001  0.002  0.213  0.594
  0.000  0.815  0.184  0.001  0.000
    occupations:
  0.119  0.002 -0.001  0.099  0.000
  0.002  0.309  0.000 -0.014  0.008
 -0.001  0.000  0.088  0.003 -0.003
  0.099 -0.014  0.003  0.273 -0.001
  0.000  0.008 -0.003 -0.001  0.083
atomic mag. moment =     3.617972
atom    4   Tr[ns(na)] (up, down, total) =   4.49144  0.86014  5.35158
   spin  1
    eigenvalues: 
  0.736  0.749  0.998  1.004  1.005
    eigenvectors:
  0.000  0.998  0.001  0.001  0.000
  0.000  0.001  0.000  0.332  0.667
  0.000  0.000  0.001  0.667  0.333
  0.000  0.001  0.999  0.000  0.000
  1.000  0.000  0.000  0.000  0.000
    occupations:
  0.749 -0.009 -0.003  0.007 -0.000
 -0.009  1.004 -0.000  0.000  0.000
 -0.003 -0.000  1.004 -0.000  0.000
  0.007  0.000 -0.000  0.998 -0.000
 -0.000  0.000  0.000 -0.000  0.736
   spin  2
    eigenvalues: 
  0.064  0.081  0.089  0.312  0.314
    eigenvectors:
  0.005  0.001  0.000  0.001  0.992
  0.002  0.757  0.239  0.000  0.002
  0.001  0.238  0.760  0.000  0.000
  0.992  0.003  0.000  0.000  0.004
  0.000  0.000  0.000  0.998  0.001
    occupations:
  0.313  0.009  0.003 -0.016 -0.000
  0.009  0.083 -0.003  0.000 -0.002
  0.003 -0.003  0.087  0.000  0.000
 -0.016  0.000  0.000  0.066 -0.000
 -0.000 -0.002  0.000 -0.000  0.312
atomic mag. moment =     3.631294
atom    9   Tr[ns(na)] (up, down, total) =   4.46086  0.93653  5.39739
   spin  1
    eigenvalues: 
  0.735  0.751  0.982  0.992  1.000
    eigenvectors:
  0.003  0.165  0.000  0.000  0.832
  0.984  0.016  0.000  0.000  0.000
  0.000  0.000  0.022  0.978  0.000
  0.013  0.818  0.000  0.000  0.168
  0.000  0.000  0.978  0.022  0.000
    occupations:
  0.958 -0.001 -0.000 -0.093  0.000
 -0.001  0.735  0.000 -0.002 -0.000
 -0.000  0.000  0.992 -0.000  0.001
 -0.093 -0.002 -0.000  0.793  0.000
  0.000 -0.000  0.001  0.000  0.983
   spin  2
    eigenvalues: 
  0.084  0.088  0.093  0.329  0.343
    eigenvectors:
  0.843  0.000  0.000  0.153  0.004
  0.000  0.000  0.000  0.024  0.976
  0.000  0.966  0.034  0.000  0.000
  0.157  0.000  0.000  0.823  0.020
  0.000  0.034  0.966  0.000  0.000
    occupations:
  0.123 -0.001  0.000  0.089  0.000
 -0.001  0.343 -0.000 -0.002 -0.000
  0.000 -0.000  0.088  0.000  0.001
  0.089 -0.002  0.000  0.291 -0.000
  0.000 -0.000  0.001 -0.000  0.093
atomic mag. moment =     3.524326
atom   10   Tr[ns(na)] (up, down, total) =   4.67516  0.62936  5.30452
   spin  1
    eigenvalues: 
  0.765  0.915  0.997  0.997  1.001
    eigenvectors:
  0.000  0.972  0.000  0.028  0.000
  0.000  0.000  0.999  0.001  0.000
  0.000  0.000  0.000  0.000  1.000
  0.000  0.028  0.001  0.971  0.000
  1.000  0.000  0.000  0.000  0.000
    occupations:
  0.917 -0.000  0.000  0.013  0.000
 -0.000  0.997 -0.000  0.000 -0.000
  0.000 -0.000  1.001 -0.000 -0.000
  0.013  0.000 -0.000  0.995 -0.000
  0.000 -0.000 -0.000 -0.000  0.765
   spin  2
    eigenvalues: 
  0.054  0.071  0.073  0.165  0.266
    eigenvectors:
  0.016  0.000  0.000  0.984  0.000
  0.000  0.000  1.000  0.000  0.000
  0.000  1.000  0.000  0.000  0.000
  0.984  0.000  0.000  0.016  0.000
  0.000  0.000  0.000  0.000  1.000
    occupations:
  0.163  0.000 -0.000 -0.014 -0.000
  0.000  0.073 -0.000 -0.000  0.000
 -0.000 -0.000  0.071  0.000 -0.000
 -0.014 -0.000  0.000  0.056 -0.000
 -0.000  0.000 -0.000 -0.000  0.266
atomic mag. moment =     4.045792
atom   16   Tr[ns(na)] (up, down, total) =   4.48959  0.87207  5.36166
   spin  1
    eigenvalues: 
  0.737  0.753  0.998  1.000  1.002
    eigenvectors:
  0.127  0.083  0.024  0.693  0.072
  0.344  0.654  0.000  0.001  0.000
  0.000  0.000  0.169  0.041  0.790
  0.528  0.262  0.007  0.188  0.015
  0.000  0.001  0.799  0.077  0.123
    occupations:
  0.946  0.003 -0.002 -0.105  0.000
  0.003  0.748  0.001 -0.010 -0.007
 -0.002  0.001  1.001 -0.003 -0.001
 -0.105 -0.010 -0.003  0.796  0.000
  0.000 -0.007 -0.001  0.000  0.999
   spin  2
    eigenvalues: 
  0.070  0.082  0.089  0.303  0.328
    eigenvectors:
  0.792  0.003  0.011  0.065  0.129
  0.001  0.001  0.000  0.724  0.274
  0.017  0.181  0.802  0.000  0.000
  0.191  0.001  0.002  0.211  0.596
  0.000  0.814  0.184  0.001  0.000
    occupations:
  0.119 -0.002 -0.001  0.099 -0.000
 -0.002  0.309 -0.000  0.014  0.008
 -0.001 -0.000  0.088  0.003  0.003
  0.099  0.014  0.003  0.273  0.001
 -0.000  0.008  0.003  0.001  0.083
atomic mag. moment =     3.617527
atom   17   Tr[ns(na)] (up, down, total) =   4.48718  0.86332  5.35050
   spin  1
    eigenvalues: 
  0.734  0.748  0.998  1.003  1.004
    eigenvectors:
  0.000  0.998  0.001  0.000  0.001
  0.000  0.001  0.000  0.065  0.934
  0.000  0.000  0.000  0.934  0.065
  0.000  0.001  0.999  0.000  0.000
  1.000  0.000  0.000  0.000  0.000
    occupations:
  0.748 -0.009 -0.003  0.006 -0.000
 -0.009  1.004 -0.000  0.000  0.000
 -0.003 -0.000  1.003 -0.000  0.000
  0.006  0.000 -0.000  0.998 -0.000
 -0.000  0.000  0.000 -0.000  0.734
   spin  2
    eigenvalues: 
  0.065  0.081  0.088  0.313  0.316
    eigenvectors:
  0.005  0.001  0.000  0.004  0.990
  0.002  0.736  0.260  0.000  0.001
  0.001  0.259  0.740  0.000  0.000
  0.993  0.003  0.000  0.000  0.004
  0.000  0.000  0.000  0.996  0.004
    occupations:
  0.315  0.009  0.003 -0.016 -0.000
  0.009  0.083 -0.003  0.000 -0.002
  0.003 -0.003  0.087  0.000  0.000
 -0.016  0.000  0.000  0.066 -0.000
 -0.000 -0.002  0.000 -0.000  0.313
atomic mag. moment =     3.623860
atom   22   Tr[ns(na)] (up, down, total) =   4.46084  0.93658  5.39742
   spin  1
    eigenvalues: 
  0.735  0.752  0.982  0.992  1.000
    eigenvectors:
  0.004  0.164  0.000  0.000  0.832
  0.977  0.023  0.000  0.000  0.000
  0.000  0.000  0.023  0.977  0.000
  0.019  0.813  0.000  0.000  0.168
  0.000  0.000  0.977  0.023  0.000
    occupations:
  0.958  0.001  0.000 -0.093 -0.000
  0.001  0.735  0.000  0.002 -0.000
  0.000  0.000  0.992  0.000 -0.001
 -0.093  0.002  0.000  0.793  0.000
 -0.000 -0.000 -0.001  0.000  0.983
   spin  2
    eigenvalues: 
  0.084  0.088  0.093  0.329  0.343
    eigenvectors:
  0.843  0.000  0.000  0.153  0.004
  0.000  0.000  0.000  0.025  0.975
  0.000  0.965  0.035  0.000  0.000
  0.157  0.000  0.000  0.822  0.021
  0.000  0.035  0.965  0.000  0.000
    occupations:
  0.123  0.001  0.000  0.089  0.000
  0.001  0.343 -0.000  0.002 -0.000
  0.000 -0.000  0.088  0.000 -0.001
  0.089  0.002  0.000  0.291  0.000
  0.000 -0.000 -0.001  0.000  0.093
atomic mag. moment =     3.524264
atom   23   Tr[ns(na)] (up, down, total) =   4.44205  1.03442  5.47647
   spin  1
    eigenvalues: 
  0.748  0.807  0.926  0.961  1.000
    eigenvectors:
  0.999  0.000  0.000  0.000  0.001
  0.000  0.000  0.000  1.000  0.000
  0.000  0.000  1.000  0.000  0.000
  0.001  0.000  0.000  0.000  0.999
  0.000  1.000  0.000  0.000  0.000
    occupations:
  0.749  0.000  0.000  0.008  0.000
  0.000  0.961 -0.000  0.000  0.000
  0.000 -0.000  0.926 -0.000  0.000
  0.008  0.000 -0.000  1.000  0.000
  0.000  0.000  0.000  0.000  0.807
   spin  2
    eigenvalues: 
  0.059  0.144  0.174  0.287  0.371
    eigenvectors:
  0.002  0.000  0.000  0.000  0.998
  0.000  0.000  1.000  0.000  0.000
  0.000  1.000  0.000  0.000  0.000
  0.998  0.000  0.000  0.000  0.002
  0.000  0.000  0.000  1.000  0.000
    occupations:
  0.370 -0.000 -0.001 -0.015 -0.000
 -0.000  0.174 -0.000 -0.000 -0.000
 -0.001 -0.000  0.144  0.000 -0.000
 -0.015 -0.000  0.000  0.060  0.000
 -0.000 -0.000 -0.000  0.000  0.287
atomic mag. moment =     3.407633
N of occupied +U levels =  43.0011735
 --- exit write_ns ---

 ------ SPIN UP ------------


          k = 0.0000 0.0000 0.0000 ( 26393 PWs)   bands (ev):

   -84.4598 -84.4145 -84.4041 -84.2928 -84.2521 -84.2111 -84.2003 -83.8461
   -53.3050 -53.2048 -53.1236 -53.0950 -53.0918 -53.0863 -53.0861 -53.0818
   -53.0599 -53.0404 -52.9999 -52.9828 -52.9608 -52.9400 -52.9174 -52.9087
   -52.8991 -52.8754 -52.8590 -52.8433 -52.8246 -52.6087 -52.5373 -52.5341
   -21.8077 -21.2234 -21.1778 -20.9859 -20.3678 -20.1911 -20.1692 -20.1169
   -20.1116 -20.0458 -19.9605 -19.8545 -19.6250 -19.5716 -19.5492 -19.5377
   -19.3850 -19.2376 -18.9616 -11.6880 -11.3699 -11.2984 -11.0707 -10.9202
   -10.8018 -10.6823 -10.6644 -10.2858 -10.0357  -9.7186  -9.7007  -9.6259
    -9.5956  -9.5903  -9.5457  -9.3011  -9.2086  -9.1591  -9.1052  -9.0489
    -8.9710  -8.9571  -8.9318  -8.8157  -8.8039  -8.6840  -8.6193  -8.5267
    -8.3604  -8.1679  -8.0283  -8.0252  -7.9829  -7.9759  -7.9276  -7.5626
    -7.5505  -7.4596  -7.4108  -7.2158  -6.8325  -6.5863  -6.5580  -6.4309
    -6.1214  -5.8594  -5.6514  -5.6140  -5.4847  -5.4527  -5.3814  -5.2746
    -5.1697  -5.0711  -4.9076  -4.8598  -4.6038  -4.4726  -4.3880  -4.2816
    -4.2400  -3.7103  -3.5958  -3.3687  -3.3666  -3.3139  -3.1479  -3.1267
    -3.0350  -2.9473  -2.9393  -2.9225  -2.8019  -2.7373  -2.6870  -2.5302
    -2.4799  -2.3788  -2.2103  -2.1058  -1.8403  -1.8070  -1.4077  -1.3984
    -1.3537  -1.0601  -0.9226  -0.7970  -0.4802  -0.2158  -0.1605  -0.0188
     0.1807   0.2847   0.4842   0.5673   3.0659   3.7753   3.9097   4.4105
     4.8457   5.6099   6.1014   6.2622   6.6837   7.0813   7.1461   7.2209
     7.3688   7.6336   7.7330   7.8299   7.9551   8.1899   8.2519   8.2893
     8.3213   8.3790   8.5213   8.5277   8.6326   8.9391   8.9725   9.0157
     9.0372   9.2033   9.3652   9.3988   9.4920   9.5193   9.6415   9.7031
     9.8619   9.9652  10.0565  10.2865  10.3116  10.4034  10.5599  10.5671
    10.7004  10.7743  10.9901  11.0294  11.0859  11.1250  11.3123  11.3880
    11.5633  11.6076  11.6822  11.8505  11.8918  12.0644  12.1785  12.2480
    12.2650  12.3378  12.3616  12.3703  12.4066  12.4575  12.5577  12.6090
    12.6471  12.7259  12.8155  12.8425  12.9092  12.9809  13.0615  13.1667
    13.1840  13.2311  13.2828  13.2922  13.3841  13.5021  13.5922  13.6516
    13.7703  13.8233  13.8634  13.9330  13.9813  14.0129  14.1796  14.2124
    14.2777  14.3157  14.3920  14.4450  14.6117  14.6961  14.7588  14.8415
    14.8998  14.9131  15.2040  15.2171  15.2840  15.3186  15.3498  15.3610
    15.5378  15.7788  15.8258  15.8697  15.9537  16.1076  16.2087  16.3180
    16.4068  16.5543  16.5971  16.6665  16.7261  16.7877  17.0697  17.1731
    17.1802  17.3102  17.4342  17.4881  17.6070  17.7068  17.7410  17.8424
    17.9626  18.1433  18.2213  18.2539  18.3198  18.4037  18.4728  18.6570
    18.7113  18.8589  18.9244  18.9988  19.0520  19.1479  19.2246  19.3628
    19.4827  19.5529  19.5802  19.5923  19.6905  19.7588  19.7818  19.8884
    19.9355  19.9707  20.0480  20.0671  20.1882  20.2681  20.3731  20.3747
    20.4837  20.5867  20.7066  20.7971  20.9627  20.9830  21.1459  21.2067
    21.2940  21.3156  21.3600  21.4273  21.4822  21.5070  21.6077  21.6405
    21.7423  21.8461  22.0502  22.1485  22.2190  22.2544  22.3441  22.3873
    22.4028  22.4333  22.4635  22.5695  22.6087  22.6154  22.7199  22.8079
    22.8728

          k = 0.0000 0.2303 0.0000 ( 26455 PWs)   bands (ev):

   -84.4598 -84.4145 -84.4041 -84.2928 -84.2521 -84.2110 -84.2003 -83.8461
   -53.3050 -53.2048 -53.1234 -53.0944 -53.0932 -53.0888 -53.0865 -53.0774
   -53.0598 -53.0404 -52.9998 -52.9836 -52.9609 -52.9401 -52.9177 -52.9084
   -52.8991 -52.8755 -52.8590 -52.8433 -52.8246 -52.6086 -52.5373 -52.5342
   -21.7380 -21.1779 -21.1118 -20.9457 -20.3733 -20.3458 -20.2615 -20.2537
   -20.1912 -19.9134 -19.8171 -19.7966 -19.7623 -19.6409 -19.5460 -19.5273
   -19.3763 -19.2389 -18.9561 -11.4607 -11.3123 -11.2488 -11.1153 -10.9710
   -10.9582 -10.6898 -10.5977 -10.3408  -9.9742  -9.6747  -9.6215  -9.4704
    -9.4529  -9.4232  -9.3081  -9.2373  -9.1493  -9.1198  -9.1063  -9.0799
    -9.0505  -9.0214  -8.9156  -8.8172  -8.8017  -8.7099  -8.6214  -8.5335
    -8.4088  -8.3551  -8.3527  -8.2059  -8.1829  -8.0116  -7.9265  -7.6288
    -7.5652  -7.3582  -7.0290  -6.9381  -6.8277  -6.5960  -6.5316  -6.3991
    -6.0716  -5.8698  -5.8400  -5.7437  -5.6678  -5.5059  -5.4977  -5.3231
    -5.2353  -5.0747  -4.7240  -4.6699  -4.5682  -4.3951  -4.3043  -4.1678
    -4.0947  -3.7643  -3.7316  -3.4859  -3.4233  -3.3837  -3.3025  -3.2522
    -3.1804  -3.1305  -2.9478  -2.9236  -2.7746  -2.6857  -2.6565  -2.6075
    -2.5809  -2.3897  -2.3846  -2.3002  -2.2647  -2.1487  -1.9947  -1.3430
    -1.2767  -1.1647  -0.5285  -0.2823  -0.1861  -0.1781   0.0656   0.3012
     0.3221   0.4084   0.4614   0.5784   3.3366   4.0222   4.1771   4.6403
     5.0629   5.2939   5.8101   6.0095   6.2587   6.4199   6.6910   6.8813
     7.1857   7.3705   7.4434   7.5792   8.0136   8.1530   8.3215   8.4808
     8.5662   8.6076   8.7292   8.7380   8.8629   9.0437   9.0992   9.2257
     9.2516   9.5975   9.6435   9.7062   9.7676   9.8684   9.8918   9.9186
    10.0253  10.1482  10.1939  10.2753  10.3598  10.4995  10.5225  10.5518
    10.6298  10.7301  10.8740  10.8992  10.9702  11.0138  11.0557  11.1469
    11.2632  11.4356  11.4883  11.5572  11.5959  11.6088  11.7521  11.8578
    11.9750  12.0579  12.1157  12.3934  12.4289  12.6154  12.6387  12.6732
    12.7841  12.8160  12.9000  12.9884  13.0845  13.1682  13.2467  13.3555
    13.4244  13.4977  13.6150  13.6911  13.7007  13.8647  13.8812  14.0062
    14.0699  14.1493  14.2772  14.3544  14.3709  14.3947  14.4324  14.4653
    14.5568  14.5966  14.6389  14.7332  14.7630  14.7873  14.9683  15.0299
    15.0814  15.0998  15.2337  15.3467  15.3866  15.4267  15.4780  15.4795
    15.5671  15.6712  15.8629  15.8954  15.9364  16.0389  16.0992  16.2019
    16.2723  16.3360  16.4143  16.5201  16.5980  16.6727  16.7846  16.8549
    16.9799  17.1243  17.1809  17.3128  17.3994  17.4698  17.5054  17.6043
    17.6749  17.7707  17.8039  17.8607  18.0847  18.1011  18.3363  18.4852
    18.5989  18.7539  18.7889  18.8308  18.9149  18.9831  19.0088  19.1096
    19.2062  19.2545  19.3319  19.4004  19.4731  19.5078  19.5433  19.6250
    19.9007  19.9710  20.1172  20.1926  20.2829  20.3177  20.3696  20.4040
    20.5147  20.5269  20.5446  20.6616  20.7026  20.7900  20.8696  20.9879
    21.0392  21.0777  21.1027  21.1797  21.2227  21.3289  21.3685  21.4550
    21.4765  21.6137  21.7293  21.7656  21.8920  21.9263  21.9702  22.0616
    22.2660  22.2965  22.3691  22.4865  22.5252  22.5677  22.6428  22.7320
    22.7627

          k = 0.0000-0.4606 0.0000 ( 26364 PWs)   bands (ev):

   -84.4598 -84.4144 -84.4042 -84.2928 -84.2521 -84.2109 -84.2003 -83.8461
   -53.3049 -53.2047 -53.1231 -53.0950 -53.0933 -53.0893 -53.0864 -53.0749
   -53.0596 -53.0402 -52.9996 -52.9844 -52.9608 -52.9401 -52.9179 -52.9081
   -52.8990 -52.8754 -52.8590 -52.8432 -52.8245 -52.6084 -52.5373 -52.5343
   -21.6598 -21.1722 -21.0392 -20.7122 -20.6032 -20.4397 -20.3411 -20.3187
   -20.2016 -19.9297 -19.8999 -19.7322 -19.7078 -19.6787 -19.5418 -19.5206
   -19.3717 -19.2405 -18.9540 -11.4770 -11.3314 -11.1787 -11.0759 -11.0127
   -10.7757 -10.6954 -10.3901 -10.2499 -10.0568  -9.6457  -9.6030  -9.5341
    -9.5142  -9.3390  -9.1891  -9.1161  -9.0732  -9.0348  -9.0161  -8.9801
    -8.9620  -8.9486  -8.9418  -8.9172  -8.8309  -8.7325  -8.6629  -8.6068
    -8.5440  -8.5075  -8.4020  -8.3364  -8.2076  -8.0877  -7.8601  -7.7628
    -7.5885  -7.5641  -6.7334  -6.6586  -6.6316  -6.5880  -6.4136  -6.3527
    -6.2365  -6.1601  -6.0960  -5.7596  -5.7336  -5.6032  -5.5018  -5.2990
    -5.2804  -4.9703  -4.5995  -4.5572  -4.5099  -4.2976  -4.1381  -3.9144
    -3.8903  -3.8198  -3.7883  -3.6378  -3.5688  -3.5518  -3.4397  -3.4181
    -3.3116  -3.2938  -3.1850  -3.1282  -3.0037  -2.8207  -2.7494  -2.7487
    -2.7024  -2.5037  -2.3728  -2.3516  -2.2178  -2.2101  -2.1491  -1.2899
    -1.1620  -0.7749  -0.3051  -0.3042  -0.2857  -0.0636  -0.0319   0.1840
     0.3641   0.5752   0.8387   0.9230   3.8967   4.2724   4.6724   4.7628
     4.8616   5.0774   5.3210   5.5480   5.8649   6.1588   6.5505   6.9539
     7.1114   7.1591   7.5230   7.7302   7.7911   7.9746   7.9973   8.2271
     8.6663   9.0080   9.0263   9.1520   9.2133   9.2412   9.2643   9.3385
     9.3420   9.3894   9.5066   9.5897   9.6144   9.7536   9.8111   9.8789
     9.9548   9.9727  10.1592  10.1990  10.2129  10.3553  10.4817  10.6559
    10.7123  10.7721  10.8048  10.9272  11.0421  11.0880  11.2961  11.3400
    11.4346  11.4540  11.6445  11.7504  11.8283  12.1394  12.2275  12.2672
    12.3183  12.3789  12.5416  12.5589  12.5915  12.6023  12.6652  12.7973
    12.8785  12.9181  12.9837  13.1230  13.1637  13.2060  13.2429  13.2716
    13.3198  13.4697  13.4935  13.5847  13.6292  13.6852  13.7817  13.9859
    14.0116  14.0525  14.0822  14.1342  14.2632  14.2907  14.3669  14.4647
    14.4914  14.5155  14.5768  14.6434  14.6840  14.7432  14.8341  14.8523
    14.9404  15.0592  15.1813  15.2108  15.2329  15.5205  15.7891  15.8052
    15.9022  15.9438  16.0042  16.0604  16.1933  16.2203  16.3968  16.4986
    16.6621  16.7419  16.7870  16.8598  17.0021  17.0297  17.1243  17.1707
    17.2711  17.2963  17.4137  17.4576  17.4773  17.5623  17.6973  17.7286
    17.8250  17.8488  17.8859  17.9235  17.9674  18.0439  18.0688  18.1617
    18.3853  18.4280  18.5502  18.5516  18.5954  18.6516  18.6695  18.6760
    18.7029  18.7743  18.8074  18.9379  19.0121  19.1110  19.1905  19.2756
    19.2949  19.5689  19.6280  19.6741  19.7064  19.9508  19.9796  20.0422
    20.1472  20.1546  20.1680  20.2057  20.2323  20.3964  20.4994  20.5542
    20.6734  20.7063  20.8580  20.9054  21.0042  21.0810  21.1144  21.1694
    21.2666  21.3769  21.4195  21.5025  21.5483  21.6610  21.7454  21.8546
    21.9113  21.9973  22.1609  22.3244  22.3754  22.4454  22.4941  22.7177
    22.7770

          k = 0.2500 0.0000 0.0000 ( 26392 PWs)   bands (ev):

   -84.4595 -84.4126 -84.4051 -84.2920 -84.2520 -84.2091 -84.2014 -83.8458
   -53.3050 -53.1885 -53.1235 -53.1079 -53.0933 -53.0847 -53.0845 -53.0703
   -53.0572 -53.0436 -52.9834 -52.9824 -52.9765 -52.9411 -52.9162 -52.9100
   -52.8989 -52.8945 -52.8592 -52.8405 -52.8273 -52.6113 -52.5371 -52.5342
   -21.6865 -21.2253 -21.0906 -20.8851 -20.4463 -20.2983 -20.2659 -20.1449
   -20.0001 -19.9965 -19.9062 -19.8743 -19.6853 -19.6215 -19.5533 -19.5051
   -19.3953 -19.3421 -19.0465 -11.4278 -11.1985 -11.0889 -10.9366 -10.6805
   -10.6379 -10.5504 -10.4650 -10.1897 -10.0762 -10.0378  -9.8866  -9.8715
    -9.8001  -9.7009  -9.5054  -9.3296  -9.2775  -9.2596  -9.2233  -9.1435
    -9.0815  -9.0030  -8.9238  -8.8471  -8.7699  -8.7055  -8.6495  -8.6093
    -8.3499  -8.1757  -8.1251  -8.0518  -8.0319  -7.9569  -7.8215  -7.7210
    -7.5881  -7.5371  -7.4933  -7.2843  -6.9702  -6.6687  -6.4535  -6.2383
    -6.1226  -6.1047  -5.8403  -5.5773  -5.2456  -5.1397  -5.0896  -4.9966
    -4.9725  -4.8227  -4.7752  -4.7334  -4.6359  -4.5251  -4.4146  -4.2210
    -4.0947  -3.8674  -3.6862  -3.4950  -3.4817  -3.2293  -3.1174  -3.0943
    -3.0633  -2.9831  -2.9497  -2.9037  -2.8137  -2.7265  -2.7188  -2.6421
    -2.5925  -2.4357  -2.4198  -2.2559  -1.8900  -1.5891  -1.3993  -1.3180
    -1.1547  -0.9960  -0.8747  -0.8265  -0.6083  -0.4029  -0.2641  -0.1628
    -0.1303   0.1248   0.2440   0.5137   3.3886   4.0715   4.2368   4.7121
     5.1712   5.4898   5.8628   6.3475   6.3794   6.6236   6.6507   6.9478
     7.3049   7.3940   7.5407   7.6903   7.9334   8.0061   8.0209   8.0987
     8.2616   8.4661   8.5704   8.6068   8.8163   8.8737   9.0895   9.2120
     9.3467   9.4813   9.5881   9.6789   9.7657   9.7840   9.8204  10.0139
    10.0664  10.1393  10.1999  10.2572  10.3494  10.4688  10.5702  10.6371
    10.7095  10.7602  10.8782  10.9275  11.0102  11.0854  11.1397  11.2155
    11.3740  11.4386  11.4728  11.5704  11.5883  11.6220  11.7808  11.8395
    11.9672  12.1586  12.2548  12.3757  12.4614  12.5010  12.5480  12.5801
    12.6903  12.7489  12.8610  12.9542  13.1464  13.1935  13.2111  13.2693
    13.4109  13.4239  13.5464  13.6335  13.7590  13.8148  13.9046  13.9937
    14.0699  14.0998  14.1773  14.2869  14.3317  14.3513  14.4085  14.5399
    14.5922  14.6739  14.8041  14.8426  14.9901  15.1120  15.1442  15.1660
    15.2254  15.2780  15.4640  15.5054  15.6092  15.7033  15.7457  15.8153
    15.8657  15.8999  16.0319  16.0560  16.0744  16.1085  16.2758  16.4594
    16.5117  16.6298  16.6507  16.7108  16.7440  16.9397  17.0036  17.0814
    17.2492  17.3476  17.3959  17.4864  17.5932  17.6066  17.7810  17.8711
    17.9058  17.9961  18.0178  18.1177  18.1541  18.1859  18.3851  18.4164
    18.4773  18.6901  18.7471  18.9287  18.9440  18.9983  19.0769  19.1069
    19.2607  19.3682  19.3754  19.4980  19.6043  19.7236  19.7490  19.8013
    19.8294  19.9138  19.9724  20.0087  20.0812  20.2047  20.3158  20.3538
    20.4289  20.5192  20.5485  20.6216  20.6854  20.7655  20.7990  20.8231
    20.9247  20.9703  21.1025  21.1984  21.3034  21.3384  21.4215  21.4802
    21.5323  21.6070  21.6958  21.7519  21.8316  21.8830  21.8931  21.9669
    22.0269  22.0767  22.1057  22.1408  22.2189  22.2512  22.2819  22.3363
    22.3616

          k = 0.2500 0.2303 0.0000 ( 26396 PWs)   bands (ev):

   -84.4595 -84.4126 -84.4052 -84.2920 -84.2520 -84.2090 -84.2014 -83.8458
   -53.3050 -53.1885 -53.1233 -53.1079 -53.0928 -53.0864 -53.0846 -53.0682
   -53.0571 -53.0435 -52.9842 -52.9823 -52.9764 -52.9413 -52.9163 -52.9098
   -52.8990 -52.8944 -52.8593 -52.8405 -52.8274 -52.6113 -52.5372 -52.5342
   -21.6296 -21.2202 -20.9915 -20.8246 -20.4475 -20.3169 -20.2949 -20.1506
   -20.1423 -20.0557 -19.9055 -19.8139 -19.7957 -19.6734 -19.5292 -19.5017
   -19.3909 -19.3449 -19.0430 -11.2280 -11.1065 -11.0197 -10.9773 -10.7865
   -10.7323 -10.5290 -10.4349 -10.1708 -10.0057  -9.8816  -9.7934  -9.7695
    -9.6318  -9.6052  -9.4808  -9.4035  -9.2289  -9.1980  -9.1461  -9.1011
    -9.0519  -8.9950  -8.9435  -8.8868  -8.7499  -8.7092  -8.6647  -8.5814
    -8.4802  -8.4250  -8.3261  -8.2886  -8.1005  -7.9951  -7.8690  -7.8375
    -7.6225  -7.4927  -7.3930  -7.2120  -6.8517  -6.5498  -6.3351  -6.1710
    -6.0870  -5.9703  -5.8487  -5.5044  -5.4751  -5.4086  -5.2845  -5.2049
    -4.9356  -4.8360  -4.7062  -4.6293  -4.5682  -4.4587  -4.3695  -4.1879
    -4.1024  -3.8726  -3.7009  -3.5528  -3.4742  -3.3733  -3.2556  -3.1922
    -3.1576  -3.0795  -2.9700  -2.9041  -2.7847  -2.7700  -2.7137  -2.6393
    -2.5817  -2.5402  -2.3667  -2.3200  -2.1160  -2.0211  -1.8723  -1.3066
    -1.2073  -1.1185  -0.7954  -0.6018  -0.3883  -0.3067  -0.0584   0.0502
     0.1577   0.3708   0.4327   0.5226   3.6450   4.3164   4.4845   4.9311
     5.3447   5.5973   5.6871   6.0677   6.3007   6.5370   6.5906   6.7351
     6.8537   7.0005   7.1254   7.4122   7.5219   7.7212   7.8849   8.0233
     8.3162   8.4204   8.5437   8.6277   8.8079   8.8811   8.9938   9.1270
     9.1693   9.2714   9.4182   9.5435   9.6253   9.8044   9.9331  10.0552
    10.1604  10.2028  10.3108  10.4048  10.5545  10.5975  10.6831  10.8746
    10.9090  11.0823  11.1492  11.2013  11.3042  11.4096  11.4393  11.4773
    11.6380  11.6976  11.7546  11.8084  11.9446  12.0331  12.1957  12.2879
    12.3330  12.4190  12.5239  12.5854  12.6045  12.7267  12.7885  12.9166
    12.9435  12.9792  13.0453  13.1315  13.1700  13.2895  13.3020  13.3947
    13.4361  13.5208  13.5748  13.6669  13.7453  13.8185  13.8421  13.9314
    14.0178  14.0499  14.1180  14.1431  14.2290  14.2956  14.3887  14.4300
    14.5369  14.6540  14.7216  14.7623  14.8239  14.8762  14.9555  15.0595
    15.2105  15.2897  15.3839  15.4357  15.5157  15.6110  15.7552  15.8124
    15.9019  15.9864  16.0708  16.1685  16.2436  16.2904  16.3568  16.4159
    16.5113  16.5872  16.6229  16.6899  16.7715  16.9049  16.9547  17.0239
    17.1062  17.1621  17.2391  17.2699  17.3971  17.4552  17.5445  17.6192
    17.7269  17.7838  17.8562  17.9138  18.0274  18.0586  18.1571  18.2413
    18.3176  18.4049  18.4658  18.5518  18.6255  18.6614  18.7164  18.8699
    18.9514  18.9749  19.0214  19.1069  19.1526  19.1960  19.2818  19.3700
    19.4760  19.5243  19.5758  19.6490  19.7194  19.8017  19.8800  19.9500
    19.9958  20.0627  20.1136  20.1758  20.2732  20.3382  20.4222  20.5444
    20.7208  20.7696  20.8642  20.8969  20.9411  21.0275  21.0727  21.1181
    21.2095  21.3372  21.3689  21.3963  21.5109  21.5641  21.6306  21.7152
    21.8288  21.8716  21.9668  22.0428  22.1594  22.2703  22.2944  22.4096
    22.5016

          k = 0.2500-0.4606 0.0000 ( 26462 PWs)   bands (ev):

   -84.4595 -84.4125 -84.4052 -84.2920 -84.2520 -84.2089 -84.2015 -83.8458
   -53.3051 -53.1886 -53.1231 -53.1079 -53.0921 -53.0878 -53.0847 -53.0666
   -53.0570 -53.0435 -52.9845 -52.9823 -52.9767 -52.9415 -52.9165 -52.9097
   -52.8990 -52.8945 -52.8593 -52.8405 -52.8274 -52.6112 -52.5372 -52.5344
   -21.5690 -21.2145 -20.8975 -20.6003 -20.5000 -20.4355 -20.3316 -20.2927
   -20.1282 -20.0939 -19.9874 -19.8896 -19.7504 -19.6892 -19.5155 -19.4986
   -19.3882 -19.3481 -19.0421 -11.2309 -11.1114 -10.9411 -10.8511 -10.7997
   -10.7336 -10.5142 -10.2055 -10.1513 -10.0210  -9.6828  -9.6493  -9.5350
    -9.5031  -9.4678  -9.3378  -9.3068  -9.2769  -9.2494  -9.2090  -9.1733
    -9.1264  -9.0702  -9.0142  -8.9473  -8.8726  -8.8444  -8.7891  -8.6908
    -8.6535  -8.6208  -8.5535  -8.2437  -8.0043  -7.9684  -7.7728  -7.7098
    -7.5289  -7.3327  -7.2618  -7.2273  -6.8160  -6.6057  -6.3074  -6.2288
    -6.1162  -5.9994  -5.9317  -5.8425  -5.7755  -5.4165  -5.3078  -5.2788
    -4.8696  -4.7719  -4.5653  -4.4682  -4.4251  -4.3453  -4.3166  -4.2091
    -4.0543  -3.8428  -3.6937  -3.5746  -3.5041  -3.4707  -3.3742  -3.2926
[...]
    eigenvectors:
  0.769  0.000  0.001  0.006  0.224
  0.000  0.001  0.000  0.982  0.016
  0.002  0.020  0.978  0.000  0.000
  0.228  0.000  0.001  0.011  0.760
  0.000  0.979  0.020  0.001  0.000
    occupations:
  0.112 -0.000 -0.002  0.103 -0.000
 -0.000  0.255  0.000  0.007  0.006
 -0.002  0.000  0.081 -0.002  0.001
  0.103  0.007 -0.002  0.245  0.000
 -0.000  0.006  0.001  0.000  0.071
atomic mag. moment =     3.786351
atom    4   Tr[ns(na)] (up, down, total) =   4.56593  0.74178  5.30771
   spin  1
    eigenvalues: 
  0.747  0.813  0.997  1.004  1.005
    eigenvectors:
  0.000  0.997  0.001  0.001  0.000
  0.000  0.001  0.000  0.573  0.425
  0.000  0.001  0.000  0.425  0.574
  0.000  0.001  0.999  0.000  0.000
  1.000  0.000  0.000  0.000  0.000
    occupations:
  0.814 -0.006 -0.005  0.006 -0.000
 -0.006  1.004 -0.000  0.000  0.004
 -0.005 -0.000  1.004  0.000 -0.000
  0.006  0.000  0.000  0.997 -0.000
 -0.000  0.004 -0.000 -0.000  0.747
   spin  2
    eigenvalues: 
  0.064  0.067  0.073  0.234  0.304
    eigenvectors:
  0.009  0.000  0.000  0.991  0.000
  0.020  0.129  0.849  0.001  0.001
  0.103  0.746  0.150  0.001  0.000
  0.867  0.125  0.000  0.008  0.000
  0.000  0.000  0.001  0.000  0.999
    occupations:
  0.232  0.005  0.005 -0.015  0.000
  0.005  0.072 -0.002  0.000 -0.008
  0.005 -0.002  0.068  0.001  0.000
 -0.015  0.000  0.001  0.065 -0.000
  0.000 -0.008  0.000 -0.000  0.304
atomic mag. moment =     3.824156
atom    9   Tr[ns(na)] (up, down, total) =   4.53517  0.80115  5.33633
   spin  1
    eigenvalues: 
  0.764  0.784  0.992  0.995  1.001
    eigenvectors:
  0.236  0.000  0.000  0.000  0.764
  0.000  1.000  0.000  0.000  0.000
  0.000  0.000  0.047  0.953  0.000
  0.764  0.000  0.000  0.000  0.236
  0.000  0.000  0.953  0.047  0.000
    occupations:
  0.945  0.002 -0.000 -0.101  0.000
  0.002  0.784 -0.000 -0.000  0.000
 -0.000 -0.000  0.995 -0.000 -0.001
 -0.101 -0.000 -0.000  0.820  0.000
  0.000  0.000 -0.001  0.000  0.992
   spin  2
    eigenvalues: 
  0.065  0.076  0.080  0.285  0.295
    eigenvectors:
  0.799  0.000  0.000  0.025  0.176
  0.000  0.000  0.000  0.882  0.118
  0.000  0.000  1.000  0.000  0.000
  0.201  0.000  0.000  0.092  0.707
  0.000  1.000  0.000  0.000  0.000
    occupations:
  0.111  0.000  0.000  0.092  0.000
  0.000  0.286 -0.000  0.004 -0.000
  0.000 -0.000  0.080  0.000 -0.000
  0.092  0.004  0.000  0.248 -0.000
  0.000 -0.000 -0.000 -0.000  0.076
atomic mag. moment =     3.734022
atom   10   Tr[ns(na)] (up, down, total) =   4.73756  0.52777  5.26533
   spin  1
    eigenvalues: 
  0.776  0.970  0.996  0.998  0.998
    eigenvectors:
  0.000  0.968  0.000  0.032  0.000
  0.000  0.000  1.000  0.000  0.000
  0.000  0.000  0.000  0.002  0.998
  0.000  0.032  0.000  0.966  0.002
  1.000  0.000  0.000  0.000  0.000
    occupations:
  0.971  0.000 -0.000  0.005  0.000
  0.000  0.996 -0.000  0.000 -0.001
 -0.000 -0.000  0.998  0.000  0.000
  0.005  0.000  0.000  0.997 -0.000
  0.000 -0.001  0.000 -0.000  0.776
   spin  2
    eigenvalues: 
  0.052  0.056  0.063  0.113  0.245
    eigenvectors:
  0.037  0.000  0.000  0.963  0.000
  0.000  0.000  1.000  0.000  0.000
  0.000  1.000  0.000  0.000  0.000
  0.963  0.000  0.000  0.037  0.000
  0.000  0.000  0.000  0.000  1.000
    occupations:
  0.111  0.000 -0.000 -0.012  0.000
  0.000  0.063  0.000 -0.000  0.001
 -0.000  0.000  0.056 -0.000  0.000
 -0.012 -0.000 -0.000  0.054 -0.000
  0.000  0.001  0.000 -0.000  0.245
atomic mag. moment =     4.209790
atom   16   Tr[ns(na)] (up, down, total) =   4.55057  0.76442  5.31500
   spin  1
    eigenvalues: 
  0.762  0.782  1.000  1.002  1.004
    eigenvectors:
  0.254  0.002  0.000  0.678  0.066
  0.026  0.971  0.001  0.002  0.000
  0.000  0.000  0.001  0.086  0.913
  0.720  0.025  0.000  0.235  0.021
  0.000  0.001  0.998  0.000  0.000
    occupations:
  0.941 -0.009 -0.001 -0.105 -0.000
 -0.009  0.783 -0.001  0.002 -0.007
 -0.001 -0.001  1.004 -0.001  0.000
 -0.105  0.002 -0.001  0.824 -0.000
 -0.000 -0.007  0.000 -0.000  0.999
   spin  2
    eigenvalues: 
  0.056  0.071  0.081  0.255  0.302
    eigenvectors:
  0.769  0.000  0.001  0.006  0.224
  0.000  0.001  0.000  0.982  0.017
  0.002  0.021  0.977  0.000  0.000
  0.228  0.000  0.001  0.011  0.759
  0.000  0.978  0.021  0.001  0.000
    occupations:
  0.112 -0.000 -0.003  0.103  0.000
 -0.000  0.255  0.000 -0.007  0.007
 -0.003  0.000  0.081 -0.002 -0.001
  0.103 -0.007 -0.002  0.245 -0.000
  0.000  0.007 -0.001 -0.000  0.071
atomic mag. moment =     3.786146
atom   17   Tr[ns(na)] (up, down, total) =   4.56686  0.74021  5.30706
   spin  1
    eigenvalues: 
  0.747  0.814  0.997  1.004  1.005
    eigenvectors:
  0.000  0.997  0.001  0.002  0.000
  0.000  0.001  0.000  0.485  0.514
  0.000  0.001  0.000  0.513  0.486
  0.000  0.001  0.999  0.000  0.000
  1.000  0.000  0.000  0.000  0.000
    occupations:
  0.814 -0.006 -0.005  0.006 -0.000
 -0.006  1.004 -0.000  0.000  0.004
 -0.005 -0.000  1.004  0.000 -0.000
  0.006  0.000  0.000  0.997 -0.000
 -0.000  0.004 -0.000 -0.000  0.747
   spin  2
    eigenvalues: 
  0.064  0.067  0.073  0.233  0.304
    eigenvectors:
  0.009  0.000  0.000  0.991  0.000
  0.023  0.136  0.839  0.001  0.001
  0.107  0.732  0.159  0.001  0.000
  0.861  0.131  0.000  0.008  0.000
  0.000  0.000  0.001  0.000  0.999
    occupations:
  0.231  0.005  0.005 -0.015  0.000
  0.005  0.072 -0.002  0.000 -0.008
  0.005 -0.002  0.068  0.001  0.000
 -0.015  0.000  0.001  0.065 -0.000
  0.000 -0.008  0.000 -0.000  0.304
atomic mag. moment =     3.826648
atom   22   Tr[ns(na)] (up, down, total) =   4.53527  0.80099  5.33626
   spin  1
    eigenvalues: 
  0.764  0.784  0.992  0.995  1.001
    eigenvectors:
  0.235  0.000  0.000  0.000  0.764
  0.000  1.000  0.000  0.000  0.000
  0.000  0.000  0.048  0.952  0.000
  0.765  0.000  0.000  0.000  0.235
  0.000  0.000  0.952  0.048  0.000
    occupations:
  0.945 -0.001 -0.000 -0.101  0.000
 -0.001  0.784  0.000  0.001  0.000
 -0.000  0.000  0.995 -0.000  0.001
 -0.101  0.001 -0.000  0.820 -0.000
  0.000  0.000  0.001 -0.000  0.992
   spin  2
    eigenvalues: 
  0.065  0.076  0.080  0.285  0.295
    eigenvectors:
  0.799  0.000  0.000  0.025  0.176
  0.000  0.000  0.000  0.885  0.115
  0.000  0.000  1.000  0.000  0.000
  0.201  0.000  0.000  0.091  0.708
  0.000  1.000  0.000  0.000  0.000
    occupations:
  0.111 -0.000  0.000  0.092 -0.000
 -0.000  0.286 -0.000 -0.004 -0.000
  0.000 -0.000  0.080  0.000  0.000
  0.092 -0.004  0.000  0.248  0.000
 -0.000 -0.000  0.000  0.000  0.076
atomic mag. moment =     3.734278
atom   23   Tr[ns(na)] (up, down, total) =   4.61748  0.67830  5.29578
   spin  1
    eigenvalues: 
  0.783  0.831  1.000  1.001  1.002
    eigenvectors:
  0.000  0.999  0.001  0.000  0.000
  0.000  0.000  0.000  1.000  0.000
  0.000  0.000  0.001  0.000  0.999
  0.000  0.001  0.998  0.000  0.001
  1.000  0.000  0.000  0.000  0.000
    occupations:
  0.832 -0.000  0.001  0.006  0.000
 -0.000  1.001 -0.000  0.000 -0.001
  0.001 -0.000  1.002 -0.000  0.000
  0.006  0.000 -0.000  1.000  0.000
  0.000 -0.001  0.000  0.000  0.783
   spin  2
    eigenvalues: 
  0.058  0.066  0.070  0.214  0.271
    eigenvectors:
  0.009  0.000  0.000  0.991  0.000
  0.000  0.000  1.000  0.000  0.000
  0.000  1.000  0.000  0.000  0.000
  0.991  0.000  0.000  0.009  0.000
  0.000  0.000  0.000  0.000  1.000
    occupations:
  0.212  0.000 -0.000 -0.015 -0.000
  0.000  0.070 -0.000  0.000  0.001
 -0.000 -0.000  0.066 -0.000 -0.000
 -0.015  0.000 -0.000  0.059 -0.000
 -0.000  0.001 -0.000 -0.000  0.271
atomic mag. moment =     3.939180
N of occupied +U levels =  42.4786067
 --- exit write_ns ---

     negative rho (up, down):  0.478E-02 0.475E-02

     total cpu time spent up to now is   167045.7 secs

     total energy              =   -2318.22269030 Ry
     Harris-Foulkes estimate   =   -2318.22599664 Ry
     estimated scf accuracy    <       0.00410751 Ry

     total magnetization       =    22.00 Bohr mag/cell
     absolute magnetization    =    40.44 Bohr mag/cell

     iteration #  2     ecut=    40.00 Ry     beta=0.70
     Davidson diagonalization with overlap
     ethr =  1.73E-06,  avg # of iterations =  5.7

     negative rho (up, down):  0.416E-02 0.264E-02

     total cpu time spent up to now is   167416.1 secs

     total energy              =   -2318.11976908 Ry
     Harris-Foulkes estimate   =   -2318.31640301 Ry
     estimated scf accuracy    <       6.18577897 Ry

     total magnetization       =    22.00 Bohr mag/cell
     absolute magnetization    =    40.28 Bohr mag/cell

     iteration #  3     ecut=    40.00 Ry     beta=0.70
     Davidson diagonalization with overlap
     ethr =  1.73E-06,  avg # of iterations =  6.1

     negative rho (up, down):  0.284E-02 0.264E-02

     total cpu time spent up to now is   167777.3 secs

     total energy              =   -2318.22558750 Ry
     Harris-Foulkes estimate   =   -2318.22652839 Ry
     estimated scf accuracy    <       0.00754041 Ry

     total magnetization       =    22.00 Bohr mag/cell
     absolute magnetization    =    40.41 Bohr mag/cell

     iteration #  4     ecut=    40.00 Ry     beta=0.70
     Davidson diagonalization with overlap
     ethr =  1.73E-06,  avg # of iterations =  1.0

     negative rho (up, down):  0.239E-02 0.237E-02

     total cpu time spent up to now is   168040.5 secs

     total energy              =   -2318.22605321 Ry
     Harris-Foulkes estimate   =   -2318.22619197 Ry
     estimated scf accuracy    <       0.00153806 Ry

     total magnetization       =    22.00 Bohr mag/cell
     absolute magnetization    =    40.43 Bohr mag/cell

     iteration #  5     ecut=    40.00 Ry     beta=0.70
     Davidson diagonalization with overlap
     ethr =  6.46E-07,  avg # of iterations =  1.0

     negative rho (up, down):  0.172E-02 0.176E-02

     total cpu time spent up to now is   168308.6 secs

     total energy              =   -2318.22613900 Ry
     Harris-Foulkes estimate   =   -2318.22617685 Ry
     estimated scf accuracy    <       0.00107094 Ry

     total magnetization       =    22.00 Bohr mag/cell
     absolute magnetization    =    40.44 Bohr mag/cell

     iteration #  6     ecut=    40.00 Ry     beta=0.70
     Davidson diagonalization with overlap
     ethr =  4.50E-07,  avg # of iterations =  1.0

     negative rho (up, down):  0.154E-02 0.159E-02

     total cpu time spent up to now is   168584.1 secs

     total energy              =   -2318.22616146 Ry
     Harris-Foulkes estimate   =   -2318.22618407 Ry
     estimated scf accuracy    <       0.00043670 Ry

     total magnetization       =    22.00 Bohr mag/cell
     absolute magnetization    =    40.43 Bohr mag/cell

     iteration #  7     ecut=    40.00 Ry     beta=0.70
     Davidson diagonalization with overlap
     ethr =  1.83E-07,  avg # of iterations =  1.0

     negative rho (up, down):  0.150E-02 0.156E-02

     total cpu time spent up to now is   168851.0 secs

     total energy              =   -2318.22616998 Ry
     Harris-Foulkes estimate   =   -2318.22617799 Ry
     estimated scf accuracy    <       0.00024255 Ry

     total magnetization       =    22.00 Bohr mag/cell
     absolute magnetization    =    40.43 Bohr mag/cell

     iteration #  8     ecut=    40.00 Ry     beta=0.70
     Davidson diagonalization with overlap
     ethr =  1.02E-07,  avg # of iterations =  1.0

     negative rho (up, down):  0.146E-02 0.152E-02

     total cpu time spent up to now is   169123.2 secs

     total energy              =   -2318.22617201 Ry
     Harris-Foulkes estimate   =   -2318.22617647 Ry
     estimated scf accuracy    <       0.00024412 Ry

     total magnetization       =    22.00 Bohr mag/cell
     absolute magnetization    =    40.43 Bohr mag/cell

     iteration #  9     ecut=    40.00 Ry     beta=0.70
     Davidson diagonalization with overlap
     ethr =  1.02E-07,  avg # of iterations =  1.0

     negative rho (up, down):  0.142E-02 0.149E-02

     total cpu time spent up to now is   169390.4 secs

     total energy              =   -2318.22617207 Ry
     Harris-Foulkes estimate   =   -2318.22617629 Ry
     estimated scf accuracy    <       0.00014471 Ry

     total magnetization       =    22.00 Bohr mag/cell
     absolute magnetization    =    40.43 Bohr mag/cell

     iteration # 10     ecut=    40.00 Ry     beta=0.70
     Davidson diagonalization with overlap
     ethr =  6.08E-08,  avg # of iterations =  1.0

     negative rho (up, down):  0.142E-02 0.149E-02

     total cpu time spent up to now is   169651.1 secs

     total energy              =   -2318.22617291 Ry
     Harris-Foulkes estimate   =   -2318.22617435 Ry
     estimated scf accuracy    <       0.00005567 Ry

     total magnetization       =    22.00 Bohr mag/cell
     absolute magnetization    =    40.43 Bohr mag/cell

     iteration # 11     ecut=    40.00 Ry     beta=0.70
     Davidson diagonalization with overlap
     ethr =  2.34E-08,  avg # of iterations =  1.0

     negative rho (up, down):  0.146E-02 0.153E-02

     total cpu time spent up to now is   169915.9 secs

     total energy              =   -2318.22616874 Ry
     Harris-Foulkes estimate   =   -2318.22617366 Ry
     estimated scf accuracy    <       0.00003701 Ry

     total magnetization       =    22.00 Bohr mag/cell
     absolute magnetization    =    40.43 Bohr mag/cell

     iteration # 12     ecut=    40.00 Ry     beta=0.70
     Davidson diagonalization with overlap
     ethr =  1.55E-08,  avg # of iterations =  1.0

     negative rho (up, down):  0.142E-02 0.149E-02

     total cpu time spent up to now is   170177.0 secs

     total energy              =   -2318.22617153 Ry
     Harris-Foulkes estimate   =   -2318.22617216 Ry
     estimated scf accuracy    <       0.00001293 Ry

     total magnetization       =    22.00 Bohr mag/cell
     absolute magnetization    =    40.43 Bohr mag/cell

     iteration # 13     ecut=    40.00 Ry     beta=0.70
     Davidson diagonalization with overlap
     ethr =  5.43E-09,  avg # of iterations =  1.0

     negative rho (up, down):  0.142E-02 0.149E-02

     total cpu time spent up to now is   170435.9 secs

     total energy              =   -2318.22617248 Ry
     Harris-Foulkes estimate   =   -2318.22617278 Ry
     estimated scf accuracy    <       0.00000150 Ry

     total magnetization       =    22.00 Bohr mag/cell
     absolute magnetization    =    40.43 Bohr mag/cell

     iteration # 14     ecut=    40.00 Ry     beta=0.70
     Davidson diagonalization with overlap
     ethr =  6.30E-10,  avg # of iterations =  1.1

     negative rho (up, down):  0.142E-02 0.149E-02

     total cpu time spent up to now is   170709.5 secs

     total energy              =   -2318.22617204 Ry
     Harris-Foulkes estimate   =   -2318.22617331 Ry
     estimated scf accuracy    <       0.00001167 Ry

     total magnetization       =    22.00 Bohr mag/cell
     absolute magnetization    =    40.43 Bohr mag/cell

     iteration # 15     ecut=    40.00 Ry     beta=0.70
     Davidson diagonalization with overlap
     ethr =  6.30E-10,  avg # of iterations =  1.2

     negative rho (up, down):  0.142E-02 0.149E-02

     total cpu time spent up to now is   170972.7 secs

     total energy              =   -2318.22617276 Ry
     Harris-Foulkes estimate   =   -2318.22617285 Ry
     estimated scf accuracy    <       0.00000149 Ry

     total magnetization       =    22.00 Bohr mag/cell
     absolute magnetization    =    40.43 Bohr mag/cell

     iteration # 16     ecut=    40.00 Ry     beta=0.70
     Davidson diagonalization with overlap
     ethr =  6.27E-10,  avg # of iterations =  1.0

     negative rho (up, down):  0.142E-02 0.149E-02

     total cpu time spent up to now is   171243.7 secs

     total energy              =   -2318.22617288 Ry
     Harris-Foulkes estimate   =   -2318.22617294 Ry
     estimated scf accuracy    <       0.00000059 Ry

     total magnetization       =    22.00 Bohr mag/cell
     absolute magnetization    =    40.43 Bohr mag/cell

     iteration # 17     ecut=    40.00 Ry     beta=0.70
     Davidson diagonalization with overlap
     ethr =  2.49E-10,  avg # of iterations =  1.0

     negative rho (up, down):  0.142E-02 0.148E-02

     total cpu time spent up to now is   171503.2 secs

     total energy              =   -2318.22617292 Ry
     Harris-Foulkes estimate   =   -2318.22617295 Ry
     estimated scf accuracy    <       0.00000028 Ry

     total magnetization       =    22.00 Bohr mag/cell
     absolute magnetization    =    40.43 Bohr mag/cell

     iteration # 18     ecut=    40.00 Ry     beta=0.70
     Davidson diagonalization with overlap
     ethr =  1.18E-10,  avg # of iterations =  1.0

     negative rho (up, down):  0.142E-02 0.148E-02

     total cpu time spent up to now is   171761.0 secs

     total energy              =   -2318.22617297 Ry
     Harris-Foulkes estimate   =   -2318.22617297 Ry
     estimated scf accuracy    <       0.00000038 Ry

     total magnetization       =    22.00 Bohr mag/cell
     absolute magnetization    =    40.43 Bohr mag/cell

     iteration # 19     ecut=    40.00 Ry     beta=0.70
     Davidson diagonalization with overlap
     ethr =  1.18E-10,  avg # of iterations =  1.9

     negative rho (up, down):  0.142E-02 0.148E-02

     total cpu time spent up to now is   172028.4 secs

     total energy              =   -2318.22617299 Ry
     Harris-Foulkes estimate   =   -2318.22617302 Ry
     estimated scf accuracy    <       0.00000036 Ry

     total magnetization       =    22.00 Bohr mag/cell
     absolute magnetization    =    40.43 Bohr mag/cell

     iteration # 20     ecut=    40.00 Ry     beta=0.70
     Davidson diagonalization with overlap
     ethr =  1.18E-10,  avg # of iterations =  1.8

     negative rho (up, down):  0.142E-02 0.148E-02

     total cpu time spent up to now is   172290.6 secs

     total energy              =   -2318.22617300 Ry
     Harris-Foulkes estimate   =   -2318.22617302 Ry
     estimated scf accuracy    <       0.00000007 Ry

     total magnetization       =    22.00 Bohr mag/cell
     absolute magnetization    =    40.43 Bohr mag/cell

     iteration # 21     ecut=    40.00 Ry     beta=0.70
     Davidson diagonalization with overlap
     ethr =  3.11E-11,  avg # of iterations =  1.5

     negative rho (up, down):  0.142E-02 0.148E-02

     total cpu time spent up to now is   172552.6 secs

     total energy              =   -2318.22617300 Ry
     Harris-Foulkes estimate   =   -2318.22617304 Ry
     estimated scf accuracy    <       0.00000064 Ry

     total magnetization       =    22.00 Bohr mag/cell
     absolute magnetization    =    40.43 Bohr mag/cell

     iteration # 22     ecut=    40.00 Ry     beta=0.70
     Davidson diagonalization with overlap
     ethr =  3.11E-11,  avg # of iterations =  1.9

     negative rho (up, down):  0.142E-02 0.148E-02

     total cpu time spent up to now is   172821.3 secs

     total energy              =   -2318.22617302 Ry
     Harris-Foulkes estimate   =   -2318.22617303 Ry
     estimated scf accuracy    <       0.00000006 Ry

     total magnetization       =    22.00 Bohr mag/cell
     absolute magnetization    =    40.43 Bohr mag/cell

     iteration # 23     ecut=    40.00 Ry     beta=0.70
     Davidson diagonalization with overlap
=>> PBS: job killed: walltime 172843 exceeded limit 172800
mpirun: killing job...

---------------------------------------
Running PBS batch system epilogue script
Job id: 340686.audhumbla.fysik.dtu.dk
Username: zhonxu
Groupname: campgst
Jobname: MnO2/Eads-2-layers/O-U-7.5
Sessionid: 3795
Resources limits: neednodes=2:ppn=8:xeon8,nodes=2:ppn=8:xeon8,walltime=48:00:00
Resources used: cput=767:11:08,mem=17417432kb,vmem=21404848kb,walltime=48:00:44
Queuename: verylong
Accounting:
This job has allocated the following 16 nodes:
a065 a065 a065 a065 a065 a065 a065 a065 a025 a025 a025 a025 a025 a025 a025 a025
Finished epilogue job 340686.audhumbla.fysik.dtu.dk for zhonxu
