loading modules
dropbox is Dropbox isn't running!

     Program PWSCF v.5.0.2 (svn rev. 9656) starts on  8Aug2014 at  8:11:42 

     This program is part of the open-source Quantum ESPRESSO suite
     for quantum simulation of materials; please cite
         "P. Giannozzi et al., J. Phys.:Condens. Matter 21 395502 (2009);
          URL http://www.quantum-espresso.org", 
     in publications or presentations arising from this work. More details at
     http://www.quantum-espresso.org/quote.php

     Parallel version (MPI), running on    16 processors
     K-points division:     npool     =       4
     R & G space division:  proc/nbgrp/npool/nimage =       4

     Current dimensions of program PWSCF are:
     Max number of different atomic species (ntypx) = 10
     Max number of k-points (npk) =  40000
     Max angular momentum in pseudopotentials (lmaxx) =  3
     Reading input from pwscf.in
Warning: card &CELL ignored
Warning: card / ignored

     Subspace diagonalization in iterative solution of the eigenvalue problem:
     a serial algorithm will be used

 
     Parallelization info
     --------------------
     sticks:   dense  smooth     PW     G-vecs:    dense   smooth      PW
     Min        1419     456    126               336167    60843    9016
     Max        1420     457    127               336172    60875    9024
     Sum        5677    1827    505              1344679   243423   36075
 


     bravais-lattice index     =            0
     lattice parameter (alat)  =      11.7919  a.u.
     unit-cell volume          =    7123.6633 (a.u.)^3
     number of atoms/cell      =           33
     number of atomic types    =            3
     number of electrons       =       253.00
     number of Kohn-Sham states=          379
     kinetic-energy cutoff     =      40.0000  Ry
     charge density cutoff     =     500.0000  Ry
     convergence threshold     =      1.0E-06
     mixing beta               =       0.7000
     number of iterations used =            8  plain     mixing
     Exchange-correlation      = SLA  PW   PBE  PBE ( 1 4 3 4 0)
     EXX-fraction              =        0.00
     nstep                     =           50


     celldm(1)=  11.791891  celldm(2)=   0.000000  celldm(3)=   0.000000
     celldm(4)=   0.000000  celldm(5)=   0.000000  celldm(6)=   0.000000

     crystal axes: (cart. coord. in units of alat)
               a(1) = (   1.000000   0.000000   0.000000 )  
               a(2) = (   0.000000   1.026665   0.000000 )  
               a(3) = (   0.000000   0.000000   4.231793 )  

     reciprocal axes: (cart. coord. in units 2 pi/alat)
               b(1) = (  1.000000  0.000000  0.000000 )  
               b(2) = (  0.000000  0.974028  0.000000 )  
               b(3) = (  0.000000  0.000000  0.236306 )  


     PseudoPot. # 1 for O  read from file:
     /home-research/zhongnanxu/gbrv_espresso_pseudo_v1.01/o_pbe_v1.01.uspp.F.UPF
     MD5 check sum: 2bcb18d16ea4b960afae9ec6d52f22d2
     Pseudo is Ultrasoft + core correction, Zval =  6.0
     Generated by new atomic code, or converted to UPF format
     Using radial grid of  737 points,  5 beta functions with: 
                l(1) =   0
                l(2) =   0
                l(3) =   1
                l(4) =   1
                l(5) =   2
     Q(r) pseudized with  8 coefficients,  rinner =    0.900   0.900   0.900
                                                       0.900   0.900

     PseudoPot. # 2 for Ru read from file:
     /home-research/zhongnanxu/gbrv_espresso_pseudo_v1.01/ru_pbe_v1.uspp.F.UPF
     MD5 check sum: df00be1c11b23341d9806d8f1dfa10cf
     Pseudo is Ultrasoft + core correction, Zval = 16.0
     Generated by new atomic code, or converted to UPF format
     Using radial grid of  967 points,  6 beta functions with: 
                l(1) =   0
                l(2) =   0
                l(3) =   1
                l(4) =   1
                l(5) =   2
                l(6) =   2
     Q(r) pseudized with  8 coefficients,  rinner =    1.300   1.300   1.300
                                                       1.300   1.300

     PseudoPot. # 3 for H  read from file:
     /home-research/zhongnanxu/gbrv_espresso_pseudo_v1.01/h_pbe_v1.uspp.F.UPF
     MD5 check sum: 3408e3ff4ec8b0a4e358431e7e038a48
     Pseudo is Ultrasoft, Zval =  1.0
     Generated by new atomic code, or converted to UPF format
     Using radial grid of  615 points,  2 beta functions with: 
                l(1) =   0
                l(2) =   0
     Q(r) pseudized with  8 coefficients,  rinner =    0.700

     atomic species   valence    mass     pseudopotential
        O0             6.00    15.99940     O ( 1.00)
        Ru1           16.00   101.07000     Ru( 1.00)
        H2             1.00     1.00794     H ( 1.00)


     Simplified LDA+U calculation (l_max = 2) with parameters (eV):
     atomic species    L          U    alpha       J0     beta
        Ru1            2     7.0000   0.0000   0.0000   0.0000



     No symmetry found



   Cartesian axes

     site n.     atom                  positions (alat units)
         1           O0  tau(   1) = (   0.0000000   0.0000000   1.5976288  )
         2           O0  tau(   2) = (   0.0000000   0.5133323   1.7135376  )
         3           Ru1 tau(   3) = (   0.2500000   0.5133323   1.9265237  )
         4           Ru1 tau(   4) = (   0.0000000   0.0000000   1.9104429  )
         5           O0  tau(   5) = (   0.2500000   0.8315984   1.9133628  )
         6           O0  tau(   6) = (   0.2500000   0.1950663   1.9137014  )
         7           O0  tau(   7) = (   0.0000000   0.5133323   2.1143307  )
         8           O0  tau(   8) = (   0.0000000   0.0000000   2.2232570  )
         9           Ru1 tau(   9) = (   0.2500000   0.0000000   2.4362008  )
        10           Ru1 tau(  10) = (   0.0000000   0.5133323   2.4139839  )
        11           O0  tau(  11) = (   0.2500000   0.7083986   2.4352275  )
        12           O0  tau(  12) = (   0.2500000   0.3182660   2.4428024  )
        13           O0  tau(  13) = (   0.0000000   0.0000000   2.6141054  )
        14           O0  tau(  14) = (   0.5000000   0.0000000   1.5980943  )
        15           O0  tau(  15) = (   0.5000000   0.5133323   1.7110408  )
        16           Ru1 tau(  16) = (   0.7500000   0.5133323   1.9265660  )
        17           Ru1 tau(  17) = (   0.5000000   0.0000000   1.9113316  )
        18           O0  tau(  18) = (   0.7500000   0.8315984   1.9134475  )
        19           O0  tau(  19) = (   0.7500000   0.1950663   1.9137014  )
        20           O0  tau(  20) = (   0.5000000   0.5133323   2.1248255  )
        21           O0  tau(  21) = (   0.5000000   0.0000000   2.2236379  )
        22           Ru1 tau(  22) = (   0.7500000   0.0000000   2.4362855  )
        23           Ru1 tau(  23) = (   0.5000000   0.5133323   2.4472458  )
        24           O0  tau(  24) = (   0.7500000   0.7083986   2.4352698  )
        25           O0  tau(  25) = (   0.7500000   0.3182660   2.4426755  )
        26           O0  tau(  26) = (   0.5000000   0.0000000   2.6042453  )
        27           H2  tau(  27) = (  -0.0003700   0.6408749   1.6195494  )
        28           H2  tau(  28) = (   0.4997300   0.6446633   1.6222578  )
        29           H2  tau(  29) = (   0.1462300   0.0299786   1.5449853  )
        30           H2  tau(  30) = (   0.6457400   0.0313441   1.5450699  )
        31           O0  tau(  31) = (   0.5000700   0.5415759   2.7547279  )
        32           O0  tau(  32) = (   0.4999900   0.3417972   2.8749108  )
        33           H2  tau(  33) = (   0.4999600   0.4009947   3.0215847  )

     number of k points=    10  Methfessel-Paxton smearing, width (Ry)=  0.0100
                       cart. coord. in units 2pi/alat
        k(    1) = (   0.0000000   0.0000000   0.0000000), wk =   0.1250000
        k(    2) = (   0.0000000   0.2435070   0.0000000), wk =   0.2500000
        k(    3) = (   0.0000000  -0.4870139   0.0000000), wk =   0.1250000
        k(    4) = (   0.2500000   0.0000000   0.0000000), wk =   0.2500000
        k(    5) = (   0.2500000   0.2435070   0.0000000), wk =   0.2500000
        k(    6) = (   0.2500000  -0.4870139   0.0000000), wk =   0.2500000
        k(    7) = (  -0.5000000   0.0000000   0.0000000), wk =   0.1250000
        k(    8) = (  -0.5000000   0.2435070   0.0000000), wk =   0.2500000
        k(    9) = (  -0.5000000  -0.4870139   0.0000000), wk =   0.1250000
        k(   10) = (  -0.2500000   0.2435070   0.0000000), wk =   0.2500000

     Dense  grid:  1344679 G-vectors     FFT dimensions: (  90,  90, 360)

     Smooth grid:   243423 G-vectors     FFT dimensions: (  48,  50, 216)

     Largest allocated arrays     est. size (Mb)     dimensions
        Kohn-Sham Wavefunctions        44.14 Mb     (   7632,  379)
        Atomic wavefunctions           22.01 Mb     (   7632,  189)
        NL pseudopotentials            48.21 Mb     (   7632,  414)
        Each V/rho on FFT grid         11.12 Mb     ( 729000)
        Each G-vector array             2.56 Mb     ( 336169)
        G-vector shells                 1.12 Mb     ( 146910)
     Largest temporary arrays     est. size (Mb)     dimensions
        Auxiliary wavefunctions       176.55 Mb     (   7632, 1516)
        Each subspace H/S matrix       35.07 Mb     (1516,1516)
        Each <psi_i|beta_j> matrix      2.39 Mb     (    414,  379)
        Arrays for rho mixing          88.99 Mb     ( 729000,   8)

     Check: negative/imaginary core charge=   -0.000003    0.000000

     Initial potential from superposition of free atoms
     Check: negative starting charge=   -0.523679

     starting charge  244.99980, renormalised to  253.00000

     negative rho (up, down):  0.541E+00 0.000E+00
     Number of +U iterations with fixed ns =  0
     Starting occupations:
 --- enter write_ns ---
 LDA+U parameters:
U( 2)     =  7.00000000
alpha( 2) =  0.00000000
atom    3   Tr[ns(na)] =   6.00000
    eigenvalues: 
  0.600  0.600  0.600  0.600  0.600
    eigenvectors:
  1.000  0.000  0.000  0.000  0.000
  0.000  1.000  0.000  0.000  0.000
  0.000  0.000  1.000  0.000  0.000
  0.000  0.000  0.000  1.000  0.000
  0.000  0.000  0.000  0.000  1.000
    occupations:
  0.600  0.000  0.000  0.000  0.000
  0.000  0.600  0.000  0.000  0.000
  0.000  0.000  0.600  0.000  0.000
  0.000  0.000  0.000  0.600  0.000
  0.000  0.000  0.000  0.000  0.600
atom    4   Tr[ns(na)] =   6.00000
    eigenvalues: 
  0.600  0.600  0.600  0.600  0.600
    eigenvectors:
  1.000  0.000  0.000  0.000  0.000
  0.000  1.000  0.000  0.000  0.000
  0.000  0.000  1.000  0.000  0.000
  0.000  0.000  0.000  1.000  0.000
  0.000  0.000  0.000  0.000  1.000
    occupations:
  0.600  0.000  0.000  0.000  0.000
  0.000  0.600  0.000  0.000  0.000
  0.000  0.000  0.600  0.000  0.000
  0.000  0.000  0.000  0.600  0.000
  0.000  0.000  0.000  0.000  0.600
atom    9   Tr[ns(na)] =   6.00000
    eigenvalues: 
  0.600  0.600  0.600  0.600  0.600
    eigenvectors:
  1.000  0.000  0.000  0.000  0.000
  0.000  1.000  0.000  0.000  0.000
  0.000  0.000  1.000  0.000  0.000
  0.000  0.000  0.000  1.000  0.000
  0.000  0.000  0.000  0.000  1.000
    occupations:
  0.600  0.000  0.000  0.000  0.000
  0.000  0.600  0.000  0.000  0.000
  0.000  0.000  0.600  0.000  0.000
  0.000  0.000  0.000  0.600  0.000
  0.000  0.000  0.000  0.000  0.600
atom   10   Tr[ns(na)] =   6.00000
    eigenvalues: 
  0.600  0.600  0.600  0.600  0.600
    eigenvectors:
  1.000  0.000  0.000  0.000  0.000
  0.000  1.000  0.000  0.000  0.000
  0.000  0.000  1.000  0.000  0.000
  0.000  0.000  0.000  1.000  0.000
  0.000  0.000  0.000  0.000  1.000
    occupations:
  0.600  0.000  0.000  0.000  0.000
  0.000  0.600  0.000  0.000  0.000
  0.000  0.000  0.600  0.000  0.000
  0.000  0.000  0.000  0.600  0.000
  0.000  0.000  0.000  0.000  0.600
atom   16   Tr[ns(na)] =   6.00000
    eigenvalues: 
  0.600  0.600  0.600  0.600  0.600
    eigenvectors:
  1.000  0.000  0.000  0.000  0.000
  0.000  1.000  0.000  0.000  0.000
  0.000  0.000  1.000  0.000  0.000
  0.000  0.000  0.000  1.000  0.000
  0.000  0.000  0.000  0.000  1.000
    occupations:
  0.600  0.000  0.000  0.000  0.000
  0.000  0.600  0.000  0.000  0.000
  0.000  0.000  0.600  0.000  0.000
  0.000  0.000  0.000  0.600  0.000
  0.000  0.000  0.000  0.000  0.600
atom   17   Tr[ns(na)] =   6.00000
    eigenvalues: 
  0.600  0.600  0.600  0.600  0.600
    eigenvectors:
  1.000  0.000  0.000  0.000  0.000
  0.000  1.000  0.000  0.000  0.000
  0.000  0.000  1.000  0.000  0.000
  0.000  0.000  0.000  1.000  0.000
  0.000  0.000  0.000  0.000  1.000
    occupations:
  0.600  0.000  0.000  0.000  0.000
  0.000  0.600  0.000  0.000  0.000
  0.000  0.000  0.600  0.000  0.000
  0.000  0.000  0.000  0.600  0.000
  0.000  0.000  0.000  0.000  0.600
atom   22   Tr[ns(na)] =   6.00000
    eigenvalues: 
  0.600  0.600  0.600  0.600  0.600
    eigenvectors:
  1.000  0.000  0.000  0.000  0.000
  0.000  1.000  0.000  0.000  0.000
  0.000  0.000  1.000  0.000  0.000
  0.000  0.000  0.000  1.000  0.000
  0.000  0.000  0.000  0.000  1.000
    occupations:
  0.600  0.000  0.000  0.000  0.000
  0.000  0.600  0.000  0.000  0.000
  0.000  0.000  0.600  0.000  0.000
  0.000  0.000  0.000  0.600  0.000
  0.000  0.000  0.000  0.000  0.600
atom   23   Tr[ns(na)] =   6.00000
    eigenvalues: 
  0.600  0.600  0.600  0.600  0.600
    eigenvectors:
  1.000  0.000  0.000  0.000  0.000
  0.000  1.000  0.000  0.000  0.000
  0.000  0.000  1.000  0.000  0.000
  0.000  0.000  0.000  1.000  0.000
  0.000  0.000  0.000  0.000  1.000
    occupations:
  0.600  0.000  0.000  0.000  0.000
  0.000  0.600  0.000  0.000  0.000
  0.000  0.000  0.600  0.000  0.000
  0.000  0.000  0.000  0.600  0.000
  0.000  0.000  0.000  0.000  0.600
N of occupied +U levels =  48.0000000
 --- exit write_ns ---
 Atomic wfc used for LDA+U Projector are NOT orthogonalized
     Starting wfc are  189 randomized atomic wfcs

     total cpu time spent up to now is      408.2 secs

     per-process dynamical memory:   452.7 Mb

     Self-consistent Calculation

     iteration #  1     ecut=    40.00 Ry     beta=0.70
     Davidson diagonalization with overlap
     ethr =  1.00E-02,  avg # of iterations =  5.9
 --- enter write_ns ---
 LDA+U parameters:
U( 2)     =  7.00000000
alpha( 2) =  0.00000000
atom    3   Tr[ns(na)] =   6.24071
    eigenvalues: 
  0.418  0.449  0.655  0.760  0.838
    eigenvectors:
  0.001  0.191  0.005  0.002  0.801
  0.995  0.005  0.000  0.000  0.000
  0.000  0.000  0.988  0.004  0.008
  0.004  0.804  0.002  0.000  0.189
  0.000  0.000  0.005  0.993  0.002
    occupations:
  0.763 -0.001  0.015 -0.152 -0.002
 -0.001  0.418  0.000  0.003 -0.002
  0.015  0.000  0.656 -0.005 -0.007
 -0.152  0.003 -0.005  0.523  0.002
 -0.002 -0.002 -0.007  0.002  0.760
atom    4   Tr[ns(na)] =   4.84062
    eigenvalues: 
  0.387  0.429  0.430  0.475  0.699
    eigenvectors:
  0.012  0.002  0.002  0.965  0.019
  0.973  0.006  0.005  0.015  0.001
  0.012  0.447  0.539  0.003  0.000
  0.003  0.000  0.000  0.017  0.980
  0.000  0.546  0.454  0.000  0.000
    occupations:
  0.478  0.009  0.002  0.031  0.000
  0.009  0.389  0.005 -0.013  0.000
  0.002  0.005  0.429  0.001  0.000
  0.031 -0.013  0.001  0.694  0.000
  0.000  0.000  0.000  0.000  0.430
atom    9   Tr[ns(na)] =   6.80825
    eigenvalues: 
  0.449  0.470  0.734  0.825  0.926
    eigenvectors:
  0.007  0.118  0.001  0.000  0.874
  0.964  0.036  0.000  0.000  0.000
  0.000  0.000  0.931  0.068  0.001
  0.029  0.846  0.000  0.000  0.125
  0.000  0.000  0.068  0.932  0.000
    occupations:
  0.868 -0.011  0.003 -0.151 -0.001
 -0.011  0.450 -0.001  0.000  0.001
  0.003 -0.001  0.740 -0.005  0.023
 -0.151  0.000 -0.005  0.527  0.000
 -0.001  0.001  0.023  0.000  0.818
atom   10   Tr[ns(na)] =   7.22897
    eigenvalues: 
  0.441  0.456  0.836  0.919  0.962
    eigenvectors:
  0.000  0.988  0.000  0.000  0.012
  0.000  0.000  0.000  1.000  0.000
  0.000  0.000  1.000  0.000  0.000
  0.000  0.012  0.000  0.000  0.988
  1.000  0.000  0.000  0.000  0.000
    occupations:
  0.463  0.000 -0.002  0.056  0.000
  0.000  0.919  0.000  0.000 -0.010
 -0.002  0.000  0.836  0.000  0.000
  0.056  0.000  0.000  0.956  0.000
  0.000 -0.010  0.000  0.000  0.442
atom   16   Tr[ns(na)] =   6.23769
    eigenvalues: 
  0.418  0.449  0.654  0.760  0.838
    eigenvectors:
  0.001  0.190  0.006  0.002  0.801
  0.995  0.005  0.000  0.000  0.000
  0.000  0.000  0.987  0.004  0.009
  0.004  0.805  0.003  0.000  0.188
  0.000  0.000  0.004  0.993  0.002
    occupations:
  0.763  0.001  0.016 -0.152  0.002
  0.001  0.418 -0.001 -0.003 -0.002
  0.016 -0.001  0.656 -0.005  0.007
 -0.152 -0.003 -0.005  0.523 -0.002
  0.002 -0.002  0.007 -0.002  0.759
atom   17   Tr[ns(na)] =   4.75822
    eigenvalues: 
  0.374  0.420  0.428  0.475  0.683
    eigenvectors:
  0.010  0.002  0.000  0.970  0.018
  0.985  0.001  0.000  0.012  0.002
  0.002  0.994  0.003  0.002  0.000
  0.003  0.000  0.000  0.016  0.981
  0.000  0.002  0.997  0.000  0.000
    occupations:
  0.478  0.009  0.002  0.028  0.000
  0.009  0.376  0.002 -0.013 -0.001
  0.002  0.002  0.420  0.001  0.000
  0.028 -0.013  0.001  0.679  0.000
  0.000 -0.001  0.000  0.000  0.428
atom   22   Tr[ns(na)] =   6.80672
    eigenvalues: 
  0.449  0.470  0.734  0.824  0.926
    eigenvectors:
  0.006  0.118  0.001  0.000  0.874
  0.968  0.032  0.000  0.000  0.000
  0.000  0.000  0.929  0.070  0.001
  0.026  0.850  0.000  0.000  0.124
  0.000  0.000  0.070  0.930  0.001
    occupations:
  0.869  0.009  0.003 -0.151  0.003
  0.009  0.450  0.000  0.001  0.001
  0.003  0.000  0.740 -0.005 -0.023
 -0.151  0.001 -0.005  0.526 -0.001
  0.003  0.001 -0.023 -0.001  0.818
atom   23   Tr[ns(na)] =   6.44102
    eigenvalues: 
  0.423  0.503  0.620  0.730  0.945
    eigenvectors:
  0.000  0.991  0.000  0.001  0.008
  0.004  0.000  0.996  0.000  0.000
  0.000  0.001  0.000  0.998  0.000
  0.000  0.008  0.000  0.000  0.992
  0.996  0.000  0.004  0.000  0.000
    occupations:
  0.506  0.000  0.008  0.039  0.000
  0.000  0.619  0.000  0.000 -0.013
  0.008  0.000  0.730 -0.005  0.000
  0.039  0.000 -0.005  0.942  0.000
  0.000 -0.013  0.000  0.000  0.424
N of occupied +U levels =  49.3622007
 --- exit write_ns ---

     negative rho (up, down):  0.606E+00 0.000E+00

     total cpu time spent up to now is     2081.8 secs

     total energy              =   -2180.70952076 Ry
     Harris-Foulkes estimate   =   -2195.26718194 Ry
     estimated scf accuracy    <      18.15864402 Ry

     iteration #  2     ecut=    40.00 Ry     beta=0.70
     Davidson diagonalization with overlap
     ethr =  7.18E-03,  avg # of iterations =  4.0

     negative rho (up, down):  0.608E+00 0.000E+00

     total cpu time spent up to now is     3241.1 secs

     total energy              =   -2109.44375902 Ry
     Harris-Foulkes estimate   =   -2265.93346779 Ry
     estimated scf accuracy    <    1998.44508505 Ry

     iteration #  3     ecut=    40.00 Ry     beta=0.70
     Davidson diagonalization with overlap
     ethr =  7.18E-03,  avg # of iterations =  4.8

     negative rho (up, down):  0.575E+00 0.000E+00

     total cpu time spent up to now is     4503.3 secs

     total energy              =   -2175.42957462 Ry
     Harris-Foulkes estimate   =   -2213.09956302 Ry
     estimated scf accuracy    <     325.30372624 Ry

     iteration #  4     ecut=    40.00 Ry     beta=0.70
     Davidson diagonalization with overlap
     ethr =  7.18E-03,  avg # of iterations =  3.0

     negative rho (up, down):  0.566E+00 0.000E+00

     total cpu time spent up to now is     5520.7 secs

     total energy              =   -2191.62397042 Ry
     Harris-Foulkes estimate   =   -2195.17790108 Ry
     estimated scf accuracy    <      28.51461189 Ry

     iteration #  5     ecut=    40.00 Ry     beta=0.70
     Davidson diagonalization with overlap
     ethr =  7.18E-03,  avg # of iterations =  3.2

     negative rho (up, down):  0.565E+00 0.000E+00

     total cpu time spent up to now is     6318.9 secs

     total energy              =   -2192.46766109 Ry
     Harris-Foulkes estimate   =   -2193.86277126 Ry
     estimated scf accuracy    <       6.40601083 Ry

     iteration #  6     ecut=    40.00 Ry     beta=0.70
     Davidson diagonalization with overlap
     ethr =  2.53E-03,  avg # of iterations =  3.0

     negative rho (up, down):  0.566E+00 0.000E+00

     total cpu time spent up to now is     7164.6 secs

     total energy              =   -2193.02747455 Ry
     Harris-Foulkes estimate   =   -2193.29086453 Ry
     estimated scf accuracy    <       3.45317681 Ry

     iteration #  7     ecut=    40.00 Ry     beta=0.70
     Davidson diagonalization with overlap
     ethr =  1.36E-03,  avg # of iterations =  2.4

     negative rho (up, down):  0.567E+00 0.000E+00

     total cpu time spent up to now is     7959.9 secs

     total energy              =   -2192.96777945 Ry
     Harris-Foulkes estimate   =   -2193.18871113 Ry
     estimated scf accuracy    <       2.05228165 Ry

     iteration #  8     ecut=    40.00 Ry     beta=0.70
     Davidson diagonalization with overlap
     ethr =  8.11E-04,  avg # of iterations =  4.8

     negative rho (up, down):  0.569E+00 0.000E+00

     total cpu time spent up to now is     8903.8 secs

     total energy              =   -2192.94414743 Ry
     Harris-Foulkes estimate   =   -2193.25096998 Ry
     estimated scf accuracy    <       2.11344945 Ry

     iteration #  9     ecut=    40.00 Ry     beta=0.70
     Davidson diagonalization with overlap
     ethr =  8.11E-04,  avg # of iterations =  1.0

     negative rho (up, down):  0.570E+00 0.000E+00

     total cpu time spent up to now is     9619.8 secs

     total energy              =   -2193.03021464 Ry
     Harris-Foulkes estimate   =   -2193.19439835 Ry
     estimated scf accuracy    <       1.29586892 Ry

     iteration # 10     ecut=    40.00 Ry     beta=0.70
     Davidson diagonalization with overlap
     ethr =  5.12E-04,  avg # of iterations =  1.3

     negative rho (up, down):  0.571E+00 0.000E+00

     total cpu time spent up to now is    10545.5 secs

     total energy              =   -2193.05129474 Ry
     Harris-Foulkes estimate   =   -2193.13105628 Ry
     estimated scf accuracy    <       0.44101279 Ry

     iteration # 11     ecut=    40.00 Ry     beta=0.70
     Davidson diagonalization with overlap
     ethr =  1.74E-04,  avg # of iterations =  5.4

     negative rho (up, down):  0.572E+00 0.000E+00

     total cpu time spent up to now is    11500.1 secs

     total energy              =   -2193.05038394 Ry
     Harris-Foulkes estimate   =   -2193.12517678 Ry
     estimated scf accuracy    <       0.49431717 Ry

     iteration # 12     ecut=    40.00 Ry     beta=0.70
     Davidson diagonalization with overlap
     ethr =  1.74E-04,  avg # of iterations =  4.3

     negative rho (up, down):  0.568E+00 0.000E+00

     total cpu time spent up to now is    12305.8 secs

     total energy              =   -2193.05681713 Ry
     Harris-Foulkes estimate   =   -2193.11439521 Ry
     estimated scf accuracy    <       0.34347576 Ry

     iteration # 13     ecut=    40.00 Ry     beta=0.70
     Davidson diagonalization with overlap
     ethr =  1.36E-04,  avg # of iterations =  3.4

     negative rho (up, down):  0.569E+00 0.000E+00

     total cpu time spent up to now is    13108.7 secs

     total energy              =   -2193.01358987 Ry
     Harris-Foulkes estimate   =   -2193.14854333 Ry
     estimated scf accuracy    <       1.20251709 Ry

     iteration # 14     ecut=    40.00 Ry     beta=0.70
     Davidson diagonalization with overlap
     ethr =  1.36E-04,  avg # of iterations =  3.3

     negative rho (up, down):  0.570E+00 0.000E+00

     total cpu time spent up to now is    13921.0 secs

     total energy              =   -2193.06040225 Ry
     Harris-Foulkes estimate   =   -2193.12370994 Ry
     estimated scf accuracy    <       0.74414560 Ry

     iteration # 15     ecut=    40.00 Ry     beta=0.70
     Davidson diagonalization with overlap
     ethr =  1.36E-04,  avg # of iterations =  1.1

     negative rho (up, down):  0.570E+00 0.000E+00

     total cpu time spent up to now is    14625.2 secs

     total energy              =   -2193.08276208 Ry
     Harris-Foulkes estimate   =   -2193.10171823 Ry
     estimated scf accuracy    <       0.14091522 Ry

     iteration # 16     ecut=    40.00 Ry     beta=0.70
     Davidson diagonalization with overlap
     ethr =  5.57E-05,  avg # of iterations =  1.1

     negative rho (up, down):  0.570E+00 0.000E+00

     total cpu time spent up to now is    15384.9 secs

     total energy              =   -2193.09078058 Ry
     Harris-Foulkes estimate   =   -2193.09446625 Ry
     estimated scf accuracy    <       0.02237272 Ry

     iteration # 17     ecut=    40.00 Ry     beta=0.70
     Davidson diagonalization with overlap
     ethr =  8.84E-06,  avg # of iterations =  3.7

     negative rho (up, down):  0.570E+00 0.000E+00

     total cpu time spent up to now is    16261.0 secs

     total energy              =   -2193.09238081 Ry
     Harris-Foulkes estimate   =   -2193.09462430 Ry
     estimated scf accuracy    <       0.03313303 Ry

     iteration # 18     ecut=    40.00 Ry     beta=0.70
     Davidson diagonalization with overlap
     ethr =  8.84E-06,  avg # of iterations =  1.7

     negative rho (up, down):  0.570E+00 0.000E+00

     total cpu time spent up to now is    17059.3 secs

     total energy              =   -2193.09322906 Ry
     Harris-Foulkes estimate   =   -2193.09415760 Ry
     estimated scf accuracy    <       0.00656808 Ry

     iteration # 19     ecut=    40.00 Ry     beta=0.70
     Davidson diagonalization with overlap
     ethr =  2.60E-06,  avg # of iterations =  6.1

     negative rho (up, down):  0.570E+00 0.000E+00

     total cpu time spent up to now is    17986.9 secs

     total energy              =   -2193.09219353 Ry
     Harris-Foulkes estimate   =   -2193.09594739 Ry
     estimated scf accuracy    <       0.02801332 Ry

     iteration # 20     ecut=    40.00 Ry     beta=0.70
     Davidson diagonalization with overlap
     ethr =  2.60E-06,  avg # of iterations =  1.1

     negative rho (up, down):  0.570E+00 0.000E+00

     total cpu time spent up to now is    18798.5 secs

     total energy              =   -2193.09399963 Ry
     Harris-Foulkes estimate   =   -2193.09451775 Ry
     estimated scf accuracy    <       0.00402776 Ry

     iteration # 21     ecut=    40.00 Ry     beta=0.70
     Davidson diagonalization with overlap
     ethr =  1.59E-06,  avg # of iterations =  1.0

     negative rho (up, down):  0.571E+00 0.000E+00

     total cpu time spent up to now is    19580.1 secs

     total energy              =   -2193.09426417 Ry
     Harris-Foulkes estimate   =   -2193.09455617 Ry
     estimated scf accuracy    <       0.00273426 Ry

     iteration # 22     ecut=    40.00 Ry     beta=0.70
     Davidson diagonalization with overlap
     ethr =  1.08E-06,  avg # of iterations =  1.0

     negative rho (up, down):  0.571E+00 0.000E+00

     total cpu time spent up to now is    20245.8 secs

     total energy              =   -2193.09404638 Ry
     Harris-Foulkes estimate   =   -2193.09518612 Ry
     estimated scf accuracy    <       0.01569718 Ry

     iteration # 23     ecut=    40.00 Ry     beta=0.70
     Davidson diagonalization with overlap
     ethr =  1.08E-06,  avg # of iterations =  1.0

     negative rho (up, down):  0.571E+00 0.000E+00

     total cpu time spent up to now is    20970.4 secs

     total energy              =   -2193.09420000 Ry
     Harris-Foulkes estimate   =   -2193.09481471 Ry
     estimated scf accuracy    <       0.00219959 Ry

     iteration # 24     ecut=    40.00 Ry     beta=0.70
     Davidson diagonalization with overlap
     ethr =  8.69E-07,  avg # of iterations =  2.6

     negative rho (up, down):  0.571E+00 0.000E+00

     total cpu time spent up to now is    21719.1 secs

     total energy              =   -2193.09390491 Ry
     Harris-Foulkes estimate   =   -2193.09512864 Ry
     estimated scf accuracy    <       0.01923546 Ry

     iteration # 25     ecut=    40.00 Ry     beta=0.70
     Davidson diagonalization with overlap
     ethr =  8.69E-07,  avg # of iterations =  2.1

     negative rho (up, down):  0.571E+00 0.000E+00

     total cpu time spent up to now is    22390.0 secs

     total energy              =   -2193.09435454 Ry
     Harris-Foulkes estimate   =   -2193.09513512 Ry
     estimated scf accuracy    <       0.00600323 Ry

     iteration # 26     ecut=    40.00 Ry     beta=0.70
     Davidson diagonalization with overlap
     ethr =  8.69E-07,  avg # of iterations =  1.0

     negative rho (up, down):  0.571E+00 0.000E+00

     total cpu time spent up to now is    23091.8 secs

     total energy              =   -2193.09476396 Ry
     Harris-Foulkes estimate   =   -2193.09490831 Ry
     estimated scf accuracy    <       0.00200105 Ry

     iteration # 27     ecut=    40.00 Ry     beta=0.70
     Davidson diagonalization with overlap
     ethr =  7.91E-07,  avg # of iterations =  1.0

     negative rho (up, down):  0.571E+00 0.000E+00

     total cpu time spent up to now is    23885.7 secs

     total energy              =   -2193.09448433 Ry
     Harris-Foulkes estimate   =   -2193.09519442 Ry
     estimated scf accuracy    <       0.00738742 Ry

     iteration # 28     ecut=    40.00 Ry     beta=0.70
     Davidson diagonalization with overlap
     ethr =  7.91E-07,  avg # of iterations =  1.0

     negative rho (up, down):  0.571E+00 0.000E+00

     total cpu time spent up to now is    24681.5 secs

     total energy              =   -2193.09484128 Ry
     Harris-Foulkes estimate   =   -2193.09490180 Ry
     estimated scf accuracy    <       0.00135287 Ry

     iteration # 29     ecut=    40.00 Ry     beta=0.70
     Davidson diagonalization with overlap
     ethr =  5.35E-07,  avg # of iterations =  1.0

     negative rho (up, down):  0.571E+00 0.000E+00

     total cpu time spent up to now is    25396.2 secs

     total energy              =   -2193.09476041 Ry
     Harris-Foulkes estimate   =   -2193.09496657 Ry
     estimated scf accuracy    <       0.00094023 Ry

     iteration # 30     ecut=    40.00 Ry     beta=0.70
     Davidson diagonalization with overlap
     ethr =  3.72E-07,  avg # of iterations =  1.0

     negative rho (up, down):  0.571E+00 0.000E+00

     total cpu time spent up to now is    26118.8 secs

     total energy              =   -2193.09482718 Ry
     Harris-Foulkes estimate   =   -2193.09491813 Ry
     estimated scf accuracy    <       0.00115884 Ry

     iteration # 31     ecut=    40.00 Ry     beta=0.70
     Davidson diagonalization with overlap
     ethr =  3.72E-07,  avg # of iterations =  1.0

     negative rho (up, down):  0.571E+00 0.000E+00

     total cpu time spent up to now is    27015.1 secs

     total energy              =   -2193.09491692 Ry
     Harris-Foulkes estimate   =   -2193.09492845 Ry
     estimated scf accuracy    <       0.00051350 Ry

     iteration # 32     ecut=    40.00 Ry     beta=0.70
     Davidson diagonalization with overlap
     ethr =  2.03E-07,  avg # of iterations =  1.0

     negative rho (up, down):  0.571E+00 0.000E+00

     total cpu time spent up to now is    27745.1 secs

     total energy              =   -2193.09491850 Ry
     Harris-Foulkes estimate   =   -2193.09499500 Ry
     estimated scf accuracy    <       0.00070830 Ry

     iteration # 33     ecut=    40.00 Ry     beta=0.70
     Davidson diagonalization with overlap
     ethr =  2.03E-07,  avg # of iterations =  1.0

     negative rho (up, down):  0.571E+00 0.000E+00

     total cpu time spent up to now is    28448.7 secs

     total energy              =   -2193.09496317 Ry
     Harris-Foulkes estimate   =   -2193.09498508 Ry
     estimated scf accuracy    <       0.00077581 Ry

     iteration # 34     ecut=    40.00 Ry     beta=0.70
     Davidson diagonalization with overlap
     ethr =  2.03E-07,  avg # of iterations =  1.0

     negative rho (up, down):  0.571E+00 0.000E+00

     total cpu time spent up to now is    29299.7 secs

     total energy              =   -2193.09497575 Ry
     Harris-Foulkes estimate   =   -2193.09512651 Ry
     estimated scf accuracy    <       0.00119003 Ry

     iteration # 35     ecut=    40.00 Ry     beta=0.70
     Davidson diagonalization with overlap
     ethr =  2.03E-07,  avg # of iterations =  1.0

     negative rho (up, down):  0.571E+00 0.000E+00

     total cpu time spent up to now is    30046.1 secs

     total energy              =   -2193.09489611 Ry
     Harris-Foulkes estimate   =   -2193.09510427 Ry
     estimated scf accuracy    <       0.00074031 Ry

     iteration # 36     ecut=    40.00 Ry     beta=0.70
     Davidson diagonalization with overlap
     ethr =  2.03E-07,  avg # of iterations =  1.0

     negative rho (up, down):  0.571E+00 0.000E+00

     total cpu time spent up to now is    30750.2 secs

     total energy              =   -2193.09473315 Ry
     Harris-Foulkes estimate   =   -2193.09527932 Ry
     estimated scf accuracy    <       0.00430936 Ry

     iteration # 37     ecut=    40.00 Ry     beta=0.70
     Davidson diagonalization with overlap
     ethr =  2.03E-07,  avg # of iterations =  1.0

     negative rho (up, down):  0.571E+00 0.000E+00

     total cpu time spent up to now is    31520.6 secs

     total energy              =   -2193.09499490 Ry
     Harris-Foulkes estimate   =   -2193.09508999 Ry
     estimated scf accuracy    <       0.00174182 Ry

     iteration # 38     ecut=    40.00 Ry     beta=0.70
     Davidson diagonalization with overlap
     ethr =  2.03E-07,  avg # of iterations =  1.0

     negative rho (up, down):  0.571E+00 0.000E+00

     total cpu time spent up to now is    32319.3 secs

     total energy              =   -2193.09498656 Ry
     Harris-Foulkes estimate   =   -2193.09512531 Ry
     estimated scf accuracy    <       0.00106831 Ry

     iteration # 39     ecut=    40.00 Ry     beta=0.70
     Davidson diagonalization with overlap
     ethr =  2.03E-07,  avg # of iterations =  1.0

     negative rho (up, down):  0.571E+00 0.000E+00

     total cpu time spent up to now is    33052.6 secs

     total energy              =   -2193.09506789 Ry
     Harris-Foulkes estimate   =   -2193.09509547 Ry
     estimated scf accuracy    <       0.00049831 Ry

     iteration # 40     ecut=    40.00 Ry     beta=0.70
     Davidson diagonalization with overlap
     ethr =  1.97E-07,  avg # of iterations =  1.0

     negative rho (up, down):  0.571E+00 0.000E+00

     total cpu time spent up to now is    33704.9 secs

     total energy              =   -2193.09507406 Ry
     Harris-Foulkes estimate   =   -2193.09511739 Ry
     estimated scf accuracy    <       0.00033966 Ry

     iteration # 41     ecut=    40.00 Ry     beta=0.70
     Davidson diagonalization with overlap
     ethr =  1.34E-07,  avg # of iterations =  1.0

     negative rho (up, down):  0.571E+00 0.000E+00

     total cpu time spent up to now is    34427.4 secs

     total energy              =   -2193.09507832 Ry
     Harris-Foulkes estimate   =   -2193.09511009 Ry
     estimated scf accuracy    <       0.00030906 Ry

     iteration # 42     ecut=    40.00 Ry     beta=0.70
     Davidson diagonalization with overlap
     ethr =  1.22E-07,  avg # of iterations =  1.0

     negative rho (up, down):  0.571E+00 0.000E+00

     total cpu time spent up to now is    35320.0 secs

     total energy              =   -2193.09506991 Ry
     Harris-Foulkes estimate   =   -2193.09511172 Ry
     estimated scf accuracy    <       0.00047584 Ry

     iteration # 43     ecut=    40.00 Ry     beta=0.70
     Davidson diagonalization with overlap
     ethr =  1.22E-07,  avg # of iterations =  1.0

     negative rho (up, down):  0.571E+00 0.000E+00

     total cpu time spent up to now is    36039.5 secs

     total energy              =   -2193.09509745 Ry
     Harris-Foulkes estimate   =   -2193.09509065 Ry
     estimated scf accuracy    <       0.00007828 Ry

     iteration # 44     ecut=    40.00 Ry     beta=0.70
     Davidson diagonalization with overlap
     ethr =  3.09E-08,  avg # of iterations =  1.0

     negative rho (up, down):  0.571E+00 0.000E+00

     total cpu time spent up to now is    36766.6 secs

     total energy              =   -2193.09509229 Ry
     Harris-Foulkes estimate   =   -2193.09511795 Ry
     estimated scf accuracy    <       0.00023467 Ry

     iteration # 45     ecut=    40.00 Ry     beta=0.70
     Davidson diagonalization with overlap
     ethr =  3.09E-08,  avg # of iterations =  1.0

     negative rho (up, down):  0.571E+00 0.000E+00

     total cpu time spent up to now is    37581.8 secs

     total energy              =   -2193.09509928 Ry
     Harris-Foulkes estimate   =   -2193.09511528 Ry
     estimated scf accuracy    <       0.00014073 Ry

     iteration # 46     ecut=    40.00 Ry     beta=0.70
     Davidson diagonalization with overlap
     ethr =  3.09E-08,  avg # of iterations =  1.0

     negative rho (up, down):  0.571E+00 0.000E+00

     total cpu time spent up to now is    38340.2 secs

     total energy              =   -2193.09505863 Ry
     Harris-Foulkes estimate   =   -2193.09515493 Ry
     estimated scf accuracy    <       0.00068106 Ry

     iteration # 47     ecut=    40.00 Ry     beta=0.70
     Davidson diagonalization with overlap
     ethr =  3.09E-08,  avg # of iterations =  1.6

     negative rho (up, down):  0.571E+00 0.000E+00

     total cpu time spent up to now is    39121.6 secs

     total energy              =   -2193.09504545 Ry
     Harris-Foulkes estimate   =   -2193.09517832 Ry
     estimated scf accuracy    <       0.00234771 Ry

     iteration # 48     ecut=    40.00 Ry     beta=0.70
     Davidson diagonalization with overlap
     ethr =  3.09E-08,  avg # of iterations =  1.1

     negative rho (up, down):  0.571E+00 0.000E+00

     total cpu time spent up to now is    39989.8 secs

     total energy              =   -2193.09509790 Ry
     Harris-Foulkes estimate   =   -2193.09513587 Ry
     estimated scf accuracy    <       0.00029852 Ry

     iteration # 49     ecut=    40.00 Ry     beta=0.70
     Davidson diagonalization with overlap
     ethr =  3.09E-08,  avg # of iterations =  1.4

     negative rho (up, down):  0.571E+00 0.000E+00

     total cpu time spent up to now is    40814.7 secs

     total energy              =   -2193.09507409 Ry
     Harris-Foulkes estimate   =   -2193.09515982 Ry
     estimated scf accuracy    <       0.00082096 Ry

     iteration # 50     ecut=    40.00 Ry     beta=0.70
     Davidson diagonalization with overlap
     ethr =  3.09E-08,  avg # of iterations =  1.0

     negative rho (up, down):  0.571E+00 0.000E+00

     total cpu time spent up to now is    41469.1 secs

     total energy              =   -2193.09512591 Ry
     Harris-Foulkes estimate   =   -2193.09512464 Ry
     estimated scf accuracy    <       0.00007691 Ry

     iteration # 51     ecut=    40.00 Ry     beta=0.70
     Davidson diagonalization with overlap
     ethr =  3.04E-08,  avg # of iterations =  1.0

     negative rho (up, down):  0.571E+00 0.000E+00

     total cpu time spent up to now is    42227.2 secs

     total energy              =   -2193.09512195 Ry
     Harris-Foulkes estimate   =   -2193.09513880 Ry
     estimated scf accuracy    <       0.00014223 Ry

     iteration # 52     ecut=    40.00 Ry     beta=0.70
     Davidson diagonalization with overlap
     ethr =  3.04E-08,  avg # of iterations =  1.0

     negative rho (up, down):  0.571E+00 0.000E+00

     total cpu time spent up to now is    43035.2 secs

     total energy              =   -2193.09511212 Ry
     Harris-Foulkes estimate   =   -2193.09513763 Ry
     estimated scf accuracy    <       0.00017388 Ry

     iteration # 53     ecut=    40.00 Ry     beta=0.70
     Davidson diagonalization with overlap
     ethr =  3.04E-08,  avg # of iterations =  1.0

     negative rho (up, down):  0.571E+00 0.000E+00

     total cpu time spent up to now is    43734.7 secs

     total energy              =   -2193.09512909 Ry
     Harris-Foulkes estimate   =   -2193.09512598 Ry
     estimated scf accuracy    <       0.00005770 Ry

     iteration # 54     ecut=    40.00 Ry     beta=0.70
     Davidson diagonalization with overlap
     ethr =  2.28E-08,  avg # of iterations =  1.0

     negative rho (up, down):  0.571E+00 0.000E+00

     total cpu time spent up to now is    44443.7 secs

     total energy              =   -2193.09513071 Ry
     Harris-Foulkes estimate   =   -2193.09513574 Ry
     estimated scf accuracy    <       0.00005679 Ry

     iteration # 55     ecut=    40.00 Ry     beta=0.70
     Davidson diagonalization with overlap
     ethr =  2.24E-08,  avg # of iterations =  1.0

     negative rho (up, down):  0.571E+00 0.000E+00

     total cpu time spent up to now is    45235.2 secs

     total energy              =   -2193.09513613 Ry
     Harris-Foulkes estimate   =   -2193.09513572 Ry
     estimated scf accuracy    <       0.00005713 Ry

     iteration # 56     ecut=    40.00 Ry     beta=0.70
     Davidson diagonalization with overlap
     ethr =  2.24E-08,  avg # of iterations =  1.0

     negative rho (up, down):  0.571E+00 0.000E+00

     total cpu time spent up to now is    45989.6 secs

     total energy              =   -2193.09513956 Ry
     Harris-Foulkes estimate   =   -2193.09514145 Ry
     estimated scf accuracy    <       0.00004216 Ry

     iteration # 57     ecut=    40.00 Ry     beta=0.70
     Davidson diagonalization with overlap
     ethr =  1.67E-08,  avg # of iterations =  1.0

     negative rho (up, down):  0.571E+00 0.000E+00

     total cpu time spent up to now is    46709.7 secs

     total energy              =   -2193.09513823 Ry
     Harris-Foulkes estimate   =   -2193.09514621 Ry
     estimated scf accuracy    <       0.00006172 Ry

     iteration # 58     ecut=    40.00 Ry     beta=0.70
     Davidson diagonalization with overlap
     ethr =  1.67E-08,  avg # of iterations =  1.0

     negative rho (up, down):  0.571E+00 0.000E+00

     total cpu time spent up to now is    47521.7 secs

     total energy              =   -2193.09513247 Ry
     Harris-Foulkes estimate   =   -2193.09515181 Ry
     estimated scf accuracy    <       0.00019897 Ry

     iteration # 59     ecut=    40.00 Ry     beta=0.70
     Davidson diagonalization with overlap
     ethr =  1.67E-08,  avg # of iterations =  1.0

     negative rho (up, down):  0.571E+00 0.000E+00

     total cpu time spent up to now is    48338.4 secs

     total energy              =   -2193.09510872 Ry
     Harris-Foulkes estimate   =   -2193.09515599 Ry
     estimated scf accuracy    <       0.00010964 Ry

     iteration # 60     ecut=    40.00 Ry     beta=0.70
     Davidson diagonalization with overlap
     ethr =  1.67E-08,  avg # of iterations =  1.9

     negative rho (up, down):  0.571E+00 0.000E+00

     total cpu time spent up to now is    49146.0 secs

     total energy              =   -2193.09510073 Ry
     Harris-Foulkes estimate   =   -2193.09517366 Ry
     estimated scf accuracy    <       0.00065904 Ry

     iteration # 61     ecut=    40.00 Ry     beta=0.70
     Davidson diagonalization with overlap
     ethr =  1.67E-08,  avg # of iterations =  1.1

     negative rho (up, down):  0.571E+00 0.000E+00

     total cpu time spent up to now is    49925.9 secs

     total energy              =   -2193.09513201 Ry
     Harris-Foulkes estimate   =   -2193.09515013 Ry
     estimated scf accuracy    <       0.00025718 Ry

     iteration # 62     ecut=    40.00 Ry     beta=0.70
     Davidson diagonalization with overlap
     ethr =  1.67E-08,  avg # of iterations =  1.0

     negative rho (up, down):  0.571E+00 0.000E+00

     total cpu time spent up to now is    50728.7 secs

     total energy              =   -2193.09513868 Ry
     Harris-Foulkes estimate   =   -2193.09515495 Ry
     estimated scf accuracy    <       0.00005771 Ry

     iteration # 63     ecut=    40.00 Ry     beta=0.70
     Davidson diagonalization with overlap
     ethr =  1.67E-08,  avg # of iterations =  1.0

     negative rho (up, down):  0.571E+00 0.000E+00

     total cpu time spent up to now is    51505.7 secs

     total energy              =   -2193.09514056 Ry
     Harris-Foulkes estimate   =   -2193.09515626 Ry
     estimated scf accuracy    <       0.00019686 Ry

     iteration # 64     ecut=    40.00 Ry     beta=0.70
     Davidson diagonalization with overlap
     ethr =  1.67E-08,  avg # of iterations =  1.0

     negative rho (up, down):  0.571E+00 0.000E+00

     total cpu time spent up to now is    52255.6 secs

     total energy              =   -2193.09514730 Ry
     Harris-Foulkes estimate   =   -2193.09515186 Ry
     estimated scf accuracy    <       0.00003106 Ry

     iteration # 65     ecut=    40.00 Ry     beta=0.70
     Davidson diagonalization with overlap
     ethr =  1.23E-08,  avg # of iterations =  1.0

     negative rho (up, down):  0.571E+00 0.000E+00

     total cpu time spent up to now is    53001.4 secs

     total energy              =   -2193.09514880 Ry
     Harris-Foulkes estimate   =   -2193.09515046 Ry
     estimated scf accuracy    <       0.00002884 Ry

     iteration # 66     ecut=    40.00 Ry     beta=0.70
     Davidson diagonalization with overlap
     ethr =  1.14E-08,  avg # of iterations =  1.0

     negative rho (up, down):  0.571E+00 0.000E+00

     total cpu time spent up to now is    53828.3 secs

     total energy              =   -2193.09515024 Ry
     Harris-Foulkes estimate   =   -2193.09515127 Ry
     estimated scf accuracy    <       0.00001319 Ry

     iteration # 67     ecut=    40.00 Ry     beta=0.70
     Davidson diagonalization with overlap
     ethr =  5.21E-09,  avg # of iterations =  1.0

     negative rho (up, down):  0.571E+00 0.000E+00

     total cpu time spent up to now is    54542.7 secs

     total energy              =   -2193.09515184 Ry
     Harris-Foulkes estimate   =   -2193.09515125 Ry
     estimated scf accuracy    <       0.00000578 Ry

     iteration # 68     ecut=    40.00 Ry     beta=0.70
     Davidson diagonalization with overlap
     ethr =  2.29E-09,  avg # of iterations =  1.0

     negative rho (up, down):  0.571E+00 0.000E+00

     total cpu time spent up to now is    55322.7 secs

     total energy              =   -2193.09515202 Ry
     Harris-Foulkes estimate   =   -2193.09515245 Ry
     estimated scf accuracy    <       0.00000667 Ry

     iteration # 69     ecut=    40.00 Ry     beta=0.70
     Davidson diagonalization with overlap
     ethr =  2.29E-09,  avg # of iterations =  1.0

     negative rho (up, down):  0.571E+00 0.000E+00

     total cpu time spent up to now is    56128.9 secs

     total energy              =   -2193.09515208 Ry
     Harris-Foulkes estimate   =   -2193.09515271 Ry
     estimated scf accuracy    <       0.00000745 Ry

     iteration # 70     ecut=    40.00 Ry     beta=0.70
     Davidson diagonalization with overlap
     ethr =  2.29E-09,  avg # of iterations =  2.0

     negative rho (up, down):  0.571E+00 0.000E+00

     total cpu time spent up to now is    56844.0 secs

     total energy              =   -2193.09514967 Ry
     Harris-Foulkes estimate   =   -2193.09515789 Ry
     estimated scf accuracy    <       0.00004299 Ry

     iteration # 71     ecut=    40.00 Ry     beta=0.70
     Davidson diagonalization with overlap
     ethr =  2.29E-09,  avg # of iterations =  2.0

     negative rho (up, down):  0.571E+00 0.000E+00

     total cpu time spent up to now is    57601.2 secs

     total energy              =   -2193.09514320 Ry
     Harris-Foulkes estimate   =   -2193.09516549 Ry
     estimated scf accuracy    <       0.00035677 Ry

     iteration # 72     ecut=    40.00 Ry     beta=0.70
     Davidson diagonalization with overlap
     ethr =  2.29E-09,  avg # of iterations =  1.9

     negative rho (up, down):  0.571E+00 0.000E+00

     total cpu time spent up to now is    58458.5 secs

     total energy              =   -2193.09515493 Ry
     Harris-Foulkes estimate   =   -2193.09515530 Ry
     estimated scf accuracy    <       0.00000710 Ry

     iteration # 73     ecut=    40.00 Ry     beta=0.70
     Davidson diagonalization with overlap
     ethr =  2.29E-09,  avg # of iterations =  1.0

     negative rho (up, down):  0.571E+00 0.000E+00

     total cpu time spent up to now is    59271.6 secs

     total energy              =   -2193.09514718 Ry
     Harris-Foulkes estimate   =   -2193.09516048 Ry
     estimated scf accuracy    <       0.00011919 Ry

     iteration # 74     ecut=    40.00 Ry     beta=0.70
     Davidson diagonalization with overlap
     ethr =  2.29E-09,  avg # of iterations =  1.4

     negative rho (up, down):  0.571E+00 0.000E+00

     total cpu time spent up to now is    60031.0 secs

     total energy              =   -2193.09515062 Ry
     Harris-Foulkes estimate   =   -2193.09515801 Ry
     estimated scf accuracy    <       0.00007629 Ry

     iteration # 75     ecut=    40.00 Ry     beta=0.70
     Davidson diagonalization with overlap
     ethr =  2.29E-09,  avg # of iterations =  1.0

     negative rho (up, down):  0.571E+00 0.000E+00

     total cpu time spent up to now is    60708.4 secs

     total energy              =   -2193.09515484 Ry
     Harris-Foulkes estimate   =   -2193.09515727 Ry
     estimated scf accuracy    <       0.00002615 Ry

     iteration # 76     ecut=    40.00 Ry     beta=0.70
     Davidson diagonalization with overlap
     ethr =  2.29E-09,  avg # of iterations =  1.0

     negative rho (up, down):  0.571E+00 0.000E+00

     total cpu time spent up to now is    61564.1 secs

     total energy              =   -2193.09515285 Ry
     Harris-Foulkes estimate   =   -2193.09515722 Ry
     estimated scf accuracy    <       0.00001604 Ry

     iteration # 77     ecut=    40.00 Ry     beta=0.70
     Davidson diagonalization with overlap
     ethr =  2.29E-09,  avg # of iterations =  1.0

     negative rho (up, down):  0.571E+00 0.000E+00

     total cpu time spent up to now is    62369.3 secs

     total energy              =   -2193.09515519 Ry
     Harris-Foulkes estimate   =   -2193.09515532 Ry
     estimated scf accuracy    <       0.00000593 Ry

     iteration # 78     ecut=    40.00 Ry     beta=0.70
     Davidson diagonalization with overlap
     ethr =  2.29E-09,  avg # of iterations =  1.0

     negative rho (up, down):  0.571E+00 0.000E+00

     total cpu time spent up to now is    63108.8 secs

     total energy              =   -2193.09515590 Ry
     Harris-Foulkes estimate   =   -2193.09515621 Ry
     estimated scf accuracy    <       0.00000294 Ry

     iteration # 79     ecut=    40.00 Ry     beta=0.70
     Davidson diagonalization with overlap
     ethr =  1.16E-09,  avg # of iterations =  1.0

     negative rho (up, down):  0.571E+00 0.000E+00

     total cpu time spent up to now is    63938.0 secs

     total energy              =   -2193.09515640 Ry
     Harris-Foulkes estimate   =   -2193.09515619 Ry
     estimated scf accuracy    <       0.00000279 Ry

     iteration # 80     ecut=    40.00 Ry     beta=0.70
     Davidson diagonalization with overlap
     ethr =  1.10E-09,  avg # of iterations =  1.0

     negative rho (up, down):  0.571E+00 0.000E+00

     total cpu time spent up to now is    64694.7 secs

     total energy              =   -2193.09515673 Ry
     Harris-Foulkes estimate   =   -2193.09515672 Ry
     estimated scf accuracy    <       0.00000309 Ry

     iteration # 81     ecut=    40.00 Ry     beta=0.70
     Davidson diagonalization with overlap
     ethr =  1.10E-09,  avg # of iterations =  1.0

     negative rho (up, down):  0.571E+00 0.000E+00

     total cpu time spent up to now is    65436.7 secs

     total energy              =   -2193.09515476 Ry
     Harris-Foulkes estimate   =   -2193.09515767 Ry
     estimated scf accuracy    <       0.00000458 Ry

     iteration # 82     ecut=    40.00 Ry     beta=0.70
     Davidson diagonalization with overlap
     ethr =  1.10E-09,  avg # of iterations =  1.1

     negative rho (up, down):  0.571E+00 0.000E+00

     total cpu time spent up to now is    66210.6 secs

     total energy              =   -2193.09515497 Ry
     Harris-Foulkes estimate   =   -2193.09515765 Ry
     estimated scf accuracy    <       0.00003683 Ry

     iteration # 83     ecut=    40.00 Ry     beta=0.70
     Davidson diagonalization with overlap
     ethr =  1.10E-09,  avg # of iterations =  1.0

     negative rho (up, down):  0.571E+00 0.000E+00

     total cpu time spent up to now is    67009.4 secs

     total energy              =   -2193.09515607 Ry
     Harris-Foulkes estimate   =   -2193.09515706 Ry
     estimated scf accuracy    <       0.00001120 Ry

     iteration # 84     ecut=    40.00 Ry     beta=0.70
     Davidson diagonalization with overlap
     ethr =  1.10E-09,  avg # of iterations =  1.7

     negative rho (up, down):  0.571E+00 0.000E+00

     total cpu time spent up to now is    67849.5 secs

     total energy              =   -2193.09515263 Ry
     Harris-Foulkes estimate   =   -2193.09516169 Ry
     estimated scf accuracy    <       0.00016085 Ry

     iteration # 85     ecut=    40.00 Ry     beta=0.70
     Davidson diagonalization with overlap
     ethr =  1.10E-09,  avg # of iterations =  1.1

     negative rho (up, down):  0.571E+00 0.000E+00

     total cpu time spent up to now is    68514.9 secs

     total energy              =   -2193.09515742 Ry
     Harris-Foulkes estimate   =   -2193.09515766 Ry
     estimated scf accuracy    <       0.00000343 Ry

     iteration # 86     ecut=    40.00 Ry     beta=0.70
     Davidson diagonalization with overlap
     ethr =  1.10E-09,  avg # of iterations =  1.0

     negative rho (up, down):  0.571E+00 0.000E+00

     total cpu time spent up to now is    69248.1 secs

     total energy              =   -2193.09515745 Ry
     Harris-Foulkes estimate   =   -2193.09515798 Ry
     estimated scf accuracy    <       0.00000726 Ry

     iteration # 87     ecut=    40.00 Ry     beta=0.70
     Davidson diagonalization with overlap
     ethr =  1.10E-09,  avg # of iterations =  1.0

     negative rho (up, down):  0.571E+00 0.000E+00

     total cpu time spent up to now is    70078.6 secs

     total energy              =   -2193.09515754 Ry
     Harris-Foulkes estimate   =   -2193.09515824 Ry
     estimated scf accuracy    <       0.00000605 Ry

     iteration # 88     ecut=    40.00 Ry     beta=0.70
     Davidson diagonalization with overlap
     ethr =  1.10E-09,  avg # of iterations =  1.0

     negative rho (up, down):  0.571E+00 0.000E+00

     total cpu time spent up to now is    70771.6 secs

     total energy              =   -2193.09515679 Ry
     Harris-Foulkes estimate   =   -2193.09515812 Ry
     estimated scf accuracy    <       0.00000347 Ry

     iteration # 89     ecut=    40.00 Ry     beta=0.70
     Davidson diagonalization with overlap
     ethr =  1.10E-09,  avg # of iterations =  1.0

     negative rho (up, down):  0.571E+00 0.000E+00

     total cpu time spent up to now is    71513.1 secs

     total energy              =   -2193.09515741 Ry
     Harris-Foulkes estimate   =   -2193.09515762 Ry
     estimated scf accuracy    <       0.00000305 Ry

     iteration # 90     ecut=    40.00 Ry     beta=0.70
     Davidson diagonalization with overlap
     ethr =  1.10E-09,  avg # of iterations =  1.0

     negative rho (up, down):  0.571E+00 0.000E+00

     total cpu time spent up to now is    72313.3 secs

     total energy              =   -2193.09515773 Ry
     Harris-Foulkes estimate   =   -2193.09515773 Ry
     estimated scf accuracy    <       0.00000147 Ry

     iteration # 91     ecut=    40.00 Ry     beta=0.70
     Davidson diagonalization with overlap
     ethr =  5.82E-10,  avg # of iterations =  1.0

     negative rho (up, down):  0.571E+00 0.000E+00

     total cpu time spent up to now is    73151.8 secs

     total energy              =   -2193.09515782 Ry
     Harris-Foulkes estimate   =   -2193.09515817 Ry
     estimated scf accuracy    <       0.00000260 Ry

     iteration # 92     ecut=    40.00 Ry     beta=0.70
     Davidson diagonalization with overlap
     ethr =  5.82E-10,  avg # of iterations =  1.0

     negative rho (up, down):  0.571E+00 0.000E+00

     total cpu time spent up to now is    73823.3 secs

     End of self-consistent calculation
 --- enter write_ns ---
 LDA+U parameters:
U( 2)     =  7.00000000
alpha( 2) =  0.00000000
atom    3   Tr[ns(na)] =   7.25827
    eigenvalues: 
  0.508  0.553  0.664  0.920  0.985
    eigenvectors:
  0.000  0.165  0.004  0.000  0.831
  0.998  0.002  0.000  0.000  0.000
  0.000  0.007  0.966  0.017  0.010
  0.002  0.826  0.014  0.000  0.158
  0.000  0.000  0.016  0.983  0.000
    occupations:
  0.912  0.000  0.034 -0.157 -0.005
  0.000  0.509 -0.002 -0.002 -0.004
  0.034 -0.002  0.671 -0.005  0.032
 -0.157 -0.002 -0.005  0.623  0.000
 -0.005 -0.004  0.032  0.000  0.915
atom    4   Tr[ns(na)] =   7.26380
    eigenvalues: 
  0.546  0.598  0.621  0.880  0.986
    eigenvectors:
  0.006  0.976  0.001  0.000  0.017
  0.000  0.000  0.039  0.961  0.000
  0.000  0.001  0.960  0.039  0.000
  0.000  0.017  0.000  0.000  0.983
  0.994  0.006  0.000  0.000  0.000
    occupations:
  0.604 -0.002  0.001  0.050  0.004
 -0.002  0.870  0.050 -0.001 -0.001
  0.001  0.050  0.632  0.002  0.001
  0.050 -0.001  0.002  0.980  0.000
  0.004 -0.001  0.001  0.000  0.547
atom    9   Tr[ns(na)] =   7.31741
    eigenvalues: 
  0.560  0.584  0.799  0.837  0.880
    eigenvectors:
  0.000  0.168  0.106  0.510  0.217
  0.997  0.002  0.000  0.001  0.000
  0.000  0.001  0.845  0.147  0.007
  0.002  0.829  0.031  0.093  0.043
  0.000  0.000  0.017  0.250  0.733
    occupations:
  0.800 -0.005 -0.016 -0.096  0.018
 -0.005  0.560  0.004  0.003  0.002
 -0.016  0.004  0.805  0.000  0.001
 -0.096  0.003  0.000  0.627 -0.009
  0.018  0.002  0.001 -0.009  0.868
atom   10   Tr[ns(na)] =   7.29418
    eigenvalues: 
  0.491  0.523  0.744  0.906  0.983
    eigenvectors:
  0.982  0.000  0.000  0.000  0.018
  0.000  0.000  0.000  1.000  0.000
  0.000  0.000  1.000  0.000  0.000
  0.018  0.000  0.000  0.000  0.982
  0.000  1.000  0.000  0.000  0.000
    occupations:
  0.500  0.000  0.003  0.064  0.000
  0.000  0.906 -0.001  0.000 -0.007
  0.003 -0.001  0.744 -0.001  0.000
  0.064  0.000 -0.001  0.974  0.000
  0.000 -0.007  0.000  0.000  0.523
atom   16   Tr[ns(na)] =   7.25699
    eigenvalues: 
  0.509  0.553  0.661  0.920  0.985
    eigenvectors:
  0.000  0.164  0.003  0.000  0.832
  0.998  0.002  0.000  0.000  0.000
  0.000  0.007  0.967  0.015  0.010
  0.002  0.827  0.014  0.000  0.157
  0.000  0.000  0.015  0.984  0.000
    occupations:
  0.913  0.000  0.034 -0.157  0.004
  0.000  0.509  0.003  0.002 -0.004
  0.034  0.003  0.668 -0.004 -0.031
 -0.157  0.002 -0.004  0.623 -0.001
  0.004 -0.004 -0.031 -0.001  0.917
atom   17   Tr[ns(na)] =   7.26738
    eigenvalues: 
  0.544  0.598  0.634  0.870  0.987
    eigenvectors:
  0.006  0.979  0.000  0.000  0.015
  0.000  0.000  0.047  0.953  0.000
  0.000  0.000  0.953  0.047  0.000
  0.000  0.015  0.000  0.000  0.985
  0.994  0.006  0.000  0.000  0.000
    occupations:
  0.604 -0.002  0.000  0.047  0.004
 -0.002  0.859  0.050  0.000 -0.001
  0.000  0.050  0.645  0.002  0.001
  0.047  0.000  0.002  0.981  0.000
  0.004 -0.001  0.001  0.000  0.544
atom   22   Tr[ns(na)] =   7.31921
    eigenvalues: 
  0.559  0.583  0.801  0.835  0.881
    eigenvectors:
  0.000  0.166  0.001  0.576  0.258
  0.999  0.000  0.000  0.000  0.000
  0.000  0.000  0.998  0.000  0.001
  0.001  0.833  0.000  0.114  0.052
  0.000  0.000  0.001  0.310  0.690
    occupations:
  0.805  0.006  0.000 -0.099  0.019
  0.006  0.559  0.005 -0.003  0.000
  0.000  0.005  0.801 -0.004  0.002
 -0.099 -0.003 -0.004  0.628 -0.009
  0.019  0.000  0.002 -0.009  0.867
atom   23   Tr[ns(na)] =   7.32147
    eigenvalues: 
  0.532  0.573  0.691  0.889  0.976
    eigenvectors:
  0.000  0.997  0.000  0.001  0.002
  0.001  0.000  0.999  0.000  0.000
  0.000  0.001  0.000  0.999  0.001
  0.000  0.002  0.000  0.001  0.997
  0.999  0.000  0.001  0.000  0.000
    occupations:
  0.574  0.000  0.007  0.020  0.000
  0.000  0.691  0.001  0.000 -0.006
  0.007  0.001  0.889 -0.003  0.000
  0.020  0.000 -0.003  0.975  0.000
  0.000 -0.006  0.000  0.000  0.533
N of occupied +U levels =  58.2987173
 --- exit write_ns ---

          k = 0.0000 0.0000 0.0000 ( 30363 PWs)   bands (ev):

   -73.1952 -73.1659 -73.1608 -73.1450 -72.8516 -72.8491 -72.8359 -72.7317
   -43.4948 -43.4644 -43.3918 -43.2133 -43.2085 -43.1757 -43.1537 -43.1496
   -43.1265 -43.1220 -43.1086 -43.1015 -43.0864 -43.0859 -43.0778 -42.9851
   -42.8828 -42.8479 -42.8463 -42.7082 -42.6314 -42.5915 -42.5363 -42.3985
   -23.4035 -20.4063 -20.0207 -19.9335 -19.8237 -19.6207 -19.5119 -19.4296
   -19.3658 -19.0878 -19.0513 -19.0016 -18.9662 -18.9511 -18.8847 -18.7493
   -18.4737 -18.4113 -18.3368 -17.1920  -9.6702  -9.4103  -9.1713  -8.8383
    -8.6984  -8.5080  -8.3992  -8.1489  -8.0277  -7.6638  -7.5288  -7.3257
    -7.3134  -7.2501  -7.1768  -7.0386  -6.9445  -6.8859  -6.8217  -6.6754
    -6.6740  -6.6339  -6.6055  -6.2051  -5.9783  -5.9203  -5.7357  -5.5260
    -5.3275  -5.2457  -5.1977  -5.0148  -4.9452  -4.8106  -4.6995  -4.5525
    -4.5012  -4.4504  -4.3071  -4.2924  -4.2277  -4.0616  -4.0490  -3.9297
    -3.8410  -3.8158  -3.5721  -3.5141  -3.4847  -3.4141  -3.3812  -3.3690
    -3.2745  -3.1906  -3.1796  -3.1360  -3.1106  -3.0828  -2.9925  -2.8879
    -2.8348  -2.8033  -2.7074  -2.6360  -2.5679  -2.3667  -2.2998  -2.2244
    -2.1253  -1.8456  -1.4347  -1.3955  -1.2152  -1.0697  -0.9501  -0.8775
    -0.5710  -0.4071  -0.2952   0.0341   0.1398   0.2864   0.7855   1.3839
     2.1134   2.1499   2.7492   3.0196   3.1279   3.1568   3.2139   3.2930
     3.4071   3.5915   3.7495   4.0549   4.0618   4.1537   4.1961   4.4451
     4.5373   4.6903   4.7580   4.9552   5.2878   5.8682   6.2762   6.6530
     6.7298   7.0916   7.2859   7.3161   7.3368   7.3996   7.5391   7.6830
     7.7767   7.8315   7.8783   8.0105   8.0708   8.2890   8.3848   8.4639
     8.5492   8.7777   8.8609   8.9390   8.9799   9.2099   9.2300   9.3481
     9.3986   9.6232   9.7385   9.7984   9.8344  10.0000  10.0118  10.1109
    10.2358  10.2671  10.3767  10.3966  10.5019  10.5873  10.7381  10.8306
    11.1371  11.1478  11.2321  11.2556  11.3175  11.4414  11.4652  11.5400
    11.5793  11.6048  11.6715  11.7104  11.7756  11.8643  11.9418  12.0279
    12.0679  12.2310  12.3093  12.3828  12.4481  12.5050  12.5356  12.6467
    12.7135  12.7968  12.8220  12.9473  12.9715  13.0022  13.0696  13.1384
    13.1860  13.2702  13.3821  13.4017  13.4592  13.4843  13.6252  13.8586
    13.9963  14.1062  14.1212  14.1363  14.1549  14.2072  14.3231  14.3651
    14.4156  14.5948  14.7226  14.9133  14.9885  14.9943  15.1129  15.2224
    15.3096  15.3355  15.4770  15.5835  15.6682  15.7095  15.9298  16.0218
    16.0444  16.0900  16.3567  16.3612  16.4891  16.5690  16.6553  16.7177
    16.9187  16.9935  17.1027  17.1198  17.1867  17.3167  17.4020  17.4224
    17.5226  17.6221  17.6711  17.7088  17.7467  17.7972  17.9519  18.0051
    18.1861  18.2460  18.4928  18.5050  18.5648  18.6424  18.6588  18.6790
    18.7529  18.8275  18.8463  18.9377  19.0074  19.1580  19.1688  19.1993
    19.2644  19.3023  19.3343  19.3648  19.4339  19.4461  19.4751  19.4979
    19.5852  19.6416  19.6992  19.7214  19.7919  19.9138  19.9391  20.0396
    20.0909  20.1052  20.1556  20.2269  20.2455  20.3118  20.4624  20.5287
    20.5574  20.5997  20.7635  20.8213  20.8377  20.8897  20.9238  20.9801
    21.0611  21.1258  21.1732  21.2478  21.3525  21.4084  21.4852  21.6030
    21.6355  21.6780  21.7446  21.8513  21.8922  21.9690  21.9864  22.0202
    22.1092  22.1505  22.1551  22.2931  22.3136  22.3390  22.3782  22.4361
    22.4708  22.5383  22.5687  22.6305  22.6512  22.6753  22.6918  22.7146
    22.7430  22.7658  22.8110  22.8239  22.8968  22.9407  22.9713  22.9884
    23.0847  23.0998  23.1272

          k = 0.0000 0.2435 0.0000 ( 30432 PWs)   bands (ev):

   -73.1952 -73.1662 -73.1605 -73.1450 -72.8517 -72.8487 -72.8359 -72.7318
   -43.4949 -43.4645 -43.3915 -43.2119 -43.2083 -43.1723 -43.1537 -43.1506
   -43.1266 -43.1227 -43.1187 -43.0910 -43.0902 -43.0845 -43.0806 -42.9825
   -42.8828 -42.8481 -42.8464 -42.7076 -42.6311 -42.5922 -42.5363 -42.3986
   -23.4034 -20.3488 -20.0062 -19.8665 -19.7962 -19.5871 -19.4973 -19.4246
   -19.3738 -19.2928 -19.1502 -19.0087 -18.9630 -18.8165 -18.7478 -18.7047
   -18.6187 -18.5062 -18.4046 -17.1906  -9.4605  -9.1114  -9.0244  -8.8469
    -8.8081  -8.7041  -8.4494  -8.3842  -8.1906  -7.5117  -7.4223  -7.2809
    -7.2559  -7.1621  -7.0636  -6.8941  -6.8491  -6.7983  -6.7220  -6.6836
    -6.6289  -6.3773  -6.2232  -6.1460  -6.0416  -5.8658  -5.7439  -5.6488
    -5.4418  -5.3617  -5.0708  -4.9666  -4.9536  -4.9276  -4.8674  -4.7500
    -4.7292  -4.7043  -4.5860  -4.5194  -4.3689  -4.3497  -4.2639  -4.0714
    -4.0219  -3.8478  -3.7855  -3.7039  -3.6595  -3.5110  -3.4698  -3.4332
    -3.2958  -3.2435  -3.1294  -3.0568  -3.0145  -2.8955  -2.7488  -2.6773
    -2.5910  -2.5794  -2.4780  -2.4198  -2.3331  -2.2808  -2.2391  -2.1960
    -2.0335  -2.0148  -1.8067  -1.6480  -1.3146  -1.0291  -1.0099  -0.9587
    -0.5522  -0.2513  -0.0294   0.0564   0.1501   0.3309   0.5592   1.5779
     2.1336   2.1907   2.3774   2.4059   2.9738   3.1637   3.4237   3.7119
     3.9702   4.0134   4.0677   4.1575   4.2223   4.3364   4.3474   4.3749
     4.4411   4.5981   4.7458   4.9473   5.5056   5.6020   5.8740   6.1568
     6.2605   6.6169   6.7896   7.1128   7.2414   7.3998   7.5360   7.5443
     7.8110   7.9408   8.1280   8.2282   8.2342   8.4178   8.5272   8.6304
     8.7522   8.7679   8.9696   9.0931   9.2121   9.2496   9.4083   9.4305
     9.5102   9.6081   9.8105   9.8398   9.9152   9.9981  10.0161  10.0817
    10.1461  10.1581  10.2193  10.3250  10.3874  10.4411  10.5330  10.5454
    10.7583  10.7978  10.9839  11.1155  11.2213  11.3224  11.3434  11.4107
    11.4731  11.5741  11.7566  11.7881  11.8335  11.9037  12.0032  12.1013
    12.2514  12.4726  12.5362  12.5739  12.6350  12.6960  12.7615  12.9838
    13.1132  13.1281  13.1806  13.2304  13.2669  13.3802  13.5118  13.5833
    13.6000  13.6962  13.7371  13.8395  13.8705  13.8939  13.9444  13.9669
    14.2411  14.3049  14.3360  14.4041  14.4389  14.5276  14.5599  14.6027
    14.7388  14.7910  14.8681  14.9313  15.0436  15.1260  15.1384  15.2316
    15.3107  15.3447  15.3791  15.4906  15.6598  15.6876  15.7908  15.8529
    15.9001  15.9704  16.1109  16.1505  16.2034  16.2516  16.4220  16.5898
    16.6072  16.7079  16.8075  16.8486  16.8766  16.9420  16.9567  16.9960
    17.1419  17.3041  17.3612  17.4929  17.5798  17.6206  17.6982  17.8097
    17.8897  17.9720  18.1117  18.1947  18.2741  18.3638  18.3937  18.4431
    18.5562  18.6406  18.7035  18.7749  18.8724  18.9704  19.0012  19.0479
    19.0816  19.1180  19.1521  19.2355  19.2531  19.3205  19.3742  19.4644
    19.4976  19.5348  19.5420  19.5980  19.6538  19.7063  19.7236  19.8081
    19.8370  19.9127  19.9229  19.9662  20.0775  20.1763  20.2227  20.2630
    20.3187  20.3643  20.5053  20.5275  20.5570  20.6569  20.7343  20.7595
    20.8318  20.8743  20.9002  21.0722  21.1003  21.1066  21.1939  21.2308
    21.2404  21.2982  21.3322  21.3701  21.4193  21.4866  21.5079  21.5478
    21.6478  21.7139  21.7522  21.8227  21.8738  21.9387  21.9817  22.0427
    22.1384  22.1752  22.1859  22.2783  22.3758  22.4514  22.5264  22.5611
    22.5811  22.6590  22.7107  22.7691  22.8982  22.9229  22.9649  23.0124
    23.0485  23.0984  23.1359

          k = 0.0000-0.4870 0.0000 ( 30448 PWs)   bands (ev):

   -73.1953 -73.1664 -73.1602 -73.1450 -72.8518 -72.8483 -72.8359 -72.7320
   -43.4949 -43.4645 -43.3912 -43.2109 -43.2081 -43.1676 -43.1538 -43.1517
   -43.1271 -43.1257 -43.1204 -43.0966 -43.0877 -43.0822 -43.0808 -42.9800
   -42.8827 -42.8484 -42.8465 -42.7069 -42.6308 -42.5928 -42.5364 -42.3987
   -23.4033 -20.2881 -20.0021 -19.8392 -19.6859 -19.5678 -19.4575 -19.4104
   -19.3902 -19.3736 -19.2363 -19.0069 -18.9742 -18.7840 -18.7532 -18.7133
   -18.6933 -18.6135 -18.4091 -17.1892  -9.3455  -9.0707  -8.8606  -8.7666
    -8.7197  -8.6973  -8.6193  -8.3729  -8.2336  -7.3839  -7.3324  -7.2648
    -7.1067  -6.9687  -6.9611  -6.8267  -6.7428  -6.7231  -6.6999  -6.6571
    -6.5920  -6.4222  -6.2948  -6.1608  -5.9923  -5.6958  -5.6477  -5.6202
    -5.5579  -5.4075  -5.3515  -5.2275  -5.1084  -5.0291  -5.0052  -4.9983
    -4.9647  -4.9467  -4.5758  -4.5034  -4.4671  -4.3613  -4.3012  -4.1609
    -3.9667  -3.8067  -3.8012  -3.8000  -3.5857  -3.5691  -3.5491  -3.4243
    -3.3070  -3.2483  -3.1295  -3.0097  -2.9310  -2.8648  -2.8462  -2.7925
    -2.6742  -2.6350  -2.5749  -2.4761  -2.4043  -2.3690  -2.2203  -2.1803
    -1.8160  -1.7629  -1.6714  -1.6155  -1.0234  -0.9772  -0.9697  -0.9135
    -0.6980  -0.4804  -0.0345   0.0610   0.2119   0.3903   0.5281   1.7326
     1.8136   2.0515   2.1717   2.6159   3.0835   3.2636   3.5892   3.9370
     4.0105   4.1203   4.1707   4.2652   4.3060   4.3511   4.5027   4.6095
     4.6818   4.8043   4.8279   4.9454   5.0913   5.2609   5.6161   5.7897
     6.1375   6.3705   6.5410   7.0927   7.2498   7.4347   7.5459   7.6005
     7.8699   7.9736   8.0199   8.3258   8.3880   8.4127   8.4423   8.5948
     8.8038   8.8409   8.8702   8.9169   8.9771   9.1512   9.3235   9.3335
     9.4160   9.4366   9.6564   9.6937   9.7855   9.9229   9.9355   9.9935
    10.1891  10.2730  10.3152  10.3230  10.4354  10.5153  10.6058  10.9278
    10.9577  11.0102  11.1016  11.2288  11.3478  11.5224  11.6884  11.7164
    11.8071  11.8444  11.8645  11.9368  12.0403  12.1567  12.1856  12.2480
    12.3460  12.3863  12.4162  12.6400  12.7050  12.8523  12.8924  12.9717
    12.9926  13.0742  13.2006  13.3174  13.3413  13.4211  13.5138  13.6393
    13.6673  13.8046  13.8558  13.8737  13.9292  14.0388  14.0541  14.0816
    14.2063  14.2422  14.4013  14.5446  14.6363  14.6471  14.7405  14.8594
    14.8960  15.0482  15.2328  15.2333  15.4078  15.4743  15.5643  15.6523
    15.7286  15.7521  15.7583  15.8450  15.9037  16.0121  16.0173  16.0359
    16.1180  16.1234  16.1486  16.2324  16.2691  16.3073  16.3681  16.3859
    16.4720  16.4791  16.5026  16.5874  16.6863  16.8336  16.8491  16.8832
    16.9321  16.9344  17.0379  17.1110  17.2346  17.2524  17.3292  17.3674
    17.4208  17.5564  17.6686  17.8094  17.8966  17.9525  18.0046  18.0484
    18.1169  18.2174  18.2467  18.2834  18.3432  18.4173  18.4805  18.5197
    18.5688  18.6242  18.7042  18.8918  18.9470  18.9923  19.0518  19.0930
    19.2064  19.3060  19.3669  19.3814  19.4034  19.4408  19.5037  19.5911
    19.7037  19.8216  19.8726  19.9762  20.0229  20.0820  20.1839  20.2480
    20.3472  20.3785  20.3985  20.4039  20.4354  20.4885  20.5080  20.5259
    20.6342  20.6782  20.7197  20.7482  20.8200  20.8445  20.8625  20.9085
    20.9852  21.0191  21.1086  21.2003  21.2249  21.2463  21.3312  21.3547
    21.3904  21.4940  21.5329  21.6441  21.6816  21.7068  21.7868  21.8560
    21.9015  21.9827  22.0828  22.0872  22.1248  22.2375  22.2719  22.3985
    22.4669  22.5729  22.5841  22.6759  22.7129  22.8000  22.8822  22.9544
    22.9766  23.0465  23.0687

          k = 0.2500 0.0000 0.0000 ( 30394 PWs)   bands (ev):

   -73.1935 -73.1653 -73.1586 -73.1455 -72.8504 -72.8469 -72.8359 -72.7307
   -43.4943 -43.4648 -43.3664 -43.2345 -43.2099 -43.1713 -43.1521 -43.1481
   -43.1283 -43.1240 -43.1028 -43.1009 -43.0907 -43.0871 -43.0786 -42.9713
   -42.8786 -42.8722 -42.8511 -42.6866 -42.6432 -42.5910 -42.5642 -42.3991
   -23.4034 -20.2953 -19.9099 -19.8433 -19.7813 -19.5893 -19.5245 -19.4150
   -19.3660 -19.1683 -19.1129 -18.9928 -18.9847 -18.9394 -18.8485 -18.8093
   -18.5658 -18.4960 -18.4215 -17.1922  -9.3637  -9.1240  -8.9465  -8.8146
    -8.4766  -8.3938  -8.2760  -7.9965  -7.9035  -7.6354  -7.5808  -7.4907
    -7.4212  -7.3366  -7.2571  -7.1525  -7.1085  -7.0586  -6.8823  -6.7788
    -6.6131  -6.5163  -6.4084  -6.2344  -6.0296  -5.9289  -5.8919  -5.5928
    -5.5380  -5.4631  -5.2741  -5.2034  -4.9577  -4.9149  -4.8563  -4.7403
    -4.7346  -4.6966  -4.5050  -4.4217  -4.3430  -4.3224  -4.2166  -4.0976
    -3.9999  -3.9210  -3.8821  -3.7422  -3.6874  -3.5821  -3.4919  -3.3322
    -3.3291  -3.1988  -3.1156  -2.9575  -2.9250  -2.8115  -2.7386  -2.7088
    -2.6614  -2.5250  -2.4483  -2.3113  -2.2349  -2.1517  -2.0509  -1.8406
    -1.7663  -1.7470  -1.4388  -1.2852  -1.1764  -0.9946  -0.8966  -0.7430
    -0.7089  -0.4130  -0.2544  -0.1492  -0.0124   0.1359   0.6434   1.5153
     2.2486   2.3271   2.8157   3.0863   3.1464   3.1820   3.2487   3.4162
     3.4602   3.5796   3.7474   3.9381   4.1261   4.1521   4.1753   4.2122
     4.3862   4.4293   4.8527   4.9997   5.4720   5.5972   5.9413   6.2546
     6.4133   6.6452   6.8958   6.9940   7.1191   7.4751   7.5339   7.7851
     7.8313   7.9251   8.0260   8.0750   8.1144   8.4591   8.5275   8.6175
     8.7699   8.9071   8.9707   9.1732   9.1963   9.2985   9.3873   9.4367
     9.5910   9.7064   9.7208   9.7482   9.9093   9.9435   9.9953  10.0395
    10.1505  10.2241  10.2761  10.3445  10.4202  10.4497  10.4810  10.5831
    10.6916  10.9194  11.0317  11.1240  11.1811  11.3368  11.3843  11.5136
    11.5610  11.6225  11.7356  11.8084  11.9411  11.9672  12.0620  12.2706
    12.3214  12.4190  12.5039  12.5373  12.5829  12.6810  12.7681  12.8430
    12.9537  13.0680  13.1894  13.2343  13.3435  13.3980  13.4693  13.5517
    13.5901  13.7015  13.7219  13.8048  13.8492  13.8764  14.0514  14.1311
    14.1725  14.2301  14.3531  14.4445  14.4784  14.5628  14.6075  14.6469
    14.6959  14.7417  14.8303  14.9883  15.0201  15.0666  15.1363  15.3194
    15.3660  15.6073  15.6580  15.7382  15.7967  15.8372  15.8576  15.9590
    15.9792  16.0961  16.1422  16.2213  16.2582  16.3417  16.4173  16.4899
    16.5941  16.6523  16.6989  16.8279  16.9322  16.9790  17.1135  17.1541
    17.2209  17.3191  17.3938  17.4623  17.5184  17.5673  17.6147  17.6769
    17.7773  17.8568  17.9340  17.9983  18.0379  18.0841  18.2211  18.2886
    18.3831  18.4948  18.5516  18.6846  18.8588  18.8933  18.9390  18.9735
    19.0027  19.0286  19.0768  19.2093  19.2636  19.3284  19.3602  19.4360
    19.4854  19.5158  19.5606  19.6059  19.6225  19.6546  19.7399  19.7636
    19.8054  19.8398  19.9233  20.0337  20.0913  20.1994  20.2658  20.3049
    20.3807  20.3920  20.4441  20.4764  20.5627  20.6263  20.6655  20.7193
    20.7721  20.8330  20.8437  20.9152  21.0054  21.0798  21.1370  21.1833
    21.2058  21.2614  21.3214  21.3454  21.3557  21.4208  21.5245  21.5916
    21.6652  21.7050  21.7539  21.7948  21.8272  21.9145  21.9450  22.0530
    22.1797  22.1963  22.2210  22.2728  22.3042  22.3229  22.4070  22.4873
    22.5362  22.5748  22.7397  22.7712  22.8594  22.9042  22.9377  23.0039
    23.0667  23.0994  23.1811

          k = 0.2500 0.2435 0.0000 ( 30434 PWs)   bands (ev):

   -73.1936 -73.1655 -73.1584 -73.1454 -72.8505 -72.8466 -72.8358 -72.7308
   -43.4943 -43.4649 -43.3662 -43.2343 -43.2075 -43.1682 -43.1516 -43.1495
   -43.1290 -43.1243 -43.1123 -43.0945 -43.0913 -43.0854 -43.0825 -42.9681
   -42.8776 -42.8742 -42.8510 -42.6860 -42.6428 -42.5915 -42.5642 -42.3993
   -23.4034 -20.2499 -19.8917 -19.8236 -19.7121 -19.5750 -19.4831 -19.4143
   -19.3641 -19.2355 -19.1538 -18.9985 -18.9605 -18.8973 -18.8542 -18.7693
   -18.7004 -18.5806 -18.4892 -17.1908  -9.1874  -8.8614  -8.8015  -8.7330
    -8.6444  -8.4673  -8.2700  -8.2044  -8.0345  -7.4867  -7.4352  -7.3989
    -7.3562  -7.2551  -7.1313  -7.0892  -7.0251  -6.9985  -6.8634  -6.7756
    -6.5252  -6.3913  -6.1860  -6.1129  -5.9524  -5.8726  -5.7675  -5.6707
    -5.5940  -5.5197  -5.4425  -5.3412  -5.2019  -5.1326  -5.0608  -4.9973
    -4.8371  -4.7949  -4.6826  -4.6503  -4.5543  -4.5021  -4.3812  -4.3401
    -4.1414  -3.9504  -3.8388  -3.7900  -3.7381  -3.6326  -3.5313  -3.3685
    -3.3109  -3.2355  -3.1853  -2.8795  -2.8408  -2.7368  -2.6425  -2.5323
    -2.4863  -2.3061  -2.2329  -2.2086  -2.0961  -2.0086  -1.9208  -1.8480
    -1.7822  -1.7307  -1.5785  -1.5148  -1.3518  -0.9834  -0.9451  -0.7491
    -0.5349  -0.3568  -0.1401  -0.0622  -0.0338   0.1467   0.4460   1.6710
     2.2875   2.3507   2.4954   2.5938   2.9957   3.1822   3.3892   3.5838
     3.7914   3.8363   3.9067   4.0525   4.1050   4.2390   4.2676   4.3821
     4.4055   4.6084   4.7983   5.1801   5.5771   5.7647   6.0404   6.1070
     6.1421   6.4646   6.5000   6.6784   6.9164   7.0485   7.1279   7.4798
     7.5952   7.6770   7.8928   8.0691   8.1307   8.3350   8.3991   8.5434
     8.6701   8.7711   8.9699   9.0532   9.1007   9.2719   9.4120   9.4316
     9.5982   9.6662   9.7831   9.8446  10.0261  10.0564  10.1896  10.2706
    10.3097  10.4093  10.5127  10.6463  10.6900  10.7619  10.8542  10.9519
    11.0548  11.2075  11.2582  11.3166  11.4332  11.5660  11.6263  11.7009
    11.7973  11.9072  11.9488  12.0472  12.0880  12.1366  12.2242  12.2539
    12.3804  12.4226  12.5064  12.6234  12.7315  12.7843  12.8453  12.9084
    12.9663  13.0440  13.1516  13.2575  13.3154  13.3426  13.4250  13.5296
    13.6006  13.7097  13.8165  13.8732  13.9488  13.9978  14.0738  14.1690
    14.3115  14.3756  14.4503  14.5936  14.6163  14.7029  14.7458  14.8316
    14.9093  15.0088  15.0665  15.1603  15.2349  15.2731  15.3741  15.4448
    15.4999  15.5503  15.5785  15.6624  15.7272  15.8149  15.8552  15.9048
    15.9926  16.0247  16.1060  16.1512  16.1887  16.2458  16.2544  16.3296
    16.4256  16.4541  16.5646  16.6617  16.7027  16.7488  16.8306  16.9258
    16.9870  17.0211  17.0768  17.1910  17.2690  17.3330  17.3982  17.4416
    17.5190  17.5668  17.6104  17.6885  17.7563  17.8236  17.8593  17.9107
    18.0002  18.0437  18.1327  18.1897  18.2472  18.3107  18.3383  18.4087
    18.4719  18.5615  18.5999  18.7350  18.7797  18.8688  18.9072  18.9928
    19.0489  19.1283  19.2048  19.2615  19.3216  19.3696  19.5042  19.6163
    19.6631  19.7136  19.8029  19.8978  19.9462  20.0060  20.0619  20.1210
    20.2207  20.3413  20.4122  20.4760  20.5576  20.6243  20.6711  20.7134
    20.8376  20.9461  20.9830  21.0186  21.0906  21.1496  21.2215  21.2976
    21.3453  21.3890  21.4160  21.5194  21.5680  21.5892  21.6181  21.7255
    21.7671  21.8568  21.9054  21.9407  21.9779  22.0393  22.0807  22.1177
    22.2201  22.3101  22.4116  22.4329  22.5047  22.5718  22.6279  22.6875
    22.8118  22.8207  22.8863  22.9356  22.9774  23.0521  23.1008  23.1396
    23.2029  23.2532  23.3175

          k = 0.2500-0.4870 0.0000 ( 30468 PWs)   bands (ev):

   -73.1937 -73.1657 -73.1581 -73.1453 -72.8506 -72.8463 -72.8358 -72.7309
   -43.4943 -43.4649 -43.3659 -43.2342 -43.2062 -43.1643 -43.1515 -43.1506
   -43.1294 -43.1246 -43.1163 -43.0956 -43.0931 -43.0838 -43.0804 -42.9680
   -42.8781 -42.8733 -42.8510 -42.6855 -42.6425 -42.5921 -42.5642 -42.3995
   -23.4033 -20.2043 -19.8761 -19.8158 -19.6182 -19.5458 -19.4275 -19.4005
   -19.3406 -19.2920 -19.1815 -19.0047 -18.9705 -18.8644 -18.8632 -18.8388
   -18.7648 -18.7378 -18.4936 -17.1893  -9.0983  -8.8175  -8.7768  -8.5371
    -8.4799  -8.4426  -8.3758  -8.2564  -8.0651  -7.4179  -7.3876  -7.2939
    -7.1396  -7.0782  -7.0111  -6.9065  -6.8174  -6.7840  -6.7583  -6.7441
    -6.5253  -6.4384  -6.2953  -6.1765  -6.1200  -5.9711  -5.8668  -5.7666
    -5.6416  -5.5836  -5.5009  -5.4458  -5.4051  -5.3546  -5.2515  -5.2237
    -4.9692  -4.8965  -4.7992  -4.7467  -4.6763  -4.5473  -4.4500  -4.3508
    -4.2982  -4.1898  -3.9766  -3.6752  -3.5628  -3.4930  -3.4613  -3.3846
    -3.3142  -3.1878  -3.1223  -2.9531  -2.7841  -2.6811  -2.5563  -2.5007
    -2.4747  -2.4142  -2.3547  -2.2634  -2.1371  -2.0302  -1.9884  -1.9169
    -1.7313  -1.6118  -1.3943  -1.2177  -1.0328  -0.9750  -0.8690  -0.7679
[...]
     4.6851   5.4110   5.4952   5.5704   5.6945   5.6989   5.8595   5.8694
     6.0091   6.0184   6.1654   6.1995   6.4759   6.5628   6.6857   6.7702
     7.0301   7.2546   7.3155   7.4899   7.6973   8.0572   8.0779   8.3114
     8.3578   8.4623   8.6758   8.8006   9.2286   9.2426   9.2761   9.4609
     9.5088   9.5237   9.8296   9.8744  10.1459  10.1699  10.5816  10.8131
    10.9515  11.0559  11.1729  11.1768  11.2491  11.4164  11.5584  11.7516
    12.0033  12.0799  12.2076  12.2649  12.2863  12.4329  12.4866  12.5764
    12.6095  12.6551  12.8026  12.8430  12.8901  12.9128  13.0864  13.1193
    13.1218  13.1817  13.2028  13.2466  13.2503  13.3695  13.3936  13.4290
    13.4622  13.4817  13.5725  13.5931  13.6260  13.6421  13.6501  13.6619
    13.7161  13.7313  13.7588  13.7992  13.8171  13.8830  13.9212  13.9906
    14.0520  14.0947  14.1736  14.2224  14.2861  14.3059  14.3233  14.3582
    14.4790  14.5053  14.5839  14.6217  14.6516  14.7270  14.7901  14.8596
    14.9255  14.9865  15.0923  15.1257  15.1527  15.1885  15.2604  15.2978
    15.3240  15.3937  15.4927  15.5388  15.5992  15.6327  15.6689  15.7482
    15.8565  15.9172  16.0940  16.1636  16.2239  16.2637  16.3156  16.4136
    16.5077  16.6930  16.7544  16.7960  16.9058  16.9439  17.0275  17.0479
    17.0997  17.2124  17.2904  17.3589  17.4858  17.5473  17.5545  17.6086
    17.6671  17.6786  17.7999  17.8649  17.9263  17.9395  18.0310  18.1128
    18.3920  18.4045  18.5385  18.6405  18.7076  18.8472  18.9182  18.9694
    18.9798  19.0621  19.0814  19.1670  19.2032  19.3084  19.3683  19.4918
    19.5523  19.6810  19.6933  19.7182  19.7696  20.0468  20.1013  20.1712
    20.1962  20.3275  20.4507  20.5167  20.6447  20.7956  20.8062  20.8635
    20.9748  21.0119  21.0394  21.0833  21.0949  21.2158  21.2286  21.2450
    21.2725  21.3165  21.3654  21.3920  21.4457  21.4787  21.5328  21.5598
    21.5855  21.6357  21.7148  21.8198  21.8728  21.9574  22.0007  22.1056
    22.1286  22.1547  22.2034  22.2892  22.2934  22.3161  22.3399  22.4293
    22.5298  22.6119  22.7048  22.7953  22.9113  22.9319  22.9774  23.0001
    23.1384  23.2006  23.2602

          k =-0.2500 0.2435 0.0000 ( 30434 PWs)   bands (ev):

   -73.1692 -73.1461 -73.1317 -73.0742 -72.8163 -72.7967 -72.7898 -72.7808
   -43.4927 -43.4528 -43.3861 -43.2717 -43.2201 -43.1890 -43.1764 -43.1341
   -43.0917 -43.0746 -43.0556 -43.0464 -43.0377 -42.9929 -42.9858 -42.9294
   -42.8830 -42.8563 -42.8222 -42.6970 -42.6607 -42.5589 -42.4437 -42.3065
   -23.5670 -20.2080 -19.8921 -19.8163 -19.6759 -19.5602 -19.4284 -19.3872
   -19.3440 -19.1690 -19.0763 -18.9270 -18.8641 -18.8077 -18.7648 -18.6795
   -18.6118 -18.5274 -18.4824 -17.1812  -9.1230  -8.9303  -8.7499  -8.6912
    -8.6209  -8.4695  -8.2337  -8.2127  -8.0081  -7.5018  -7.4459  -7.3563
    -7.3132  -7.1797  -7.1054  -7.0434  -7.0259  -6.9761  -6.8190  -6.7580
    -6.4869  -6.3684  -6.1242  -6.0659  -5.9461  -5.8200  -5.7308  -5.6546
    -5.5701  -5.4766  -5.3910  -5.3087  -5.1921  -5.1111  -5.0381  -4.9340
    -4.8334  -4.7800  -4.6146  -4.6009  -4.5466  -4.4574  -4.4252  -4.2792
    -4.1412  -3.8770  -3.8101  -3.6950  -3.6519  -3.5629  -3.4708  -3.4138
    -3.2663  -3.1884  -3.1212  -2.8543  -2.7497  -2.6331  -2.5977  -2.4751
    -2.4658  -2.2776  -2.2524  -2.1412  -2.0692  -1.9445  -1.8952  -1.7691
    -1.7346  -1.7018  -1.5137  -1.3092  -1.2339  -0.9085  -0.8746  -0.5905
    -0.5437  -0.2159  -0.1194   0.0329   0.1529   0.2713   0.5233   1.7786
     2.2506   2.3798   2.5605   2.6425   3.1005   3.3001   3.4476   3.5976
     3.8076   3.8596   4.0124   4.0663   4.2107   4.2719   4.3264   4.3844
     4.4879   4.6043   4.8976   5.1702   5.5711   5.7645   6.0381   6.1070
     6.1449   6.4503   6.4919   6.6575   6.9211   7.0357   7.1219   7.4382
     7.5653   7.6716   7.8838   8.0726   8.1427   8.3223   8.4059   8.5458
     8.6727   8.8078   8.9551   9.0755   9.1283   9.2992   9.4222   9.4381
     9.6122   9.6924   9.7883   9.8546  10.0293  10.0620  10.1680  10.2872
    10.3191  10.3997  10.5060  10.6444  10.7172  10.7461  10.8645  10.9502
    11.0395  11.1859  11.2562  11.3830  11.4069  11.5783  11.6283  11.7235
    11.8079  11.8951  11.9353  12.0476  12.1290  12.1600  12.2122  12.2717
    12.3911  12.4404  12.5106  12.6423  12.7492  12.8096  12.8511  12.9285
    12.9749  13.0186  13.1873  13.2845  13.3345  13.4146  13.4766  13.5190
    13.5932  13.7440  13.8607  13.8929  13.9770  14.0007  14.0807  14.1943
    14.2932  14.3421  14.4753  14.5403  14.6180  14.7062  14.7542  14.8454
    14.9269  15.0230  15.0814  15.1940  15.2191  15.3023  15.3695  15.4524
    15.5116  15.5778  15.6258  15.6972  15.7391  15.8285  15.8898  15.9274
    15.9953  16.0310  16.1103  16.1373  16.2027  16.2366  16.2708  16.3089
    16.4021  16.4511  16.5528  16.6297  16.6968  16.7607  16.8192  16.9226
    16.9524  17.0220  17.0723  17.1921  17.2549  17.3224  17.3828  17.4532
    17.5061  17.5645  17.6249  17.7122  17.7760  17.8363  17.8554  17.9164
    18.0056  18.0515  18.0994  18.1787  18.2154  18.3035  18.3738  18.4136
    18.4765  18.5348  18.6216  18.7309  18.7883  18.8692  18.8959  19.0108
    19.0515  19.1491  19.2244  19.2756  19.3261  19.4198  19.4954  19.6268
    19.6849  19.7514  19.8136  19.9008  19.9393  19.9972  20.0510  20.1735
    20.2482  20.3142  20.4457  20.5371  20.5734  20.6319  20.6778  20.7531
    20.8865  20.9306  20.9659  21.0670  21.1002  21.1552  21.2122  21.2721
    21.3199  21.3598  21.4466  21.5149  21.5366  21.5824  21.6255  21.7156
    21.7637  21.8413  21.9072  21.9431  21.9707  22.0498  22.1221  22.1408
    22.2434  22.3484  22.3887  22.4392  22.4738  22.5334  22.6581  22.7021
    22.8049  22.8489  22.8996  22.9364  22.9824  23.0786  23.1044  23.1468
    23.1760  23.2686  23.3565

     the Fermi energy is    -0.8216 ev

!    total energy              =   -2193.10161330 Ry
     Harris-Foulkes estimate   =   -2193.10161336 Ry
     estimated scf accuracy    <       0.00000011 Ry

     The total energy is the sum of the following terms:

     one-electron contribution =  -25585.11751511 Ry
     hartree contribution      =   12825.51849390 Ry
     xc contribution           =    -345.79251282 Ry
     ewald contribution        =   10908.85062336 Ry
     Hubbard energy            =       3.43998677 Ry
     smearing contrib. (-TS)   =      -0.00068941 Ry

     convergence has been achieved in  59 iterations

     Forces acting on atoms (Ry/au):


     negative rho (up, down):  0.570E+00 0.000E+00
     atom    1 type  1   force =    -0.00355173   -0.00684671    0.00857221
     atom    2 type  1   force =     0.00036836    0.00586925   -0.00148244
     atom    3 type  2   force =     0.04491237    0.00272831    0.00212732
     atom    4 type  2   force =     0.00649239    0.00613776    0.00343136
     atom    5 type  1   force =    -0.00761453   -0.04931610    0.00097483
     atom    6 type  1   force =     0.00705757    0.04896965   -0.00036767
     atom    7 type  1   force =    -0.00112346   -0.00626343   -0.00473767
     atom    8 type  1   force =     0.00225312   -0.00010566    0.00150109
     atom    9 type  2   force =    -0.00937707    0.00060143    0.00678985
     atom   10 type  2   force =     0.00241159    0.00189178    0.00864221
     atom   11 type  1   force =    -0.01502779    0.02177944    0.00010084
     atom   12 type  1   force =    -0.00386293   -0.01889775    0.00144150
     atom   13 type  1   force =     0.00403034   -0.00001868   -0.00509697
     atom   14 type  1   force =    -0.00491207   -0.00703209    0.00538045
     atom   15 type  1   force =     0.00018044   -0.00495882   -0.00603062
     atom   16 type  2   force =    -0.04459395    0.00358515    0.00154673
     atom   17 type  2   force =     0.00615423    0.00663414    0.00154929
     atom   18 type  1   force =    -0.00426614   -0.04874708    0.00042655
     atom   19 type  1   force =     0.00865079    0.04921925    0.00020886
     atom   20 type  1   force =    -0.00083998   -0.00234531   -0.00532812
     atom   21 type  1   force =    -0.00303510    0.00120353   -0.00529350
     atom   22 type  2   force =     0.01091461   -0.00343856   -0.00536998
     atom   23 type  2   force =    -0.00134466   -0.00364170    0.00058607
     atom   24 type  1   force =     0.01020721    0.02739247   -0.00050913
     atom   25 type  1   force =     0.00742471   -0.02245685    0.00007620
     atom   26 type  1   force =    -0.00789993   -0.00629118   -0.00472493
     atom   27 type  3   force =    -0.00009440   -0.00093612   -0.00580680
     atom   28 type  3   force =    -0.00004355    0.00556571   -0.00448178
     atom   29 type  3   force =    -0.00253131   -0.00118869    0.00390099
     atom   30 type  3   force =    -0.00157625   -0.00089976    0.00309678
     atom   31 type  1   force =     0.00075388    0.00288646   -0.00037378
     atom   32 type  1   force =     0.00012099   -0.00509083   -0.00403824
     atom   33 type  3   force =    -0.00023772    0.00401097    0.00328852

     Total force =     0.025384     Total SCF correction =     0.001123

     number of scf cycles    =   3
     number of bfgs steps    =   2

     energy   old            =   -2193.1003493512 Ry
     energy   new            =   -2193.1016132964 Ry

     CASE: energy  _new < energy  _old

     new trust radius        =       0.0195211932 bohr
     new conv_thr            =       0.0000000864 Ry


ATOMIC_POSITIONS (crystal)
O0       0.000000000   0.000000000   0.378606015    0   0   1
O0       0.000000000   0.500000000   0.404794574    0   0   1
Ru1      0.250000000   0.500000000   0.454438719    0   0   1
Ru1      0.000000000   0.000000000   0.452100775    0   0   1
O0       0.250000000   0.810000000   0.452273200    0   0   1
O0       0.250000000   0.190000000   0.452199773    0   0   1
O0       0.000000000   0.500000000   0.501476380    0   0   1
O0       0.000000000   0.000000000   0.524514108    0   0   1
Ru1      0.250000000   0.000000000   0.576625485    0   0   1
Ru1      0.000000000   0.500000000   0.570225869    0   0   1
O0       0.250000000   0.690000000   0.575229339    0   0   1
O0       0.250000000   0.310000000   0.577162617    0   0   1
O0       0.000000000   0.000000000   0.617262909    0   0   1
O0       0.500000000   0.000000000   0.378534958    0   0   1
O0       0.500000000   0.500000000   0.403796480    0   0   1
Ru1      0.750000000   0.500000000   0.454398459    0   0   1
Ru1      0.500000000   0.000000000   0.451771967    0   0   1
O0       0.750000000   0.810000000   0.452215984    0   0   1
O0       0.750000000   0.190000000   0.452277270    0   0   1
O0       0.500000000   0.500000000   0.501976963    0   0   1
O0       0.500000000   0.000000000   0.524359714    0   0   1
Ru1      0.750000000   0.000000000   0.576034595    0   0   1
Ru1      0.500000000   0.500000000   0.579182586    0   0   1
O0       0.750000000   0.690000000   0.575243870    0   0   1
O0       0.750000000   0.310000000   0.577054483    0   0   1
O0       0.500000000   0.000000000   0.614803783    0   0   1
H2      -0.000416104   0.622973650   0.382378026
H2       0.499708484   0.627948311   0.383235961
H2       0.145459631   0.028887837   0.365359643
H2       0.645053604   0.030282199   0.365352194
O0       0.500070000   0.526053621   0.650623911    0   1   1
O0       0.499990000   0.334116763   0.679113190    0   1   1
H2       0.499960000   0.391107562   0.713996199    0   1   1


     Check: negative starting charge=   -0.523271
     NEW-OLD atomic charge density approx. for the potential

     Check: negative/imaginary core charge=   -0.000003    0.000000
     Check: negative starting charge=   -0.523291

     negative rho (up, down):  0.570E+00 0.000E+00
 Atomic wfc used for LDA+U Projector are NOT orthogonalized

     total cpu time spent up to now is   164134.3 secs

     per-process dynamical memory:   464.1 Mb

     Self-consistent Calculation

     iteration #  1     ecut=    40.00 Ry     beta=0.70
     Davidson diagonalization with overlap
     ethr =  1.00E-06,  avg # of iterations =  4.0
 --- enter write_ns ---
 LDA+U parameters:
U( 2)     =  7.00000000
alpha( 2) =  0.00000000
atom    3   Tr[ns(na)] =   7.22810
    eigenvalues: 
  0.505  0.553  0.630  0.940  0.986
    eigenvectors:
  0.005  0.165  0.003  0.000  0.827
  0.979  0.020  0.001  0.000  0.000
  0.000  0.014  0.935  0.038  0.013
  0.016  0.801  0.023  0.000  0.159
  0.000  0.001  0.037  0.962  0.000
    occupations:
  0.911 -0.009  0.040 -0.158 -0.008
 -0.009  0.506 -0.005 -0.004 -0.008
  0.040 -0.005  0.645 -0.008  0.059
 -0.158 -0.004 -0.008  0.623  0.001
 -0.008 -0.008  0.059  0.001  0.928
atom    4   Tr[ns(na)] =   7.25305
    eigenvalues: 
  0.550  0.602  0.605  0.883  0.986
    eigenvectors:
  0.005  0.100  0.878  0.000  0.017
  0.000  0.028  0.002  0.970  0.000
  0.000  0.871  0.099  0.030  0.000
  0.000  0.001  0.016  0.000  0.983
  0.995  0.000  0.005  0.000  0.000
    occupations:
  0.611 -0.002  0.001  0.050  0.004
 -0.002  0.874  0.048  0.000 -0.001
  0.001  0.048  0.611  0.002  0.001
  0.050  0.000  0.002  0.980  0.000
  0.004 -0.001  0.001  0.000  0.550
atom    9   Tr[ns(na)] =   7.29868
    eigenvalues: 
  0.558  0.578  0.776  0.851  0.886
    eigenvectors:
  0.000  0.207  0.680  0.070  0.043
  0.998  0.001  0.001  0.001  0.000
  0.000  0.001  0.067  0.919  0.012
  0.001  0.791  0.187  0.009  0.011
  0.000  0.000  0.065  0.002  0.934
    occupations:
  0.745 -0.006 -0.020 -0.084  0.023
 -0.006  0.558  0.005  0.004  0.002
 -0.020  0.005  0.846 -0.001  0.009
 -0.084  0.004 -0.001  0.621 -0.011
  0.023  0.002  0.009 -0.011  0.879
atom   10   Tr[ns(na)] =   7.31152
    eigenvalues: 
  0.516  0.530  0.718  0.908  0.983
    eigenvectors:
  0.982  0.000  0.000  0.000  0.017
  0.000  0.000  0.000  0.999  0.000
  0.000  0.000  1.000  0.000  0.000
  0.017  0.000  0.000  0.000  0.983
  0.000  0.999  0.000  0.000  0.000
    occupations:
  0.524  0.000  0.002  0.061  0.000
  0.000  0.908 -0.003  0.000 -0.007
  0.002 -0.003  0.718 -0.002  0.000
  0.061  0.000 -0.002  0.975 -0.001
  0.000 -0.007  0.000 -0.001  0.530
atom   16   Tr[ns(na)] =   7.22928
    eigenvalues: 
  0.505  0.553  0.629  0.941  0.986
    eigenvectors:
  0.004  0.164  0.003  0.000  0.828
  0.981  0.017  0.001  0.000  0.000
  0.001  0.014  0.943  0.030  0.013
  0.014  0.804  0.024  0.000  0.158
  0.000  0.000  0.029  0.970  0.001
    occupations:
  0.912  0.008  0.040 -0.158  0.007
  0.008  0.507  0.005  0.004 -0.007
  0.040  0.005  0.642 -0.008 -0.052
 -0.158  0.004 -0.008  0.623 -0.002
  0.007 -0.007 -0.052 -0.002  0.932
atom   17   Tr[ns(na)] =   7.25315
    eigenvalues: 
  0.547  0.605  0.618  0.870  0.987
    eigenvectors:
  0.004  0.980  0.001  0.000  0.015
  0.000  0.000  0.036  0.963  0.000
  0.000  0.001  0.963  0.036  0.000
  0.000  0.015  0.000  0.000  0.985
  0.996  0.004  0.000  0.000  0.000
    occupations:
  0.611 -0.002  0.000  0.047  0.004
 -0.002  0.861  0.047  0.000 -0.001
  0.000  0.047  0.627  0.002  0.000
  0.047  0.000  0.002  0.981  0.000
  0.004 -0.001  0.000  0.000  0.547
atom   22   Tr[ns(na)] =   7.34150
    eigenvalues: 
  0.552  0.576  0.822  0.829  0.892
    eigenvectors:
  0.001  0.185  0.367  0.310  0.137
  0.998  0.000  0.000  0.001  0.000
  0.000  0.000  0.429  0.564  0.007
  0.000  0.815  0.076  0.079  0.030
  0.000  0.000  0.129  0.046  0.826
    occupations:
  0.788  0.008 -0.001 -0.101  0.023
  0.008  0.553  0.006 -0.004 -0.001
 -0.001  0.006  0.826 -0.005 -0.006
 -0.101 -0.004 -0.005  0.624 -0.010
  0.023 -0.001 -0.006 -0.010  0.880
atom   23   Tr[ns(na)] =   7.32705
    eigenvalues: 
  0.532  0.573  0.679  0.903  0.976
    eigenvectors:
  0.000  0.998  0.000  0.000  0.002
  0.002  0.000  0.998  0.000  0.000
  0.000  0.000  0.000  0.998  0.001
  0.000  0.002  0.000  0.001  0.997
  0.998  0.000  0.002  0.000  0.000
    occupations:
  0.574  0.000  0.005  0.016  0.000
  0.000  0.679  0.001 -0.001 -0.006
  0.005  0.001  0.903 -0.003  0.000
  0.016 -0.001 -0.003  0.975  0.000
  0.000 -0.006  0.000  0.000  0.532
N of occupied +U levels =  58.2423412
 --- exit write_ns ---

     negative rho (up, down):  0.570E+00 0.000E+00

     total cpu time spent up to now is   165314.5 secs

     total energy              =   -2193.09772314 Ry
     Harris-Foulkes estimate   =   -2193.10242535 Ry
     estimated scf accuracy    <       0.00583116 Ry

     iteration #  2     ecut=    40.00 Ry     beta=0.70
     Davidson diagonalization with overlap
     ethr =  2.30E-06,  avg # of iterations =  5.6

     negative rho (up, down):  0.570E+00 0.000E+00

     total cpu time spent up to now is   166463.1 secs

     total energy              =   -2193.02263787 Ry
     Harris-Foulkes estimate   =   -2193.18573043 Ry
     estimated scf accuracy    <       3.17247115 Ry

     iteration #  3     ecut=    40.00 Ry     beta=0.70
     Davidson diagonalization with overlap
     ethr =  2.30E-06,  avg # of iterations =  5.6

     negative rho (up, down):  0.570E+00 0.000E+00

     total cpu time spent up to now is   167578.8 secs

     total energy              =   -2193.09976275 Ry
     Harris-Foulkes estimate   =   -2193.10430203 Ry
     estimated scf accuracy    <       0.05124703 Ry

     iteration #  4     ecut=    40.00 Ry     beta=0.70
     Davidson diagonalization with overlap
     ethr =  2.30E-06,  avg # of iterations =  1.0

     negative rho (up, down):  0.570E+00 0.000E+00

     total cpu time spent up to now is   168300.5 secs

     total energy              =   -2193.10196746 Ry
     Harris-Foulkes estimate   =   -2193.10247371 Ry
     estimated scf accuracy    <       0.00373835 Ry

     iteration #  5     ecut=    40.00 Ry     beta=0.70
     Davidson diagonalization with overlap
     ethr =  1.48E-06,  avg # of iterations =  1.0

     negative rho (up, down):  0.570E+00 0.000E+00

     total cpu time spent up to now is   169094.3 secs

     total energy              =   -2193.10211873 Ry
     Harris-Foulkes estimate   =   -2193.10240971 Ry
     estimated scf accuracy    <       0.00273656 Ry

     iteration #  6     ecut=    40.00 Ry     beta=0.70
     Davidson diagonalization with overlap
     ethr =  1.08E-06,  avg # of iterations =  1.0

     negative rho (up, down):  0.570E+00 0.000E+00

     total cpu time spent up to now is   169918.4 secs

     total energy              =   -2193.10222983 Ry
     Harris-Foulkes estimate   =   -2193.10234692 Ry
     estimated scf accuracy    <       0.00088263 Ry

     iteration #  7     ecut=    40.00 Ry     beta=0.70
     Davidson diagonalization with overlap
     ethr =  3.49E-07,  avg # of iterations =  1.0

     negative rho (up, down):  0.570E+00 0.000E+00

     total cpu time spent up to now is   170656.1 secs

     total energy              =   -2193.10227730 Ry
     Harris-Foulkes estimate   =   -2193.10233419 Ry
     estimated scf accuracy    <       0.00047301 Ry

     iteration #  8     ecut=    40.00 Ry     beta=0.70
     Davidson diagonalization with overlap
     ethr =  1.87E-07,  avg # of iterations =  1.0

     negative rho (up, down):  0.570E+00 0.000E+00

     total cpu time spent up to now is   171403.0 secs

     total energy              =   -2193.10231329 Ry
     Harris-Foulkes estimate   =   -2193.10231723 Ry
     estimated scf accuracy    <       0.00017014 Ry

     iteration #  9     ecut=    40.00 Ry     beta=0.70
     Davidson diagonalization with overlap
     ethr =  6.72E-08,  avg # of iterations =  1.0

     negative rho (up, down):  0.570E+00 0.000E+00

     total cpu time spent up to now is   172197.7 secs

     total energy              =   -2193.10232232 Ry
     Harris-Foulkes estimate   =   -2193.10233280 Ry
     estimated scf accuracy    <       0.00019020 Ry

     iteration # 10     ecut=    40.00 Ry     beta=0.70
     Davidson diagonalization with overlap
     ethr =  6.72E-08,  avg # of iterations =  1.0
=>> PBS: job killed: walltime 172836 exceeded limit 172800
close failed in file object destructor:
Error in sys.excepthook:

Original exception was:
Terminated
