ScientificPython/2.8-dl160g6-numpy-1.7.1-1(15):ERROR:151: Module 'ScientificPython/2.8-dl160g6-numpy-1.7.1-1' depends on one of the module(s) 'numpy/1.7.1-dl160g6-gfortran-internal-1'
ScientificPython/2.8-dl160g6-numpy-1.7.1-1(15):ERROR:102: Tcl command execution failed: prereq numpy/1.7.1-dl160g6-gfortran-internal-1


     Program PWSCF v.5.0.2 (svn rev. 9656) starts on 25May2014 at  3:20:23 

     This program is part of the open-source Quantum ESPRESSO suite
     for quantum simulation of materials; please cite
         "P. Giannozzi et al., J. Phys.:Condens. Matter 21 395502 (2009);
          URL http://www.quantum-espresso.org", 
     in publications or presentations arising from this work. More details at
     http://www.quantum-espresso.org/quote.php

     Parallel version (MPI), running on    16 processors
     K-points division:     npool     =       4
     R & G space division:  proc/nbgrp/npool/nimage =       4

     Current dimensions of program PWSCF are:
     Max number of different atomic species (ntypx) = 10
     Max number of k-points (npk) =  40000
     Max angular momentum in pseudopotentials (lmaxx) =  3
     Reading input from pwscf.in
Warning: card &CELL ignored
Warning: card / ignored

     Subspace diagonalization in iterative solution of the eigenvalue problem:
     a serial algorithm will be used


     Parallelization info
     --------------------
     sticks:   dense  smooth     PW     G-vecs:    dense   smooth      PW
     Min        1244     397    112               291872    52833    7934
     Max        1245     398    113               291883    52857    7939
     Sum        4979    1589    451              1167509   211387   31747



     bravais-lattice index     =            0
     lattice parameter (alat)  =      10.7336  a.u.
     unit-cell volume          =    6184.1966 (a.u.)^3
     number of atoms/cell      =           31
     number of atomic types    =            3
     number of electrons       =       238.00 (up: 130.00, down: 108.00)
     number of Kohn-Sham states=          345
     kinetic-energy cutoff     =      40.0000  Ry
     charge density cutoff     =     500.0000  Ry
     convergence threshold     =      1.0E-06
     mixing beta               =       0.1000
     number of iterations used =            8  plain     mixing
     Exchange-correlation      = SLA  PW   PBE  PBE ( 1 4 3 4 0)
     EXX-fraction              =        0.00
     nstep                     =           50


     celldm(1)=  10.733644  celldm(2)=   0.000000  celldm(3)=   0.000000
     celldm(4)=   0.000000  celldm(5)=   0.000000  celldm(6)=   0.000000

     crystal axes: (cart. coord. in units of alat)
               a(1) = (   1.000000   0.000000   0.000000 )  
               a(2) = (   0.000000   1.085558   0.000000 )  
               a(3) = (   0.000000   0.000000   4.606685 )  

     reciprocal axes: (cart. coord. in units 2 pi/alat)
               b(1) = (  1.000000  0.000000  0.000000 )  
               b(2) = (  0.000000  0.921185  0.000000 )  
               b(3) = (  0.000000  0.000000  0.217076 )  


     PseudoPot. # 1 for O  read from file:
     /home/camp/zhonxu/pseudo/o_pbe_v1.01.uspp.F.UPF
     MD5 check sum: 2bcb18d16ea4b960afae9ec6d52f22d2
     Pseudo is Ultrasoft + core correction, Zval =  6.0
     Generated by new atomic code, or converted to UPF format
     Using radial grid of  737 points,  5 beta functions with: 
                l(1) =   0
                l(2) =   0
                l(3) =   1
                l(4) =   1
                l(5) =   2
     Q(r) pseudized with  8 coefficients,  rinner =    0.900   0.900   0.900
                                                       0.900   0.900

     PseudoPot. # 2 for Mn read from file:
     /home/camp/zhonxu/pseudo/mn_pbe_v1.uspp.F.UPF
     MD5 check sum: 5fd7c7b5c956fd19902447332617373a
     Pseudo is Ultrasoft + core correction, Zval = 15.0
     Generated by new atomic code, or converted to UPF format
     Using radial grid of  859 points,  6 beta functions with: 
                l(1) =   0
                l(2) =   0
                l(3) =   1
                l(4) =   1
                l(5) =   2
                l(6) =   2
     Q(r) pseudized with  6 coefficients,  rinner =    1.150   1.150   1.150
                                                       1.150   1.150

     PseudoPot. # 3 for H  read from file:
     /home/camp/zhonxu/pseudo/h_pbe_v1.uspp.F.UPF
     MD5 check sum: 3408e3ff4ec8b0a4e358431e7e038a48
     Pseudo is Ultrasoft, Zval =  1.0
     Generated by new atomic code, or converted to UPF format
     Using radial grid of  615 points,  2 beta functions with: 
                l(1) =   0
                l(2) =   0
     Q(r) pseudized with  8 coefficients,  rinner =    0.700

     atomic species   valence    mass     pseudopotential
        O0             6.00    15.99940     O ( 1.00)
        Mn1           15.00    54.93800     Mn( 1.00)
        H2             1.00     1.00794     H ( 1.00)

     Starting magnetic structure 
     atomic species   magnetization
        O0           0.000
        Mn1          0.600
        H2           0.000


     Simplified LDA+U calculation (l_max = 2) with parameters (eV):
     atomic species    L          U    alpha       J0     beta
        Mn1            2     6.5000   0.0000   0.0000   0.0000



     No symmetry found



   Cartesian axes

     site n.     atom                  positions (alat units)
         1           O0  tau(   1) = (   0.0000000   0.0000000   1.7161284  )
         2           O0  tau(   2) = (   0.0000000   0.5427791   1.8138362  )
         3           Mn1 tau(   3) = (   0.2500000   0.5427791   2.0603860  )
         4           Mn1 tau(   4) = (   0.0000000   0.0000000   2.0575298  )
         5           O0  tau(   5) = (   0.2500000   0.8684466   2.0501591  )
         6           O0  tau(   6) = (   0.2500000   0.2171117   2.0668814  )
         7           O0  tau(   7) = (   0.0000000   0.5427791   2.2820596  )
         8           O0  tau(   8) = (   0.0000000   0.0000000   2.4221950  )
         9           Mn1 tau(   9) = (   0.2500000   0.0000000   2.6506405  )
        10           Mn1 tau(  10) = (   0.0000000   0.5427791   2.6399991  )
        11           O0  tau(  11) = (   0.2500000   0.7598908   2.6923771  )
        12           O0  tau(  12) = (   0.2500000   0.3256675   2.6940355  )
        13           O0  tau(  13) = (   0.0000000   0.0000000   2.8768288  )
        14           O0  tau(  14) = (   0.5000000   0.0000000   1.7157599  )
        15           O0  tau(  15) = (   0.5000000   0.5427791   1.8139744  )
        16           Mn1 tau(  16) = (   0.7500000   0.5427791   2.0602938  )
        17           Mn1 tau(  17) = (   0.5000000   0.0000000   2.0567006  )
        18           O0  tau(  18) = (   0.7500000   0.8684466   2.0501591  )
        19           O0  tau(  19) = (   0.7500000   0.2171117   2.0669275  )
        20           O0  tau(  20) = (   0.5000000   0.5427791   2.2929314  )
        21           O0  tau(  21) = (   0.5000000   0.0000000   2.4225635  )
        22           Mn1 tau(  22) = (   0.7500000   0.0000000   2.6506405  )
        23           Mn1 tau(  23) = (   0.5000000   0.5427791   2.6449743  )
        24           O0  tau(  24) = (   0.7500000   0.7598908   2.6923771  )
        25           O0  tau(  25) = (   0.7500000   0.3256675   2.6939894  )
        26           O0  tau(  26) = (   0.5000000   0.0000000   2.8798231  )
        27           H2  tau(  27) = (   0.0005700   0.7038869   1.7426168  )
        28           H2  tau(  28) = (   0.5005800   0.7026710   1.7412809  )
        29           H2  tau(  29) = (   0.1606900   0.0489478   1.6674357  )
        30           H2  tau(  30) = (   0.6604600   0.0492084   1.6666987  )
        31           O0  tau(  31) = (   0.4998700   0.5432351   2.9881723  )

     number of k points=    20  Methfessel-Paxton smearing, width (Ry)=  0.0100
                       cart. coord. in units 2pi/alat
        k(    1) = (   0.0000000   0.0000000   0.0000000), wk =   0.0625000
        k(    2) = (   0.0000000   0.2302962   0.0000000), wk =   0.1250000
        k(    3) = (   0.0000000  -0.4605925   0.0000000), wk =   0.0625000
        k(    4) = (   0.2500000   0.0000000   0.0000000), wk =   0.1250000
        k(    5) = (   0.2500000   0.2302962   0.0000000), wk =   0.1250000
        k(    6) = (   0.2500000  -0.4605925   0.0000000), wk =   0.1250000
        k(    7) = (  -0.5000000   0.0000000   0.0000000), wk =   0.0625000
        k(    8) = (  -0.5000000   0.2302962   0.0000000), wk =   0.1250000
        k(    9) = (  -0.5000000  -0.4605925   0.0000000), wk =   0.0625000
        k(   10) = (  -0.2500000   0.2302962   0.0000000), wk =   0.1250000
        k(   11) = (   0.0000000   0.0000000   0.0000000), wk =   0.0625000
        k(   12) = (   0.0000000   0.2302962   0.0000000), wk =   0.1250000
        k(   13) = (   0.0000000  -0.4605925   0.0000000), wk =   0.0625000
        k(   14) = (   0.2500000   0.0000000   0.0000000), wk =   0.1250000
        k(   15) = (   0.2500000   0.2302962   0.0000000), wk =   0.1250000
        k(   16) = (   0.2500000  -0.4605925   0.0000000), wk =   0.1250000
        k(   17) = (  -0.5000000   0.0000000   0.0000000), wk =   0.0625000
        k(   18) = (  -0.5000000   0.2302962   0.0000000), wk =   0.1250000
        k(   19) = (  -0.5000000  -0.4605925   0.0000000), wk =   0.0625000
        k(   20) = (  -0.2500000   0.2302962   0.0000000), wk =   0.1250000

     Dense  grid:  1167509 G-vectors     FFT dimensions: (  80,  90, 360)

     Smooth grid:   211387 G-vectors     FFT dimensions: (  45,  48, 200)

     Largest allocated arrays     est. size (Mb)     dimensions
        Kohn-Sham Wavefunctions        34.96 Mb     (   6641,  345)
        Atomic wavefunctions           18.65 Mb     (   6641,  184)
        NL pseudopotentials            40.43 Mb     (   6641,  399)
        Each V/rho on FFT grid         19.78 Mb     ( 648000,   2)
        Each G-vector array             2.23 Mb     ( 291883)
        G-vector shells                 0.97 Mb     ( 127585)
     Largest temporary arrays     est. size (Mb)     dimensions
        Auxiliary wavefunctions       139.84 Mb     (   6641, 1380)
        Each subspace H/S matrix       29.06 Mb     (1380,1380)
        Each <psi_i|beta_j> matrix      2.10 Mb     (    399,  345)
        Arrays for rho mixing          79.10 Mb     ( 648000,   8)

     Check: negative/imaginary core charge=   -0.000023    0.000000

     Initial potential from superposition of free atoms
     Check: negative starting charge=(component1):   -0.000736
     Check: negative starting charge=(component2):   -0.000361

     starting charge  229.99987, renormalised to  238.00000

     negative rho (up, down):  0.761E-03 0.374E-03
     Number of +U iterations with fixed ns =  0
     Starting occupations:
 --- enter write_ns ---
 LDA+U parameters:
U( 2)     =  6.50000000
alpha( 2) =  0.00000000
atom    3   Tr[ns(na)] (up, down, total) =   5.00000  0.00000  5.00000
   spin  1
    eigenvalues: 
  1.000  1.000  1.000  1.000  1.000
    eigenvectors:
  1.000  0.000  0.000  0.000  0.000
  0.000  1.000  0.000  0.000  0.000
  0.000  0.000  1.000  0.000  0.000
  0.000  0.000  0.000  1.000  0.000
  0.000  0.000  0.000  0.000  1.000
    occupations:
  1.000  0.000  0.000  0.000  0.000
  0.000  1.000  0.000  0.000  0.000
  0.000  0.000  1.000  0.000  0.000
  0.000  0.000  0.000  1.000  0.000
  0.000  0.000  0.000  0.000  1.000
   spin  2
    eigenvalues: 
  0.000  0.000  0.000  0.000  0.000
    eigenvectors:
  1.000  0.000  0.000  0.000  0.000
  0.000  1.000  0.000  0.000  0.000
  0.000  0.000  1.000  0.000  0.000
  0.000  0.000  0.000  1.000  0.000
  0.000  0.000  0.000  0.000  1.000
    occupations:
  0.000  0.000  0.000  0.000  0.000
  0.000  0.000  0.000  0.000  0.000
  0.000  0.000  0.000  0.000  0.000
  0.000  0.000  0.000  0.000  0.000
  0.000  0.000  0.000  0.000  0.000
atomic mag. moment =     5.000000
atom    4   Tr[ns(na)] (up, down, total) =   5.00000  0.00000  5.00000
   spin  1
    eigenvalues: 
  1.000  1.000  1.000  1.000  1.000
    eigenvectors:
  1.000  0.000  0.000  0.000  0.000
  0.000  1.000  0.000  0.000  0.000
  0.000  0.000  1.000  0.000  0.000
  0.000  0.000  0.000  1.000  0.000
  0.000  0.000  0.000  0.000  1.000
    occupations:
  1.000  0.000  0.000  0.000  0.000
  0.000  1.000  0.000  0.000  0.000
  0.000  0.000  1.000  0.000  0.000
  0.000  0.000  0.000  1.000  0.000
  0.000  0.000  0.000  0.000  1.000
   spin  2
    eigenvalues: 
  0.000  0.000  0.000  0.000  0.000
    eigenvectors:
  1.000  0.000  0.000  0.000  0.000
  0.000  1.000  0.000  0.000  0.000
  0.000  0.000  1.000  0.000  0.000
  0.000  0.000  0.000  1.000  0.000
  0.000  0.000  0.000  0.000  1.000
    occupations:
  0.000  0.000  0.000  0.000  0.000
  0.000  0.000  0.000  0.000  0.000
  0.000  0.000  0.000  0.000  0.000
  0.000  0.000  0.000  0.000  0.000
  0.000  0.000  0.000  0.000  0.000
atomic mag. moment =     5.000000
atom    9   Tr[ns(na)] (up, down, total) =   5.00000  0.00000  5.00000
   spin  1
    eigenvalues: 
  1.000  1.000  1.000  1.000  1.000
    eigenvectors:
  1.000  0.000  0.000  0.000  0.000
  0.000  1.000  0.000  0.000  0.000
  0.000  0.000  1.000  0.000  0.000
  0.000  0.000  0.000  1.000  0.000
  0.000  0.000  0.000  0.000  1.000
    occupations:
  1.000  0.000  0.000  0.000  0.000
  0.000  1.000  0.000  0.000  0.000
  0.000  0.000  1.000  0.000  0.000
  0.000  0.000  0.000  1.000  0.000
  0.000  0.000  0.000  0.000  1.000
   spin  2
    eigenvalues: 
  0.000  0.000  0.000  0.000  0.000
    eigenvectors:
  1.000  0.000  0.000  0.000  0.000
  0.000  1.000  0.000  0.000  0.000
  0.000  0.000  1.000  0.000  0.000
  0.000  0.000  0.000  1.000  0.000
  0.000  0.000  0.000  0.000  1.000
    occupations:
  0.000  0.000  0.000  0.000  0.000
  0.000  0.000  0.000  0.000  0.000
  0.000  0.000  0.000  0.000  0.000
  0.000  0.000  0.000  0.000  0.000
  0.000  0.000  0.000  0.000  0.000
atomic mag. moment =     5.000000
atom   10   Tr[ns(na)] (up, down, total) =   5.00000  0.00000  5.00000
   spin  1
    eigenvalues: 
  1.000  1.000  1.000  1.000  1.000
    eigenvectors:
  1.000  0.000  0.000  0.000  0.000
  0.000  1.000  0.000  0.000  0.000
  0.000  0.000  1.000  0.000  0.000
  0.000  0.000  0.000  1.000  0.000
  0.000  0.000  0.000  0.000  1.000
    occupations:
  1.000  0.000  0.000  0.000  0.000
  0.000  1.000  0.000  0.000  0.000
  0.000  0.000  1.000  0.000  0.000
  0.000  0.000  0.000  1.000  0.000
  0.000  0.000  0.000  0.000  1.000
   spin  2
    eigenvalues: 
  0.000  0.000  0.000  0.000  0.000
    eigenvectors:
  1.000  0.000  0.000  0.000  0.000
  0.000  1.000  0.000  0.000  0.000
  0.000  0.000  1.000  0.000  0.000
  0.000  0.000  0.000  1.000  0.000
  0.000  0.000  0.000  0.000  1.000
    occupations:
  0.000  0.000  0.000  0.000  0.000
  0.000  0.000  0.000  0.000  0.000
  0.000  0.000  0.000  0.000  0.000
  0.000  0.000  0.000  0.000  0.000
  0.000  0.000  0.000  0.000  0.000
atomic mag. moment =     5.000000
atom   16   Tr[ns(na)] (up, down, total) =   5.00000  0.00000  5.00000
   spin  1
    eigenvalues: 
  1.000  1.000  1.000  1.000  1.000
    eigenvectors:
  1.000  0.000  0.000  0.000  0.000
  0.000  1.000  0.000  0.000  0.000
  0.000  0.000  1.000  0.000  0.000
  0.000  0.000  0.000  1.000  0.000
  0.000  0.000  0.000  0.000  1.000
    occupations:
  1.000  0.000  0.000  0.000  0.000
  0.000  1.000  0.000  0.000  0.000
  0.000  0.000  1.000  0.000  0.000
  0.000  0.000  0.000  1.000  0.000
  0.000  0.000  0.000  0.000  1.000
   spin  2
    eigenvalues: 
  0.000  0.000  0.000  0.000  0.000
    eigenvectors:
  1.000  0.000  0.000  0.000  0.000
  0.000  1.000  0.000  0.000  0.000
  0.000  0.000  1.000  0.000  0.000
  0.000  0.000  0.000  1.000  0.000
  0.000  0.000  0.000  0.000  1.000
    occupations:
  0.000  0.000  0.000  0.000  0.000
  0.000  0.000  0.000  0.000  0.000
  0.000  0.000  0.000  0.000  0.000
  0.000  0.000  0.000  0.000  0.000
  0.000  0.000  0.000  0.000  0.000
atomic mag. moment =     5.000000
atom   17   Tr[ns(na)] (up, down, total) =   5.00000  0.00000  5.00000
   spin  1
    eigenvalues: 
  1.000  1.000  1.000  1.000  1.000
    eigenvectors:
  1.000  0.000  0.000  0.000  0.000
  0.000  1.000  0.000  0.000  0.000
  0.000  0.000  1.000  0.000  0.000
  0.000  0.000  0.000  1.000  0.000
  0.000  0.000  0.000  0.000  1.000
    occupations:
  1.000  0.000  0.000  0.000  0.000
  0.000  1.000  0.000  0.000  0.000
  0.000  0.000  1.000  0.000  0.000
  0.000  0.000  0.000  1.000  0.000
  0.000  0.000  0.000  0.000  1.000
   spin  2
    eigenvalues: 
  0.000  0.000  0.000  0.000  0.000
    eigenvectors:
  1.000  0.000  0.000  0.000  0.000
  0.000  1.000  0.000  0.000  0.000
  0.000  0.000  1.000  0.000  0.000
  0.000  0.000  0.000  1.000  0.000
  0.000  0.000  0.000  0.000  1.000
    occupations:
  0.000  0.000  0.000  0.000  0.000
  0.000  0.000  0.000  0.000  0.000
  0.000  0.000  0.000  0.000  0.000
  0.000  0.000  0.000  0.000  0.000
  0.000  0.000  0.000  0.000  0.000
atomic mag. moment =     5.000000
atom   22   Tr[ns(na)] (up, down, total) =   5.00000  0.00000  5.00000
   spin  1
    eigenvalues: 
  1.000  1.000  1.000  1.000  1.000
    eigenvectors:
  1.000  0.000  0.000  0.000  0.000
  0.000  1.000  0.000  0.000  0.000
  0.000  0.000  1.000  0.000  0.000
  0.000  0.000  0.000  1.000  0.000
  0.000  0.000  0.000  0.000  1.000
    occupations:
  1.000  0.000  0.000  0.000  0.000
  0.000  1.000  0.000  0.000  0.000
  0.000  0.000  1.000  0.000  0.000
  0.000  0.000  0.000  1.000  0.000
  0.000  0.000  0.000  0.000  1.000
   spin  2
    eigenvalues: 
  0.000  0.000  0.000  0.000  0.000
    eigenvectors:
  1.000  0.000  0.000  0.000  0.000
  0.000  1.000  0.000  0.000  0.000
  0.000  0.000  1.000  0.000  0.000
  0.000  0.000  0.000  1.000  0.000
  0.000  0.000  0.000  0.000  1.000
    occupations:
  0.000  0.000  0.000  0.000  0.000
  0.000  0.000  0.000  0.000  0.000
  0.000  0.000  0.000  0.000  0.000
  0.000  0.000  0.000  0.000  0.000
  0.000  0.000  0.000  0.000  0.000
atomic mag. moment =     5.000000
atom   23   Tr[ns(na)] (up, down, total) =   5.00000  0.00000  5.00000
   spin  1
    eigenvalues: 
  1.000  1.000  1.000  1.000  1.000
    eigenvectors:
  1.000  0.000  0.000  0.000  0.000
  0.000  1.000  0.000  0.000  0.000
  0.000  0.000  1.000  0.000  0.000
  0.000  0.000  0.000  1.000  0.000
  0.000  0.000  0.000  0.000  1.000
    occupations:
  1.000  0.000  0.000  0.000  0.000
  0.000  1.000  0.000  0.000  0.000
  0.000  0.000  1.000  0.000  0.000
  0.000  0.000  0.000  1.000  0.000
  0.000  0.000  0.000  0.000  1.000
   spin  2
    eigenvalues: 
  0.000  0.000  0.000  0.000  0.000
    eigenvectors:
  1.000  0.000  0.000  0.000  0.000
  0.000  1.000  0.000  0.000  0.000
  0.000  0.000  1.000  0.000  0.000
  0.000  0.000  0.000  1.000  0.000
  0.000  0.000  0.000  0.000  1.000
    occupations:
  0.000  0.000  0.000  0.000  0.000
  0.000  0.000  0.000  0.000  0.000
  0.000  0.000  0.000  0.000  0.000
  0.000  0.000  0.000  0.000  0.000
  0.000  0.000  0.000  0.000  0.000
atomic mag. moment =     5.000000
N of occupied +U levels =  40.0000000
 --- exit write_ns ---
 Atomic wfc used for LDA+U Projector are NOT orthogonalized
     Starting wfc are  184 randomized atomic wfcs

     total cpu time spent up to now is      124.4 secs

     per-process dynamical memory:   417.7 Mb

     Self-consistent Calculation

     iteration #  1     ecut=    40.00 Ry     beta=0.10
     Davidson diagonalization with overlap
     ethr =  1.00E-02,  avg # of iterations =  5.5
 --- enter write_ns ---
 LDA+U parameters:
U( 2)     =  6.50000000
alpha( 2) =  0.00000000
atom    3   Tr[ns(na)] (up, down, total) =   4.58179  0.43261  5.01440
   spin  1
    eigenvalues: 
  0.775  0.825  0.990  0.991  1.001
    eigenvectors:
  0.245  0.003  0.002  0.747  0.003
  0.008  0.986  0.006  0.000  0.000
  0.000  0.000  0.000  0.005  0.995
  0.747  0.005  0.001  0.245  0.002
  0.000  0.006  0.991  0.003  0.000
    occupations:
  0.938 -0.000 -0.001 -0.093 -0.000
 -0.000  0.825  0.000 -0.005 -0.013
 -0.001  0.000  1.000 -0.003 -0.000
 -0.093 -0.005 -0.003  0.829 -0.000
 -0.000 -0.013 -0.000 -0.000  0.989
   spin  2
    eigenvalues: 
  0.041  0.045  0.046  0.139  0.161
    eigenvectors:
  0.705  0.033  0.048  0.003  0.210
  0.000  0.000  0.000  0.991  0.009
  0.108  0.251  0.640  0.000  0.000
  0.185  0.011  0.018  0.006  0.781
  0.002  0.704  0.294  0.001  0.000
    occupations:
  0.067 -0.000 -0.002  0.049 -0.000
 -0.000  0.139 -0.000  0.002  0.003
 -0.002 -0.000  0.046 -0.001  0.001
  0.049  0.002 -0.001  0.136  0.000
 -0.000  0.003  0.001  0.000  0.046
atomic mag. moment =     4.149175
atom    4   Tr[ns(na)] (up, down, total) =   4.51556  0.43844  4.95401
   spin  1
    eigenvalues: 
  0.701  0.844  0.987  0.991  0.993
    eigenvectors:
  0.000  0.989  0.010  0.000  0.001
  0.001  0.003  0.585  0.055  0.357
  0.000  0.000  0.004  0.812  0.185
  0.000  0.008  0.402  0.133  0.457
  0.999  0.000  0.000  0.000  0.000
    occupations:
  0.845  0.007  0.000  0.013 -0.000
  0.007  0.989  0.001 -0.004  0.007
  0.000  0.001  0.992 -0.000  0.000
  0.013 -0.004 -0.000  0.989 -0.000
 -0.000  0.007  0.000 -0.000  0.701
   spin  2
    eigenvalues: 
  0.043  0.046  0.048  0.145  0.157
    eigenvectors:
  0.007  0.007  0.000  0.987  0.000
  0.446  0.110  0.442  0.001  0.001
  0.391  0.054  0.555  0.001  0.000
  0.157  0.829  0.003  0.012  0.000
  0.001  0.000  0.001  0.000  0.999
    occupations:
  0.143  0.003  0.003 -0.011  0.000
  0.003  0.046 -0.002  0.000 -0.004
  0.003 -0.002  0.046  0.000  0.000
 -0.011  0.000  0.000  0.046  0.000
  0.000 -0.004  0.000  0.000  0.156
atomic mag. moment =     4.077121
atom    9   Tr[ns(na)] (up, down, total) =   4.61590  0.47946  5.09537
   spin  1
    eigenvalues: 
  0.808  0.811  0.996  0.999  1.003
    eigenvectors:
  0.146  0.032  0.822  0.000  0.000
  0.173  0.827  0.000  0.000  0.000
  0.000  0.000  0.000  0.007  0.993
  0.681  0.141  0.178  0.000  0.000
  0.000  0.000  0.000  0.993  0.007
    occupations:
  0.962  0.000 -0.000 -0.072  0.000
  0.000  0.810  0.000 -0.001  0.000
 -0.000  0.000  1.003 -0.000  0.000
 -0.072 -0.001 -0.000  0.842  0.000
  0.000  0.000  0.000  0.000  0.999
   spin  2
    eigenvalues: 
  0.051  0.052  0.055  0.159  0.163
    eigenvectors:
  0.822  0.001  0.000  0.003  0.175
  0.000  0.000  0.000  0.987  0.013
  0.001  0.967  0.032  0.000  0.000
  0.177  0.000  0.000  0.011  0.812
  0.000  0.032  0.968  0.000  0.000
    occupations:
  0.071 -0.000  0.000  0.043  0.000
 -0.000  0.159 -0.000  0.001 -0.000
  0.000 -0.000  0.052  0.000 -0.000
  0.043  0.001  0.000  0.143  0.000
  0.000 -0.000 -0.000  0.000  0.055
atomic mag. moment =     4.136442
atom   10   Tr[ns(na)] (up, down, total) =   4.92847  0.35575  5.28422
   spin  1
    eigenvalues: 
  0.927  0.995  1.001  1.001  1.004
    eigenvectors:
  0.000  0.419  0.000  0.581  0.000
  0.000  0.000  1.000  0.000  0.000
  0.000  0.000  0.000  0.000  1.000
  0.000  0.581  0.000  0.419  0.000
  1.000  0.000  0.000  0.000  0.000
    occupations:
  0.999  0.000 -0.000  0.003  0.000
  0.000  1.001 -0.000  0.000 -0.000
 -0.000 -0.000  1.004 -0.000 -0.000
  0.003  0.000 -0.000  0.998 -0.000
  0.000 -0.000 -0.000 -0.000  0.927
   spin  2
    eigenvalues: 
  0.037  0.043  0.044  0.082  0.150
    eigenvectors:
  0.000  0.055  0.000  0.945  0.000
  0.000  0.000  1.000  0.000  0.000
  1.000  0.000  0.000  0.000  0.000
  0.000  0.945  0.000  0.055  0.000
  0.000  0.000  0.000  0.000  1.000
    occupations:
  0.080  0.000 -0.000 -0.009 -0.000
  0.000  0.044 -0.000 -0.000  0.000
 -0.000 -0.000  0.037 -0.000 -0.000
 -0.009 -0.000 -0.000  0.045  0.000
 -0.000  0.000 -0.000  0.000  0.150
atomic mag. moment =     4.572721
atom   16   Tr[ns(na)] (up, down, total) =   4.58160  0.43258  5.01418
   spin  1
    eigenvalues: 
  0.775  0.825  0.990  0.991  1.001
    eigenvectors:
  0.245  0.003  0.000  0.749  0.003
  0.008  0.986  0.006  0.000  0.000
  0.000  0.000  0.002  0.005  0.993
  0.747  0.005  0.000  0.246  0.002
  0.000  0.006  0.991  0.000  0.002
    occupations:
  0.938  0.000 -0.001 -0.093 -0.000
  0.000  0.825 -0.000  0.005 -0.013
 -0.001 -0.000  1.000 -0.003 -0.001
 -0.093  0.005 -0.003  0.829  0.000
 -0.000 -0.013 -0.001  0.000  0.989
   spin  2
    eigenvalues: 
  0.041  0.045  0.047  0.139  0.161
    eigenvectors:
  0.704  0.036  0.047  0.003  0.210
  0.000  0.000  0.000  0.990  0.009
  0.109  0.269  0.621  0.000  0.000
  0.184  0.012  0.017  0.006  0.780
  0.002  0.683  0.315  0.001  0.000
    occupations:
  0.067  0.000 -0.002  0.049  0.000
  0.000  0.139  0.000 -0.002  0.003
 -0.002  0.000  0.046 -0.001 -0.001
  0.049 -0.002 -0.001  0.136 -0.000
  0.000  0.003 -0.001 -0.000  0.046
atomic mag. moment =     4.149011
atom   17   Tr[ns(na)] (up, down, total) =   4.51495  0.43824  4.95319
   spin  1
    eigenvalues: 
  0.702  0.843  0.986  0.991  0.993
    eigenvectors:
  0.000  0.989  0.010  0.000  0.001
  0.001  0.003  0.588  0.038  0.370
  0.000  0.000  0.003  0.862  0.134
  0.000  0.008  0.399  0.099  0.494
  0.999  0.000  0.000  0.000  0.000
    occupations:
  0.844  0.008  0.000  0.013 -0.000
  0.008  0.988  0.000 -0.004  0.007
  0.000  0.000  0.991 -0.000  0.000
  0.013 -0.004 -0.000  0.989 -0.000
 -0.000  0.007  0.000 -0.000  0.702
   spin  2
    eigenvalues: 
  0.043  0.045  0.048  0.145  0.157
    eigenvectors:
  0.007  0.007  0.000  0.986  0.000
  0.447  0.112  0.439  0.001  0.001
  0.385  0.056  0.558  0.001  0.000
  0.160  0.826  0.002  0.012  0.000
  0.001  0.000  0.001  0.000  0.999
    occupations:
  0.143  0.003  0.003 -0.011  0.000
  0.003  0.046 -0.002  0.000 -0.004
  0.003 -0.002  0.046  0.000  0.000
 -0.011  0.000  0.000  0.046  0.000
  0.000 -0.004  0.000  0.000  0.156
atomic mag. moment =     4.076708
atom   22   Tr[ns(na)] (up, down, total) =   4.61558  0.47946  5.09504
   spin  1
    eigenvalues: 
  0.806  0.812  0.996  0.999  1.003
    eigenvectors:
  0.121  0.057  0.822  0.000  0.000
  0.316  0.684  0.000  0.000  0.000
  0.000  0.000  0.000  0.007  0.993
  0.564  0.258  0.178  0.000  0.000
  0.000  0.000  0.000  0.993  0.007
    occupations:
  0.962  0.001 -0.000 -0.072 -0.000
  0.001  0.810  0.000  0.003  0.000
 -0.000  0.000  1.003 -0.000 -0.000
 -0.072  0.003 -0.000  0.841 -0.000
 -0.000  0.000 -0.000 -0.000  0.999
   spin  2
    eigenvalues: 
  0.051  0.052  0.055  0.159  0.163
    eigenvectors:
  0.822  0.001  0.000  0.003  0.175
  0.000  0.000  0.000  0.987  0.013
  0.001  0.968  0.031  0.000  0.000
  0.178  0.000  0.000  0.011  0.812
  0.000  0.031  0.969  0.000  0.000
    occupations:
  0.071  0.000  0.000  0.043 -0.000
  0.000  0.159 -0.000 -0.001 -0.000
  0.000 -0.000  0.052  0.000  0.000
  0.043 -0.001  0.000  0.143 -0.000
 -0.000 -0.000  0.000 -0.000  0.055
atomic mag. moment =     4.136113
atom   23   Tr[ns(na)] (up, down, total) =   4.76548  0.44843  5.21391
   spin  1
    eigenvalues: 
  0.883  0.892  0.995  0.997  0.997
    eigenvectors:
  0.998  0.000  0.000  0.000  0.001
  0.000  0.000  1.000  0.000  0.000
  0.000  0.000  0.000  0.972  0.028
  0.001  0.000  0.000  0.028  0.971
  0.000  1.000  0.000  0.000  0.000
    occupations:
  0.883 -0.000  0.000  0.004  0.000
 -0.000  0.995 -0.000  0.000 -0.001
  0.000 -0.000  0.997 -0.000 -0.000
  0.004  0.000 -0.000  0.997 -0.000
  0.000 -0.001 -0.000 -0.000  0.892
   spin  2
    eigenvalues: 
  0.043  0.049  0.054  0.149  0.153
    eigenvectors:
  0.010  0.000  0.000  0.000  0.990
  0.000  0.000  1.000  0.000  0.000
  0.000  1.000  0.000  0.000  0.000
  0.990  0.000  0.000  0.000  0.010
  0.000  0.000  0.000  1.000  0.000
    occupations:
  0.152  0.000 -0.000 -0.011  0.000
  0.000  0.054 -0.000  0.000  0.000
 -0.000 -0.000  0.049  0.000  0.000
 -0.011  0.000  0.000  0.044 -0.000
  0.000  0.000  0.000 -0.000  0.149
atomic mag. moment =     4.317055
N of occupied +U levels =  40.6243132
 --- exit write_ns ---

     negative rho (up, down):  0.700E-03 0.397E-03

     total cpu time spent up to now is      612.9 secs

     total energy              =   -2314.16198233 Ry
     Harris-Foulkes estimate   =   -2316.35619152 Ry
     estimated scf accuracy    <      22.21311828 Ry

     total magnetization       =    22.00 Bohr mag/cell
     absolute magnetization    =    45.52 Bohr mag/cell

     iteration #  2     ecut=    40.00 Ry     beta=0.10
     Davidson diagonalization with overlap
     ethr =  9.33E-03,  avg # of iterations =  2.0

     negative rho (up, down):  0.123E-02 0.781E-03

     total cpu time spent up to now is      853.2 secs

     total energy              =   -2315.33519801 Ry
     Harris-Foulkes estimate   =   -2316.50194981 Ry
     estimated scf accuracy    <      19.27121483 Ry

     total magnetization       =    22.00 Bohr mag/cell
     absolute magnetization    =    43.39 Bohr mag/cell

     iteration #  3     ecut=    40.00 Ry     beta=0.10
     Davidson diagonalization with overlap
     ethr =  8.10E-03,  avg # of iterations =  1.1

     negative rho (up, down):  0.217E-02 0.123E-02

     total cpu time spent up to now is     1088.2 secs

     total energy              =   -2316.06751885 Ry
     Harris-Foulkes estimate   =   -2316.23672726 Ry
     estimated scf accuracy    <      10.38101556 Ry

     total magnetization       =    22.00 Bohr mag/cell
     absolute magnetization    =    40.00 Bohr mag/cell

     iteration #  4     ecut=    40.00 Ry     beta=0.10
     Davidson diagonalization with overlap
     ethr =  4.36E-03,  avg # of iterations =  1.1

     negative rho (up, down):  0.185E-02 0.937E-03

     total cpu time spent up to now is     1318.6 secs

     total energy              =   -2316.86996174 Ry
     Harris-Foulkes estimate   =   -2316.32110789 Ry
     estimated scf accuracy    <       5.08983271 Ry

     total magnetization       =    22.00 Bohr mag/cell
     absolute magnetization    =    42.19 Bohr mag/cell

     iteration #  5     ecut=    40.00 Ry     beta=0.10
     Davidson diagonalization with overlap
     ethr =  2.14E-03,  avg # of iterations =  1.0

     negative rho (up, down):  0.490E-02 0.240E-02

     total cpu time spent up to now is     1550.3 secs

     total energy              =   -2317.65015407 Ry
     Harris-Foulkes estimate   =   -2317.20080743 Ry
     estimated scf accuracy    <       6.80865037 Ry

     total magnetization       =    22.00 Bohr mag/cell
     absolute magnetization    =    43.04 Bohr mag/cell

     iteration #  6     ecut=    40.00 Ry     beta=0.10
     Davidson diagonalization with overlap
     ethr =  2.14E-03,  avg # of iterations =  1.0

     negative rho (up, down):  0.380E-02 0.184E-02

     total cpu time spent up to now is     1779.8 secs

     total energy              =   -2317.69546069 Ry
     Harris-Foulkes estimate   =   -2317.77486582 Ry
     estimated scf accuracy    <       2.10936468 Ry

     total magnetization       =    22.00 Bohr mag/cell
     absolute magnetization    =    43.01 Bohr mag/cell

     iteration #  7     ecut=    40.00 Ry     beta=0.10
     Davidson diagonalization with overlap
     ethr =  8.86E-04,  avg # of iterations =  1.1

     negative rho (up, down):  0.758E-02 0.409E-02

     total cpu time spent up to now is     2009.3 secs

     total energy              =   -2318.18248080 Ry
     Harris-Foulkes estimate   =   -2317.78079240 Ry
     estimated scf accuracy    <       1.43172036 Ry

     total magnetization       =    22.00 Bohr mag/cell
     absolute magnetization    =    42.81 Bohr mag/cell

     iteration #  8     ecut=    40.00 Ry     beta=0.10
     Davidson diagonalization with overlap
     ethr =  6.02E-04,  avg # of iterations =  1.4

     negative rho (up, down):  0.144E-01 0.817E-02

     total cpu time spent up to now is     2243.7 secs

     total energy              =   -2318.44837929 Ry
     Harris-Foulkes estimate   =   -2318.20899488 Ry
     estimated scf accuracy    <       0.50107436 Ry

     total magnetization       =    22.00 Bohr mag/cell
     absolute magnetization    =    41.72 Bohr mag/cell

     iteration #  9     ecut=    40.00 Ry     beta=0.10
     Davidson diagonalization with overlap
     ethr =  2.11E-04,  avg # of iterations =  7.4

     negative rho (up, down):  0.134E-01 0.762E-02

     total cpu time spent up to now is     2538.0 secs

     total energy              =   -2318.47782710 Ry
     Harris-Foulkes estimate   =   -2318.47619417 Ry
     estimated scf accuracy    <       0.08152210 Ry

     total magnetization       =    22.00 Bohr mag/cell
     absolute magnetization    =    40.19 Bohr mag/cell

     iteration # 10     ecut=    40.00 Ry     beta=0.10
     Davidson diagonalization with overlap
     ethr =  3.43E-05,  avg # of iterations =  3.8

     negative rho (up, down):  0.125E-01 0.704E-02

     total cpu time spent up to now is     2795.8 secs

     total energy              =   -2318.48088578 Ry
     Harris-Foulkes estimate   =   -2318.47925331 Ry
     estimated scf accuracy    <       0.04941793 Ry

     total magnetization       =    22.00 Bohr mag/cell
     absolute magnetization    =    40.05 Bohr mag/cell

     iteration # 11     ecut=    40.00 Ry     beta=0.10
     Davidson diagonalization with overlap
     ethr =  2.08E-05,  avg # of iterations =  4.8

     negative rho (up, down):  0.116E-01 0.641E-02

     total cpu time spent up to now is     3068.4 secs

     total energy              =   -2318.48744982 Ry
     Harris-Foulkes estimate   =   -2318.48301997 Ry
     estimated scf accuracy    <       0.01614206 Ry

     total magnetization       =    22.00 Bohr mag/cell
     absolute magnetization    =    39.75 Bohr mag/cell

     iteration # 12     ecut=    40.00 Ry     beta=0.10
     Davidson diagonalization with overlap
     ethr =  6.78E-06,  avg # of iterations =  6.5

     negative rho (up, down):  0.105E-01 0.577E-02

     total cpu time spent up to now is     3384.0 secs

     total energy              =   -2318.49199566 Ry
     Harris-Foulkes estimate   =   -2318.48873337 Ry
     estimated scf accuracy    <       0.00733873 Ry

     total magnetization       =    22.00 Bohr mag/cell
     absolute magnetization    =    39.48 Bohr mag/cell

     iteration # 13     ecut=    40.00 Ry     beta=0.10
     Davidson diagonalization with overlap
     ethr =  3.08E-06,  avg # of iterations =  1.9

     negative rho (up, down):  0.966E-02 0.522E-02

     total cpu time spent up to now is     3638.7 secs

     total energy              =   -2318.49552373 Ry
     Harris-Foulkes estimate   =   -2318.49228515 Ry
     estimated scf accuracy    <       0.00570000 Ry

     total magnetization       =    22.00 Bohr mag/cell
     absolute magnetization    =    39.31 Bohr mag/cell

     iteration # 14     ecut=    40.00 Ry     beta=0.10
     Davidson diagonalization with overlap
     ethr =  2.39E-06,  avg # of iterations =  1.9

     negative rho (up, down):  0.934E-02 0.481E-02

     total cpu time spent up to now is     3882.9 secs

     total energy              =   -2318.49946499 Ry
     Harris-Foulkes estimate   =   -2318.49588198 Ry
     estimated scf accuracy    <       0.00381346 Ry

     total magnetization       =    22.00 Bohr mag/cell
     absolute magnetization    =    39.09 Bohr mag/cell

     iteration # 15     ecut=    40.00 Ry     beta=0.10
     Davidson diagonalization with overlap
     ethr =  1.60E-06,  avg # of iterations =  4.5

     negative rho (up, down):  0.902E-02 0.452E-02

     total cpu time spent up to now is     4178.5 secs

     total energy              =   -2318.50182495 Ry
     Harris-Foulkes estimate   =   -2318.50096589 Ry
     estimated scf accuracy    <       0.00154439 Ry

     total magnetization       =    22.00 Bohr mag/cell
     absolute magnetization    =    38.62 Bohr mag/cell

     iteration # 16     ecut=    40.00 Ry     beta=0.10
     Davidson diagonalization with overlap
     ethr =  6.49E-07,  avg # of iterations =  1.5

     negative rho (up, down):  0.827E-02 0.413E-02

     total cpu time spent up to now is     4421.3 secs

     total energy              =   -2318.50292202 Ry
     Harris-Foulkes estimate   =   -2318.50262658 Ry
     estimated scf accuracy    <       0.00047509 Ry

     total magnetization       =    22.00 Bohr mag/cell
     absolute magnetization    =    38.27 Bohr mag/cell

     iteration # 17     ecut=    40.00 Ry     beta=0.10
     Davidson diagonalization with overlap
     ethr =  2.00E-07,  avg # of iterations =  1.0

     negative rho (up, down):  0.754E-02 0.378E-02

     total cpu time spent up to now is     4659.8 secs

     total energy              =   -2318.50318322 Ry
     Harris-Foulkes estimate   =   -2318.50300051 Ry
     estimated scf accuracy    <       0.00035021 Ry

     total magnetization       =    22.00 Bohr mag/cell
     absolute magnetization    =    38.17 Bohr mag/cell

     iteration # 18     ecut=    40.00 Ry     beta=0.10
     Davidson diagonalization with overlap
     ethr =  1.47E-07,  avg # of iterations =  1.0

     negative rho (up, down):  0.688E-02 0.346E-02

     total cpu time spent up to now is     4900.2 secs

     total energy              =   -2318.50338017 Ry
     Harris-Foulkes estimate   =   -2318.50321119 Ry
     estimated scf accuracy    <       0.00030836 Ry

     total magnetization       =    22.00 Bohr mag/cell
     absolute magnetization    =    38.11 Bohr mag/cell

     iteration # 19     ecut=    40.00 Ry     beta=0.10
     Davidson diagonalization with overlap
     ethr =  1.30E-07,  avg # of iterations =  1.0

     negative rho (up, down):  0.646E-02 0.322E-02

     total cpu time spent up to now is     5136.7 secs

     total energy              =   -2318.50355593 Ry
     Harris-Foulkes estimate   =   -2318.50339967 Ry
     estimated scf accuracy    <       0.00016043 Ry

     total magnetization       =    22.00 Bohr mag/cell
     absolute magnetization    =    38.06 Bohr mag/cell

     iteration # 20     ecut=    40.00 Ry     beta=0.10
     Davidson diagonalization with overlap
     ethr =  6.74E-08,  avg # of iterations =  2.0

     negative rho (up, down):  0.593E-02 0.296E-02

     total cpu time spent up to now is     5386.3 secs

     total energy              =   -2318.50371503 Ry
     Harris-Foulkes estimate   =   -2318.50361940 Ry
     estimated scf accuracy    <       0.00006530 Ry

     total magnetization       =    22.00 Bohr mag/cell
     absolute magnetization    =    37.97 Bohr mag/cell

     iteration # 21     ecut=    40.00 Ry     beta=0.10
     Davidson diagonalization with overlap
     ethr =  2.74E-08,  avg # of iterations =  2.0

     negative rho (up, down):  0.538E-02 0.273E-02

     total cpu time spent up to now is     5623.9 secs

     total energy              =   -2318.50379437 Ry
     Harris-Foulkes estimate   =   -2318.50372780 Ry
     estimated scf accuracy    <       0.00004359 Ry

     total magnetization       =    22.00 Bohr mag/cell
     absolute magnetization    =    37.93 Bohr mag/cell

     iteration # 22     ecut=    40.00 Ry     beta=0.10
     Davidson diagonalization with overlap
     ethr =  1.83E-08,  avg # of iterations =  1.4

     negative rho (up, down):  0.491E-02 0.253E-02

     total cpu time spent up to now is     5855.3 secs

     total energy              =   -2318.50385729 Ry
     Harris-Foulkes estimate   =   -2318.50379638 Ry
     estimated scf accuracy    <       0.00003795 Ry

     total magnetization       =    22.00 Bohr mag/cell
     absolute magnetization    =    37.93 Bohr mag/cell

     iteration # 23     ecut=    40.00 Ry     beta=0.10
     Davidson diagonalization with overlap
     ethr =  1.59E-08,  avg # of iterations =  2.0

     negative rho (up, down):  0.446E-02 0.235E-02

     total cpu time spent up to now is     6094.0 secs

     total energy              =   -2318.50390951 Ry
     Harris-Foulkes estimate   =   -2318.50386645 Ry
     estimated scf accuracy    <       0.00003379 Ry

     total magnetization       =    22.00 Bohr mag/cell
     absolute magnetization    =    37.91 Bohr mag/cell

     iteration # 24     ecut=    40.00 Ry     beta=0.10
     Davidson diagonalization with overlap
     ethr =  1.42E-08,  avg # of iterations =  1.1

     negative rho (up, down):  0.405E-02 0.219E-02

     total cpu time spent up to now is     6326.2 secs

     total energy              =   -2318.50394620 Ry
     Harris-Foulkes estimate   =   -2318.50391037 Ry
     estimated scf accuracy    <       0.00003283 Ry

     total magnetization       =    22.00 Bohr mag/cell
     absolute magnetization    =    37.90 Bohr mag/cell

     iteration # 25     ecut=    40.00 Ry     beta=0.10
     Davidson diagonalization with overlap
     ethr =  1.38E-08,  avg # of iterations =  1.0

     negative rho (up, down):  0.370E-02 0.206E-02

     total cpu time spent up to now is     6554.6 secs

     total energy              =   -2318.50397457 Ry
     Harris-Foulkes estimate   =   -2318.50394655 Ry
     estimated scf accuracy    <       0.00003295 Ry

     total magnetization       =    22.00 Bohr mag/cell
     absolute magnetization    =    37.90 Bohr mag/cell

     iteration # 26     ecut=    40.00 Ry     beta=0.10
     Davidson diagonalization with overlap
     ethr =  1.38E-08,  avg # of iterations =  1.0

     negative rho (up, down):  0.338E-02 0.194E-02

     total cpu time spent up to now is     6782.9 secs

     total energy              =   -2318.50399368 Ry
     Harris-Foulkes estimate   =   -2318.50397474 Ry
     estimated scf accuracy    <       0.00003294 Ry

     total magnetization       =    22.00 Bohr mag/cell
     absolute magnetization    =    37.90 Bohr mag/cell

     iteration # 27     ecut=    40.00 Ry     beta=0.10
     Davidson diagonalization with overlap
     ethr =  1.38E-08,  avg # of iterations =  1.0

     negative rho (up, down):  0.311E-02 0.185E-02

     total cpu time spent up to now is     7014.5 secs

     total energy              =   -2318.50400736 Ry
     Harris-Foulkes estimate   =   -2318.50399375 Ry
     estimated scf accuracy    <       0.00003286 Ry

     total magnetization       =    22.00 Bohr mag/cell
     absolute magnetization    =    37.90 Bohr mag/cell

     iteration # 28     ecut=    40.00 Ry     beta=0.10
     Davidson diagonalization with overlap
     ethr =  1.38E-08,  avg # of iterations =  1.0

     negative rho (up, down):  0.288E-02 0.177E-02

     total cpu time spent up to now is     7243.0 secs

     total energy              =   -2318.50402060 Ry
     Harris-Foulkes estimate   =   -2318.50400749 Ry
     estimated scf accuracy    <       0.00003246 Ry

     total magnetization       =    22.00 Bohr mag/cell
     absolute magnetization    =    37.90 Bohr mag/cell

     iteration # 29     ecut=    40.00 Ry     beta=0.10
     Davidson diagonalization with overlap
     ethr =  1.36E-08,  avg # of iterations =  1.0

     negative rho (up, down):  0.267E-02 0.171E-02

     total cpu time spent up to now is     7472.6 secs

     total energy              =   -2318.50403170 Ry
     Harris-Foulkes estimate   =   -2318.50402061 Ry
     estimated scf accuracy    <       0.00003260 Ry

     total magnetization       =    22.00 Bohr mag/cell
     absolute magnetization    =    37.90 Bohr mag/cell

     iteration # 30     ecut=    40.00 Ry     beta=0.10
     Davidson diagonalization with overlap
     ethr =  1.36E-08,  avg # of iterations =  1.0

     negative rho (up, down):  0.251E-02 0.165E-02

     total cpu time spent up to now is     7701.9 secs

     total energy              =   -2318.50404311 Ry
     Harris-Foulkes estimate   =   -2318.50403170 Ry
     estimated scf accuracy    <       0.00003262 Ry

     total magnetization       =    22.00 Bohr mag/cell
     absolute magnetization    =    37.90 Bohr mag/cell

     iteration # 31     ecut=    40.00 Ry     beta=0.10
     Davidson diagonalization with overlap
     ethr =  1.36E-08,  avg # of iterations =  1.0

     negative rho (up, down):  0.234E-02 0.160E-02

     total cpu time spent up to now is     7930.2 secs

     total energy              =   -2318.50402376 Ry
     Harris-Foulkes estimate   =   -2318.50404325 Ry
     estimated scf accuracy    <       0.00003311 Ry

     total magnetization       =    22.00 Bohr mag/cell
     absolute magnetization    =    37.90 Bohr mag/cell

     iteration # 32     ecut=    40.00 Ry     beta=0.10
     Davidson diagonalization with overlap
     ethr =  1.36E-08,  avg # of iterations =  2.0

     negative rho (up, down):  0.219E-02 0.156E-02

     total cpu time spent up to now is     8164.9 secs

     total energy              =   -2318.50399909 Ry
     Harris-Foulkes estimate   =   -2318.50402984 Ry
     estimated scf accuracy    <       0.00003652 Ry

     total magnetization       =    22.00 Bohr mag/cell
     absolute magnetization    =    37.91 Bohr mag/cell

     iteration # 33     ecut=    40.00 Ry     beta=0.10
     Davidson diagonalization with overlap
     ethr =  1.36E-08,  avg # of iterations =  2.0

     negative rho (up, down):  0.209E-02 0.153E-02

     total cpu time spent up to now is     8402.9 secs

     total energy              =   -2318.50401231 Ry
     Harris-Foulkes estimate   =   -2318.50400938 Ry
     estimated scf accuracy    <       0.00004786 Ry

     total magnetization       =    22.00 Bohr mag/cell
     absolute magnetization    =    37.92 Bohr mag/cell

     iteration # 34     ecut=    40.00 Ry     beta=0.10
     Davidson diagonalization with overlap
     ethr =  1.36E-08,  avg # of iterations =  1.0

     negative rho (up, down):  0.200E-02 0.151E-02

     total cpu time spent up to now is     8633.7 secs

     total energy              =   -2318.50402072 Ry
     Harris-Foulkes estimate   =   -2318.50401241 Ry
     estimated scf accuracy    <       0.00004776 Ry

     total magnetization       =    22.00 Bohr mag/cell
     absolute magnetization    =    37.92 Bohr mag/cell

     iteration # 35     ecut=    40.00 Ry     beta=0.10
     Davidson diagonalization with overlap
     ethr =  1.36E-08,  avg # of iterations =  1.1

     negative rho (up, down):  0.193E-02 0.149E-02

     total cpu time spent up to now is     8861.9 secs

     total energy              =   -2318.50402364 Ry
     Harris-Foulkes estimate   =   -2318.50402132 Ry
     estimated scf accuracy    <       0.00005068 Ry

     total magnetization       =    22.00 Bohr mag/cell
     absolute magnetization    =    37.93 Bohr mag/cell

     iteration # 36     ecut=    40.00 Ry     beta=0.10
     Davidson diagonalization with overlap
     ethr =  1.36E-08,  avg # of iterations =  1.0

     negative rho (up, down):  0.188E-02 0.148E-02

     total cpu time spent up to now is     9089.7 secs

     total energy              =   -2318.50400943 Ry
     Harris-Foulkes estimate   =   -2318.50402366 Ry
     estimated scf accuracy    <       0.00005091 Ry

     total magnetization       =    22.00 Bohr mag/cell
     absolute magnetization    =    37.93 Bohr mag/cell

     iteration # 37     ecut=    40.00 Ry     beta=0.10
     Davidson diagonalization with overlap
     ethr =  1.36E-08,  avg # of iterations =  2.0

     negative rho (up, down):  0.183E-02 0.146E-02

     total cpu time spent up to now is     9328.4 secs

     total energy              =   -2318.50401745 Ry
     Harris-Foulkes estimate   =   -2318.50401312 Ry
     estimated scf accuracy    <       0.00004619 Ry

     total magnetization       =    22.00 Bohr mag/cell
     absolute magnetization    =    37.92 Bohr mag/cell

     iteration # 38     ecut=    40.00 Ry     beta=0.10
     Davidson diagonalization with overlap
     ethr =  1.36E-08,  avg # of iterations =  1.0

     negative rho (up, down):  0.181E-02 0.146E-02

     total cpu time spent up to now is     9562.5 secs

     total energy              =   -2318.50403366 Ry
     Harris-Foulkes estimate   =   -2318.50401766 Ry
     estimated scf accuracy    <       0.00004942 Ry

     total magnetization       =    22.00 Bohr mag/cell
     absolute magnetization    =    37.92 Bohr mag/cell

     iteration # 39     ecut=    40.00 Ry     beta=0.10
     Davidson diagonalization with overlap
     ethr =  1.36E-08,  avg # of iterations =  2.0

     negative rho (up, down):  0.178E-02 0.145E-02

     total cpu time spent up to now is     9810.9 secs

     total energy              =   -2318.50404985 Ry
     Harris-Foulkes estimate   =   -2318.50405299 Ry
     estimated scf accuracy    <       0.00003114 Ry

     total magnetization       =    22.00 Bohr mag/cell
     absolute magnetization    =    37.89 Bohr mag/cell

     iteration # 40     ecut=    40.00 Ry     beta=0.10
     Davidson diagonalization with overlap
     ethr =  1.31E-08,  avg # of iterations =  1.0

     negative rho (up, down):  0.175E-02 0.144E-02

     total cpu time spent up to now is    10044.2 secs

     total energy              =   -2318.50389271 Ry
     Harris-Foulkes estimate   =   -2318.50405016 Ry
     estimated scf accuracy    <       0.00003059 Ry

     total magnetization       =    22.00 Bohr mag/cell
     absolute magnetization    =    37.89 Bohr mag/cell

     iteration # 41     ecut=    40.00 Ry     beta=0.10
     Davidson diagonalization with overlap
     ethr =  1.29E-08,  avg # of iterations =  2.4

     negative rho (up, down):  0.174E-02 0.144E-02

     total cpu time spent up to now is    10288.0 secs

     total energy              =   -2318.50364914 Ry
     Harris-Foulkes estimate   =   -2318.50397715 Ry
     estimated scf accuracy    <       0.00002380 Ry

     total magnetization       =    22.00 Bohr mag/cell
     absolute magnetization    =    37.89 Bohr mag/cell

     iteration # 42     ecut=    40.00 Ry     beta=0.10
     Davidson diagonalization with overlap
     ethr =  1.00E-08,  avg # of iterations =  3.0

     negative rho (up, down):  0.173E-02 0.143E-02

     total cpu time spent up to now is    10543.6 secs

     total energy              =   -2318.50387801 Ry
     Harris-Foulkes estimate   =   -2318.50388123 Ry
     estimated scf accuracy    <       0.00002216 Ry

     total magnetization       =    22.00 Bohr mag/cell
     absolute magnetization    =    37.91 Bohr mag/cell

     iteration # 43     ecut=    40.00 Ry     beta=0.10
     Davidson diagonalization with overlap
     ethr =  9.31E-09,  avg # of iterations =  1.4

     negative rho (up, down):  0.172E-02 0.143E-02

     total cpu time spent up to now is    10782.9 secs

     total energy              =   -2318.50385036 Ry
     Harris-Foulkes estimate   =   -2318.50387894 Ry
     estimated scf accuracy    <       0.00001572 Ry

     total magnetization       =    22.00 Bohr mag/cell
     absolute magnetization    =    37.90 Bohr mag/cell

     iteration # 44     ecut=    40.00 Ry     beta=0.10
     Davidson diagonalization with overlap
     ethr =  6.60E-09,  avg # of iterations =  2.0

     negative rho (up, down):  0.174E-02 0.143E-02

     total cpu time spent up to now is    11032.5 secs

     total energy              =   -2318.50363548 Ry
     Harris-Foulkes estimate   =   -2318.50386261 Ry
     estimated scf accuracy    <       0.00001376 Ry

     total magnetization       =    22.00 Bohr mag/cell
     absolute magnetization    =    37.90 Bohr mag/cell

     iteration # 45     ecut=    40.00 Ry     beta=0.10
     Davidson diagonalization with overlap
     ethr =  5.78E-09,  avg # of iterations =  3.0

     negative rho (up, down):  0.171E-02 0.143E-02

     total cpu time spent up to now is    11301.3 secs

     total energy              =   -2318.50381415 Ry
     Harris-Foulkes estimate   =   -2318.50380856 Ry
     estimated scf accuracy    <       0.00001831 Ry

     total magnetization       =    22.00 Bohr mag/cell
     absolute magnetization    =    37.89 Bohr mag/cell

     iteration # 46     ecut=    40.00 Ry     beta=0.10
     Davidson diagonalization with overlap
     ethr =  5.78E-09,  avg # of iterations =  2.0

     negative rho (up, down):  0.170E-02 0.142E-02

     total cpu time spent up to now is    11549.9 secs

     total energy              =   -2318.50380370 Ry
     Harris-Foulkes estimate   =   -2318.50381923 Ry
     estimated scf accuracy    <       0.00001575 Ry

     total magnetization       =    22.00 Bohr mag/cell
     absolute magnetization    =    37.90 Bohr mag/cell

     iteration # 47     ecut=    40.00 Ry     beta=0.10
     Davidson diagonalization with overlap
     ethr =  5.78E-09,  avg # of iterations =  2.0

     negative rho (up, down):  0.168E-02 0.142E-02

     total cpu time spent up to now is    11798.8 secs

     total energy              =   -2318.50381124 Ry
     Harris-Foulkes estimate   =   -2318.50381071 Ry
     estimated scf accuracy    <       0.00001600 Ry

     total magnetization       =    22.00 Bohr mag/cell
     absolute magnetization    =    37.90 Bohr mag/cell

     iteration # 48     ecut=    40.00 Ry     beta=0.10
     Davidson diagonalization with overlap
     ethr =  5.78E-09,  avg # of iterations =  2.1

     negative rho (up, down):  0.167E-02 0.142E-02

     total cpu time spent up to now is    12051.0 secs

     total energy              =   -2318.50383226 Ry
     Harris-Foulkes estimate   =   -2318.50382763 Ry
     estimated scf accuracy    <       0.00001243 Ry

     total magnetization       =    22.00 Bohr mag/cell
     absolute magnetization    =    37.91 Bohr mag/cell

     iteration # 49     ecut=    40.00 Ry     beta=0.10
     Davidson diagonalization with overlap
     ethr =  5.22E-09,  avg # of iterations =  2.0

     negative rho (up, down):  0.165E-02 0.142E-02

     total cpu time spent up to now is    12315.2 secs

     total energy              =   -2318.50383656 Ry
     Harris-Foulkes estimate   =   -2318.50383409 Ry
     estimated scf accuracy    <       0.00001107 Ry

     total magnetization       =    22.00 Bohr mag/cell
     absolute magnetization    =    37.90 Bohr mag/cell

     iteration # 50     ecut=    40.00 Ry     beta=0.10
     Davidson diagonalization with overlap
     ethr =  4.65E-09,  avg # of iterations =  2.1

     negative rho (up, down):  0.165E-02 0.142E-02

     total cpu time spent up to now is    12579.2 secs

     total energy              =   -2318.50384944 Ry
     Harris-Foulkes estimate   =   -2318.50384828 Ry
     estimated scf accuracy    <       0.00001049 Ry

     total magnetization       =    22.00 Bohr mag/cell
     absolute magnetization    =    37.91 Bohr mag/cell

     iteration # 51     ecut=    40.00 Ry     beta=0.10
     Davidson diagonalization with overlap
     ethr =  4.41E-09,  avg # of iterations =  1.0

     negative rho (up, down):  0.165E-02 0.142E-02

     total cpu time spent up to now is    12807.9 secs

     total energy              =   -2318.50384513 Ry
     Harris-Foulkes estimate   =   -2318.50384958 Ry
     estimated scf accuracy    <       0.00001068 Ry

     total magnetization       =    22.00 Bohr mag/cell
     absolute magnetization    =    37.91 Bohr mag/cell

     iteration # 52     ecut=    40.00 Ry     beta=0.10
     Davidson diagonalization with overlap
     ethr =  4.41E-09,  avg # of iterations =  2.0

     negative rho (up, down):  0.164E-02 0.142E-02

     total cpu time spent up to now is    13042.4 secs

     total energy              =   -2318.50384963 Ry
     Harris-Foulkes estimate   =   -2318.50384637 Ry
     estimated scf accuracy    <       0.00001143 Ry

     total magnetization       =    22.00 Bohr mag/cell
     absolute magnetization    =    37.91 Bohr mag/cell

     iteration # 53     ecut=    40.00 Ry     beta=0.10
     Davidson diagonalization with overlap
     ethr =  4.41E-09,  avg # of iterations =  2.0

     negative rho (up, down):  0.165E-02 0.142E-02

     total cpu time spent up to now is    13275.9 secs

     total energy              =   -2318.50382846 Ry
     Harris-Foulkes estimate   =   -2318.50385018 Ry
     estimated scf accuracy    <       0.00000912 Ry

     total magnetization       =    22.00 Bohr mag/cell
     absolute magnetization    =    37.91 Bohr mag/cell

     iteration # 54     ecut=    40.00 Ry     beta=0.10
     Davidson diagonalization with overlap
     ethr =  3.83E-09,  avg # of iterations =  2.1

     negative rho (up, down):  0.165E-02 0.142E-02

     total cpu time spent up to now is    13526.1 secs

     total energy              =   -2318.50381615 Ry
     Harris-Foulkes estimate   =   -2318.50383950 Ry
     estimated scf accuracy    <       0.00000957 Ry

     total magnetization       =    22.00 Bohr mag/cell
     absolute magnetization    =    37.90 Bohr mag/cell

     iteration # 55     ecut=    40.00 Ry     beta=0.10
     Davidson diagonalization with overlap
     ethr =  3.83E-09,  avg # of iterations =  2.1

     negative rho (up, down):  0.166E-02 0.142E-02

     total cpu time spent up to now is    13780.7 secs

     total energy              =   -2318.50381032 Ry
     Harris-Foulkes estimate   =   -2318.50382822 Ry
     estimated scf accuracy    <       0.00000784 Ry

     total magnetization       =    22.00 Bohr mag/cell
     absolute magnetization    =    37.89 Bohr mag/cell

     iteration # 56     ecut=    40.00 Ry     beta=0.10
     Davidson diagonalization with overlap
     ethr =  3.29E-09,  avg # of iterations =  2.1

     negative rho (up, down):  0.166E-02 0.142E-02

     total cpu time spent up to now is    14028.8 secs

     total energy              =   -2318.50380605 Ry
     Harris-Foulkes estimate   =   -2318.50381902 Ry
     estimated scf accuracy    <       0.00000742 Ry

     total magnetization       =    22.00 Bohr mag/cell
     absolute magnetization    =    37.88 Bohr mag/cell

     iteration # 57     ecut=    40.00 Ry     beta=0.10
     Davidson diagonalization with overlap
     ethr =  3.12E-09,  avg # of iterations =  2.0

     negative rho (up, down):  0.165E-02 0.142E-02

     total cpu time spent up to now is    14272.3 secs

     total energy              =   -2318.50381257 Ry
     Harris-Foulkes estimate   =   -2318.50381158 Ry
     estimated scf accuracy    <       0.00000725 Ry

     total magnetization       =    22.00 Bohr mag/cell
     absolute magnetization    =    37.88 Bohr mag/cell

     iteration # 58     ecut=    40.00 Ry     beta=0.10
     Davidson diagonalization with overlap
     ethr =  3.05E-09,  avg # of iterations =  1.0

     negative rho (up, down):  0.164E-02 0.142E-02

     total cpu time spent up to now is    14505.9 secs

     total energy              =   -2318.50378709 Ry
     Harris-Foulkes estimate   =   -2318.50381260 Ry
     estimated scf accuracy    <       0.00000686 Ry

     total magnetization       =    22.00 Bohr mag/cell
     absolute magnetization    =    37.88 Bohr mag/cell

     iteration # 59     ecut=    40.00 Ry     beta=0.10
     Davidson diagonalization with overlap
     ethr =  2.88E-09,  avg # of iterations =  3.0

     negative rho (up, down):  0.164E-02 0.142E-02

     total cpu time spent up to now is    14778.1 secs

     total energy              =   -2318.50384059 Ry
     Harris-Foulkes estimate   =   -2318.50383768 Ry
     estimated scf accuracy    <       0.00000488 Ry

     total magnetization       =    22.00 Bohr mag/cell
     absolute magnetization    =    37.89 Bohr mag/cell

     iteration # 60     ecut=    40.00 Ry     beta=0.10
     Davidson diagonalization with overlap
     ethr =  2.05E-09,  avg # of iterations =  2.0

     negative rho (up, down):  0.164E-02 0.142E-02

     total cpu time spent up to now is    15029.2 secs

     total energy              =   -2318.50384172 Ry
     Harris-Foulkes estimate   =   -2318.50384447 Ry
     estimated scf accuracy    <       0.00000523 Ry

     total magnetization       =    22.00 Bohr mag/cell
     absolute magnetization    =    37.88 Bohr mag/cell

     iteration # 61     ecut=    40.00 Ry     beta=0.10
     Davidson diagonalization with overlap
     ethr =  2.05E-09,  avg # of iterations =  2.0

     negative rho (up, down):  0.164E-02 0.142E-02

     total cpu time spent up to now is    15274.7 secs

     total energy              =   -2318.50382720 Ry
     Harris-Foulkes estimate   =   -2318.50384218 Ry
     estimated scf accuracy    <       0.00000528 Ry

     total magnetization       =    22.00 Bohr mag/cell
     absolute magnetization    =    37.88 Bohr mag/cell

     iteration # 62     ecut=    40.00 Ry     beta=0.10
     Davidson diagonalization with overlap
     ethr =  2.05E-09,  avg # of iterations =  2.3

     negative rho (up, down):  0.164E-02 0.142E-02

     total cpu time spent up to now is    15515.0 secs

     total energy              =   -2318.50383380 Ry
     Harris-Foulkes estimate   =   -2318.50383373 Ry
     estimated scf accuracy    <       0.00000486 Ry

     total magnetization       =    22.00 Bohr mag/cell
     absolute magnetization    =    37.89 Bohr mag/cell

     iteration # 63     ecut=    40.00 Ry     beta=0.10
     Davidson diagonalization with overlap
     ethr =  2.04E-09,  avg # of iterations =  1.0

     negative rho (up, down):  0.164E-02 0.142E-02

     total cpu time spent up to now is    15737.2 secs

     total energy              =   -2318.50383395 Ry
     Harris-Foulkes estimate   =   -2318.50383383 Ry
     estimated scf accuracy    <       0.00000511 Ry

     total magnetization       =    22.00 Bohr mag/cell
     absolute magnetization    =    37.89 Bohr mag/cell

     iteration # 64     ecut=    40.00 Ry     beta=0.10
     Davidson diagonalization with overlap
     ethr =  2.04E-09,  avg # of iterations =  1.0

     negative rho (up, down):  0.164E-02 0.142E-02

     total cpu time spent up to now is    15962.2 secs

     total energy              =   -2318.50382374 Ry
     Harris-Foulkes estimate   =   -2318.50383397 Ry
     estimated scf accuracy    <       0.00000559 Ry

     total magnetization       =    22.00 Bohr mag/cell
     absolute magnetization    =    37.89 Bohr mag/cell

     iteration # 65     ecut=    40.00 Ry     beta=0.10
     Davidson diagonalization with overlap
     ethr =  2.04E-09,  avg # of iterations =  2.0

     negative rho (up, down):  0.165E-02 0.142E-02

     total cpu time spent up to now is    16200.0 secs

     total energy              =   -2318.50379510 Ry
     Harris-Foulkes estimate   =   -2318.50382788 Ry
     estimated scf accuracy    <       0.00000456 Ry

     total magnetization       =    22.00 Bohr mag/cell
     absolute magnetization    =    37.88 Bohr mag/cell

     iteration # 66     ecut=    40.00 Ry     beta=0.10
     Davidson diagonalization with overlap
     ethr =  1.91E-09,  avg # of iterations =  2.9

     negative rho (up, down):  0.164E-02 0.142E-02

     total cpu time spent up to now is    16454.7 secs

     total energy              =   -2318.50381285 Ry
     Harris-Foulkes estimate   =   -2318.50381388 Ry
     estimated scf accuracy    <       0.00000492 Ry

     total magnetization       =    22.00 Bohr mag/cell
     absolute magnetization    =    37.88 Bohr mag/cell

     iteration # 67     ecut=    40.00 Ry     beta=0.10
     Davidson diagonalization with overlap
     ethr =  1.91E-09,  avg # of iterations =  2.5

     negative rho (up, down):  0.164E-02 0.142E-02

     total cpu time spent up to now is    16709.8 secs

     total energy              =   -2318.50382701 Ry
     Harris-Foulkes estimate   =   -2318.50382580 Ry
     estimated scf accuracy    <       0.00000455 Ry

     total magnetization       =    22.00 Bohr mag/cell
     absolute magnetization    =    37.88 Bohr mag/cell

     iteration # 68     ecut=    40.00 Ry     beta=0.10
     Davidson diagonalization with overlap
     ethr =  1.91E-09,  avg # of iterations =  2.0

     negative rho (up, down):  0.164E-02 0.142E-02

     total cpu time spent up to now is    16946.1 secs

     total energy              =   -2318.50382627 Ry
     Harris-Foulkes estimate   =   -2318.50382724 Ry
     estimated scf accuracy    <       0.00000476 Ry

     total magnetization       =    22.00 Bohr mag/cell
     absolute magnetization    =    37.88 Bohr mag/cell

     iteration # 69     ecut=    40.00 Ry     beta=0.10
     Davidson diagonalization with overlap
     ethr =  1.91E-09,  avg # of iterations =  1.3

     negative rho (up, down):  0.164E-02 0.142E-02

     total cpu time spent up to now is    17177.0 secs

     total energy              =   -2318.50382893 Ry
     Harris-Foulkes estimate   =   -2318.50382646 Ry
     estimated scf accuracy    <       0.00000437 Ry

     total magnetization       =    22.00 Bohr mag/cell
     absolute magnetization    =    37.88 Bohr mag/cell

     iteration # 70     ecut=    40.00 Ry     beta=0.10
     Davidson diagonalization with overlap
     ethr =  1.84E-09,  avg # of iterations =  2.0

     negative rho (up, down):  0.164E-02 0.142E-02

     total cpu time spent up to now is    17420.1 secs

     total energy              =   -2318.50381963 Ry
     Harris-Foulkes estimate   =   -2318.50383304 Ry
     estimated scf accuracy    <       0.00000438 Ry

     total magnetization       =    22.00 Bohr mag/cell
     absolute magnetization    =    37.88 Bohr mag/cell

     iteration # 71     ecut=    40.00 Ry     beta=0.10
     Davidson diagonalization with overlap
     ethr =  1.84E-09,  avg # of iterations =  2.1

     negative rho (up, down):  0.164E-02 0.142E-02

     total cpu time spent up to now is    17663.4 secs

     total energy              =   -2318.50382242 Ry
     Harris-Foulkes estimate   =   -2318.50382538 Ry
     estimated scf accuracy    <       0.00000407 Ry

     total magnetization       =    22.00 Bohr mag/cell
     absolute magnetization    =    37.88 Bohr mag/cell

     iteration # 72     ecut=    40.00 Ry     beta=0.10
     Davidson diagonalization with overlap
     ethr =  1.71E-09,  avg # of iterations =  2.0

     negative rho (up, down):  0.164E-02 0.142E-02

     total cpu time spent up to now is    17903.1 secs

     total energy              =   -2318.50382417 Ry
     Harris-Foulkes estimate   =   -2318.50382316 Ry
     estimated scf accuracy    <       0.00000398 Ry

     total magnetization       =    22.00 Bohr mag/cell
     absolute magnetization    =    37.87 Bohr mag/cell

     iteration # 73     ecut=    40.00 Ry     beta=0.10
     Davidson diagonalization with overlap
     ethr =  1.67E-09,  avg # of iterations =  1.4

     negative rho (up, down):  0.164E-02 0.142E-02

     total cpu time spent up to now is    18134.8 secs

     total energy              =   -2318.50382546 Ry
     Harris-Foulkes estimate   =   -2318.50382427 Ry
     estimated scf accuracy    <       0.00000399 Ry

     total magnetization       =    22.00 Bohr mag/cell
     absolute magnetization    =    37.87 Bohr mag/cell

     iteration # 74     ecut=    40.00 Ry     beta=0.10
     Davidson diagonalization with overlap
     ethr =  1.67E-09,  avg # of iterations =  2.0

     negative rho (up, down):  0.164E-02 0.142E-02

     total cpu time spent up to now is    18370.2 secs

     total energy              =   -2318.50381761 Ry
     Harris-Foulkes estimate   =   -2318.50382581 Ry
     estimated scf accuracy    <       0.00000450 Ry

     total magnetization       =    22.00 Bohr mag/cell
     absolute magnetization    =    37.87 Bohr mag/cell

     iteration # 75     ecut=    40.00 Ry     beta=0.10
     Davidson diagonalization with overlap
     ethr =  1.67E-09,  avg # of iterations =  2.0

     negative rho (up, down):  0.165E-02 0.142E-02

     total cpu time spent up to now is    18612.1 secs

     total energy              =   -2318.50378055 Ry
     Harris-Foulkes estimate   =   -2318.50382056 Ry
     estimated scf accuracy    <       0.00000411 Ry

     total magnetization       =    22.00 Bohr mag/cell
     absolute magnetization    =    37.87 Bohr mag/cell

     iteration # 76     ecut=    40.00 Ry     beta=0.10
     Davidson diagonalization with overlap
     ethr =  1.67E-09,  avg # of iterations =  3.0

     negative rho (up, down):  0.164E-02 0.142E-02

     total cpu time spent up to now is    18883.2 secs

     total energy              =   -2318.50378337 Ry
     Harris-Foulkes estimate   =   -2318.50380448 Ry
     estimated scf accuracy    <       0.00000496 Ry

     total magnetization       =    22.00 Bohr mag/cell
     absolute magnetization    =    37.86 Bohr mag/cell

     iteration # 77     ecut=    40.00 Ry     beta=0.10
     Davidson diagonalization with overlap
     ethr =  1.67E-09,  avg # of iterations =  3.0

     negative rho (up, down):  0.164E-02 0.143E-02

     total cpu time spent up to now is    19151.8 secs

     total energy              =   -2318.50382620 Ry
     Harris-Foulkes estimate   =   -2318.50382592 Ry
     estimated scf accuracy    <       0.00000443 Ry

     total magnetization       =    22.00 Bohr mag/cell
     absolute magnetization    =    37.88 Bohr mag/cell

     iteration # 78     ecut=    40.00 Ry     beta=0.10
     Davidson diagonalization with overlap
     ethr =  1.67E-09,  avg # of iterations =  1.0

     negative rho (up, down):  0.164E-02 0.143E-02

     total cpu time spent up to now is    19381.0 secs

     total energy              =   -2318.50381763 Ry
     Harris-Foulkes estimate   =   -2318.50382625 Ry
     estimated scf accuracy    <       0.00000426 Ry

     total magnetization       =    22.00 Bohr mag/cell
     absolute magnetization    =    37.88 Bohr mag/cell

     iteration # 79     ecut=    40.00 Ry     beta=0.10
     Davidson diagonalization with overlap
     ethr =  1.67E-09,  avg # of iterations =  2.0

     negative rho (up, down):  0.164E-02 0.143E-02

     total cpu time spent up to now is    19637.4 secs

     total energy              =   -2318.50381722 Ry
     Harris-Foulkes estimate   =   -2318.50382072 Ry
     estimated scf accuracy    <       0.00000444 Ry

     total magnetization       =    22.00 Bohr mag/cell
     absolute magnetization    =    37.88 Bohr mag/cell

     iteration # 80     ecut=    40.00 Ry     beta=0.10
     Davidson diagonalization with overlap
     ethr =  1.67E-09,  avg # of iterations =  2.9

     negative rho (up, down):  0.164E-02 0.143E-02

     total cpu time spent up to now is    19885.7 secs

     total energy              =   -2318.50382114 Ry
     Harris-Foulkes estimate   =   -2318.50383356 Ry
     estimated scf accuracy    <       0.00000436 Ry

     total magnetization       =    22.00 Bohr mag/cell
     absolute magnetization    =    37.88 Bohr mag/cell

     iteration # 81     ecut=    40.00 Ry     beta=0.10
     Davidson diagonalization with overlap
     ethr =  1.67E-09,  avg # of iterations =  2.1

     negative rho (up, down):  0.164E-02 0.143E-02

     total cpu time spent up to now is    20122.6 secs

     total energy              =   -2318.50382841 Ry
     Harris-Foulkes estimate   =   -2318.50382606 Ry
     estimated scf accuracy    <       0.00000411 Ry

     total magnetization       =    22.00 Bohr mag/cell
     absolute magnetization    =    37.87 Bohr mag/cell

     iteration # 82     ecut=    40.00 Ry     beta=0.10
     Davidson diagonalization with overlap
     ethr =  1.67E-09,  avg # of iterations =  2.1

     negative rho (up, down):  0.164E-02 0.143E-02

     total cpu time spent up to now is    20363.7 secs

     total energy              =   -2318.50381004 Ry
     Harris-Foulkes estimate   =   -2318.50383346 Ry
     estimated scf accuracy    <       0.00000429 Ry

     total magnetization       =    22.00 Bohr mag/cell
     absolute magnetization    =    37.88 Bohr mag/cell

     iteration # 83     ecut=    40.00 Ry     beta=0.10
     Davidson diagonalization with overlap
     ethr =  1.67E-09,  avg # of iterations =  2.5

     negative rho (up, down):  0.164E-02 0.143E-02

     total cpu time spent up to now is    20608.4 secs

     total energy              =   -2318.50381619 Ry
     Harris-Foulkes estimate   =   -2318.50382240 Ry
     estimated scf accuracy    <       0.00000431 Ry

     total magnetization       =    22.00 Bohr mag/cell
     absolute magnetization    =    37.87 Bohr mag/cell

     iteration # 84     ecut=    40.00 Ry     beta=0.10
     Davidson diagonalization with overlap
     ethr =  1.67E-09,  avg # of iterations =  2.0

     negative rho (up, down):  0.164E-02 0.143E-02

     total cpu time spent up to now is    20847.2 secs

     total energy              =   -2318.50380472 Ry
     Harris-Foulkes estimate   =   -2318.50381804 Ry
     estimated scf accuracy    <       0.00000416 Ry

     total magnetization       =    22.00 Bohr mag/cell
     absolute magnetization    =    37.87 Bohr mag/cell

     iteration # 85     ecut=    40.00 Ry     beta=0.10
     Davidson diagonalization with overlap
     ethr =  1.67E-09,  avg # of iterations =  2.1

     negative rho (up, down):  0.164E-02 0.143E-02

     total cpu time spent up to now is    21085.4 secs

     total energy              =   -2318.50380256 Ry
     Harris-Foulkes estimate   =   -2318.50381034 Ry
     estimated scf accuracy    <       0.00000428 Ry

     total magnetization       =    22.00 Bohr mag/cell
     absolute magnetization    =    37.87 Bohr mag/cell

     iteration # 86     ecut=    40.00 Ry     beta=0.10
     Davidson diagonalization with overlap
     ethr =  1.67E-09,  avg # of iterations =  3.0

     negative rho (up, down):  0.164E-02 0.143E-02

     total cpu time spent up to now is    21333.8 secs

     total energy              =   -2318.50382525 Ry
     Harris-Foulkes estimate   =   -2318.50382525 Ry
     estimated scf accuracy    <       0.00000428 Ry

     total magnetization       =    22.00 Bohr mag/cell
     absolute magnetization    =    37.87 Bohr mag/cell

     iteration # 87     ecut=    40.00 Ry     beta=0.10
     Davidson diagonalization with overlap
     ethr =  1.67E-09,  avg # of iterations =  1.0

     negative rho (up, down):  0.164E-02 0.143E-02

     total cpu time spent up to now is    21564.3 secs

     total energy              =   -2318.50381331 Ry
     Harris-Foulkes estimate   =   -2318.50382525 Ry
     estimated scf accuracy    <       0.00000428 Ry

     total magnetization       =    22.00 Bohr mag/cell
     absolute magnetization    =    37.87 Bohr mag/cell

     iteration # 88     ecut=    40.00 Ry     beta=0.10
     Davidson diagonalization with overlap
     ethr =  1.67E-09,  avg # of iterations =  2.1

     negative rho (up, down):  0.164E-02 0.143E-02

     total cpu time spent up to now is    21800.8 secs

     total energy              =   -2318.50382044 Ry
     Harris-Foulkes estimate   =   -2318.50381817 Ry
     estimated scf accuracy    <       0.00000442 Ry

     total magnetization       =    22.00 Bohr mag/cell
     absolute magnetization    =    37.87 Bohr mag/cell

     iteration # 89     ecut=    40.00 Ry     beta=0.10
     Davidson diagonalization with overlap
     ethr =  1.67E-09,  avg # of iterations =  2.1

     negative rho (up, down):  0.164E-02 0.143E-02

     total cpu time spent up to now is    22036.8 secs

     total energy              =   -2318.50382762 Ry
     Harris-Foulkes estimate   =   -2318.50382529 Ry
     estimated scf accuracy    <       0.00000435 Ry

     total magnetization       =    22.00 Bohr mag/cell
     absolute magnetization    =    37.87 Bohr mag/cell

     iteration # 90     ecut=    40.00 Ry     beta=0.10
     Davidson diagonalization with overlap
     ethr =  1.67E-09,  avg # of iterations =  2.0

     negative rho (up, down):  0.164E-02 0.143E-02

     total cpu time spent up to now is    22273.3 secs

     total energy              =   -2318.50383152 Ry
     Harris-Foulkes estimate   =   -2318.50383014 Ry
     estimated scf accuracy    <       0.00000447 Ry

     total magnetization       =    22.00 Bohr mag/cell
     absolute magnetization    =    37.87 Bohr mag/cell

     iteration # 91     ecut=    40.00 Ry     beta=0.10
     Davidson diagonalization with overlap
     ethr =  1.67E-09,  avg # of iterations =  2.4

     negative rho (up, down):  0.164E-02 0.143E-02

     total cpu time spent up to now is    22520.5 secs

     total energy              =   -2318.50376869 Ry
     Harris-Foulkes estimate   =   -2318.50384006 Ry
     estimated scf accuracy    <       0.00000466 Ry

     total magnetization       =    22.00 Bohr mag/cell
     absolute magnetization    =    37.88 Bohr mag/cell

     iteration # 92     ecut=    40.00 Ry     beta=0.10
     Davidson diagonalization with overlap
     ethr =  1.67E-09,  avg # of iterations =  3.0

     negative rho (up, down):  0.166E-02 0.143E-02

     total cpu time spent up to now is    22783.0 secs

     total energy              =   -2318.50362901 Ry
     Harris-Foulkes estimate   =   -2318.50381756 Ry
     estimated scf accuracy    <       0.00000429 Ry

     total magnetization       =    22.00 Bohr mag/cell
     absolute magnetization    =    37.87 Bohr mag/cell

     iteration # 93     ecut=    40.00 Ry     beta=0.10
     Davidson diagonalization with overlap
     ethr =  1.67E-09,  avg # of iterations =  3.0

     negative rho (up, down):  0.164E-02 0.143E-02

     total cpu time spent up to now is    23058.2 secs

     total energy              =   -2318.50350333 Ry
     Harris-Foulkes estimate   =   -2318.50377134 Ry
     estimated scf accuracy    <       0.00001162 Ry

     total magnetization       =    22.00 Bohr mag/cell
     absolute magnetization    =    37.86 Bohr mag/cell

     iteration # 94     ecut=    40.00 Ry     beta=0.10
     Davidson diagonalization with overlap
     ethr =  1.67E-09,  avg # of iterations =  3.0

     negative rho (up, down):  0.165E-02 0.143E-02

     total cpu time spent up to now is    23335.9 secs

     total energy              =   -2318.50379814 Ry
     Harris-Foulkes estimate   =   -2318.50383962 Ry
     estimated scf accuracy    <       0.00000565 Ry

     total magnetization       =    22.00 Bohr mag/cell
     absolute magnetization    =    37.88 Bohr mag/cell

     iteration # 95     ecut=    40.00 Ry     beta=0.10
     Davidson diagonalization with overlap
     ethr =  1.67E-09,  avg # of iterations =  3.0

     negative rho (up, down):  0.164E-02 0.143E-02

     total cpu time spent up to now is    23606.1 secs

     total energy              =   -2318.50380356 Ry
     Harris-Foulkes estimate   =   -2318.50387064 Ry
     estimated scf accuracy    <       0.00001023 Ry

     total magnetization       =    22.00 Bohr mag/cell
     absolute magnetization    =    37.89 Bohr mag/cell

     iteration # 96     ecut=    40.00 Ry     beta=0.10
     Davidson diagonalization with overlap
     ethr =  1.67E-09,  avg # of iterations =  3.0

     negative rho (up, down):  0.165E-02 0.143E-02

     total cpu time spent up to now is    23877.7 secs

     total energy              =   -2318.50356294 Ry
     Harris-Foulkes estimate   =   -2318.50384653 Ry
     estimated scf accuracy    <       0.00000629 Ry

     total magnetization       =    22.00 Bohr mag/cell
     absolute magnetization    =    37.89 Bohr mag/cell

     iteration # 97     ecut=    40.00 Ry     beta=0.10
     Davidson diagonalization with overlap
     ethr =  1.67E-09,  avg # of iterations =  3.0

     negative rho (up, down):  0.167E-02 0.143E-02

     total cpu time spent up to now is    24157.7 secs

     total energy              =   -2318.50365333 Ry
     Harris-Foulkes estimate   =   -2318.50379695 Ry
     estimated scf accuracy    <       0.00000709 Ry

     total magnetization       =    22.00 Bohr mag/cell
     absolute magnetization    =    37.87 Bohr mag/cell

     iteration # 98     ecut=    40.00 Ry     beta=0.10
     Davidson diagonalization with overlap
     ethr =  1.67E-09,  avg # of iterations =  3.0

     negative rho (up, down):  0.166E-02 0.143E-02

     total cpu time spent up to now is    24430.5 secs

     total energy              =   -2318.50375583 Ry
     Harris-Foulkes estimate   =   -2318.50374763 Ry
     estimated scf accuracy    <       0.00002406 Ry

     total magnetization       =    22.00 Bohr mag/cell
     absolute magnetization    =    37.87 Bohr mag/cell

     iteration # 99     ecut=    40.00 Ry     beta=0.10
     Davidson diagonalization with overlap
     ethr =  1.67E-09,  avg # of iterations =  2.0

     negative rho (up, down):  0.166E-02 0.143E-02

     total cpu time spent up to now is    24682.3 secs

     total energy              =   -2318.50376436 Ry
     Harris-Foulkes estimate   =   -2318.50375818 Ry
     estimated scf accuracy    <       0.00001976 Ry

     total magnetization       =    22.00 Bohr mag/cell
     absolute magnetization    =    37.87 Bohr mag/cell

     iteration #100     ecut=    40.00 Ry     beta=0.10
     Davidson diagonalization with overlap
     ethr =  1.67E-09,  avg # of iterations =  2.0

     negative rho (up, down):  0.165E-02 0.143E-02

     total cpu time spent up to now is    24932.8 secs

     total energy              =   -2318.50377273 Ry
     Harris-Foulkes estimate   =   -2318.50376609 Ry
     estimated scf accuracy    <       0.00001671 Ry

     total magnetization       =    22.00 Bohr mag/cell
     absolute magnetization    =    37.87 Bohr mag/cell

     End of self-consistent calculation

     convergence NOT achieved after 100 iterations: stopping

     init_run     :    117.79s CPU    121.81s WALL (       1 calls)
     electrons    :  23668.55s CPU  24808.41s WALL (       1 calls)

     Called by init_run:
     wfcinit      :     53.41s CPU     56.12s WALL (       1 calls)
     potinit      :      8.14s CPU      8.60s WALL (       1 calls)

     Called by electrons:
     c_bands      :  13526.75s CPU  14222.22s WALL (     100 calls)
     sum_band     :   5213.30s CPU   5452.84s WALL (     100 calls)
     v_of_rho     :    220.09s CPU    246.21s WALL (     101 calls)
     newd         :   4580.48s CPU   4615.64s WALL (     101 calls)
     mix_rho      :     40.38s CPU     42.15s WALL (     100 calls)

     Called by c_bands:
     init_us_2    :     24.52s CPU     24.71s WALL (    1010 calls)
     cegterg      :  13137.57s CPU  13555.94s WALL (     500 calls)

     Called by *egterg:
     h_psi        :   7286.65s CPU   7559.02s WALL (    1557 calls)
     s_psi        :    789.84s CPU    801.17s WALL (    1562 calls)
     g_psi        :     17.23s CPU     17.34s WALL (    1052 calls)
     cdiaghg      :   1473.78s CPU   1480.71s WALL (    1552 calls)

     Called by h_psi:
     add_vuspsi   :    791.38s CPU    803.98s WALL (    1557 calls)
     vhpsi        :    728.13s CPU    741.14s WALL (    1557 calls)

     General routines
     calbec       :   1724.90s CPU   1750.23s WALL (    4119 calls)
     fft          :    244.02s CPU    310.45s WALL (    3125 calls)
     ffts         :      2.74s CPU      2.92s WALL (     402 calls)
     fftw         :   4171.42s CPU   4470.76s WALL (  886272 calls)
     interpolate  :     28.50s CPU     29.00s WALL (     402 calls)
     davcio       :      0.08s CPU     12.77s WALL (    1020 calls)

     Parallel routines
     fft_scatter  :   1517.23s CPU   1865.83s WALL (  889799 calls)
     Hubbard U routines
     new_ns       :    189.68s CPU    200.50s WALL (     100 calls)
     vhpsi        :    728.13s CPU    741.14s WALL (    1557 calls)

     PWSCF        :     6h36m CPU        6h56m WALL


   This run was terminated on:  10:16:30  25May2014            

=------------------------------------------------------------------------------=
   JOB DONE.
=------------------------------------------------------------------------------=
STOP 1
STOP 1
STOP 1
STOP 1
STOP 1
STOP 1
STOP 1
STOP 1
STOP 1
STOP 1
STOP 1
STOP 1
STOP 1
STOP 1
STOP 1
STOP 1
--------------------------------------------------------------------------
mpirun noticed that the job aborted, but has no info as to the process
that caused that situation.
--------------------------------------------------------------------------
---------------------------------------
Running PBS batch system epilogue script
Job id: 366650.audhumbla.fysik.dtu.dk
Username: zhonxu
Groupname: campgst
Jobname: MnO2/Eads-2-layers/O-U-6.5
Sessionid: 20325
Resources limits: neednodes=2:ppn=8:xeon8,nodes=2:ppn=8:xeon8,walltime=48:00:00
Resources used: cput=110:35:21,mem=17051660kb,vmem=21182300kb,walltime=06:56:09
Queuename: verylong
Accounting:
This job has allocated the following 16 nodes:
d109 d109 d109 d109 d109 d109 d109 d109 d107 d107 d107 d107 d107 d107 d107 d107
Finished epilogue job 366650.audhumbla.fysik.dtu.dk for zhonxu
