
     Program PWSCF v.5.0.2 (svn rev. 9656) starts on  4May2014 at 21: 3:37 

     This program is part of the open-source Quantum ESPRESSO suite
     for quantum simulation of materials; please cite
         "P. Giannozzi et al., J. Phys.:Condens. Matter 21 395502 (2009);
          URL http://www.quantum-espresso.org", 
     in publications or presentations arising from this work. More details at
     http://www.quantum-espresso.org/quote.php

     Parallel version (MPI), running on    16 processors
     K-points division:     npool     =       4
     R & G space division:  proc/nbgrp/npool/nimage =       4

     Current dimensions of program PWSCF are:
     Max number of different atomic species (ntypx) = 10
     Max number of k-points (npk) =  40000
     Max angular momentum in pseudopotentials (lmaxx) =  3
     Reading input from pwscf.in
Warning: card &CELL ignored
Warning: card / ignored

     Subspace diagonalization in iterative solution of the eigenvalue problem:
     a serial algorithm will be used


     Parallelization info
     --------------------
     sticks:   dense  smooth     PW     G-vecs:    dense   smooth      PW
     Min        1274     408    116               299662    54238    8133
     Max        1275     409    117               299663    54251    8135
     Sum        5097    1635    467              1198649   216969   32535



     bravais-lattice index     =            0
     lattice parameter (alat)  =      10.9604  a.u.
     unit-cell volume          =    6350.6732 (a.u.)^3
     number of atoms/cell      =           31
     number of atomic types    =            3
     number of electrons       =       230.00 (up: 122.00, down: 108.00)
     number of Kohn-Sham states=          333
     kinetic-energy cutoff     =      40.0000  Ry
     charge density cutoff     =     500.0000  Ry
     convergence threshold     =      1.0E-06
     mixing beta               =       0.7000
     number of iterations used =            8  plain     mixing
     Exchange-correlation      = SLA  PW   PBE  PBE ( 1 4 3 4 0)
     EXX-fraction              =        0.00
     nstep                     =           50


     celldm(1)=  10.960412  celldm(2)=   0.000000  celldm(3)=   0.000000
     celldm(4)=   0.000000  celldm(5)=   0.000000  celldm(6)=   0.000000

     crystal axes: (cart. coord. in units of alat)
               a(1) = (   1.000000   0.000000   0.000000 )  
               a(2) = (   0.000000   1.067975   0.000000 )  
               a(3) = (   0.000000   0.000000   4.516251 )  

     reciprocal axes: (cart. coord. in units 2 pi/alat)
               b(1) = (  1.000000  0.000000  0.000000 )  
               b(2) = (  0.000000  0.936351  0.000000 )  
               b(3) = (  0.000000  0.000000  0.221423 )  


     PseudoPot. # 1 for O  read from file:
     /home/camp/zhonxu/pseudo/o_pbe_v1.01.uspp.F.UPF
     MD5 check sum: 2bcb18d16ea4b960afae9ec6d52f22d2
     Pseudo is Ultrasoft + core correction, Zval =  6.0
     Generated by new atomic code, or converted to UPF format
     Using radial grid of  737 points,  5 beta functions with: 
                l(1) =   0
                l(2) =   0
                l(3) =   1
                l(4) =   1
                l(5) =   2
     Q(r) pseudized with  8 coefficients,  rinner =    0.900   0.900   0.900
                                                       0.900   0.900

     PseudoPot. # 2 for Cr read from file:
     /home/camp/zhonxu/pseudo/cr_pbe_v1.uspp.F.UPF
     MD5 check sum: 68b6f918d1762dccfb11451fe85b0e0e
     Pseudo is Ultrasoft + core correction, Zval = 14.0
     Generated by new atomic code, or converted to UPF format
     Using radial grid of  857 points,  6 beta functions with: 
                l(1) =   0
                l(2) =   0
                l(3) =   1
                l(4) =   1
                l(5) =   2
                l(6) =   2
     Q(r) pseudized with  6 coefficients,  rinner =    1.000   1.000   1.000
                                                       1.000   1.000

     PseudoPot. # 3 for H  read from file:
     /home/camp/zhonxu/pseudo/h_pbe_v1.uspp.F.UPF
     MD5 check sum: 3408e3ff4ec8b0a4e358431e7e038a48
     Pseudo is Ultrasoft, Zval =  1.0
     Generated by new atomic code, or converted to UPF format
     Using radial grid of  615 points,  2 beta functions with: 
                l(1) =   0
                l(2) =   0
     Q(r) pseudized with  8 coefficients,  rinner =    0.700

     atomic species   valence    mass     pseudopotential
        O0             6.00    15.99940     O ( 1.00)
        Cr1           14.00    51.99600     Cr( 1.00)
        H2             1.00     1.00794     H ( 1.00)

     Starting magnetic structure 
     atomic species   magnetization
        O0           0.000
        Cr1          0.600
        H2           0.000


     Simplified LDA+U calculation (l_max = 2) with parameters (eV):
     atomic species    L          U    alpha       J0     beta
        Cr1            2     2.0000   0.0000   0.0000   0.0000



     No symmetry found



   Cartesian axes

     site n.     atom                  positions (alat units)
         1           O0  tau(   1) = (   0.0000000   0.0000000   1.7030331  )
         2           O0  tau(   2) = (   0.0000000   0.5339875   1.8028422  )
         3           Cr1 tau(   3) = (   0.2500000   0.5339875   2.0350227  )
         4           Cr1 tau(   4) = (   0.0000000   0.0000000   2.0223320  )
         5           O0  tau(   5) = (   0.2500000   0.8543801   2.0287902  )
         6           O0  tau(   6) = (   0.2500000   0.2135950   2.0292419  )
         7           O0  tau(   7) = (   0.0000000   0.5339875   2.2445767  )
         8           O0  tau(   8) = (   0.0000000   0.0000000   2.3628573  )
         9           Cr1 tau(   9) = (   0.2500000   0.0000000   2.5580045  )
        10           Cr1 tau(  10) = (   0.0000000   0.5339875   2.5485656  )
        11           O0  tau(  11) = (   0.2500000   0.7475825   2.5953991  )
        12           O0  tau(  12) = (   0.2500000   0.3203925   2.5951281  )
        13           O0  tau(  13) = (   0.0000000   0.0000000   2.7889204  )
        14           O0  tau(  14) = (   0.5000000   0.0000000   1.7055170  )
        15           O0  tau(  15) = (   0.5000000   0.5339875   1.8012615  )
        16           Cr1 tau(  16) = (   0.7500000   0.5339875   2.0359259  )
        17           Cr1 tau(  17) = (   0.5000000   0.0000000   2.0265773  )
        18           O0  tau(  18) = (   0.7500000   0.8543801   2.0288354  )
        19           O0  tau(  19) = (   0.7500000   0.2135950   2.0296032  )
        20           O0  tau(  20) = (   0.5000000   0.5339875   2.2364023  )
        21           O0  tau(  21) = (   0.5000000   0.0000000   2.3615024  )
        22           Cr1 tau(  22) = (   0.7500000   0.0000000   2.6337872  )
        23           Cr1 tau(  23) = (   0.5000000   0.5339875   2.6580395  )
        24           O0  tau(  24) = (   0.7500000   0.7475825   2.5992379  )
        25           O0  tau(  25) = (   0.7500000   0.3203925   2.5991024  )
        26           O0  tau(  26) = (   0.5000000   0.0000000   2.7868881  )
        27           H2  tau(  27) = (  -0.0008000   0.6785059   1.7121107  )
        28           H2  tau(  28) = (   0.4997900   0.6815710   1.7150915  )
        29           H2  tau(  29) = (   0.1566700   0.0342393   1.6437347  )
        30           H2  tau(  30) = (   0.6553000   0.0356063   1.6443670  )
        31           O0  tau(  31) = (   0.4989300   0.5335603   2.9283823  )

     number of k points=    20  Methfessel-Paxton smearing, width (Ry)=  0.0100
                       cart. coord. in units 2pi/alat
        k(    1) = (   0.0000000   0.0000000   0.0000000), wk =   0.0625000
        k(    2) = (   0.0000000   0.2340879   0.0000000), wk =   0.1250000
        k(    3) = (   0.0000000  -0.4681757   0.0000000), wk =   0.0625000
        k(    4) = (   0.2500000   0.0000000   0.0000000), wk =   0.1250000
        k(    5) = (   0.2500000   0.2340879   0.0000000), wk =   0.1250000
        k(    6) = (   0.2500000  -0.4681757   0.0000000), wk =   0.1250000
        k(    7) = (  -0.5000000   0.0000000   0.0000000), wk =   0.0625000
        k(    8) = (  -0.5000000   0.2340879   0.0000000), wk =   0.1250000
        k(    9) = (  -0.5000000  -0.4681757   0.0000000), wk =   0.0625000
        k(   10) = (  -0.2500000   0.2340879   0.0000000), wk =   0.1250000
        k(   11) = (   0.0000000   0.0000000   0.0000000), wk =   0.0625000
        k(   12) = (   0.0000000   0.2340879   0.0000000), wk =   0.1250000
        k(   13) = (   0.0000000  -0.4681757   0.0000000), wk =   0.0625000
        k(   14) = (   0.2500000   0.0000000   0.0000000), wk =   0.1250000
        k(   15) = (   0.2500000   0.2340879   0.0000000), wk =   0.1250000
        k(   16) = (   0.2500000  -0.4681757   0.0000000), wk =   0.1250000
        k(   17) = (  -0.5000000   0.0000000   0.0000000), wk =   0.0625000
        k(   18) = (  -0.5000000   0.2340879   0.0000000), wk =   0.1250000
        k(   19) = (  -0.5000000  -0.4681757   0.0000000), wk =   0.0625000
        k(   20) = (  -0.2500000   0.2340879   0.0000000), wk =   0.1250000

     Dense  grid:  1198649 G-vectors     FFT dimensions: (  80,  90, 360)

     Smooth grid:   216969 G-vectors     FFT dimensions: (  45,  48, 200)

     Largest allocated arrays     est. size (Mb)     dimensions
        Kohn-Sham Wavefunctions        34.98 Mb     (   6884,  333)
        Atomic wavefunctions           16.81 Mb     (   6884,  160)
        NL pseudopotentials            41.91 Mb     (   6884,  399)
        Each V/rho on FFT grid         19.78 Mb     ( 648000,   2)
        Each G-vector array             2.29 Mb     ( 299662)
        G-vector shells                 0.99 Mb     ( 129803)
     Largest temporary arrays     est. size (Mb)     dimensions
        Auxiliary wavefunctions       139.92 Mb     (   6884, 1332)
        Each subspace H/S matrix       27.07 Mb     (1332,1332)
        Each <psi_i|beta_j> matrix      2.03 Mb     (    399,  333)
        Arrays for rho mixing          79.10 Mb     ( 648000,   8)

     Check: negative/imaginary core charge=   -0.000012    0.000000

     Initial potential from superposition of free atoms
     Check: negative starting charge=(component1):   -0.001547
     Check: negative starting charge=(component2):   -0.000494

     starting charge  221.99984, renormalised to  230.00000

     negative rho (up, down):  0.160E-02 0.512E-03
     Number of +U iterations with fixed ns =  0
     Starting occupations:
 --- enter write_ns ---
 LDA+U parameters:
U( 2)     =  2.00000000
alpha( 2) =  0.00000000
atom    3   Tr[ns(na)] (up, down, total) =   5.00000  0.00000  5.00000
   spin  1
    eigenvalues: 
  1.000  1.000  1.000  1.000  1.000
    eigenvectors:
  1.000  0.000  0.000  0.000  0.000
  0.000  1.000  0.000  0.000  0.000
  0.000  0.000  1.000  0.000  0.000
  0.000  0.000  0.000  1.000  0.000
  0.000  0.000  0.000  0.000  1.000
    occupations:
  1.000  0.000  0.000  0.000  0.000
  0.000  1.000  0.000  0.000  0.000
  0.000  0.000  1.000  0.000  0.000
  0.000  0.000  0.000  1.000  0.000
  0.000  0.000  0.000  0.000  1.000
   spin  2
    eigenvalues: 
  0.000  0.000  0.000  0.000  0.000
    eigenvectors:
  1.000  0.000  0.000  0.000  0.000
  0.000  1.000  0.000  0.000  0.000
  0.000  0.000  1.000  0.000  0.000
  0.000  0.000  0.000  1.000  0.000
  0.000  0.000  0.000  0.000  1.000
    occupations:
  0.000  0.000  0.000  0.000  0.000
  0.000  0.000  0.000  0.000  0.000
  0.000  0.000  0.000  0.000  0.000
  0.000  0.000  0.000  0.000  0.000
  0.000  0.000  0.000  0.000  0.000
atomic mag. moment =     5.000000
atom    4   Tr[ns(na)] (up, down, total) =   5.00000  0.00000  5.00000
   spin  1
    eigenvalues: 
  1.000  1.000  1.000  1.000  1.000
    eigenvectors:
  1.000  0.000  0.000  0.000  0.000
  0.000  1.000  0.000  0.000  0.000
  0.000  0.000  1.000  0.000  0.000
  0.000  0.000  0.000  1.000  0.000
  0.000  0.000  0.000  0.000  1.000
    occupations:
  1.000  0.000  0.000  0.000  0.000
  0.000  1.000  0.000  0.000  0.000
  0.000  0.000  1.000  0.000  0.000
  0.000  0.000  0.000  1.000  0.000
  0.000  0.000  0.000  0.000  1.000
   spin  2
    eigenvalues: 
  0.000  0.000  0.000  0.000  0.000
    eigenvectors:
  1.000  0.000  0.000  0.000  0.000
  0.000  1.000  0.000  0.000  0.000
  0.000  0.000  1.000  0.000  0.000
  0.000  0.000  0.000  1.000  0.000
  0.000  0.000  0.000  0.000  1.000
    occupations:
  0.000  0.000  0.000  0.000  0.000
  0.000  0.000  0.000  0.000  0.000
  0.000  0.000  0.000  0.000  0.000
  0.000  0.000  0.000  0.000  0.000
  0.000  0.000  0.000  0.000  0.000
atomic mag. moment =     5.000000
atom    9   Tr[ns(na)] (up, down, total) =   5.00000  0.00000  5.00000
   spin  1
    eigenvalues: 
  1.000  1.000  1.000  1.000  1.000
    eigenvectors:
  1.000  0.000  0.000  0.000  0.000
  0.000  1.000  0.000  0.000  0.000
  0.000  0.000  1.000  0.000  0.000
  0.000  0.000  0.000  1.000  0.000
  0.000  0.000  0.000  0.000  1.000
    occupations:
  1.000  0.000  0.000  0.000  0.000
  0.000  1.000  0.000  0.000  0.000
  0.000  0.000  1.000  0.000  0.000
  0.000  0.000  0.000  1.000  0.000
  0.000  0.000  0.000  0.000  1.000
   spin  2
    eigenvalues: 
  0.000  0.000  0.000  0.000  0.000
    eigenvectors:
  1.000  0.000  0.000  0.000  0.000
  0.000  1.000  0.000  0.000  0.000
  0.000  0.000  1.000  0.000  0.000
  0.000  0.000  0.000  1.000  0.000
  0.000  0.000  0.000  0.000  1.000
    occupations:
  0.000  0.000  0.000  0.000  0.000
  0.000  0.000  0.000  0.000  0.000
  0.000  0.000  0.000  0.000  0.000
  0.000  0.000  0.000  0.000  0.000
  0.000  0.000  0.000  0.000  0.000
atomic mag. moment =     5.000000
atom   10   Tr[ns(na)] (up, down, total) =   5.00000  0.00000  5.00000
   spin  1
    eigenvalues: 
  1.000  1.000  1.000  1.000  1.000
    eigenvectors:
  1.000  0.000  0.000  0.000  0.000
  0.000  1.000  0.000  0.000  0.000
  0.000  0.000  1.000  0.000  0.000
  0.000  0.000  0.000  1.000  0.000
  0.000  0.000  0.000  0.000  1.000
    occupations:
  1.000  0.000  0.000  0.000  0.000
  0.000  1.000  0.000  0.000  0.000
  0.000  0.000  1.000  0.000  0.000
  0.000  0.000  0.000  1.000  0.000
  0.000  0.000  0.000  0.000  1.000
   spin  2
    eigenvalues: 
  0.000  0.000  0.000  0.000  0.000
    eigenvectors:
  1.000  0.000  0.000  0.000  0.000
  0.000  1.000  0.000  0.000  0.000
  0.000  0.000  1.000  0.000  0.000
  0.000  0.000  0.000  1.000  0.000
  0.000  0.000  0.000  0.000  1.000
    occupations:
  0.000  0.000  0.000  0.000  0.000
  0.000  0.000  0.000  0.000  0.000
  0.000  0.000  0.000  0.000  0.000
  0.000  0.000  0.000  0.000  0.000
  0.000  0.000  0.000  0.000  0.000
atomic mag. moment =     5.000000
atom   16   Tr[ns(na)] (up, down, total) =   5.00000  0.00000  5.00000
   spin  1
    eigenvalues: 
  1.000  1.000  1.000  1.000  1.000
    eigenvectors:
  1.000  0.000  0.000  0.000  0.000
  0.000  1.000  0.000  0.000  0.000
  0.000  0.000  1.000  0.000  0.000
  0.000  0.000  0.000  1.000  0.000
  0.000  0.000  0.000  0.000  1.000
    occupations:
  1.000  0.000  0.000  0.000  0.000
  0.000  1.000  0.000  0.000  0.000
  0.000  0.000  1.000  0.000  0.000
  0.000  0.000  0.000  1.000  0.000
  0.000  0.000  0.000  0.000  1.000
   spin  2
    eigenvalues: 
  0.000  0.000  0.000  0.000  0.000
    eigenvectors:
  1.000  0.000  0.000  0.000  0.000
  0.000  1.000  0.000  0.000  0.000
  0.000  0.000  1.000  0.000  0.000
  0.000  0.000  0.000  1.000  0.000
  0.000  0.000  0.000  0.000  1.000
    occupations:
  0.000  0.000  0.000  0.000  0.000
  0.000  0.000  0.000  0.000  0.000
  0.000  0.000  0.000  0.000  0.000
  0.000  0.000  0.000  0.000  0.000
  0.000  0.000  0.000  0.000  0.000
atomic mag. moment =     5.000000
atom   17   Tr[ns(na)] (up, down, total) =   5.00000  0.00000  5.00000
   spin  1
    eigenvalues: 
  1.000  1.000  1.000  1.000  1.000
    eigenvectors:
  1.000  0.000  0.000  0.000  0.000
  0.000  1.000  0.000  0.000  0.000
  0.000  0.000  1.000  0.000  0.000
  0.000  0.000  0.000  1.000  0.000
  0.000  0.000  0.000  0.000  1.000
    occupations:
  1.000  0.000  0.000  0.000  0.000
  0.000  1.000  0.000  0.000  0.000
  0.000  0.000  1.000  0.000  0.000
  0.000  0.000  0.000  1.000  0.000
  0.000  0.000  0.000  0.000  1.000
   spin  2
    eigenvalues: 
  0.000  0.000  0.000  0.000  0.000
    eigenvectors:
  1.000  0.000  0.000  0.000  0.000
  0.000  1.000  0.000  0.000  0.000
  0.000  0.000  1.000  0.000  0.000
  0.000  0.000  0.000  1.000  0.000
  0.000  0.000  0.000  0.000  1.000
    occupations:
  0.000  0.000  0.000  0.000  0.000
  0.000  0.000  0.000  0.000  0.000
  0.000  0.000  0.000  0.000  0.000
  0.000  0.000  0.000  0.000  0.000
  0.000  0.000  0.000  0.000  0.000
atomic mag. moment =     5.000000
atom   22   Tr[ns(na)] (up, down, total) =   5.00000  0.00000  5.00000
   spin  1
    eigenvalues: 
  1.000  1.000  1.000  1.000  1.000
    eigenvectors:
  1.000  0.000  0.000  0.000  0.000
  0.000  1.000  0.000  0.000  0.000
  0.000  0.000  1.000  0.000  0.000
  0.000  0.000  0.000  1.000  0.000
  0.000  0.000  0.000  0.000  1.000
    occupations:
  1.000  0.000  0.000  0.000  0.000
  0.000  1.000  0.000  0.000  0.000
  0.000  0.000  1.000  0.000  0.000
  0.000  0.000  0.000  1.000  0.000
  0.000  0.000  0.000  0.000  1.000
   spin  2
    eigenvalues: 
  0.000  0.000  0.000  0.000  0.000
    eigenvectors:
  1.000  0.000  0.000  0.000  0.000
  0.000  1.000  0.000  0.000  0.000
  0.000  0.000  1.000  0.000  0.000
  0.000  0.000  0.000  1.000  0.000
  0.000  0.000  0.000  0.000  1.000
    occupations:
  0.000  0.000  0.000  0.000  0.000
  0.000  0.000  0.000  0.000  0.000
  0.000  0.000  0.000  0.000  0.000
  0.000  0.000  0.000  0.000  0.000
  0.000  0.000  0.000  0.000  0.000
atomic mag. moment =     5.000000
atom   23   Tr[ns(na)] (up, down, total) =   5.00000  0.00000  5.00000
   spin  1
    eigenvalues: 
  1.000  1.000  1.000  1.000  1.000
    eigenvectors:
  1.000  0.000  0.000  0.000  0.000
  0.000  1.000  0.000  0.000  0.000
  0.000  0.000  1.000  0.000  0.000
  0.000  0.000  0.000  1.000  0.000
  0.000  0.000  0.000  0.000  1.000
    occupations:
  1.000  0.000  0.000  0.000  0.000
  0.000  1.000  0.000  0.000  0.000
  0.000  0.000  1.000  0.000  0.000
  0.000  0.000  0.000  1.000  0.000
  0.000  0.000  0.000  0.000  1.000
   spin  2
    eigenvalues: 
  0.000  0.000  0.000  0.000  0.000
    eigenvectors:
  1.000  0.000  0.000  0.000  0.000
  0.000  1.000  0.000  0.000  0.000
  0.000  0.000  1.000  0.000  0.000
  0.000  0.000  0.000  1.000  0.000
  0.000  0.000  0.000  0.000  1.000
    occupations:
  0.000  0.000  0.000  0.000  0.000
  0.000  0.000  0.000  0.000  0.000
  0.000  0.000  0.000  0.000  0.000
  0.000  0.000  0.000  0.000  0.000
  0.000  0.000  0.000  0.000  0.000
atomic mag. moment =     5.000000
N of occupied +U levels =  40.0000000
 --- exit write_ns ---
 Atomic wfc used for LDA+U Projector are NOT orthogonalized
     Starting wfc are  160 randomized atomic wfcs

     total cpu time spent up to now is      118.5 secs

     per-process dynamical memory:   468.6 Mb

     Self-consistent Calculation

     iteration #  1     ecut=    40.00 Ry     beta=0.70
     Davidson diagonalization with overlap
     ethr =  1.00E-02,  avg # of iterations =  5.3
 --- enter write_ns ---
 LDA+U parameters:
U( 2)     =  2.00000000
alpha( 2) =  0.00000000
atom    3   Tr[ns(na)] (up, down, total) =   3.08912  0.65717  3.74628
   spin  1
    eigenvalues: 
  0.536  0.540  0.627  0.670  0.716
    eigenvectors:
  0.354  0.021  0.036  0.579  0.010
  0.162  0.756  0.001  0.015  0.067
  0.020  0.016  0.825  0.136  0.003
  0.457  0.155  0.130  0.254  0.005
  0.007  0.053  0.009  0.016  0.915
    occupations:
  0.619 -0.017  0.021 -0.059 -0.003
 -0.017  0.553 -0.005  0.009  0.042
  0.021 -0.005  0.630  0.005  0.008
 -0.059  0.009  0.005  0.583  0.000
 -0.003  0.042  0.008  0.000  0.704
   spin  2
    eigenvalues: 
  0.069  0.075  0.080  0.207  0.226
    eigenvectors:
  0.536  0.211  0.073  0.016  0.164
  0.000  0.000  0.001  0.930  0.068
  0.324  0.327  0.349  0.000  0.000
  0.123  0.043  0.014  0.053  0.767
  0.017  0.419  0.564  0.001  0.000
    occupations:
  0.099  0.000 -0.003  0.059  0.000
  0.000  0.208  0.000 -0.005  0.004
 -0.003  0.000  0.075  0.004 -0.002
  0.059 -0.005  0.004  0.197 -0.000
  0.000  0.004 -0.002 -0.000  0.078
atomic mag. moment =     2.431954
atom    4   Tr[ns(na)] (up, down, total) =   3.18802  0.67221  3.86023
   spin  1
    eigenvalues: 
  0.495  0.532  0.708  0.726  0.728
    eigenvectors:
  0.000  0.690  0.257  0.048  0.004
  0.000  0.293  0.529  0.078  0.099
  0.000  0.012  0.145  0.040  0.803
  0.000  0.003  0.068  0.834  0.095
  0.999  0.001  0.000  0.000  0.000
    occupations:
  0.588  0.080  0.014 -0.012 -0.000
  0.080  0.660 -0.017  0.003  0.001
  0.014 -0.017  0.722 -0.001  0.001
 -0.012  0.003 -0.001  0.724  0.000
 -0.000  0.001  0.001  0.000  0.495
   spin  2
    eigenvalues: 
  0.066  0.079  0.092  0.205  0.230
    eigenvectors:
  0.009  0.002  0.000  0.000  0.989
  0.006  0.877  0.114  0.000  0.003
  0.001  0.114  0.886  0.000  0.000
  0.984  0.007  0.000  0.000  0.008
  0.000  0.000  0.000  1.000  0.000
    occupations:
  0.228  0.008  0.002 -0.015  0.000
  0.008  0.081 -0.004  0.000 -0.000
  0.002 -0.004  0.091  0.000  0.000
 -0.015  0.000  0.000  0.068  0.000
  0.000 -0.000  0.000  0.000  0.205
atomic mag. moment =     2.515809
atom    9   Tr[ns(na)] (up, down, total) =   4.15341  0.70340  4.85681
   spin  1
    eigenvalues: 
  0.597  0.630  0.969  0.976  0.981
    eigenvectors:
  0.000  0.179  0.001  0.001  0.819
  1.000  0.000  0.000  0.000  0.000
  0.000  0.000  0.159  0.839  0.001
  0.000  0.821  0.000  0.000  0.179
  0.000  0.000  0.840  0.160  0.000
    occupations:
  0.918 -0.005 -0.000 -0.134  0.000
 -0.005  0.597 -0.000  0.002 -0.001
 -0.000 -0.000  0.975  0.000  0.002
 -0.134  0.002  0.000  0.693 -0.000
  0.000 -0.001  0.002 -0.000  0.970
   spin  2
    eigenvalues: 
  0.083  0.083  0.090  0.223  0.225
    eigenvectors:
  0.858  0.000  0.000  0.100  0.042
  0.000  0.000  0.000  0.304  0.696
  0.000  0.993  0.007  0.000  0.000
  0.142  0.000  0.000  0.596  0.262
  0.000  0.007  0.993  0.000  0.000
    occupations:
  0.103  0.000 -0.000  0.049  0.000
  0.000  0.224  0.000 -0.001  0.000
 -0.000  0.000  0.083 -0.000  0.001
  0.049 -0.001 -0.000  0.204 -0.000
  0.000  0.000  0.001 -0.000  0.090
atomic mag. moment =     3.450017
atom   10   Tr[ns(na)] (up, down, total) =   4.47448  0.60091  5.07539
   spin  1
    eigenvalues: 
  0.716  0.803  0.983  0.984  0.987
    eigenvectors:
  0.000  0.990  0.008  0.000  0.002
  0.000  0.000  0.145  0.008  0.847
  0.000  0.000  0.001  0.986  0.013
  0.000  0.010  0.846  0.006  0.139
  1.000  0.000  0.000  0.000  0.000
    occupations:
  0.805  0.002  0.001  0.018  0.001
  0.002  0.987  0.000  0.001  0.001
  0.001  0.000  0.984  0.000 -0.003
  0.018  0.001  0.000  0.982  0.000
  0.001  0.001 -0.003  0.000  0.716
   spin  2
    eigenvalues: 
  0.063  0.080  0.086  0.174  0.198
    eigenvectors:
  0.014  0.000  0.000  0.986  0.000
  0.001  0.000  0.999  0.000  0.000
  0.000  1.000  0.000  0.000  0.000
  0.986  0.000  0.001  0.014  0.000
  0.000  0.000  0.000  0.000  1.000
    occupations:
  0.173 -0.000 -0.000 -0.013  0.000
 -0.000  0.086  0.000  0.001 -0.000
 -0.000  0.000  0.080  0.000  0.001
 -0.013  0.001  0.000  0.065  0.000
  0.000 -0.000  0.001  0.000  0.198
atomic mag. moment =     3.873566
atom   16   Tr[ns(na)] (up, down, total) =   3.06403  0.65739  3.72142
   spin  1
    eigenvalues: 
  0.534  0.540  0.618  0.657  0.715
    eigenvectors:
  0.290  0.087  0.075  0.547  0.002
  0.401  0.510  0.000  0.027  0.061
  0.015  0.020  0.692  0.218  0.055
  0.270  0.345  0.171  0.208  0.005
  0.023  0.037  0.062  0.000  0.878
    occupations:
  0.608  0.018  0.021 -0.050  0.001
  0.018  0.552 -0.001 -0.010  0.041
  0.021 -0.001  0.629  0.005 -0.022
 -0.050 -0.010  0.005  0.577 -0.004
  0.001  0.041 -0.022 -0.004  0.698
   spin  2
    eigenvalues: 
  0.069  0.075  0.080  0.207  0.226
    eigenvectors:
  0.567  0.190  0.063  0.015  0.165
  0.000  0.000  0.001  0.934  0.065
  0.290  0.361  0.349  0.000  0.000
  0.129  0.038  0.012  0.050  0.770
  0.014  0.411  0.575  0.001  0.000
    occupations:
  0.099 -0.000 -0.003  0.059 -0.000
 -0.000  0.208 -0.000  0.005  0.004
 -0.003 -0.000  0.075  0.003  0.002
  0.059  0.005  0.003  0.197  0.000
 -0.000  0.004  0.002  0.000  0.078
atomic mag. moment =     2.406633
atom   17   Tr[ns(na)] (up, down, total) =   3.12799  0.67176  3.79975
   spin  1
    eigenvalues: 
  0.494  0.529  0.693  0.696  0.715
    eigenvectors:
  0.000  0.719  0.113  0.055  0.113
  0.000  0.263  0.117  0.280  0.340
  0.000  0.016  0.769  0.112  0.104
  0.000  0.002  0.002  0.553  0.443
  0.999  0.001  0.000  0.000  0.000
    occupations:
  0.578  0.076  0.015 -0.010 -0.000
  0.076  0.658 -0.015 -0.004  0.001
  0.015 -0.015  0.693  0.005  0.002
 -0.010 -0.004  0.005  0.704  0.001
 -0.000  0.001  0.002  0.001  0.494
   spin  2
    eigenvalues: 
  0.066  0.079  0.091  0.205  0.231
    eigenvectors:
  0.009  0.002  0.000  0.000  0.989
  0.008  0.858  0.131  0.000  0.003
  0.001  0.131  0.868  0.000  0.000
  0.982  0.010  0.000  0.000  0.008
  0.000  0.000  0.000  1.000  0.000
    occupations:
  0.229  0.008  0.002 -0.015  0.000
  0.008  0.081 -0.004  0.000 -0.000
  0.002 -0.004  0.089  0.000  0.000
 -0.015  0.000  0.000  0.068  0.000
  0.000 -0.000  0.000  0.000  0.205
atomic mag. moment =     2.456236
atom   22   Tr[ns(na)] (up, down, total) =   4.09717  0.79895  4.89612
   spin  1
    eigenvalues: 
  0.586  0.610  0.957  0.959  0.984
    eigenvectors:
  0.000  0.046  0.071  0.882  0.001
  0.972  0.028  0.000  0.000  0.000
  0.000  0.000  0.059  0.009  0.932
  0.028  0.926  0.003  0.043  0.000
  0.000  0.000  0.867  0.066  0.067
    occupations:
  0.943  0.005 -0.000 -0.073  0.001
  0.005  0.587 -0.000 -0.005 -0.001
 -0.000 -0.000  0.983  0.000 -0.007
 -0.073 -0.005  0.000  0.626 -0.000
  0.001 -0.001 -0.007 -0.000  0.959
   spin  2
    eigenvalues: 
  0.085  0.117  0.118  0.233  0.246
    eigenvectors:
  0.000  0.978  0.000  0.000  0.022
  0.000  0.000  0.000  0.996  0.004
  1.000  0.000  0.000  0.000  0.000
  0.000  0.022  0.000  0.004  0.974
  0.000  0.000  1.000  0.000  0.000
    occupations:
  0.120 -0.000 -0.000  0.019 -0.000
 -0.000  0.233 -0.000  0.001  0.000
 -0.000 -0.000  0.085 -0.000 -0.000
  0.019  0.001 -0.000  0.243 -0.000
 -0.000  0.000 -0.000 -0.000  0.118
atomic mag. moment =     3.298217
atom   23   Tr[ns(na)] (up, down, total) =   3.79978  0.81579  4.61556
   spin  1
    eigenvalues: 
  0.630  0.661  0.740  0.787  0.981
    eigenvectors:
  0.999  0.000  0.000  0.000  0.001
  0.000  0.000  0.004  0.995  0.001
  0.000  0.030  0.966  0.004  0.000
  0.001  0.000  0.000  0.001  0.998
  0.000  0.970  0.030  0.000  0.000
    occupations:
  0.631  0.001 -0.000  0.009 -0.000
  0.001  0.787 -0.003  0.006 -0.001
 -0.000 -0.003  0.738  0.000  0.013
  0.009  0.006  0.000  0.981  0.000
 -0.000 -0.001  0.013  0.000  0.664
   spin  2
    eigenvalues: 
  0.058  0.146  0.154  0.184  0.275
    eigenvectors:
  0.004  0.000  0.000  0.000  0.996
  0.000  0.000  1.000  0.000  0.000
  0.000  1.000  0.000  0.000  0.000
  0.996  0.000  0.000  0.000  0.004
  0.000  0.000  0.000  1.000  0.000
    occupations:
  0.274  0.001  0.000 -0.013  0.000
  0.001  0.154  0.000 -0.000  0.000
  0.000  0.000  0.146 -0.000 -0.000
 -0.013 -0.000 -0.000  0.059 -0.000
  0.000  0.000 -0.000 -0.000  0.184
atomic mag. moment =     2.983991
N of occupied +U levels =  34.5715702
 --- exit write_ns ---

     negative rho (up, down):  0.259E-02 0.120E-02

     total cpu time spent up to now is      605.9 secs

     total energy              =   -2001.46341604 Ry
     Harris-Foulkes estimate   =   -2021.30389169 Ry
     estimated scf accuracy    <      33.12110301 Ry

     total magnetization       =    14.00 Bohr mag/cell
     absolute magnetization    =    32.55 Bohr mag/cell

     iteration #  2     ecut=    40.00 Ry     beta=0.70
     Davidson diagonalization with overlap
     ethr =  1.00E-02,  avg # of iterations =  7.0

     negative rho (up, down):  0.132E-01 0.899E-02

     total cpu time spent up to now is     1074.5 secs

     total energy              =   -1836.94416759 Ry
     Harris-Foulkes estimate   =   -2312.68552115 Ry
     estimated scf accuracy    <    5704.88626710 Ry

     total magnetization       =    14.00 Bohr mag/cell
     absolute magnetization    =    14.48 Bohr mag/cell

     iteration #  3     ecut=    40.00 Ry     beta=0.70
     Davidson diagonalization with overlap
     ethr =  1.00E-02,  avg # of iterations =  6.0

     negative rho (up, down):  0.843E-02 0.737E-02

     total cpu time spent up to now is     1581.6 secs

     total energy              =   -2016.66133667 Ry
     Harris-Foulkes estimate   =   -2028.25164923 Ry
     estimated scf accuracy    <      59.39795213 Ry

     total magnetization       =    14.00 Bohr mag/cell
     absolute magnetization    =    25.02 Bohr mag/cell

     iteration #  4     ecut=    40.00 Ry     beta=0.70
     Davidson diagonalization with overlap
     ethr =  1.00E-02,  avg # of iterations =  2.6

     negative rho (up, down):  0.780E-02 0.314E-02

     total cpu time spent up to now is     1832.1 secs

     total energy              =   -2022.51314645 Ry
     Harris-Foulkes estimate   =   -2026.73620870 Ry
     estimated scf accuracy    <      27.24013426 Ry

     total magnetization       =    14.00 Bohr mag/cell
     absolute magnetization    =    20.99 Bohr mag/cell

     iteration #  5     ecut=    40.00 Ry     beta=0.70
     Davidson diagonalization with overlap
     ethr =  1.00E-02,  avg # of iterations =  1.0

     negative rho (up, down):  0.110E-01 0.287E-02

     total cpu time spent up to now is     2067.0 secs

     total energy              =   -2022.97137162 Ry
     Harris-Foulkes estimate   =   -2026.03957518 Ry
     estimated scf accuracy    <      15.97388016 Ry

     total magnetization       =    14.00 Bohr mag/cell
     absolute magnetization    =    23.83 Bohr mag/cell

     iteration #  6     ecut=    40.00 Ry     beta=0.70
     Davidson diagonalization with overlap
     ethr =  6.95E-03,  avg # of iterations =  1.0

     negative rho (up, down):  0.791E-02 0.260E-02

     total cpu time spent up to now is     2299.0 secs

     total energy              =   -2023.26302008 Ry
     Harris-Foulkes estimate   =   -2025.68669046 Ry
     estimated scf accuracy    <      17.89842430 Ry

     total magnetization       =    14.00 Bohr mag/cell
     absolute magnetization    =    21.25 Bohr mag/cell

     iteration #  7     ecut=    40.00 Ry     beta=0.70
     Davidson diagonalization with overlap
     ethr =  6.95E-03,  avg # of iterations =  1.0

     negative rho (up, down):  0.657E-02 0.245E-02

     total cpu time spent up to now is     2531.0 secs

     total energy              =   -2024.08148355 Ry
     Harris-Foulkes estimate   =   -2025.21322096 Ry
     estimated scf accuracy    <       6.81262407 Ry

     total magnetization       =    14.00 Bohr mag/cell
     absolute magnetization    =    22.19 Bohr mag/cell

     iteration #  8     ecut=    40.00 Ry     beta=0.70
     Davidson diagonalization with overlap
     ethr =  2.96E-03,  avg # of iterations =  1.9

     negative rho (up, down):  0.909E-02 0.219E-02

     total cpu time spent up to now is     2769.0 secs

     total energy              =   -2024.44231626 Ry
     Harris-Foulkes estimate   =   -2024.95282214 Ry
     estimated scf accuracy    <       3.96548940 Ry

     total magnetization       =    14.00 Bohr mag/cell
     absolute magnetization    =    20.12 Bohr mag/cell

     iteration #  9     ecut=    40.00 Ry     beta=0.70
     Davidson diagonalization with overlap
     ethr =  1.72E-03,  avg # of iterations =  2.6

     negative rho (up, down):  0.733E-02 0.162E-02

     total cpu time spent up to now is     3010.4 secs

     total energy              =   -2024.70205750 Ry
     Harris-Foulkes estimate   =   -2024.82450135 Ry
     estimated scf accuracy    <       1.23120645 Ry

     total magnetization       =    14.00 Bohr mag/cell
     absolute magnetization    =    20.86 Bohr mag/cell

     iteration # 10     ecut=    40.00 Ry     beta=0.70
     Davidson diagonalization with overlap
     ethr =  5.35E-04,  avg # of iterations =  4.9

     negative rho (up, down):  0.783E-02 0.148E-02

     total cpu time spent up to now is     3272.2 secs

     total energy              =   -2024.73322628 Ry
     Harris-Foulkes estimate   =   -2024.78340641 Ry
     estimated scf accuracy    <       0.71660331 Ry

     total magnetization       =    14.00 Bohr mag/cell
     absolute magnetization    =    21.23 Bohr mag/cell

     iteration # 11     ecut=    40.00 Ry     beta=0.70
     Davidson diagonalization with overlap
     ethr =  3.12E-04,  avg # of iterations =  3.1

     negative rho (up, down):  0.488E-02 0.137E-02

     total cpu time spent up to now is     3506.9 secs

     total energy              =   -2024.72528476 Ry
     Harris-Foulkes estimate   =   -2024.77494442 Ry
     estimated scf accuracy    <       0.39737603 Ry

     total magnetization       =    14.00 Bohr mag/cell
     absolute magnetization    =    21.03 Bohr mag/cell

     iteration # 12     ecut=    40.00 Ry     beta=0.70
     Davidson diagonalization with overlap
     ethr =  1.73E-04,  avg # of iterations =  5.3

     negative rho (up, down):  0.626E-02 0.144E-02

     total cpu time spent up to now is     3774.8 secs

     total energy              =   -2024.70007954 Ry
     Harris-Foulkes estimate   =   -2024.80866175 Ry
     estimated scf accuracy    <       1.11603884 Ry

     total magnetization       =    14.00 Bohr mag/cell
     absolute magnetization    =    20.44 Bohr mag/cell

     iteration # 13     ecut=    40.00 Ry     beta=0.70
     Davidson diagonalization with overlap
     ethr =  1.73E-04,  avg # of iterations =  1.2

     negative rho (up, down):  0.545E-02 0.142E-02

     total cpu time spent up to now is     4004.5 secs

     total energy              =   -2024.70436430 Ry
     Harris-Foulkes estimate   =   -2024.79572006 Ry
     estimated scf accuracy    <       0.46580780 Ry

     total magnetization       =    14.00 Bohr mag/cell
     absolute magnetization    =    20.70 Bohr mag/cell

     iteration # 14     ecut=    40.00 Ry     beta=0.70
     Davidson diagonalization with overlap
     ethr =  1.73E-04,  avg # of iterations =  1.1

     negative rho (up, down):  0.573E-02 0.147E-02

     total cpu time spent up to now is     4241.7 secs

     total energy              =   -2024.69903494 Ry
     Harris-Foulkes estimate   =   -2024.83098089 Ry
     estimated scf accuracy    <       0.96667888 Ry

     total magnetization       =    14.00 Bohr mag/cell
     absolute magnetization    =    19.92 Bohr mag/cell

     iteration # 15     ecut=    40.00 Ry     beta=0.70
     Davidson diagonalization with overlap
     ethr =  1.73E-04,  avg # of iterations =  1.4

     negative rho (up, down):  0.522E-02 0.182E-02

     total cpu time spent up to now is     4469.0 secs

     total energy              =   -2024.75553040 Ry
     Harris-Foulkes estimate   =   -2024.77080251 Ry
     estimated scf accuracy    <       0.06476697 Ry

     total magnetization       =    14.00 Bohr mag/cell
     absolute magnetization    =    20.40 Bohr mag/cell

     iteration # 16     ecut=    40.00 Ry     beta=0.70
     Davidson diagonalization with overlap
     ethr =  2.82E-05,  avg # of iterations =  5.9

     negative rho (up, down):  0.555E-02 0.154E-02

     total cpu time spent up to now is     4744.2 secs

     total energy              =   -2024.72833495 Ry
     Harris-Foulkes estimate   =   -2024.79575785 Ry
     estimated scf accuracy    <       0.47239632 Ry

     total magnetization       =    14.00 Bohr mag/cell
     absolute magnetization    =    20.47 Bohr mag/cell

     iteration # 17     ecut=    40.00 Ry     beta=0.70
     Davidson diagonalization with overlap
     ethr =  2.82E-05,  avg # of iterations =  5.0

     negative rho (up, down):  0.640E-02 0.162E-02

     total cpu time spent up to now is     5017.9 secs

     total energy              =   -2024.73925845 Ry
     Harris-Foulkes estimate   =   -2024.79596715 Ry
     estimated scf accuracy    <       0.55910026 Ry

     total magnetization       =    14.00 Bohr mag/cell
     absolute magnetization    =    20.21 Bohr mag/cell

     iteration # 18     ecut=    40.00 Ry     beta=0.70
     Davidson diagonalization with overlap
     ethr =  2.82E-05,  avg # of iterations =  4.1

     negative rho (up, down):  0.487E-02 0.157E-02

     total cpu time spent up to now is     5277.6 secs

     total energy              =   -2024.75772303 Ry
     Harris-Foulkes estimate   =   -2024.77719448 Ry
     estimated scf accuracy    <       0.13318204 Ry

     total magnetization       =    14.00 Bohr mag/cell
     absolute magnetization    =    20.22 Bohr mag/cell

     iteration # 19     ecut=    40.00 Ry     beta=0.70
     Davidson diagonalization with overlap
     ethr =  2.82E-05,  avg # of iterations =  1.2

     negative rho (up, down):  0.468E-02 0.159E-02

     total cpu time spent up to now is     5511.7 secs

     total energy              =   -2024.75978872 Ry
     Harris-Foulkes estimate   =   -2024.77733682 Ry
     estimated scf accuracy    <       0.09033705 Ry

     total magnetization       =    14.00 Bohr mag/cell
     absolute magnetization    =    20.41 Bohr mag/cell

     iteration # 20     ecut=    40.00 Ry     beta=0.70
     Davidson diagonalization with overlap
     ethr =  2.82E-05,  avg # of iterations =  1.1

     negative rho (up, down):  0.477E-02 0.165E-02

     total cpu time spent up to now is     5745.4 secs

     total energy              =   -2024.76776732 Ry
     Harris-Foulkes estimate   =   -2024.77108595 Ry
     estimated scf accuracy    <       0.02274871 Ry

     total magnetization       =    14.00 Bohr mag/cell
     absolute magnetization    =    20.22 Bohr mag/cell

     iteration # 21     ecut=    40.00 Ry     beta=0.70
     Davidson diagonalization with overlap
     ethr =  9.89E-06,  avg # of iterations =  1.1

     negative rho (up, down):  0.488E-02 0.177E-02

     total cpu time spent up to now is     5978.7 secs

     total energy              =   -2024.76969985 Ry
     Harris-Foulkes estimate   =   -2024.77020662 Ry
     estimated scf accuracy    <       0.00746169 Ry

     total magnetization       =    14.00 Bohr mag/cell
     absolute magnetization    =    20.16 Bohr mag/cell

     iteration # 22     ecut=    40.00 Ry     beta=0.70
     Davidson diagonalization with overlap
     ethr =  3.24E-06,  avg # of iterations =  3.3

     negative rho (up, down):  0.503E-02 0.174E-02

     total cpu time spent up to now is     6220.0 secs

     total energy              =   -2024.76923431 Ry
     Harris-Foulkes estimate   =   -2024.77119586 Ry
     estimated scf accuracy    <       0.01746741 Ry

     total magnetization       =    14.00 Bohr mag/cell
     absolute magnetization    =    20.08 Bohr mag/cell

     iteration # 23     ecut=    40.00 Ry     beta=0.70
     Davidson diagonalization with overlap
     ethr =  3.24E-06,  avg # of iterations =  1.1

     negative rho (up, down):  0.489E-02 0.177E-02

     total cpu time spent up to now is     6451.4 secs

     total energy              =   -2024.77000059 Ry
     Harris-Foulkes estimate   =   -2024.77059696 Ry
     estimated scf accuracy    <       0.00537328 Ry

     total magnetization       =    14.00 Bohr mag/cell
     absolute magnetization    =    20.12 Bohr mag/cell

     iteration # 24     ecut=    40.00 Ry     beta=0.70
     Davidson diagonalization with overlap
     ethr =  2.34E-06,  avg # of iterations =  1.9

     negative rho (up, down):  0.503E-02 0.174E-02

     total cpu time spent up to now is     6697.1 secs

     total energy              =   -2024.76935931 Ry
     Harris-Foulkes estimate   =   -2024.77134634 Ry
     estimated scf accuracy    <       0.01247271 Ry

     total magnetization       =    14.00 Bohr mag/cell
     absolute magnetization    =    20.07 Bohr mag/cell

     iteration # 25     ecut=    40.00 Ry     beta=0.70
     Davidson diagonalization with overlap
     ethr =  2.34E-06,  avg # of iterations =  1.0

     negative rho (up, down):  0.489E-02 0.178E-02

     total cpu time spent up to now is     6914.2 secs

     total energy              =   -2024.77041321 Ry
     Harris-Foulkes estimate   =   -2024.77064949 Ry
     estimated scf accuracy    <       0.00276224 Ry

     total magnetization       =    14.00 Bohr mag/cell
     absolute magnetization    =    20.06 Bohr mag/cell

     iteration # 26     ecut=    40.00 Ry     beta=0.70
     Davidson diagonalization with overlap
     ethr =  1.20E-06,  avg # of iterations =  1.0

     negative rho (up, down):  0.493E-02 0.179E-02

     total cpu time spent up to now is     7133.4 secs

     total energy              =   -2024.77065484 Ry
     Harris-Foulkes estimate   =   -2024.77087867 Ry
     estimated scf accuracy    <       0.00169242 Ry

     total magnetization       =    14.00 Bohr mag/cell
     absolute magnetization    =    19.97 Bohr mag/cell

     iteration # 27     ecut=    40.00 Ry     beta=0.70
     Davidson diagonalization with overlap
     ethr =  7.36E-07,  avg # of iterations =  1.0

     negative rho (up, down):  0.494E-02 0.179E-02

     total cpu time spent up to now is     7364.4 secs

     total energy              =   -2024.77073158 Ry
     Harris-Foulkes estimate   =   -2024.77090804 Ry
     estimated scf accuracy    <       0.00143485 Ry

     total magnetization       =    14.00 Bohr mag/cell
     absolute magnetization    =    19.95 Bohr mag/cell

     iteration # 28     ecut=    40.00 Ry     beta=0.70
     Davidson diagonalization with overlap
     ethr =  6.24E-07,  avg # of iterations =  1.0

     negative rho (up, down):  0.495E-02 0.179E-02

     total cpu time spent up to now is     7584.0 secs

     total energy              =   -2024.77077577 Ry
     Harris-Foulkes estimate   =   -2024.77094486 Ry
     estimated scf accuracy    <       0.00177190 Ry

     total magnetization       =    14.00 Bohr mag/cell
     absolute magnetization    =    19.93 Bohr mag/cell

     iteration # 29     ecut=    40.00 Ry     beta=0.70
     Davidson diagonalization with overlap
     ethr =  6.24E-07,  avg # of iterations =  1.0

     negative rho (up, down):  0.495E-02 0.179E-02

     total cpu time spent up to now is     7819.9 secs

     total energy              =   -2024.77079095 Ry
     Harris-Foulkes estimate   =   -2024.77096202 Ry
     estimated scf accuracy    <       0.00065894 Ry

     total magnetization       =    14.00 Bohr mag/cell
     absolute magnetization    =    19.89 Bohr mag/cell

     iteration # 30     ecut=    40.00 Ry     beta=0.70
     Davidson diagonalization with overlap
     ethr =  2.86E-07,  avg # of iterations =  1.6

     negative rho (up, down):  0.494E-02 0.178E-02

     total cpu time spent up to now is     8056.1 secs

     total energy              =   -2024.77054314 Ry
     Harris-Foulkes estimate   =   -2024.77124631 Ry
     estimated scf accuracy    <       0.00361374 Ry

     total magnetization       =    14.00 Bohr mag/cell
     absolute magnetization    =    19.85 Bohr mag/cell

     iteration # 31     ecut=    40.00 Ry     beta=0.70
     Davidson diagonalization with overlap
     ethr =  2.86E-07,  avg # of iterations =  2.0

     negative rho (up, down):  0.494E-02 0.178E-02

     total cpu time spent up to now is     8298.1 secs

     total energy              =   -2024.77068897 Ry
     Harris-Foulkes estimate   =   -2024.77113879 Ry
     estimated scf accuracy    <       0.00281596 Ry

     total magnetization       =    14.00 Bohr mag/cell
     absolute magnetization    =    19.89 Bohr mag/cell

     iteration # 32     ecut=    40.00 Ry     beta=0.70
     Davidson diagonalization with overlap
     ethr =  2.86E-07,  avg # of iterations =  1.4

     negative rho (up, down):  0.492E-02 0.178E-02

     total cpu time spent up to now is     8541.4 secs

     total energy              =   -2024.77088560 Ry
     Harris-Foulkes estimate   =   -2024.77096152 Ry
     estimated scf accuracy    <       0.00095468 Ry

     total magnetization       =    14.00 Bohr mag/cell
     absolute magnetization    =    19.87 Bohr mag/cell

     iteration # 33     ecut=    40.00 Ry     beta=0.70
     Davidson diagonalization with overlap
     ethr =  2.86E-07,  avg # of iterations =  1.0

     negative rho (up, down):  0.493E-02 0.178E-02

     total cpu time spent up to now is     8772.6 secs

     total energy              =   -2024.77092810 Ry
     Harris-Foulkes estimate   =   -2024.77095912 Ry
     estimated scf accuracy    <       0.00047252 Ry

     total magnetization       =    14.00 Bohr mag/cell
     absolute magnetization    =    19.86 Bohr mag/cell

     iteration # 34     ecut=    40.00 Ry     beta=0.70
     Davidson diagonalization with overlap
     ethr =  2.05E-07,  avg # of iterations =  1.0

     negative rho (up, down):  0.493E-02 0.177E-02

     total cpu time spent up to now is     9005.5 secs

     total energy              =   -2024.77093359 Ry
     Harris-Foulkes estimate   =   -2024.77096166 Ry
     estimated scf accuracy    <       0.00017614 Ry

     total magnetization       =    14.00 Bohr mag/cell
     absolute magnetization    =    19.85 Bohr mag/cell

     iteration # 35     ecut=    40.00 Ry     beta=0.70
     Davidson diagonalization with overlap
     ethr =  7.66E-08,  avg # of iterations =  1.0

     negative rho (up, down):  0.493E-02 0.177E-02

     total cpu time spent up to now is     9237.3 secs

     total energy              =   -2024.77093796 Ry
     Harris-Foulkes estimate   =   -2024.77096650 Ry
     estimated scf accuracy    <       0.00024965 Ry

     total magnetization       =    14.00 Bohr mag/cell
     absolute magnetization    =    19.85 Bohr mag/cell

     iteration # 36     ecut=    40.00 Ry     beta=0.70
     Davidson diagonalization with overlap
     ethr =  7.66E-08,  avg # of iterations =  1.0

     negative rho (up, down):  0.493E-02 0.177E-02

     total cpu time spent up to now is     9461.1 secs

     total energy              =   -2024.77094693 Ry
     Harris-Foulkes estimate   =   -2024.77096019 Ry
     estimated scf accuracy    <       0.00009679 Ry

     total magnetization       =    14.00 Bohr mag/cell
     absolute magnetization    =    19.84 Bohr mag/cell

     iteration # 37     ecut=    40.00 Ry     beta=0.70
     Davidson diagonalization with overlap
     ethr =  4.21E-08,  avg # of iterations =  1.0

     negative rho (up, down):  0.493E-02 0.177E-02

     total cpu time spent up to now is     9682.7 secs

     total energy              =   -2024.77095487 Ry
     Harris-Foulkes estimate   =   -2024.77095906 Ry
     estimated scf accuracy    <       0.00007001 Ry

     total magnetization       =    14.00 Bohr mag/cell
     absolute magnetization    =    19.84 Bohr mag/cell

     iteration # 38     ecut=    40.00 Ry     beta=0.70
     Davidson diagonalization with overlap
     ethr =  3.04E-08,  avg # of iterations =  1.0

     negative rho (up, down):  0.493E-02 0.177E-02

     total cpu time spent up to now is     9910.7 secs

     total energy              =   -2024.77096158 Ry
     Harris-Foulkes estimate   =   -2024.77096292 Ry
     estimated scf accuracy    <       0.00004481 Ry

     total magnetization       =    14.00 Bohr mag/cell
     absolute magnetization    =    19.83 Bohr mag/cell

     iteration # 39     ecut=    40.00 Ry     beta=0.70
     Davidson diagonalization with overlap
     ethr =  1.95E-08,  avg # of iterations =  1.0

     negative rho (up, down):  0.493E-02 0.177E-02

     total cpu time spent up to now is    10143.4 secs

     total energy              =   -2024.77096596 Ry
     Harris-Foulkes estimate   =   -2024.77096724 Ry
     estimated scf accuracy    <       0.00003461 Ry

     total magnetization       =    14.00 Bohr mag/cell
     absolute magnetization    =    19.82 Bohr mag/cell

     iteration # 40     ecut=    40.00 Ry     beta=0.70
     Davidson diagonalization with overlap
     ethr =  1.50E-08,  avg # of iterations =  1.0

     negative rho (up, down):  0.493E-02 0.177E-02

     total cpu time spent up to now is    10360.7 secs

     total energy              =   -2024.77097071 Ry
     Harris-Foulkes estimate   =   -2024.77097526 Ry
     estimated scf accuracy    <       0.00002703 Ry

     total magnetization       =    14.00 Bohr mag/cell
     absolute magnetization    =    19.79 Bohr mag/cell

     iteration # 41     ecut=    40.00 Ry     beta=0.70
     Davidson diagonalization with overlap
     ethr =  1.18E-08,  avg # of iterations =  1.0

     negative rho (up, down):  0.493E-02 0.177E-02

     total cpu time spent up to now is    10583.1 secs

     total energy              =   -2024.77096648 Ry
     Harris-Foulkes estimate   =   -2024.77097614 Ry
     estimated scf accuracy    <       0.00003247 Ry

     total magnetization       =    14.00 Bohr mag/cell
     absolute magnetization    =    19.79 Bohr mag/cell

     iteration # 42     ecut=    40.00 Ry     beta=0.70
     Davidson diagonalization with overlap
     ethr =  1.18E-08,  avg # of iterations =  2.0

     negative rho (up, down):  0.493E-02 0.177E-02

     total cpu time spent up to now is    10829.4 secs

     total energy              =   -2024.77093774 Ry
     Harris-Foulkes estimate   =   -2024.77100088 Ry
     estimated scf accuracy    <       0.00060692 Ry

     total magnetization       =    14.00 Bohr mag/cell
     absolute magnetization    =    19.80 Bohr mag/cell

     iteration # 43     ecut=    40.00 Ry     beta=0.70
     Davidson diagonalization with overlap
     ethr =  1.18E-08,  avg # of iterations =  1.5

     negative rho (up, down):  0.493E-02 0.177E-02

     total cpu time spent up to now is    11068.5 secs

     total energy              =   -2024.77094380 Ry
     Harris-Foulkes estimate   =   -2024.77100407 Ry
     estimated scf accuracy    <       0.00071027 Ry

     total magnetization       =    14.00 Bohr mag/cell
     absolute magnetization    =    19.79 Bohr mag/cell

     iteration # 44     ecut=    40.00 Ry     beta=0.70
     Davidson diagonalization with overlap
     ethr =  1.18E-08,  avg # of iterations =  1.4

     negative rho (up, down):  0.493E-02 0.177E-02

     total cpu time spent up to now is    11305.0 secs

     total energy              =   -2024.77097200 Ry
     Harris-Foulkes estimate   =   -2024.77097629 Ry
     estimated scf accuracy    <       0.00002837 Ry

     total magnetization       =    14.00 Bohr mag/cell
     absolute magnetization    =    19.79 Bohr mag/cell

     iteration # 45     ecut=    40.00 Ry     beta=0.70
     Davidson diagonalization with overlap
     ethr =  1.18E-08,  avg # of iterations =  1.0

     negative rho (up, down):  0.493E-02 0.177E-02

     total cpu time spent up to now is    11535.5 secs

     total energy              =   -2024.77097241 Ry
     Harris-Foulkes estimate   =   -2024.77097655 Ry
     estimated scf accuracy    <       0.00002458 Ry

     total magnetization       =    14.00 Bohr mag/cell
     absolute magnetization    =    19.78 Bohr mag/cell

     iteration # 46     ecut=    40.00 Ry     beta=0.70
     Davidson diagonalization with overlap
     ethr =  1.07E-08,  avg # of iterations =  1.0

     negative rho (up, down):  0.493E-02 0.177E-02

     total cpu time spent up to now is    11766.5 secs

     total energy              =   -2024.77097339 Ry
     Harris-Foulkes estimate   =   -2024.77097562 Ry
     estimated scf accuracy    <       0.00001297 Ry

     total magnetization       =    14.00 Bohr mag/cell
     absolute magnetization    =    19.78 Bohr mag/cell

     iteration # 47     ecut=    40.00 Ry     beta=0.70
     Davidson diagonalization with overlap
     ethr =  5.64E-09,  avg # of iterations =  1.0

     negative rho (up, down):  0.493E-02 0.177E-02

     total cpu time spent up to now is    11997.1 secs

     total energy              =   -2024.77097369 Ry
     Harris-Foulkes estimate   =   -2024.77097533 Ry
     estimated scf accuracy    <       0.00001033 Ry

     total magnetization       =    14.00 Bohr mag/cell
     absolute magnetization    =    19.78 Bohr mag/cell

     iteration # 48     ecut=    40.00 Ry     beta=0.70
     Davidson diagonalization with overlap
     ethr =  4.49E-09,  avg # of iterations =  1.0

     negative rho (up, down):  0.493E-02 0.177E-02

     total cpu time spent up to now is    12227.5 secs

     total energy              =   -2024.77097407 Ry
     Harris-Foulkes estimate   =   -2024.77097493 Ry
     estimated scf accuracy    <       0.00000721 Ry

     total magnetization       =    14.00 Bohr mag/cell
     absolute magnetization    =    19.78 Bohr mag/cell

     iteration # 49     ecut=    40.00 Ry     beta=0.70
     Davidson diagonalization with overlap
     ethr =  3.13E-09,  avg # of iterations =  1.0

     negative rho (up, down):  0.493E-02 0.177E-02

     total cpu time spent up to now is    12458.5 secs

     End of self-consistent calculation
 --- enter write_ns ---
 LDA+U parameters:
U( 2)     =  2.00000000
alpha( 2) =  0.00000000
atom    3   Tr[ns(na)] (up, down, total) =   3.50139  1.17981  4.68120
   spin  1
    eigenvalues: 
  0.473  0.517  0.654  0.881  0.978
    eigenvectors:
  0.034  0.175  0.001  0.000  0.790
  0.898  0.100  0.000  0.000  0.002
  0.000  0.000  0.972  0.024  0.003
  0.068  0.725  0.002  0.000  0.205
  0.000  0.000  0.024  0.976  0.000
    occupations:
  0.879 -0.028  0.016 -0.188 -0.003
 -0.028  0.478 -0.003 -0.001 -0.005
  0.016 -0.003  0.660 -0.006  0.035
 -0.188 -0.001 -0.006  0.609 -0.001
 -0.003 -0.005  0.035 -0.001  0.875
   spin  2
    eigenvalues: 
  0.119  0.138  0.168  0.363  0.392
    eigenvectors:
  0.769  0.004  0.017  0.070  0.140
  0.002  0.002  0.000  0.743  0.252
  0.023  0.105  0.872  0.000  0.000
  0.206  0.001  0.002  0.184  0.607
  0.000  0.888  0.109  0.002  0.001
    occupations:
  0.175  0.005 -0.004  0.107  0.001
  0.005  0.369  0.001 -0.016  0.011
 -0.004  0.001  0.164  0.007 -0.009
  0.107 -0.016  0.007  0.330 -0.001
  0.001  0.011 -0.009 -0.001  0.142
atomic mag. moment =     2.321577
atom    4   Tr[ns(na)] (up, down, total) =   3.45790  1.21024  4.66813
   spin  1
    eigenvalues: 
  0.484  0.527  0.589  0.874  0.984
    eigenvectors:
  0.004  0.990  0.000  0.001  0.004
  0.000  0.001  0.026  0.973  0.000
  0.000  0.000  0.974  0.026  0.000
  0.000  0.005  0.000  0.000  0.995
  0.996  0.004  0.000  0.000  0.000
    occupations:
  0.529 -0.012 -0.001  0.031  0.003
 -0.012  0.866  0.045  0.002  0.000
 -0.001  0.045  0.597  0.002 -0.000
  0.031  0.002  0.002  0.982 -0.000
  0.003  0.000 -0.000 -0.000  0.484
   spin  2
    eigenvalues: 
  0.111  0.143  0.185  0.376  0.395
    eigenvectors:
  0.003  0.003  0.000  0.005  0.990
  0.002  0.937  0.057  0.000  0.003
  0.000  0.056  0.943  0.000  0.000
  0.995  0.003  0.000  0.000  0.002
  0.000  0.000  0.000  0.995  0.005
    occupations:
  0.394  0.015  0.003 -0.014  0.001
  0.015  0.146 -0.010  0.001 -0.000
  0.003 -0.010  0.183  0.000  0.000
 -0.014  0.001  0.000  0.112  0.000
  0.001 -0.000  0.000  0.000  0.376
atomic mag. moment =     2.247656
atom    9   Tr[ns(na)] (up, down, total) =   3.46102  1.25038  4.71140
   spin  1
    eigenvalues: 
  0.500  0.504  0.633  0.845  0.979
    eigenvectors:
  0.031  0.132  0.000  0.000  0.837
  0.810  0.190  0.000  0.000  0.000
  0.000  0.000  0.996  0.003  0.000
  0.159  0.679  0.000  0.000  0.163
  0.000  0.000  0.003  0.996  0.000
    occupations:
  0.902  0.001 -0.001 -0.176 -0.000
  0.001  0.501  0.001  0.001 -0.001
 -0.001  0.001  0.634 -0.001 -0.012
 -0.176  0.001 -0.001  0.581  0.002
 -0.000 -0.001 -0.012  0.002  0.844
   spin  2
    eigenvalues: 
  0.132  0.162  0.183  0.384  0.389
    eigenvectors:
  0.826  0.000  0.000  0.163  0.011
  0.000  0.000  0.000  0.070  0.930
  0.000  0.030  0.970  0.000  0.000
  0.174  0.000  0.000  0.767  0.058
  0.000  0.970  0.030  0.000  0.000
    occupations:
  0.176  0.001 -0.000  0.096 -0.000
  0.001  0.389 -0.000 -0.002  0.000
 -0.000 -0.000  0.182  0.000  0.004
  0.096 -0.002  0.000  0.341 -0.000
 -0.000  0.000  0.004 -0.000  0.162
atomic mag. moment =     2.210641
atom   10   Tr[ns(na)] (up, down, total) =   3.57231  1.07200  4.64431
   spin  1
    eigenvalues: 
  0.464  0.493  0.730  0.907  0.979
    eigenvectors:
  0.000  0.993  0.000  0.000  0.007
  0.000  0.000  0.000  0.965  0.034
  0.001  0.000  0.999  0.000  0.000
  0.000  0.007  0.000  0.035  0.958
  0.999  0.000  0.001  0.000  0.000
    occupations:
  0.496 -0.010  0.000  0.040 -0.000
 -0.010  0.909 -0.003 -0.012  0.001
  0.000 -0.003  0.729  0.000  0.007
  0.040 -0.012  0.000  0.973  0.000
 -0.000  0.001  0.007  0.000  0.464
   spin  2
    eigenvalues: 
  0.097  0.154  0.167  0.300  0.353
    eigenvectors:
  0.007  0.000  0.000  0.993  0.000
  0.001  0.999  0.000  0.000  0.000
  0.000  0.000  1.000  0.000  0.000
  0.992  0.001  0.000  0.007  0.000
  0.000  0.000  0.000  0.000  1.000
    occupations:
  0.299  0.000 -0.000 -0.017 -0.000
  0.000  0.154  0.000  0.002 -0.000
 -0.000  0.000  0.167  0.000  0.002
 -0.017  0.002  0.000  0.099  0.000
 -0.000 -0.000  0.002  0.000  0.353
atomic mag. moment =     2.500313
atom   16   Tr[ns(na)] (up, down, total) =   3.49842  1.18376  4.68218
   spin  1
    eigenvalues: 
  0.471  0.519  0.652  0.879  0.977
    eigenvectors:
  0.036  0.174  0.001  0.000  0.788
  0.892  0.105  0.000  0.000  0.003
  0.000  0.000  0.952  0.045  0.002
  0.072  0.720  0.002  0.000  0.207
  0.000  0.000  0.045  0.955  0.000
    occupations:
  0.878  0.029  0.015 -0.188  0.004
  0.029  0.477  0.004  0.002 -0.004
  0.015  0.004  0.663 -0.005 -0.047
 -0.188  0.002 -0.005  0.610 -0.001
  0.004 -0.004 -0.047 -0.001  0.869
   spin  2
    eigenvalues: 
  0.120  0.138  0.169  0.363  0.393
    eigenvectors:
  0.771  0.004  0.015  0.072  0.137
  0.002  0.002  0.000  0.737  0.258
  0.021  0.129  0.850  0.000  0.000
  0.205  0.001  0.002  0.189  0.604
  0.000  0.865  0.133  0.002  0.001
    occupations:
  0.176 -0.005 -0.003  0.107 -0.001
 -0.005  0.370 -0.001  0.017  0.011
 -0.003 -0.001  0.164  0.007  0.010
  0.107  0.017  0.007  0.331  0.001
 -0.001  0.011  0.010  0.001  0.143
atomic mag. moment =     2.314651
atom   17   Tr[ns(na)] (up, down, total) =   3.46021  1.21033  4.67054
   spin  1
    eigenvalues: 
  0.482  0.530  0.605  0.859  0.984
    eigenvectors:
  0.002  0.992  0.000  0.001  0.004
  0.000  0.001  0.026  0.973  0.000
  0.000  0.001  0.973  0.026  0.000
  0.000  0.004  0.000  0.000  0.996
  0.997  0.003  0.000  0.000  0.000
    occupations:
  0.532 -0.012 -0.003  0.029  0.002
 -0.012  0.852  0.040  0.001 -0.000
 -0.003  0.040  0.611  0.000  0.002
  0.029  0.001  0.000  0.982 -0.000
  0.002 -0.000  0.002 -0.000  0.483
   spin  2
    eigenvalues: 
  0.111  0.143  0.186  0.372  0.399
    eigenvectors:
  0.003  0.004  0.000  0.002  0.991
  0.002  0.935  0.058  0.000  0.004
  0.000  0.058  0.942  0.000  0.000
  0.995  0.003  0.000  0.000  0.002
  0.000  0.000  0.000  0.998  0.002
    occupations:
  0.397  0.017  0.004 -0.014  0.001
  0.017  0.146 -0.010  0.001 -0.000
  0.004 -0.010  0.183  0.000 -0.000
 -0.014  0.001  0.000  0.112  0.000
  0.001 -0.000 -0.000  0.000  0.372
atomic mag. moment =     2.249887
atom   22   Tr[ns(na)] (up, down, total) =   3.06740  1.76162  4.82901
   spin  1
    eigenvalues: 
  0.500  0.542  0.556  0.614  0.854
    eigenvectors:
  0.984  0.004  0.011  0.000  0.000
  0.003  0.992  0.005  0.000  0.000
  0.000  0.000  0.000  0.080  0.920
  0.012  0.004  0.984  0.000  0.000
  0.000  0.000  0.000  0.919  0.080
    occupations:
  0.501 -0.002  0.000 -0.006  0.002
 -0.002  0.542  0.000 -0.001 -0.000
  0.000  0.000  0.835  0.000  0.065
 -0.006 -0.001  0.000  0.555 -0.001
  0.002 -0.000  0.065 -0.001  0.634
   spin  2
    eigenvalues: 
  0.222  0.297  0.317  0.462  0.463
    eigenvectors:
  0.000  0.000  0.995  0.004  0.001
  0.000  0.000  0.000  0.133  0.867
  0.986  0.014  0.000  0.000  0.000
  0.000  0.000  0.005  0.863  0.132
  0.014  0.986  0.000  0.000  0.000
    occupations:
  0.318 -0.002 -0.000  0.010 -0.000
 -0.002  0.463 -0.000 -0.000  0.000
 -0.000 -0.000  0.223  0.000 -0.009
  0.010 -0.000  0.000  0.461  0.000
 -0.000  0.000 -0.009  0.000  0.296
atomic mag. moment =     1.305781
atom   23   Tr[ns(na)] (up, down, total) =   3.12602  1.69315  4.81916
   spin  1
    eigenvalues: 
  0.486  0.537  0.538  0.581  0.983
    eigenvectors:
  0.000  0.001  0.000  0.997  0.001
  0.000  0.998  0.000  0.001  0.000
  0.000  0.000  0.999  0.000  0.000
  0.000  0.000  0.000  0.001  0.999
  1.000  0.000  0.000  0.000  0.000
    occupations:
  0.582  0.002 -0.000  0.015 -0.000
  0.002  0.537  0.000  0.002 -0.000
 -0.000  0.000  0.538  0.000 -0.001
  0.015  0.002  0.000  0.983 -0.000
 -0.000 -0.000 -0.001 -0.000  0.486
   spin  2
    eigenvalues: 
  0.111  0.347  0.351  0.395  0.489
    eigenvectors:
  0.002  0.000  0.000  0.000  0.998
  0.000  0.000  1.000  0.000  0.000
  0.000  0.998  0.000  0.001  0.000
  0.998  0.000  0.000  0.000  0.002
  0.000  0.001  0.000  0.999  0.000
    occupations:
  0.488  0.000  0.000 -0.016 -0.000
  0.000  0.351  0.000 -0.001  0.000
  0.000  0.000  0.347 -0.000 -0.002
 -0.016 -0.001 -0.000  0.112 -0.000
 -0.000  0.000 -0.002 -0.000  0.395
atomic mag. moment =     1.432871
N of occupied +U levels =  37.7059374
 --- exit write_ns ---

 ------ SPIN UP ------------


          k = 0.0000 0.0000 0.0000 ( 27003 PWs)   bands (ev):

   -75.7950 -75.6986 -75.4012 -75.2269 -75.2119 -75.2006 -75.1784 -75.1628
   -47.3397 -47.1172 -47.0517 -46.9944 -46.9674 -46.9556 -46.8859 -46.6702
   -46.6283 -46.6133 -46.5988 -46.5680 -46.5666 -46.5533 -46.5339 -46.5221
   -46.5091 -46.5034 -46.4736 -46.4629 -46.4579 -46.4464 -46.3863 -46.3277
   -21.4087 -20.9690 -20.5878 -20.5634 -20.4464 -20.0437 -20.0075 -19.8694
   -19.8403 -19.7167 -19.6691 -19.6340 -19.5677 -19.5498 -19.3799 -19.3577
   -19.2065 -19.0931 -19.0145  -9.4923  -9.2639  -9.1309  -8.9396  -8.7766
    -8.1736  -8.1392  -8.1213  -8.0491  -8.0310  -7.9301  -7.8696  -7.8434
    -7.4609  -7.2622  -7.2301  -7.1883  -7.1532  -7.1166  -7.0614  -6.8624
    -6.8479  -6.7463  -6.6511  -6.4923  -6.1338  -6.1320  -6.0370  -5.8929
    -5.7519  -5.6906  -5.5601  -5.4857  -5.4605  -5.3664  -5.1672  -5.0674
    -5.0545  -4.9945  -4.8986  -4.8319  -4.6755  -4.5397  -4.4819  -4.3596
    -4.3306  -4.2159  -4.1912  -4.0894  -4.0355  -3.9832  -3.9124  -3.8416
    -3.8178  -3.6693  -3.5000  -3.4259  -3.3855  -3.3292  -3.2611  -3.1040
    -3.0523  -2.9904  -2.9354  -2.8311  -2.6599  -2.4959  -2.3278  -2.3211
    -1.9571  -1.8061  -1.7783  -1.6339  -1.5568  -1.3898  -1.3416  -1.1387
    -1.0452  -0.9595  -0.7186  -0.6501  -0.5198   0.3627   0.4878   0.5704
     0.7194   1.1425   1.3153   1.3216   1.4364   1.6278   1.6424   1.7982
     1.8210   2.0650   2.1072   2.4468   3.1347   3.6830   3.8501   4.3714
     4.8525   5.6273   6.1240   6.2557   6.7686   7.0983   7.1160   7.1592
     7.3828   7.5092   7.6424   7.7231   7.8623   8.0343   8.1231   8.1536
     8.2527   8.2943   8.3911   8.4211   8.5326   8.7756   8.7993   8.8934
     8.9920   9.2197   9.3419   9.3865   9.4035   9.4710   9.5744   9.6949
     9.8518  10.0098  10.0324  10.1062  10.1963  10.2711  10.4690  10.5778
    10.6687  10.8238  10.9391  11.0902  11.1674  11.2900  11.3894  11.4075
    11.4435  11.4666  11.7432  11.7573  11.8094  11.8594  11.9172  12.0869
    12.1558  12.1752  12.1920  12.2724  12.3800  12.4159  12.4666  12.5090
    12.5295  12.5980  12.6431  12.6566  12.7775  12.8974  12.9633  13.0462
    13.0666  13.1016  13.1377  13.2332  13.3008  13.3689  13.4481  13.5962
    13.6363  13.6976  13.7503  13.8420  13.9281  14.0711  14.1509  14.1798
    14.3252  14.4162  14.4901  14.5221  14.5837  14.6067  14.7418  14.8471
    14.8944  15.0418  15.1226  15.1478  15.2251  15.2846  15.3282  15.5019
    15.6059  15.6961  15.8047  15.8541  16.1652  16.1909  16.2389  16.4102
    16.4525  16.5764  16.6649  16.7852  16.8397  16.9872  17.0246  17.0775
    17.1280  17.3173  17.4367  17.5525  17.6082  17.7608  17.7974  17.9143
    18.0121  18.0225  18.0642  18.2024  18.3137  18.3920  18.5824  18.6402
    18.7122  18.8137  18.8440  18.9540  19.0000  19.0392  19.1489  19.1770
    19.2396  19.3819  19.4680  19.5357  19.6092  19.6322  19.7112  19.7687
    19.8566  19.8755  19.9961  20.0511  20.1099  20.1368  20.2422  20.2962
    20.3215  20.4588  20.4957  20.5890  20.6755  20.9110  20.9603  21.0177
    21.0459  21.1305  21.1474  21.2055  21.2904  21.3513  21.3830  21.4793
    21.5066  21.6220  21.6287  21.7341  21.8505

          k = 0.0000 0.2341 0.0000 ( 27088 PWs)   bands (ev):

   -75.7950 -75.6986 -75.4012 -75.2269 -75.2119 -75.2006 -75.1784 -75.1628
   -47.3397 -47.1173 -47.0523 -46.9912 -46.9674 -46.9579 -46.8858 -46.6681
   -46.6326 -46.6114 -46.5915 -46.5800 -46.5573 -46.5529 -46.5385 -46.5225
   -46.5124 -46.5002 -46.4736 -46.4627 -46.4578 -46.4464 -46.3861 -46.3279
   -21.3238 -20.8628 -20.6267 -20.5786 -20.4363 -20.1070 -19.9959 -19.9774
   -19.8591 -19.7528 -19.6874 -19.6299 -19.5204 -19.4959 -19.4760 -19.3823
   -19.1967 -19.0878 -19.0027  -9.3865  -9.0345  -8.9719  -8.8983  -8.8385
    -8.5756  -8.1594  -8.1400  -7.9403  -7.8420  -7.8209  -7.7327  -7.5686
    -7.4279  -7.2590  -7.1557  -7.1196  -7.0507  -6.9768  -6.8788  -6.8409
    -6.7686  -6.7003  -6.5676  -6.5274  -6.3241  -6.2541  -6.1197  -5.9989
    -5.9224  -5.8799  -5.8208  -5.7772  -5.5101  -5.4045  -5.2960  -5.1461
    -5.0791  -5.0410  -4.9492  -4.8340  -4.7310  -4.6922  -4.5972  -4.5735
    -4.3767  -4.3143  -4.2415  -4.1090  -4.0154  -3.9047  -3.8807  -3.7761
    -3.6872  -3.5456  -3.5105  -3.4702  -3.3233  -3.1755  -3.1086  -3.0300
    -2.9936  -2.9254  -2.7786  -2.7386  -2.7037  -2.6406  -2.4685  -2.4187
    -2.3235  -1.8798  -1.7440  -1.7161  -1.4646  -1.3624  -1.2346  -1.0693
    -1.0308  -0.9272  -0.8058  -0.7790  -0.3321  -0.0529   0.3605   0.3864
     0.7639   0.9575   1.3788   1.4389   1.6212   1.7477   1.8703   1.9586
     1.9813   2.0813   2.3158   2.3427   3.4063   3.9304   4.1097   4.6029
     5.0713   5.3192   5.7785   5.9642   6.1651   6.4077   6.6326   6.9488
     7.1408   7.2699   7.4731   7.5881   7.9579   8.1900   8.2103   8.3017
     8.3689   8.5081   8.5258   8.6485   8.7784   8.9838   9.0172   9.0864
     9.2315   9.4641   9.4851   9.5924   9.7075   9.7736   9.8196   9.9422
    10.0331  10.0481  10.1504  10.2529  10.3368  10.3561  10.3709  10.4633
    10.4848  10.6300  10.7056  10.7731  10.8434  10.9415  11.1014  11.1834
    11.2601  11.3881  11.4173  11.5098  11.6025  11.6269  11.6901  11.7476
    11.8047  11.9352  12.1281  12.3459  12.3989  12.4689  12.5627  12.6753
    12.7282  12.7805  12.8793  12.9051  12.9476  13.0322  13.1676  13.2863
    13.3796  13.5629  13.5959  13.6999  13.7257  13.8221  13.8803  14.0063
    14.0893  14.1591  14.2202  14.2585  14.3055  14.3279  14.4425  14.4931
    14.5651  14.5829  14.6014  14.6654  14.8215  14.8731  14.9072  15.0450
    15.0745  15.1068  15.2344  15.2619  15.3525  15.3771  15.4846  15.5230
    15.6249  15.6991  15.8333  15.8741  15.9125  15.9974  16.1013  16.1774
    16.2230  16.3137  16.3741  16.4147  16.5789  16.7182  16.8334  16.8841
    16.9463  17.1285  17.1621  17.2523  17.2922  17.3263  17.4453  17.5116
    17.6571  17.7329  17.8872  17.9722  18.0450  18.1682  18.3151  18.3483
    18.4694  18.5874  18.6373  18.7367  18.8797  18.9209  19.0544  19.0653
    19.1387  19.1848  19.2796  19.3464  19.4645  19.5147  19.5776  19.6959
    19.7257  19.9121  19.9682  20.0109  20.1615  20.1967  20.2470  20.2951
    20.3465  20.3927  20.4489  20.4895  20.5164  20.6545  20.6982  20.7363
    20.8128  20.8742  20.9063  20.9682  21.0272  21.1196  21.1586  21.2244
    21.2936  21.3998  21.4646  21.5070  21.5883

          k = 0.0000-0.4682 0.0000 ( 27136 PWs)   bands (ev):

   -75.7950 -75.6986 -75.4012 -75.2269 -75.2118 -75.2007 -75.1784 -75.1628
   -47.3397 -47.1174 -47.0530 -46.9875 -46.9673 -46.9607 -46.8858 -46.6655
   -46.6369 -46.6100 -46.5863 -46.5797 -46.5576 -46.5554 -46.5411 -46.5229
   -46.5144 -46.4981 -46.4736 -46.4625 -46.4578 -46.4464 -46.3860 -46.3281
   -21.2106 -20.7656 -20.6179 -20.5664 -20.4460 -20.3473 -19.9606 -19.9488
   -19.8826 -19.7728 -19.7192 -19.6300 -19.6049 -19.4855 -19.4582 -19.3849
   -19.1913 -19.0805 -18.9995  -9.3310  -9.1407  -8.8478  -8.7927  -8.5807
    -8.5317  -8.1513  -8.1476  -7.8176  -7.7591  -7.5645  -7.4658  -7.4485
    -7.4182  -7.4130  -7.0810  -7.0368  -6.9450  -6.8917  -6.8406  -6.8148
    -6.7548  -6.7232  -6.6610  -6.4865  -6.4499  -6.3796  -6.3334  -6.1159
    -6.0771  -5.9906  -5.9137  -5.7708  -5.7011  -5.6040  -5.5094  -5.3667
    -5.1761  -5.0858  -5.0005  -4.9624  -4.8522  -4.6421  -4.6121  -4.4777
    -4.3791  -4.2760  -4.1295  -4.0526  -4.0439  -3.9039  -3.8755  -3.7192
    -3.6597  -3.5726  -3.4255  -3.3871  -3.2776  -3.1921  -3.1470  -3.0881
    -3.0155  -2.9785  -2.9179  -2.8449  -2.8369  -2.5744  -2.4532  -2.2774
    -2.2055  -1.7972  -1.6805  -1.6344  -1.5777  -1.4310  -1.2768  -1.1984
    -1.0281  -0.9205  -0.8196  -0.6411  -0.4651  -0.2012  -0.0112   0.3478
     0.9433   1.1704   1.3013   1.5195   1.6967   1.8344   1.8438   1.9176
     2.0104   2.0711   2.3594   2.7457   3.9607   4.3428   4.5190   4.7286
     4.8314   4.9792   5.2864   5.4759   5.8487   6.0942   6.5534   6.8901
     7.1685   7.1715   7.4541   7.6186   7.7547   8.0256   8.0485   8.2114
     8.6248   8.7473   8.8570   8.9019   9.0433   9.1000   9.1863   9.2165
     9.2273   9.2399   9.4462   9.5138   9.5592   9.5958   9.6799   9.7027
     9.8146   9.8772  10.0417  10.0907  10.1911  10.2942  10.4338  10.4760
    10.6566  10.7701  10.8110  10.9190  11.0098  11.0896  11.1628  11.2272
    11.3431  11.5456  11.5970  11.6773  11.7736  12.0195  12.0965  12.1786
    12.2228  12.3297  12.3945  12.4119  12.4602  12.5851  12.6113  12.7518
    12.8123  12.8432  12.9157  13.0775  13.1233  13.1510  13.2213  13.2775
    13.3799  13.4709  13.5528  13.5775  13.6905  13.7314  13.8444  13.9254
    13.9682  14.0484  14.1102  14.2677  14.3194  14.3302  14.3947  14.4336
    14.5391  14.5817  14.6481  14.7389  14.7555  14.9087  14.9590  14.9991
    15.0906  15.2234  15.2814  15.3392  15.4390  15.5555  15.5848  15.6892
    15.7556  15.9408  15.9915  16.0114  16.0950  16.1761  16.3048  16.3927
    16.6593  16.6975  16.7812  16.7924  16.8514  16.9683  16.9876  17.0161
    17.1069  17.1309  17.1894  17.1914  17.2615  17.5019  17.5266  17.6466
    17.6951  17.7486  17.7884  17.8439  17.9244  18.0170  18.0999  18.2088
    18.2665  18.2808  18.3648  18.4555  18.4904  18.5107  18.5138  18.6237
    18.7006  18.7171  18.8246  18.9012  18.9956  19.0548  19.1162  19.1584
    19.1987  19.2716  19.3916  19.4328  19.6197  19.7165  19.9555  19.9679
    20.0660  20.0801  20.1390  20.1803  20.2054  20.3007  20.3684  20.4628
    20.4842  20.6771  20.7315  20.8338  20.8900  20.9619  20.9877  21.0328
    21.1323  21.1385  21.2035  21.2734  21.3262

          k = 0.2500 0.0000 0.0000 ( 27178 PWs)   bands (ev):

   -75.7949 -75.6985 -75.4011 -75.2257 -75.2119 -75.2015 -75.1765 -75.1645
   -47.3399 -47.1134 -47.0478 -46.9940 -46.9670 -46.9559 -46.8852 -46.6706
   -46.6282 -46.6181 -46.5944 -46.5718 -46.5563 -46.5468 -46.5281 -46.5229
   -46.5021 -46.4910 -46.4738 -46.4623 -46.4549 -46.4493 -46.4111 -46.3520
   -21.2888 -20.8593 -20.6648 -20.5233 -20.4458 -20.1721 -20.0290 -19.9502
   -19.7965 -19.7221 -19.6575 -19.6199 -19.5714 -19.5279 -19.4160 -19.3857
   -19.2098 -19.1116 -19.0260  -9.3145  -9.1186  -8.9963  -8.8331  -8.6561
    -8.2699  -8.1431  -8.1064  -8.0490  -8.0154  -7.9657  -7.8390  -7.6823
    -7.5645  -7.4883  -7.3218  -7.2638  -7.1614  -7.0322  -6.9690  -6.8783
    -6.8168  -6.6743  -6.5729  -6.3886  -6.2692  -6.0366  -5.9859  -5.9396
    -5.7587  -5.6758  -5.5956  -5.5286  -5.4669  -5.3616  -5.2870  -5.2776
    -5.2295  -5.1425  -5.0147  -4.9216  -4.6873  -4.6234  -4.5956  -4.5343
    -4.4664  -4.4048  -4.2477  -4.2000  -4.1191  -4.0899  -4.0096  -3.8814
    -3.6774  -3.5809  -3.4365  -3.3803  -3.3314  -3.2892  -3.2190  -3.0919
    -2.8892  -2.7996  -2.6963  -2.5288  -2.5107  -2.4669  -2.3444  -2.2671
    -1.9549  -1.8734  -1.7734  -1.6950  -1.4989  -1.2998  -1.2176  -1.1975
    -1.1140  -1.0415  -0.8140  -0.6708  -0.4245   0.3764   0.5712   0.6137
     0.7888   1.0559   1.3153   1.3237   1.3689   1.4088   1.5596   1.6431
     1.7325   1.8592   1.9782   2.4037   3.4549   3.9795   4.1541   4.6636
     5.1571   5.4936   5.8583   6.2360   6.3529   6.4696   6.6246   6.8607
     7.2715   7.4074   7.5073   7.6853   7.7369   7.8874   7.9379   7.9994
     8.1622   8.3865   8.4822   8.5802   8.8012   8.8333   9.0220   9.1201
     9.2877   9.3991   9.4934   9.6179   9.6769   9.7728   9.8498   9.8888
     9.9855  10.0712  10.1349  10.1950  10.2288  10.3550  10.4257  10.4836
    10.6112  10.6615  10.7790  10.8035  10.9973  11.0425  11.0892  11.1527
    11.3172  11.4005  11.4402  11.5201  11.6336  11.6679  11.7367  11.7685
    11.9690  12.0103  12.2140  12.3170  12.3539  12.4816  12.5377  12.5748
    12.6282  12.6988  12.7970  12.9489  12.9911  13.0929  13.1231  13.2207
    13.2360  13.4042  13.4847  13.5623  13.7282  13.8258  13.9344  13.9559
    14.0466  14.1609  14.2740  14.3076  14.3455  14.4404  14.4933  14.5711
    14.5888  14.6199  14.6771  14.8067  14.8662  14.9064  14.9668  15.1119
    15.2634  15.2980  15.3344  15.4119  15.5951  15.6725  15.7082  15.8069
    15.8463  15.8953  15.9655  16.0444  16.0834  16.2287  16.3367  16.4830
    16.5340  16.5648  16.6256  16.7655  16.8324  16.9488  16.9619  17.1065
    17.1634  17.2307  17.2558  17.3918  17.4259  17.5869  17.6239  17.6395
    17.6945  17.7917  17.9037  17.9599  17.9809  18.0593  18.2337  18.2875
    18.4168  18.5847  18.6589  18.7293  18.8273  18.8837  18.9088  18.9913
    19.0459  19.2087  19.2655  19.4424  19.5128  19.6225  19.6654  19.7078
    19.7387  19.7740  19.8186  19.8947  19.9434  20.0049  20.1321  20.2170
    20.2550  20.3334  20.4168  20.4596  20.4930  20.5552  20.5984  20.7163
    20.8177  20.8719  20.9859  21.0602  21.1158  21.1607  21.2000  21.2614
    21.2831  21.3204  21.4272  21.4596  21.5190

          k = 0.2500 0.2341 0.0000 ( 27132 PWs)   bands (ev):

   -75.7949 -75.6984 -75.4011 -75.2257 -75.2119 -75.2015 -75.1765 -75.1645
   -47.3399 -47.1135 -47.0485 -46.9909 -46.9670 -46.9580 -46.8852 -46.6684
   -46.6333 -46.6154 -46.5884 -46.5734 -46.5556 -46.5506 -46.5301 -46.5231
   -46.5035 -46.4892 -46.4737 -46.4623 -46.4546 -46.4491 -46.4110 -46.3521
   -21.2144 -20.7624 -20.6534 -20.5500 -20.4440 -20.1213 -20.0296 -19.9888
   -19.9125 -19.7691 -19.7265 -19.6088 -19.5493 -19.5136 -19.4964 -19.3990
   -19.2003 -19.1052 -19.0134  -9.2408  -8.8896  -8.8304  -8.7300  -8.6542
    -8.3464  -8.1085  -8.0724  -8.0058  -7.9544  -7.8653  -7.7562  -7.5744
    -7.5009  -7.4315  -7.2850  -7.2321  -7.1152  -6.9635  -6.8801  -6.8018
    -6.7451  -6.6575  -6.5554  -6.4359  -6.3042  -6.1657  -6.0730  -5.9361
    -5.9090  -5.8627  -5.8045  -5.7053  -5.6490  -5.5238  -5.4968  -5.3864
    -5.3115  -5.2812  -5.1550  -5.0891  -4.7689  -4.7100  -4.6662  -4.5364
    -4.4202  -4.3665  -4.3154  -4.2492  -4.1787  -4.0352  -3.9033  -3.8095
    -3.6385  -3.5454  -3.4283  -3.3617  -3.2183  -3.1623  -2.9824  -2.8600
    -2.8367  -2.7134  -2.6377  -2.5875  -2.5372  -2.4610  -2.4374  -2.3086
    -2.2853  -1.8773  -1.8273  -1.6179  -1.4548  -1.3147  -1.2144  -1.1599
    -1.1219  -0.9887  -0.8949  -0.7956  -0.2571   0.0404   0.3888   0.4867
     0.8087   0.9797   1.0893   1.3690   1.4401   1.5849   1.6313   1.8052
     1.8667   2.0367   2.3097   2.3556   3.7093   4.2184   4.4026   4.8865
     5.3419   5.5964   5.6869   6.0148   6.2381   6.4376   6.4843   6.6466
     6.7359   6.9274   7.0447   7.3208   7.4341   7.7068   7.8504   7.9516
     8.2539   8.3359   8.3868   8.5236   8.6723   8.7867   8.9621   9.0230
     9.1473   9.2038   9.4306   9.4996   9.6205   9.7094   9.8863  10.0458
    10.0865  10.1291  10.2924  10.3452  10.4281  10.5846  10.6250  10.8055
    10.8679  10.9109  11.0738  11.1783  11.2300  11.2646  11.4418  11.5058
    11.5635  11.6231  11.7439  11.7899  11.8584  11.9280  12.1287  12.1910
    12.2596  12.3134  12.4024  12.5267  12.5932  12.6411  12.7279  12.7712
    12.8307  12.8785  12.9708  12.9947  13.0730  13.1612  13.2204  13.2776
    13.3630  13.4252  13.5485  13.6008  13.7221  13.7725  13.8353  13.9136
    13.9609  14.1065  14.1388  14.2317  14.3257  14.3571  14.4531  14.4954
    14.5699  14.6673  14.7148  14.7836  14.8332  14.9459  15.0119  15.1149
    15.1517  15.2830  15.3759  15.4175  15.5343  15.6821  15.7948  15.8478
    15.9487  15.9967  16.0586  16.1054  16.2176  16.2555  16.3080  16.3684
    16.4145  16.5701  16.6446  16.7049  16.7589  16.8005  16.9274  17.0063
    17.0550  17.0992  17.1340  17.3235  17.3551  17.4058  17.4342  17.4776
    17.5431  17.6021  17.6889  17.7208  17.8144  17.8645  17.9487  18.0473
    18.1403  18.1835  18.2858  18.3271  18.4664  18.5120  18.5787  18.6995
    18.7980  18.8241  18.8356  18.8991  18.9590  19.0460  19.1902  19.2785
    19.3087  19.3879  19.4444  19.5200  19.5781  19.6350  19.6999  19.7370
    19.8041  19.8371  19.8918  20.0672  20.1387  20.2290  20.3106  20.3706
    20.4034  20.4924  20.5881  20.6832  20.7879  20.8904  20.9422  20.9877
    21.0593  21.1341  21.1711  21.2352  21.3038

          k = 0.2500-0.4682 0.0000 ( 27150 PWs)   bands (ev):

   -75.7949 -75.6984 -75.4011 -75.2257 -75.2119 -75.2015 -75.1764 -75.1645
   -47.3399 -47.1136 -47.0491 -46.9873 -46.9670 -46.9607 -46.8851 -46.6658
   -46.6380 -46.6137 -46.5799 -46.5767 -46.5558 -46.5537 -46.5310 -46.5232
   -46.5057 -46.4884 -46.4737 -46.4622 -46.4545 -46.4490 -46.4106 -46.3522
   -21.1210 -20.6606 -20.6352 -20.5658 -20.3528 -20.3256 -20.0216 -19.9388
   -19.8741 -19.8645 -19.8189 -19.6341 -19.6021 -19.5517 -19.4864 -19.3848
   -19.1928 -19.0984 -19.0077  -9.1998  -8.9554  -8.6242  -8.5093  -8.4283
    -8.3843  -8.1106  -8.0432  -7.8407  -7.8210  -7.6041  -7.4897  -7.4779
    -7.4450  -7.3567  -7.2794  -7.2580  -7.2372  -6.9121  -6.8843  -6.7683
    -6.7098  -6.6063  -6.5345  -6.4581  -6.4006  -6.3464  -6.2800  -6.1920
    -6.1119  -6.0570  -5.9367  -5.8796  -5.7889  -5.7256  -5.5923  -5.5013
    -5.4193  -5.3280  -5.2606  -5.1375  -4.8939  -4.7897  -4.6847  -4.6054
    -4.5406  -4.3080  -4.2033  -4.1480  -4.0588  -3.9620  -3.8739  -3.7210
    -3.5710  -3.4798  -3.3976  -3.2391  -3.1922  -3.1470  -3.0812  -2.9722
    -2.8541  -2.7833  -2.7075  -2.6487  -2.4872  -2.4274  -2.3188  -2.2550
    -2.0892  -1.9032  -1.6974  -1.5805  -1.5341  -1.4051  -1.2868  -1.1732
    -1.1438  -0.9615  -0.9146  -0.7411  -0.3556  -0.1259   0.0980   0.3309
     0.9406   0.9514   1.2272   1.2647   1.4705   1.5356   1.6402   1.9153
     2.0740   2.1333   2.3386   2.6350   4.2327   4.6231   4.7809   5.0076
     5.1021   5.2593   5.5514   5.7625   6.0432   6.0992   6.3890   6.6366
     6.7814   7.1372   7.1975   7.2424   7.3497   7.4242   7.4823   7.7684
     7.8154   7.9431   8.2173   8.3365   8.4822   8.5543   8.6142   8.8743
     9.0203   9.1771   9.3749   9.3921   9.5270   9.7403   9.8876   9.9436
    10.0708  10.2229  10.3969  10.5051  10.7881  10.8737  10.9135  11.0267
    11.3049  11.3625  11.4024  11.5776  11.6570  11.7064  11.7784  11.8563
    11.9282  11.9701  12.0047  12.0900  12.1244  12.2522  12.4039  12.4936
    12.6096  12.6606  12.6800  12.7457  12.7691  12.8141  12.8822  12.9553
    13.0027  13.0727  13.1305  13.1990  13.3052  13.3140  13.3737  13.4099
    13.5579  13.6013  13.6770  13.7092  13.7624  13.8555  13.8907  13.9943
    14.0205  14.0904  14.1293  14.2202  14.2474  14.3304  14.4953  14.5307
[...]
    -6.3903  -6.1861  -6.1005  -6.0640  -5.9287  -5.8482  -5.7440  -5.6874
    -5.6277  -5.3750  -5.3546  -5.2676  -5.1798  -5.0688  -4.9793  -4.9356
    -4.8910  -4.8607  -4.7816  -4.7563  -4.7007  -4.6515  -4.4627  -4.3786
    -4.3185  -4.2349  -4.1351  -3.9959  -3.8391  -3.7673  -3.6297  -3.5623
    -3.4756  -3.4197  -3.3513  -3.2764  -0.4749  -0.2911  -0.1890  -0.1796
    -0.1087   0.0155   0.3024   0.3258   0.4822   0.5146   0.5812   0.6500
     0.7255   0.7608   0.7726   0.8191   0.8669   0.8890   0.9547   1.0642
     1.0930   1.2069   1.2231   1.4265   1.4704   1.6320   1.6847   1.7174
     2.1217   2.2643   2.4125   2.5580   2.5707   2.6689   2.7115   2.8743
     2.8888   3.0315   3.4049   3.4528   4.3412   4.3679   4.7464   4.8941
     5.0028   5.1382   5.4769   5.6450   6.0329   6.2182   6.6633   6.9041
     7.1451   7.3789   7.5727   7.7549   8.1521   8.1909   8.2622   8.2870
     8.4268   8.5546   8.6578   8.7903   8.7987   8.8101   8.8405   8.9610
     8.9798   9.0875   9.2678   9.3464   9.3998   9.5467   9.6087   9.8424
     9.8738  10.0746  10.1435  10.2484  10.3175  10.3915  10.4656  10.5463
    10.6679  10.7877  10.9532  10.9574  11.1649  11.2304  11.2482  11.4005
    11.4587  11.5558  11.7493  11.8260  11.9209  11.9539  12.0638  12.2364
    12.3068  12.4300  12.6011  12.7526  12.7707  12.8471  12.8947  12.9723
    13.0092  13.1588  13.1985  13.3507  13.4236  13.4394  13.5151  13.6237
    13.7738  13.8101  13.8345  13.8696  14.0487  14.1109  14.1343  14.1973
    14.3633  14.3832  14.4694  14.4971  14.7386  14.7755  14.8377  14.9062
    14.9595  14.9994  15.0470  15.0977  15.1206  15.1744  15.2268  15.3067
    15.3940  15.6980  15.7312  15.8144  15.8367  15.8909  15.9945  16.1210
    16.2239  16.3385  16.4116  16.5785  16.6114  16.7223  16.7987  16.8335
    16.8873  17.0779  17.1380  17.1699  17.2293  17.3508  17.4287  17.4714
    17.4782  17.5189  17.6156  17.6223  17.6536  17.7288  17.7629  17.7772
    17.8156  17.9226  17.9454  18.0310  18.0455  18.0761  18.2162  18.2599
    18.3076  18.5548  18.5871  18.6585  18.6769  18.7180  18.7909  18.8812
    19.0408  19.0996  19.1354  19.1886  19.2261  19.2640  19.3057  19.3201
    19.4586  19.5650  19.6547  19.7226  19.7548  19.9913  20.0066  20.0119
    20.0818  20.1692  20.3403  20.3448  20.3964  20.4505  20.5388  20.5907
    20.5995  20.6351  20.6602  20.6706  20.7690  20.7910  20.7965  20.9569
    21.0023  21.0576  21.1488  21.2113  21.2562

          k =-0.5000 0.2341 0.0000 ( 27132 PWs)   bands (ev):

   -74.2542 -74.1947 -72.7931 -72.7921 -72.7682 -72.7157 -72.6489 -72.6345
   -46.3594 -45.9849 -45.4199 -45.2966 -45.2281 -45.1847 -44.4952 -44.3853
   -44.3681 -44.3539 -44.2927 -44.2809 -44.2093 -44.1616 -44.0779 -44.0372
   -44.0255 -44.0093 -43.9081 -43.8893 -43.8434 -43.8370 -43.7263 -43.7126
   -21.0970 -20.9426 -20.6981 -20.6213 -20.4991 -20.3894 -20.3720 -20.0668
   -19.9964 -19.9617 -19.9347 -19.8658 -19.7688 -19.7520 -19.7108 -19.6372
   -19.4524 -19.4007 -19.2858  -8.6987  -8.5447  -8.0000  -7.9552  -7.9051
    -7.8435  -7.7215  -7.6521  -7.5454  -7.4908  -7.4015  -7.3437  -7.2583
    -7.0921  -7.0251  -6.9854  -6.7572  -6.6888  -6.6186  -6.5199  -6.4312
    -6.3585  -6.2396  -6.1547  -6.0989  -6.0662  -5.9469  -5.8689  -5.7580
    -5.5724  -5.5002  -5.4037  -5.3861  -5.3532  -5.2673  -5.2114  -5.1822
    -5.1059  -5.0632  -4.9876  -4.8852  -4.7664  -4.6441  -4.4102  -4.3322
    -4.2651  -4.1391  -4.0532  -3.8997  -3.8396  -3.8004  -3.6850  -3.5501
    -3.4794  -3.4467  -3.2736  -3.1763  -0.4624  -0.2278  -0.2162  -0.1664
     0.0122   0.0715   0.2151   0.3116   0.3918   0.4765   0.5998   0.6574
     0.7898   0.8002   0.8572   0.9215   0.9343   0.9696   1.0118   1.0437
     1.1538   1.2524   1.3171   1.3821   1.4600   1.5356   1.6737   1.8604
     2.0052   2.3038   2.4157   2.4243   2.4499   2.5136   2.6878   2.8020
     2.8964   3.2024   3.4966   3.5423   4.5609   4.5876   4.9548   5.1356
     5.2308   5.3755   5.6849   5.8601   6.1370   6.2689   6.4325   6.6204
     6.7880   7.0615   7.0911   7.2210   7.2390   7.3997   7.5822   7.7417
     7.7622   7.9172   8.2268   8.3857   8.5585   8.6605   8.7403   9.0033
     9.0827   9.3014   9.3850   9.5701   9.6241   9.7838   9.9399  10.3303
    10.3745  10.5006  10.5401  10.6435  10.7596  10.8053  10.9281  10.9815
    11.0025  11.0399  11.2718  11.2793  11.5470  11.5601  11.6125  11.7172
    11.7592  11.9390  11.9827  12.0464  12.2123  12.3570  12.4253  12.4992
    12.5627  12.6480  12.7987  12.8359  12.9006  12.9675  13.0871  13.1713
    13.2693  13.3288  13.4941  13.5018  13.5880  13.6542  13.7201  13.7687
    13.9229  13.9880  14.0796  14.1286  14.1608  14.2525  14.3822  14.4338
    14.4938  14.5245  14.5766  14.5974  14.6468  14.7196  14.7964  14.8854
    14.9068  14.9392  14.9858  15.1560  15.2298  15.3049  15.4291  15.4751
    15.5764  15.6366  15.7181  15.7771  15.8220  15.8847  15.9371  15.9675
    16.0201  16.0832  16.1282  16.1638  16.2079  16.2497  16.2805  16.3826
    16.4093  16.5291  16.6218  16.6658  16.7007  16.7589  16.8018  16.8499
    16.8848  16.9614  17.0578  17.1892  17.2157  17.2887  17.3342  17.3754
    17.4351  17.4686  17.5636  17.5773  17.6916  17.7341  17.8586  17.9038
    17.9372  17.9861  18.0402  18.0887  18.3065  18.3930  18.4258  18.4930
    18.5350  18.6057  18.6735  18.9044  18.9417  18.9879  19.1607  19.2128
    19.3123  19.4172  19.4775  19.5876  19.6346  19.7064  19.7712  19.8739
    19.8920  19.9437  19.9558  20.0195  20.0349  20.0917  20.1287  20.1666
    20.2176  20.2690  20.3752  20.4158  20.5205  20.7002  20.7524  20.9162
    20.9590  21.0016  21.0396  21.1609  21.2273

          k =-0.5000-0.4682 0.0000 ( 27168 PWs)   bands (ev):

   -74.2542 -74.1947 -72.7931 -72.7921 -72.7682 -72.7157 -72.6489 -72.6345
   -46.3594 -45.9849 -45.4199 -45.2975 -45.2239 -45.1878 -44.4950 -44.3853
   -44.3681 -44.3538 -44.2896 -44.2776 -44.2138 -44.1644 -44.0779 -44.0378
   -44.0255 -44.0093 -43.9078 -43.8893 -43.8430 -43.8367 -43.7263 -43.7125
   -21.0360 -20.8827 -20.6639 -20.5006 -20.4693 -20.3535 -20.3097 -20.2717
   -20.1645 -19.9707 -19.9042 -19.8728 -19.8689 -19.8339 -19.7035 -19.6079
   -19.4442 -19.3930 -19.2782  -8.6777  -8.5180  -7.8925  -7.7784  -7.6659
    -7.5255  -7.4843  -7.3655  -7.3567  -7.3384  -7.1643  -7.1058  -7.0690
    -7.0564  -6.9534  -6.9234  -6.8785  -6.7732  -6.7509  -6.6893  -6.5844
    -6.5618  -6.4370  -6.3690  -6.2520  -6.0683  -5.9789  -5.9448  -5.8626
    -5.8012  -5.7275  -5.6229  -5.6076  -5.5369  -5.3989  -5.3207  -5.2962
    -5.2098  -5.1232  -5.0871  -4.9080  -4.8640  -4.6707  -4.4222  -4.3984
    -4.0763  -4.0468  -3.9890  -3.9301  -3.8000  -3.7242  -3.6472  -3.6039
    -3.5873  -3.4028  -3.1683  -3.1213  -0.3873  -0.2567  -0.1654  -0.1483
    -0.0041   0.0860   0.1797   0.3142   0.3991   0.4705   0.5402   0.6917
     0.7449   0.8233   0.8781   0.9754   1.0404   1.0601   1.0995   1.2466
     1.3163   1.3268   1.3440   1.3813   1.4379   1.5761   1.6086   1.7908
     1.8854   1.9668   2.0278   2.3779   2.5536   2.5636   2.7393   2.8283
     3.0959   3.4213   3.4671   3.4798   5.0021   5.0398   5.3801   5.4741
     5.4822   5.8158   5.8505   5.8847   5.9272   6.0548   6.0823   6.1581
     6.3644   6.5495   6.5885   6.6982   6.9281   7.1484   7.2350   7.3724
     7.6419   7.9130   8.0348   8.1981   8.2970   8.4662   8.6570   8.8166
     9.0907   9.2272   9.2402   9.3969   9.4994   9.7032   9.8710  10.0006
    10.1269  10.4107  10.7748  10.9585  11.0125  11.1434  11.2098  11.2457
    11.3173  11.4178  11.8205  11.8595  12.1364  12.2394  12.3306  12.4306
    12.4653  12.5801  12.6090  12.7974  12.8700  12.9594  13.0422  13.1279
    13.1895  13.2177  13.3458  13.4386  13.4999  13.5298  13.5599  13.6099
    13.6357  13.7136  13.7358  13.7601  13.7783  13.8142  13.9483  13.9986
    14.0234  14.0535  14.0664  14.1110  14.2324  14.3105  14.3805  14.4223
    14.4484  14.4579  14.5649  14.6662  14.7303  14.7496  14.7673  14.8022
    14.8080  14.8143  14.8650  14.8999  14.9402  15.0802  15.1079  15.1196
    15.1948  15.2386  15.2570  15.3067  15.3467  15.3782  15.4465  15.4723
    15.5239  15.5987  15.6482  15.6867  15.7298  15.8034  15.8218  15.8726
    15.8960  16.0472  16.0923  16.1182  16.2201  16.3304  16.4266  16.5485
    16.5942  16.6670  16.6977  16.7657  16.8425  16.8841  16.9650  17.0196
    17.0696  17.0995  17.1836  17.2229  17.2920  17.3181  17.4523  17.4790
    17.7154  17.7664  17.8245  17.9245  17.9652  17.9808  18.0090  18.0870
    18.1233  18.2138  18.4486  18.6252  18.6698  18.6928  18.8124  18.8762
    18.9438  18.9787  19.0611  19.0857  19.2603  19.2747  19.3615  19.4124
    19.8176  19.9752  20.0538  20.0688  20.2183  20.2756  20.2860  20.3859
    20.4059  20.6270  20.7860  20.9778  21.0592  21.1531  21.1950  21.3024
    21.4356  21.5217  21.5522  21.5805  21.6621

          k =-0.2500 0.2341 0.0000 ( 27132 PWs)   bands (ev):

   -74.2542 -74.1946 -72.7936 -72.7926 -72.7668 -72.7157 -72.6506 -72.6325
   -46.3593 -45.9866 -45.4201 -45.2983 -45.2282 -45.1848 -44.4951 -44.3861
   -44.3683 -44.3531 -44.2960 -44.2782 -44.2109 -44.1612 -44.0778 -44.0371
   -44.0328 -44.0023 -43.9069 -43.9049 -43.8874 -43.7863 -43.7725 -43.6520
   -21.3077 -20.8877 -20.7300 -20.6773 -20.5584 -20.2783 -20.1795 -20.1362
   -20.0528 -19.9325 -19.9175 -19.8299 -19.7409 -19.7225 -19.6938 -19.6367
   -19.4593 -19.3812 -19.2796  -8.8099  -8.5686  -8.2778  -8.1920  -8.0535
    -7.8126  -7.7019  -7.6255  -7.5370  -7.4669  -7.3645  -7.2663  -7.2138
    -7.0789  -7.0194  -6.9683  -6.8240  -6.7688  -6.5977  -6.5625  -6.4954
    -6.4392  -6.3379  -6.1486  -6.0627  -6.0069  -5.8360  -5.7687  -5.6912
    -5.6182  -5.5380  -5.4873  -5.4024  -5.3932  -5.2427  -5.1685  -5.1043
    -5.0513  -4.8669  -4.7798  -4.6407  -4.5624  -4.4417  -4.3924  -4.2917
    -4.2031  -4.1003  -4.0603  -3.9999  -3.9413  -3.8316  -3.6857  -3.6550
    -3.5257  -3.4177  -3.2781  -3.0737  -0.4850  -0.3321  -0.2529  -0.1331
    -0.0320   0.0296   0.1492   0.2727   0.4190   0.4771   0.5444   0.6312
     0.6538   0.7507   0.8151   0.8415   0.9200   0.9885   1.0522   1.1542
     1.2088   1.2892   1.3527   1.4073   1.4494   1.4876   1.5665   1.8289
     2.0835   2.2260   2.3499   2.5635   2.6572   2.7023   2.8128   2.9411
     3.0083   3.1937   3.4866   3.5879   3.8009   4.2515   4.4495   4.9398
     5.4275   5.6719   5.7559   6.0713   6.2760   6.4394   6.5107   6.6729
     6.7958   6.9532   7.0446   7.3430   7.4848   7.7860   7.8852   8.0095
     8.3081   8.3446   8.4266   8.5662   8.7235   8.8416   9.0171   9.0767
     9.2570   9.2757   9.4411   9.5745   9.7318   9.8079   9.9227  10.1265
    10.1665  10.2417  10.3310  10.4346  10.5070  10.6476  10.7362  10.8463
    10.9218  11.0177  11.2012  11.2371  11.3004  11.3565  11.5352  11.6190
    11.6631  11.7679  11.8374  11.9142  12.0310  12.0951  12.1790  12.2729
    12.3660  12.4292  12.5287  12.6536  12.7273  12.8014  12.8576  12.9080
    12.9733  12.9962  13.0896  13.1386  13.2112  13.2875  13.3308  13.4205
    13.4856  13.5721  13.6872  13.7815  13.8564  13.9258  13.9835  14.0570
    14.1229  14.2534  14.3602  14.4462  14.4638  14.5122  14.6167  14.7081
    14.7650  14.8388  14.9366  14.9909  15.0405  15.1625  15.2475  15.3627
    15.4105  15.4865  15.5718  15.6557  15.7613  15.8473  15.9506  16.0193
    16.0855  16.1440  16.2062  16.2679  16.3723  16.4400  16.4988  16.5331
    16.6180  16.7638  16.8060  16.8446  16.9223  17.0491  17.0704  17.1098
    17.1936  17.2250  17.3798  17.4525  17.4827  17.5278  17.5992  17.6807
    17.7092  17.7559  17.7946  17.9005  17.9697  18.0371  18.1275  18.2368
    18.2663  18.3267  18.3896  18.4117  18.5837  18.6859  18.7664  18.8138
    18.8641  18.9298  18.9884  19.0286  19.0663  19.2381  19.3286  19.3810
    19.4315  19.4954  19.5854  19.6542  19.6834  19.7623  19.8048  19.8763
    19.9633  20.0439  20.1171  20.1859  20.3068  20.3672  20.4571  20.5252
    20.6292  20.7083  20.7698  20.8351  20.9180  21.0204  21.0873  21.1497
    21.2203  21.2550  21.3371  21.4203  21.4992

     the spin up/dw Fermi energies are    -1.8662   -2.8844 ev

!    total energy              =   -2024.77300671 Ry
     Harris-Foulkes estimate   =   -2024.77300672 Ry
     estimated scf accuracy    <          9.0E-09 Ry

     The total energy is the sum of the following terms:

     one-electron contribution =  -23827.56633283 Ry
     hartree contribution      =   11931.15397204 Ry
     xc contribution           =    -321.77193026 Ry
     ewald contribution        =   10192.35616625 Ry
     Hubbard energy            =       1.05501766 Ry
     smearing contrib. (-TS)   =       0.00010044 Ry

     total magnetization       =    14.00 Bohr mag/cell
     absolute magnetization    =    19.97 Bohr mag/cell

     convergence has been achieved in  21 iterations

     Forces acting on atoms (Ry/au):


     negative rho (up, down):  0.494E-02 0.179E-02
     atom    1 type  1   force =    -0.00280579   -0.01109169    0.00028447
     atom    2 type  1   force =    -0.00091434    0.00632923   -0.00017443
     atom    3 type  2   force =     0.05749081   -0.00150133    0.00049184
     atom    4 type  2   force =    -0.00146273    0.00734044   -0.00096357
     atom    5 type  1   force =    -0.00316517    0.00914023    0.00005773
     atom    6 type  1   force =    -0.00237004   -0.00713174    0.00003096
     atom    7 type  1   force =     0.00259285   -0.00186133   -0.00023740
     atom    8 type  1   force =    -0.01282315   -0.00099172   -0.00001622
     atom    9 type  2   force =     0.01942227    0.00104576   -0.00044385
     atom   10 type  2   force =     0.00291012   -0.00010698   -0.00006856
     atom   11 type  1   force =    -0.00432756   -0.05481472   -0.00011948
     atom   12 type  1   force =    -0.00345638    0.05393552   -0.00015204
     atom   13 type  1   force =    -0.04573329    0.00019205   -0.00014787
     atom   14 type  1   force =    -0.00632329   -0.01205656    0.00058898
     atom   15 type  1   force =     0.00021797    0.00587731   -0.00068674
     atom   16 type  2   force =    -0.06206399   -0.00109209    0.00059434
     atom   17 type  2   force =     0.00796800    0.00717670   -0.00034167
     atom   18 type  1   force =     0.00490215    0.00955783    0.00007814
     atom   19 type  1   force =     0.00595730   -0.00789075    0.00016643
     atom   20 type  1   force =     0.00204258   -0.00223661    0.00058776
     atom   21 type  1   force =     0.00928412    0.00017030    0.00045305
     atom   22 type  2   force =     0.02072202   -0.00017272    0.00013117
     atom   23 type  2   force =    -0.00279671    0.00017663    0.00075195
     atom   24 type  1   force =    -0.00640150   -0.05604759   -0.00011361
     atom   25 type  1   force =    -0.00527095    0.05624334   -0.00012291
     atom   26 type  1   force =     0.02691110   -0.00017178    0.00016756
     atom   27 type  3   force =    -0.00002264    0.00007753   -0.00027731
     atom   28 type  3   force =    -0.00000039    0.00038663   -0.00047873
     atom   29 type  3   force =    -0.00022672   -0.00023737   -0.00009391
     atom   30 type  3   force =    -0.00034909   -0.00026062   -0.00016409
     atom   31 type  1   force =     0.00009240    0.00001610    0.00021802

     Total force =     0.002229     Total SCF correction =     0.000303
     SCF correction compared to forces is large: reduce conv_thr to get better values

     bfgs converged in  12 scf cycles and  11 bfgs steps
     (criteria: energy < 0.10E-03, force < 0.10E-02)

     End of BFGS Geometry Optimization

     Final energy   =   -2024.7730067101 Ry
Begin final coordinates

ATOMIC_POSITIONS (crystal)
O0       0.000000000   0.000000000   0.376839254    0   0   1
O0       0.000000000   0.500000000   0.398536273    0   0   1
Cr1      0.250000000   0.500000000   0.450078131    0   0   1
Cr1      0.000000000   0.000000000   0.448155572    0   0   1
O0       0.250000000   0.800000000   0.448867583    0   0   1
O0       0.250000000   0.200000000   0.448981617    0   0   1
O0       0.000000000   0.500000000   0.497248649    0   0   1
O0       0.000000000   0.000000000   0.522948030    0   0   1
Cr1      0.250000000   0.000000000   0.567643662    0   0   1
Cr1      0.000000000   0.500000000   0.564745268    0   0   1
O0       0.250000000   0.700000000   0.574727141    0   0   1
O0       0.250000000   0.300000000   0.574701788    0   0   1
O0       0.000000000   0.000000000   0.617547377    0   0   1
O0       0.500000000   0.000000000   0.376872950    0   0   1
O0       0.500000000   0.500000000   0.398362403    0   0   1
Cr1      0.750000000   0.500000000   0.450275145    0   0   1
Cr1      0.500000000   0.000000000   0.448426582    0   0   1
O0       0.750000000   0.800000000   0.448882276    0   0   1
O0       0.750000000   0.200000000   0.448973717    0   0   1
O0       0.500000000   0.500000000   0.496103875    0   0   1
O0       0.500000000   0.000000000   0.522862983    0   0   1
Cr1      0.750000000   0.000000000   0.582724309    0   0   1
Cr1      0.500000000   0.500000000   0.589080128    0   0   1
O0       0.750000000   0.700000000   0.576335146    0   0   1
O0       0.750000000   0.300000000   0.576342330    0   0   1
O0       0.500000000   0.000000000   0.617394049    0   0   1
H2      -0.000896573   0.635426031   0.378539410
H2       0.499677691   0.638666202   0.379550520
H2       0.157851053   0.030359777   0.364094349
H2       0.656844399   0.032164521   0.363960143
O0       0.495895875   0.499757153   0.649029337
End final coordinates



     init_run     :    114.78s CPU    117.66s WALL (       1 calls)
     electrons    :  67973.13s CPU  71568.60s WALL (      12 calls)
     update_pot   :    195.41s CPU    202.80s WALL (      11 calls)
     forces       :   2378.35s CPU   2483.87s WALL (      12 calls)

     Called by init_run:
     wfcinit      :     49.61s CPU     51.48s WALL (       1 calls)
     potinit      :      7.61s CPU      7.90s WALL (       1 calls)

     Called by electrons:
     c_bands      :  37463.84s CPU  39523.48s WALL (     299 calls)
     sum_band     :  15744.45s CPU  16664.16s WALL (     299 calls)
     v_of_rho     :    647.78s CPU    749.50s WALL (     304 calls)
     newd         :  14249.52s CPU  14308.97s WALL (     304 calls)
     mix_rho      :    115.27s CPU    122.47s WALL (     299 calls)

     Called by c_bands:
     init_us_2    :     98.68s CPU     99.45s WALL (    3175 calls)
     cegterg      :  36346.21s CPU  37650.15s WALL (    1495 calls)

     Called by *egterg:
     h_psi        :  21415.17s CPU  22256.84s WALL (    3737 calls)
     s_psi        :   2236.24s CPU   2267.45s WALL (    3857 calls)
     g_psi        :     48.03s CPU     48.05s WALL (    2237 calls)
     cdiaghg      :   2890.68s CPU   2901.65s WALL (    3642 calls)

     Called by h_psi:
     add_vuspsi   :   2186.68s CPU   2220.51s WALL (    3737 calls)
     vhpsi        :   2232.85s CPU   2271.45s WALL (    3737 calls)

     General routines
     calbec       :   5084.34s CPU   5162.99s WALL (   27444 calls)
     fft          :    773.23s CPU   1001.26s WALL (    9588 calls)
     ffts         :      8.84s CPU      9.50s WALL (    1206 calls)
     fftw         :  11929.27s CPU  12994.73s WALL ( 2574249 calls)
     interpolate  :     86.19s CPU     88.36s WALL (    1206 calls)
     davcio       :      0.17s CPU     51.69s WALL (    3235 calls)

     Parallel routines
     fft_scatter  :   4786.37s CPU   6052.43s WALL ( 2585043 calls)
     Hubbard U routines
     new_ns       :    467.71s CPU    499.08s WALL (     299 calls)
     vhpsi        :   2232.85s CPU   2271.45s WALL (    3737 calls)
     force_hub    :    584.69s CPU    608.27s WALL (      12 calls)

     PWSCF        :    19h47m CPU       20h49m WALL


   This run was terminated on:  17:52:51   5May2014            

=------------------------------------------------------------------------------=
   JOB DONE.
=------------------------------------------------------------------------------=
