ScientificPython/2.8-dl160g6-numpy-1.7.1-1(15):ERROR:151: Module 'ScientificPython/2.8-dl160g6-numpy-1.7.1-1' depends on one of the module(s) 'numpy/1.7.1-dl160g6-gfortran-internal-1'
ScientificPython/2.8-dl160g6-numpy-1.7.1-1(15):ERROR:102: Tcl command execution failed: prereq numpy/1.7.1-dl160g6-gfortran-internal-1


     Program PWSCF v.5.0.2 (svn rev. 9656) starts on  8May2014 at 23:13:49 

     This program is part of the open-source Quantum ESPRESSO suite
     for quantum simulation of materials; please cite
         "P. Giannozzi et al., J. Phys.:Condens. Matter 21 395502 (2009);
          URL http://www.quantum-espresso.org", 
     in publications or presentations arising from this work. More details at
     http://www.quantum-espresso.org/quote.php

     Parallel version (MPI), running on    16 processors
     K-points division:     npool     =       4
     R & G space division:  proc/nbgrp/npool/nimage =       4

     Current dimensions of program PWSCF are:
     Max number of different atomic species (ntypx) = 10
     Max number of k-points (npk) =  40000
     Max angular momentum in pseudopotentials (lmaxx) =  3
     Reading input from pwscf.in
Warning: card &CELL ignored
Warning: card / ignored

     Subspace diagonalization in iterative solution of the eigenvalue problem:
     a serial algorithm will be used


     Parallelization info
     --------------------
     sticks:   dense  smooth     PW     G-vecs:    dense   smooth      PW
     Min        1424     456    126               337026    61014    9038
     Max        1425     457    127               337029    61047    9044
     Sum        5697    1827    505              1348107   244131   36167



     bravais-lattice index     =            0
     lattice parameter (alat)  =      11.7541  a.u.
     unit-cell volume          =    7139.8207 (a.u.)^3
     number of atoms/cell      =           30
     number of atomic types    =            3
     number of electrons       =       232.00
     number of Kohn-Sham states=          348
     kinetic-energy cutoff     =      40.0000  Ry
     charge density cutoff     =     500.0000  Ry
     convergence threshold     =      1.0E-06
     mixing beta               =       0.7000
     number of iterations used =            8  plain     mixing
     Exchange-correlation      = SLA  PW   PBE  PBE ( 1 4 3 4 0)
     EXX-fraction              =        0.00
     nstep                     =           50


     celldm(1)=  11.754097  celldm(2)=   0.000000  celldm(3)=   0.000000
     celldm(4)=   0.000000  celldm(5)=   0.000000  celldm(6)=   0.000000

     crystal axes: (cart. coord. in units of alat)
               a(1) = (   1.000000   0.000000   0.000000 )  
               a(2) = (   0.000000   1.034513   0.000000 )  
               a(3) = (   0.000000   0.000000   4.249947 )  

     reciprocal axes: (cart. coord. in units 2 pi/alat)
               b(1) = (  1.000000  0.000000  0.000000 )  
               b(2) = (  0.000000  0.966638  0.000000 )  
               b(3) = (  0.000000  0.000000  0.235297 )  


     PseudoPot. # 1 for O  read from file:
     /home/camp/zhonxu/pseudo/o_pbe_v1.01.uspp.F.UPF
     MD5 check sum: 2bcb18d16ea4b960afae9ec6d52f22d2
     Pseudo is Ultrasoft + core correction, Zval =  6.0
     Generated by new atomic code, or converted to UPF format
     Using radial grid of  737 points,  5 beta functions with: 
                l(1) =   0
                l(2) =   0
                l(3) =   1
                l(4) =   1
                l(5) =   2
     Q(r) pseudized with  8 coefficients,  rinner =    0.900   0.900   0.900
                                                       0.900   0.900

     PseudoPot. # 2 for Rh read from file:
     /home/camp/zhonxu/pseudo/rh_pbe_v1.uspp.F.UPF
     MD5 check sum: 37b626987ad0dd8ec6bf4cc9ef289918
     Pseudo is Ultrasoft + core correction, Zval = 15.0
     Generated by new atomic code, or converted to UPF format
     Using radial grid of  969 points,  7 beta functions with: 
                l(1) =   0
                l(2) =   0
                l(3) =   1
                l(4) =   1
                l(5) =   2
                l(6) =   2
                l(7) =   2
     Q(r) pseudized with  6 coefficients,  rinner =    1.050   1.050   1.050
                                                       1.050   1.050

     PseudoPot. # 3 for H  read from file:
     /home/camp/zhonxu/pseudo/h_pbe_v1.uspp.F.UPF
     MD5 check sum: 3408e3ff4ec8b0a4e358431e7e038a48
     Pseudo is Ultrasoft, Zval =  1.0
     Generated by new atomic code, or converted to UPF format
     Using radial grid of  615 points,  2 beta functions with: 
                l(1) =   0
                l(2) =   0
     Q(r) pseudized with  8 coefficients,  rinner =    0.700

     atomic species   valence    mass     pseudopotential
        O0             6.00    15.99940     O ( 1.00)
        Rh1           15.00   102.90550     Rh( 1.00)
        H2             1.00     1.00794     H ( 1.00)


     Simplified LDA+U calculation (l_max = 2) with parameters (eV):
     atomic species    L          U    alpha       J0     beta
        Rh1            2     0.5000   0.0000   0.0000   0.0000



     No symmetry found



   Cartesian axes

     site n.     atom                  positions (alat units)
         1           O0  tau(   1) = (   0.0000000   0.0000000   1.6092425  )
         2           O0  tau(   2) = (   0.0000000   0.5172566   1.7020614  )
         3           Rh1 tau(   3) = (   0.2500000   0.5172566   1.9209336  )
         4           Rh1 tau(   4) = (   0.0000000   0.0000000   1.9260761  )
         5           O0  tau(   5) = (   0.2500000   0.8379556   1.9243336  )
         6           O0  tau(   6) = (   0.2500000   0.1965575   1.9234411  )
         7           O0  tau(   7) = (   0.0000000   0.5172566   2.1185137  )
         8           O0  tau(   8) = (   0.0000000   0.0000000   2.2473721  )
         9           Rh1 tau(   9) = (   0.2500000   0.0000000   2.4498821  )
        10           Rh1 tau(  10) = (   0.0000000   0.5172566   2.4276124  )
        11           O0  tau(  11) = (   0.2500000   0.7138141   2.4560020  )
        12           O0  tau(  12) = (   0.2500000   0.3206991   2.4560870  )
        13           O0  tau(  13) = (   0.0000000   0.0000000   2.6421072  )
        14           O0  tau(  14) = (   0.5000000   0.0000000   1.6092425  )
        15           O0  tau(  15) = (   0.5000000   0.5172566   1.7020614  )
        16           Rh1 tau(  16) = (   0.7500000   0.5172566   1.9209336  )
        17           Rh1 tau(  17) = (   0.5000000   0.0000000   1.9260761  )
        18           O0  tau(  18) = (   0.7500000   0.8379556   1.9243336  )
        19           O0  tau(  19) = (   0.7500000   0.1965575   1.9234411  )
        20           O0  tau(  20) = (   0.5000000   0.5172566   2.1185137  )
        21           O0  tau(  21) = (   0.5000000   0.0000000   2.2473721  )
        22           Rh1 tau(  22) = (   0.7500000   0.0000000   2.4498821  )
        23           Rh1 tau(  23) = (   0.5000000   0.5172566   2.4276124  )
        24           O0  tau(  24) = (   0.7500000   0.7138141   2.4560020  )
        25           O0  tau(  25) = (   0.7500000   0.3206991   2.4560870  )
        26           O0  tau(  26) = (   0.5000000   0.0000000   2.6421072  )
        27           H2  tau(  27) = (  -0.0000700   0.6610229   1.6318947  )
        28           H2  tau(  28) = (   0.4999300   0.6610125   1.6318947  )
        29           H2  tau(  29) = (   0.1484400   0.0336527   1.5632581  )
        30           H2  tau(  30) = (   0.6484400   0.0336527   1.5632581  )

     number of k points=    10  Methfessel-Paxton smearing, width (Ry)=  0.0100
                       cart. coord. in units 2pi/alat
        k(    1) = (   0.0000000   0.0000000   0.0000000), wk =   0.1250000
        k(    2) = (   0.0000000   0.2416596   0.0000000), wk =   0.2500000
        k(    3) = (   0.0000000  -0.4833191   0.0000000), wk =   0.1250000
        k(    4) = (   0.2500000   0.0000000   0.0000000), wk =   0.2500000
        k(    5) = (   0.2500000   0.2416596   0.0000000), wk =   0.2500000
        k(    6) = (   0.2500000  -0.4833191   0.0000000), wk =   0.2500000
        k(    7) = (  -0.5000000   0.0000000   0.0000000), wk =   0.1250000
        k(    8) = (  -0.5000000   0.2416596   0.0000000), wk =   0.2500000
        k(    9) = (  -0.5000000  -0.4833191   0.0000000), wk =   0.1250000
        k(   10) = (  -0.2500000   0.2416596   0.0000000), wk =   0.2500000

     Dense  grid:  1348107 G-vectors     FFT dimensions: (  90,  90, 360)

     Smooth grid:   244131 G-vectors     FFT dimensions: (  48,  50, 216)

     Largest allocated arrays     est. size (Mb)     dimensions
        Kohn-Sham Wavefunctions        40.77 Mb     (   7677,  348)
        Atomic wavefunctions           20.15 Mb     (   7677,  172)
        NL pseudopotentials            49.90 Mb     (   7677,  426)
        Each V/rho on FFT grid         11.12 Mb     ( 729000)
        Each G-vector array             2.57 Mb     ( 337026)
        G-vector shells                 1.12 Mb     ( 146445)
     Largest temporary arrays     est. size (Mb)     dimensions
        Auxiliary wavefunctions       163.06 Mb     (   7677, 1392)
        Each subspace H/S matrix       29.57 Mb     (1392,1392)
        Each <psi_i|beta_j> matrix      2.26 Mb     (    426,  348)
        Arrays for rho mixing          88.99 Mb     ( 729000,   8)

     Check: negative/imaginary core charge=   -0.000002    0.000000

     Initial potential from superposition of free atoms
     Check: negative starting charge=   -0.642992

     starting charge  227.99915, renormalised to  232.00000

     negative rho (up, down):  0.654E+00 0.000E+00
     Number of +U iterations with fixed ns =  0
     Starting occupations:
 --- enter write_ns ---
 LDA+U parameters:
U( 2)     =  0.50000000
alpha( 2) =  0.00000000
atom    3   Tr[ns(na)] =   7.00000
    eigenvalues: 
  0.700  0.700  0.700  0.700  0.700
    eigenvectors:
  1.000  0.000  0.000  0.000  0.000
  0.000  1.000  0.000  0.000  0.000
  0.000  0.000  1.000  0.000  0.000
  0.000  0.000  0.000  1.000  0.000
  0.000  0.000  0.000  0.000  1.000
    occupations:
  0.700  0.000  0.000  0.000  0.000
  0.000  0.700  0.000  0.000  0.000
  0.000  0.000  0.700  0.000  0.000
  0.000  0.000  0.000  0.700  0.000
  0.000  0.000  0.000  0.000  0.700
atom    4   Tr[ns(na)] =   7.00000
    eigenvalues: 
  0.700  0.700  0.700  0.700  0.700
    eigenvectors:
  1.000  0.000  0.000  0.000  0.000
  0.000  1.000  0.000  0.000  0.000
  0.000  0.000  1.000  0.000  0.000
  0.000  0.000  0.000  1.000  0.000
  0.000  0.000  0.000  0.000  1.000
    occupations:
  0.700  0.000  0.000  0.000  0.000
  0.000  0.700  0.000  0.000  0.000
  0.000  0.000  0.700  0.000  0.000
  0.000  0.000  0.000  0.700  0.000
  0.000  0.000  0.000  0.000  0.700
atom    9   Tr[ns(na)] =   7.00000
    eigenvalues: 
  0.700  0.700  0.700  0.700  0.700
    eigenvectors:
  1.000  0.000  0.000  0.000  0.000
  0.000  1.000  0.000  0.000  0.000
  0.000  0.000  1.000  0.000  0.000
  0.000  0.000  0.000  1.000  0.000
  0.000  0.000  0.000  0.000  1.000
    occupations:
  0.700  0.000  0.000  0.000  0.000
  0.000  0.700  0.000  0.000  0.000
  0.000  0.000  0.700  0.000  0.000
  0.000  0.000  0.000  0.700  0.000
  0.000  0.000  0.000  0.000  0.700
atom   10   Tr[ns(na)] =   7.00000
    eigenvalues: 
  0.700  0.700  0.700  0.700  0.700
    eigenvectors:
  1.000  0.000  0.000  0.000  0.000
  0.000  1.000  0.000  0.000  0.000
  0.000  0.000  1.000  0.000  0.000
  0.000  0.000  0.000  1.000  0.000
  0.000  0.000  0.000  0.000  1.000
    occupations:
  0.700  0.000  0.000  0.000  0.000
  0.000  0.700  0.000  0.000  0.000
  0.000  0.000  0.700  0.000  0.000
  0.000  0.000  0.000  0.700  0.000
  0.000  0.000  0.000  0.000  0.700
atom   16   Tr[ns(na)] =   7.00000
    eigenvalues: 
  0.700  0.700  0.700  0.700  0.700
    eigenvectors:
  1.000  0.000  0.000  0.000  0.000
  0.000  1.000  0.000  0.000  0.000
  0.000  0.000  1.000  0.000  0.000
  0.000  0.000  0.000  1.000  0.000
  0.000  0.000  0.000  0.000  1.000
    occupations:
  0.700  0.000  0.000  0.000  0.000
  0.000  0.700  0.000  0.000  0.000
  0.000  0.000  0.700  0.000  0.000
  0.000  0.000  0.000  0.700  0.000
  0.000  0.000  0.000  0.000  0.700
atom   17   Tr[ns(na)] =   7.00000
    eigenvalues: 
  0.700  0.700  0.700  0.700  0.700
    eigenvectors:
  1.000  0.000  0.000  0.000  0.000
  0.000  1.000  0.000  0.000  0.000
  0.000  0.000  1.000  0.000  0.000
  0.000  0.000  0.000  1.000  0.000
  0.000  0.000  0.000  0.000  1.000
    occupations:
  0.700  0.000  0.000  0.000  0.000
  0.000  0.700  0.000  0.000  0.000
  0.000  0.000  0.700  0.000  0.000
  0.000  0.000  0.000  0.700  0.000
  0.000  0.000  0.000  0.000  0.700
atom   22   Tr[ns(na)] =   7.00000
    eigenvalues: 
  0.700  0.700  0.700  0.700  0.700
    eigenvectors:
  1.000  0.000  0.000  0.000  0.000
  0.000  1.000  0.000  0.000  0.000
  0.000  0.000  1.000  0.000  0.000
  0.000  0.000  0.000  1.000  0.000
  0.000  0.000  0.000  0.000  1.000
    occupations:
  0.700  0.000  0.000  0.000  0.000
  0.000  0.700  0.000  0.000  0.000
  0.000  0.000  0.700  0.000  0.000
  0.000  0.000  0.000  0.700  0.000
  0.000  0.000  0.000  0.000  0.700
atom   23   Tr[ns(na)] =   7.00000
    eigenvalues: 
  0.700  0.700  0.700  0.700  0.700
    eigenvectors:
  1.000  0.000  0.000  0.000  0.000
  0.000  1.000  0.000  0.000  0.000
  0.000  0.000  1.000  0.000  0.000
  0.000  0.000  0.000  1.000  0.000
  0.000  0.000  0.000  0.000  1.000
    occupations:
  0.700  0.000  0.000  0.000  0.000
  0.000  0.700  0.000  0.000  0.000
  0.000  0.000  0.700  0.000  0.000
  0.000  0.000  0.000  0.700  0.000
  0.000  0.000  0.000  0.000  0.700
N of occupied +U levels =  56.0000000
 --- exit write_ns ---
 Atomic wfc used for LDA+U Projector are NOT orthogonalized
     Starting wfc are  172 randomized atomic wfcs

     total cpu time spent up to now is      142.1 secs

     per-process dynamical memory:   418.7 Mb

     Self-consistent Calculation

     iteration #  1     ecut=    40.00 Ry     beta=0.70
     Davidson diagonalization with overlap
     ethr =  1.00E-02,  avg # of iterations =  5.8
 --- enter write_ns ---
 LDA+U parameters:
U( 2)     =  0.50000000
alpha( 2) =  0.00000000
atom    3   Tr[ns(na)] =   6.13085
    eigenvalues: 
  0.403  0.436  0.630  0.735  0.861
    eigenvectors:
  0.000  0.231  0.017  0.753  0.000
  1.000  0.000  0.000  0.000  0.000
  0.000  0.000  0.977  0.023  0.000
  0.000  0.769  0.006  0.224  0.000
  0.000  0.000  0.000  0.000  1.000
    occupations:
  0.665  0.000  0.015 -0.125  0.000
  0.000  0.403  0.000  0.000 -0.005
  0.015  0.000  0.632 -0.006  0.001
 -0.125  0.000 -0.006  0.504 -0.000
  0.000 -0.005  0.001 -0.000  0.861
atom    4   Tr[ns(na)] =   5.68191
    eigenvalues: 
  0.431  0.449  0.451  0.658  0.852
    eigenvectors:
  0.000  0.397  0.597  0.000  0.007
  0.000  0.007  0.004  0.989  0.000
  0.000  0.594  0.394  0.011  0.000
  0.000  0.002  0.005  0.000  0.993
  1.000  0.000  0.000  0.000  0.000
    occupations:
  0.453 -0.001  0.001  0.033  0.000
 -0.001  0.656  0.022  0.000 -0.001
  0.001  0.022  0.452  0.005  0.000
  0.033  0.000  0.005  0.850 -0.000
  0.000 -0.001  0.000 -0.000  0.431
atom    9   Tr[ns(na)] =   7.55505
    eigenvalues: 
  0.446  0.460  0.941  0.961  0.969
    eigenvectors:
  0.000  0.163  0.000  0.000  0.837
  0.999  0.001  0.000  0.000  0.000
  0.000  0.000  0.000  1.000  0.000
  0.001  0.836  0.000  0.000  0.163
  0.000  0.000  1.000  0.000  0.000
    occupations:
  0.886  0.000  0.000 -0.188  0.000
  0.000  0.446  0.001  0.000 -0.000
  0.000  0.001  0.961 -0.000 -0.000
 -0.188  0.000 -0.000  0.543  0.000
  0.000 -0.000 -0.000  0.000  0.941
atom   10   Tr[ns(na)] =   7.81684
    eigenvalues: 
  0.438  0.574  0.963  0.967  0.967
    eigenvectors:
  0.000  0.991  0.009  0.000  0.000
  0.000  0.000  0.000  0.995  0.005
  0.000  0.000  0.000  0.005  0.995
  0.000  0.009  0.991  0.000  0.000
  1.000  0.000  0.000  0.000  0.000
    occupations:
  0.577  0.000  0.002  0.037 -0.000
  0.000  0.967 -0.000 -0.000  0.000
  0.002 -0.000  0.967 -0.000  0.000
  0.037 -0.000 -0.000  0.960 -0.000
 -0.000  0.000  0.000 -0.000  0.438
atom   16   Tr[ns(na)] =   6.13086
    eigenvalues: 
  0.403  0.436  0.630  0.735  0.861
    eigenvectors:
  0.000  0.231  0.017  0.753  0.000
  1.000  0.000  0.000  0.000  0.000
  0.000  0.000  0.977  0.023  0.000
  0.000  0.769  0.006  0.224  0.000
  0.000  0.000  0.000  0.000  1.000
    occupations:
  0.665  0.000  0.015 -0.125  0.000
  0.000  0.403  0.000  0.000 -0.005
  0.015  0.000  0.632 -0.006  0.001
 -0.125  0.000 -0.006  0.504 -0.000
  0.000 -0.005  0.001 -0.000  0.861
atom   17   Tr[ns(na)] =   5.68190
    eigenvalues: 
  0.431  0.449  0.451  0.658  0.852
    eigenvectors:
  0.000  0.394  0.599  0.000  0.007
  0.000  0.007  0.004  0.989  0.000
  0.000  0.597  0.392  0.011  0.000
  0.000  0.002  0.005  0.000  0.993
  0.999  0.000  0.000  0.000  0.000
    occupations:
  0.453 -0.001  0.001  0.033  0.000
 -0.001  0.656  0.022  0.000 -0.001
  0.001  0.022  0.452  0.005  0.000
  0.033  0.000  0.005  0.850 -0.000
  0.000 -0.001  0.000 -0.000  0.431
atom   22   Tr[ns(na)] =   7.55505
    eigenvalues: 
  0.446  0.460  0.941  0.961  0.969
    eigenvectors:
  0.000  0.163  0.000  0.000  0.837
  0.999  0.001  0.000  0.000  0.000
  0.000  0.000  0.000  1.000  0.000
  0.001  0.836  0.000  0.000  0.163
  0.000  0.000  1.000  0.000  0.000
    occupations:
  0.886  0.000  0.000 -0.188  0.000
  0.000  0.446  0.001  0.000 -0.000
  0.000  0.001  0.961 -0.000 -0.000
 -0.188  0.000 -0.000  0.543  0.000
  0.000 -0.000 -0.000  0.000  0.941
atom   23   Tr[ns(na)] =   7.81683
    eigenvalues: 
  0.438  0.574  0.963  0.967  0.967
    eigenvectors:
  0.000  0.991  0.009  0.000  0.000
  0.000  0.000  0.000  0.995  0.005
  0.000  0.000  0.000  0.005  0.995
  0.000  0.009  0.991  0.000  0.000
  1.000  0.000  0.000  0.000  0.000
    occupations:
  0.577  0.000  0.002  0.037 -0.000
  0.000  0.967 -0.000 -0.000  0.000
  0.002 -0.000  0.967 -0.000  0.000
  0.037 -0.000 -0.000  0.960 -0.000
 -0.000  0.000  0.000 -0.000  0.438
N of occupied +U levels =  54.3692847
 --- exit write_ns ---

     negative rho (up, down):  0.674E+00 0.000E+00

     total cpu time spent up to now is      567.2 secs

     total energy              =   -1929.46248843 Ry
     Harris-Foulkes estimate   =   -1951.26112170 Ry
     estimated scf accuracy    <      25.60569655 Ry

     iteration #  2     ecut=    40.00 Ry     beta=0.70
     Davidson diagonalization with overlap
     ethr =  1.00E-02,  avg # of iterations =  5.0

     negative rho (up, down):  0.580E+00 0.000E+00

     total cpu time spent up to now is      969.2 secs

     total energy              =   -1821.45354904 Ry
     Harris-Foulkes estimate   =   -2086.82414561 Ry
     estimated scf accuracy    <    3066.98413387 Ry

     iteration #  3     ecut=    40.00 Ry     beta=0.70
     Davidson diagonalization with overlap
     ethr =  1.00E-02,  avg # of iterations =  5.0

     negative rho (up, down):  0.550E+00 0.000E+00

     total cpu time spent up to now is     1356.1 secs

     total energy              =   -1931.64645071 Ry
     Harris-Foulkes estimate   =   -1971.68439459 Ry
     estimated scf accuracy    <     263.54261072 Ry

     iteration #  4     ecut=    40.00 Ry     beta=0.70
     Davidson diagonalization with overlap
     ethr =  1.00E-02,  avg # of iterations =  3.2

     negative rho (up, down):  0.563E+00 0.000E+00

     total cpu time spent up to now is     1609.7 secs

     total energy              =   -1945.60362407 Ry
     Harris-Foulkes estimate   =   -1950.73944041 Ry
     estimated scf accuracy    <      22.13952753 Ry

     iteration #  5     ecut=    40.00 Ry     beta=0.70
     Davidson diagonalization with overlap
     ethr =  9.54E-03,  avg # of iterations =  1.0

     negative rho (up, down):  0.589E+00 0.000E+00

     total cpu time spent up to now is     1833.9 secs

     total energy              =   -1947.68756117 Ry
     Harris-Foulkes estimate   =   -1948.95736853 Ry
     estimated scf accuracy    <      18.95108359 Ry

     iteration #  6     ecut=    40.00 Ry     beta=0.70
     Davidson diagonalization with overlap
     ethr =  8.17E-03,  avg # of iterations =  1.0

     negative rho (up, down):  0.603E+00 0.000E+00

     total cpu time spent up to now is     2057.4 secs

     total energy              =   -1948.02819988 Ry
     Harris-Foulkes estimate   =   -1948.38113362 Ry
     estimated scf accuracy    <       3.60699170 Ry

     iteration #  7     ecut=    40.00 Ry     beta=0.70
     Davidson diagonalization with overlap
     ethr =  1.55E-03,  avg # of iterations =  3.2

     negative rho (up, down):  0.609E+00 0.000E+00

     total cpu time spent up to now is     2296.5 secs

     total energy              =   -1948.05254984 Ry
     Harris-Foulkes estimate   =   -1948.16176386 Ry
     estimated scf accuracy    <       0.77500918 Ry

     iteration #  8     ecut=    40.00 Ry     beta=0.70
     Davidson diagonalization with overlap
     ethr =  3.34E-04,  avg # of iterations =  4.5

     negative rho (up, down):  0.625E+00 0.000E+00

     total cpu time spent up to now is     2552.6 secs

     total energy              =   -1948.04948887 Ry
     Harris-Foulkes estimate   =   -1948.26979205 Ry
     estimated scf accuracy    <       5.46670229 Ry

     iteration #  9     ecut=    40.00 Ry     beta=0.70
     Davidson diagonalization with overlap
     ethr =  3.34E-04,  avg # of iterations =  1.4

     negative rho (up, down):  0.644E+00 0.000E+00

     total cpu time spent up to now is     2784.5 secs

     total energy              =   -1948.04106063 Ry
     Harris-Foulkes estimate   =   -1948.12030480 Ry
     estimated scf accuracy    <       1.32229356 Ry

     iteration # 10     ecut=    40.00 Ry     beta=0.70
     Davidson diagonalization with overlap
     ethr =  3.34E-04,  avg # of iterations =  2.3

     negative rho (up, down):  0.670E+00 0.000E+00

     total cpu time spent up to now is     3018.8 secs

     total energy              =   -1948.01098584 Ry
     Harris-Foulkes estimate   =   -1948.12205467 Ry
     estimated scf accuracy    <       1.25634732 Ry

     iteration # 11     ecut=    40.00 Ry     beta=0.70
     Davidson diagonalization with overlap
     ethr =  3.34E-04,  avg # of iterations =  5.0

     negative rho (up, down):  0.681E+00 0.000E+00

     total cpu time spent up to now is     3270.4 secs

     total energy              =   -1948.02059857 Ry
     Harris-Foulkes estimate   =   -1948.07301628 Ry
     estimated scf accuracy    <       0.36813280 Ry

     iteration # 12     ecut=    40.00 Ry     beta=0.70
     Davidson diagonalization with overlap
     ethr =  1.59E-04,  avg # of iterations =  5.1

     negative rho (up, down):  0.684E+00 0.000E+00

     total cpu time spent up to now is     3522.7 secs

     total energy              =   -1948.02687124 Ry
     Harris-Foulkes estimate   =   -1948.06414459 Ry
     estimated scf accuracy    <       0.62169228 Ry

     iteration # 13     ecut=    40.00 Ry     beta=0.70
     Davidson diagonalization with overlap
     ethr =  1.59E-04,  avg # of iterations =  1.0

     negative rho (up, down):  0.685E+00 0.000E+00

     total cpu time spent up to now is     3755.2 secs

     total energy              =   -1948.03483551 Ry
     Harris-Foulkes estimate   =   -1948.04994211 Ry
     estimated scf accuracy    <       0.05044221 Ry

     iteration # 14     ecut=    40.00 Ry     beta=0.70
     Davidson diagonalization with overlap
     ethr =  2.17E-05,  avg # of iterations =  4.7

     negative rho (up, down):  0.686E+00 0.000E+00

     total cpu time spent up to now is     4023.8 secs

     total energy              =   -1948.02466735 Ry
     Harris-Foulkes estimate   =   -1948.06198282 Ry
     estimated scf accuracy    <       0.17924119 Ry

     iteration # 15     ecut=    40.00 Ry     beta=0.70
     Davidson diagonalization with overlap
     ethr =  2.17E-05,  avg # of iterations =  5.1

     negative rho (up, down):  0.686E+00 0.000E+00

     total cpu time spent up to now is     4289.8 secs

     total energy              =   -1948.03395414 Ry
     Harris-Foulkes estimate   =   -1948.05676356 Ry
     estimated scf accuracy    <       0.14440915 Ry

     iteration # 16     ecut=    40.00 Ry     beta=0.70
     Davidson diagonalization with overlap
     ethr =  2.17E-05,  avg # of iterations =  3.1

     negative rho (up, down):  0.688E+00 0.000E+00

     total cpu time spent up to now is     4524.8 secs

     total energy              =   -1948.04141455 Ry
     Harris-Foulkes estimate   =   -1948.04768197 Ry
     estimated scf accuracy    <       0.03726192 Ry

     iteration # 17     ecut=    40.00 Ry     beta=0.70
     Davidson diagonalization with overlap
     ethr =  1.61E-05,  avg # of iterations =  1.0

     negative rho (up, down):  0.689E+00 0.000E+00

     total cpu time spent up to now is     4751.8 secs

     total energy              =   -1948.04212905 Ry
     Harris-Foulkes estimate   =   -1948.04761362 Ry
     estimated scf accuracy    <       0.04793819 Ry

     iteration # 18     ecut=    40.00 Ry     beta=0.70
     Davidson diagonalization with overlap
     ethr =  1.61E-05,  avg # of iterations =  1.0

     negative rho (up, down):  0.688E+00 0.000E+00

     total cpu time spent up to now is     4984.2 secs

     total energy              =   -1948.04427712 Ry
     Harris-Foulkes estimate   =   -1948.04582763 Ry
     estimated scf accuracy    <       0.01459892 Ry

     iteration # 19     ecut=    40.00 Ry     beta=0.70
     Davidson diagonalization with overlap
     ethr =  6.29E-06,  avg # of iterations =  2.1

     negative rho (up, down):  0.688E+00 0.000E+00

     total cpu time spent up to now is     5212.5 secs

     total energy              =   -1948.04458752 Ry
     Harris-Foulkes estimate   =   -1948.04558948 Ry
     estimated scf accuracy    <       0.01151342 Ry

     iteration # 20     ecut=    40.00 Ry     beta=0.70
     Davidson diagonalization with overlap
     ethr =  4.96E-06,  avg # of iterations =  1.0

     negative rho (up, down):  0.688E+00 0.000E+00

     total cpu time spent up to now is     5445.8 secs

     total energy              =   -1948.04478093 Ry
     Harris-Foulkes estimate   =   -1948.04543690 Ry
     estimated scf accuracy    <       0.00436914 Ry

     iteration # 21     ecut=    40.00 Ry     beta=0.70
     Davidson diagonalization with overlap
     ethr =  1.88E-06,  avg # of iterations =  1.6

     negative rho (up, down):  0.689E+00 0.000E+00

     total cpu time spent up to now is     5675.1 secs

     total energy              =   -1948.04494109 Ry
     Harris-Foulkes estimate   =   -1948.04527457 Ry
     estimated scf accuracy    <       0.00266451 Ry

     iteration # 22     ecut=    40.00 Ry     beta=0.70
     Davidson diagonalization with overlap
     ethr =  1.15E-06,  avg # of iterations =  1.0

     negative rho (up, down):  0.689E+00 0.000E+00

     total cpu time spent up to now is     5897.3 secs

     total energy              =   -1948.04461833 Ry
     Harris-Foulkes estimate   =   -1948.04563996 Ry
     estimated scf accuracy    <       0.01389011 Ry

     iteration # 23     ecut=    40.00 Ry     beta=0.70
     Davidson diagonalization with overlap
     ethr =  1.15E-06,  avg # of iterations =  1.0

     negative rho (up, down):  0.689E+00 0.000E+00

     total cpu time spent up to now is     6122.1 secs

     total energy              =   -1948.04509821 Ry
     Harris-Foulkes estimate   =   -1948.04515278 Ry
     estimated scf accuracy    <       0.00036595 Ry

     iteration # 24     ecut=    40.00 Ry     beta=0.70
     Davidson diagonalization with overlap
     ethr =  1.58E-07,  avg # of iterations =  1.0

     negative rho (up, down):  0.689E+00 0.000E+00

     total cpu time spent up to now is     6349.6 secs

     total energy              =   -1948.04511245 Ry
     Harris-Foulkes estimate   =   -1948.04514975 Ry
     estimated scf accuracy    <       0.00027551 Ry

     iteration # 25     ecut=    40.00 Ry     beta=0.70
     Davidson diagonalization with overlap
     ethr =  1.19E-07,  avg # of iterations =  1.0

     negative rho (up, down):  0.689E+00 0.000E+00

     total cpu time spent up to now is     6575.5 secs

     total energy              =   -1948.04511141 Ry
     Harris-Foulkes estimate   =   -1948.04515082 Ry
     estimated scf accuracy    <       0.00028552 Ry

     iteration # 26     ecut=    40.00 Ry     beta=0.70
     Davidson diagonalization with overlap
     ethr =  1.19E-07,  avg # of iterations =  1.0

     negative rho (up, down):  0.689E+00 0.000E+00

     total cpu time spent up to now is     6802.0 secs

     total energy              =   -1948.04512595 Ry
     Harris-Foulkes estimate   =   -1948.04513932 Ry
     estimated scf accuracy    <       0.00008911 Ry

     iteration # 27     ecut=    40.00 Ry     beta=0.70
     Davidson diagonalization with overlap
     ethr =  3.84E-08,  avg # of iterations =  1.0

     negative rho (up, down):  0.689E+00 0.000E+00

     total cpu time spent up to now is     7032.1 secs

     total energy              =   -1948.04512212 Ry
     Harris-Foulkes estimate   =   -1948.04514171 Ry
     estimated scf accuracy    <       0.00016990 Ry

     iteration # 28     ecut=    40.00 Ry     beta=0.70
     Davidson diagonalization with overlap
     ethr =  3.84E-08,  avg # of iterations =  1.0

     negative rho (up, down):  0.689E+00 0.000E+00

     total cpu time spent up to now is     7259.2 secs

     total energy              =   -1948.04512627 Ry
     Harris-Foulkes estimate   =   -1948.04513874 Ry
     estimated scf accuracy    <       0.00013384 Ry

     iteration # 29     ecut=    40.00 Ry     beta=0.70
     Davidson diagonalization with overlap
     ethr =  3.84E-08,  avg # of iterations =  1.0

     negative rho (up, down):  0.689E+00 0.000E+00

     total cpu time spent up to now is     7489.1 secs

     total energy              =   -1948.04512728 Ry
     Harris-Foulkes estimate   =   -1948.04513817 Ry
     estimated scf accuracy    <       0.00010274 Ry

     iteration # 30     ecut=    40.00 Ry     beta=0.70
     Davidson diagonalization with overlap
     ethr =  3.84E-08,  avg # of iterations =  1.0

     negative rho (up, down):  0.689E+00 0.000E+00

     total cpu time spent up to now is     7719.5 secs

     total energy              =   -1948.04512945 Ry
     Harris-Foulkes estimate   =   -1948.04513553 Ry
     estimated scf accuracy    <       0.00004853 Ry

     iteration # 31     ecut=    40.00 Ry     beta=0.70
     Davidson diagonalization with overlap
     ethr =  2.09E-08,  avg # of iterations =  1.0

     negative rho (up, down):  0.689E+00 0.000E+00

     total cpu time spent up to now is     7948.5 secs

     total energy              =   -1948.04512866 Ry
     Harris-Foulkes estimate   =   -1948.04513730 Ry
     estimated scf accuracy    <       0.00010545 Ry

     iteration # 32     ecut=    40.00 Ry     beta=0.70
     Davidson diagonalization with overlap
     ethr =  2.09E-08,  avg # of iterations =  1.0

     negative rho (up, down):  0.689E+00 0.000E+00

     total cpu time spent up to now is     8177.9 secs

     total energy              =   -1948.04512951 Ry
     Harris-Foulkes estimate   =   -1948.04513488 Ry
     estimated scf accuracy    <       0.00004391 Ry

     iteration # 33     ecut=    40.00 Ry     beta=0.70
     Davidson diagonalization with overlap
     ethr =  1.89E-08,  avg # of iterations =  1.0

     negative rho (up, down):  0.689E+00 0.000E+00

     total cpu time spent up to now is     8402.1 secs

     total energy              =   -1948.04512405 Ry
     Harris-Foulkes estimate   =   -1948.04514152 Ry
     estimated scf accuracy    <       0.00019057 Ry

     iteration # 34     ecut=    40.00 Ry     beta=0.70
     Davidson diagonalization with overlap
     ethr =  1.89E-08,  avg # of iterations =  1.0

     negative rho (up, down):  0.689E+00 0.000E+00

     total cpu time spent up to now is     8626.5 secs

     total energy              =   -1948.04513119 Ry
     Harris-Foulkes estimate   =   -1948.04513457 Ry
     estimated scf accuracy    <       0.00003572 Ry

     iteration # 35     ecut=    40.00 Ry     beta=0.70
     Davidson diagonalization with overlap
     ethr =  1.54E-08,  avg # of iterations =  1.0

     negative rho (up, down):  0.689E+00 0.000E+00

     total cpu time spent up to now is     8850.4 secs

     total energy              =   -1948.04513164 Ry
     Harris-Foulkes estimate   =   -1948.04513382 Ry
     estimated scf accuracy    <       0.00001516 Ry

     iteration # 36     ecut=    40.00 Ry     beta=0.70
     Davidson diagonalization with overlap
     ethr =  6.53E-09,  avg # of iterations =  1.0

     negative rho (up, down):  0.689E+00 0.000E+00

     total cpu time spent up to now is     9074.1 secs

     total energy              =   -1948.04513219 Ry
     Harris-Foulkes estimate   =   -1948.04513345 Ry
     estimated scf accuracy    <       0.00000846 Ry

     iteration # 37     ecut=    40.00 Ry     beta=0.70
     Davidson diagonalization with overlap
     ethr =  3.64E-09,  avg # of iterations =  1.0

     negative rho (up, down):  0.689E+00 0.000E+00

     total cpu time spent up to now is     9300.7 secs

     total energy              =   -1948.04513098 Ry
     Harris-Foulkes estimate   =   -1948.04513455 Ry
     estimated scf accuracy    <       0.00003111 Ry

     iteration # 38     ecut=    40.00 Ry     beta=0.70
     Davidson diagonalization with overlap
     ethr =  3.64E-09,  avg # of iterations =  1.0

     negative rho (up, down):  0.689E+00 0.000E+00

     total cpu time spent up to now is     9524.6 secs

     total energy              =   -1948.04513160 Ry
     Harris-Foulkes estimate   =   -1948.04513402 Ry
     estimated scf accuracy    <       0.00002713 Ry

     iteration # 39     ecut=    40.00 Ry     beta=0.70
     Davidson diagonalization with overlap
     ethr =  3.64E-09,  avg # of iterations =  1.0

     negative rho (up, down):  0.689E+00 0.000E+00

     total cpu time spent up to now is     9750.2 secs

     total energy              =   -1948.04513133 Ry
     Harris-Foulkes estimate   =   -1948.04513423 Ry
     estimated scf accuracy    <       0.00002708 Ry

     iteration # 40     ecut=    40.00 Ry     beta=0.70
     Davidson diagonalization with overlap
     ethr =  3.64E-09,  avg # of iterations =  1.0

     negative rho (up, down):  0.689E+00 0.000E+00

     total cpu time spent up to now is     9977.2 secs

     total energy              =   -1948.04513144 Ry
     Harris-Foulkes estimate   =   -1948.04513424 Ry
     estimated scf accuracy    <       0.00002752 Ry

     iteration # 41     ecut=    40.00 Ry     beta=0.70
     Davidson diagonalization with overlap
     ethr =  3.64E-09,  avg # of iterations =  1.0

     negative rho (up, down):  0.689E+00 0.000E+00

     total cpu time spent up to now is    10202.6 secs

     total energy              =   -1948.04513224 Ry
     Harris-Foulkes estimate   =   -1948.04513344 Ry
     estimated scf accuracy    <       0.00001301 Ry

     iteration # 42     ecut=    40.00 Ry     beta=0.70
     Davidson diagonalization with overlap
     ethr =  3.64E-09,  avg # of iterations =  1.0

     negative rho (up, down):  0.689E+00 0.000E+00

     total cpu time spent up to now is    10433.2 secs

     total energy              =   -1948.04513213 Ry
     Harris-Foulkes estimate   =   -1948.04513360 Ry
     estimated scf accuracy    <       0.00001320 Ry

     iteration # 43     ecut=    40.00 Ry     beta=0.70
     Davidson diagonalization with overlap
     ethr =  3.64E-09,  avg # of iterations =  1.0

     negative rho (up, down):  0.689E+00 0.000E+00

     total cpu time spent up to now is    10657.4 secs

     total energy              =   -1948.04513252 Ry
     Harris-Foulkes estimate   =   -1948.04513313 Ry
     estimated scf accuracy    <       0.00000612 Ry

     iteration # 44     ecut=    40.00 Ry     beta=0.70
     Davidson diagonalization with overlap
     ethr =  2.64E-09,  avg # of iterations =  1.0

     negative rho (up, down):  0.689E+00 0.000E+00

     total cpu time spent up to now is    10885.2 secs

     total energy              =   -1948.04513236 Ry
     Harris-Foulkes estimate   =   -1948.04513336 Ry
     estimated scf accuracy    <       0.00001072 Ry

     iteration # 45     ecut=    40.00 Ry     beta=0.70
     Davidson diagonalization with overlap
     ethr =  2.64E-09,  avg # of iterations =  1.0

     negative rho (up, down):  0.689E+00 0.000E+00

     total cpu time spent up to now is    11115.3 secs

     total energy              =   -1948.04513231 Ry
     Harris-Foulkes estimate   =   -1948.04513329 Ry
     estimated scf accuracy    <       0.00000681 Ry

     iteration # 46     ecut=    40.00 Ry     beta=0.70
     Davidson diagonalization with overlap
     ethr =  2.64E-09,  avg # of iterations =  1.0

     negative rho (up, down):  0.689E+00 0.000E+00

     total cpu time spent up to now is    11343.0 secs

     total energy              =   -1948.04513255 Ry
     Harris-Foulkes estimate   =   -1948.04513319 Ry
     estimated scf accuracy    <       0.00000521 Ry

     iteration # 47     ecut=    40.00 Ry     beta=0.70
     Davidson diagonalization with overlap
     ethr =  2.25E-09,  avg # of iterations =  1.0

     negative rho (up, down):  0.689E+00 0.000E+00

     total cpu time spent up to now is    11567.3 secs

     total energy              =   -1948.04513250 Ry
     Harris-Foulkes estimate   =   -1948.04513318 Ry
     estimated scf accuracy    <       0.00000547 Ry

     iteration # 48     ecut=    40.00 Ry     beta=0.70
     Davidson diagonalization with overlap
     ethr =  2.25E-09,  avg # of iterations =  1.0

     negative rho (up, down):  0.689E+00 0.000E+00

     total cpu time spent up to now is    11792.4 secs

     total energy              =   -1948.04513254 Ry
     Harris-Foulkes estimate   =   -1948.04513318 Ry
     estimated scf accuracy    <       0.00000668 Ry

     iteration # 49     ecut=    40.00 Ry     beta=0.70
     Davidson diagonalization with overlap
     ethr =  2.25E-09,  avg # of iterations =  1.0

     negative rho (up, down):  0.689E+00 0.000E+00

     total cpu time spent up to now is    12019.8 secs

     total energy              =   -1948.04513257 Ry
     Harris-Foulkes estimate   =   -1948.04513315 Ry
     estimated scf accuracy    <       0.00000527 Ry

     iteration # 50     ecut=    40.00 Ry     beta=0.70
     Davidson diagonalization with overlap
     ethr =  2.25E-09,  avg # of iterations =  1.0

     negative rho (up, down):  0.689E+00 0.000E+00

     total cpu time spent up to now is    12245.1 secs

     total energy              =   -1948.04513263 Ry
     Harris-Foulkes estimate   =   -1948.04513307 Ry
     estimated scf accuracy    <       0.00000463 Ry

     iteration # 51     ecut=    40.00 Ry     beta=0.70
     Davidson diagonalization with overlap
     ethr =  2.00E-09,  avg # of iterations =  1.0

     negative rho (up, down):  0.689E+00 0.000E+00

     total cpu time spent up to now is    12473.5 secs

     total energy              =   -1948.04513255 Ry
     Harris-Foulkes estimate   =   -1948.04513319 Ry
     estimated scf accuracy    <       0.00000766 Ry

     iteration # 52     ecut=    40.00 Ry     beta=0.70
     Davidson diagonalization with overlap
     ethr =  2.00E-09,  avg # of iterations =  1.0

     negative rho (up, down):  0.689E+00 0.000E+00

     total cpu time spent up to now is    12699.0 secs

     total energy              =   -1948.04513263 Ry
     Harris-Foulkes estimate   =   -1948.04513302 Ry
     estimated scf accuracy    <       0.00000270 Ry

     iteration # 53     ecut=    40.00 Ry     beta=0.70
     Davidson diagonalization with overlap
     ethr =  1.16E-09,  avg # of iterations =  1.0

     negative rho (up, down):  0.689E+00 0.000E+00

     total cpu time spent up to now is    12924.1 secs

     total energy              =   -1948.04513217 Ry
     Harris-Foulkes estimate   =   -1948.04513357 Ry
     estimated scf accuracy    <       0.00001805 Ry

     iteration # 54     ecut=    40.00 Ry     beta=0.70
     Davidson diagonalization with overlap
     ethr =  1.16E-09,  avg # of iterations =  1.0

     negative rho (up, down):  0.689E+00 0.000E+00

     total cpu time spent up to now is    13150.7 secs

     total energy              =   -1948.04513258 Ry
     Harris-Foulkes estimate   =   -1948.04513316 Ry
     estimated scf accuracy    <       0.00000697 Ry

     iteration # 55     ecut=    40.00 Ry     beta=0.70
     Davidson diagonalization with overlap
     ethr =  1.16E-09,  avg # of iterations =  1.0

     negative rho (up, down):  0.689E+00 0.000E+00

     total cpu time spent up to now is    13376.0 secs

     total energy              =   -1948.04513274 Ry
     Harris-Foulkes estimate   =   -1948.04513297 Ry
     estimated scf accuracy    <       0.00000154 Ry

     iteration # 56     ecut=    40.00 Ry     beta=0.70
     Davidson diagonalization with overlap
     ethr =  6.65E-10,  avg # of iterations =  1.0

     negative rho (up, down):  0.689E+00 0.000E+00

     total cpu time spent up to now is    13605.4 secs

     total energy              =   -1948.04513276 Ry
     Harris-Foulkes estimate   =   -1948.04513296 Ry
     estimated scf accuracy    <       0.00000157 Ry

     iteration # 57     ecut=    40.00 Ry     beta=0.70
     Davidson diagonalization with overlap
     ethr =  6.65E-10,  avg # of iterations =  1.0

     negative rho (up, down):  0.689E+00 0.000E+00

     total cpu time spent up to now is    13831.3 secs

     total energy              =   -1948.04513267 Ry
     Harris-Foulkes estimate   =   -1948.04513304 Ry
     estimated scf accuracy    <       0.00000285 Ry

     iteration # 58     ecut=    40.00 Ry     beta=0.70
     Davidson diagonalization with overlap
     ethr =  6.65E-10,  avg # of iterations =  1.0

     negative rho (up, down):  0.689E+00 0.000E+00

     total cpu time spent up to now is    14055.1 secs

     total energy              =   -1948.04513268 Ry
     Harris-Foulkes estimate   =   -1948.04513304 Ry
     estimated scf accuracy    <       0.00000405 Ry

     iteration # 59     ecut=    40.00 Ry     beta=0.70
     Davidson diagonalization with overlap
     ethr =  6.65E-10,  avg # of iterations =  1.0

     negative rho (up, down):  0.689E+00 0.000E+00

     total cpu time spent up to now is    14279.0 secs

     total energy              =   -1948.04513264 Ry
     Harris-Foulkes estimate   =   -1948.04513307 Ry
     estimated scf accuracy    <       0.00000387 Ry

     iteration # 60     ecut=    40.00 Ry     beta=0.70
     Davidson diagonalization with overlap
     ethr =  6.65E-10,  avg # of iterations =  1.0

     negative rho (up, down):  0.689E+00 0.000E+00

     total cpu time spent up to now is    14507.4 secs

     total energy              =   -1948.04513262 Ry
     Harris-Foulkes estimate   =   -1948.04513312 Ry
     estimated scf accuracy    <       0.00000573 Ry

     iteration # 61     ecut=    40.00 Ry     beta=0.70
     Davidson diagonalization with overlap
     ethr =  6.65E-10,  avg # of iterations =  1.0

     negative rho (up, down):  0.689E+00 0.000E+00

     total cpu time spent up to now is    14733.8 secs

     total energy              =   -1948.04513274 Ry
     Harris-Foulkes estimate   =   -1948.04513299 Ry
     estimated scf accuracy    <       0.00000251 Ry

     iteration # 62     ecut=    40.00 Ry     beta=0.70
     Davidson diagonalization with overlap
     ethr =  6.65E-10,  avg # of iterations =  1.0

     negative rho (up, down):  0.689E+00 0.000E+00

     total cpu time spent up to now is    14954.2 secs

     total energy              =   -1948.04513272 Ry
     Harris-Foulkes estimate   =   -1948.04513302 Ry
     estimated scf accuracy    <       0.00000240 Ry

     iteration # 63     ecut=    40.00 Ry     beta=0.70
     Davidson diagonalization with overlap
     ethr =  6.65E-10,  avg # of iterations =  1.0

     negative rho (up, down):  0.689E+00 0.000E+00

     total cpu time spent up to now is    15177.9 secs

     total energy              =   -1948.04513280 Ry
     Harris-Foulkes estimate   =   -1948.04513293 Ry
     estimated scf accuracy    <       0.00000160 Ry

     iteration # 64     ecut=    40.00 Ry     beta=0.70
     Davidson diagonalization with overlap
     ethr =  6.65E-10,  avg # of iterations =  1.0

     negative rho (up, down):  0.689E+00 0.000E+00

     total cpu time spent up to now is    15412.7 secs

     total energy              =   -1948.04513273 Ry
     Harris-Foulkes estimate   =   -1948.04513300 Ry
     estimated scf accuracy    <       0.00000296 Ry

     iteration # 65     ecut=    40.00 Ry     beta=0.70
     Davidson diagonalization with overlap
     ethr =  6.65E-10,  avg # of iterations =  1.0

     negative rho (up, down):  0.689E+00 0.000E+00

     total cpu time spent up to now is    15638.6 secs

     total energy              =   -1948.04513271 Ry
     Harris-Foulkes estimate   =   -1948.04513299 Ry
     estimated scf accuracy    <       0.00000195 Ry

     iteration # 66     ecut=    40.00 Ry     beta=0.70
     Davidson diagonalization with overlap
     ethr =  6.65E-10,  avg # of iterations =  1.0

     negative rho (up, down):  0.689E+00 0.000E+00

     total cpu time spent up to now is    15863.6 secs

     total energy              =   -1948.04513271 Ry
     Harris-Foulkes estimate   =   -1948.04513302 Ry
     estimated scf accuracy    <       0.00000287 Ry

     iteration # 67     ecut=    40.00 Ry     beta=0.70
     Davidson diagonalization with overlap
     ethr =  6.65E-10,  avg # of iterations =  1.0

     negative rho (up, down):  0.689E+00 0.000E+00

     total cpu time spent up to now is    16087.5 secs

     total energy              =   -1948.04513275 Ry
     Harris-Foulkes estimate   =   -1948.04513296 Ry
     estimated scf accuracy    <       0.00000158 Ry

     iteration # 68     ecut=    40.00 Ry     beta=0.70
     Davidson diagonalization with overlap
     ethr =  6.65E-10,  avg # of iterations =  1.0

     negative rho (up, down):  0.689E+00 0.000E+00

     total cpu time spent up to now is    16314.0 secs

     total energy              =   -1948.04513276 Ry
     Harris-Foulkes estimate   =   -1948.04513297 Ry
     estimated scf accuracy    <       0.00000215 Ry

     iteration # 69     ecut=    40.00 Ry     beta=0.70
     Davidson diagonalization with overlap
     ethr =  6.65E-10,  avg # of iterations =  1.0

     negative rho (up, down):  0.689E+00 0.000E+00

     total cpu time spent up to now is    16538.6 secs

     total energy              =   -1948.04513276 Ry
     Harris-Foulkes estimate   =   -1948.04513297 Ry
     estimated scf accuracy    <       0.00000200 Ry

     iteration # 70     ecut=    40.00 Ry     beta=0.70
     Davidson diagonalization with overlap
     ethr =  6.65E-10,  avg # of iterations =  1.0

     negative rho (up, down):  0.689E+00 0.000E+00

     total cpu time spent up to now is    16767.9 secs

     total energy              =   -1948.04513277 Ry
     Harris-Foulkes estimate   =   -1948.04513295 Ry
     estimated scf accuracy    <       0.00000214 Ry

     iteration # 71     ecut=    40.00 Ry     beta=0.70
     Davidson diagonalization with overlap
     ethr =  6.65E-10,  avg # of iterations =  1.0

     negative rho (up, down):  0.689E+00 0.000E+00

     total cpu time spent up to now is    16997.7 secs

     total energy              =   -1948.04513273 Ry
     Harris-Foulkes estimate   =   -1948.04513301 Ry
     estimated scf accuracy    <       0.00000308 Ry

     iteration # 72     ecut=    40.00 Ry     beta=0.70
     Davidson diagonalization with overlap
     ethr =  6.65E-10,  avg # of iterations =  1.0

     negative rho (up, down):  0.689E+00 0.000E+00

     total cpu time spent up to now is    17230.1 secs

     End of self-consistent calculation
 --- enter write_ns ---
 LDA+U parameters:
U( 2)     =  0.50000000
alpha( 2) =  0.00000000
atom    3   Tr[ns(na)] =   7.98135
    eigenvalues: 
  0.593  0.608  0.884  0.946  0.959
    eigenvectors:
  0.000  0.212  0.003  0.000  0.785
  1.000  0.000  0.000  0.000  0.000
  0.000  0.000  0.997  0.000  0.003
  0.000  0.788  0.000  0.000  0.212
  0.000  0.000  0.000  0.999  0.000
    occupations:
  0.885 -0.000  0.002 -0.143 -0.000
 -0.000  0.593 -0.000 -0.000 -0.007
  0.002 -0.000  0.884 -0.005  0.001
 -0.143 -0.000 -0.005  0.683 -0.000
 -0.000 -0.007  0.001 -0.000  0.946
atom    4   Tr[ns(na)] =   7.95753
    eigenvalues: 
  0.604  0.651  0.853  0.900  0.970
    eigenvectors:
  0.000  0.992  0.000  0.000  0.007
  0.000  0.000  0.044  0.956  0.000
  0.000  0.000  0.956  0.044  0.000
  0.000  0.007  0.000  0.000  0.993
  1.000  0.000  0.000  0.000  0.000
    occupations:
  0.653 -0.004 -0.001  0.026  0.001
 -0.004  0.898  0.010  0.001 -0.001
 -0.001  0.010  0.855 -0.001  0.001
  0.026  0.001 -0.001  0.968  0.000
  0.001 -0.001  0.001  0.000  0.604
atom    9   Tr[ns(na)] =   7.95074
    eigenvalues: 
  0.637  0.651  0.846  0.870  0.971
    eigenvectors:
  0.000  0.156  0.000  0.000  0.844
  0.999  0.001  0.000  0.000  0.000
  0.000  0.000  1.000  0.000  0.000
  0.001  0.843  0.000  0.000  0.156
  0.000  0.000  0.000  1.000  0.000
    occupations:
  0.921  0.001 -0.000 -0.116 -0.001
  0.001  0.637  0.000  0.000 -0.000
 -0.000  0.000  0.846 -0.000 -0.000
 -0.116  0.000 -0.000  0.701  0.001
 -0.001 -0.000 -0.000  0.001  0.870
atom   10   Tr[ns(na)] =   7.96409
    eigenvalues: 
  0.598  0.618  0.894  0.905  0.967
    eigenvectors:
  0.000  0.995  0.000  0.000  0.005
  0.000  0.000  0.000  1.000  0.000
  0.000  0.000  0.999  0.000  0.000
  0.000  0.005  0.000  0.000  0.995
  1.000  0.000  0.000  0.000  0.000
    occupations:
  0.620  0.000  0.002  0.023 -0.000
  0.000  0.905 -0.000  0.000 -0.001
  0.002 -0.000  0.894  0.000  0.000
  0.023  0.000  0.000  0.965  0.000
 -0.000 -0.001  0.000  0.000  0.598
atom   16   Tr[ns(na)] =   7.98111
    eigenvalues: 
  0.593  0.608  0.884  0.946  0.959
    eigenvectors:
  0.000  0.212  0.003  0.000  0.785
  1.000  0.000  0.000  0.000  0.000
  0.000  0.000  0.997  0.000  0.003
  0.000  0.788  0.000  0.000  0.212
  0.000  0.000  0.000  0.999  0.000
    occupations:
  0.885 -0.000  0.002 -0.143 -0.000
 -0.000  0.593 -0.000 -0.000 -0.007
  0.002 -0.000  0.884 -0.005  0.001
 -0.143 -0.000 -0.005  0.683 -0.000
 -0.000 -0.007  0.001 -0.000  0.946
atom   17   Tr[ns(na)] =   7.95786
    eigenvalues: 
  0.604  0.651  0.853  0.900  0.970
    eigenvectors:
  0.000  0.992  0.000  0.000  0.007
  0.000  0.000  0.044  0.956  0.000
  0.000  0.000  0.956  0.044  0.000
  0.000  0.007  0.000  0.000  0.993
  1.000  0.000  0.000  0.000  0.000
    occupations:
  0.653 -0.004 -0.001  0.026  0.001
 -0.004  0.898  0.010  0.001 -0.001
 -0.001  0.010  0.855 -0.001  0.001
  0.026  0.001 -0.001  0.968  0.000
  0.001 -0.001  0.001  0.000  0.605
atom   22   Tr[ns(na)] =   7.95019
    eigenvalues: 
  0.637  0.651  0.846  0.870  0.971
    eigenvectors:
  0.000  0.156  0.000  0.000  0.844
  0.999  0.001  0.000  0.000  0.000
  0.000  0.000  1.000  0.000  0.000
  0.001  0.843  0.000  0.000  0.156
  0.000  0.000  0.000  1.000  0.000
    occupations:
  0.921  0.001 -0.000 -0.116 -0.001
  0.001  0.637  0.000  0.000 -0.000
 -0.000  0.000  0.846 -0.000 -0.000
 -0.116  0.000 -0.000  0.701  0.001
 -0.001 -0.000 -0.000  0.001  0.870
atom   23   Tr[ns(na)] =   7.96434
    eigenvalues: 
  0.598  0.618  0.894  0.905  0.967
    eigenvectors:
  0.000  0.995  0.000  0.000  0.005
  0.000  0.000  0.000  1.000  0.000
  0.000  0.000  0.999  0.000  0.000
  0.000  0.005  0.000  0.000  0.995
  1.000  0.000  0.000  0.000  0.000
    occupations:
  0.620  0.000  0.002  0.023 -0.000
  0.000  0.905 -0.000  0.000 -0.001
  0.002 -0.000  0.894  0.000  0.000
  0.023  0.000  0.000  0.965  0.000
 -0.000 -0.001  0.000  0.000  0.598
N of occupied +U levels =  63.7072122
 --- exit write_ns ---

          k = 0.0000 0.0000 0.0000 ( 30479 PWs)   bands (ev):

   -49.4012 -49.3541 -49.3433 -49.3257 -49.3171 -49.2898 -49.2186 -49.2182
   -49.2051 -49.1417 -49.1200 -49.1121 -49.1054 -49.0673 -49.0615 -49.0496
   -49.0261 -48.9952 -48.9799 -48.9426 -48.8930 -48.8879 -48.8753 -48.8705
   -21.5881 -21.1512 -21.0825 -20.9724 -20.5134 -20.4826 -20.3153 -20.2384
   -20.2037 -20.1896 -20.1038 -20.0168 -19.9777 -19.7399 -19.6951 -19.6604
   -18.9050 -18.7840  -9.9457  -9.8457  -9.6766  -8.9958  -8.8036  -8.6757
    -8.6261  -8.6005  -8.4361  -8.4328  -8.4054  -8.3059  -8.2136  -8.1945
    -8.0126  -8.0000  -7.9258  -7.8468  -7.6616  -7.5369  -7.3418  -7.1379
    -6.9867  -6.7034  -6.5829  -6.5414  -6.5361  -6.1258  -5.9582  -5.8575
    -5.7401  -5.6867  -5.5160  -5.4760  -5.4150  -5.3910  -5.3224  -5.3007
    -5.1947  -5.1013  -4.9551  -4.8215  -4.7043  -4.6827  -4.5275  -4.5067
    -4.4945  -4.4835  -4.2549  -4.2394  -4.0167  -3.9368  -3.8881  -3.8319
    -3.6886  -3.6876  -3.5912  -3.5686  -3.3710  -3.2686  -3.2511  -3.2298
    -3.2105  -3.1421  -3.0187  -2.8755  -2.6271  -2.5009  -2.4991  -2.3153
    -2.1961  -1.9703  -1.7327  -1.6953  -1.6507  -1.4343  -1.4084  -1.1655
    -1.1302  -1.0087   0.0204   0.1625   0.3116   0.4217   0.4563   0.4969
     0.8592   0.8848   1.1446   1.7626   1.8572   1.8834   2.0614   2.2098
     2.9955   3.5117   4.0361   4.4662   4.7865   5.6004   5.7880   6.0242
     6.1762   6.6982   6.7768   6.8288   7.0624   7.2213   7.2538   7.4644
     7.6295   7.6794   7.7484   7.8404   7.9187   7.9769   7.9989   8.0765
     8.1383   8.1731   8.2171   8.3964   8.4280   8.5363   8.5768   8.6292
     8.7843   8.8509   8.9886   9.1336   9.1403   9.2835   9.4256   9.4971
     9.6128   9.6316   9.8630  10.0062  10.0407  10.3005  10.4685  10.4822
    10.6352  10.6438  10.6849  10.8230  10.9477  11.0498  11.0519  11.0680
    11.0755  11.1341  11.2075  11.2351  11.5367  11.5587  11.5837  11.5949
    11.7062  11.7257  11.7871  11.8299  11.8964  11.8975  11.9824  12.0632
    12.1013  12.1234  12.2102  12.2302  12.3088  12.3713  12.4288  12.4928
    12.6304  12.6381  12.6940  12.7849  12.8655  12.9562  12.9890  13.1404
    13.3314  13.4397  13.4504  13.5226  13.6098  13.7321  13.7534  13.8740
    14.0521  14.0524  14.2014  14.2061  14.3029  14.3919  14.5330  14.7330
    14.7778  14.8797  14.9365  15.0561  15.1486  15.1569  15.3107  15.3900
    15.5085  15.5839  15.6076  15.6866  15.7572  15.8586  15.8728  16.0926
    16.1672  16.2281  16.4174  16.4758  16.6006  16.6201  16.9405  16.9462
    16.9491  17.0199  17.0788  17.0893  17.2238  17.2637  17.5245  17.5875
    17.6454  17.7238  17.9086  17.9383  18.0012  18.0955  18.1735  18.1771
    18.2402  18.3599  18.3885  18.3919  18.4028  18.5488  18.6087  18.6383
    18.7075  18.7121  18.7211  18.8455  18.9844  18.9972  19.0998  19.2309
    19.2374  19.3027  19.4408  19.4908  19.5341  19.5696  19.6100  19.6545
    19.7031  19.7095  19.7875  19.8577  19.8688  19.9409  20.0010  20.0769
    20.1026  20.2294  20.2654  20.3786  20.4182  20.4684  20.4950  20.5329
    20.5540  20.7314  20.8198  21.0218  21.0467  21.0552  21.1164  21.2049
    21.2753  21.4265  21.4434  21.4769  21.5578  21.6117  21.6419  21.7319
    21.7794  21.9675  21.9679  22.0489  22.1053  22.1694  22.1897  22.2235
    22.2755  22.3280  22.4329  22.4503

          k = 0.0000 0.2417 0.0000 ( 30538 PWs)   bands (ev):

   -49.4016 -49.3541 -49.3435 -49.3252 -49.3180 -49.2896 -49.2184 -49.2174
   -49.2054 -49.1413 -49.1200 -49.1122 -49.1053 -49.0685 -49.0615 -49.0496
   -49.0261 -48.9953 -48.9800 -48.9426 -48.8931 -48.8883 -48.8754 -48.8705
   -21.5399 -21.1498 -21.0185 -20.9113 -20.5109 -20.4899 -20.4104 -20.3234
   -20.2383 -20.1020 -20.0405 -20.0281 -19.9761 -19.8356 -19.7423 -19.6956
   -18.9045 -18.7800  -9.7310  -9.5184  -9.4365  -9.1563  -8.8265  -8.6272
    -8.6192  -8.6068  -8.5666  -8.3692  -8.3551  -8.2466  -8.2097  -8.1922
    -8.1809  -8.0013  -7.9419  -7.7683  -7.5617  -7.2510  -7.1487  -7.0113
    -6.8272  -6.6460  -6.6157  -6.5117  -6.5113  -6.4658  -6.2873  -6.1937
    -5.9802  -5.7024  -5.6628  -5.6332  -5.6247  -5.5208  -5.3222  -5.3118
    -5.2074  -5.1809  -5.0617  -5.0464  -4.9331  -4.7444  -4.7268  -4.6006
    -4.5106  -4.4371  -4.1771  -4.1700  -4.0058  -3.7449  -3.7040  -3.6391
    -3.5668  -3.4738  -3.3670  -3.3559  -3.3250  -3.2623  -3.2247  -3.2210
    -3.1965  -3.1931  -3.0461  -3.0092  -2.9663  -2.8396  -2.5082  -2.2853
    -2.1937  -1.7630  -1.7593  -1.6470  -1.5031  -1.3939  -1.3591  -1.2202
    -1.1528  -0.8414  -0.6553  -0.4244   0.1964   0.4015   0.4368   0.9733
     1.1437   1.5222   1.6841   1.6965   1.7647   1.8132   1.9447   2.2116
     3.2904   3.7090   4.2679   4.6711   5.0103   5.2240   5.7440   5.9165
     6.0769   6.1597   6.3358   6.5587   6.8087   6.9350   6.9604   7.1277
     7.3688   7.4989   7.5360   7.6977   7.7391   8.0463   8.1196   8.1815
     8.3312   8.4094   8.5428   8.5595   8.6913   8.7969   8.8630   8.9258
     9.0803   9.1384   9.2490   9.3764   9.4378   9.5230   9.5517   9.6284
     9.6636   9.7821   9.9103   9.9447  10.0169  10.0525  10.0693  10.2356
    10.3292  10.3430  10.3812  10.6148  10.6573  10.7101  10.7412  10.8712
    10.9367  11.0506  11.1102  11.1457  11.2482  11.2891  11.4029  11.5124
    11.7486  11.8529  12.0242  12.0501  12.0503  12.1328  12.2485  12.2650
    12.2793  12.4471  12.4665  12.5453  12.5778  12.7059  12.8126  12.9278
    12.9376  12.9921  13.0783  13.1947  13.3435  13.4941  13.5176  13.5212
    13.6932  13.7300  13.7497  13.8375  13.8755  13.9138  14.0052  14.0523
    14.0748  14.1265  14.2844  14.3887  14.4018  14.4694  14.6515  14.6892
    14.7166  14.8561  14.9301  15.1314  15.1689  15.1848  15.2352  15.3077
    15.3880  15.5408  15.6627  15.6793  15.7129  15.8098  15.8153  15.9625
    15.9932  16.0985  16.1733  16.3196  16.3496  16.4527  16.4881  16.6032
    16.6779  16.7631  16.8839  16.9308  17.0018  17.0463  17.1188  17.1387
    17.2537  17.3120  17.4160  17.5202  17.5206  17.7123  17.9014  17.9956
    18.0327  18.0596  18.2093  18.3669  18.3729  18.3904  18.4424  18.4474
    18.5182  18.7052  18.7288  18.7886  18.8377  18.8812  18.9727  18.9969
    19.1284  19.2048  19.2152  19.3154  19.4357  19.4862  19.5256  19.5839
    19.6139  19.6838  19.7211  19.7384  19.8117  19.8227  19.8368  19.8742
    19.9222  20.0080  20.0384  20.0426  20.1592  20.2264  20.3190  20.3983
    20.3994  20.4302  20.5419  20.7096  20.7665  20.8578  20.8719  20.8915
    20.9883  21.0200  21.1007  21.1212  21.1440  21.1716  21.2408  21.2794
    21.3425  21.4568  21.5750  21.6183  21.6503  21.6676  21.7109  21.7250
    21.8675  21.8951  21.9721  21.9917

          k = 0.0000-0.4833 0.0000 ( 30492 PWs)   bands (ev):

   -49.4018 -49.3540 -49.3434 -49.3246 -49.3186 -49.2893 -49.2184 -49.2161
   -49.2056 -49.1406 -49.1200 -49.1121 -49.1052 -49.0696 -49.0613 -49.0494
   -49.0261 -48.9953 -48.9800 -48.9426 -48.8931 -48.8886 -48.8753 -48.8705
   -21.4898 -21.1485 -20.9576 -20.8041 -20.5084 -20.4667 -20.4610 -20.3795
   -20.3721 -20.0538 -20.0536 -19.9793 -19.9694 -19.9523 -19.8001 -19.6960
   -18.9041 -18.7767  -9.6985  -9.2849  -9.0189  -8.8372  -8.8289  -8.8027
    -8.6222  -8.5588  -8.5461  -8.2985  -8.2792  -8.2032  -8.1950  -8.1675
    -8.0161  -7.9973  -7.9907  -7.8235  -7.3714  -7.2879  -7.2239  -7.0820
    -7.0161  -6.9615  -6.9005  -6.4835  -6.4111  -6.3884  -6.3668  -6.0870
    -5.9820  -5.9151  -5.9056  -5.8862  -5.8127  -5.7273  -5.6540  -5.3296
    -5.1648  -5.1428  -5.1246  -5.0114  -4.9725  -4.6651  -4.5673  -4.4664
    -4.3984  -4.3113  -4.1989  -4.1959  -4.0599  -3.8071  -3.6978  -3.6600
    -3.6513  -3.6198  -3.5593  -3.4715  -3.3558  -3.3399  -3.2673  -3.2411
    -3.2043  -3.0456  -2.8531  -2.8152  -2.7614  -2.6517  -2.4251  -2.2395
    -2.1404  -2.0820  -1.8423  -1.7296  -1.4271  -1.3607  -1.2906  -1.2082
    -1.1672  -1.0335  -0.8625  -0.5817   0.2246   0.4521   0.7307   1.1417
     1.1998   1.4945   1.4967   1.7004   1.8623   1.9984   2.2128   2.2263
     3.8305   4.0910   4.3842   4.9175   4.9697   5.0737   5.3430   5.5448
     5.7036   5.9480   6.4060   6.4885   6.5201   6.6896   6.8763   6.9339
     7.2732   7.3542   7.5155   7.6098   7.8133   7.8828   8.1378   8.5179
     8.6687   8.6747   8.7129   8.7149   8.7619   8.8451   8.9634   8.9887
     9.0030   9.0747   9.1365   9.1824   9.2195   9.3216   9.4102   9.4905
     9.4975   9.5493   9.7655   9.8537   9.9368  10.0421  10.0568  10.3456
    10.3877  10.4068  10.4098  10.7096  10.7586  11.0006  11.0178  11.1403
    11.2701  11.2903  11.3263  11.3409  11.3938  11.6082  11.6253  11.6682
    11.7616  11.8276  11.9795  12.1224  12.1984  12.2060  12.3437  12.3760
    12.5356  12.6062  12.6742  12.7592  12.7813  12.8759  12.8960  12.9681
    13.0173  13.1776  13.1981  13.2599  13.3112  13.3798  13.3809  13.4350
    13.6000  13.7053  13.7434  13.7856  13.9858  14.0622  14.0949  14.1394
    14.1642  14.1712  14.4017  14.4448  14.4547  14.7540  14.7858  14.9856
    15.0836  15.1388  15.1756  15.2877  15.3653  15.4348  15.4709  15.5037
    15.5296  15.6567  15.7221  15.8697  15.8727  15.9197  16.0098  16.0671
    16.1793  16.2221  16.2910  16.2982  16.3623  16.3841  16.4156  16.4234
    16.5198  16.6709  16.7154  16.7873  16.8444  16.8958  16.9067  17.0474
    17.1247  17.2132  17.2512  17.3417  17.4233  17.4507  17.4952  17.5634
    17.6486  17.7515  17.7804  17.8040  17.8263  17.8877  17.9170  17.9187
    18.1376  18.1569  18.2101  18.2861  18.2901  18.2992  18.4379  18.5094
    18.5688  18.5984  18.6449  18.8487  18.8804  19.1100  19.2723  19.3367
    19.4831  19.5787  19.5931  19.6127  19.6212  19.6247  19.8390  19.9038
    19.9719  20.1125  20.1540  20.1787  20.2902  20.2979  20.3495  20.3617
    20.4165  20.4770  20.4977  20.5171  20.5463  20.5604  20.5863  20.6734
    20.6990  20.7473  20.7645  20.7727  20.8874  20.9479  21.0562  21.0865
    21.1285  21.1790  21.2293  21.3474  21.4312  21.4602  21.4949  21.5136
    21.5290  21.5359  21.5665  21.5750

          k = 0.2500 0.0000 0.0000 ( 30502 PWs)   bands (ev):

   -49.3857 -49.3534 -49.3437 -49.3244 -49.3184 -49.3039 -49.2180 -49.2078
   -49.2021 -49.1252 -49.1221 -49.1187 -49.1129 -49.0664 -49.0624 -49.0432
   -49.0347 -48.9930 -48.9822 -48.9585 -48.8904 -48.8853 -48.8780 -48.8731
   -21.4962 -21.1719 -20.9986 -20.8768 -20.6164 -20.4929 -20.3860 -20.3473
   -20.1437 -20.1325 -20.0418 -19.9755 -19.9643 -19.8109 -19.7283 -19.7229
   -18.9356 -18.8380  -9.7635  -9.6691  -9.5222  -9.0853  -8.7752  -8.6688
    -8.6596  -8.6008  -8.5746  -8.4720  -8.3970  -8.3898  -8.1871  -8.0797
    -7.9731  -7.9409  -7.7960  -7.7496  -7.4900  -7.3991  -7.3653  -7.2192
    -7.0310  -6.7260  -6.4843  -6.4559  -6.2745  -6.2402  -6.1615  -6.0006
    -5.9662  -5.8911  -5.8522  -5.7393  -5.6891  -5.5207  -5.3731  -5.2823
    -5.1371  -5.0725  -5.0705  -5.0561  -4.9415  -4.7453  -4.7076  -4.6930
    -4.6285  -4.5651  -4.4509  -4.2633  -4.0211  -3.9485  -3.7794  -3.6366
    -3.5620  -3.5295  -3.4990  -3.3352  -3.3025  -3.2993  -3.2397  -3.0742
    -2.9765  -2.8052  -2.7103  -2.6236  -2.4530  -2.4475  -2.3880  -2.2128
    -2.1698  -1.9514  -1.9124  -1.8369  -1.7079  -1.5366  -1.3013  -1.1619
    -1.1356  -1.0201   0.1375   0.2618   0.3921   0.4557   0.5557   0.5900
     0.7110   0.9389   1.0376   1.5485   1.5706   1.6708   1.7253   2.0709
     3.3354   3.8097   4.2888   4.7154   5.0629   5.2314   5.6838   5.8360
     6.0518   6.2275   6.3169   6.5522   6.9329   7.0070   7.3089   7.3836
     7.4615   7.4850   7.7164   7.8820   7.8872   7.9332   8.0124   8.1939
     8.3244   8.3505   8.4481   8.5053   8.6186   8.7484   8.8287   8.9866
     9.0413   9.0573   9.2235   9.2387   9.3806   9.4219   9.6345   9.6621
     9.7869   9.8713   9.8910   9.9749  10.0359  10.1621  10.2029  10.2218
    10.2772  10.3828  10.4535  10.5213  10.6965  10.7801  10.8388  10.9005
    10.9346  11.0844  11.1487  11.2200  11.2243  11.2520  11.3089  11.3683
    11.5199  11.6235  11.8607  11.8706  12.0198  12.0594  12.1557  12.1834
    12.3329  12.3644  12.3814  12.5183  12.5868  12.6933  12.7518  12.8810
    12.9212  13.0930  13.2481  13.3034  13.3150  13.4882  13.5911  13.6943
    13.6962  13.7633  13.8526  13.8533  13.9067  13.9634  14.0358  14.1209
    14.1779  14.2165  14.2976  14.4364  14.4447  14.4747  14.6238  14.6479
    14.7805  14.8100  15.1044  15.1262  15.2459  15.2605  15.2919  15.3308
    15.4269  15.4620  15.6589  15.6635  15.8091  15.8180  15.9048  15.9323
    15.9758  16.0027  16.1581  16.2448  16.3290  16.3633  16.3990  16.5187
    16.5253  16.6764  16.9434  16.9540  17.0374  17.0589  17.1898  17.2768
    17.3112  17.3869  17.5059  17.5533  17.7247  17.7383  17.8494  18.0212
    18.0249  18.1050  18.1150  18.3190  18.3822  18.3862  18.5665  18.5963
    18.7869  18.8165  18.9018  18.9717  18.9902  19.0596  19.0612  19.1310
    19.1319  19.2067  19.2730  19.3113  19.3480  19.3831  19.4783  19.5317
    19.5346  19.5818  19.6632  19.6914  19.7388  19.7790  19.8105  19.8119
    19.9213  20.0004  20.0339  20.2098  20.2518  20.3180  20.3671  20.3881
    20.4053  20.4590  20.4787  20.5513  20.6439  20.6675  20.6973  20.7181
    20.8068  20.8303  20.8373  20.9577  20.9680  21.0785  21.1776  21.1791
    21.3004  21.3241  21.3680  21.3759  21.4403  21.5605  21.5988  21.6536
    21.7359  21.7700  21.7883  21.9183

          k = 0.2500 0.2417 0.0000 ( 30481 PWs)   bands (ev):

   -49.3859 -49.3535 -49.3438 -49.3241 -49.3188 -49.3040 -49.2167 -49.2079
   -49.2021 -49.1248 -49.1221 -49.1187 -49.1130 -49.0674 -49.0623 -49.0432
   -49.0345 -48.9931 -48.9822 -48.9585 -48.8904 -48.8856 -48.8780 -48.8731
   -21.4576 -21.1696 -20.9342 -20.8088 -20.6024 -20.4995 -20.3789 -20.3413
   -20.1790 -20.1760 -20.0637 -20.0046 -19.9575 -19.9001 -19.7922 -19.7239
   -18.9357 -18.8345  -9.5716  -9.3570  -9.2670  -9.1291  -8.6949  -8.6291
    -8.5974  -8.5909  -8.5477  -8.4294  -8.3807  -8.3334  -8.2787  -8.1117
    -7.9544  -7.8806  -7.7711  -7.7359  -7.4117  -7.3796  -7.2493  -7.2386
    -7.0457  -6.6736  -6.6427  -6.4669  -6.3992  -6.2235  -6.2140  -6.1187
    -6.0906  -6.0871  -6.0476  -5.9268  -5.7609  -5.7263  -5.6511  -5.6118
    -5.3545  -5.2574  -5.2497  -4.9454  -4.9373  -4.8900  -4.7895  -4.6220
    -4.5758  -4.4262  -4.3653  -4.1548  -4.0447  -3.8067  -3.6205  -3.5940
    -3.5386  -3.4755  -3.3337  -3.2166  -3.1559  -3.1240  -3.0860  -3.0177
    -2.9647  -2.8716  -2.7993  -2.7733  -2.6009  -2.5941  -2.4575  -2.2371
    -1.9237  -1.8879  -1.8560  -1.7811  -1.7306  -1.5627  -1.3714  -1.3274
    -1.0384  -0.7770  -0.4160  -0.2039   0.3121   0.4269   0.4311   0.7738
     0.9899   1.2603   1.3944   1.4809   1.6735   1.7156   1.8303   2.0397
     3.6098   3.9934   4.5195   4.9158   5.2673   5.4035   5.4958   5.7991
     5.9795   6.2050   6.3305   6.4180   6.4315   6.7108   6.8192   7.0110
     7.1832   7.3628   7.4097   7.6289   7.6701   7.8231   7.9744   7.9970
     8.0561   8.2578   8.3834   8.4181   8.6315   8.7605   8.7645   8.8591
     8.8844   9.1720   9.3213   9.3944   9.4875   9.6430   9.6592   9.7206
     9.8063   9.9043  10.0693  10.1624  10.2508  10.2677  10.3528  10.5262
    10.5857  10.6324  10.7815  10.8070  10.8631  10.9543  10.9861  11.1084
    11.2541  11.3037  11.3735  11.4726  11.5026  11.5877  11.6482  11.6837
    11.8169  11.9616  12.0519  12.0589  12.1281  12.1802  12.2162  12.3352
    12.4316  12.4842  12.5979  12.6019  12.6793  12.7920  12.8639  12.9856
    13.0072  13.1067  13.1394  13.2019  13.2648  13.3289  13.4460  13.5379
    13.6112  13.6902  13.7417  13.7619  13.9125  14.0120  14.0147  14.1023
    14.1174  14.2513  14.3912  14.4429  14.5307  14.5636  14.6221  14.7358
    14.7957  15.0880  15.1746  15.1930  15.3497  15.4169  15.4848  15.4953
    15.5351  15.6142  15.7214  15.7234  15.8072  15.8897  15.9619  15.9641
    16.0472  16.0722  16.1647  16.2174  16.2799  16.3529  16.3755  16.4583
    16.5091  16.5922  16.6162  16.6240  16.7263  16.8032  16.9134  16.9530
    17.1466  17.1907  17.2399  17.2837  17.3584  17.4254  17.4617  17.5333
    17.5661  17.6224  17.7558  17.7905  17.8384  17.8689  18.0179  18.0696
    18.0838  18.1601  18.2742  18.3670  18.3879  18.4715  18.5071  18.6309
    18.6659  18.7849  18.8638  18.9084  18.9715  19.0540  19.0608  19.1177
    19.1368  19.2444  19.3130  19.4036  19.4462  19.5674  19.5919  19.7370
    19.8062  19.8399  19.8660  20.0676  20.0680  20.1766  20.3353  20.4033
    20.4488  20.4729  20.5800  20.6404  20.6443  20.7306  20.7834  20.9308
    20.9748  20.9895  21.0665  21.1416  21.1763  21.2626  21.3034  21.3113
    21.3846  21.4048  21.5956  21.6150  21.6338  21.6805  21.7684  21.8196
    21.8424  21.9241  22.0209  22.0585

          k = 0.2500-0.4833 0.0000 ( 30510 PWs)   bands (ev):

   -49.3862 -49.3534 -49.3437 -49.3237 -49.3194 -49.3038 -49.2159 -49.2079
   -49.2022 -49.1244 -49.1220 -49.1186 -49.1129 -49.0684 -49.0625 -49.0431
   -49.0344 -48.9931 -48.9821 -48.9585 -48.8905 -48.8860 -48.8779 -48.8733
   -21.4191 -21.1670 -20.8453 -20.7320 -20.5866 -20.4563 -20.3650 -20.3411
   -20.3178 -20.2126 -20.0881 -20.0390 -20.0060 -19.9417 -19.8281 -19.7249
   -18.9357 -18.8316  -9.5409  -9.1581  -8.8352  -8.6905  -8.6239  -8.6205
    -8.5594  -8.5509  -8.4715  -8.3968  -8.3745  -8.3178  -8.2828  -8.1871
    -8.0035  -7.8282  -7.7892  -7.6496  -7.3828  -7.3715  -7.2047  -7.0854
    -6.9662  -6.8885  -6.8154  -6.7840  -6.7012  -6.4616  -6.4085  -6.3468
    -6.2177  -6.1287  -6.1059  -5.9542  -5.9432  -5.9111  -5.8382  -5.6954
    -5.6476  -5.4036  -5.0920  -4.9767  -4.9419  -4.7755  -4.7190  -4.4898
    -4.4662  -4.2700  -4.2572  -4.0361  -3.9272  -3.8597  -3.7821  -3.7223
    -3.5412  -3.3769  -3.2963  -3.1864  -3.1853  -3.1388  -3.0833  -3.0760
    -2.9698  -2.9187  -2.7630  -2.6065  -2.5184  -2.3471  -2.2380  -2.1996
    -2.1371  -1.9478  -1.8715  -1.8073  -1.6916  -1.5483  -1.4175  -1.3587
    -0.9819  -0.8082  -0.6370  -0.5813   0.3467   0.4400   0.7102   0.7607
     0.8742   1.0378   1.4961   1.6977   1.7235   1.8867   1.9610   2.1393
     4.1026   4.3169   4.6549   5.1688   5.2199   5.3438   5.5939   5.6934
     5.8158   5.9497   5.9867   6.2491   6.4547   6.6745   6.7889   6.9996
     7.0779   7.1205   7.1571   7.2644   7.4290   7.6917   7.7658   7.8277
     8.0953   8.1347   8.1990   8.2249   8.3640   8.4472   8.6312   8.7779
     8.9644   8.9682   9.1058   9.3831   9.4131   9.5652   9.8011   9.8926
     9.9650  10.0277  10.0750  10.4300  10.5849  10.6940  10.7395  10.7726
    10.9278  11.0167  11.0621  11.1597  11.2395  11.3122  11.3444  11.3562
    11.4152  11.5009  11.6106  11.7219  11.7484  11.8272  11.8746  11.9164
    11.9908  12.0498  12.1442  12.2332  12.3367  12.4191  12.5133  12.5794
    12.6478  12.6630  12.7661  12.7876  12.8116  12.8976  13.0586  13.1232
    13.1543  13.1911  13.2493  13.3005  13.3276  13.4128  13.4347  13.4973
    13.5229  13.6897  13.7452  13.8802  14.0154  14.0186  14.1015  14.2669
    14.3413  14.3659  14.4354  14.5082  14.5210  14.5445  14.5632  14.5947
    14.6586  14.7457  14.7656  14.8371  14.9155  14.9436  14.9630  15.0962
    15.1724  15.2475  15.4183  15.4443  15.5625  15.6324  15.6893  15.8515
    15.9222  15.9946  16.0123  16.0567  16.1823  16.2435  16.3199  16.4392
    16.5244  16.5959  16.6422  16.6582  16.7781  16.8458  16.8912  16.9047
    16.9839  16.9937  17.1356  17.1877  17.1928  17.2704  17.3077  17.4240
    17.4531  17.4566  17.5354  17.7635  17.7849  17.8632  17.9130  17.9179
    18.0151  18.0891  18.1339  18.2234  18.3078  18.3787  18.4232  18.4454
    18.4983  18.5529  18.6319  18.6552  18.6780  18.8019  18.8114  18.8808
    18.9451  18.9822  19.0706  19.2478  19.2602  19.3552  19.4418  19.4883
    19.5638  19.6475  19.6913  19.7583  19.7674  19.8086  19.8776  19.9126
    20.0253  20.0808  20.2807  20.3823  20.5105  20.5230  20.5429  20.6524
    20.7087  20.7625  20.8180  20.9086  20.9559  21.0359  21.0717  21.1996
    21.2395  21.3486  21.3538  21.3942  21.4964  21.6954  21.7722  21.8295
    21.8925  22.0042  22.0147  22.0816

          k =-0.5000 0.0000 0.0000 ( 30524 PWs)   bands (ev):

   -49.3568 -49.3564 -49.3365 -49.3361 -49.3218 -49.3211 -49.2139 -49.2135
   -49.1628 -49.1622 -49.1159 -49.1156 -49.0846 -49.0843 -49.0645 -49.0642
   -48.9980 -48.9977 -48.9870 -48.9867 -48.8845 -48.8838 -48.8794 -48.8790
   -21.2968 -21.2966 -20.8129 -20.8127 -20.6293 -20.6291 -20.4756 -20.4755
   -20.0326 -20.0325 -19.9779 -19.9777 -19.8879 -19.8877 -19.8272 -19.8271
   -18.9301 -18.9298  -9.3330  -9.3329  -9.2133  -9.2131  -9.1594  -9.1592
    -8.6132  -8.6132  -8.4787  -8.4786  -8.3733  -8.3732  -8.2417  -8.2416
    -7.7953  -7.7952  -7.6297  -7.6297  -7.2768  -7.2767  -6.9651  -6.9650
    -6.8431  -6.8429  -6.7470  -6.7470  -6.4804  -6.4803  -6.3096  -6.3095
    -6.0594  -6.0592  -5.7628  -5.7627  -5.6569  -5.6568  -5.5741  -5.5741
    -5.4411  -5.4410  -5.1323  -5.1322  -4.9385  -4.9384  -4.8086  -4.8086
    -4.6149  -4.6149  -4.1992  -4.1991  -3.7996  -3.7995  -3.7659  -3.7658
    -3.4244  -3.4242  -3.3431  -3.3431  -3.2837  -3.2837  -3.1526  -3.1525
    -2.5946  -2.5946  -2.5036  -2.5035  -2.3795  -2.3795  -2.2102  -2.2101
    -1.9695  -1.9693  -1.8998  -1.8995  -1.6926  -1.6925  -1.4526  -1.4525
    -0.9223  -0.9222   0.2759   0.2760   0.4646   0.4646   0.9097   0.9098
     0.9219   0.9220   1.0062   1.0063   1.0181   1.0184   1.8167   1.8168
     4.1514   4.1515   4.5806   4.5806   5.0337   5.0337   5.4344   5.4344
     5.8380   5.8380   6.4761   6.4762   6.7803   6.7803   7.0007   7.0007
     7.6327   7.6327   7.9891   7.9891   8.1080   8.1081   8.1415   8.1416
     8.6108   8.6108   8.6438   8.6438   8.7328   8.7328   9.0023   9.0024
     9.0391   9.0392   9.1856   9.1856   9.2859   9.2860   9.6129   9.6130
     9.6608   9.6609   9.7789   9.7789   9.8761   9.8761  10.0037  10.0037
    10.1918  10.1919  10.4469  10.4470  10.6789  10.6790  10.7766  10.7766
    11.2619  11.2619  11.4667  11.4667  11.5939  11.5939  11.6608  11.6608
    11.7851  11.7851  11.9633  11.9634  12.2275  12.2276  12.4391  12.4391
    12.5402  12.5403  12.7206  12.7206  12.8966  12.8966  13.0114  13.0115
    13.1867  13.1867  13.3685  13.3685  13.4338  13.4338  13.6258  13.6258
    13.7141  13.7141  13.8429  13.8429  13.9996  13.9996  14.1775  14.1775
    14.2346  14.2346  14.2909  14.2910  14.4105  14.4105  14.7354  14.7354
    14.8351  14.8351  15.0056  15.0056  15.1250  15.1250  15.4477  15.4477
    15.8071  15.8071  16.0047  16.0047  16.2237  16.2237  16.2483  16.2483
    16.2815  16.2816  16.3698  16.3698  16.4215  16.4215  16.5900  16.5900
    16.6120  16.6120  16.6554  16.6554  16.7483  16.7483  16.8248  16.8248
    17.0613  17.0614  17.2101  17.2101  17.4326  17.4326  17.6130  17.6130
    17.8047  17.8048  17.9132  17.9132  18.1034  18.1034  18.2732  18.2732
    18.3976  18.3976  18.4724  18.4724  18.7122  18.7122  18.7522  18.7523
    18.8720  18.8720  19.0176  19.0176  19.1360  19.1361  19.2331  19.2331
    19.3541  19.3541  19.4470  19.4470  19.6012  19.6012  19.6305  19.6305
    19.7362  19.7363  19.7959  19.7959  20.0243  20.0243  20.0458  20.0458
    20.1925  20.1925  20.2609  20.2609  20.3126  20.3126  20.4455  20.4455
    20.5832  20.5832  20.7934  20.7935  20.9319  20.9319  20.9775  20.9775
    21.0809  21.0809  21.1186  21.1186  21.3025  21.3025  21.3277  21.3277
    21.3390  21.3390  21.4321  21.4321

          k =-0.5000 0.2417 0.0000 ( 30500 PWs)   bands (ev):

   -49.3569 -49.3565 -49.3366 -49.3362 -49.3217 -49.3211 -49.2134 -49.2128
   -49.1628 -49.1621 -49.1159 -49.1156 -49.0845 -49.0842 -49.0650 -49.0646
   -48.9979 -48.9976 -48.9870 -48.9867 -48.8845 -48.8839 -48.8795 -48.8792
   -21.2817 -21.2812 -20.7527 -20.7523 -20.5631 -20.5628 -20.4680 -20.4679
   -20.1140 -20.1090 -20.0291 -20.0262 -19.9686 -19.9667 -19.8106 -19.8106
   -18.9286 -18.9282  -9.2424  -9.2395  -8.9778  -8.9713  -8.8809  -8.8807
    -8.6078  -8.6011  -8.4873  -8.4867  -8.2774  -8.2680  -8.1381  -8.1374
    -7.8868  -7.8407  -7.6547  -7.6308  -7.3257  -7.2745  -7.1343  -7.1201
    -7.0084  -6.9817  -6.8582  -6.7943  -6.5316  -6.4975  -6.4250  -6.3782
    -6.0891  -6.0722  -5.9539  -5.9389  -5.7997  -5.7773  -5.6917  -5.6877
    -5.5842  -5.5708  -5.4233  -5.3679  -4.9723  -4.8809  -4.7721  -4.7321
    -4.6241  -4.5111  -4.2188  -4.0761  -3.9348  -3.9149  -3.7497  -3.7209
    -3.3069  -3.3047  -3.1841  -3.1660  -2.9934  -2.9692  -2.9311  -2.8929
    -2.8065  -2.7471  -2.6089  -2.5735  -2.3057  -2.2950  -2.1687  -2.1682
    -1.9744  -1.9726  -1.8894  -1.8521  -1.7744  -1.7590  -1.5902  -1.5809
    -0.7931  -0.7929   0.1817   0.1894   0.2901   0.2909   0.5378   0.5381
     0.7160   0.7217   1.2341   1.2407   1.5034   1.5054   1.8997   1.9039
     4.3691   4.3798   4.7308   4.7309   5.2545   5.2551   5.6171   5.6251
     5.9569   5.9857   6.2482   6.2589   6.6589   6.6669   6.9737   6.9753
     7.0428   7.0556   7.1321   7.1403   7.5427   7.5590   7.8317   7.8385
     8.0990   8.1095   8.2814   8.3102   8.5330   8.5787   8.7459   8.7984
     9.0178   9.1194   9.4488   9.4587   9.6869   9.7072   9.8571   9.8676
     9.9779   9.9896  10.1636  10.1783  10.4185  10.4349  10.6090  10.6103
    10.7193  10.7196  10.9228  10.9229  10.9518  10.9552  11.1831  11.1922
    11.4197  11.4300  11.6534  11.6542  11.7835  11.8087  11.9307  11.9563
    12.0182  12.0314  12.1314  12.1344  12.3247  12.3385  12.5540  12.5690
    12.7120  12.7179  12.9231  12.9388  13.0233  13.0376  13.1286  13.1359
    13.2470  13.2480  13.3419  13.3477  13.5193  13.5213  13.6171  13.6176
    13.8039  13.8174  13.8867  13.8877  14.0346  14.0557  14.2202  14.2298
    14.2966  14.3324  14.4207  14.4372  14.5128  14.5808  14.6424  14.6713
    14.7685  14.7770  14.9239  14.9304  15.0145  15.0164  15.1141  15.1223
    15.2408  15.2506  15.3982  15.4084  15.4723  15.4761  15.8151  15.8199
    15.9489  15.9561  16.0979  16.1134  16.1709  16.1811  16.3363  16.3460
    16.3937  16.4206  16.4715  16.4745  16.5990  16.6165  16.6963  16.7159
    16.8504  16.8634  16.9917  16.9949  17.0251  17.1227  17.3020  17.3198
    17.4667  17.4871  17.6556  17.6618  17.7763  17.7902  17.8287  17.9267
    17.9713  18.0039  18.3017  18.3022  18.3422  18.3789  18.4523  18.4572
    18.5509  18.5564  18.7121  18.7368  18.7810  18.8141  18.9271  18.9377
    19.0369  19.0646  19.1481  19.1612  19.3656  19.3948  19.5043  19.5056
    19.5649  19.5807  19.6778  19.6891  19.8495  19.8601  20.0764  20.0809
    20.2031  20.2225  20.3372  20.3621  20.4612  20.4635  20.5689  20.6576
    20.7416  20.7553  20.8660  20.8963  21.0480  21.0817  21.3037  21.3076
    21.4404  21.4504  21.5368  21.5537  21.6934  21.7137  21.8064  21.8142
    21.8913  21.9344  22.1176  22.1297

          k =-0.5000-0.4833 0.0000 ( 30496 PWs)   bands (ev):

   -49.3569 -49.3565 -49.3367 -49.3363 -49.3218 -49.3211 -49.2128 -49.2124
   -49.1627 -49.1621 -49.1159 -49.1156 -49.0843 -49.0840 -49.0655 -49.0651
   -48.9978 -48.9975 -48.9870 -48.9867 -48.8846 -48.8839 -48.8798 -48.8794
   -21.2670 -21.2667 -20.6497 -20.6496 -20.5606 -20.5604 -20.3261 -20.3259
   -20.2514 -20.2512 -20.1885 -20.1883 -19.9747 -19.9746 -19.8070 -19.8069
   -18.9271 -18.9268  -9.2056  -9.2054  -8.6431  -8.6431  -8.5495  -8.5494
    -8.4783  -8.4782  -8.3998  -8.3997  -8.1202  -8.1201  -8.0117  -8.0116
    -7.9295  -7.9294  -7.8330  -7.8330  -7.5978  -7.5978  -7.2422  -7.2422
    -7.0155  -7.0154  -6.7673  -6.7672  -6.5395  -6.5394  -6.4304  -6.4304
    -6.3625  -6.3624  -6.3293  -6.3293  -6.0763  -6.0762  -6.0074  -6.0074
    -5.6853  -5.6853  -5.1213  -5.1213  -4.9369  -4.9369  -4.6175  -4.6174
    -4.4219  -4.4218  -4.3049  -4.3048  -3.8026  -3.8026  -3.5425  -3.5424
    -3.3311  -3.3310  -3.1720  -3.1719  -3.0323  -3.0322  -2.9167  -2.9166
    -2.5954  -2.5952  -2.5689  -2.5688  -2.1436  -2.1435  -2.0867  -2.0867
[...]
     8.6108   8.6108   8.6420   8.6420   8.7337   8.7338   9.0088   9.0088
     9.0386   9.0386   9.1840   9.1840   9.2861   9.2861   9.6227   9.6228
     9.6635   9.6635   9.7842   9.7842   9.8800   9.8800  10.0091  10.0092
    10.1982  10.1982  10.4488  10.4488  10.6763  10.6763  10.7784  10.7784
    11.2655  11.2656  11.4701  11.4702  11.5949  11.5949  11.6597  11.6597
    11.7852  11.7853  11.9726  11.9727  12.2306  12.2306  12.4377  12.4378
    12.5428  12.5429  12.7223  12.7224  12.8958  12.8958  13.0121  13.0122
    13.1929  13.1930  13.3689  13.3689  13.4380  13.4380  13.6286  13.6286
    13.7160  13.7161  13.8438  13.8439  14.0053  14.0053  14.1813  14.1814
    14.2355  14.2356  14.2943  14.2944  14.4102  14.4103  14.7334  14.7334
    14.8344  14.8344  15.0045  15.0045  15.1248  15.1248  15.4501  15.4501
    15.8025  15.8025  16.0128  16.0129  16.2239  16.2239  16.2494  16.2494
    16.2838  16.2839  16.3682  16.3682  16.4227  16.4227  16.5907  16.5907
    16.6118  16.6118  16.6556  16.6556  16.7486  16.7487  16.8239  16.8239
    17.0596  17.0596  17.2072  17.2072  17.4313  17.4314  17.6140  17.6141
    17.8032  17.8032  17.9097  17.9098  18.1031  18.1031  18.2773  18.2773
    18.3966  18.3967  18.4708  18.4708  18.7105  18.7105  18.7514  18.7515
    18.8732  18.8732  19.0200  19.0200  19.1323  19.1323  19.2315  19.2315
    19.3535  19.3535  19.4466  19.4466  19.5998  19.5998  19.6302  19.6302
    19.7374  19.7374  19.7973  19.7974  20.0230  20.0230  20.0469  20.0469
    20.1914  20.1915  20.2607  20.2607  20.3097  20.3097  20.4459  20.4459
    20.5822  20.5822  20.7934  20.7935  20.9336  20.9336  20.9777  20.9777
    21.0837  21.0838  21.1195  21.1196  21.3088  21.3089  21.3266  21.3266
    21.3425  21.3426  21.4341  21.4342

          k =-0.5000 0.2417 0.0000 ( 30500 PWs)   bands (ev):

   -49.3488 -49.3486 -49.3283 -49.3280 -49.3204 -49.3203 -49.2053 -49.2048
   -49.1569 -49.1569 -49.1272 -49.1272 -49.0940 -49.0940 -49.0569 -49.0568
   -48.9890 -48.9889 -48.9810 -48.9810 -48.8855 -48.8855 -48.8798 -48.8798
   -21.2852 -21.2849 -20.7502 -20.7499 -20.5606 -20.5604 -20.4642 -20.4642
   -20.1105 -20.1056 -20.0273 -20.0248 -19.9667 -19.9646 -19.8094 -19.8093
   -18.9149 -18.9147  -9.2453  -9.2426  -8.9716  -8.9652  -8.8870  -8.8869
    -8.6096  -8.6031  -8.4836  -8.4829  -8.2739  -8.2648  -8.1377  -8.1372
    -7.8831  -7.8380  -7.6528  -7.6297  -7.3217  -7.2693  -7.1314  -7.1203
    -7.0127  -6.9822  -6.8646  -6.7983  -6.5294  -6.4944  -6.4185  -6.3707
    -6.0875  -6.0707  -5.9504  -5.9337  -5.7934  -5.7702  -5.6917  -5.6887
    -5.5816  -5.5670  -5.4170  -5.3606  -4.9735  -4.8824  -4.7723  -4.7339
    -4.6217  -4.5058  -4.2190  -4.0725  -3.9293  -3.9084  -3.7402  -3.7116
    -3.3018  -3.2986  -3.1763  -3.1568  -2.9877  -2.9615  -2.9246  -2.8905
    -2.8050  -2.7430  -2.6080  -2.5724  -2.2993  -2.2881  -2.1651  -2.1646
    -1.9689  -1.9674  -1.8853  -1.8472  -1.7691  -1.7535  -1.5827  -1.5733
    -0.7899  -0.7897   0.1878   0.1955   0.2920   0.2928   0.5412   0.5415
     0.7258   0.7316   1.2433   1.2499   1.5094   1.5114   1.9052   1.9094
     4.3730   4.3838   4.7191   4.7192   5.2545   5.2550   5.6155   5.6233
     5.9570   5.9863   6.2491   6.2604   6.6567   6.6647   6.9808   6.9821
     7.0455   7.0579   7.1315   7.1395   7.5413   7.5575   7.8328   7.8395
     8.1021   8.1145   8.2819   8.3119   8.5378   8.5852   8.7462   8.7979
     9.0204   9.1209   9.4527   9.4623   9.6919   9.7116   9.8608   9.8712
     9.9794   9.9923  10.1674  10.1822  10.4204  10.4367  10.6142  10.6152
    10.7213  10.7219  10.9245  10.9255  10.9509  10.9536  11.1842  11.1937
    11.4249  11.4360  11.6530  11.6557  11.7888  11.8121  11.9315  11.9574
    12.0171  12.0309  12.1367  12.1393  12.3251  12.3408  12.5542  12.5683
    12.7150  12.7219  12.9240  12.9390  13.0239  13.0398  13.1292  13.1371
    13.2490  13.2491  13.3446  13.3530  13.5203  13.5236  13.6202  13.6220
    13.8105  13.8232  13.8873  13.8879  14.0382  14.0583  14.2253  14.2336
    14.2965  14.3320  14.4252  14.4404  14.5147  14.5837  14.6436  14.6728
    14.7700  14.7789  14.9262  14.9318  15.0165  15.0165  15.1113  15.1206
    15.2406  15.2498  15.3979  15.4079  15.4718  15.4752  15.8152  15.8198
    15.9474  15.9551  16.0990  16.1148  16.1685  16.1783  16.3360  16.3448
    16.3937  16.4202  16.4724  16.4749  16.5973  16.6142  16.6944  16.7148
    16.8514  16.8642  16.9915  16.9954  17.0252  17.1251  17.3003  17.3179
    17.4675  17.4875  17.6559  17.6616  17.7743  17.7886  17.8308  17.9294
    17.9707  18.0037  18.3002  18.3014  18.3423  18.3789  18.4523  18.4571
    18.5508  18.5562  18.7120  18.7359  18.7811  18.8128  18.9252  18.9356
    19.0363  19.0637  19.1493  19.1616  19.3647  19.3948  19.5016  19.5041
    19.5637  19.5793  19.6769  19.6881  19.8468  19.8575  20.0769  20.0812
    20.2029  20.2205  20.3405  20.3650  20.4592  20.4612  20.5689  20.6580
    20.7390  20.7524  20.8654  20.8964  21.0517  21.0851  21.3064  21.3089
    21.4406  21.4524  21.5350  21.5520  21.6939  21.7114  21.8117  21.8207
    21.8895  21.9356  22.1196  22.1314

          k =-0.5000-0.4833 0.0000 ( 30496 PWs)   bands (ev):

   -49.3488 -49.3486 -49.3283 -49.3282 -49.3204 -49.3204 -49.2046 -49.2044
   -49.1569 -49.1568 -49.1272 -49.1272 -49.0939 -49.0938 -49.0574 -49.0574
   -48.9889 -48.9889 -48.9810 -48.9810 -48.8858 -48.8858 -48.8798 -48.8798
   -21.2709 -21.2707 -20.6464 -20.6464 -20.5555 -20.5554 -20.3259 -20.3258
   -20.2525 -20.2524 -20.1824 -20.1824 -19.9719 -19.9718 -19.8057 -19.8057
   -18.9135 -18.9133  -9.2091  -9.2090  -8.6426  -8.6425  -8.5447  -8.5445
    -8.4758  -8.4758  -8.4072  -8.4072  -8.1147  -8.1146  -8.0142  -8.0141
    -7.9261  -7.9261  -7.8300  -7.8300  -7.5941  -7.5941  -7.2483  -7.2483
    -7.0159  -7.0159  -6.7643  -6.7643  -6.5366  -6.5365  -6.4218  -6.4217
    -6.3548  -6.3548  -6.3218  -6.3218  -6.0722  -6.0721  -6.0152  -6.0151
    -5.6853  -5.6852  -5.1208  -5.1208  -4.9338  -4.9338  -4.6160  -4.6160
    -4.4255  -4.4254  -4.2972  -4.2972  -3.7922  -3.7921  -3.5377  -3.5376
    -3.3254  -3.3254  -3.1668  -3.1668  -3.0236  -3.0235  -2.9082  -2.9081
    -2.5884  -2.5884  -2.5649  -2.5649  -2.1370  -2.1370  -2.0880  -2.0880
    -1.9129  -1.9128  -1.9034  -1.9033  -1.7942  -1.7942  -1.7035  -1.7035
    -0.7024  -0.7023  -0.1432  -0.1431   0.0004   0.0005   0.5302   0.5302
     0.7601   0.7603   1.4679   1.4680   1.6586   1.6586   1.9939   1.9940
     4.7751   4.7751   4.9460   4.9461   5.3841   5.3841   5.8953   5.8953
     5.9435   5.9435   6.0898   6.0898   6.3074   6.3074   6.5597   6.5597
     6.7366   6.7366   7.0407   7.0408   7.3928   7.3929   7.5522   7.5523
     7.7592   7.7593   7.9043   7.9043   8.3956   8.3957   8.8163   8.8163
     8.9830   8.9831   9.2305   9.2305   9.5105   9.5106   9.9773   9.9774
    10.1824  10.1825  10.4346  10.4346  10.7228  10.7228  11.0503  11.0503
    11.2108  11.2108  11.3533  11.3533  11.3977  11.3978  11.7881  11.7882
    11.9083  11.9083  12.1116  12.1117  12.2590  12.2591  12.4984  12.4985
    12.5469  12.5469  12.6631  12.6631  12.8111  12.8112  12.8443  12.8443
    12.9197  12.9197  13.1329  13.1329  13.2147  13.2147  13.2661  13.2661
    13.4453  13.4453  13.5068  13.5069  13.5813  13.5813  13.6124  13.6124
    13.7235  13.7235  13.7840  13.7840  13.9715  13.9715  14.0062  14.0062
    14.0769  14.0769  14.1479  14.1479  14.3069  14.3069  14.3260  14.3260
    14.4953  14.4953  14.5921  14.5921  14.7448  14.7448  14.9507  14.9508
    15.1019  15.1019  15.1387  15.1387  15.1910  15.1910  15.2768  15.2769
    15.4258  15.4259  15.5939  15.5939  15.6220  15.6220  15.7975  15.7976
    15.9254  15.9254  15.9618  15.9619  16.1997  16.1998  16.4084  16.4084
    16.5331  16.5332  16.6925  16.6925  16.9117  16.9117  16.9725  16.9725
    17.1073  17.1074  17.3317  17.3317  17.4887  17.4887  17.6377  17.6377
    18.0001  18.0001  18.0114  18.0114  18.1473  18.1473  18.2656  18.2656
    18.3642  18.3642  18.5887  18.5887  18.8087  18.8087  19.1462  19.1462
    19.3003  19.3003  19.4562  19.4563  19.5525  19.5525  19.6408  19.6408
    20.1075  20.1076  20.1939  20.1939  20.2609  20.2609  20.6197  20.6198
    20.7020  20.7021  20.7776  20.7776  20.8487  20.8487  20.9681  20.9681
    21.0608  21.0608  21.1378  21.1378  21.2411  21.2411  21.3409  21.3409
    21.4513  21.4514  21.4786  21.4787  21.5710  21.5710  21.6159  21.6160
    21.6386  21.6387  21.8092  21.8093

          k =-0.2500 0.2417 0.0000 ( 30481 PWs)   bands (ev):

   -49.3779 -49.3454 -49.3356 -49.3230 -49.3178 -49.2956 -49.2089 -49.1995
   -49.1965 -49.1346 -49.1301 -49.1244 -49.1165 -49.0594 -49.0544 -49.0528
   -49.0255 -48.9876 -48.9767 -48.9494 -48.8918 -48.8860 -48.8792 -48.8736
   -21.4593 -21.1744 -20.9332 -20.8086 -20.5964 -20.4947 -20.3718 -20.3430
   -20.1773 -20.1744 -20.0663 -20.0010 -19.9521 -19.8944 -19.7929 -19.7223
   -18.9216 -18.8216  -9.5739  -9.3514  -9.2726  -9.1283  -8.7123  -8.6195
    -8.5992  -8.5874  -8.5466  -8.4278  -8.3656  -8.3419  -8.2743  -8.0906
    -7.9952  -7.9069  -7.7729  -7.7201  -7.3969  -7.3850  -7.2277  -7.1835
    -7.0392  -6.6776  -6.6431  -6.4976  -6.4209  -6.2594  -6.2352  -6.1177
    -6.1077  -6.0458  -5.9466  -5.9435  -5.7629  -5.7286  -5.6287  -5.6244
    -5.3555  -5.2542  -5.2193  -5.0023  -4.9904  -4.7805  -4.7623  -4.7177
    -4.5603  -4.4642  -4.3446  -4.1070  -4.0066  -3.7834  -3.6348  -3.5840
    -3.5474  -3.3970  -3.3223  -3.2298  -3.1551  -3.1459  -3.1169  -3.0067
    -2.9935  -2.8915  -2.7981  -2.7418  -2.6189  -2.5802  -2.4125  -2.2418
    -1.9083  -1.8880  -1.8466  -1.7824  -1.7328  -1.5414  -1.3690  -1.3214
    -1.0334  -0.7752  -0.4126  -0.2069   0.3242   0.4369   0.4427   0.7765
     0.9908   1.2602   1.4086   1.4902   1.6765   1.7278   1.8318   2.0493
     3.6101   3.9849   4.5197   4.9169   5.2799   5.4259   5.5083   5.7835
     5.9733   6.2086   6.3386   6.4132   6.4208   6.6746   6.8246   6.9756
     7.1939   7.3637   7.4129   7.6201   7.6854   7.8130   7.9908   8.0158
     8.0669   8.2579   8.3757   8.3988   8.6304   8.7690   8.7742   8.8487
     8.8913   9.1782   9.3436   9.3861   9.5215   9.6428   9.6566   9.6941
     9.8209   9.9018  10.1209  10.1651  10.2383  10.2724  10.3385  10.4887
    10.5871  10.6267  10.7622  10.8038  10.8603  10.9632  10.9979  11.1362
    11.3009  11.3053  11.3892  11.4597  11.5069  11.5877  11.6534  11.6915
    11.8153  11.9966  12.0607  12.0770  12.1528  12.1814  12.2182  12.3388
    12.4255  12.5085  12.5824  12.6036  12.6975  12.7774  12.8608  12.9805
    13.0060  13.0801  13.1648  13.2216  13.2572  13.3518  13.4176  13.5297
    13.5973  13.6976  13.7816  13.7819  13.8412  14.0249  14.0385  14.0740
    14.1511  14.2605  14.3418  14.4487  14.5347  14.5797  14.6342  14.6931
    14.7664  15.0387  15.2070  15.2697  15.3425  15.4107  15.4571  15.4787
    15.5137  15.6072  15.6861  15.7092  15.7897  15.8074  15.9661  15.9786
    16.0557  16.0568  16.1790  16.2272  16.2963  16.3599  16.3744  16.4711
    16.5179  16.5703  16.5893  16.6061  16.7110  16.7982  16.9685  16.9873
    17.1311  17.2116  17.2274  17.3121  17.3345  17.4335  17.4841  17.5388
    17.5677  17.6229  17.7465  17.7725  17.8741  17.8760  18.0680  18.0709
    18.0888  18.1494  18.2428  18.3554  18.4136  18.4766  18.5021  18.6606
    18.6816  18.8322  18.8817  18.9203  18.9809  19.0341  19.0467  19.1201
    19.2014  19.2064  19.2984  19.4220  19.4389  19.5591  19.6418  19.7196
    19.7385  19.8878  19.8908  20.0344  20.1355  20.1955  20.2840  20.3234
    20.4601  20.5172  20.5960  20.6369  20.6671  20.7144  20.8197  20.8847
    20.9348  21.0100  21.0975  21.1245  21.1682  21.2655  21.3108  21.3141
    21.3851  21.4343  21.5519  21.6394  21.6731  21.7184  21.7910  21.8258
    21.8478  21.9149  22.0112  22.0634

     the Fermi energy is    -1.7452 ev

!    total energy              =   -1948.04521899 Ry
     Harris-Foulkes estimate   =   -1948.04521899 Ry
     estimated scf accuracy    <          1.4E-09 Ry

     The total energy is the sum of the following terms:

     one-electron contribution =  -22574.20561872 Ry
     hartree contribution      =   11332.32120799 Ry
     xc contribution           =    -365.01466254 Ry
     ewald contribution        =    9658.64924262 Ry
     Hubbard energy            =       0.20577771 Ry
     smearing contrib. (-TS)   =      -0.00116605 Ry

     convergence has been achieved in  19 iterations

     Forces acting on atoms (Ry/au):


     negative rho (up, down):  0.689E+00 0.000E+00
     atom    1 type  1   force =    -0.00692323   -0.01392271   -0.00024700
     atom    2 type  1   force =     0.00013039    0.00645265    0.00052625
     atom    3 type  2   force =    -0.00021382    0.00354744    0.00072671
     atom    4 type  2   force =     0.00841107    0.00894886   -0.00001370
     atom    5 type  1   force =    -0.00075575   -0.03058804    0.00014123
     atom    6 type  1   force =     0.00182343    0.02751830    0.00020537
     atom    7 type  1   force =    -0.00023370   -0.00019971   -0.00096047
     atom    8 type  1   force =    -0.00278978   -0.00061585   -0.00071452
     atom    9 type  2   force =     0.00125680   -0.00023171    0.00004189
     atom   10 type  2   force =     0.00003810   -0.00204856   -0.00019553
     atom   11 type  1   force =    -0.00013529    0.00241727    0.00013431
     atom   12 type  1   force =     0.00027927   -0.00163991    0.00016031
     atom   13 type  1   force =    -0.00081208   -0.00005588   -0.00037603
     atom   14 type  1   force =    -0.00693183   -0.01392687   -0.00019835
     atom   15 type  1   force =     0.00013426    0.00647787    0.00052491
     atom   16 type  2   force =    -0.00022289    0.00354779    0.00072356
     atom   17 type  2   force =     0.00840837    0.00894741   -0.00001758
     atom   18 type  1   force =    -0.00076618   -0.03058778    0.00013666
     atom   19 type  1   force =     0.00181342    0.02751798    0.00019848
     atom   20 type  1   force =    -0.00024046   -0.00019971   -0.00097201
     atom   21 type  1   force =    -0.00279423   -0.00061537   -0.00075544
     atom   22 type  2   force =     0.00127076   -0.00023288    0.00002406
     atom   23 type  2   force =     0.00002793   -0.00204858   -0.00019564
     atom   24 type  1   force =    -0.00013171    0.00242533    0.00014507
     atom   25 type  1   force =     0.00028287   -0.00164788    0.00017152
     atom   26 type  1   force =    -0.00081080   -0.00005593   -0.00034764
     atom   27 type  3   force =    -0.00001012    0.00005627    0.00043281
     atom   28 type  3   force =    -0.00001044    0.00003166    0.00044707
     atom   29 type  3   force =    -0.00005591    0.00036223    0.00013226
     atom   30 type  3   force =    -0.00003845    0.00036631    0.00012142

     Total force =     0.002430     Total SCF correction =     0.000096

     bfgs converged in   5 scf cycles and   4 bfgs steps
     (criteria: energy < 0.10E-03, force < 0.10E-02)

     End of BFGS Geometry Optimization

     Final energy   =   -1948.0452189941 Ry
Begin final coordinates

ATOMIC_POSITIONS (crystal)
O0       0.000000000   0.000000000   0.378658448    0   0   1
O0       0.000000000   0.500000000   0.400664638    0   0   1
Rh1      0.250000000   0.500000000   0.452101716    0   0   1
Rh1      0.000000000   0.000000000   0.453167149    0   0   1
O0       0.250000000   0.810000000   0.452699120    0   0   1
O0       0.250000000   0.190000000   0.452551730    0   0   1
O0       0.000000000   0.500000000   0.498709509    0   0   1
O0       0.000000000   0.000000000   0.528793775    0   0   1
Rh1      0.250000000   0.000000000   0.576347769    0   0   1
Rh1      0.000000000   0.500000000   0.571290955    0   0   1
O0       0.250000000   0.690000000   0.577663792    0   0   1
O0       0.250000000   0.310000000   0.577682636    0   0   1
O0       0.000000000   0.000000000   0.621632961    0   0   1
O0       0.500000000   0.000000000   0.378655441    0   0   1
O0       0.500000000   0.500000000   0.400663749    0   0   1
Rh1      0.750000000   0.500000000   0.452102048    0   0   1
Rh1      0.500000000   0.000000000   0.453166239    0   0   1
O0       0.750000000   0.810000000   0.452700061    0   0   1
O0       0.750000000   0.190000000   0.452553022    0   0   1
O0       0.500000000   0.500000000   0.498709877    0   0   1
O0       0.500000000   0.000000000   0.528794936    0   0   1
Rh1      0.750000000   0.000000000   0.576348277    0   0   1
Rh1      0.500000000   0.500000000   0.571291218    0   0   1
O0       0.750000000   0.690000000   0.577661256    0   0   1
O0       0.750000000   0.310000000   0.577680048    0   0   1
O0       0.500000000   0.000000000   0.621631056    0   0   1
H2      -0.000099018   0.638738293   0.384073584
H2       0.499901884   0.638740617   0.384072381
H2       0.148449433   0.032907843   0.367896600
H2       0.648450723   0.032907891   0.367896009
End final coordinates



     init_run     :    138.92s CPU    141.81s WALL (       1 calls)
     electrons    :  32277.44s CPU  33906.35s WALL (       5 calls)
     update_pot   :     80.38s CPU     81.92s WALL (       4 calls)
     forces       :    799.44s CPU    827.58s WALL (       5 calls)

     Called by init_run:
     wfcinit      :     41.28s CPU     43.06s WALL (       1 calls)
     potinit      :      7.48s CPU      7.61s WALL (       1 calls)

     Called by electrons:
     c_bands      :  15166.76s CPU  15791.73s WALL (     145 calls)
     sum_band     :   6730.62s CPU   7028.54s WALL (     145 calls)
     v_of_rho     :    190.69s CPU    218.67s WALL (     147 calls)
     newd         :  10483.23s CPU  11066.01s WALL (     147 calls)
     mix_rho      :     35.07s CPU     35.64s WALL (     145 calls)

     Called by c_bands:
     init_us_2    :     41.32s CPU     41.83s WALL (     918 calls)
     cegterg      :  14948.97s CPU  15541.51s WALL (     435 calls)

     Called by *egterg:
     h_psi        :   9161.58s CPU   9467.50s WALL (    1142 calls)
     s_psi        :    900.27s CPU    927.43s WALL (    1172 calls)
     g_psi        :     16.86s CPU     16.88s WALL (     704 calls)
     cdiaghg      :   1040.22s CPU   1043.79s WALL (    1118 calls)

     Called by h_psi:
     add_vuspsi   :    894.61s CPU    922.33s WALL (    1142 calls)
     vhpsi        :    884.60s CPU    908.49s WALL (    1142 calls)

     General routines
     calbec       :   1861.70s CPU   1898.52s WALL (    7264 calls)
     fft          :    392.98s CPU    598.36s WALL (    2403 calls)
     ffts         :      3.32s CPU      3.72s WALL (     292 calls)
     fftw         :   4907.75s CPU   5212.06s WALL (  781536 calls)
     interpolate  :     28.97s CPU     29.95s WALL (     292 calls)
     davcio       :      0.07s CPU     15.90s WALL (     933 calls)

     Parallel routines
     fft_scatter  :   2262.15s CPU   2762.69s WALL (  784231 calls)
     Hubbard U routines
     new_ns       :    174.82s CPU    183.89s WALL (     145 calls)
     vhpsi        :    884.60s CPU    908.49s WALL (    1142 calls)
     force_hub    :    191.71s CPU    196.66s WALL (       5 calls)

     PWSCF        :     9h20m CPU        9h48m WALL


   This run was terminated on:   9: 2: 9   9May2014            

=------------------------------------------------------------------------------=
   JOB DONE.
=------------------------------------------------------------------------------=
---------------------------------------
Running PBS batch system epilogue script
Job id: 340826.audhumbla.fysik.dtu.dk
Username: zhonxu
Groupname: campgst
Jobname: RhO2/Eads-2-layers/bare-U-0.5
Sessionid: 4615
Resources limits: neednodes=2:ppn=8:xeon8,nodes=2:ppn=8:xeon8,walltime=48:00:00
Resources used: cput=156:46:29,mem=17299480kb,vmem=21095188kb,walltime=09:48:22
Queuename: verylong
Accounting:
This job has allocated the following 16 nodes:
b133 b133 b133 b133 b133 b133 b133 b133 b126 b126 b126 b126 b126 b126 b126 b126
Finished epilogue job 340826.audhumbla.fysik.dtu.dk for zhonxu
