
     Program PWSCF v.5.0.2 (svn rev. 9656) starts on 30Apr2014 at  5:16:38 

     This program is part of the open-source Quantum ESPRESSO suite
     for quantum simulation of materials; please cite
         "P. Giannozzi et al., J. Phys.:Condens. Matter 21 395502 (2009);
          URL http://www.quantum-espresso.org", 
     in publications or presentations arising from this work. More details at
     http://www.quantum-espresso.org/quote.php

     Parallel version (MPI), running on    16 processors
     K-points division:     npool     =       4
     R & G space division:  proc/nbgrp/npool/nimage =       4

     Current dimensions of program PWSCF are:
     Max number of different atomic species (ntypx) = 10
     Max number of k-points (npk) =  40000
     Max angular momentum in pseudopotentials (lmaxx) =  3
     Reading input from pwscf.in
Warning: card &CELL ignored
Warning: card / ignored

     Subspace diagonalization in iterative solution of the eigenvalue problem:
     a serial algorithm will be used


     Parallelization info
     --------------------
     sticks:   dense  smooth     PW     G-vecs:    dense   smooth      PW
     Min        1424     456    126               337026    61014    9038
     Max        1425     457    127               337029    61047    9044
     Sum        5697    1827    505              1348107   244131   36167



     bravais-lattice index     =            0
     lattice parameter (alat)  =      11.7541  a.u.
     unit-cell volume          =    7139.8207 (a.u.)^3
     number of atoms/cell      =           32
     number of atomic types    =            3
     number of electrons       =       239.00
     number of Kohn-Sham states=          358
     kinetic-energy cutoff     =      40.0000  Ry
     charge density cutoff     =     500.0000  Ry
     convergence threshold     =      1.0E-06
     mixing beta               =       0.7000
     number of iterations used =            8  plain     mixing
     Exchange-correlation      = SLA  PW   PBE  PBE ( 1 4 3 4 0)
     EXX-fraction              =        0.00
     nstep                     =           50


     celldm(1)=  11.754097  celldm(2)=   0.000000  celldm(3)=   0.000000
     celldm(4)=   0.000000  celldm(5)=   0.000000  celldm(6)=   0.000000

     crystal axes: (cart. coord. in units of alat)
               a(1) = (   1.000000   0.000000   0.000000 )  
               a(2) = (   0.000000   1.034513   0.000000 )  
               a(3) = (   0.000000   0.000000   4.249947 )  

     reciprocal axes: (cart. coord. in units 2 pi/alat)
               b(1) = (  1.000000  0.000000  0.000000 )  
               b(2) = (  0.000000  0.966638  0.000000 )  
               b(3) = (  0.000000  0.000000  0.235297 )  


     PseudoPot. # 1 for O  read from file:
     /home/camp/zhonxu/pseudo/o_pbe_v1.01.uspp.F.UPF
     MD5 check sum: 2bcb18d16ea4b960afae9ec6d52f22d2
     Pseudo is Ultrasoft + core correction, Zval =  6.0
     Generated by new atomic code, or converted to UPF format
     Using radial grid of  737 points,  5 beta functions with: 
                l(1) =   0
                l(2) =   0
                l(3) =   1
                l(4) =   1
                l(5) =   2
     Q(r) pseudized with  8 coefficients,  rinner =    0.900   0.900   0.900
                                                       0.900   0.900

     PseudoPot. # 2 for Rh read from file:
     /home/camp/zhonxu/pseudo/rh_pbe_v1.uspp.F.UPF
     MD5 check sum: 37b626987ad0dd8ec6bf4cc9ef289918
     Pseudo is Ultrasoft + core correction, Zval = 15.0
     Generated by new atomic code, or converted to UPF format
     Using radial grid of  969 points,  7 beta functions with: 
                l(1) =   0
                l(2) =   0
                l(3) =   1
                l(4) =   1
                l(5) =   2
                l(6) =   2
                l(7) =   2
     Q(r) pseudized with  6 coefficients,  rinner =    1.050   1.050   1.050
                                                       1.050   1.050

     PseudoPot. # 3 for H  read from file:
     /home/camp/zhonxu/pseudo/h_pbe_v1.uspp.F.UPF
     MD5 check sum: 3408e3ff4ec8b0a4e358431e7e038a48
     Pseudo is Ultrasoft, Zval =  1.0
     Generated by new atomic code, or converted to UPF format
     Using radial grid of  615 points,  2 beta functions with: 
                l(1) =   0
                l(2) =   0
     Q(r) pseudized with  8 coefficients,  rinner =    0.700

     atomic species   valence    mass     pseudopotential
        O0             6.00    15.99940     O ( 1.00)
        Rh1           15.00   102.90550     Rh( 1.00)
        H2             1.00     1.00794     H ( 1.00)


     Simplified LDA+U calculation (l_max = 2) with parameters (eV):
     atomic species    L          U    alpha       J0     beta
        Rh1            2     0.5000   0.0000   0.0000   0.0000



     No symmetry found



   Cartesian axes

     site n.     atom                  positions (alat units)
         1           O0  tau(   1) = (   0.0000000   0.0000000   1.6077125  )
         2           O0  tau(   2) = (   0.0000000   0.5172566   1.7060138  )
         3           Rh1 tau(   3) = (   0.2500000   0.5172566   1.9233561  )
         4           Rh1 tau(   4) = (   0.0000000   0.0000000   1.9242061  )
         5           O0  tau(   5) = (   0.2500000   0.8379556   1.9221236  )
         6           O0  tau(   6) = (   0.2500000   0.1965575   1.9218261  )
         7           O0  tau(   7) = (   0.0000000   0.5172566   2.1180887  )
         8           O0  tau(   8) = (   0.0000000   0.0000000   2.2452046  )
         9           Rh1 tau(   9) = (   0.2500000   0.0000000   2.4467796  )
        10           Rh1 tau(  10) = (   0.0000000   0.5172566   2.4248074  )
        11           O0  tau(  11) = (   0.2500000   0.7138141   2.4490746  )
        12           O0  tau(  12) = (   0.2500000   0.3206991   2.4494996  )
        13           O0  tau(  13) = (   0.0000000   0.0000000   2.6392597  )
        14           O0  tau(  14) = (   0.5000000   0.0000000   1.6071175  )
        15           O0  tau(  15) = (   0.5000000   0.5172566   1.7046963  )
        16           Rh1 tau(  16) = (   0.7500000   0.5172566   1.9233561  )
        17           Rh1 tau(  17) = (   0.5000000   0.0000000   1.9236961  )
        18           O0  tau(  18) = (   0.7500000   0.8379556   1.9222086  )
        19           O0  tau(  19) = (   0.7500000   0.1965575   1.9219111  )
        20           O0  tau(  20) = (   0.5000000   0.5172566   2.1234861  )
        21           O0  tau(  21) = (   0.5000000   0.0000000   2.2446521  )
        22           Rh1 tau(  22) = (   0.7500000   0.0000000   2.4466946  )
        23           Rh1 tau(  23) = (   0.5000000   0.5172566   2.4467371  )
        24           O0  tau(  24) = (   0.7500000   0.7138141   2.4449521  )
        25           O0  tau(  25) = (   0.7500000   0.3206991   2.4452921  )
        26           O0  tau(  26) = (   0.5000000   0.0000000   2.6379847  )
        27           H2  tau(  27) = (  -0.0000100   0.6596573   1.6332972  )
        28           H2  tau(  28) = (   0.4999400   0.6612505   1.6349547  )
        29           H2  tau(  29) = (   0.1484100   0.0351631   1.5627056  )
        30           H2  tau(  30) = (   0.6482100   0.0356700   1.5619406  )
        31           O0  tau(  31) = (   0.5154200   0.5168841   2.7565583  )
        32           H2  tau(  32) = (   0.3686900   0.5167083   2.8162275  )

     number of k points=    10  Methfessel-Paxton smearing, width (Ry)=  0.0100
                       cart. coord. in units 2pi/alat
        k(    1) = (   0.0000000   0.0000000   0.0000000), wk =   0.1250000
        k(    2) = (   0.0000000   0.2416596   0.0000000), wk =   0.2500000
        k(    3) = (   0.0000000  -0.4833191   0.0000000), wk =   0.1250000
        k(    4) = (   0.2500000   0.0000000   0.0000000), wk =   0.2500000
        k(    5) = (   0.2500000   0.2416596   0.0000000), wk =   0.2500000
        k(    6) = (   0.2500000  -0.4833191   0.0000000), wk =   0.2500000
        k(    7) = (  -0.5000000   0.0000000   0.0000000), wk =   0.1250000
        k(    8) = (  -0.5000000   0.2416596   0.0000000), wk =   0.2500000
        k(    9) = (  -0.5000000  -0.4833191   0.0000000), wk =   0.1250000
        k(   10) = (  -0.2500000   0.2416596   0.0000000), wk =   0.2500000

     Dense  grid:  1348107 G-vectors     FFT dimensions: (  90,  90, 360)

     Smooth grid:   244131 G-vectors     FFT dimensions: (  48,  50, 216)

     Largest allocated arrays     est. size (Mb)     dimensions
        Kohn-Sham Wavefunctions        41.94 Mb     (   7677,  358)
        Atomic wavefunctions           20.73 Mb     (   7677,  177)
        NL pseudopotentials            51.66 Mb     (   7677,  441)
        Each V/rho on FFT grid         11.12 Mb     ( 729000)
        Each G-vector array             2.57 Mb     ( 337026)
        G-vector shells                 1.12 Mb     ( 146445)
     Largest temporary arrays     est. size (Mb)     dimensions
        Auxiliary wavefunctions       167.75 Mb     (   7677, 1432)
        Each subspace H/S matrix       31.29 Mb     (1432,1432)
        Each <psi_i|beta_j> matrix      2.41 Mb     (    441,  358)
        Arrays for rho mixing          88.99 Mb     ( 729000,   8)

     Check: negative/imaginary core charge=   -0.000003    0.000000

     Initial potential from superposition of free atoms
     Check: negative starting charge=   -0.644969

     starting charge  234.99914, renormalised to  239.00000

     negative rho (up, down):  0.656E+00 0.000E+00
     Number of +U iterations with fixed ns =  0
     Starting occupations:
 --- enter write_ns ---
 LDA+U parameters:
U( 2)     =  0.50000000
alpha( 2) =  0.00000000
atom    3   Tr[ns(na)] =   7.00000
    eigenvalues: 
  0.700  0.700  0.700  0.700  0.700
    eigenvectors:
  1.000  0.000  0.000  0.000  0.000
  0.000  1.000  0.000  0.000  0.000
  0.000  0.000  1.000  0.000  0.000
  0.000  0.000  0.000  1.000  0.000
  0.000  0.000  0.000  0.000  1.000
    occupations:
  0.700  0.000  0.000  0.000  0.000
  0.000  0.700  0.000  0.000  0.000
  0.000  0.000  0.700  0.000  0.000
  0.000  0.000  0.000  0.700  0.000
  0.000  0.000  0.000  0.000  0.700
atom    4   Tr[ns(na)] =   7.00000
    eigenvalues: 
  0.700  0.700  0.700  0.700  0.700
    eigenvectors:
  1.000  0.000  0.000  0.000  0.000
  0.000  1.000  0.000  0.000  0.000
  0.000  0.000  1.000  0.000  0.000
  0.000  0.000  0.000  1.000  0.000
  0.000  0.000  0.000  0.000  1.000
    occupations:
  0.700  0.000  0.000  0.000  0.000
  0.000  0.700  0.000  0.000  0.000
  0.000  0.000  0.700  0.000  0.000
  0.000  0.000  0.000  0.700  0.000
  0.000  0.000  0.000  0.000  0.700
atom    9   Tr[ns(na)] =   7.00000
    eigenvalues: 
  0.700  0.700  0.700  0.700  0.700
    eigenvectors:
  1.000  0.000  0.000  0.000  0.000
  0.000  1.000  0.000  0.000  0.000
  0.000  0.000  1.000  0.000  0.000
  0.000  0.000  0.000  1.000  0.000
  0.000  0.000  0.000  0.000  1.000
    occupations:
  0.700  0.000  0.000  0.000  0.000
  0.000  0.700  0.000  0.000  0.000
  0.000  0.000  0.700  0.000  0.000
  0.000  0.000  0.000  0.700  0.000
  0.000  0.000  0.000  0.000  0.700
atom   10   Tr[ns(na)] =   7.00000
    eigenvalues: 
  0.700  0.700  0.700  0.700  0.700
    eigenvectors:
  1.000  0.000  0.000  0.000  0.000
  0.000  1.000  0.000  0.000  0.000
  0.000  0.000  1.000  0.000  0.000
  0.000  0.000  0.000  1.000  0.000
  0.000  0.000  0.000  0.000  1.000
    occupations:
  0.700  0.000  0.000  0.000  0.000
  0.000  0.700  0.000  0.000  0.000
  0.000  0.000  0.700  0.000  0.000
  0.000  0.000  0.000  0.700  0.000
  0.000  0.000  0.000  0.000  0.700
atom   16   Tr[ns(na)] =   7.00000
    eigenvalues: 
  0.700  0.700  0.700  0.700  0.700
    eigenvectors:
  1.000  0.000  0.000  0.000  0.000
  0.000  1.000  0.000  0.000  0.000
  0.000  0.000  1.000  0.000  0.000
  0.000  0.000  0.000  1.000  0.000
  0.000  0.000  0.000  0.000  1.000
    occupations:
  0.700  0.000  0.000  0.000  0.000
  0.000  0.700  0.000  0.000  0.000
  0.000  0.000  0.700  0.000  0.000
  0.000  0.000  0.000  0.700  0.000
  0.000  0.000  0.000  0.000  0.700
atom   17   Tr[ns(na)] =   7.00000
    eigenvalues: 
  0.700  0.700  0.700  0.700  0.700
    eigenvectors:
  1.000  0.000  0.000  0.000  0.000
  0.000  1.000  0.000  0.000  0.000
  0.000  0.000  1.000  0.000  0.000
  0.000  0.000  0.000  1.000  0.000
  0.000  0.000  0.000  0.000  1.000
    occupations:
  0.700  0.000  0.000  0.000  0.000
  0.000  0.700  0.000  0.000  0.000
  0.000  0.000  0.700  0.000  0.000
  0.000  0.000  0.000  0.700  0.000
  0.000  0.000  0.000  0.000  0.700
atom   22   Tr[ns(na)] =   7.00000
    eigenvalues: 
  0.700  0.700  0.700  0.700  0.700
    eigenvectors:
  1.000  0.000  0.000  0.000  0.000
  0.000  1.000  0.000  0.000  0.000
  0.000  0.000  1.000  0.000  0.000
  0.000  0.000  0.000  1.000  0.000
  0.000  0.000  0.000  0.000  1.000
    occupations:
  0.700  0.000  0.000  0.000  0.000
  0.000  0.700  0.000  0.000  0.000
  0.000  0.000  0.700  0.000  0.000
  0.000  0.000  0.000  0.700  0.000
  0.000  0.000  0.000  0.000  0.700
atom   23   Tr[ns(na)] =   7.00000
    eigenvalues: 
  0.700  0.700  0.700  0.700  0.700
    eigenvectors:
  1.000  0.000  0.000  0.000  0.000
  0.000  1.000  0.000  0.000  0.000
  0.000  0.000  1.000  0.000  0.000
  0.000  0.000  0.000  1.000  0.000
  0.000  0.000  0.000  0.000  1.000
    occupations:
  0.700  0.000  0.000  0.000  0.000
  0.000  0.700  0.000  0.000  0.000
  0.000  0.000  0.700  0.000  0.000
  0.000  0.000  0.000  0.700  0.000
  0.000  0.000  0.000  0.000  0.700
N of occupied +U levels =  56.0000000
 --- exit write_ns ---
 Atomic wfc used for LDA+U Projector are NOT orthogonalized
     Starting wfc are  177 randomized atomic wfcs

     total cpu time spent up to now is      118.5 secs

     per-process dynamical memory:   425.9 Mb

     Self-consistent Calculation

     iteration #  1     ecut=    40.00 Ry     beta=0.70
     Davidson diagonalization with overlap
     ethr =  1.00E-02,  avg # of iterations =  5.8
 --- enter write_ns ---
 LDA+U parameters:
U( 2)     =  0.50000000
alpha( 2) =  0.00000000
atom    3   Tr[ns(na)] =   6.51279
    eigenvalues: 
  0.405  0.440  0.658  0.849  0.905
    eigenvectors:
  0.000  0.207  0.002  0.001  0.790
  1.000  0.000  0.000  0.000  0.000
  0.000  0.000  0.997  0.001  0.003
  0.000  0.792  0.001  0.000  0.206
  0.000  0.000  0.001  0.998  0.001
    occupations:
  0.808 -0.004  0.011 -0.188 -0.001
 -0.004  0.405  0.000  0.003 -0.003
  0.011  0.000  0.658 -0.005 -0.006
 -0.188  0.003 -0.005  0.536  0.001
 -0.001 -0.003 -0.006  0.001  0.849
atom    4   Tr[ns(na)] =   5.84640
    eigenvalues: 
  0.432  0.442  0.454  0.679  0.916
    eigenvectors:
  0.000  0.006  0.987  0.000  0.007
  0.000  0.009  0.000  0.991  0.000
  0.002  0.983  0.006  0.009  0.000
  0.000  0.000  0.007  0.000  0.993
  0.998  0.002  0.000  0.000  0.000
    occupations:
  0.457 -0.001  0.001  0.038  0.000
 -0.001  0.677  0.022  0.001 -0.000
  0.001  0.022  0.444  0.002  0.000
  0.038  0.001  0.002  0.913 -0.000
  0.000 -0.000  0.000 -0.000  0.432
atom    9   Tr[ns(na)] =   7.32093
    eigenvalues: 
  0.446  0.460  0.886  0.902  0.967
    eigenvectors:
  0.001  0.160  0.000  0.000  0.839
  0.997  0.003  0.000  0.000  0.000
  0.000  0.000  0.097  0.903  0.000
  0.003  0.837  0.000  0.000  0.161
  0.000  0.000  0.903  0.097  0.000
    occupations:
  0.886 -0.002 -0.000 -0.186  0.000
 -0.002  0.446  0.000 -0.000 -0.000
 -0.000  0.000  0.900 -0.000 -0.005
 -0.186 -0.000 -0.000  0.541  0.000
  0.000 -0.000 -0.005  0.000  0.887
atom   10   Tr[ns(na)] =   7.44435
    eigenvalues: 
  0.435  0.471  0.901  0.952  0.963
    eigenvectors:
  0.000  0.992  0.000  0.000  0.008
  0.000  0.000  0.000  0.999  0.001
  0.000  0.000  1.000  0.000  0.000
  0.000  0.008  0.000  0.001  0.990
  1.000  0.000  0.000  0.000  0.000
    occupations:
  0.475 -0.001  0.000  0.045 -0.000
 -0.001  0.952 -0.000  0.001 -0.000
  0.000 -0.000  0.901 -0.000  0.004
  0.045  0.001 -0.000  0.959 -0.000
 -0.000 -0.000  0.004 -0.000  0.435
atom   16   Tr[ns(na)] =   6.50803
    eigenvalues: 
  0.404  0.440  0.656  0.849  0.905
    eigenvectors:
  0.000  0.208  0.002  0.001  0.789
  0.999  0.000  0.000  0.000  0.000
  0.000  0.000  0.995  0.001  0.003
  0.001  0.792  0.001  0.000  0.207
  0.000  0.000  0.002  0.997  0.001
    occupations:
  0.808  0.004  0.013 -0.188  0.001
  0.004  0.404 -0.001 -0.003 -0.003
  0.013 -0.001  0.657 -0.005  0.008
 -0.188 -0.003 -0.005  0.537 -0.001
  0.001 -0.003  0.008 -0.001  0.849
atom   17   Tr[ns(na)] =   5.83924
    eigenvalues: 
  0.431  0.449  0.454  0.675  0.912
    eigenvectors:
  0.000  0.030  0.964  0.000  0.007
  0.000  0.010  0.000  0.989  0.000
  0.000  0.960  0.029  0.011  0.000
  0.000  0.000  0.007  0.000  0.993
  1.000  0.000  0.000  0.000  0.000
    occupations:
  0.457 -0.001  0.001  0.038  0.000
 -0.001  0.672  0.023  0.001 -0.000
  0.001  0.023  0.452  0.003  0.000
  0.038  0.001  0.003  0.908 -0.000
  0.000 -0.000  0.000 -0.000  0.431
atom   22   Tr[ns(na)] =   7.31890
    eigenvalues: 
  0.446  0.459  0.886  0.901  0.967
    eigenvectors:
  0.002  0.159  0.000  0.000  0.840
  0.992  0.008  0.000  0.000  0.000
  0.000  0.000  0.119  0.881  0.000
  0.007  0.833  0.000  0.000  0.160
  0.000  0.000  0.881  0.119  0.000
    occupations:
  0.886  0.002 -0.000 -0.186  0.000
  0.002  0.446  0.000  0.001 -0.000
 -0.000  0.000  0.899 -0.000  0.005
 -0.186  0.001 -0.000  0.541  0.000
  0.000 -0.000  0.005  0.000  0.888
atom   23   Tr[ns(na)] =   7.35594
    eigenvalues: 
  0.432  0.463  0.884  0.943  0.956
    eigenvectors:
  0.000  0.992  0.000  0.000  0.008
  0.000  0.000  0.000  0.996  0.003
  0.000  0.000  1.000  0.000  0.000
  0.000  0.007  0.000  0.004  0.989
  1.000  0.000  0.000  0.000  0.000
    occupations:
  0.467  0.010 -0.000  0.042 -0.000
  0.010  0.943  0.000 -0.000 -0.000
 -0.000  0.000  0.884 -0.001 -0.003
  0.042 -0.000 -0.001  0.952 -0.000
 -0.000 -0.000 -0.003 -0.000  0.432
N of occupied +U levels =  54.1465759
 --- exit write_ns ---

     negative rho (up, down):  0.678E+00 0.000E+00

     total cpu time spent up to now is      491.3 secs

     total energy              =   -1967.08628345 Ry
     Harris-Foulkes estimate   =   -1984.60359725 Ry
     estimated scf accuracy    <      20.91515347 Ry

     iteration #  2     ecut=    40.00 Ry     beta=0.70
     Davidson diagonalization with overlap
     ethr =  8.75E-03,  avg # of iterations =  5.0

     negative rho (up, down):  0.586E+00 0.000E+00

     total cpu time spent up to now is      812.2 secs

     total energy              =   -1880.12572287 Ry
     Harris-Foulkes estimate   =   -2068.59045937 Ry
     estimated scf accuracy    <    2329.16390629 Ry

     iteration #  3     ecut=    40.00 Ry     beta=0.70
     Davidson diagonalization with overlap
     ethr =  8.75E-03,  avg # of iterations =  5.0

     negative rho (up, down):  0.536E+00 0.000E+00

     total cpu time spent up to now is     1155.0 secs

     total energy              =   -1963.66971285 Ry
     Harris-Foulkes estimate   =   -2005.04808977 Ry
     estimated scf accuracy    <     333.81127029 Ry

     iteration #  4     ecut=    40.00 Ry     beta=0.70
     Davidson diagonalization with overlap
     ethr =  8.75E-03,  avg # of iterations =  3.2

     negative rho (up, down):  0.549E+00 0.000E+00

     total cpu time spent up to now is     1371.1 secs

     total energy              =   -1978.90128887 Ry
     Harris-Foulkes estimate   =   -1984.16421322 Ry
     estimated scf accuracy    <      23.08635171 Ry

     iteration #  5     ecut=    40.00 Ry     beta=0.70
     Davidson diagonalization with overlap
     ethr =  8.75E-03,  avg # of iterations =  2.0

     negative rho (up, down):  0.572E+00 0.000E+00

     total cpu time spent up to now is     1558.3 secs

     total energy              =   -1980.98079583 Ry
     Harris-Foulkes estimate   =   -1982.37059778 Ry
     estimated scf accuracy    <      18.64234774 Ry

     iteration #  6     ecut=    40.00 Ry     beta=0.70
     Davidson diagonalization with overlap
     ethr =  7.80E-03,  avg # of iterations =  1.1

     negative rho (up, down):  0.591E+00 0.000E+00

     total cpu time spent up to now is     1741.8 secs

     total energy              =   -1981.31445368 Ry
     Harris-Foulkes estimate   =   -1981.79812204 Ry
     estimated scf accuracy    <       3.48080442 Ry

     iteration #  7     ecut=    40.00 Ry     beta=0.70
     Davidson diagonalization with overlap
     ethr =  1.46E-03,  avg # of iterations =  2.5

     negative rho (up, down):  0.601E+00 0.000E+00

     total cpu time spent up to now is     1934.2 secs

     total energy              =   -1981.42713073 Ry
     Harris-Foulkes estimate   =   -1981.59584261 Ry
     estimated scf accuracy    <       2.91368688 Ry

     iteration #  8     ecut=    40.00 Ry     beta=0.70
     Davidson diagonalization with overlap
     ethr =  1.22E-03,  avg # of iterations =  1.6

     negative rho (up, down):  0.615E+00 0.000E+00

     total cpu time spent up to now is     2121.9 secs

     total energy              =   -1981.43036538 Ry
     Harris-Foulkes estimate   =   -1981.52772951 Ry
     estimated scf accuracy    <       1.20097312 Ry

     iteration #  9     ecut=    40.00 Ry     beta=0.70
     Davidson diagonalization with overlap
     ethr =  5.02E-04,  avg # of iterations =  4.6

     negative rho (up, down):  0.637E+00 0.000E+00

     total cpu time spent up to now is     2336.9 secs

     total energy              =   -1981.38474588 Ry
     Harris-Foulkes estimate   =   -1981.56073129 Ry
     estimated scf accuracy    <       1.65378835 Ry

     iteration # 10     ecut=    40.00 Ry     beta=0.70
     Davidson diagonalization with overlap
     ethr =  5.02E-04,  avg # of iterations =  1.3

     negative rho (up, down):  0.662E+00 0.000E+00

     total cpu time spent up to now is     2527.6 secs

     total energy              =   -1981.38536510 Ry
     Harris-Foulkes estimate   =   -1981.48081738 Ry
     estimated scf accuracy    <       0.61174514 Ry

     iteration # 11     ecut=    40.00 Ry     beta=0.70
     Davidson diagonalization with overlap
     ethr =  2.56E-04,  avg # of iterations =  2.6

     negative rho (up, down):  0.679E+00 0.000E+00

     total cpu time spent up to now is     2724.5 secs

     total energy              =   -1981.37208198 Ry
     Harris-Foulkes estimate   =   -1981.46742833 Ry
     estimated scf accuracy    <       0.47326894 Ry

     iteration # 12     ecut=    40.00 Ry     beta=0.70
     Davidson diagonalization with overlap
     ethr =  1.98E-04,  avg # of iterations =  4.8

     negative rho (up, down):  0.687E+00 0.000E+00

     total cpu time spent up to now is     2928.2 secs

     total energy              =   -1981.32561315 Ry
     Harris-Foulkes estimate   =   -1981.51527663 Ry
     estimated scf accuracy    <       2.00250224 Ry

     iteration # 13     ecut=    40.00 Ry     beta=0.70
     Davidson diagonalization with overlap
     ethr =  1.98E-04,  avg # of iterations =  3.4

     negative rho (up, down):  0.682E+00 0.000E+00

     total cpu time spent up to now is     3128.8 secs

     total energy              =   -1981.34613276 Ry
     Harris-Foulkes estimate   =   -1981.48225071 Ry
     estimated scf accuracy    <       1.38357375 Ry

     iteration # 14     ecut=    40.00 Ry     beta=0.70
     Davidson diagonalization with overlap
     ethr =  1.98E-04,  avg # of iterations =  1.0

     negative rho (up, down):  0.685E+00 0.000E+00

     total cpu time spent up to now is     3324.5 secs

     total energy              =   -1981.33729418 Ry
     Harris-Foulkes estimate   =   -1981.48910695 Ry
     estimated scf accuracy    <       0.78783214 Ry

     iteration # 15     ecut=    40.00 Ry     beta=0.70
     Davidson diagonalization with overlap
     ethr =  1.98E-04,  avg # of iterations =  3.0

     negative rho (up, down):  0.686E+00 0.000E+00

     total cpu time spent up to now is     3527.4 secs

     total energy              =   -1981.38885224 Ry
     Harris-Foulkes estimate   =   -1981.46855317 Ry
     estimated scf accuracy    <       0.45388505 Ry

     iteration # 16     ecut=    40.00 Ry     beta=0.70
     Davidson diagonalization with overlap
     ethr =  1.90E-04,  avg # of iterations =  1.0

     negative rho (up, down):  0.688E+00 0.000E+00

     total cpu time spent up to now is     3735.6 secs

     total energy              =   -1981.40540466 Ry
     Harris-Foulkes estimate   =   -1981.45378331 Ry
     estimated scf accuracy    <       0.44383893 Ry

     iteration # 17     ecut=    40.00 Ry     beta=0.70
     Davidson diagonalization with overlap
     ethr =  1.86E-04,  avg # of iterations =  1.0

     negative rho (up, down):  0.689E+00 0.000E+00

     total cpu time spent up to now is     3941.0 secs

     total energy              =   -1981.42013394 Ry
     Harris-Foulkes estimate   =   -1981.43260092 Ry
     estimated scf accuracy    <       0.16379675 Ry

     iteration # 18     ecut=    40.00 Ry     beta=0.70
     Davidson diagonalization with overlap
     ethr =  6.85E-05,  avg # of iterations =  1.0

     negative rho (up, down):  0.690E+00 0.000E+00

     total cpu time spent up to now is     4139.8 secs

     total energy              =   -1981.42405943 Ry
     Harris-Foulkes estimate   =   -1981.42859212 Ry
     estimated scf accuracy    <       0.03149735 Ry

     iteration # 19     ecut=    40.00 Ry     beta=0.70
     Davidson diagonalization with overlap
     ethr =  1.32E-05,  avg # of iterations =  5.0

     negative rho (up, down):  0.692E+00 0.000E+00

     total cpu time spent up to now is     4344.6 secs

     total energy              =   -1981.42416562 Ry
     Harris-Foulkes estimate   =   -1981.42933801 Ry
     estimated scf accuracy    <       0.05672333 Ry

     iteration # 20     ecut=    40.00 Ry     beta=0.70
     Davidson diagonalization with overlap
     ethr =  1.32E-05,  avg # of iterations =  1.0

     negative rho (up, down):  0.693E+00 0.000E+00

     total cpu time spent up to now is     4535.5 secs

     total energy              =   -1981.42573649 Ry
     Harris-Foulkes estimate   =   -1981.42746131 Ry
     estimated scf accuracy    <       0.01010876 Ry

     iteration # 21     ecut=    40.00 Ry     beta=0.70
     Davidson diagonalization with overlap
     ethr =  4.23E-06,  avg # of iterations =  3.8

     negative rho (up, down):  0.693E+00 0.000E+00

     total cpu time spent up to now is     4743.1 secs

     total energy              =   -1981.42421946 Ry
     Harris-Foulkes estimate   =   -1981.42933479 Ry
     estimated scf accuracy    <       0.03680577 Ry

     iteration # 22     ecut=    40.00 Ry     beta=0.70
     Davidson diagonalization with overlap
     ethr =  4.23E-06,  avg # of iterations =  1.0

     negative rho (up, down):  0.693E+00 0.000E+00

     total cpu time spent up to now is     4932.3 secs

     total energy              =   -1981.42595448 Ry
     Harris-Foulkes estimate   =   -1981.42760013 Ry
     estimated scf accuracy    <       0.01731659 Ry

     iteration # 23     ecut=    40.00 Ry     beta=0.70
     Davidson diagonalization with overlap
     ethr =  4.23E-06,  avg # of iterations =  2.6

     negative rho (up, down):  0.693E+00 0.000E+00

     total cpu time spent up to now is     5137.9 secs

     total energy              =   -1981.42634294 Ry
     Harris-Foulkes estimate   =   -1981.42717656 Ry
     estimated scf accuracy    <       0.00760315 Ry

     iteration # 24     ecut=    40.00 Ry     beta=0.70
     Davidson diagonalization with overlap
     ethr =  3.18E-06,  avg # of iterations =  1.0

     negative rho (up, down):  0.694E+00 0.000E+00

     total cpu time spent up to now is     5324.9 secs

     total energy              =   -1981.42601592 Ry
     Harris-Foulkes estimate   =   -1981.42768203 Ry
     estimated scf accuracy    <       0.01287072 Ry

     iteration # 25     ecut=    40.00 Ry     beta=0.70
     Davidson diagonalization with overlap
     ethr =  3.18E-06,  avg # of iterations =  1.0

     negative rho (up, down):  0.694E+00 0.000E+00

     total cpu time spent up to now is     5512.0 secs

     total energy              =   -1981.42654732 Ry
     Harris-Foulkes estimate   =   -1981.42713553 Ry
     estimated scf accuracy    <       0.00378379 Ry

     iteration # 26     ecut=    40.00 Ry     beta=0.70
     Davidson diagonalization with overlap
     ethr =  1.58E-06,  avg # of iterations =  1.0

     negative rho (up, down):  0.694E+00 0.000E+00

     total cpu time spent up to now is     5699.3 secs

     total energy              =   -1981.42673572 Ry
     Harris-Foulkes estimate   =   -1981.42697298 Ry
     estimated scf accuracy    <       0.00258857 Ry

     iteration # 27     ecut=    40.00 Ry     beta=0.70
     Davidson diagonalization with overlap
     ethr =  1.08E-06,  avg # of iterations =  1.0

     negative rho (up, down):  0.694E+00 0.000E+00

     total cpu time spent up to now is     5884.2 secs

     total energy              =   -1981.42682448 Ry
     Harris-Foulkes estimate   =   -1981.42687885 Ry
     estimated scf accuracy    <       0.00037466 Ry

     iteration # 28     ecut=    40.00 Ry     beta=0.70
     Davidson diagonalization with overlap
     ethr =  1.57E-07,  avg # of iterations =  1.6

     negative rho (up, down):  0.694E+00 0.000E+00

     total cpu time spent up to now is     6076.5 secs

     total energy              =   -1981.42669656 Ry
     Harris-Foulkes estimate   =   -1981.42702801 Ry
     estimated scf accuracy    <       0.00516498 Ry

     iteration # 29     ecut=    40.00 Ry     beta=0.70
     Davidson diagonalization with overlap
     ethr =  1.57E-07,  avg # of iterations =  1.0

     negative rho (up, down):  0.694E+00 0.000E+00

     total cpu time spent up to now is     6262.9 secs

     total energy              =   -1981.42683446 Ry
     Harris-Foulkes estimate   =   -1981.42687764 Ry
     estimated scf accuracy    <       0.00027990 Ry

     iteration # 30     ecut=    40.00 Ry     beta=0.70
     Davidson diagonalization with overlap
     ethr =  1.17E-07,  avg # of iterations =  1.0

     negative rho (up, down):  0.694E+00 0.000E+00

     total cpu time spent up to now is     6449.4 secs

     total energy              =   -1981.42679599 Ry
     Harris-Foulkes estimate   =   -1981.42692929 Ry
     estimated scf accuracy    <       0.00153060 Ry

     iteration # 31     ecut=    40.00 Ry     beta=0.70
     Davidson diagonalization with overlap
     ethr =  1.17E-07,  avg # of iterations =  1.0

     negative rho (up, down):  0.694E+00 0.000E+00

     total cpu time spent up to now is     6636.8 secs

     total energy              =   -1981.42684092 Ry
     Harris-Foulkes estimate   =   -1981.42688286 Ry
     estimated scf accuracy    <       0.00031008 Ry

     iteration # 32     ecut=    40.00 Ry     beta=0.70
     Davidson diagonalization with overlap
     ethr =  1.17E-07,  avg # of iterations =  1.0

     negative rho (up, down):  0.694E+00 0.000E+00

     total cpu time spent up to now is     6821.8 secs

     total energy              =   -1981.42683740 Ry
     Harris-Foulkes estimate   =   -1981.42688181 Ry
     estimated scf accuracy    <       0.00039142 Ry

     iteration # 33     ecut=    40.00 Ry     beta=0.70
     Davidson diagonalization with overlap
     ethr =  1.17E-07,  avg # of iterations =  1.0

     negative rho (up, down):  0.694E+00 0.000E+00

     total cpu time spent up to now is     7014.5 secs

     total energy              =   -1981.42682329 Ry
     Harris-Foulkes estimate   =   -1981.42690388 Ry
     estimated scf accuracy    <       0.00112966 Ry

     iteration # 34     ecut=    40.00 Ry     beta=0.70
     Davidson diagonalization with overlap
     ethr =  1.17E-07,  avg # of iterations =  1.0

     negative rho (up, down):  0.694E+00 0.000E+00

     total cpu time spent up to now is     7206.9 secs

     total energy              =   -1981.42685852 Ry
     Harris-Foulkes estimate   =   -1981.42686697 Ry
     estimated scf accuracy    <       0.00005373 Ry

     iteration # 35     ecut=    40.00 Ry     beta=0.70
     Davidson diagonalization with overlap
     ethr =  2.25E-08,  avg # of iterations =  1.0

     negative rho (up, down):  0.694E+00 0.000E+00

     total cpu time spent up to now is     7393.4 secs

     total energy              =   -1981.42685635 Ry
     Harris-Foulkes estimate   =   -1981.42686916 Ry
     estimated scf accuracy    <       0.00007606 Ry

     iteration # 36     ecut=    40.00 Ry     beta=0.70
     Davidson diagonalization with overlap
     ethr =  2.25E-08,  avg # of iterations =  1.0

     negative rho (up, down):  0.694E+00 0.000E+00

     total cpu time spent up to now is     7577.3 secs

     total energy              =   -1981.42684837 Ry
     Harris-Foulkes estimate   =   -1981.42687562 Ry
     estimated scf accuracy    <       0.00029296 Ry

     iteration # 37     ecut=    40.00 Ry     beta=0.70
     Davidson diagonalization with overlap
     ethr =  2.25E-08,  avg # of iterations =  1.0

     negative rho (up, down):  0.694E+00 0.000E+00

     total cpu time spent up to now is     7764.8 secs

     total energy              =   -1981.42685060 Ry
     Harris-Foulkes estimate   =   -1981.42687664 Ry
     estimated scf accuracy    <       0.00023224 Ry

     iteration # 38     ecut=    40.00 Ry     beta=0.70
     Davidson diagonalization with overlap
     ethr =  2.25E-08,  avg # of iterations =  1.0

     negative rho (up, down):  0.694E+00 0.000E+00

     total cpu time spent up to now is     7949.4 secs

     total energy              =   -1981.42685470 Ry
     Harris-Foulkes estimate   =   -1981.42687116 Ry
     estimated scf accuracy    <       0.00024103 Ry

     iteration # 39     ecut=    40.00 Ry     beta=0.70
     Davidson diagonalization with overlap
     ethr =  2.25E-08,  avg # of iterations =  1.0

     negative rho (up, down):  0.694E+00 0.000E+00

     total cpu time spent up to now is     8135.0 secs

     total energy              =   -1981.42685804 Ry
     Harris-Foulkes estimate   =   -1981.42686863 Ry
     estimated scf accuracy    <       0.00009013 Ry

     iteration # 40     ecut=    40.00 Ry     beta=0.70
     Davidson diagonalization with overlap
     ethr =  2.25E-08,  avg # of iterations =  1.0

     negative rho (up, down):  0.694E+00 0.000E+00

     total cpu time spent up to now is     8318.4 secs

     total energy              =   -1981.42686070 Ry
     Harris-Foulkes estimate   =   -1981.42686569 Ry
     estimated scf accuracy    <       0.00004726 Ry

     iteration # 41     ecut=    40.00 Ry     beta=0.70
     Davidson diagonalization with overlap
     ethr =  1.98E-08,  avg # of iterations =  1.0

     negative rho (up, down):  0.694E+00 0.000E+00

     total cpu time spent up to now is     8503.9 secs

     total energy              =   -1981.42685809 Ry
     Harris-Foulkes estimate   =   -1981.42686869 Ry
     estimated scf accuracy    <       0.00009018 Ry

     iteration # 42     ecut=    40.00 Ry     beta=0.70
     Davidson diagonalization with overlap
     ethr =  1.98E-08,  avg # of iterations =  1.0

     negative rho (up, down):  0.694E+00 0.000E+00

     total cpu time spent up to now is     8698.6 secs

     total energy              =   -1981.42685926 Ry
     Harris-Foulkes estimate   =   -1981.42686746 Ry
     estimated scf accuracy    <       0.00007896 Ry

     iteration # 43     ecut=    40.00 Ry     beta=0.70
     Davidson diagonalization with overlap
     ethr =  1.98E-08,  avg # of iterations =  1.0

     negative rho (up, down):  0.694E+00 0.000E+00

     total cpu time spent up to now is     8891.6 secs

     total energy              =   -1981.42685955 Ry
     Harris-Foulkes estimate   =   -1981.42686627 Ry
     estimated scf accuracy    <       0.00007622 Ry

     iteration # 44     ecut=    40.00 Ry     beta=0.70
     Davidson diagonalization with overlap
     ethr =  1.98E-08,  avg # of iterations =  1.0

     negative rho (up, down):  0.694E+00 0.000E+00

     total cpu time spent up to now is     9082.0 secs

     total energy              =   -1981.42685708 Ry
     Harris-Foulkes estimate   =   -1981.42686946 Ry
     estimated scf accuracy    <       0.00011276 Ry

     iteration # 45     ecut=    40.00 Ry     beta=0.70
     Davidson diagonalization with overlap
     ethr =  1.98E-08,  avg # of iterations =  1.0

     negative rho (up, down):  0.694E+00 0.000E+00

     total cpu time spent up to now is     9268.4 secs

     total energy              =   -1981.42686055 Ry
     Harris-Foulkes estimate   =   -1981.42686641 Ry
     estimated scf accuracy    <       0.00004538 Ry

     iteration # 46     ecut=    40.00 Ry     beta=0.70
     Davidson diagonalization with overlap
     ethr =  1.90E-08,  avg # of iterations =  1.0

     negative rho (up, down):  0.694E+00 0.000E+00

     total cpu time spent up to now is     9464.4 secs

     total energy              =   -1981.42686114 Ry
     Harris-Foulkes estimate   =   -1981.42686576 Ry
     estimated scf accuracy    <       0.00004709 Ry

     iteration # 47     ecut=    40.00 Ry     beta=0.70
     Davidson diagonalization with overlap
     ethr =  1.90E-08,  avg # of iterations =  1.0

     negative rho (up, down):  0.694E+00 0.000E+00

     total cpu time spent up to now is     9651.2 secs

     total energy              =   -1981.42686223 Ry
     Harris-Foulkes estimate   =   -1981.42686461 Ry
     estimated scf accuracy    <       0.00002075 Ry

     iteration # 48     ecut=    40.00 Ry     beta=0.70
     Davidson diagonalization with overlap
     ethr =  8.68E-09,  avg # of iterations =  1.0

     negative rho (up, down):  0.694E+00 0.000E+00

     total cpu time spent up to now is     9838.0 secs

     total energy              =   -1981.42685954 Ry
     Harris-Foulkes estimate   =   -1981.42686747 Ry
     estimated scf accuracy    <       0.00011342 Ry

     iteration # 49     ecut=    40.00 Ry     beta=0.70
     Davidson diagonalization with overlap
     ethr =  8.68E-09,  avg # of iterations =  1.0

     negative rho (up, down):  0.694E+00 0.000E+00

     total cpu time spent up to now is    10027.8 secs

     total energy              =   -1981.42686155 Ry
     Harris-Foulkes estimate   =   -1981.42686468 Ry
     estimated scf accuracy    <       0.00002010 Ry

     iteration # 50     ecut=    40.00 Ry     beta=0.70
     Davidson diagonalization with overlap
     ethr =  8.41E-09,  avg # of iterations =  1.0

     negative rho (up, down):  0.694E+00 0.000E+00

     total cpu time spent up to now is    10214.4 secs

     total energy              =   -1981.42685555 Ry
     Harris-Foulkes estimate   =   -1981.42687149 Ry
     estimated scf accuracy    <       0.00019686 Ry

     iteration # 51     ecut=    40.00 Ry     beta=0.70
     Davidson diagonalization with overlap
     ethr =  8.41E-09,  avg # of iterations =  1.0

     negative rho (up, down):  0.694E+00 0.000E+00

     total cpu time spent up to now is    10400.7 secs

     total energy              =   -1981.42686101 Ry
     Harris-Foulkes estimate   =   -1981.42686597 Ry
     estimated scf accuracy    <       0.00004399 Ry

     iteration # 52     ecut=    40.00 Ry     beta=0.70
     Davidson diagonalization with overlap
     ethr =  8.41E-09,  avg # of iterations =  1.0

     negative rho (up, down):  0.694E+00 0.000E+00

     total cpu time spent up to now is    10585.9 secs

     total energy              =   -1981.42686089 Ry
     Harris-Foulkes estimate   =   -1981.42686560 Ry
     estimated scf accuracy    <       0.00004172 Ry

     iteration # 53     ecut=    40.00 Ry     beta=0.70
     Davidson diagonalization with overlap
     ethr =  8.41E-09,  avg # of iterations =  1.0

     negative rho (up, down):  0.694E+00 0.000E+00

     total cpu time spent up to now is    10769.9 secs

     total energy              =   -1981.42685966 Ry
     Harris-Foulkes estimate   =   -1981.42686747 Ry
     estimated scf accuracy    <       0.00011022 Ry

     iteration # 54     ecut=    40.00 Ry     beta=0.70
     Davidson diagonalization with overlap
     ethr =  8.41E-09,  avg # of iterations =  1.0

     negative rho (up, down):  0.694E+00 0.000E+00

     total cpu time spent up to now is    10950.6 secs

     total energy              =   -1981.42686289 Ry
     Harris-Foulkes estimate   =   -1981.42686407 Ry
     estimated scf accuracy    <       0.00000864 Ry

     iteration # 55     ecut=    40.00 Ry     beta=0.70
     Davidson diagonalization with overlap
     ethr =  3.62E-09,  avg # of iterations =  1.0

     negative rho (up, down):  0.694E+00 0.000E+00

     total cpu time spent up to now is    11133.5 secs

     total energy              =   -1981.42686234 Ry
     Harris-Foulkes estimate   =   -1981.42686469 Ry
     estimated scf accuracy    <       0.00001838 Ry

     iteration # 56     ecut=    40.00 Ry     beta=0.70
     Davidson diagonalization with overlap
     ethr =  3.62E-09,  avg # of iterations =  1.0

     negative rho (up, down):  0.694E+00 0.000E+00

     total cpu time spent up to now is    11312.3 secs

     total energy              =   -1981.42686139 Ry
     Harris-Foulkes estimate   =   -1981.42686527 Ry
     estimated scf accuracy    <       0.00004133 Ry

     iteration # 57     ecut=    40.00 Ry     beta=0.70
     Davidson diagonalization with overlap
     ethr =  3.62E-09,  avg # of iterations =  1.0

     negative rho (up, down):  0.694E+00 0.000E+00

     total cpu time spent up to now is    11493.5 secs

     total energy              =   -1981.42686158 Ry
     Harris-Foulkes estimate   =   -1981.42686557 Ry
     estimated scf accuracy    <       0.00003506 Ry

     iteration # 58     ecut=    40.00 Ry     beta=0.70
     Davidson diagonalization with overlap
     ethr =  3.62E-09,  avg # of iterations =  1.0

     negative rho (up, down):  0.694E+00 0.000E+00

     total cpu time spent up to now is    11679.2 secs

     total energy              =   -1981.42686157 Ry
     Harris-Foulkes estimate   =   -1981.42686531 Ry
     estimated scf accuracy    <       0.00005136 Ry

     iteration # 59     ecut=    40.00 Ry     beta=0.70
     Davidson diagonalization with overlap
     ethr =  3.62E-09,  avg # of iterations =  1.0

     negative rho (up, down):  0.694E+00 0.000E+00

     total cpu time spent up to now is    11862.5 secs

     total energy              =   -1981.42686211 Ry
     Harris-Foulkes estimate   =   -1981.42686506 Ry
     estimated scf accuracy    <       0.00002535 Ry

     iteration # 60     ecut=    40.00 Ry     beta=0.70
     Davidson diagonalization with overlap
     ethr =  3.62E-09,  avg # of iterations =  1.0

     negative rho (up, down):  0.694E+00 0.000E+00

     total cpu time spent up to now is    12049.9 secs

     total energy              =   -1981.42686277 Ry
     Harris-Foulkes estimate   =   -1981.42686426 Ry
     estimated scf accuracy    <       0.00001654 Ry

     iteration # 61     ecut=    40.00 Ry     beta=0.70
     Davidson diagonalization with overlap
     ethr =  3.62E-09,  avg # of iterations =  1.0

     negative rho (up, down):  0.694E+00 0.000E+00

     total cpu time spent up to now is    12236.5 secs

     total energy              =   -1981.42686246 Ry
     Harris-Foulkes estimate   =   -1981.42686463 Ry
     estimated scf accuracy    <       0.00001955 Ry

     iteration # 62     ecut=    40.00 Ry     beta=0.70
     Davidson diagonalization with overlap
     ethr =  3.62E-09,  avg # of iterations =  1.0

     negative rho (up, down):  0.694E+00 0.000E+00

     total cpu time spent up to now is    12420.4 secs

     total energy              =   -1981.42686265 Ry
     Harris-Foulkes estimate   =   -1981.42686442 Ry
     estimated scf accuracy    <       0.00001626 Ry

     iteration # 63     ecut=    40.00 Ry     beta=0.70
     Davidson diagonalization with overlap
     ethr =  3.62E-09,  avg # of iterations =  1.0

     negative rho (up, down):  0.694E+00 0.000E+00

     total cpu time spent up to now is    12608.1 secs

     total energy              =   -1981.42686248 Ry
     Harris-Foulkes estimate   =   -1981.42686425 Ry
     estimated scf accuracy    <       0.00001948 Ry

     iteration # 64     ecut=    40.00 Ry     beta=0.70
     Davidson diagonalization with overlap
     ethr =  3.62E-09,  avg # of iterations =  1.0

     negative rho (up, down):  0.694E+00 0.000E+00

     total cpu time spent up to now is    12797.0 secs

     total energy              =   -1981.42686124 Ry
     Harris-Foulkes estimate   =   -1981.42686576 Ry
     estimated scf accuracy    <       0.00004687 Ry

     iteration # 65     ecut=    40.00 Ry     beta=0.70
     Davidson diagonalization with overlap
     ethr =  3.62E-09,  avg # of iterations =  1.0

     negative rho (up, down):  0.694E+00 0.000E+00

     total cpu time spent up to now is    12984.1 secs

     total energy              =   -1981.42686205 Ry
     Harris-Foulkes estimate   =   -1981.42686507 Ry
     estimated scf accuracy    <       0.00002608 Ry

     iteration # 66     ecut=    40.00 Ry     beta=0.70
     Davidson diagonalization with overlap
     ethr =  3.62E-09,  avg # of iterations =  1.0

     negative rho (up, down):  0.694E+00 0.000E+00

     total cpu time spent up to now is    13173.2 secs

     total energy              =   -1981.42686266 Ry
     Harris-Foulkes estimate   =   -1981.42686440 Ry
     estimated scf accuracy    <       0.00001740 Ry

     iteration # 67     ecut=    40.00 Ry     beta=0.70
     Davidson diagonalization with overlap
     ethr =  3.62E-09,  avg # of iterations =  1.0

     negative rho (up, down):  0.694E+00 0.000E+00

     total cpu time spent up to now is    13360.5 secs

     total energy              =   -1981.42686309 Ry
     Harris-Foulkes estimate   =   -1981.42686400 Ry
     estimated scf accuracy    <       0.00000818 Ry

     iteration # 68     ecut=    40.00 Ry     beta=0.70
     Davidson diagonalization with overlap
     ethr =  3.42E-09,  avg # of iterations =  1.0

     negative rho (up, down):  0.694E+00 0.000E+00

     total cpu time spent up to now is    13557.9 secs

     total energy              =   -1981.42686256 Ry
     Harris-Foulkes estimate   =   -1981.42686455 Ry
     estimated scf accuracy    <       0.00002597 Ry

     iteration # 69     ecut=    40.00 Ry     beta=0.70
     Davidson diagonalization with overlap
     ethr =  3.42E-09,  avg # of iterations =  1.0

     negative rho (up, down):  0.694E+00 0.000E+00

     total cpu time spent up to now is    13748.7 secs

     total energy              =   -1981.42686291 Ry
     Harris-Foulkes estimate   =   -1981.42686403 Ry
     estimated scf accuracy    <       0.00000828 Ry

     iteration # 70     ecut=    40.00 Ry     beta=0.70
     Davidson diagonalization with overlap
     ethr =  3.42E-09,  avg # of iterations =  1.0

     negative rho (up, down):  0.694E+00 0.000E+00

     total cpu time spent up to now is    13940.7 secs

     total energy              =   -1981.42686064 Ry
     Harris-Foulkes estimate   =   -1981.42686648 Ry
     estimated scf accuracy    <       0.00007246 Ry

     iteration # 71     ecut=    40.00 Ry     beta=0.70
     Davidson diagonalization with overlap
     ethr =  3.42E-09,  avg # of iterations =  1.0

     negative rho (up, down):  0.694E+00 0.000E+00

     total cpu time spent up to now is    14134.7 secs

     total energy              =   -1981.42686233 Ry
     Harris-Foulkes estimate   =   -1981.42686475 Ry
     estimated scf accuracy    <       0.00002204 Ry

     iteration # 72     ecut=    40.00 Ry     beta=0.70
     Davidson diagonalization with overlap
     ethr =  3.42E-09,  avg # of iterations =  1.0

     negative rho (up, down):  0.694E+00 0.000E+00

     total cpu time spent up to now is    14329.2 secs

     total energy              =   -1981.42686230 Ry
     Harris-Foulkes estimate   =   -1981.42686455 Ry
     estimated scf accuracy    <       0.00002007 Ry

     iteration # 73     ecut=    40.00 Ry     beta=0.70
     Davidson diagonalization with overlap
     ethr =  3.42E-09,  avg # of iterations =  1.0

     negative rho (up, down):  0.694E+00 0.000E+00

     total cpu time spent up to now is    14516.0 secs

     total energy              =   -1981.42686188 Ry
     Harris-Foulkes estimate   =   -1981.42686526 Ry
     estimated scf accuracy    <       0.00004685 Ry

     iteration # 74     ecut=    40.00 Ry     beta=0.70
     Davidson diagonalization with overlap
     ethr =  3.42E-09,  avg # of iterations =  1.0

     negative rho (up, down):  0.694E+00 0.000E+00

     total cpu time spent up to now is    14703.6 secs

     total energy              =   -1981.42686325 Ry
     Harris-Foulkes estimate   =   -1981.42686386 Ry
     estimated scf accuracy    <       0.00000541 Ry

     iteration # 75     ecut=    40.00 Ry     beta=0.70
     Davidson diagonalization with overlap
     ethr =  2.26E-09,  avg # of iterations =  1.0

     negative rho (up, down):  0.694E+00 0.000E+00

     total cpu time spent up to now is    14887.1 secs

     total energy              =   -1981.42686303 Ry
     Harris-Foulkes estimate   =   -1981.42686408 Ry
     estimated scf accuracy    <       0.00000855 Ry

     iteration # 76     ecut=    40.00 Ry     beta=0.70
     Davidson diagonalization with overlap
     ethr =  2.26E-09,  avg # of iterations =  1.0

     negative rho (up, down):  0.694E+00 0.000E+00

     total cpu time spent up to now is    15069.5 secs

     total energy              =   -1981.42686266 Ry
     Harris-Foulkes estimate   =   -1981.42686430 Ry
     estimated scf accuracy    <       0.00001726 Ry

     iteration # 77     ecut=    40.00 Ry     beta=0.70
     Davidson diagonalization with overlap
     ethr =  2.26E-09,  avg # of iterations =  1.0

     negative rho (up, down):  0.694E+00 0.000E+00

     total cpu time spent up to now is    15252.3 secs

     total energy              =   -1981.42686261 Ry
     Harris-Foulkes estimate   =   -1981.42686451 Ry
     estimated scf accuracy    <       0.00001683 Ry

     iteration # 78     ecut=    40.00 Ry     beta=0.70
     Davidson diagonalization with overlap
     ethr =  2.26E-09,  avg # of iterations =  1.0

     negative rho (up, down):  0.694E+00 0.000E+00

     total cpu time spent up to now is    15440.8 secs

     total energy              =   -1981.42686230 Ry
     Harris-Foulkes estimate   =   -1981.42686469 Ry
     estimated scf accuracy    <       0.00003144 Ry

     iteration # 79     ecut=    40.00 Ry     beta=0.70
     Davidson diagonalization with overlap
     ethr =  2.26E-09,  avg # of iterations =  1.0

     negative rho (up, down):  0.694E+00 0.000E+00

     total cpu time spent up to now is    15636.1 secs

     total energy              =   -1981.42686255 Ry
     Harris-Foulkes estimate   =   -1981.42686465 Ry
     estimated scf accuracy    <       0.00001828 Ry

     iteration # 80     ecut=    40.00 Ry     beta=0.70
     Davidson diagonalization with overlap
     ethr =  2.26E-09,  avg # of iterations =  1.0

     negative rho (up, down):  0.694E+00 0.000E+00

     total cpu time spent up to now is    15834.2 secs

     total energy              =   -1981.42686298 Ry
     Harris-Foulkes estimate   =   -1981.42686412 Ry
     estimated scf accuracy    <       0.00001320 Ry

     iteration # 81     ecut=    40.00 Ry     beta=0.70
     Davidson diagonalization with overlap
     ethr =  2.26E-09,  avg # of iterations =  1.0

     negative rho (up, down):  0.694E+00 0.000E+00

     total cpu time spent up to now is    16029.1 secs

     total energy              =   -1981.42686289 Ry
     Harris-Foulkes estimate   =   -1981.42686425 Ry
     estimated scf accuracy    <       0.00001255 Ry

     iteration # 82     ecut=    40.00 Ry     beta=0.70
     Davidson diagonalization with overlap
     ethr =  2.26E-09,  avg # of iterations =  1.0

     negative rho (up, down):  0.694E+00 0.000E+00

     total cpu time spent up to now is    16226.6 secs

     total energy              =   -1981.42686309 Ry
     Harris-Foulkes estimate   =   -1981.42686404 Ry
     estimated scf accuracy    <       0.00000867 Ry

     iteration # 83     ecut=    40.00 Ry     beta=0.70
     Davidson diagonalization with overlap
     ethr =  2.26E-09,  avg # of iterations =  1.0

     negative rho (up, down):  0.694E+00 0.000E+00

     total cpu time spent up to now is    16424.3 secs

     total energy              =   -1981.42686298 Ry
     Harris-Foulkes estimate   =   -1981.42686393 Ry
     estimated scf accuracy    <       0.00001016 Ry

     iteration # 84     ecut=    40.00 Ry     beta=0.70
     Davidson diagonalization with overlap
     ethr =  2.26E-09,  avg # of iterations =  1.0

     negative rho (up, down):  0.694E+00 0.000E+00

     total cpu time spent up to now is    16619.7 secs

     total energy              =   -1981.42686195 Ry
     Harris-Foulkes estimate   =   -1981.42686511 Ry
     estimated scf accuracy    <       0.00003627 Ry

     iteration # 85     ecut=    40.00 Ry     beta=0.70
     Davidson diagonalization with overlap
     ethr =  2.26E-09,  avg # of iterations =  1.0

     negative rho (up, down):  0.694E+00 0.000E+00

     total cpu time spent up to now is    16804.9 secs

     total energy              =   -1981.42686227 Ry
     Harris-Foulkes estimate   =   -1981.42686485 Ry
     estimated scf accuracy    <       0.00002256 Ry

     iteration # 86     ecut=    40.00 Ry     beta=0.70
     Davidson diagonalization with overlap
     ethr =  2.26E-09,  avg # of iterations =  1.0

     negative rho (up, down):  0.694E+00 0.000E+00

     total cpu time spent up to now is    16988.9 secs

     total energy              =   -1981.42686280 Ry
     Harris-Foulkes estimate   =   -1981.42686428 Ry
     estimated scf accuracy    <       0.00001476 Ry

     iteration # 87     ecut=    40.00 Ry     beta=0.70
     Davidson diagonalization with overlap
     ethr =  2.26E-09,  avg # of iterations =  1.0

     negative rho (up, down):  0.694E+00 0.000E+00

     total cpu time spent up to now is    17175.9 secs

     total energy              =   -1981.42686313 Ry
     Harris-Foulkes estimate   =   -1981.42686399 Ry
     estimated scf accuracy    <       0.00000798 Ry

     iteration # 88     ecut=    40.00 Ry     beta=0.70
     Davidson diagonalization with overlap
     ethr =  2.26E-09,  avg # of iterations =  1.0

     negative rho (up, down):  0.694E+00 0.000E+00

     total cpu time spent up to now is    17359.6 secs

     total energy              =   -1981.42686294 Ry
     Harris-Foulkes estimate   =   -1981.42686420 Ry
     estimated scf accuracy    <       0.00001562 Ry

     iteration # 89     ecut=    40.00 Ry     beta=0.70
     Davidson diagonalization with overlap
     ethr =  2.26E-09,  avg # of iterations =  1.0

     negative rho (up, down):  0.694E+00 0.000E+00

     total cpu time spent up to now is    17543.9 secs

     total energy              =   -1981.42686320 Ry
     Harris-Foulkes estimate   =   -1981.42686387 Ry
     estimated scf accuracy    <       0.00000517 Ry

     iteration # 90     ecut=    40.00 Ry     beta=0.70
     Davidson diagonalization with overlap
     ethr =  2.16E-09,  avg # of iterations =  1.0

     negative rho (up, down):  0.694E+00 0.000E+00

     total cpu time spent up to now is    17727.8 secs

     total energy              =   -1981.42686198 Ry
     Harris-Foulkes estimate   =   -1981.42686514 Ry
     estimated scf accuracy    <       0.00003882 Ry

     iteration # 91     ecut=    40.00 Ry     beta=0.70
     Davidson diagonalization with overlap
     ethr =  2.16E-09,  avg # of iterations =  1.0

     negative rho (up, down):  0.694E+00 0.000E+00

     total cpu time spent up to now is    17912.7 secs

     total energy              =   -1981.42686266 Ry
     Harris-Foulkes estimate   =   -1981.42686443 Ry
     estimated scf accuracy    <       0.00001612 Ry

     iteration # 92     ecut=    40.00 Ry     beta=0.70
     Davidson diagonalization with overlap
     ethr =  2.16E-09,  avg # of iterations =  1.0

     negative rho (up, down):  0.694E+00 0.000E+00

     total cpu time spent up to now is    18096.2 secs

     total energy              =   -1981.42686242 Ry
     Harris-Foulkes estimate   =   -1981.42686447 Ry
     estimated scf accuracy    <       0.00001910 Ry

     iteration # 93     ecut=    40.00 Ry     beta=0.70
     Davidson diagonalization with overlap
     ethr =  2.16E-09,  avg # of iterations =  1.0

     negative rho (up, down):  0.694E+00 0.000E+00

     total cpu time spent up to now is    18293.1 secs

     total energy              =   -1981.42686207 Ry
     Harris-Foulkes estimate   =   -1981.42686507 Ry
     estimated scf accuracy    <       0.00004024 Ry

     iteration # 94     ecut=    40.00 Ry     beta=0.70
     Davidson diagonalization with overlap
     ethr =  2.16E-09,  avg # of iterations =  1.0

     negative rho (up, down):  0.694E+00 0.000E+00

     total cpu time spent up to now is    18480.7 secs

     total energy              =   -1981.42686325 Ry
     Harris-Foulkes estimate   =   -1981.42686389 Ry
     estimated scf accuracy    <       0.00000659 Ry

     iteration # 95     ecut=    40.00 Ry     beta=0.70
     Davidson diagonalization with overlap
     ethr =  2.16E-09,  avg # of iterations =  1.0

     negative rho (up, down):  0.694E+00 0.000E+00

     total cpu time spent up to now is    18676.8 secs

     total energy              =   -1981.42686316 Ry
     Harris-Foulkes estimate   =   -1981.42686396 Ry
     estimated scf accuracy    <       0.00000649 Ry

     iteration # 96     ecut=    40.00 Ry     beta=0.70
     Davidson diagonalization with overlap
     ethr =  2.16E-09,  avg # of iterations =  1.0

     negative rho (up, down):  0.694E+00 0.000E+00

     total cpu time spent up to now is    18884.0 secs

     total energy              =   -1981.42686291 Ry
     Harris-Foulkes estimate   =   -1981.42686414 Ry
     estimated scf accuracy    <       0.00001349 Ry

     iteration # 97     ecut=    40.00 Ry     beta=0.70
     Davidson diagonalization with overlap
     ethr =  2.16E-09,  avg # of iterations =  1.0

     negative rho (up, down):  0.694E+00 0.000E+00

     total cpu time spent up to now is    19078.5 secs

     total energy              =   -1981.42686280 Ry
     Harris-Foulkes estimate   =   -1981.42686430 Ry
     estimated scf accuracy    <       0.00001349 Ry

     iteration # 98     ecut=    40.00 Ry     beta=0.70
     Davidson diagonalization with overlap
     ethr =  2.16E-09,  avg # of iterations =  1.0

     negative rho (up, down):  0.694E+00 0.000E+00

     total cpu time spent up to now is    19275.3 secs

     total energy              =   -1981.42686241 Ry
     Harris-Foulkes estimate   =   -1981.42686458 Ry
     estimated scf accuracy    <       0.00002723 Ry

     iteration # 99     ecut=    40.00 Ry     beta=0.70
     Davidson diagonalization with overlap
     ethr =  2.16E-09,  avg # of iterations =  1.0

     negative rho (up, down):  0.694E+00 0.000E+00

     total cpu time spent up to now is    19464.5 secs

     total energy              =   -1981.42686233 Ry
     Harris-Foulkes estimate   =   -1981.42686488 Ry
     estimated scf accuracy    <       0.00002252 Ry

     iteration #100     ecut=    40.00 Ry     beta=0.70
     Davidson diagonalization with overlap
     ethr =  2.16E-09,  avg # of iterations =  1.0

     negative rho (up, down):  0.694E+00 0.000E+00

     total cpu time spent up to now is    19662.5 secs

     total energy              =   -1981.42686280 Ry
     Harris-Foulkes estimate   =   -1981.42686430 Ry
     estimated scf accuracy    <       0.00001754 Ry

     End of self-consistent calculation

     convergence NOT achieved after 100 iterations: stopping

     init_run     :    115.34s CPU    117.40s WALL (       1 calls)
     electrons    :  19101.73s CPU  19544.01s WALL (       1 calls)

     Called by init_run:
     wfcinit      :     37.26s CPU     37.92s WALL (       1 calls)
     potinit      :      7.34s CPU      7.46s WALL (       1 calls)

     Called by electrons:
     c_bands      :   9232.88s CPU   9460.71s WALL (     100 calls)
     sum_band     :   3967.40s CPU   4065.73s WALL (     100 calls)
     v_of_rho     :    107.14s CPU    112.60s WALL (     101 calls)
     newd         :   5756.53s CPU   5784.93s WALL (     101 calls)
     mix_rho      :     22.91s CPU     23.31s WALL (     100 calls)

     Called by c_bands:
     init_us_2    :     23.05s CPU     23.25s WALL (     606 calls)
     cegterg      :   9077.13s CPU   9269.35s WALL (     300 calls)

     Called by *egterg:
     h_psi        :   5342.18s CPU   5442.07s WALL (     742 calls)
     s_psi        :    565.69s CPU    572.02s WALL (     745 calls)
     g_psi        :     11.34s CPU     11.36s WALL (     439 calls)
     cdiaghg      :    722.31s CPU    724.17s WALL (     739 calls)

     Called by h_psi:
     add_vuspsi   :    565.43s CPU    572.41s WALL (     742 calls)
     vhpsi        :    576.30s CPU    580.56s WALL (     742 calls)

     General routines
     calbec       :   1190.23s CPU   1203.91s WALL (    2087 calls)
     fft          :    147.42s CPU    187.20s WALL (    1614 calls)
     ffts         :      1.75s CPU      1.79s WALL (     201 calls)
     fftw         :   2910.67s CPU   3014.47s WALL (  551984 calls)
     interpolate  :     16.98s CPU     17.16s WALL (     201 calls)
     davcio       :      0.06s CPU      9.70s WALL (     612 calls)

     Parallel routines
     fft_scatter  :   1052.98s CPU   1190.31s WALL (  553799 calls)
     Hubbard U routines
     new_ns       :    122.61s CPU    128.43s WALL (     100 calls)
     vhpsi        :    576.30s CPU    580.56s WALL (     742 calls)

     PWSCF        :     5h20m CPU        5h27m WALL


   This run was terminated on:  10:44:37  30Apr2014            

=------------------------------------------------------------------------------=
   JOB DONE.
=------------------------------------------------------------------------------=
STOP 1
STOP 1
STOP 1
STOP 1
STOP 1
STOP 1
STOP 1
STOP 1
STOP 1
STOP 1
STOP 1
STOP 1
STOP 1
STOP 1
STOP 1
STOP 1
--------------------------------------------------------------------------
mpirun noticed that the job aborted, but has no info as to the process
that caused that situation.
--------------------------------------------------------------------------
---------------------------------------
Running PBS batch system epilogue script
Job id: 340553.audhumbla.fysik.dtu.dk
Username: zhonxu
Groupname: campgst
Jobname: RhO2/Eads-2-layers/OH-U-0.5
Sessionid: 25829
Resources limits: neednodes=2:ppn=8:xeon8,nodes=2:ppn=8:xeon8,walltime=48:00:00
Resources used: cput=87:20:19,mem=17910020kb,vmem=21733924kb,walltime=05:28:01
Queuename: verylong
Accounting:
This job has allocated the following 16 nodes:
a083 a083 a083 a083 a083 a083 a083 a083 a081 a081 a081 a081 a081 a081 a081 a081
Finished epilogue job 340553.audhumbla.fysik.dtu.dk for zhonxu
