
     Program PWSCF v.5.0.2 (svn rev. 9656) starts on  1Apr2014 at 10: 3:23 

     This program is part of the open-source Quantum ESPRESSO suite
     for quantum simulation of materials; please cite
         "P. Giannozzi et al., J. Phys.:Condens. Matter 21 395502 (2009);
          URL http://www.quantum-espresso.org", 
     in publications or presentations arising from this work. More details at
     http://www.quantum-espresso.org/quote.php

     Parallel version (MPI), running on    16 processors
     R & G space division:  proc/nbgrp/npool/nimage =      16

     Current dimensions of program PWSCF are:
     Max number of different atomic species (ntypx) = 10
     Max number of k-points (npk) =  40000
     Max angular momentum in pseudopotentials (lmaxx) =  3
     Reading input from pwscf.in
Warning: card &CELL ignored
Warning: card / ignored

     Subspace diagonalization in iterative solution of the eigenvalue problem:
     a serial algorithm will be used


     Parallelization info
     --------------------
     sticks:   dense  smooth     PW     G-vecs:    dense   smooth      PW
     Min         346     110     31                82658    14945    2221
     Max         347     111     32                82677    14980    2230
     Sum        5547    1771    497              1322643   239441   35575



     bravais-lattice index     =            0
     lattice parameter (alat)  =      11.2250  a.u.
     unit-cell volume          =    7005.5484 (a.u.)^3
     number of atoms/cell      =           32
     number of atomic types    =            3
     number of electrons       =       215.00
     number of Kohn-Sham states=          310
     kinetic-energy cutoff     =      40.0000  Ry
     charge density cutoff     =     500.0000  Ry
     convergence threshold     =      1.0E-06
     mixing beta               =       0.7000
     number of iterations used =            8  plain     mixing
     Exchange-correlation      = SLA  PW   PBE  PBE ( 1 4 3 4 0)
     EXX-fraction              =        0.00
     nstep                     =           50


     celldm(1)=  11.224973  celldm(2)=   0.000000  celldm(3)=   0.000000
     celldm(4)=   0.000000  celldm(5)=   0.000000  celldm(6)=   0.000000

     crystal axes: (cart. coord. in units of alat)
               a(1) = (   1.000000   0.000000   0.000000 )  
               a(2) = (   0.000000   1.107086   0.000000 )  
               a(3) = (   0.000000   0.000000   4.474090 )  

     reciprocal axes: (cart. coord. in units 2 pi/alat)
               b(1) = (  1.000000  0.000000  0.000000 )  
               b(2) = (  0.000000  0.903272  0.000000 )  
               b(3) = (  0.000000  0.000000  0.223509 )  


     PseudoPot. # 1 for O  read from file:
     /home/camp/zhonxu/pseudo/o_pbe_v1.01.uspp.F.UPF
     MD5 check sum: 2bcb18d16ea4b960afae9ec6d52f22d2
     Pseudo is Ultrasoft + core correction, Zval =  6.0
     Generated by new atomic code, or converted to UPF format
     Using radial grid of  737 points,  5 beta functions with: 
                l(1) =   0
                l(2) =   0
                l(3) =   1
                l(4) =   1
                l(5) =   2
     Q(r) pseudized with  8 coefficients,  rinner =    0.900   0.900   0.900
                                                       0.900   0.900

     PseudoPot. # 2 for Ti read from file:
     /home/camp/zhonxu/pseudo/ti_pbe_v1.uspp.F.UPF
     MD5 check sum: bcc8f6961b3b91f0cac3ca967d22d0fb
     Pseudo is Ultrasoft + core correction, Zval = 12.0
     Generated by new atomic code, or converted to UPF format
     Using radial grid of  851 points,  6 beta functions with: 
                l(1) =   0
                l(2) =   0
                l(3) =   1
                l(4) =   1
                l(5) =   2
                l(6) =   2
     Q(r) pseudized with  6 coefficients,  rinner =    1.000   1.000   1.000
                                                       1.000   1.000

     PseudoPot. # 3 for H  read from file:
     /home/camp/zhonxu/pseudo/h_pbe_v1.uspp.F.UPF
     MD5 check sum: 3408e3ff4ec8b0a4e358431e7e038a48
     Pseudo is Ultrasoft, Zval =  1.0
     Generated by new atomic code, or converted to UPF format
     Using radial grid of  615 points,  2 beta functions with: 
                l(1) =   0
                l(2) =   0
     Q(r) pseudized with  8 coefficients,  rinner =    0.700

     atomic species   valence    mass     pseudopotential
        O0             6.00    15.99940     O ( 1.00)
        Ti1           12.00    47.88000     Ti( 1.00)
        H2             1.00     1.00794     H ( 1.00)

     Starting magnetic structure 
     atomic species   magnetization
        O0           0.000
        Ti1          0.000
        H2           0.000

     No symmetry found



   Cartesian axes

     site n.     atom                  positions (alat units)
         1           O0  tau(   1) = (   0.0000000   0.0000000   1.6989461  )
         2           O0  tau(   2) = (   0.0000000   0.5535432   1.7901728  )
         3           Ti1 tau(   3) = (   0.2500000   0.5535432   2.0162933  )
         4           Ti1 tau(   4) = (   0.0000000   0.0000000   2.0248388  )
         5           O0  tau(   5) = (   0.2500000   0.8967400   2.0178145  )
         6           O0  tau(   6) = (   0.2500000   0.2103464   2.0226912  )
         7           O0  tau(   7) = (   0.0000000   0.5535432   2.2326603  )
         8           O0  tau(   8) = (   0.0000000   0.0000000   2.3559662  )
         9           Ti1 tau(   9) = (   0.2500000   0.0000000   2.5995804  )
        10           Ti1 tau(  10) = (   0.0000000   0.5535432   2.5483968  )
        11           O0  tau(  11) = (   0.2500000   0.7638896   2.5964932  )
        12           O0  tau(  12) = (   0.2500000   0.3431968   2.5965380  )
        13           O0  tau(  13) = (   0.0000000   0.0000000   2.7842708  )
        14           O0  tau(  14) = (   0.5000000   0.0000000   1.6989461  )
        15           O0  tau(  15) = (   0.5000000   0.5535432   1.7901728  )
        16           Ti1 tau(  16) = (   0.7500000   0.5535432   2.0162933  )
        17           Ti1 tau(  17) = (   0.5000000   0.0000000   2.0248388  )
        18           O0  tau(  18) = (   0.7500000   0.8967400   2.0178145  )
        19           O0  tau(  19) = (   0.7500000   0.2103464   2.0226912  )
        20           O0  tau(  20) = (   0.5000000   0.5535432   2.2326603  )
        21           O0  tau(  21) = (   0.5000000   0.0000000   2.3559662  )
        22           Ti1 tau(  22) = (   0.7500000   0.0000000   2.5995804  )
        23           Ti1 tau(  23) = (   0.5000000   0.5535432   2.5483968  )
        24           O0  tau(  24) = (   0.7500000   0.7638896   2.5964932  )
        25           O0  tau(  25) = (   0.7500000   0.3431968   2.5965380  )
        26           O0  tau(  26) = (   0.5000000   0.0000000   2.7842708  )
        27           H2  tau(  27) = (  -0.0005400   0.6991915   1.7063283  )
        28           H2  tau(  28) = (   0.4994600   0.6991915   1.7063283  )
        29           H2  tau(  29) = (   0.1501800   0.0252084   1.6321479  )
        30           H2  tau(  30) = (   0.6501800   0.0252084   1.6321479  )
        31           O0  tau(  31) = (   0.5200800   0.5537093   2.8866827  )
        32           H2  tau(  32) = (   0.3772500   0.5533771   2.9703929  )

     number of k points=    20  Methfessel-Paxton smearing, width (Ry)=  0.0100
                       cart. coord. in units 2pi/alat
        k(    1) = (   0.0000000   0.0000000   0.0000000), wk =   0.0625000
        k(    2) = (   0.0000000   0.2258180   0.0000000), wk =   0.1250000
        k(    3) = (   0.0000000  -0.4516359   0.0000000), wk =   0.0625000
        k(    4) = (   0.2500000   0.0000000   0.0000000), wk =   0.1250000
        k(    5) = (   0.2500000   0.2258180   0.0000000), wk =   0.1250000
        k(    6) = (   0.2500000  -0.4516359   0.0000000), wk =   0.1250000
        k(    7) = (  -0.5000000   0.0000000   0.0000000), wk =   0.0625000
        k(    8) = (  -0.5000000   0.2258180   0.0000000), wk =   0.1250000
        k(    9) = (  -0.5000000  -0.4516359   0.0000000), wk =   0.0625000
        k(   10) = (  -0.2500000   0.2258180   0.0000000), wk =   0.1250000
        k(   11) = (   0.0000000   0.0000000   0.0000000), wk =   0.0625000
        k(   12) = (   0.0000000   0.2258180   0.0000000), wk =   0.1250000
        k(   13) = (   0.0000000  -0.4516359   0.0000000), wk =   0.0625000
        k(   14) = (   0.2500000   0.0000000   0.0000000), wk =   0.1250000
        k(   15) = (   0.2500000   0.2258180   0.0000000), wk =   0.1250000
        k(   16) = (   0.2500000  -0.4516359   0.0000000), wk =   0.1250000
        k(   17) = (  -0.5000000   0.0000000   0.0000000), wk =   0.0625000
        k(   18) = (  -0.5000000   0.2258180   0.0000000), wk =   0.1250000
        k(   19) = (  -0.5000000  -0.4516359   0.0000000), wk =   0.0625000
        k(   20) = (  -0.2500000   0.2258180   0.0000000), wk =   0.1250000

     Dense  grid:  1322643 G-vectors     FFT dimensions: (  80,  90, 360)

     Smooth grid:   239441 G-vectors     FFT dimensions: (  45,  54, 216)

     Largest allocated arrays     est. size (Mb)     dimensions
        Kohn-Sham Wavefunctions         8.94 Mb     (   1890,  310)
        NL pseudopotentials            11.56 Mb     (   1890,  401)
        Each V/rho on FFT grid          5.05 Mb     ( 165600,   2)
        Each G-vector array             0.63 Mb     (  82677)
        G-vector shells                 0.31 Mb     (  40971)
     Largest temporary arrays     est. size (Mb)     dimensions
        Auxiliary wavefunctions        35.76 Mb     (   1890, 1240)
        Each subspace H/S matrix       23.46 Mb     (1240,1240)
        Each <psi_i|beta_j> matrix      1.90 Mb     (    401,  310)
        Arrays for rho mixing          20.21 Mb     ( 165600,   8)

     Check: negative/imaginary core charge=   -0.000006    0.000000

     Initial potential from superposition of free atoms
     Check: negative starting charge=(component1):   -0.051406
     Check: negative starting charge=(component2):   -0.051406

     starting charge  206.99957, renormalised to  215.00000

     negative rho (up, down):  0.534E-01 0.534E-01
     Starting wfc are  161 randomized atomic wfcs

     total cpu time spent up to now is      117.5 secs

     per-process dynamical memory:   258.6 Mb

     Self-consistent Calculation

     iteration #  1     ecut=    40.00 Ry     beta=0.70
     Davidson diagonalization with overlap
     ethr =  1.00E-02,  avg # of iterations =  6.0

     negative rho (up, down):  0.580E-01 0.580E-01

     total cpu time spent up to now is      987.1 secs

     total energy              =   -1563.86698411 Ry
     Harris-Foulkes estimate   =   -1569.77544937 Ry
     estimated scf accuracy    <       7.21151345 Ry

     total magnetization       =    -0.00 Bohr mag/cell
     absolute magnetization    =     0.01 Bohr mag/cell

     iteration #  2     ecut=    40.00 Ry     beta=0.70
     Davidson diagonalization with overlap
     ethr =  3.35E-03,  avg # of iterations =  6.0

     negative rho (up, down):  0.578E-01 0.578E-01

     total cpu time spent up to now is     1716.1 secs

     total energy              =   -1512.23616948 Ry
     Harris-Foulkes estimate   =   -1606.17874272 Ry
     estimated scf accuracy    <    1335.45824626 Ry

     total magnetization       =    -0.00 Bohr mag/cell
     absolute magnetization    =     0.00 Bohr mag/cell

     iteration #  3     ecut=    40.00 Ry     beta=0.70
     Davidson diagonalization with overlap
     ethr =  3.35E-03,  avg # of iterations =  5.1

     negative rho (up, down):  0.504E-01 0.504E-01

     total cpu time spent up to now is     2413.4 secs

     total energy              =   -1552.04007372 Ry
     Harris-Foulkes estimate   =   -1582.64600827 Ry
     estimated scf accuracy    <     492.06070821 Ry

     total magnetization       =    -0.00 Bohr mag/cell
     absolute magnetization    =     0.00 Bohr mag/cell

     iteration #  4     ecut=    40.00 Ry     beta=0.70
     Davidson diagonalization with overlap
     ethr =  3.35E-03,  avg # of iterations =  3.1

     negative rho (up, down):  0.468E-01 0.468E-01

     total cpu time spent up to now is     2782.3 secs

     total energy              =   -1568.53220938 Ry
     Harris-Foulkes estimate   =   -1568.92337582 Ry
     estimated scf accuracy    <       3.10825119 Ry

     total magnetization       =    -0.00 Bohr mag/cell
     absolute magnetization    =     0.00 Bohr mag/cell

     iteration #  5     ecut=    40.00 Ry     beta=0.70
     Davidson diagonalization with overlap
     ethr =  1.45E-03,  avg # of iterations =  1.6

     negative rho (up, down):  0.468E-01 0.468E-01

     total cpu time spent up to now is     3085.8 secs

     total energy              =   -1568.46175768 Ry
     Harris-Foulkes estimate   =   -1568.66732977 Ry
     estimated scf accuracy    <       2.50387925 Ry

     total magnetization       =    -0.00 Bohr mag/cell
     absolute magnetization    =     0.00 Bohr mag/cell

     iteration #  6     ecut=    40.00 Ry     beta=0.70
     Davidson diagonalization with overlap
     ethr =  1.16E-03,  avg # of iterations =  1.3

     negative rho (up, down):  0.472E-01 0.472E-01

     total cpu time spent up to now is     3385.5 secs

     total energy              =   -1568.41205484 Ry
     Harris-Foulkes estimate   =   -1568.62349506 Ry
     estimated scf accuracy    <       2.40815744 Ry

     total magnetization       =    -0.00 Bohr mag/cell
     absolute magnetization    =     0.00 Bohr mag/cell

     iteration #  7     ecut=    40.00 Ry     beta=0.70
     Davidson diagonalization with overlap
     ethr =  1.12E-03,  avg # of iterations =  1.6

     negative rho (up, down):  0.474E-01 0.474E-01

     total cpu time spent up to now is     3692.4 secs

     total energy              =   -1568.43660401 Ry
     Harris-Foulkes estimate   =   -1568.45523400 Ry
     estimated scf accuracy    <       0.81961930 Ry

     total magnetization       =    -0.00 Bohr mag/cell
     absolute magnetization    =     0.00 Bohr mag/cell

     iteration #  8     ecut=    40.00 Ry     beta=0.70
     Davidson diagonalization with overlap
     ethr =  3.81E-04,  avg # of iterations =  5.0

     negative rho (up, down):  0.480E-01 0.480E-01

     total cpu time spent up to now is     4070.5 secs

     total energy              =   -1568.35357119 Ry
     Harris-Foulkes estimate   =   -1568.44556816 Ry
     estimated scf accuracy    <       1.41451247 Ry

     total magnetization       =    -0.00 Bohr mag/cell
     absolute magnetization    =     0.00 Bohr mag/cell

     iteration #  9     ecut=    40.00 Ry     beta=0.70
     Davidson diagonalization with overlap
     ethr =  3.81E-04,  avg # of iterations =  2.8

     negative rho (up, down):  0.488E-01 0.488E-01

     total cpu time spent up to now is     4399.2 secs

     total energy              =   -1568.36052506 Ry
     Harris-Foulkes estimate   =   -1568.41021233 Ry
     estimated scf accuracy    <       0.76913833 Ry

     total magnetization       =     0.00 Bohr mag/cell
     absolute magnetization    =     0.00 Bohr mag/cell

     iteration # 10     ecut=    40.00 Ry     beta=0.70
     Davidson diagonalization with overlap
     ethr =  3.58E-04,  avg # of iterations =  4.6

     negative rho (up, down):  0.499E-01 0.499E-01

     total cpu time spent up to now is     4771.4 secs

     total energy              =   -1568.31975894 Ry
     Harris-Foulkes estimate   =   -1568.36864982 Ry
     estimated scf accuracy    <       0.60441946 Ry

     total magnetization       =     0.00 Bohr mag/cell
     absolute magnetization    =     0.00 Bohr mag/cell

     iteration # 11     ecut=    40.00 Ry     beta=0.70
     Davidson diagonalization with overlap
     ethr =  2.81E-04,  avg # of iterations =  4.5

     negative rho (up, down):  0.526E-01 0.526E-01

     total cpu time spent up to now is     5144.0 secs

     total energy              =   -1568.27750412 Ry
     Harris-Foulkes estimate   =   -1568.32982384 Ry
     estimated scf accuracy    <       0.49829170 Ry

     total magnetization       =     0.00 Bohr mag/cell
     absolute magnetization    =     0.00 Bohr mag/cell

     iteration # 12     ecut=    40.00 Ry     beta=0.70
     Davidson diagonalization with overlap
     ethr =  2.32E-04,  avg # of iterations =  5.2

     negative rho (up, down):  0.509E-01 0.509E-01

     total cpu time spent up to now is     5557.3 secs

     total energy              =   -1568.21175759 Ry
     Harris-Foulkes estimate   =   -1568.32038919 Ry
     estimated scf accuracy    <       0.49356596 Ry

     total magnetization       =     0.00 Bohr mag/cell
     absolute magnetization    =     0.00 Bohr mag/cell

     iteration # 13     ecut=    40.00 Ry     beta=0.70
     Davidson diagonalization with overlap
     ethr =  2.30E-04,  avg # of iterations =  1.4

     negative rho (up, down):  0.508E-01 0.508E-01

     total cpu time spent up to now is     5859.1 secs

     total energy              =   -1568.22789672 Ry
     Harris-Foulkes estimate   =   -1568.30941103 Ry
     estimated scf accuracy    <       0.36900963 Ry

     total magnetization       =     0.02 Bohr mag/cell
     absolute magnetization    =     0.02 Bohr mag/cell

     iteration # 14     ecut=    40.00 Ry     beta=0.70
     Davidson diagonalization with overlap
     ethr =  1.72E-04,  avg # of iterations =  1.0

     negative rho (up, down):  0.512E-01 0.513E-01

     total cpu time spent up to now is     6154.9 secs

     total energy              =   -1568.26259920 Ry
     Harris-Foulkes estimate   =   -1568.27368248 Ry
     estimated scf accuracy    <       0.25599596 Ry

     total magnetization       =     0.06 Bohr mag/cell
     absolute magnetization    =     0.06 Bohr mag/cell

     iteration # 15     ecut=    40.00 Ry     beta=0.70
     Davidson diagonalization with overlap
     ethr =  1.19E-04,  avg # of iterations =  1.0

     negative rho (up, down):  0.516E-01 0.516E-01

     total cpu time spent up to now is     6456.7 secs

     total energy              =   -1568.26535456 Ry
     Harris-Foulkes estimate   =   -1568.26924196 Ry
     estimated scf accuracy    <       0.20988979 Ry

     total magnetization       =     0.19 Bohr mag/cell
     absolute magnetization    =     0.20 Bohr mag/cell

     iteration # 16     ecut=    40.00 Ry     beta=0.70
     Davidson diagonalization with overlap
     ethr =  9.76E-05,  avg # of iterations =  1.0

     negative rho (up, down):  0.510E-01 0.513E-01

     total cpu time spent up to now is     6761.1 secs

     total energy              =   -1568.26198837 Ry
     Harris-Foulkes estimate   =   -1568.27052984 Ry
     estimated scf accuracy    <       0.23742864 Ry

     total magnetization       =     0.66 Bohr mag/cell
     absolute magnetization    =     0.66 Bohr mag/cell

     iteration # 17     ecut=    40.00 Ry     beta=0.70
     Davidson diagonalization with overlap
     ethr =  9.76E-05,  avg # of iterations =  1.4

     negative rho (up, down):  0.514E-01 0.517E-01

     total cpu time spent up to now is     7072.3 secs

     total energy              =   -1568.12681655 Ry
     Harris-Foulkes estimate   =   -1568.26713799 Ry
     estimated scf accuracy    <       0.21566767 Ry

     total magnetization       =     1.01 Bohr mag/cell
     absolute magnetization    =     1.02 Bohr mag/cell

     iteration # 18     ecut=    40.00 Ry     beta=0.70
     Davidson diagonalization with overlap
     ethr =  9.76E-05,  avg # of iterations =  5.6

     negative rho (up, down):  0.592E-01 0.591E-01

     total cpu time spent up to now is     7589.6 secs

     total energy              =   -1566.11317416 Ry
     Harris-Foulkes estimate   =   -1569.14874096 Ry
     estimated scf accuracy    <      43.62149804 Ry

     total magnetization       =     0.01 Bohr mag/cell
     absolute magnetization    =     0.09 Bohr mag/cell

     iteration # 19     ecut=    40.00 Ry     beta=0.70
     Davidson diagonalization with overlap
     ethr =  9.76E-05,  avg # of iterations =  5.8

     negative rho (up, down):  0.526E-01 0.526E-01

     total cpu time spent up to now is     8106.8 secs

     total energy              =   -1568.22930450 Ry
     Harris-Foulkes estimate   =   -1568.29605310 Ry
     estimated scf accuracy    <       0.34569692 Ry

     total magnetization       =     0.11 Bohr mag/cell
     absolute magnetization    =     0.13 Bohr mag/cell

     iteration # 20     ecut=    40.00 Ry     beta=0.70
     Davidson diagonalization with overlap
     ethr =  9.76E-05,  avg # of iterations =  1.8

     negative rho (up, down):  0.512E-01 0.512E-01

     total cpu time spent up to now is     8416.4 secs

     total energy              =   -1568.25605694 Ry
     Harris-Foulkes estimate   =   -1568.26359182 Ry
     estimated scf accuracy    <       0.11280961 Ry

     total magnetization       =     0.75 Bohr mag/cell
     absolute magnetization    =     0.77 Bohr mag/cell

     iteration # 21     ecut=    40.00 Ry     beta=0.70
     Davidson diagonalization with overlap
     ethr =  5.25E-05,  avg # of iterations =  1.9

     negative rho (up, down):  0.512E-01 0.512E-01

     total cpu time spent up to now is     8732.1 secs

     total energy              =   -1568.25871464 Ry
     Harris-Foulkes estimate   =   -1568.25993380 Ry
     estimated scf accuracy    <       0.10135679 Ry

     total magnetization       =     0.86 Bohr mag/cell
     absolute magnetization    =     0.89 Bohr mag/cell

     iteration # 22     ecut=    40.00 Ry     beta=0.70
     Davidson diagonalization with overlap
     ethr =  4.71E-05,  avg # of iterations =  1.0

     negative rho (up, down):  0.513E-01 0.513E-01

     total cpu time spent up to now is     9036.8 secs

     total energy              =   -1568.25830903 Ry
     Harris-Foulkes estimate   =   -1568.25942945 Ry
     estimated scf accuracy    <       0.08628949 Ry

     total magnetization       =     0.88 Bohr mag/cell
     absolute magnetization    =     0.92 Bohr mag/cell

     iteration # 23     ecut=    40.00 Ry     beta=0.70
     Davidson diagonalization with overlap
     ethr =  4.01E-05,  avg # of iterations =  1.0

     negative rho (up, down):  0.514E-01 0.513E-01

     total cpu time spent up to now is     9333.7 secs

     total energy              =   -1568.25812135 Ry
     Harris-Foulkes estimate   =   -1568.25912834 Ry
     estimated scf accuracy    <       0.07587757 Ry

     total magnetization       =     0.98 Bohr mag/cell
     absolute magnetization    =     1.05 Bohr mag/cell

     iteration # 24     ecut=    40.00 Ry     beta=0.70
     Davidson diagonalization with overlap
     ethr =  3.53E-05,  avg # of iterations =  1.0

     negative rho (up, down):  0.513E-01 0.512E-01

     total cpu time spent up to now is     9634.6 secs

     total energy              =   -1568.25836807 Ry
     Harris-Foulkes estimate   =   -1568.25861969 Ry
     estimated scf accuracy    <       0.06903158 Ry

     total magnetization       =     0.99 Bohr mag/cell
     absolute magnetization    =     1.08 Bohr mag/cell

     iteration # 25     ecut=    40.00 Ry     beta=0.70
     Davidson diagonalization with overlap
     ethr =  3.21E-05,  avg # of iterations =  1.7

     negative rho (up, down):  0.515E-01 0.512E-01

     total cpu time spent up to now is     9957.6 secs

     total energy              =   -1568.25449597 Ry
     Harris-Foulkes estimate   =   -1568.26066711 Ry
     estimated scf accuracy    <       0.06465423 Ry

     total magnetization       =     1.02 Bohr mag/cell
     absolute magnetization    =     1.18 Bohr mag/cell

     iteration # 26     ecut=    40.00 Ry     beta=0.70
     Davidson diagonalization with overlap
     ethr =  3.01E-05,  avg # of iterations =  4.2

     negative rho (up, down):  0.514E-01 0.510E-01

     total cpu time spent up to now is    10324.9 secs

     total energy              =   -1568.25491145 Ry
     Harris-Foulkes estimate   =   -1568.25728396 Ry
     estimated scf accuracy    <       0.03110092 Ry

     total magnetization       =     1.07 Bohr mag/cell
     absolute magnetization    =     1.32 Bohr mag/cell

     iteration # 27     ecut=    40.00 Ry     beta=0.70
     Davidson diagonalization with overlap
     ethr =  1.45E-05,  avg # of iterations =  4.3

     negative rho (up, down):  0.518E-01 0.512E-01

     total cpu time spent up to now is    10702.3 secs

     total energy              =   -1568.23989298 Ry
     Harris-Foulkes estimate   =   -1568.25692135 Ry
     estimated scf accuracy    <       0.02637764 Ry

     total magnetization       =     1.04 Bohr mag/cell
     absolute magnetization    =     1.28 Bohr mag/cell

     iteration # 28     ecut=    40.00 Ry     beta=0.70
     Davidson diagonalization with overlap
     ethr =  1.23E-05,  avg # of iterations =  5.5

     negative rho (up, down):  0.518E-01 0.519E-01

     total cpu time spent up to now is    11155.0 secs

     total energy              =   -1568.24264773 Ry
     Harris-Foulkes estimate   =   -1568.26733512 Ry
     estimated scf accuracy    <       0.72704056 Ry

     total magnetization       =     0.33 Bohr mag/cell
     absolute magnetization    =     0.99 Bohr mag/cell

     iteration # 29     ecut=    40.00 Ry     beta=0.70
     Davidson diagonalization with overlap
     ethr =  1.23E-05,  avg # of iterations =  5.3

     negative rho (up, down):  0.516E-01 0.512E-01

     total cpu time spent up to now is    11562.7 secs

     total energy              =   -1568.25062326 Ry
     Harris-Foulkes estimate   =   -1568.25341170 Ry
     estimated scf accuracy    <       0.03747183 Ry

     total magnetization       =     0.95 Bohr mag/cell
     absolute magnetization    =     1.40 Bohr mag/cell

     iteration # 30     ecut=    40.00 Ry     beta=0.70
     Davidson diagonalization with overlap
     ethr =  1.23E-05,  avg # of iterations =  2.9

     negative rho (up, down):  0.516E-01 0.511E-01

     total cpu time spent up to now is    11907.1 secs

     total energy              =   -1568.25254002 Ry
     Harris-Foulkes estimate   =   -1568.25372118 Ry
     estimated scf accuracy    <       0.00480165 Ry

     total magnetization       =     1.03 Bohr mag/cell
     absolute magnetization    =     1.37 Bohr mag/cell

     iteration # 31     ecut=    40.00 Ry     beta=0.70
     Davidson diagonalization with overlap
     ethr =  2.23E-06,  avg # of iterations =  6.7

     negative rho (up, down):  0.516E-01 0.511E-01

     total cpu time spent up to now is    12362.0 secs

     total energy              =   -1568.25306386 Ry
     Harris-Foulkes estimate   =   -1568.25365065 Ry
     estimated scf accuracy    <       0.00528468 Ry

     total magnetization       =     1.05 Bohr mag/cell
     absolute magnetization    =     1.34 Bohr mag/cell

     iteration # 32     ecut=    40.00 Ry     beta=0.70
     Davidson diagonalization with overlap
     ethr =  2.23E-06,  avg # of iterations =  1.0

     negative rho (up, down):  0.516E-01 0.510E-01

     total cpu time spent up to now is    12672.3 secs

     total energy              =   -1568.25318098 Ry
     Harris-Foulkes estimate   =   -1568.25358780 Ry
     estimated scf accuracy    <       0.00154757 Ry

     total magnetization       =     1.04 Bohr mag/cell
     absolute magnetization    =     1.33 Bohr mag/cell

     iteration # 33     ecut=    40.00 Ry     beta=0.70
     Davidson diagonalization with overlap
     ethr =  7.20E-07,  avg # of iterations =  1.0

     negative rho (up, down):  0.516E-01 0.510E-01

     total cpu time spent up to now is    12982.7 secs

     total energy              =   -1568.25334953 Ry
     Harris-Foulkes estimate   =   -1568.25342837 Ry
     estimated scf accuracy    <       0.00044940 Ry

     total magnetization       =     1.04 Bohr mag/cell
     absolute magnetization    =     1.32 Bohr mag/cell

     iteration # 34     ecut=    40.00 Ry     beta=0.70
     Davidson diagonalization with overlap
     ethr =  2.09E-07,  avg # of iterations =  1.0

     negative rho (up, down):  0.516E-01 0.510E-01

     total cpu time spent up to now is    13293.3 secs

     total energy              =   -1568.25338184 Ry
     Harris-Foulkes estimate   =   -1568.25340841 Ry
     estimated scf accuracy    <       0.00011940 Ry

     total magnetization       =     1.04 Bohr mag/cell
     absolute magnetization    =     1.32 Bohr mag/cell

     iteration # 35     ecut=    40.00 Ry     beta=0.70
     Davidson diagonalization with overlap
     ethr =  5.55E-08,  avg # of iterations =  1.1

     negative rho (up, down):  0.516E-01 0.510E-01

     total cpu time spent up to now is    13605.3 secs

     total energy              =   -1568.25339494 Ry
     Harris-Foulkes estimate   =   -1568.25340779 Ry
     estimated scf accuracy    <       0.00004730 Ry

     total magnetization       =     1.04 Bohr mag/cell
     absolute magnetization    =     1.32 Bohr mag/cell

     iteration # 36     ecut=    40.00 Ry     beta=0.70
     Davidson diagonalization with overlap
     ethr =  2.20E-08,  avg # of iterations =  2.0

     negative rho (up, down):  0.516E-01 0.511E-01

     total cpu time spent up to now is    13934.6 secs

     total energy              =   -1568.25339653 Ry
     Harris-Foulkes estimate   =   -1568.25341520 Ry
     estimated scf accuracy    <       0.00007665 Ry

     total magnetization       =     1.05 Bohr mag/cell
     absolute magnetization    =     1.33 Bohr mag/cell

     iteration # 37     ecut=    40.00 Ry     beta=0.70
     Davidson diagonalization with overlap
     ethr =  2.20E-08,  avg # of iterations =  1.0

     negative rho (up, down):  0.516E-01 0.511E-01

     total cpu time spent up to now is    14245.4 secs

     total energy              =   -1568.25340583 Ry
     Harris-Foulkes estimate   =   -1568.25340771 Ry
     estimated scf accuracy    <       0.00001542 Ry

     total magnetization       =     1.05 Bohr mag/cell
     absolute magnetization    =     1.33 Bohr mag/cell

     iteration # 38     ecut=    40.00 Ry     beta=0.70
     Davidson diagonalization with overlap
     ethr =  7.17E-09,  avg # of iterations =  1.9

     negative rho (up, down):  0.516E-01 0.511E-01

     total cpu time spent up to now is    14565.5 secs

     total energy              =   -1568.25340921 Ry
     Harris-Foulkes estimate   =   -1568.25341040 Ry
     estimated scf accuracy    <       0.00000763 Ry

     total magnetization       =     1.05 Bohr mag/cell
     absolute magnetization    =     1.33 Bohr mag/cell

     iteration # 39     ecut=    40.00 Ry     beta=0.70
     Davidson diagonalization with overlap
     ethr =  3.55E-09,  avg # of iterations =  1.0

     negative rho (up, down):  0.516E-01 0.511E-01

     total cpu time spent up to now is    14867.5 secs

     total energy              =   -1568.25341066 Ry
     Harris-Foulkes estimate   =   -1568.25341064 Ry
     estimated scf accuracy    <       0.00000453 Ry

     total magnetization       =     1.06 Bohr mag/cell
     absolute magnetization    =     1.34 Bohr mag/cell

     iteration # 40     ecut=    40.00 Ry     beta=0.70
     Davidson diagonalization with overlap
     ethr =  2.11E-09,  avg # of iterations =  1.6

     negative rho (up, down):  0.516E-01 0.511E-01

     total cpu time spent up to now is    15183.3 secs

     total energy              =   -1568.25341075 Ry
     Harris-Foulkes estimate   =   -1568.25341200 Ry
     estimated scf accuracy    <       0.00000435 Ry

     total magnetization       =     1.06 Bohr mag/cell
     absolute magnetization    =     1.34 Bohr mag/cell

     iteration # 41     ecut=    40.00 Ry     beta=0.70
     Davidson diagonalization with overlap
     ethr =  2.02E-09,  avg # of iterations =  1.7

     negative rho (up, down):  0.516E-01 0.511E-01

     total cpu time spent up to now is    15497.5 secs

     total energy              =   -1568.25340830 Ry
     Harris-Foulkes estimate   =   -1568.25341517 Ry
     estimated scf accuracy    <       0.00010800 Ry

     total magnetization       =     1.05 Bohr mag/cell
     absolute magnetization    =     1.34 Bohr mag/cell

     iteration # 42     ecut=    40.00 Ry     beta=0.70
     Davidson diagonalization with overlap
     ethr =  2.02E-09,  avg # of iterations =  1.0

     negative rho (up, down):  0.516E-01 0.510E-01

     total cpu time spent up to now is    15799.6 secs

     total energy              =   -1568.25341221 Ry
     Harris-Foulkes estimate   =   -1568.25341221 Ry
     estimated scf accuracy    <       0.00000310 Ry

     total magnetization       =     1.06 Bohr mag/cell
     absolute magnetization    =     1.34 Bohr mag/cell

     iteration # 43     ecut=    40.00 Ry     beta=0.70
     Davidson diagonalization with overlap
     ethr =  1.44E-09,  avg # of iterations =  2.0

     negative rho (up, down):  0.516E-01 0.510E-01

     total cpu time spent up to now is    16115.3 secs

     total energy              =   -1568.25341288 Ry
     Harris-Foulkes estimate   =   -1568.25341325 Ry
     estimated scf accuracy    <       0.00000148 Ry

     total magnetization       =     1.06 Bohr mag/cell
     absolute magnetization    =     1.35 Bohr mag/cell

     iteration # 44     ecut=    40.00 Ry     beta=0.70
     Davidson diagonalization with overlap
     ethr =  6.87E-10,  avg # of iterations =  1.0

     negative rho (up, down):  0.516E-01 0.510E-01

     total cpu time spent up to now is    16411.5 secs

     total energy              =   -1568.25341315 Ry
     Harris-Foulkes estimate   =   -1568.25341328 Ry
     estimated scf accuracy    <       0.00000121 Ry

     total magnetization       =     1.06 Bohr mag/cell
     absolute magnetization    =     1.35 Bohr mag/cell

     iteration # 45     ecut=    40.00 Ry     beta=0.70
     Davidson diagonalization with overlap
     ethr =  5.65E-10,  avg # of iterations =  2.0

     negative rho (up, down):  0.516E-01 0.510E-01

     total cpu time spent up to now is    16728.0 secs

     total energy              =   -1568.25341341 Ry
     Harris-Foulkes estimate   =   -1568.25341361 Ry
     estimated scf accuracy    <       0.00000126 Ry

     total magnetization       =     1.07 Bohr mag/cell
     absolute magnetization    =     1.35 Bohr mag/cell

     iteration # 46     ecut=    40.00 Ry     beta=0.70
     Davidson diagonalization with overlap
     ethr =  5.65E-10,  avg # of iterations =  1.5

     negative rho (up, down):  0.516E-01 0.510E-01

     total cpu time spent up to now is    17036.5 secs

     End of self-consistent calculation

 ------ SPIN UP ------------


          k = 0.0000 0.0000 0.0000 ( 29975 PWs)   bands (ev):

   -60.5760 -60.5381 -59.8838 -59.5607 -59.1248 -59.0833 -58.6034 -58.5622
   -37.1424 -36.8422 -36.7418 -36.7276 -36.6754 -36.6397 -36.2707 -36.2516
   -36.0780 -35.8507 -35.7839 -35.7825 -35.7813 -35.4743 -35.3665 -35.3213
   -35.2428 -35.2109 -35.1166 -34.9243 -34.8949 -34.8673 -34.7664 -34.6433
   -22.1909 -21.9090 -21.0694 -20.7577 -20.4840 -20.3606 -20.1870 -19.7233
   -19.6784 -19.5273 -19.4720 -19.4107 -19.3760 -19.1628 -19.0881 -18.9600
   -18.5283 -18.0277 -17.9691  -9.9308  -9.4964  -8.4437  -8.3371  -8.1962
    -8.0623  -7.9900  -7.8715  -7.4484  -7.3541  -7.2069  -7.1576  -6.9965
    -6.8334  -6.7959  -6.7069  -6.7004  -6.6355  -6.5680  -6.5380  -6.4098
    -6.2423  -6.0927  -5.9005  -5.6587  -5.5274  -5.5021  -5.4634  -5.4051
    -5.3933  -5.3742  -5.3088  -5.0917  -4.9283  -4.8250  -4.7657  -4.7384
    -4.6915  -4.6484  -4.4774  -4.3339  -4.2192  -4.1772  -4.0519  -3.9781
    -3.8873  -3.7369  -3.6805  -3.4052  -3.3684  -3.3415  -3.2709  -3.0735
    -3.0697  -2.8817  -2.8704  -2.7785  -1.5543  -1.0495  -0.8767  -0.8377
    -0.6843  -0.5883  -0.4985  -0.4383  -0.0734   0.1431   0.3075   0.3991
     0.6074   0.6084   0.6731   0.7367   0.7413   0.7487   0.9580   1.0324
     1.2988   1.3889   1.4412   1.7008   1.8837   1.9277   1.9886   2.0839
     2.3387   2.6034   2.9218   3.0240   3.2133   3.3317   3.4979   3.5639
     3.5742   3.5885   3.7273   4.0762   4.1313   4.4127   4.5780   4.6420
     4.9686   5.3468   5.5977   5.7102   5.8261   6.3948   6.4802   6.5766
     6.9436   6.9684   7.1102   7.1680   7.2237   7.4600   7.6876   7.7053
     7.7542   7.7979   7.9101   7.9686   8.1017   8.2004   8.2887   8.3511
     8.4783   8.5806   8.6703   8.6972   8.7951   8.9022   8.9663   9.0803
     9.1675   9.2526   9.3299   9.4767   9.5458   9.6253   9.7936   9.9571
     9.9902  10.1451  10.2551  10.4693  10.5770  10.7118  10.7709  10.8827
    10.9261  10.9797  11.0391  11.0860  11.1372  11.2080  11.3277  11.3829
    11.4000  11.4572  11.4952  11.5489  11.6298  11.6596  11.6861  11.7298
    11.8576  11.8999  12.0218  12.0607  12.1416  12.2653  12.2920  12.3413
    12.4046  12.4217  12.5053  12.5670  12.7253  12.7917  12.8054  12.9124
    13.0140  13.1123  13.2497  13.2885  13.5251  13.5381  13.5948  13.6340
    13.7770  13.8011  13.8385  13.9458  14.0949  14.1344  14.1455  14.1800
    14.2814  14.4586  14.5027  14.5440  14.6757  14.7338  14.8607  14.9078
    15.0458  15.1083  15.1932  15.2071  15.2906  15.4474  15.4866  15.5365
    15.6579  15.7381  15.9642  16.0508  16.2335  16.2399  16.4115  16.4563
    16.4696  16.5803  16.6246  16.6527  16.7811  16.7854  16.8711  16.9613
    17.0279  17.1730  17.3394  17.4171  17.4404  17.5981  17.6335  17.6701
    17.7118  17.7225  17.8977  17.9478  18.0544  18.0958  18.1356  18.1847
    18.2367  18.2700  18.3610  18.4248  18.5935  18.6130  18.7462  18.7803
    18.8613  18.9235  18.9967  19.0703  19.1053  19.1900

          k = 0.0000 0.2258 0.0000 ( 29933 PWs)   bands (ev):

   -60.5760 -60.5381 -59.8838 -59.5607 -59.1248 -59.0833 -58.6035 -58.5622
   -37.1425 -36.8422 -36.7418 -36.7276 -36.6736 -36.6412 -36.2715 -36.2517
   -36.0768 -35.8507 -35.7820 -35.7819 -35.7814 -35.4768 -35.3664 -35.3213
   -35.2429 -35.2109 -35.1163 -34.9270 -34.8936 -34.8673 -34.7664 -34.6433
   -22.1855 -21.9086 -21.0581 -20.7403 -20.4641 -20.3510 -20.1025 -19.8009
   -19.7133 -19.6562 -19.4448 -19.2987 -19.2834 -19.2718 -19.2373 -18.8790
   -18.5285 -18.0265 -17.9688  -9.9299  -9.5067  -8.4275  -8.1888  -8.1428
    -8.0206  -7.8071  -7.7622  -7.5459  -7.3554  -7.2999  -7.1192  -7.0167
    -6.9017  -6.8271  -6.7281  -6.5971  -6.4871  -6.3780  -6.2983  -6.2595
    -6.2158  -6.1331  -5.8900  -5.7819  -5.6160  -5.5722  -5.5262  -5.4729
    -5.4579  -5.3023  -5.2794  -5.2171  -5.0253  -4.9857  -4.8804  -4.8067
    -4.7484  -4.5214  -4.4238  -4.3851  -4.3270  -4.3037  -4.1754  -3.9790
    -3.9197  -3.7972  -3.6721  -3.4736  -3.4266  -3.3955  -3.3150  -3.1503
    -3.0752  -3.0377  -2.8836  -2.7856  -1.5351  -1.0723  -0.9946  -0.8415
    -0.4980  -0.4492  -0.4090  -0.1748  -0.1715   0.0611   0.1733   0.3136
     0.5951   0.7247   0.7343   0.7491   0.8540   0.9683   1.0160   1.1698
     1.2659   1.3361   1.4507   1.7336   1.7379   1.8811   1.8980   2.1687
     2.3412   2.5376   2.8511   3.0981   3.2565   3.4208   3.4964   3.5920
     3.8099   3.8867   4.0168   4.0875   4.1600   4.4171   4.6257   4.7754
     4.9683   4.9868   5.4745   5.6474   5.7665   5.8139   5.9094   6.2310
     6.5612   6.6941   6.9613   7.1546   7.2976   7.5375   7.5547   7.6147
     7.8396   7.9420   8.1074   8.1602   8.3236   8.4892   8.5730   8.6411
     8.7186   8.8600   8.9157   8.9376   9.0358   9.0737   9.1368   9.2377
     9.3459   9.3663   9.4474   9.4781   9.6467   9.7820   9.8229   9.8568
     9.9140   9.9780  10.0513  10.1631  10.2411  10.3788  10.4135  10.5094
    10.6302  10.7493  10.7930  10.8596  10.9468  11.1128  11.1332  11.1915
    11.2534  11.3335  11.4588  11.6793  11.7392  11.7930  11.8597  11.9335
    12.0022  12.0982  12.2166  12.2716  12.4127  12.4718  12.5621  12.6395
    12.7230  12.7712  12.9170  12.9780  13.0165  13.1494  13.2042  13.3075
    13.3421  13.4209  13.4627  13.5952  13.6752  13.7068  13.7417  13.7922
    13.8969  13.9262  13.9937  14.0420  14.1062  14.1724  14.2152  14.2852
    14.3608  14.3884  14.4665  14.5609  14.6343  14.6829  14.7771  14.8568
    14.9295  15.0527  15.0761  15.1789  15.1988  15.2299  15.3219  15.3929
    15.4356  15.5224  15.6133  15.7253  15.8357  15.9031  16.0111  16.1186
    16.1881  16.2841  16.3755  16.3999  16.5563  16.6261  16.6844  16.8158
    16.8839  16.9349  16.9715  17.0735  17.1121  17.1702  17.2740  17.5661
    17.6274  17.7289  17.7727  17.8493  17.9442  18.0311  18.0533  18.1654
    18.2206  18.3656  18.4337  18.4990  18.5206  18.5441  18.6724  18.6933
    18.7903  18.8221  18.8820  18.9504  19.0083  19.1094

          k = 0.0000-0.4516 0.0000 ( 29906 PWs)   bands (ev):

   -60.5760 -60.5381 -59.8838 -59.5607 -59.1248 -59.0833 -58.6035 -58.5622
   -37.1426 -36.8422 -36.7418 -36.7276 -36.6717 -36.6426 -36.2723 -36.2517
   -36.0756 -35.8508 -35.7816 -35.7811 -35.7800 -35.4793 -35.3663 -35.3214
   -35.2429 -35.2108 -35.1161 -34.9297 -34.8922 -34.8673 -34.7664 -34.6434
   -22.1801 -21.9082 -21.0475 -20.7238 -20.4440 -20.3358 -19.9761 -19.8794
   -19.7263 -19.6953 -19.4820 -19.4415 -19.3466 -19.2051 -19.1969 -18.8444
   -18.5288 -18.0255 -17.9686  -9.9277  -9.5173  -8.4180  -8.1763  -8.0701
    -7.9481  -7.6535  -7.6104  -7.4525  -7.3573  -7.3487  -7.2391  -6.8579
    -6.8219  -6.6752  -6.6123  -6.5567  -6.4729  -6.3542  -6.2875  -6.2546
    -6.1614  -5.9413  -5.8495  -5.8109  -5.7920  -5.6710  -5.5978  -5.4553
    -5.4354  -5.4099  -5.3691  -5.3049  -5.2622  -5.2251  -5.0593  -4.9147
    -4.8650  -4.5428  -4.4878  -4.4177  -4.3583  -4.0935  -4.0157  -4.0084
    -3.9809  -3.8338  -3.6243  -3.6083  -3.5715  -3.5157  -3.3085  -3.2457
    -3.0946  -2.9947  -2.8916  -2.7821  -1.5264  -1.2807  -1.1219  -0.6419
    -0.4977  -0.3897  -0.3156  -0.2352  -0.0514   0.1572   0.2199   0.3186
     0.5588   0.7355   0.7432   0.7555   0.9292   1.0955   1.1783   1.2145
     1.2667   1.3201   1.4689   1.6393   1.7248   1.8442   1.8718   2.2442
     2.2821   2.3463   3.1167   3.2351   3.2740   3.3088   3.5251   3.8940
     3.8981   3.9529   4.0277   4.3451   4.4438   4.5060   4.6280   4.6737
     4.8242   4.9736   4.9903   5.2720   5.4765   5.8421   5.9148   6.1756
     6.2416   6.6841   6.8405   6.9017   7.1017   7.2719   7.4244   7.7502
     7.8739   8.1425   8.3723   8.4678   8.5618   8.6590   8.6814   8.6877
     8.7974   8.8635   8.9435   8.9677   9.0267   9.0829   9.1366   9.1916
     9.2414   9.3166   9.3553   9.5457   9.6008   9.7169   9.8071   9.8508
     9.9683  10.0503  10.2285  10.3289  10.3673  10.4684  10.5848  10.7321
    10.8038  10.9130  10.9708  11.0781  11.0816  11.1796  11.2518  11.2967
    11.4416  11.5034  11.5233  11.5905  11.6818  11.7172  11.8387  11.9062
    11.9836  12.0726  12.1328  12.1996  12.2575  12.2807  12.4476  12.7016
    12.7387  12.7683  12.9194  12.9583  12.9940  13.0349  13.0831  13.1723
    13.2638  13.3215  13.3723  13.4528  13.6191  13.7351  13.7955  13.9012
    13.9698  13.9850  14.1109  14.1624  14.2281  14.2892  14.4547  14.6061
    14.6225  14.6526  14.7512  14.7722  14.9025  14.9567  15.0738  15.2058
    15.2505  15.2641  15.3296  15.4146  15.4601  15.4709  15.5254  15.5952
    15.6621  15.7090  15.7849  15.8131  15.8747  15.9056  15.9554  15.9955
    16.0379  16.0827  16.1788  16.2020  16.2859  16.3476  16.4169  16.4183
    16.5155  16.7198  16.8399  16.8784  16.9570  17.0336  17.0542  17.1135
    17.1939  17.3504  17.4123  17.5042  17.5982  17.6825  17.6971  17.7772
    17.8408  17.9234  17.9351  17.9590  17.9845  18.0388  18.0872  18.1636
    18.1683  18.2611  18.4671  18.6558  18.7082  18.7924

          k = 0.2500 0.0000 0.0000 ( 29937 PWs)   bands (ev):

   -60.5705 -60.5437 -59.8832 -59.5613 -59.1189 -59.0892 -58.5975 -58.5682
   -37.0840 -36.8277 -36.7933 -36.7533 -36.6702 -36.6449 -36.2523 -36.2189
   -36.0737 -35.8528 -35.8341 -35.7872 -35.7184 -35.4592 -35.3905 -35.3825
   -35.2385 -35.2139 -35.0532 -34.9201 -34.8990 -34.8568 -34.7794 -34.7116
   -22.1241 -21.9226 -21.0529 -20.7636 -20.5026 -20.2673 -20.0870 -19.6817
   -19.6508 -19.5839 -19.5277 -19.4631 -19.4055 -19.2364 -19.1528 -18.8428
   -18.4988 -18.0873 -18.0574  -9.8475  -9.5552  -8.4152  -8.1630  -7.9933
    -7.9383  -7.8243  -7.7979  -7.5203  -7.3204  -7.3053  -7.2486  -7.0911
    -6.9466  -6.8111  -6.7908  -6.7219  -6.6252  -6.5058  -6.4756  -6.3866
    -6.2317  -6.0033  -5.9417  -5.8605  -5.7004  -5.5551  -5.4792  -5.4209
    -5.3560  -5.2065  -4.9846  -4.9638  -4.9211  -4.8460  -4.8069  -4.7005
    -4.6095  -4.5848  -4.5342  -4.5095  -4.4920  -4.2372  -4.0911  -4.0596
    -3.9016  -3.8604  -3.6260  -3.5103  -3.4583  -3.3834  -3.2694  -3.1997
    -3.1332  -3.0563  -2.8797  -2.8388  -1.3344  -1.0064  -0.9105  -0.7837
    -0.6379  -0.5838  -0.5465  -0.3719  -0.0873   0.1463   0.1790   0.4076
     0.5505   0.5546   0.5995   0.6771   0.7697   0.9028   1.0308   1.1378
     1.3291   1.5061   1.5445   1.7725   1.7959   1.8658   2.0240   2.0863
     2.1235   2.9342   2.9837   3.0188   3.3442   3.4146   3.4756   3.5075
     3.5974   3.7519   3.8750   3.9483   4.2201   4.3935   4.4659   4.7646
     4.8937   4.9219   5.5484   5.8048   5.9791   6.0468   6.1734   6.3852
     6.6871   6.7688   6.9697   7.1856   7.2350   7.4045   7.4562   7.4809
     7.6290   7.8134   7.8933   7.9244   8.0063   8.1587   8.2888   8.4673
     8.5550   8.6639   8.6845   8.8716   8.9704   9.0660   9.1518   9.2514
     9.3492   9.3703   9.4820   9.5477   9.6189   9.6957   9.7425   9.8977
     9.9218  10.0672  10.1739  10.2174  10.2982  10.3647  10.5240  10.6050
    10.6520  10.7989  10.8574  10.9246  10.9890  11.0695  11.1461  11.2351
    11.3462  11.5126  11.5402  11.5919  11.6502  11.7632  11.8243  11.8779
    11.9863  12.0883  12.1647  12.3403  12.4845  12.5152  12.5320  12.6250
    12.8021  12.8252  12.9359  12.9770  13.1606  13.2206  13.3067  13.3743
    13.5224  13.6079  13.6572  13.7133  13.7940  13.8494  13.9219  13.9479
    14.0087  14.0824  14.1505  14.2294  14.4030  14.4351  14.4950  14.5506
    14.6067  14.6653  14.7182  14.8375  14.8786  14.9519  15.0187  15.0985
    15.1974  15.2405  15.3125  15.4929  15.5226  15.5635  15.6316  15.7023
    15.7524  15.8572  15.9221  15.9693  16.0849  16.1134  16.1935  16.2835
    16.4377  16.5022  16.6523  16.6862  16.7061  16.8296  16.8776  16.9107
    16.9976  17.0298  17.1169  17.1842  17.2357  17.3332  17.3819  17.4299
    17.5755  17.6018  17.7152  17.7528  17.8283  17.9138  17.9539  18.0354
    18.0846  18.1358  18.2242  18.2524  18.3024  18.3925  18.4657  18.4925
    18.6310  18.7066  18.7243  18.7624  18.9277  18.9801

          k = 0.2500 0.2258 0.0000 ( 29912 PWs)   bands (ev):

   -60.5705 -60.5437 -59.8832 -59.5613 -59.1189 -59.0892 -58.5975 -58.5682
   -37.0841 -36.8277 -36.7933 -36.7533 -36.6688 -36.6458 -36.2523 -36.2196
   -36.0727 -35.8528 -35.8343 -35.7863 -35.7168 -35.4614 -35.3901 -35.3827
   -35.2385 -35.2139 -35.0530 -34.9221 -34.8983 -34.8568 -34.7794 -34.7116
   -22.1201 -21.9221 -21.0451 -20.7530 -20.4931 -20.2392 -20.0033 -19.7454
   -19.6623 -19.6278 -19.5555 -19.3736 -19.3404 -19.3299 -19.2909 -18.8035
   -18.4987 -18.0874 -18.0569  -9.8439  -9.5525  -8.4047  -8.0305  -7.9756
    -7.8223  -7.7909  -7.5852  -7.5097  -7.3910  -7.2789  -7.1217  -6.9616
    -6.9540  -6.9223  -6.7367  -6.6292  -6.6063  -6.4773  -6.3586  -6.2939
    -6.2143  -6.1252  -5.9177  -5.7516  -5.7073  -5.6320  -5.5634  -5.4439
    -5.3601  -5.2812  -5.2477  -5.0459  -4.9482  -4.9192  -4.9011  -4.8517
    -4.7516  -4.7031  -4.6055  -4.5746  -4.5417  -4.4136  -4.1606  -3.9947
    -3.8808  -3.8215  -3.6696  -3.5503  -3.5181  -3.3678  -3.2973  -3.1866
    -3.1509  -3.0499  -2.8706  -2.8407  -1.3219  -0.9968  -0.9815  -0.8798
    -0.5788  -0.5467  -0.4757  -0.1944   0.0296   0.1960   0.2131   0.3879
     0.5696   0.6160   0.6850   0.7088   0.8419   0.9870   1.0518   1.2595
     1.3012   1.5291   1.5519   1.7123   1.7677   1.8252   1.9126   2.0698
     2.1661   2.5600   3.0696   3.1028   3.2201   3.3995   3.6137   3.6801
     3.7612   3.8120   4.0141   4.1445   4.2167   4.5392   4.5600   4.7487
     4.9907   5.0120   5.2720   5.6723   5.8927   6.0712   6.1255   6.1690
     6.2895   6.4900   6.5736   6.8489   6.9747   7.2487   7.3250   7.4815
     7.6291   7.8136   7.9155   7.9617   8.0114   8.0547   8.1493   8.3124
     8.5022   8.5415   8.6561   8.9264   8.9974   9.0517   9.2818   9.3159
     9.3676   9.4539   9.5653   9.6873   9.7200   9.8851  10.0433  10.1365
    10.2016  10.2780  10.3254  10.4722  10.5477  10.6722  10.7359  10.8636
    10.9273  11.0470  11.1118  11.2007  11.2960  11.3327  11.4201  11.4962
    11.5562  11.6149  11.7035  11.8331  11.9026  11.9495  12.0027  12.0619
    12.1250  12.2044  12.2934  12.3748  12.4104  12.4927  12.5590  12.6450
    12.7576  12.8348  12.8934  12.9260  12.9950  13.0678  13.1909  13.2747
    13.4373  13.5405  13.6099  13.6461  13.7230  13.7670  13.8831  13.9157
    14.0199  14.1004  14.1307  14.1776  14.2700  14.3818  14.4267  14.5416
    14.5809  14.6177  14.6909  14.7734  14.8667  14.9343  14.9977  15.0608
    15.1324  15.2081  15.2699  15.3289  15.3984  15.4565  15.5165  15.5862
    15.7343  15.7636  15.8084  15.9071  15.9267  16.0276  16.0671  16.1746
    16.1995  16.3429  16.3630  16.4479  16.4949  16.5467  16.6056  16.7887
    16.8155  16.8538  16.9234  16.9499  17.0082  17.1075  17.1309  17.1764
    17.2464  17.2892  17.3891  17.4391  17.4943  17.5395  17.6235  17.6329
    17.8394  17.8669  17.9327  18.0173  18.0887  18.2426  18.2904  18.3552
    18.4038  18.4995  18.5297  18.5786  18.6417  18.6751

          k = 0.2500-0.4516 0.0000 ( 29882 PWs)   bands (ev):

   -60.5705 -60.5437 -59.8832 -59.5613 -59.1189 -59.0892 -58.5975 -58.5682
   -37.0842 -36.8277 -36.7933 -36.7533 -36.6674 -36.6467 -36.2524 -36.2203
   -36.0717 -35.8529 -35.8346 -35.7854 -35.7152 -35.4634 -35.3901 -35.3829
   -35.2385 -35.2139 -35.0528 -34.9241 -34.8975 -34.8568 -34.7794 -34.7116
   -22.1162 -21.9216 -21.0376 -20.7428 -20.4842 -20.2040 -19.8739 -19.7983
   -19.6763 -19.6406 -19.5540 -19.4828 -19.4198 -19.3256 -19.2882 -18.7790
   -18.4986 -18.0875 -18.0563  -9.8393  -9.5508  -8.3955  -7.9940  -7.9683
    -7.7976  -7.5672  -7.5102  -7.4338  -7.2912  -7.1975  -7.0205  -6.9308
    -6.8340  -6.8031  -6.6732  -6.6372  -6.5741  -6.4845  -6.3885  -6.2019
    -6.1191  -6.0890  -5.9192  -5.7682  -5.7507  -5.6744  -5.6155  -5.5553
    -5.4693  -5.3529  -5.3251  -5.2632  -5.2111  -5.1919  -5.0349  -4.9506
    -4.9311  -4.8024  -4.7162  -4.6176  -4.5330  -4.3984  -4.1526  -3.9939
    -3.7840  -3.7196  -3.6614  -3.5888  -3.5191  -3.4575  -3.2606  -3.1678
    -3.1576  -3.0668  -2.8820  -2.8144  -1.3152  -1.1680  -1.0594  -0.7472
    -0.5745  -0.5079  -0.4471  -0.2981   0.2269   0.2336   0.4126   0.4209
     0.6483   0.6634   0.7592   0.7930   0.8151   1.0293   1.1690   1.2881
     1.3468   1.5344   1.5635   1.6046   1.7352   1.7794   1.8538   2.1102
     2.2038   2.2472   2.9152   3.2068   3.3237   3.4296   3.5412   3.8175
     3.8284   4.0889   4.1074   4.2781   4.4339   4.6266   4.6785   4.7791
     4.8859   5.1058   5.1374   5.2633   5.5522   5.7585   6.1189   6.2393
     6.3217   6.5186   6.7326   6.8265   6.9513   6.9911   7.1234   7.1995
     7.2630   7.4626   7.5839   7.7078   7.9877   8.1002   8.1583   8.1935
     8.3494   8.5158   8.6116   8.7360   8.8498   9.0258   9.1725   9.3839
     9.4686   9.6573   9.8498   9.9451  10.0289  10.0815  10.1707  10.4435
    10.5684  10.7250  10.9102  10.9710  11.0308  11.0820  11.1213  11.2087
    11.2965  11.3201  11.4208  11.4406  11.4780  11.5218  11.5936  11.7255
    11.7468  11.7777  11.7939  11.8844  11.9098  12.0265  12.0524  12.1597
    12.1969  12.2859  12.3235  12.3703  12.4447  12.4954  12.6477  12.7273
    12.8056  12.8524  12.9121  13.0242  13.0738  13.1198  13.2305  13.3083
    13.4169  13.4861  13.5520  13.5862  13.6303  13.6934  13.7647  13.8144
    13.8408  13.8749  13.9076  14.0057  14.0516  14.1359  14.2144  14.2639
    14.3605  14.4124  14.5536  14.6617  14.6798  14.7516  14.8147  14.8330
    14.8582  14.9229  15.0775  15.0860  15.1867  15.2452  15.2923  15.3859
    15.4017  15.5349  15.6339  15.6980  15.7460  15.8006  15.8268  15.9579
    16.0979  16.1512  16.2234  16.3565  16.4258  16.5320  16.5773  16.6514
    16.7047  16.7879  16.8577  16.9791  17.0614  17.1738  17.2269  17.2988
    17.3319  17.3931  17.4534  17.5077  17.5399  17.5875  17.6449  17.6963
    17.7595  17.8424  17.9107  17.9783  18.0546  18.1271  18.1491  18.2068
    18.2620  18.3047  18.3911  18.4726  18.5331  18.5841

          k =-0.5000 0.0000 0.0000 ( 29982 PWs)   bands (ev):

   -60.5581 -60.5561 -59.8826 -59.5619 -59.1070 -59.1012 -58.5842 -58.5816
   -36.9424 -36.9390 -36.7918 -36.7895 -36.6585 -36.6566 -36.2514 -36.1472
   -36.0693 -35.9132 -35.8499 -35.7921 -35.5595 -35.5548 -35.4231 -35.4180
   -35.2291 -35.2226 -34.9119 -34.9072 -34.9006 -34.8989 -34.8062 -34.8016
   -21.9988 -21.9928 -21.0370 -20.7767 -20.5343 -19.9804 -19.9753 -19.8498
   -19.7879 -19.5615 -19.5112 -19.4131 -19.4125 -19.3112 -19.3051 -18.6253
   -18.5446 -18.1631 -18.1547  -9.6901  -9.6822  -8.4080  -7.9868  -7.8143
    -7.7213  -7.7174  -7.4439  -7.4286  -7.3730  -7.3392  -7.3135  -7.2825
    -7.0708  -6.9338  -6.9179  -6.7824  -6.7759  -6.7439  -6.3067  -6.2906
    -6.1419  -6.1051  -5.7877  -5.7339  -5.6459  -5.6318  -5.4849  -5.4396
    -5.3202  -5.2713  -5.1785  -5.0948  -4.8292  -4.8149  -4.7510  -4.7360
    -4.6756  -4.5453  -4.4624  -4.4360  -4.4042  -4.2534  -4.1887  -4.1676
    -3.9551  -3.9349  -3.7464  -3.7204  -3.6248  -3.6022  -3.1852  -3.1341
    -3.1090  -3.0137  -2.9655  -2.9520  -1.0565  -0.9943  -0.8932  -0.7904
    -0.6766  -0.6473  -0.4427  -0.4372   0.0249   0.0373   0.2016   0.3317
     0.3769   0.5524   0.7131   0.7172   0.7446   0.7521   1.2672   1.3495
     1.3676   1.5963   1.6022   1.6395   1.6587   1.7339   1.9403   2.1363
     2.2480   3.0248   3.0765   3.1904   3.5102   3.5263   3.5451   3.5582
     3.5783   3.7442   3.9196   3.9510   4.0993   4.4850   4.6594   4.7137
     4.7274   4.9572   5.1475   5.3358   5.6282   5.7743   6.2335   6.3935
     6.7208   6.8081   6.8474   6.9939   7.4187   7.4431   7.4668   7.6171
     7.7168   7.9162   7.9616   8.1289   8.2183   8.2400   8.2549   8.2737
     8.3816   8.4547   8.6690   8.7548   8.7866   8.8735   8.9040   8.9308
     9.0256   9.1265   9.4329   9.4616   9.6394   9.6848   9.7672   9.8366
     9.8638   9.9551  10.1160  10.1295  10.2645  10.3653  10.4559  10.5462
    10.6525  10.6991  10.8024  10.8488  11.0499  11.1768  11.4213  11.5834
    11.6107  11.6654  11.7833  11.9323  12.0088  12.0364  12.1250  12.2133
    12.2812  12.3631  12.4464  12.6622  12.7282  12.7601  12.8675  12.9949
    13.0127  13.1047  13.1461  13.2408  13.3483  13.3558  13.4234  13.5741
    13.6804  13.7939  13.8370  13.9665  14.0020  14.0520  14.1309  14.2132
    14.2455  14.3144  14.3894  14.4113  14.4528  14.5196  14.5799  14.6678
    14.7367  14.8899  15.0449  15.0655  15.1760  15.2336  15.3058  15.3256
    15.4393  15.5305  15.5970  15.6530  15.7603  15.8264  15.8827  15.9422
    16.0551  16.1046  16.2304  16.2393  16.2797  16.3629  16.4020  16.5121
    16.5230  16.5755  16.6209  16.6676  16.6938  16.7198  16.7497  16.7925
    16.8417  16.9062  16.9350  16.9827  16.9980  17.0550  17.0923  17.2642
    17.3232  17.3540  17.4481  17.5127  17.6855  17.7501  17.7977  17.8437
    17.9359  17.9603  18.0351  18.0910  18.1337  18.1899  18.2908  18.3551
    18.4000  18.4453  18.4682  18.5066  18.5437  18.5802

          k =-0.5000 0.2258 0.0000 ( 29954 PWs)   bands (ev):

   -60.5581 -60.5562 -59.8826 -59.5619 -59.1070 -59.1012 -58.5842 -58.5816
   -36.9424 -36.9390 -36.7918 -36.7895 -36.6582 -36.6563 -36.2514 -36.1477
   -36.0685 -35.9139 -35.8499 -35.7909 -35.5587 -35.5540 -35.4242 -35.4192
   -35.2291 -35.2226 -34.9124 -34.9078 -34.9005 -34.8988 -34.8061 -34.8015
   -21.9973 -21.9913 -21.0324 -20.7710 -20.5278 -19.9447 -19.9340 -19.7799
   -19.7267 -19.5756 -19.5460 -19.4558 -19.4391 -19.3914 -19.3866 -18.6204
   -18.5403 -18.1627 -18.1537  -9.6807  -9.6727  -8.3997  -7.9868  -7.8109
    -7.5876  -7.5551  -7.3733  -7.3447  -7.2890  -7.2557  -7.1362  -7.1212
    -7.0072  -6.8660  -6.8424  -6.7739  -6.7424  -6.6959  -6.3451  -6.2883
    -6.1321  -6.0929  -5.9845  -5.9096  -5.7942  -5.7437  -5.5283  -5.4469
    -5.3736  -5.2838  -5.2097  -5.0586  -4.9479  -4.8992  -4.8804  -4.8573
    -4.8077  -4.7888  -4.7469  -4.6588  -4.3897  -4.3246  -4.2017  -4.1658
    -4.0380  -3.9772  -3.6326  -3.6029  -3.5553  -3.4801  -3.1678  -3.1436
    -3.0771  -3.0456  -2.9512  -2.9140  -1.0513  -0.9956  -0.8917  -0.8024
    -0.7566  -0.7160  -0.4192  -0.3731   0.2148   0.3271   0.3502   0.4308
     0.4547   0.5704   0.6079   0.7211   0.8510   0.8848   1.1802   1.3350
     1.4378   1.5784   1.6153   1.6599   1.6737   1.7317   1.9713   2.0460
     2.1351   2.7177   2.8197   3.0992   3.3792   3.4688   3.6776   3.6845
     3.8961   3.9346   4.0223   4.0352   4.1872   4.5238   4.6416   4.9166
     4.9259   5.1298   5.3026   5.4640   5.6870   5.8139   6.0550   6.1748
     6.3915   6.6051   6.6864   6.7759   6.8420   6.9197   6.9896   7.0475
     7.2580   7.3641   7.5627   7.6853   7.9380   8.0647   8.1486   8.3033
     8.5420   8.5729   8.6053   8.7220   8.8309   8.9658   9.1635   9.2888
     9.5357   9.7143   9.7835   9.8268   9.9445   9.9909  10.0863  10.1257
    10.2065  10.2505  10.3460  10.4047  10.6185  10.7514  10.8434  10.9070
    11.0379  11.0788  11.1162  11.2061  11.4285  11.4912  11.6123  11.6645
    11.8263  11.8984  11.9996  12.0492  12.1366  12.1613  12.2511  12.3490
    12.4445  12.5070  12.5799  12.6775  12.8041  12.9151  13.0365  13.0626
    13.1354  13.1887  13.3410  13.4053  13.4589  13.5152  13.5346  13.5775
    13.6046  13.7412  13.7732  13.9275  13.9735  14.0510  14.1028  14.1428
    14.2053  14.2468  14.2893  14.3543  14.3964  14.4667  14.4877  14.5545
    14.7117  14.7716  14.8831  14.9428  14.9977  15.0708  15.1019  15.1392
    15.1835  15.2643  15.3175  15.3665  15.3938  15.4272  15.4724  15.5032
    15.5212  15.5593  15.6289  15.6484  15.7784  15.8042  15.8672  15.9051
    15.9705  15.9951  16.0778  16.1407  16.2783  16.3169  16.3739  16.4306
    16.4657  16.6108  16.6386  16.6713  16.7464  16.8425  16.9014  16.9394
    16.9932  17.0560  17.1446  17.2119  17.2654  17.3214  17.3627  17.4079
    17.5024  17.5959  17.6324  17.7940  17.8122  17.9815  18.0484  18.2639
    18.3201  18.3671  18.4270  18.4642  18.5015  18.5642

          k =-0.5000-0.4516 0.0000 ( 29868 PWs)   bands (ev):

   -60.5581 -60.5561 -59.8826 -59.5619 -59.1070 -59.1012 -58.5842 -58.5816
   -36.9425 -36.9391 -36.7918 -36.7895 -36.6579 -36.6560 -36.2514 -36.1482
   -36.0676 -35.9145 -35.8499 -35.7897 -35.5578 -35.5532 -35.4254 -35.4203
   -35.2291 -35.2226 -34.9130 -34.9083 -34.9005 -34.8988 -34.8061 -34.8015
   -21.9958 -21.9897 -21.0279 -20.7654 -20.5215 -19.8972 -19.8754 -19.6373
   -19.6084 -19.6074 -19.5798 -19.5583 -19.5515 -19.4858 -19.4494 -18.6160
   -18.5364 -18.1623 -18.1528  -9.6712  -9.6631  -8.3938  -7.9870  -7.8107
    -7.5366  -7.4976  -7.3119  -7.2523  -6.9972  -6.9798  -6.9477  -6.9223
    -6.8149  -6.7419  -6.7269  -6.6738  -6.6543  -6.6081  -6.5532  -6.5362
    -6.2192  -6.1808  -6.0760  -6.0437  -5.8597  -5.8260  -5.6462  -5.5441
    -5.4163  -5.2768  -5.2308  -5.1968  -5.1389  -5.1266  -5.0953  -5.0503
    -5.0380  -4.9126  -4.8970  -4.8444  -4.3681  -4.2111  -4.1699  -4.1595
    -4.0903  -3.9057  -3.5963  -3.5433  -3.4614  -3.4333  -3.1986  -3.1697
    -2.9961  -2.9821  -2.9426  -2.9141  -1.0454  -0.9959  -0.8811  -0.8165
    -0.8091  -0.7520  -0.4405  -0.3395   0.2424   0.3427   0.4485   0.6089
     0.6717   0.7262   0.7286   0.8379   0.9336   0.9406   1.1096   1.3267
     1.5117   1.6035   1.6153   1.6666   1.6783   1.6802   1.9130   1.9672
     2.0292   2.3822   2.4932   3.1354   3.4231   3.5693   3.6349   3.6388
     4.0467   4.0576   4.2567   4.2602   4.3912   4.5473   4.5543   5.1104
     5.1140   5.5324   5.5577   5.6134   5.6511   5.7032   5.8315   5.9253
     6.0104   6.1205   6.2949   6.3965   6.5117   6.6230   6.8888   7.0001
     7.1914   7.2909   7.4175   7.4897   7.7283   7.8447   7.9313   7.9924
     8.1408   8.2494   8.6611   8.8175   8.9286   9.0202   9.2482   9.2839
     9.3962   9.5299   9.8320  10.0145  10.1599  10.2062  10.4084  10.5963
    10.6240  10.6981  10.9055  11.0856  11.1678  11.1965  11.2631  11.5360
    11.7533  11.7768  11.8584  11.8799  11.9418  12.0089  12.1760  12.2701
    12.2819  12.3245  12.4532  12.4642  12.5173  12.5640  12.6091  12.6349
    12.6422  12.6575  12.7134  12.8292  12.8477  12.8968  12.9042  12.9919
    13.0101  13.0903  13.1313  13.1743  13.2506  13.3650  13.3920  13.4424
    13.4564  13.5574  13.6280  13.6699  13.6971  13.8151  13.9223  13.9414
    13.9884  14.0587  14.0974  14.1235  14.1780  14.2448  14.2986  14.3370
    14.3900  14.4469  14.4535  14.4794  14.5031  14.5375  14.5966  14.6817
    14.7800  14.8202  14.8559  14.8746  15.0070  15.0120  15.0709  15.1076
    15.1434  15.1701  15.2241  15.3554  15.4148  15.5164  15.5980  15.7268
    15.7474  15.8289  15.8880  15.8939  15.9691  16.0341  16.1088  16.1913
    16.2674  16.3148  16.3925  16.4050  16.5484  16.5946  16.7526  16.7703
    16.7897  16.9393  17.0509  17.1408  17.1657  17.1895  17.2780  17.3482
    17.4009  17.4424  17.4480  17.5593  17.6643  17.7686  17.7990  17.9077
    18.0594  18.1112  18.1494  18.2005  18.2697  18.3713

          k =-0.2500 0.2258 0.0000 ( 29912 PWs)   bands (ev):

   -60.5705 -60.5437 -59.8832 -59.5613 -59.1189 -59.0892 -58.5975 -58.5682
   -37.0841 -36.8277 -36.7933 -36.7533 -36.6688 -36.6458 -36.2523 -36.2196
   -36.0727 -35.8528 -35.8343 -35.7863 -35.7168 -35.4612 -35.3904 -35.3827
   -35.2385 -35.2139 -35.0530 -34.9221 -34.8983 -34.8568 -34.7794 -34.7116
   -22.1202 -21.9221 -21.0451 -20.7529 -20.4931 -20.2394 -20.0033 -19.7438
   -19.6623 -19.6280 -19.5581 -19.3737 -19.3390 -19.3300 -19.2909 -18.8035
   -18.4987 -18.0874 -18.0569  -9.8437  -9.5537  -8.4022  -8.0301  -7.9676
    -7.8272  -7.8006  -7.5855  -7.5061  -7.3931  -7.2889  -7.1340  -6.9471
    -6.9351  -6.9087  -6.7339  -6.6524  -6.6030  -6.4663  -6.3785  -6.2705
    -6.2104  -6.1308  -5.9407  -5.7555  -5.6989  -5.6042  -5.5838  -5.4577
    -5.3484  -5.3039  -5.2483  -5.0379  -4.9606  -4.9415  -4.9052  -4.8508
    -4.7332  -4.6708  -4.6028  -4.5714  -4.5311  -4.4299  -4.1650  -3.9963
    -3.8688  -3.8255  -3.6534  -3.5323  -3.4866  -3.4038  -3.3383  -3.1878
    -3.1416  -3.0563  -2.9112  -2.7976  -1.3222  -0.9916  -0.9729  -0.8795
    -0.5783  -0.5526  -0.4810  -0.1953   0.0275   0.1960   0.2123   0.3876
     0.5696   0.6179   0.6827   0.7192   0.8344   0.9794   1.0611   1.2610
     1.3029   1.5252   1.5524   1.7086   1.7691   1.8253   1.9124   2.0693
     2.1666   2.5601   3.0701   3.1032   3.2200   3.3990   3.6137   3.6808
     3.7622   3.8143   4.0140   4.1505   4.2125   4.5428   4.5616   4.7478
     4.9948   5.0170   5.2690   5.6673   5.9182   6.0101   6.1378   6.1932
     6.2824   6.4925   6.5356   6.8468   6.9833   7.2596   7.3508   7.4624
     7.6504   7.8343   7.8650   7.9891   8.0191   8.0494   8.1119   8.3141
     8.5095   8.5548   8.7086   8.8928   8.9695   9.0392   9.2629   9.3541
     9.4140   9.4692   9.5392   9.6450   9.6954   9.9374  10.0234  10.1065
    10.2214  10.2500  10.3587  10.4491  10.5466  10.6497  10.7903  10.8520
    10.9673  11.0179  11.1458  11.1930  11.2455  11.3485  11.4402  11.4938
    11.5402  11.6307  11.6963  11.8201  11.9236  11.9631  12.0116  12.0679
    12.1389  12.2115  12.2643  12.3735  12.4286  12.4975  12.5700  12.6831
    12.7482  12.8640  12.9113  12.9367  12.9752  13.0665  13.1479  13.2598
    13.4142  13.4843  13.5545  13.6136  13.7114  13.7969  13.8739  13.9163
    14.0377  14.0974  14.1495  14.2061  14.2456  14.3608  14.4481  14.5312
    14.5869  14.6304  14.6964  14.8241  14.8469  14.9035  14.9882  15.0588
    15.1460  15.2153  15.2592  15.3442  15.4388  15.4762  15.5236  15.5902
    15.7367  15.7734  15.8350  15.8982  15.9123  16.0380  16.0740  16.1008
    16.2281  16.2936  16.3380  16.4178  16.4953  16.5124  16.6114  16.7497
    16.8352  16.8603  16.8956  16.9383  17.0366  17.0584  17.1474  17.1837
    17.2614  17.2983  17.3907  17.4488  17.5127  17.5546  17.5994  17.6977
    17.8560  17.9056  17.9291  17.9962  18.1205  18.2247  18.2825  18.3614
    18.4098  18.4817  18.5001  18.6046  18.6372  18.6837

 ------ SPIN DOWN ----------


          k = 0.0000 0.0000 0.0000 ( 29975 PWs)   bands (ev):

   -60.5835 -60.5457 -59.8985 -59.5983 -59.1352 -59.0938 -58.6139 -58.5728
   -37.1481 -36.8500 -36.7497 -36.7333 -36.6844 -36.6486 -36.2878 -36.2687
   -36.0892 -35.8972 -35.8204 -35.8047 -35.7907 -35.4848 -35.3776 -35.3288
   -35.2551 -35.2232 -35.1249 -34.9360 -34.9068 -34.8770 -34.7766 -34.6526
   -22.1894 -21.9085 -20.8141 -20.5563 -20.3839 -20.2534 -19.9041 -19.6680
   -19.6450 -19.4291 -19.4238 -19.3396 -19.2997 -19.1263 -18.9869 -18.8705
   -18.4222 -17.9555 -17.9294  -9.9300  -9.4961  -8.3534  -8.2679  -8.1626
    -8.0338  -7.9508  -7.8224  -7.4152  -7.3532  -7.1687  -7.1264  -6.9712
    -6.8023  -6.7628  -6.6862  -6.6778  -6.6254  -6.4836  -6.4587  -6.3674
    -6.2014  -6.0568  -5.8597  -5.5837  -5.4869  -5.4402  -5.3830  -5.3589
    -5.3277  -5.3238  -5.2352  -5.0304  -4.8686  -4.7575  -4.6966  -4.6758
    -4.6580  -4.5419  -4.2393  -4.1451  -4.0803  -4.0472  -3.8607  -3.8056
    -3.6885  -3.5789  -3.3930  -3.3369  -3.3079  -3.2938  -3.0193  -3.0138
    -2.8612  -2.8314  -2.7580  -2.4513  -1.5556  -1.0575  -0.8625  -0.8345
    -0.6953  -0.5939  -0.5043  -0.4386  -0.0889   0.1572   0.2893   0.4161
     0.5962   0.6218   0.6801   0.7332   0.7350   0.7655   0.9622   1.0384
     1.3019   1.3948   1.4381   1.7046   1.8838   1.9439   2.0080   2.0860
     2.3338   2.6102   2.9337   3.0311   3.2214   3.3648   3.5068   3.5638
     3.5810   3.6008   3.7349   4.0849   4.1327   4.4262   4.5939   4.6489
     4.9770   5.3550   5.6203   5.7150   5.8367   6.4099   6.4947   6.5812
     6.9558   7.0195   7.1281   7.1742   7.2352   7.4692   7.6940   7.7163
     7.7568   7.8050   7.9213   7.9739   8.1088   8.2207   8.2997   8.3624
     8.4849   8.5855   8.6830   8.7168   8.8046   8.9117   8.9808   9.0865
     9.1801   9.2633   9.3441   9.4891   9.5601   9.6384   9.8000   9.9646
     9.9975  10.1537  10.2680  10.4764  10.6061  10.7221  10.7742  10.8865
    10.9339  10.9864  11.0432  11.0957  11.1820  11.2228  11.3307  11.3882
    11.4023  11.4708  11.5057  11.5710  11.6427  11.6699  11.6913  11.7545
    11.8608  11.9072  12.0355  12.0737  12.1489  12.2703  12.2982  12.3452
    12.4171  12.4301  12.5109  12.5933  12.7320  12.8018  12.8090  12.9209
    13.0242  13.1190  13.2679  13.2947  13.5337  13.5520  13.6148  13.6559
    13.7822  13.8098  13.8505  13.9813  14.1016  14.1436  14.1572  14.1849
    14.2887  14.4650  14.5126  14.5507  14.6889  14.7457  14.8794  14.9244
    15.0502  15.1115  15.1995  15.2103  15.2964  15.4517  15.4909  15.5410
    15.6711  15.7480  15.9677  16.0820  16.2437  16.2493  16.4217  16.4652
    16.4794  16.5888  16.6292  16.6582  16.7890  16.8049  16.9017  16.9648
    17.0367  17.1781  17.3529  17.4196  17.4436  17.6082  17.6437  17.6726
    17.7153  17.7333  17.9062  17.9579  18.0642  18.1065  18.1507  18.1929
    18.2458  18.2759  18.3635  18.4337  18.6002  18.6199  18.7539  18.7875
    18.8659  18.9323  19.0008  19.0776  19.1219  19.1981

          k = 0.0000 0.2258 0.0000 ( 29933 PWs)   bands (ev):

   -60.5835 -60.5457 -59.8985 -59.5983 -59.1352 -59.0938 -58.6139 -58.5728
   -37.1482 -36.8500 -36.7497 -36.7333 -36.6825 -36.6501 -36.2886 -36.2687
   -36.0880 -35.8973 -35.8198 -35.8047 -35.7888 -35.4873 -35.3774 -35.3289
   -35.2551 -35.2232 -35.1246 -34.9387 -34.9055 -34.8770 -34.7766 -34.6526
   -22.1841 -21.9081 -20.7891 -20.5511 -20.3422 -20.2232 -19.8623 -19.7682
   -19.6587 -19.5555 -19.3882 -19.2435 -19.2251 -19.1845 -19.1697 -18.7830
   -18.4227 -17.9545 -17.9294  -9.9293  -9.5064  -8.2776  -8.1656  -8.1301
    -7.9566  -7.7777  -7.7281  -7.5271  -7.3558  -7.2728  -7.0719  -6.9688
    -6.8746  -6.7947  -6.7146  -6.5869  -6.4326  -6.3342  -6.2579  -6.2101
    -6.1841  -6.0176  -5.8588  -5.6933  -5.5793  -5.5390  -5.4640  -5.4354
    -5.3416  -5.2807  -5.2390  -5.0948  -4.9651  -4.9290  -4.8476  -4.7204
    -4.6076  -4.3887  -4.3375  -4.3093  -4.2605  -4.2003  -3.9080  -3.8036
    -3.7283  -3.5909  -3.4303  -3.3584  -3.3438  -3.2953  -3.1181  -3.0216
    -2.9660  -2.8384  -2.7577  -2.5035  -1.5362  -1.0733  -0.9819  -0.8477
    -0.5038  -0.4528  -0.4131  -0.1853  -0.1758   0.0506   0.1858   0.2952
     0.6053   0.7273   0.7362   0.7481   0.8467   0.9730   1.0362   1.1760
     1.2678   1.3403   1.4488   1.7382   1.7399   1.8906   1.9182   2.1748
     2.3363   2.5408   2.8586   3.1154   3.2636   3.4332   3.5183   3.6182
     3.8105   3.8907   4.0179   4.0991   4.1723   4.4274   4.6419   4.7838
     4.9766   4.9944   5.4928   5.6571   5.7795   5.8210   5.9249   6.2446
     6.5727   6.6986   6.9787   7.1644   7.3340   7.5439   7.5775   7.6353
     7.8545   7.9440   8.1229   8.1650   8.3261   8.4996   8.5830   8.6525
     8.7366   8.8725   8.9267   8.9489   9.0416   9.0850   9.1514   9.2435
     9.3528   9.3714   9.4561   9.4852   9.6578   9.7986   9.8343   9.8629
     9.9225   9.9844  10.0744  10.1732  10.2489  10.3869  10.4260  10.5193
    10.6407  10.7664  10.8066  10.8672  10.9594  11.1217  11.1425  11.2043
    11.2661  11.3447  11.4736  11.6951  11.7505  11.8050  11.8729  11.9434
    12.0105  12.1217  12.2280  12.2870  12.4234  12.4868  12.5750  12.6462
    12.7311  12.7790  12.9326  12.9885  13.0290  13.1578  13.2287  13.3172
    13.3513  13.4287  13.4707  13.6027  13.6867  13.7132  13.7577  13.8015
    13.9040  13.9329  14.0008  14.0519  14.1305  14.1790  14.2237  14.2949
    14.3669  14.3984  14.4752  14.5693  14.6450  14.6947  14.7883  14.8619
    14.9341  15.0608  15.0872  15.1835  15.2136  15.2406  15.3375  15.3987
    15.4409  15.5288  15.6178  15.7384  15.8472  15.9130  16.0178  16.1262
    16.1934  16.2916  16.3814  16.4108  16.5807  16.6356  16.6960  16.8207
    16.9006  16.9403  16.9778  17.0820  17.1165  17.1786  17.2842  17.5718
    17.6437  17.7377  17.7804  17.8562  17.9505  18.0372  18.0640  18.1689
    18.2316  18.3723  18.4460  18.5020  18.5228  18.5458  18.6794  18.6971
    18.7945  18.8279  18.8893  18.9537  19.0144  19.1138

          k = 0.0000-0.4516 0.0000 ( 29906 PWs)   bands (ev):

   -60.5835 -60.5457 -59.8985 -59.5983 -59.1352 -59.0938 -58.6139 -58.5728
   -37.1483 -36.8500 -36.7497 -36.7333 -36.6806 -36.6516 -36.2894 -36.2687
   -36.0868 -35.8973 -35.8192 -35.8048 -35.7869 -35.4899 -35.3773 -35.3289
   -35.2551 -35.2232 -35.1244 -34.9413 -34.9041 -34.8770 -34.7766 -34.6526
   -22.1789 -21.9077 -20.7649 -20.5458 -20.2985 -20.1898 -19.8468 -19.7757
   -19.6413 -19.6262 -19.3889 -19.3833 -19.3137 -19.1629 -19.1023 -18.7469
   -18.4233 -17.9536 -17.9294  -9.9272  -9.5169  -8.2621  -8.1531  -8.0571
    -7.8683  -7.6439  -7.5978  -7.4190  -7.3567  -7.3206  -7.1873  -6.8298
    -6.7982  -6.6648  -6.5711  -6.5465  -6.4354  -6.3118  -6.2474  -6.1633
    -6.0575  -5.8411  -5.8344  -5.7964  -5.7152  -5.5883  -5.5741  -5.4313
    -5.4067  -5.3618  -5.2772  -5.2538  -5.2166  -5.1676  -4.9679  -4.7776
    -4.7041  -4.5056  -4.3986  -4.2764  -4.2165  -3.9571  -3.9308  -3.9285
    -3.7941  -3.5602  -3.5251  -3.4977  -3.4395  -3.3218  -3.1326  -3.0452
    -2.8600  -2.8385  -2.6668  -2.6347  -1.5275  -1.2845  -1.1108  -0.6466
    -0.5035  -0.3903  -0.3264  -0.2398  -0.0728   0.1535   0.2309   0.3000
     0.5671   0.7318   0.7431   0.7578   0.9312   1.0905   1.2010   1.2155
     1.2702   1.3237   1.4700   1.6423   1.7349   1.8607   1.8799   2.2519
     2.2838   2.3415   3.1256   3.2462   3.2800   3.3371   3.5340   3.8976
     3.9387   3.9643   4.0289   4.3543   4.4577   4.5082   4.6327   4.6902
     4.8347   4.9821   4.9982   5.2839   5.4871   5.8578   5.9208   6.1842
     6.2676   6.7011   6.8636   6.9054   7.1139   7.2792   7.4633   7.7664
     7.8900   8.1509   8.3764   8.4779   8.5639   8.6682   8.6920   8.7061
     8.8010   8.8713   8.9467   8.9746   9.0374   9.0999   9.1419   9.1982
     9.2458   9.3291   9.3600   9.5524   9.6145   9.7264   9.8334   9.8660
     9.9834  10.0565  10.2553  10.3407  10.3833  10.4827  10.5938  10.7406
    10.8122  10.9301  10.9760  11.0874  11.1006  11.2069  11.2699  11.2988
    11.4486  11.5079  11.5613  11.6017  11.6918  11.7248  11.8461  11.9123
    11.9911  12.0897  12.1376  12.2151  12.2686  12.2945  12.4654  12.7081
    12.7445  12.7724  12.9219  12.9647  13.0026  13.0419  13.0932  13.1827
    13.2681  13.3303  13.3927  13.4633  13.6241  13.7442  13.8067  13.9159
    13.9862  14.0088  14.1218  14.1839  14.2397  14.2985  14.4680  14.6205
    14.6328  14.6619  14.7630  14.7824  14.9074  14.9618  15.0806  15.2130
    15.2615  15.2958  15.3428  15.4232  15.4736  15.5009  15.5336  15.6048
    15.6652  15.7113  15.7888  15.8165  15.8794  15.9115  15.9594  15.9973
    16.0543  16.0856  16.1921  16.2134  16.2928  16.3524  16.4227  16.4269
    16.5164  16.7295  16.8450  16.8877  16.9587  17.0367  17.0607  17.1165
    17.1989  17.3540  17.4172  17.5095  17.6037  17.6905  17.7004  17.7832
    17.8479  17.9263  17.9445  17.9649  17.9918  18.0452  18.0927  18.1702
    18.1738  18.2719  18.4739  18.6600  18.7095  18.7954

          k = 0.2500 0.0000 0.0000 ( 29937 PWs)   bands (ev):

   -60.5780 -60.5513 -59.8980 -59.5989 -59.1292 -59.0997 -58.6079 -58.5788
   -37.0897 -36.8355 -36.7993 -36.7610 -36.6791 -36.6538 -36.2689 -36.2359
   -36.0846 -35.8980 -35.8591 -35.8255 -35.7253 -35.4698 -35.3979 -35.3934
   -35.2508 -35.2265 -35.0615 -34.9318 -34.9110 -34.8664 -34.7895 -34.7208
   -22.1230 -21.9222 -20.7920 -20.6027 -20.2713 -20.1961 -19.8701 -19.6296
   -19.6087 -19.5466 -19.4208 -19.3632 -19.3556 -19.2008 -19.0507 -18.7479
   -18.3840 -18.0381 -18.0093  -9.8468  -9.5549  -8.2466  -8.1319  -7.9739
    -7.9160  -7.8014  -7.7656  -7.4766  -7.3065  -7.2915  -7.2171  -7.0757
    -6.9195  -6.7616  -6.7163  -6.6595  -6.5884  -6.4704  -6.4496  -6.3561
    -6.1888  -5.9702  -5.9068  -5.8237  -5.6483  -5.5111  -5.4229  -5.3841
    -5.1509  -5.1083  -4.9314  -4.9160  -4.8619  -4.7809  -4.7353  -4.6525
    -4.5632  -4.4686  -4.4630  -4.3898  -4.3430  -4.1312  -3.9631  -3.8476
    -3.6424  -3.5996  -3.4584  -3.4058  -3.3207  -3.3065  -3.1474  -3.0904
    -2.9375  -2.8768  -2.7807  -2.5269  -1.3367  -1.0113  -0.9040  -0.7777
    -0.6519  -0.5877  -0.5461  -0.3768  -0.0852   0.1320   0.1902   0.4022
     0.5489   0.5599   0.6106   0.6724   0.7745   0.9063   1.0469   1.1475
     1.3337   1.5126   1.5460   1.7751   1.8086   1.8815   2.0229   2.0872
     2.1226   2.9413   2.9979   3.0273   3.3500   3.4249   3.4981   3.5076
     3.6171   3.7659   3.8759   3.9527   4.2319   4.4001   4.4779   4.7758
     4.8998   4.9296   5.5599   5.8300   5.9828   6.0583   6.1857   6.3939
     6.6936   6.7787   6.9858   7.2301   7.2476   7.4127   7.4638   7.4884
     7.6355   7.8247   7.9047   7.9332   8.0153   8.1706   8.3000   8.4862
     8.5630   8.6739   8.6951   8.8982   8.9812   9.0843   9.1702   9.2668
     9.3637   9.3873   9.4942   9.5504   9.6238   9.7112   9.7538   9.9091
     9.9298  10.0710  10.1812  10.2268  10.3052  10.3729  10.5337  10.6148
    10.6624  10.8072  10.8624  10.9343  10.9987  11.0789  11.1536  11.2407
    11.3512  11.5220  11.5512  11.5994  11.6611  11.7753  11.8364  11.9064
    12.0001  12.0949  12.1718  12.3498  12.4929  12.5256  12.5421  12.6337
    12.8120  12.8643  12.9564  12.9869  13.1755  13.2341  13.3244  13.3880
    13.5336  13.6204  13.6658  13.7208  13.8079  13.8595  13.9345  13.9540
    14.0137  14.1010  14.1652  14.2364  14.4130  14.4424  14.5011  14.5619
    14.6150  14.6714  14.7270  14.8442  14.8839  14.9590  15.0249  15.1117
    15.2066  15.2480  15.3210  15.5002  15.5305  15.5724  15.6364  15.7086
    15.7708  15.8645  15.9413  15.9753  16.0941  16.1284  16.1980  16.2947
    16.4461  16.5119  16.6670  16.6914  16.7227  16.8393  16.8872  16.9148
    17.0066  17.0441  17.1293  17.1925  17.2431  17.3443  17.3866  17.4382
    17.5879  17.6075  17.7257  17.7548  17.8440  17.9179  17.9602  18.0398
    18.0898  18.1377  18.2348  18.2621  18.3066  18.4024  18.4761  18.5046
    18.6439  18.7186  18.7357  18.7675  18.9380  18.9836

          k = 0.2500 0.2258 0.0000 ( 29912 PWs)   bands (ev):

   -60.5780 -60.5513 -59.8979 -59.5989 -59.1292 -59.0997 -58.6079 -58.5788
   -37.0898 -36.8355 -36.7993 -36.7610 -36.6777 -36.6548 -36.2690 -36.2366
   -36.0835 -35.8980 -35.8593 -35.8247 -35.7237 -35.4720 -35.3976 -35.3937
   -35.2508 -35.2265 -35.0613 -34.9337 -34.9102 -34.8664 -34.7895 -34.7207
   -22.1191 -21.9217 -20.7757 -20.5983 -20.2256 -20.1751 -19.8157 -19.7117
   -19.6066 -19.5353 -19.4990 -19.2980 -19.2874 -19.2691 -19.1977 -18.7054
   -18.3843 -18.0390 -18.0083  -9.8433  -9.5522  -8.2238  -8.0081  -7.9456
    -7.8114  -7.7686  -7.5538  -7.4643  -7.3808  -7.2654  -7.0900  -6.9322
    -6.9262  -6.8894  -6.6982  -6.5799  -6.5599  -6.4422  -6.2993  -6.2694
    -6.1646  -6.0769  -5.8743  -5.7227  -5.6615  -5.5826  -5.4943  -5.3374
    -5.3233  -5.2023  -5.0914  -4.9638  -4.9056  -4.8871  -4.8562  -4.7577
    -4.6825  -4.6584  -4.5273  -4.4872  -4.3966  -4.3085  -3.8857  -3.8279
    -3.7314  -3.5912  -3.5301  -3.4531  -3.3269  -3.2248  -3.1485  -3.0957
    -2.9265  -2.8349  -2.7956  -2.5504  -1.3243  -0.9963  -0.9757  -0.8849
    -0.5831  -0.5525  -0.4815  -0.1941   0.0260   0.1938   0.2174   0.3751
     0.5754   0.6139   0.6853   0.7141   0.8455   0.9966   1.0567   1.2625
     1.3154   1.5367   1.5532   1.7182   1.7791   1.8341   1.9128   2.0683
     2.1699   2.5651   3.0812   3.1129   3.2364   3.4056   3.6255   3.6820
     3.7664   3.8439   4.0256   4.1498   4.2288   4.5508   4.5674   4.7606
     4.9980   5.0205   5.2795   5.6930   5.9012   6.0840   6.1368   6.1791
     6.3028   6.4978   6.5877   6.8580   6.9868   7.2620   7.3361   7.4893
     7.6458   7.8257   7.9256   7.9859   8.0206   8.0669   8.1664   8.3227
     8.5148   8.5517   8.6655   8.9580   9.0096   9.0676   9.2900   9.3220
     9.3809   9.4616   9.5746   9.6979   9.7325   9.8984  10.0571  10.1513
    10.2154  10.2870  10.3348  10.4800  10.5566  10.6853  10.7456  10.8745
    10.9334  11.0596  11.1210  11.2180  11.3044  11.3504  11.4277  11.5034
    11.5637  11.6258  11.7162  11.8481  11.9132  11.9595  12.0150  12.0769
    12.1335  12.2145  12.3064  12.3840  12.4198  12.5026  12.5665  12.6524
    12.7748  12.8438  12.9049  12.9386  13.0064  13.0799  13.2032  13.2814
    13.4578  13.5493  13.6209  13.6569  13.7316  13.7742  13.8912  13.9247
    14.0286  14.1078  14.1410  14.1857  14.2975  14.3857  14.4369  14.5652
    14.5897  14.6231  14.7041  14.7891  14.8795  14.9420  15.0097  15.0698
    15.1403  15.2193  15.2780  15.3342  15.4080  15.4705  15.5283  15.5953
    15.7391  15.7711  15.8180  15.9116  15.9340  16.0342  16.0775  16.1902
    16.2066  16.3501  16.3750  16.4554  16.5069  16.5515  16.6092  16.7940
    16.8237  16.8576  16.9267  16.9543  17.0137  17.1127  17.1365  17.1824
    17.2524  17.2957  17.3926  17.4469  17.5007  17.5486  17.6302  17.6402
    17.8484  17.8720  17.9423  18.0288  18.1037  18.2487  18.2970  18.3591
    18.4091  18.5044  18.5362  18.5879  18.6453  18.6813

          k = 0.2500-0.4516 0.0000 ( 29882 PWs)   bands (ev):

   -60.5780 -60.5513 -59.8979 -59.5989 -59.1293 -59.0997 -58.6079 -58.5788
   -37.0899 -36.8355 -36.7993 -36.7610 -36.6763 -36.6557 -36.2690 -36.2373
   -36.0825 -35.8981 -35.8596 -35.8238 -35.7222 -35.4739 -35.3975 -35.3939
   -35.2508 -35.2265 -35.0611 -34.9357 -34.9094 -34.8665 -34.7895 -34.7207
   -22.1153 -21.9212 -20.7601 -20.5936 -20.1669 -20.1624 -19.7661 -19.7099
   -19.5865 -19.5767 -19.5033 -19.3923 -19.3802 -19.2485 -19.2183 -18.6792
   -18.3845 -18.0399 -18.0075  -9.8388  -9.5506  -8.2105  -7.9708  -7.9444
    -7.7717  -7.5556  -7.4667  -7.4244  -7.2716  -7.1675  -6.9757  -6.9035
[...]
    14.8941  14.9850  15.0669  15.1491  15.1926  15.2237  15.2879  15.3332
    15.4162  15.4783  15.5823  15.6680  15.7141  15.7543  15.8946  15.9424
    15.9908  16.1169  16.1716  16.2311  16.4340  16.5138  16.5753  16.6704
    16.7423  16.9279  16.9753  16.9820  17.0684  17.1177  17.1983  17.2408
    17.3236  17.3644  17.4242  17.4434  17.5681  17.5926  17.6329  17.7011
    17.7259  17.7814  17.9011  17.9563  17.9939  18.0360  18.1282  18.1793
    18.2417  18.3362  18.3541  18.4624  18.4919  18.5506

          k =-0.5000 0.0000 0.0000 ( 29982 PWs)   bands (ev):

   -59.8738 -59.8681 -59.6493 -59.2635 -58.9987 -58.9906 -58.6694 -58.6584
   -36.2427 -36.2380 -36.1058 -36.0994 -36.0482 -36.0426 -36.0031 -35.8939
   -35.8279 -35.6029 -35.5457 -35.4695 -35.4118 -35.4024 -35.2930 -35.2924
   -35.1629 -35.1522 -35.0029 -34.9958 -34.9582 -34.9436 -34.8964 -34.8867
   -21.2330 -21.1317 -20.4461 -20.4160 -19.7901 -19.7380 -19.5122 -19.4817
   -19.3791 -19.3256 -19.2088 -19.0809 -19.0774 -18.9244 -18.8806 -18.5534
   -18.5470 -18.2800 -18.2711  -9.0778  -8.9582  -8.3395  -7.5072  -7.4216
    -7.3991  -7.1549  -7.1421  -7.0921  -7.0596  -7.0251  -7.0005  -6.8101
    -6.5012  -6.4844  -6.2270  -6.1820  -6.1681  -6.0364  -5.9182  -5.7743
    -5.7647  -5.5456  -5.4805  -5.4110  -5.3770  -5.2796  -5.2342  -5.2079
    -5.0849  -4.9781  -4.8916  -4.8528  -4.7430  -4.5984  -4.4698  -4.3054
    -4.2300  -4.1896  -4.1759  -4.1309  -4.1245  -4.1155  -3.9994  -3.9452
    -3.8688  -3.7181  -3.5823  -3.5716  -3.5439  -3.5031  -2.9863  -2.9802
    -2.9105  -2.8724  -2.6657  -2.6333  -0.5099  -0.3251  -0.3197  -0.1683
     0.0095   0.0310   0.2158   0.2494   0.2795   0.3111   0.4847   0.5464
     0.6236   0.6453   0.6737   0.8316   0.8605   1.1889   1.4143   1.4232
     1.5414   1.5755   1.6341   1.6517   1.7818   2.2553   2.5168   2.5978
     2.8100   2.8332   3.1464   3.2424   3.5449   3.6060   3.6295   3.6461
     3.6707   3.7081   3.8929   3.9929   4.0409   4.4148   4.5434   4.6270
     4.7044   4.8632   5.1419   5.3036   5.6734   5.8053   6.2780   6.3982
     6.6847   6.8312   6.9283   7.0690   7.3760   7.4166   7.5869   7.6082
     7.6723   7.9397   7.9640   8.0101   8.1378   8.1507   8.1738   8.2180
     8.3530   8.4115   8.5687   8.6617   8.7357   8.8612   8.9728   9.0745
     9.1439   9.2532   9.4522   9.4876   9.6517   9.7355   9.8052   9.9181
     9.9347  10.0264  10.1757  10.2855  10.3289  10.4427  10.5377  10.7061
    10.7366  10.9097  10.9221  11.0601  11.0745  11.1513  11.3236  11.5855
    11.6254  11.7326  11.8860  12.0104  12.0486  12.1068  12.1720  12.2270
    12.3528  12.4473  12.4834  12.6023  12.7460  12.7869  12.8728  12.9229
    13.0178  13.0463  13.1140  13.1755  13.2312  13.3229  13.4513  13.5133
    13.6105  13.6509  13.7498  13.8098  13.9194  14.0727  14.1077  14.1537
    14.2027  14.2261  14.3010  14.3305  14.4108  14.4362  14.5535  14.6383
    14.7738  14.8335  14.9255  15.0300  15.1900  15.2640  15.4137  15.4661
    15.5669  15.5868  15.6740  15.6884  15.7211  15.7956  15.8845  15.9517
    15.9660  16.0549  16.0865  16.1678  16.2725  16.2806  16.4185  16.4715
    16.5019  16.5172  16.5320  16.6026  16.6414  16.6755  16.7070  16.7311
    16.7546  16.8160  16.8776  16.9321  17.0018  17.0730  17.1050  17.1773
    17.2512  17.3148  17.4497  17.5342  17.6405  17.6481  17.7051  17.8397
    17.8707  17.9326  17.9623  18.1450  18.1509  18.2206  18.2665  18.3155
    18.4136  18.4441  18.4495  18.4810  18.5044  18.5444

          k =-0.5000 0.2258 0.0000 ( 29954 PWs)   bands (ev):

   -59.8738 -59.8681 -59.6493 -59.2635 -58.9987 -58.9906 -58.6694 -58.6584
   -36.2428 -36.2381 -36.1058 -36.0994 -36.0477 -36.0422 -36.0032 -35.8946
   -35.8269 -35.6033 -35.5464 -35.4677 -35.4105 -35.4011 -35.2948 -35.2941
   -35.1629 -35.1522 -35.0027 -34.9957 -34.9589 -34.9444 -34.8964 -34.8867
   -21.2305 -21.1293 -20.4407 -20.4146 -19.7414 -19.7110 -19.4845 -19.4163
   -19.3535 -19.3147 -19.2144 -19.1355 -19.1161 -19.0158 -18.9775 -18.5410
   -18.5349 -18.2795 -18.2693  -9.0680  -8.9485  -8.3403  -7.4895  -7.3258
    -7.3035  -7.1270  -7.0007  -6.9709  -6.9245  -6.8717  -6.8066  -6.7233
    -6.4459  -6.4230  -6.2900  -6.2139  -6.0881  -5.9746  -5.9337  -5.9105
    -5.7205  -5.6914  -5.5619  -5.5166  -5.4552  -5.3653  -5.3092  -5.2331
    -5.0955  -5.0605  -4.8776  -4.8178  -4.7237  -4.5954  -4.5645  -4.4888
    -4.4821  -4.3637  -4.3452  -4.3021  -4.1692  -4.1562  -4.0596  -3.9714
    -3.9326  -3.7287  -3.5452  -3.5228  -3.4334  -3.4146  -3.0368  -3.0169
    -2.9754  -2.9067  -2.6292  -2.5634  -0.4904  -0.3567  -0.3394  -0.2160
    -0.0245   0.1021   0.2369   0.2808   0.4395   0.4499   0.5317   0.5618
     0.6372   0.7783   0.8280   0.9832   0.9992   1.1703   1.3240   1.4613
     1.4833   1.4957   1.6737   1.6863   1.7719   2.3026   2.5173   2.5282
     2.7280   2.7844   2.8408   2.8986   3.4811   3.5147   3.7373   3.7889
     3.9035   3.9145   4.0387   4.1635   4.1952   4.4776   4.5585   4.8222
     4.8966   5.0336   5.3096   5.4577   5.7059   5.7848   6.0299   6.1402
     6.2880   6.4956   6.6217   6.6829   6.7832   6.8880   7.0303   7.1712
     7.2194   7.3070   7.6408   7.7570   7.9410   8.0812   8.1964   8.3751
     8.5522   8.6376   8.7394   8.8103   8.9081   8.9821   9.0976   9.4071
     9.6538   9.7196   9.8986   9.9697   9.9915  10.0379  10.0846  10.1368
    10.1697  10.2931  10.3812  10.4464  10.6185  10.7839  10.9426  10.9758
    11.0050  11.0934  11.1904  11.3277  11.4536  11.5368  11.6291  11.6714
    11.7269  11.9548  12.0192  12.1061  12.1504  12.2190  12.3317  12.3678
    12.4653  12.5975  12.6429  12.8451  12.8943  12.9424  12.9512  13.0872
    13.1895  13.2369  13.3033  13.4190  13.4637  13.4878  13.5025  13.5446
    13.6084  13.6788  13.7356  13.8245  13.8554  13.9218  14.0105  14.0616
    14.1458  14.2092  14.2519  14.3411  14.3614  14.4531  14.5450  14.5590
    14.6298  14.6690  14.7833  14.9111  14.9229  15.0326  15.0564  15.0801
    15.1312  15.2043  15.2350  15.2903  15.3319  15.3645  15.4171  15.4609
    15.4812  15.5633  15.6275  15.6771  15.7249  15.7638  15.7972  15.8480
    15.9056  15.9464  16.0798  16.1412  16.1747  16.2751  16.2963  16.3780
    16.4184  16.5425  16.6066  16.6987  16.7390  16.8057  16.8519  16.8905
    16.9318  16.9993  17.1689  17.2021  17.2703  17.3176  17.3890  17.4313
    17.5588  17.5884  17.6936  17.8073  17.8474  17.9099  17.9673  18.2017
    18.2708  18.3733  18.4327  18.4803  18.5428  18.6206

          k =-0.5000-0.4516 0.0000 ( 29868 PWs)   bands (ev):

   -59.8738 -59.8681 -59.6493 -59.2635 -58.9987 -58.9906 -58.6694 -58.6584
   -36.2429 -36.2382 -36.1058 -36.0994 -36.0473 -36.0417 -36.0032 -35.8952
   -35.8258 -35.6036 -35.5470 -35.4658 -35.4092 -35.3998 -35.2965 -35.2958
   -35.1629 -35.1522 -35.0025 -34.9957 -34.9598 -34.9452 -34.8963 -34.8867
   -21.2281 -21.1269 -20.4353 -20.4132 -19.6802 -19.6709 -19.5051 -19.2823
   -19.2692 -19.2415 -19.2244 -19.2134 -19.1865 -19.1522 -19.1304 -18.5318
   -18.5256 -18.2791 -18.2677  -9.0581  -8.9387  -8.3411  -7.4835  -7.3055
    -7.2634  -7.1411  -6.8191  -6.7031  -6.6239  -6.5806  -6.5555  -6.4435
    -6.4296  -6.3473  -6.3257  -6.2005  -6.1487  -6.0754  -5.9703  -5.9461
    -5.8532  -5.8217  -5.7878  -5.6650  -5.5460  -5.4078  -5.3409  -5.1757
    -5.0511  -5.0270  -4.9868  -4.9793  -4.9210  -4.7605  -4.7259  -4.6622
    -4.5845  -4.5160  -4.5063  -4.3499  -4.2862  -4.1892  -4.0515  -3.9880
    -3.9488  -3.6989  -3.4738  -3.4297  -3.3473  -3.2693  -3.1436  -3.0861
    -2.9814  -2.9411  -2.5586  -2.5422  -0.4650  -0.3897  -0.3710  -0.2332
    -0.1013   0.1315   0.2431   0.3070   0.4664   0.5152   0.6580   0.7289
     0.7434   0.9060   1.0223   1.0491   1.1575   1.1643   1.2211   1.3962
     1.4992   1.5141   1.7263   1.7338   1.8042   2.2978   2.3528   2.4157
     2.4359   2.5871   2.7608   2.8721   3.5553   3.5796   3.6702   3.7940
     4.0301   4.0443   4.2783   4.4101   4.4355   4.5885   4.5950   5.1309
     5.1324   5.3397   5.4585   5.5128   5.5376   5.6020   5.7199   5.8146
     5.9583   6.0706   6.2177   6.3137   6.4805   6.6295   6.8381   6.9602
     7.1495   7.3713   7.4857   7.6807   7.6984   7.8354   8.0131   8.1190
     8.2657   8.4483   8.6740   8.8411   8.9247   9.0855   9.3665   9.4294
     9.5214   9.6472   9.8711  10.2134  10.2668  10.3374  10.3946  10.6249
    10.6368  10.6695  10.7238  11.1574  11.2388  11.4923  11.5003  11.5295
    11.6227  11.6827  11.8005  11.8500  12.0394  12.1342  12.1907  12.3064
    12.3351  12.4095  12.4512  12.4707  12.5232  12.5438  12.5876  12.6277
    12.6611  12.6644  12.7208  12.7499  12.8273  12.8595  12.9142  13.0416
    13.0495  13.0926  13.1445  13.2880  13.3410  13.3654  13.4344  13.4864
    13.5178  13.5396  13.6307  13.6871  13.7362  13.8198  13.8394  13.8687
    13.8829  13.9467  14.0191  14.0356  14.0839  14.1376  14.2275  14.2556
    14.3215  14.3446  14.3552  14.3988  14.4368  14.4934  14.5326  14.5764
    14.6260  14.7394  14.8252  14.8800  14.9207  14.9584  14.9820  15.0784
    15.0955  15.1601  15.1972  15.2145  15.3707  15.5288  15.6086  15.6837
    15.7123  15.7602  15.8115  15.8423  15.9712  16.0121  16.0787  16.0938
    16.1444  16.2613  16.4259  16.4899  16.5059  16.5614  16.6174  16.7716
    16.7972  16.9518  17.0489  17.1072  17.1429  17.1925  17.2875  17.3205
    17.4237  17.4794  17.5368  17.5765  17.6326  17.8238  17.9020  18.0054
    18.0457  18.1225  18.1400  18.2223  18.2350  18.3366

          k =-0.2500 0.2258 0.0000 ( 29912 PWs)   bands (ev):

   -59.8851 -59.8568 -59.6496 -59.2632 -59.0095 -58.9798 -58.6795 -58.6483
   -36.3862 -36.1539 -36.0976 -36.0572 -36.0416 -36.0333 -36.0046 -35.9265
   -35.8290 -35.5976 -35.5618 -35.5188 -35.4653 -35.3309 -35.2575 -35.2448
   -35.1730 -35.1655 -35.1276 -34.9653 -34.9478 -34.9383 -34.8711 -34.8063
   -21.3317 -21.0944 -20.4279 -20.3982 -20.0008 -19.6763 -19.4919 -19.4394
   -19.3735 -19.2863 -19.2115 -19.0538 -19.0163 -18.9896 -18.9692 -18.6973
   -18.4724 -18.1910 -18.1709  -9.1565  -8.8727  -8.3371  -7.7668  -7.5761
    -7.3930  -7.2267  -7.1408  -7.0184  -6.8306  -6.6715  -6.6405  -6.6189
    -6.5503  -6.4215  -6.3722  -6.2824  -6.2100  -6.0946  -6.0588  -5.9332
    -5.8890  -5.7194  -5.5837  -5.4528  -5.3223  -5.2233  -5.1354  -5.0423
    -4.9988  -4.9349  -4.8061  -4.7562  -4.6795  -4.6624  -4.5685  -4.5065
    -4.4281  -4.3675  -4.2868  -4.1996  -4.1532  -4.0592  -3.9686  -3.8563
    -3.7628  -3.6718  -3.5691  -3.5295  -3.4080  -3.2757  -3.2031  -3.1655
    -3.0151  -2.7826  -2.6790  -2.4624  -0.5130  -0.4399  -0.3858  -0.2155
    -0.0174   0.0423   0.1618   0.2323   0.3019   0.4273   0.5548   0.5776
     0.7217   0.7869   0.8436   0.9256   1.0791   1.1433   1.2560   1.3349
     1.4340   1.5838   1.6084   1.7242   1.8850   2.2768   2.3687   2.5381
     2.5690   2.8236   2.9025   3.2354   3.3371   3.4045   3.6346   3.6470
     3.8553   3.8960   3.9907   4.1093   4.1862   4.4865   4.5190   4.6569
     5.0334   5.2637   5.2794   5.5618   5.8352   5.8655   6.0902   6.1997
     6.3226   6.4469   6.5416   6.8530   6.9648   7.2960   7.3756   7.4801
     7.6383   7.8291   7.8981   8.0194   8.0951   8.1590   8.2216   8.3884
     8.5377   8.5990   8.7827   8.8628   8.9560   9.1676   9.2588   9.3198
     9.4350   9.5633   9.6132   9.6305   9.8238   9.9242  10.0477  10.0840
    10.1875  10.2818  10.3937  10.5146  10.6241  10.6777  10.7840  10.8243
    10.9910  11.0136  11.0643  11.1575  11.3186  11.3445  11.4219  11.5084
    11.5180  11.6027  11.6977  11.7850  11.8732  12.0118  12.0344  12.1009
    12.1794  12.2339  12.2626  12.3819  12.4322  12.4869  12.5610  12.6486
    12.7650  12.8565  12.9086  12.9241  13.0274  13.0399  13.1073  13.1901
    13.3876  13.4173  13.5587  13.6453  13.6851  13.7428  13.8857  13.9042
    13.9581  14.0164  14.1795  14.2316  14.2525  14.3056  14.4898  14.5364
    14.5674  14.6086  14.6814  14.7233  14.7815  14.9177  15.0165  15.0261
    15.1096  15.2371  15.2968  15.3466  15.3830  15.4528  15.5337  15.6085
    15.6760  15.6840  15.8091  15.8624  15.9166  15.9834  16.0659  16.1217
    16.2346  16.3049  16.3809  16.4123  16.4548  16.5077  16.6340  16.7187
    16.7705  16.8031  16.8324  16.8746  16.9905  17.0597  17.0959  17.1654
    17.2343  17.3484  17.3664  17.4180  17.5003  17.5282  17.6583  17.7826
    17.8410  17.9097  17.9648  17.9861  18.1239  18.1355  18.2594  18.3020
    18.4171  18.4611  18.4919  18.5728  18.6295  18.7230

     the Fermi energy is    -2.5745 ev

!    total energy              =   -1568.33288812 Ry
     Harris-Foulkes estimate   =   -1568.33288812 Ry
     estimated scf accuracy    <          4.0E-09 Ry

     The total energy is the sum of the following terms:

     one-electron contribution =  -18638.05234095 Ry
     hartree contribution      =    9339.35813714 Ry
     xc contribution           =    -277.61142162 Ry
     ewald contribution        =    8007.97266033 Ry
     smearing contrib. (-TS)   =       0.00007699 Ry

     total magnetization       =     1.02 Bohr mag/cell
     absolute magnetization    =     1.26 Bohr mag/cell

     convergence has been achieved in   9 iterations

     Forces acting on atoms (Ry/au):


     negative rho (up, down):  0.513E-01 0.509E-01
     atom    1 type  1   force =    -0.00081952   -0.01093205    0.00007899
     atom    2 type  1   force =     0.00005377    0.01493548    0.00006045
     atom    3 type  2   force =     0.06123151   -0.01238241   -0.00028473
     atom    4 type  2   force =    -0.00317970    0.00639642    0.00059671
     atom    5 type  1   force =    -0.00351977   -0.06480328    0.00006817
     atom    6 type  1   force =    -0.00373078    0.06768675   -0.00002004
     atom    7 type  1   force =     0.00149330    0.00185300    0.00063532
     atom    8 type  1   force =     0.00253106   -0.00171919    0.00010816
     atom    9 type  2   force =     0.00007209   -0.00002405   -0.00026440
     atom   10 type  2   force =    -0.00451962   -0.00010814    0.00030834
     atom   11 type  1   force =    -0.01796858   -0.02383730   -0.00078453
     atom   12 type  1   force =    -0.01822947    0.02368766   -0.00077316
     atom   13 type  1   force =     0.00123056    0.00007366   -0.00031739
     atom   14 type  1   force =    -0.00114799   -0.01017367   -0.00006262
     atom   15 type  1   force =    -0.00001192    0.01138274   -0.00017274
     atom   16 type  2   force =    -0.06125690   -0.01272140   -0.00023570
     atom   17 type  2   force =    -0.00290211    0.00564665    0.00091511
     atom   18 type  1   force =     0.00556558   -0.06392287    0.00019046
     atom   19 type  1   force =     0.00620927    0.06817483   -0.00007000
     atom   20 type  1   force =    -0.00072233    0.00101399   -0.00068688
     atom   21 type  1   force =     0.00111124   -0.00151109    0.00008379
     atom   22 type  2   force =    -0.00088979    0.00002268   -0.00010949
     atom   23 type  2   force =    -0.00149992    0.00010033   -0.00048039
     atom   24 type  1   force =     0.02028336   -0.02221019    0.00000742
     atom   25 type  1   force =     0.02021029    0.02213150    0.00001374
     atom   26 type  1   force =    -0.00064945    0.00004148   -0.00040713
     atom   27 type  3   force =    -0.00005011    0.00027563    0.00046398
     atom   28 type  3   force =     0.00003051    0.00026777    0.00025287
     atom   29 type  3   force =    -0.00005264    0.00030384    0.00020421
     atom   30 type  3   force =     0.00005972    0.00037289    0.00030072
     atom   31 type  1   force =     0.00020444    0.00000035   -0.00017485
     atom   32 type  3   force =     0.00086389   -0.00002201    0.00055560

     Total force =     0.002476     Total SCF correction =     0.000085

     bfgs converged in  30 scf cycles and  28 bfgs steps
     (criteria: energy < 0.10E-03, force < 0.10E-02)

     End of BFGS Geometry Optimization

     Final energy   =   -1568.3328881189 Ry
Begin final coordinates

ATOMIC_POSITIONS (crystal)
O0       0.000000000   0.000000000   0.376926990    0   0   1
O0       0.000000000   0.500000000   0.396508754    0   0   1
Ti1      0.250000000   0.500000000   0.448687492    0   0   1
Ti1      0.000000000   0.000000000   0.454267785    0   0   1
O0       0.250000000   0.810000000   0.448018497    0   0   1
O0       0.250000000   0.190000000   0.449078314    0   0   1
O0       0.000000000   0.500000000   0.496124032    0   0   1
O0       0.000000000   0.000000000   0.525414575    0   0   1
Ti1      0.250000000   0.000000000   0.581609634    0   0   1
Ti1      0.000000000   0.500000000   0.566502804    0   0   1
O0       0.250000000   0.690000000   0.579593906    0   0   1
O0       0.250000000   0.310000000   0.579567514    0   0   1
O0       0.000000000   0.000000000   0.622358446    0   0   1
O0       0.500000000   0.000000000   0.377136906    0   0   1
O0       0.500000000   0.500000000   0.395834956    0   0   1
Ti1      0.750000000   0.500000000   0.448804800    0   0   1
Ti1      0.500000000   0.000000000   0.454890816    0   0   1
O0       0.750000000   0.810000000   0.447927012    0   0   1
O0       0.750000000   0.190000000   0.449134944    0   0   1
O0       0.500000000   0.500000000   0.491079191    0   0   1
O0       0.500000000   0.000000000   0.525563099    0   0   1
Ti1      0.750000000   0.000000000   0.581676456    0   0   1
Ti1      0.500000000   0.500000000   0.593841129    0   0   1
O0       0.750000000   0.690000000   0.578990390    0   0   1
O0       0.750000000   0.310000000   0.578932045    0   0   1
O0       0.500000000   0.000000000   0.622357482    0   0   1
H2      -0.000772505   0.622298679   0.374910936
H2       0.499333348   0.618761317   0.373160061
H2       0.149647016   0.039345252   0.363767858
H2       0.649507149   0.039352881   0.363895234
O0       0.504786272   0.499890238   0.661280560
H2       0.376605207   0.499510462   0.684407383
End final coordinates



     init_run     :     88.16s CPU    116.96s WALL (       1 calls)
     electrons    : 116384.27s CPU 153439.33s WALL (      30 calls)
     update_pot   :    181.10s CPU    217.15s WALL (      29 calls)
     forces       :   1566.72s CPU   1649.62s WALL (      30 calls)

     Called by init_run:
     wfcinit      :     69.88s CPU     97.13s WALL (       1 calls)
     potinit      :      2.86s CPU      3.91s WALL (       1 calls)

     Called by electrons:
     c_bands      :  92194.83s CPU 121479.30s WALL (     433 calls)
     sum_band     :  17401.53s CPU  24080.37s WALL (     433 calls)
     v_of_rho     :    475.02s CPU    767.29s WALL (     450 calls)
     newd         :   6502.55s CPU   6996.30s WALL (     450 calls)
     mix_rho      :     87.36s CPU    149.38s WALL (     433 calls)

     Called by c_bands:
     init_us_2    :    149.64s CPU    151.13s WALL (   17940 calls)
     cegterg      :  91630.85s CPU 120911.13s WALL (    8660 calls)

     Called by *egterg:
     h_psi        :  49053.13s CPU  75212.07s WALL (   27430 calls)
     s_psi        :   3469.23s CPU   3471.86s WALL (   27430 calls)
     g_psi        :     76.78s CPU     76.84s WALL (   18750 calls)
     cdiaghg      :  21714.21s CPU  22355.28s WALL (   26570 calls)

     Called by h_psi:
     add_vuspsi   :   3496.34s CPU   3512.32s WALL (   27430 calls)

     General routines
     calbec       :   5602.00s CPU   6177.41s WALL (   36690 calls)
     fft          :   1008.81s CPU   1876.04s WALL (   14324 calls)
     ffts         :     14.50s CPU     27.14s WALL (    1766 calls)
     fftw         :  45167.72s CPU  76899.84s WALL (14318770 calls)
     interpolate  :    102.82s CPU    185.57s WALL (    1766 calls)

     Parallel routines
     fft_scatter  :  33248.17s CPU  65653.80s WALL (14334860 calls)

     PWSCF        :     1d    8h56m CPU        1d   19h17m WALL


   This run was terminated on:   5:20:49   3Apr2014            

=------------------------------------------------------------------------------=
   JOB DONE.
=------------------------------------------------------------------------------=
