
     Program PWSCF v.5.0.2 (svn rev. 9656) starts on 14Feb2014 at 21:35:26 

     This program is part of the open-source Quantum ESPRESSO suite
     for quantum simulation of materials; please cite
         "P. Giannozzi et al., J. Phys.:Condens. Matter 21 395502 (2009);
          URL http://www.quantum-espresso.org", 
     in publications or presentations arising from this work. More details at
     http://www.quantum-espresso.org/quote.php

     Parallel version (MPI), running on    16 processors
     R & G space division:  proc/nbgrp/npool/nimage =      16

     Current dimensions of program PWSCF are:
     Max number of different atomic species (ntypx) = 10
     Max number of k-points (npk) =  40000
     Max angular momentum in pseudopotentials (lmaxx) =  3
     Reading input from alpha_0.15/alpha_0.15.in
Warning: card &IONS ignored
Warning: card / ignored
Warning: card &CELL ignored
Warning: card / ignored

     Subspace diagonalization in iterative solution of the eigenvalue problem:
     a serial algorithm will be used


     Parallelization info
     --------------------
     sticks:   dense  smooth     PW     G-vecs:    dense   smooth      PW
     Min         674     216     60                34388     6218     932
     Max         675     217     61                34391     6245     935
     Sum       10797    3457    973               550249    99667   14947



     bravais-lattice index     =            0
     lattice parameter (alat)  =      16.4784  a.u.
     unit-cell volume          =    2914.5930 (a.u.)^3
     number of atoms/cell      =           48
     number of atomic types    =            3
     number of electrons       =       432.00
     number of Kohn-Sham states=          624
     kinetic-energy cutoff     =      40.0000  Ry
     charge density cutoff     =     500.0000  Ry
     convergence threshold     =      1.0E-06
     mixing beta               =       0.7000
     number of iterations used =            8  plain     mixing
     Exchange-correlation      = SLA  PW   PBE  PBE ( 1 4 3 4 0)
     EXX-fraction              =        0.00

     celldm(1)=  16.478412  celldm(2)=   0.000000  celldm(3)=   0.000000
     celldm(4)=   0.000000  celldm(5)=   0.000000  celldm(6)=   0.000000

     crystal axes: (cart. coord. in units of alat)
               a(1) = (   1.000000   0.000000   0.000000 )  
               a(2) = (   0.000000   1.000000   0.000000 )  
               a(3) = (   0.000000   0.000000   0.651376 )  

     reciprocal axes: (cart. coord. in units 2 pi/alat)
               b(1) = (  1.000000  0.000000  0.000000 )  
               b(2) = (  0.000000  1.000000  0.000000 )  
               b(3) = (  0.000000  0.000000  1.535211 )  


     PseudoPot. # 1 for Mn read from file:
     /home/camp/zhonxu/pseudo/mn_pbe_v1.uspp.F.UPF
     MD5 check sum: 5fd7c7b5c956fd19902447332617373a
     Pseudo is Ultrasoft + core correction, Zval = 15.0
     Generated by new atomic code, or converted to UPF format
     Using radial grid of  859 points,  6 beta functions with: 
                l(1) =   0
                l(2) =   0
                l(3) =   1
                l(4) =   1
                l(5) =   2
                l(6) =   2
     Q(r) pseudized with  6 coefficients,  rinner =    1.150   1.150   1.150
                                                       1.150   1.150

     PseudoPot. # 2 for O  read from file:
     /home/camp/zhonxu/pseudo/o_pbe_v1.01.uspp.F.UPF
     MD5 check sum: 2bcb18d16ea4b960afae9ec6d52f22d2
     Pseudo is Ultrasoft + core correction, Zval =  6.0
     Generated by new atomic code, or converted to UPF format
     Using radial grid of  737 points,  5 beta functions with: 
                l(1) =   0
                l(2) =   0
                l(3) =   1
                l(4) =   1
                l(5) =   2
     Q(r) pseudized with  8 coefficients,  rinner =    0.900   0.900   0.900
                                                       0.900   0.900

     PseudoPot. # 3 for O  read from file:
     /home/camp/zhonxu/pseudo/o_pbe_v1.01.uspp.F.UPF
     MD5 check sum: 2bcb18d16ea4b960afae9ec6d52f22d2
     Pseudo is Ultrasoft + core correction, Zval =  6.0
     Generated by new atomic code, or converted to UPF format
     Using radial grid of  737 points,  5 beta functions with: 
                l(1) =   0
                l(2) =   0
                l(3) =   1
                l(4) =   1
                l(5) =   2
     Q(r) pseudized with  8 coefficients,  rinner =    0.900   0.900   0.900
                                                       0.900   0.900

     atomic species   valence    mass     pseudopotential
        Mn0           15.00    54.93800     Mn( 1.00)
        O1             6.00    15.99940     O ( 1.00)
        O2             6.00    15.99940     O ( 1.00)

     Starting magnetic structure 
     atomic species   magnetization
        Mn0          0.600
        O1           0.000
        O2           0.000


     Simplified LDA+U calculation (l_max = 2) with parameters (eV):
     atomic species    L          U    alpha       J0     beta
        Mn0            2     0.0000   0.0000   0.0000   0.0000
        O1             1     0.0000   0.1500   0.0000   0.0000
        O2             1     0.0000   0.0000   0.0000   0.0000



      4 Sym. Ops. (no inversion) found



   Cartesian axes

     site n.     atom                  positions (alat units)
         1           Mn0 tau(   1) = (  -0.1500000  -0.1500000   0.0000000  )
         2           Mn0 tau(   2) = (   0.1000000   0.1000000   0.1628440  )
         3           Mn0 tau(   3) = (  -0.1500000  -0.1500000   0.3256881  )
         4           Mn0 tau(   4) = (   0.1000000   0.1000000   0.4885321  )
         5           Mn0 tau(   5) = (  -0.1500000   0.3500000   0.0000000  )
         6           Mn0 tau(   6) = (   0.1000000   0.6000000   0.1628440  )
         7           Mn0 tau(   7) = (  -0.1500000   0.3500000   0.3256881  )
         8           Mn0 tau(   8) = (   0.1000000   0.6000000   0.4885321  )
         9           Mn0 tau(   9) = (   0.3500000  -0.1500000   0.0000000  )
        10           Mn0 tau(  10) = (   0.6000000   0.1000000   0.1628440  )
        11           Mn0 tau(  11) = (   0.3500000  -0.1500000   0.3256881  )
        12           Mn0 tau(  12) = (   0.6000000   0.1000000   0.4885321  )
        13           Mn0 tau(  13) = (   0.3500000   0.3500000   0.0000000  )
        14           Mn0 tau(  14) = (   0.6000000   0.6000000   0.1628440  )
        15           Mn0 tau(  15) = (   0.3500000   0.3500000   0.3256881  )
        16           Mn0 tau(  16) = (   0.6000000   0.6000000   0.4885321  )
        17           O1  tau(  17) = (   0.0000000   0.0000000   0.0000000  )
        18           O2  tau(  18) = (  -0.3000000  -0.3000000   0.0000000  )
        19           O2  tau(  19) = (   0.2500000  -0.0500000   0.1628440  )
        20           O2  tau(  20) = (  -0.0500000   0.2500000   0.1628440  )
        21           O2  tau(  21) = (   0.0000000   0.0000000   0.3256881  )
        22           O2  tau(  22) = (  -0.3000000  -0.3000000   0.3256881  )
        23           O2  tau(  23) = (   0.2500000  -0.0500000   0.4885321  )
        24           O2  tau(  24) = (  -0.0500000   0.2500000   0.4885321  )
        25           O2  tau(  25) = (   0.0000000   0.5000000   0.0000000  )
        26           O2  tau(  26) = (  -0.3000000   0.2000000   0.0000000  )
        27           O2  tau(  27) = (   0.2500000   0.4500000   0.1628440  )
        28           O2  tau(  28) = (  -0.0500000   0.7500000   0.1628440  )
        29           O2  tau(  29) = (   0.0000000   0.5000000   0.3256881  )
        30           O2  tau(  30) = (  -0.3000000   0.2000000   0.3256881  )
        31           O2  tau(  31) = (   0.2500000   0.4500000   0.4885321  )
        32           O2  tau(  32) = (  -0.0500000   0.7500000   0.4885321  )
        33           O2  tau(  33) = (   0.5000000   0.0000000   0.0000000  )
        34           O2  tau(  34) = (   0.2000000  -0.3000000   0.0000000  )
        35           O2  tau(  35) = (   0.7500000  -0.0500000   0.1628440  )
        36           O2  tau(  36) = (   0.4500000   0.2500000   0.1628440  )
        37           O2  tau(  37) = (   0.5000000   0.0000000   0.3256881  )
        38           O2  tau(  38) = (   0.2000000  -0.3000000   0.3256881  )
        39           O2  tau(  39) = (   0.7500000  -0.0500000   0.4885321  )
        40           O2  tau(  40) = (   0.4500000   0.2500000   0.4885321  )
        41           O2  tau(  41) = (   0.5000000   0.5000000   0.0000000  )
        42           O2  tau(  42) = (   0.2000000   0.2000000   0.0000000  )
        43           O2  tau(  43) = (   0.7500000   0.4500000   0.1628440  )
        44           O2  tau(  44) = (   0.4500000   0.7500000   0.1628440  )
        45           O2  tau(  45) = (   0.5000000   0.5000000   0.3256881  )
        46           O2  tau(  46) = (   0.2000000   0.2000000   0.3256881  )
        47           O2  tau(  47) = (   0.7500000   0.4500000   0.4885321  )
        48           O2  tau(  48) = (   0.4500000   0.7500000   0.4885321  )

     number of k points=    42  Methfessel-Paxton smearing, width (Ry)=  0.0100
                       cart. coord. in units 2pi/alat
        k(    1) = (   0.0000000   0.0000000   0.0000000), wk =   0.0156250
        k(    2) = (   0.0000000   0.0000000   0.3838028), wk =   0.0312500
        k(    3) = (   0.0000000   0.0000000  -0.7676056), wk =   0.0156250
        k(    4) = (   0.0000000   0.2500000   0.0000000), wk =   0.0625000
        k(    5) = (   0.0000000   0.2500000   0.3838028), wk =   0.1250000
        k(    6) = (   0.0000000   0.2500000  -0.7676056), wk =   0.0625000
        k(    7) = (   0.0000000  -0.5000000   0.0000000), wk =   0.0312500
        k(    8) = (   0.0000000  -0.5000000   0.3838028), wk =   0.0625000
        k(    9) = (   0.0000000  -0.5000000  -0.7676056), wk =   0.0312500
        k(   10) = (   0.2500000   0.2500000   0.0000000), wk =   0.0312500
        k(   11) = (   0.2500000   0.2500000   0.3838028), wk =   0.0625000
        k(   12) = (   0.2500000   0.2500000  -0.7676056), wk =   0.0312500
        k(   13) = (   0.2500000  -0.5000000   0.0000000), wk =   0.0625000
        k(   14) = (   0.2500000  -0.5000000   0.3838028), wk =   0.1250000
        k(   15) = (   0.2500000  -0.5000000  -0.7676056), wk =   0.0625000
        k(   16) = (  -0.5000000  -0.5000000   0.0000000), wk =   0.0156250
        k(   17) = (  -0.5000000  -0.5000000   0.3838028), wk =   0.0312500
        k(   18) = (  -0.5000000  -0.5000000  -0.7676056), wk =   0.0156250
        k(   19) = (   0.2500000  -0.2500000   0.0000000), wk =   0.0312500
        k(   20) = (   0.2500000  -0.2500000   0.3838028), wk =   0.0625000
        k(   21) = (   0.2500000  -0.2500000  -0.7676056), wk =   0.0312500
        k(   22) = (   0.0000000   0.0000000   0.0000000), wk =   0.0156250
        k(   23) = (   0.0000000   0.0000000   0.3838028), wk =   0.0312500
        k(   24) = (   0.0000000   0.0000000  -0.7676056), wk =   0.0156250
        k(   25) = (   0.0000000   0.2500000   0.0000000), wk =   0.0625000
        k(   26) = (   0.0000000   0.2500000   0.3838028), wk =   0.1250000
        k(   27) = (   0.0000000   0.2500000  -0.7676056), wk =   0.0625000
        k(   28) = (   0.0000000  -0.5000000   0.0000000), wk =   0.0312500
        k(   29) = (   0.0000000  -0.5000000   0.3838028), wk =   0.0625000
        k(   30) = (   0.0000000  -0.5000000  -0.7676056), wk =   0.0312500
        k(   31) = (   0.2500000   0.2500000   0.0000000), wk =   0.0312500
        k(   32) = (   0.2500000   0.2500000   0.3838028), wk =   0.0625000
        k(   33) = (   0.2500000   0.2500000  -0.7676056), wk =   0.0312500
        k(   34) = (   0.2500000  -0.5000000   0.0000000), wk =   0.0625000
        k(   35) = (   0.2500000  -0.5000000   0.3838028), wk =   0.1250000
        k(   36) = (   0.2500000  -0.5000000  -0.7676056), wk =   0.0625000
        k(   37) = (  -0.5000000  -0.5000000   0.0000000), wk =   0.0156250
        k(   38) = (  -0.5000000  -0.5000000   0.3838028), wk =   0.0312500
        k(   39) = (  -0.5000000  -0.5000000  -0.7676056), wk =   0.0156250
        k(   40) = (   0.2500000  -0.2500000   0.0000000), wk =   0.0312500
        k(   41) = (   0.2500000  -0.2500000   0.3838028), wk =   0.0625000
        k(   42) = (   0.2500000  -0.2500000  -0.7676056), wk =   0.0312500

     Dense  grid:   550249 G-vectors     FFT dimensions: ( 120, 120,  80)

     Smooth grid:    99667 G-vectors     FFT dimensions: (  72,  72,  45)

     Largest allocated arrays     est. size (Mb)     dimensions
        Kohn-Sham Wavefunctions         7.48 Mb     (    786,  624)
        Atomic wavefunctions            4.03 Mb     (    786,  336)
        NL pseudopotentials             8.44 Mb     (    786,  704)
        Each V/rho on FFT grid          2.20 Mb     (  72000,   2)
        Each G-vector array             0.26 Mb     (  34390)
        G-vector shells                 0.10 Mb     (  12759)
     Largest temporary arrays     est. size (Mb)     dimensions
        Auxiliary wavefunctions        29.94 Mb     (    786, 2496)
        Each subspace H/S matrix       95.06 Mb     (2496,2496)
        Each <psi_i|beta_j> matrix      6.70 Mb     (    704,  624)
        Arrays for rho mixing           8.79 Mb     (  72000,   8)

     Check: negative/imaginary core charge=   -0.000063    0.000000

     The initial density is read from file :
     alpha_0.15/pwscf.save/charge-density.dat

     Number of +U iterations with fixed ns =  0
     Starting occupations:
 --- enter write_ns ---
 LDA+U parameters:
U( 1)     =  0.00000000
alpha( 1) =  0.00000000
U( 2)     =  0.00000000
alpha( 2) =  0.15000000
U( 3)     =  0.00000000
alpha( 3) =  0.00000000
atom    1   Tr[ns(na)] (up, down, total) =   4.10537  1.45235  5.55772
   spin  1
    eigenvalues: 
  0.554  0.571  0.986  0.988  1.006
    eigenvectors:
  0.000  0.247  0.753  0.000  0.000
  0.500  0.000  0.000  0.500  0.000
  0.500  0.000  0.000  0.500  0.000
  0.000  0.000  0.000  0.000  1.000
  0.000  0.753  0.247  0.000  0.000
    occupations:
  0.884 -0.000 -0.000 -0.000  0.179
 -0.000  0.771  0.217  0.000  0.000
 -0.000  0.217  0.771  0.000  0.000
 -0.000  0.000  0.000  1.006 -0.000
  0.179  0.000  0.000 -0.000  0.674
   spin  2
    eigenvalues: 
  0.152  0.225  0.248  0.406  0.422
    eigenvectors:
  0.730  0.000  0.000  0.270  0.000
  0.000  0.500  0.000  0.000  0.500
  0.000  0.500  0.000  0.000  0.500
  0.000  0.000  1.000  0.000  0.000
  0.270  0.000  0.000  0.730  0.000
    occupations:
  0.220 -0.000 -0.000  0.000 -0.113
 -0.000  0.323 -0.099  0.000  0.000
 -0.000 -0.099  0.323  0.000  0.000
  0.000  0.000  0.000  0.248 -0.000
 -0.113  0.000  0.000 -0.000  0.337
atomic mag. moment =     2.653022
atom    2   Tr[ns(na)] (up, down, total) =   4.10537  1.45234  5.55772
   spin  1
    eigenvalues: 
  0.554  0.571  0.986  0.988  1.006
    eigenvectors:
  0.000  0.247  0.753  0.000  0.000
  0.500  0.000  0.000  0.500  0.000
  0.500  0.000  0.000  0.500  0.000
  0.000  0.000  0.000  0.000  1.000
  0.000  0.753  0.247  0.000  0.000
    occupations:
  0.884 -0.000 -0.000  0.000 -0.179
 -0.000  0.771 -0.217  0.000 -0.000
 -0.000 -0.217  0.771 -0.000 -0.000
  0.000  0.000 -0.000  1.006 -0.000
 -0.179 -0.000 -0.000 -0.000  0.674
   spin  2
    eigenvalues: 
  0.152  0.225  0.248  0.406  0.422
    eigenvectors:
  0.730  0.000  0.000  0.270  0.000
  0.000  0.500  0.000  0.000  0.500
  0.000  0.500  0.000  0.000  0.500
  0.000  0.000  1.000  0.000  0.000
  0.270  0.000  0.000  0.730  0.000
    occupations:
  0.220 -0.000 -0.000 -0.000  0.113
 -0.000  0.323  0.099 -0.000 -0.000
 -0.000  0.099  0.323  0.000 -0.000
 -0.000 -0.000  0.000  0.248 -0.000
  0.113 -0.000 -0.000 -0.000  0.337
atomic mag. moment =     2.653029
atom    3   Tr[ns(na)] (up, down, total) =   4.10539  1.45238  5.55777
   spin  1
    eigenvalues: 
  0.554  0.571  0.986  0.988  1.006
    eigenvectors:
  0.000  0.247  0.753  0.000  0.000
  0.500  0.000  0.000  0.500  0.000
  0.500  0.000  0.000  0.500  0.000
  0.000  0.000  0.000  0.000  1.000
  0.000  0.753  0.247  0.000  0.000
    occupations:
  0.884 -0.000 -0.000 -0.000  0.179
 -0.000  0.771  0.217  0.000  0.000
 -0.000  0.217  0.771  0.000  0.000
 -0.000  0.000  0.000  1.006 -0.000
  0.179  0.000  0.000 -0.000  0.674
   spin  2
    eigenvalues: 
  0.152  0.225  0.248  0.406  0.422
    eigenvectors:
  0.730  0.000  0.000  0.270  0.000
  0.000  0.500  0.000  0.000  0.500
  0.000  0.500  0.000  0.000  0.500
  0.000  0.000  1.000  0.000  0.000
  0.270  0.000  0.000  0.730  0.000
    occupations:
  0.220 -0.000 -0.000  0.000 -0.113
 -0.000  0.323 -0.099  0.000  0.000
 -0.000 -0.099  0.323  0.000  0.000
  0.000  0.000  0.000  0.248 -0.000
 -0.113  0.000  0.000 -0.000  0.337
atomic mag. moment =     2.653016
atom    4   Tr[ns(na)] (up, down, total) =   4.10537  1.45234  5.55772
   spin  1
    eigenvalues: 
  0.554  0.571  0.986  0.988  1.006
    eigenvectors:
  0.000  0.247  0.753  0.000  0.000
  0.500  0.000  0.000  0.500  0.000
  0.500  0.000  0.000  0.500  0.000
  0.000  0.000  0.000  0.000  1.000
  0.000  0.753  0.247  0.000  0.000
    occupations:
  0.884  0.000  0.000  0.000 -0.179
  0.000  0.771 -0.217 -0.000  0.000
  0.000 -0.217  0.771  0.000  0.000
  0.000 -0.000  0.000  1.006 -0.000
 -0.179  0.000  0.000 -0.000  0.674
   spin  2
    eigenvalues: 
  0.152  0.225  0.248  0.406  0.422
    eigenvectors:
  0.730  0.000  0.000  0.270  0.000
  0.000  0.500  0.000  0.000  0.500
  0.000  0.500  0.000  0.000  0.500
  0.000  0.000  1.000  0.000  0.000
  0.270  0.000  0.000  0.730  0.000
    occupations:
  0.220  0.000  0.000 -0.000  0.113
  0.000  0.323  0.099  0.000  0.000
  0.000  0.099  0.323 -0.000  0.000
 -0.000  0.000 -0.000  0.248 -0.000
  0.113  0.000  0.000 -0.000  0.337
atomic mag. moment =     2.653029
atom    5   Tr[ns(na)] (up, down, total) =   4.10539  1.45236  5.55774
   spin  1
    eigenvalues: 
  0.554  0.571  0.986  0.988  1.006
    eigenvectors:
  0.000  0.247  0.753  0.000  0.000
  0.500  0.000  0.000  0.500  0.000
  0.500  0.000  0.000  0.500  0.000
  0.000  0.000  0.000  0.000  1.000
  0.000  0.753  0.247  0.000  0.000
    occupations:
  0.884 -0.000 -0.000 -0.000  0.179
 -0.000  0.771  0.217  0.000  0.000
 -0.000  0.217  0.771  0.000  0.000
 -0.000  0.000  0.000  1.006  0.000
  0.179  0.000  0.000  0.000  0.674
   spin  2
    eigenvalues: 
  0.152  0.225  0.248  0.406  0.422
    eigenvectors:
  0.730  0.000  0.000  0.270  0.000
  0.000  0.500  0.000  0.000  0.500
  0.000  0.500  0.000  0.000  0.500
  0.000  0.000  1.000  0.000  0.000
  0.270  0.000  0.000  0.730  0.000
    occupations:
  0.220 -0.000 -0.000 -0.000 -0.113
 -0.000  0.323 -0.099  0.000  0.000
 -0.000 -0.099  0.323  0.000  0.000
 -0.000  0.000  0.000  0.248  0.000
 -0.113  0.000  0.000  0.000  0.337
atomic mag. moment =     2.653031
atom    6   Tr[ns(na)] (up, down, total) =   4.10539  1.45238  5.55777
   spin  1
    eigenvalues: 
  0.554  0.571  0.986  0.988  1.006
    eigenvectors:
  0.000  0.247  0.753  0.000  0.000
  0.500  0.000  0.000  0.500  0.000
  0.500  0.000  0.000  0.500  0.000
  0.000  0.000  0.000  0.000  1.000
  0.000  0.753  0.247  0.000  0.000
    occupations:
  0.884 -0.000 -0.000  0.000 -0.179
 -0.000  0.771 -0.217  0.000 -0.000
 -0.000 -0.217  0.771  0.000 -0.000
  0.000  0.000  0.000  1.006 -0.000
 -0.179 -0.000 -0.000 -0.000  0.674
   spin  2
    eigenvalues: 
  0.152  0.225  0.248  0.406  0.422
    eigenvectors:
  0.730  0.000  0.000  0.270  0.000
  0.000  0.500  0.000  0.000  0.500
  0.000  0.500  0.000  0.000  0.500
  0.000  0.000  1.000  0.000  0.000
  0.270  0.000  0.000  0.730  0.000
    occupations:
  0.220 -0.000 -0.000 -0.000  0.113
 -0.000  0.323  0.099 -0.000 -0.000
 -0.000  0.099  0.323  0.000 -0.000
 -0.000 -0.000  0.000  0.248 -0.000
  0.113 -0.000 -0.000 -0.000  0.337
atomic mag. moment =     2.653014
atom    7   Tr[ns(na)] (up, down, total) =   4.10548  1.45249  5.55797
   spin  1
    eigenvalues: 
  0.554  0.571  0.986  0.988  1.006
    eigenvectors:
  0.000  0.247  0.753  0.000  0.000
  0.500  0.000  0.000  0.500  0.000
  0.500  0.000  0.000  0.500  0.000
  0.000  0.000  0.000  0.000  1.000
  0.000  0.753  0.247  0.000  0.000
    occupations:
  0.884 -0.000 -0.000 -0.000  0.179
 -0.000  0.771  0.217  0.000  0.000
 -0.000  0.217  0.771  0.000  0.000
 -0.000  0.000  0.000  1.006  0.000
  0.179  0.000  0.000  0.000  0.674
   spin  2
    eigenvalues: 
  0.152  0.225  0.248  0.406  0.422
    eigenvectors:
  0.730  0.000  0.000  0.270  0.000
  0.000  0.500  0.000  0.000  0.500
  0.000  0.500  0.000  0.000  0.500
  0.000  0.000  1.000  0.000  0.000
  0.270  0.000  0.000  0.730  0.000
    occupations:
  0.220 -0.000 -0.000 -0.000 -0.113
 -0.000  0.323 -0.099  0.000  0.000
 -0.000 -0.099  0.323  0.000  0.000
 -0.000  0.000  0.000  0.248 -0.000
 -0.113  0.000  0.000 -0.000  0.337
atomic mag. moment =     2.652985
atom    8   Tr[ns(na)] (up, down, total) =   4.10539  1.45238  5.55777
   spin  1
    eigenvalues: 
  0.554  0.571  0.986  0.988  1.006
    eigenvectors:
  0.000  0.247  0.753  0.000  0.000
  0.500  0.000  0.000  0.500  0.000
  0.500  0.000  0.000  0.500  0.000
  0.000  0.000  0.000  0.000  1.000
  0.000  0.753  0.247  0.000  0.000
    occupations:
  0.884  0.000  0.000  0.000 -0.179
  0.000  0.771 -0.217 -0.000  0.000
  0.000 -0.217  0.771 -0.000  0.000
  0.000 -0.000 -0.000  1.006 -0.000
 -0.179  0.000  0.000 -0.000  0.674
   spin  2
    eigenvalues: 
  0.152  0.225  0.248  0.406  0.422
    eigenvectors:
  0.730  0.000  0.000  0.270  0.000
  0.000  0.500  0.000  0.000  0.500
  0.000  0.500  0.000  0.000  0.500
  0.000  0.000  1.000  0.000  0.000
  0.270  0.000  0.000  0.730  0.000
    occupations:
  0.220  0.000  0.000 -0.000  0.113
  0.000  0.323  0.099  0.000  0.000
  0.000  0.099  0.323 -0.000  0.000
 -0.000  0.000 -0.000  0.248 -0.000
  0.113  0.000  0.000 -0.000  0.337
atomic mag. moment =     2.653014
atom    9   Tr[ns(na)] (up, down, total) =   4.10539  1.45236  5.55774
   spin  1
    eigenvalues: 
  0.554  0.571  0.986  0.988  1.006
    eigenvectors:
  0.000  0.247  0.753  0.000  0.000
  0.500  0.000  0.000  0.500  0.000
  0.500  0.000  0.000  0.500  0.000
  0.000  0.000  0.000  0.000  1.000
  0.000  0.753  0.247  0.000  0.000
    occupations:
  0.884 -0.000 -0.000  0.000  0.179
 -0.000  0.771  0.217  0.000  0.000
 -0.000  0.217  0.771  0.000  0.000
  0.000  0.000  0.000  1.006 -0.000
  0.179  0.000  0.000 -0.000  0.674
   spin  2
    eigenvalues: 
  0.152  0.225  0.248  0.406  0.422
    eigenvectors:
  0.730  0.000  0.000  0.270  0.000
  0.000  0.500  0.000  0.000  0.500
  0.000  0.500  0.000  0.000  0.500
  0.000  0.000  1.000  0.000  0.000
  0.270  0.000  0.000  0.730  0.000
    occupations:
  0.220 -0.000 -0.000  0.000 -0.113
 -0.000  0.323 -0.099  0.000  0.000
 -0.000 -0.099  0.323  0.000  0.000
  0.000  0.000  0.000  0.248 -0.000
 -0.113  0.000  0.000 -0.000  0.337
atomic mag. moment =     2.653031
atom   10   Tr[ns(na)] (up, down, total) =   4.10539  1.45238  5.55777
   spin  1
    eigenvalues: 
  0.554  0.571  0.986  0.988  1.006
    eigenvectors:
  0.000  0.247  0.753  0.000  0.000
  0.500  0.000  0.000  0.500  0.000
  0.500  0.000  0.000  0.500  0.000
  0.000  0.000  0.000  0.000  1.000
  0.000  0.753  0.247  0.000  0.000
    occupations:
  0.884 -0.000 -0.000 -0.000 -0.179
 -0.000  0.771 -0.217 -0.000 -0.000
 -0.000 -0.217  0.771 -0.000 -0.000
 -0.000 -0.000 -0.000  1.006  0.000
 -0.179 -0.000 -0.000  0.000  0.674
   spin  2
    eigenvalues: 
  0.152  0.225  0.248  0.406  0.422
    eigenvectors:
  0.730  0.000  0.000  0.270  0.000
  0.000  0.500  0.000  0.000  0.500
  0.000  0.500  0.000  0.000  0.500
  0.000  0.000  1.000  0.000  0.000
  0.270  0.000  0.000  0.730  0.000
    occupations:
  0.220 -0.000 -0.000  0.000  0.113
 -0.000  0.323  0.099 -0.000 -0.000
 -0.000  0.099  0.323  0.000 -0.000
  0.000 -0.000  0.000  0.248  0.000
  0.113 -0.000 -0.000  0.000  0.337
atomic mag. moment =     2.653014
atom   11   Tr[ns(na)] (up, down, total) =   4.10548  1.45249  5.55797
   spin  1
    eigenvalues: 
  0.554  0.571  0.986  0.988  1.006
    eigenvectors:
  0.000  0.247  0.753  0.000  0.000
  0.500  0.000  0.000  0.500  0.000
  0.500  0.000  0.000  0.500  0.000
  0.000  0.000  0.000  0.000  1.000
  0.000  0.753  0.247  0.000  0.000
    occupations:
  0.884 -0.000 -0.000  0.000  0.179
 -0.000  0.771  0.217  0.000  0.000
 -0.000  0.217  0.771  0.000  0.000
  0.000  0.000  0.000  1.006 -0.000
  0.179  0.000  0.000 -0.000  0.674
   spin  2
    eigenvalues: 
  0.152  0.225  0.248  0.406  0.422
    eigenvectors:
  0.730  0.000  0.000  0.270  0.000
  0.000  0.500  0.000  0.000  0.500
  0.000  0.500  0.000  0.000  0.500
  0.000  0.000  1.000  0.000  0.000
  0.270  0.000  0.000  0.730  0.000
    occupations:
  0.220 -0.000 -0.000  0.000 -0.113
 -0.000  0.323 -0.099  0.000  0.000
 -0.000 -0.099  0.323  0.000  0.000
  0.000  0.000  0.000  0.248  0.000
 -0.113  0.000  0.000  0.000  0.337
atomic mag. moment =     2.652985
atom   12   Tr[ns(na)] (up, down, total) =   4.10539  1.45238  5.55777
   spin  1
    eigenvalues: 
  0.554  0.571  0.986  0.988  1.006
    eigenvectors:
  0.000  0.247  0.753  0.000  0.000
  0.500  0.000  0.000  0.500  0.000
  0.500  0.000  0.000  0.500  0.000
  0.000  0.000  0.000  0.000  1.000
  0.000  0.753  0.247  0.000  0.000
    occupations:
  0.884  0.000  0.000 -0.000 -0.179
  0.000  0.771 -0.217  0.000  0.000
  0.000 -0.217  0.771  0.000  0.000
 -0.000  0.000  0.000  1.006  0.000
 -0.179  0.000  0.000  0.000  0.674
   spin  2
    eigenvalues: 
  0.152  0.225  0.248  0.406  0.422
    eigenvectors:
  0.730  0.000  0.000  0.270  0.000
  0.000  0.500  0.000  0.000  0.500
  0.000  0.500  0.000  0.000  0.500
  0.000  0.000  1.000  0.000  0.000
  0.270  0.000  0.000  0.730  0.000
    occupations:
  0.220  0.000  0.000  0.000  0.113
  0.000  0.323  0.099  0.000  0.000
  0.000  0.099  0.323 -0.000  0.000
  0.000  0.000 -0.000  0.248  0.000
  0.113  0.000  0.000  0.000  0.337
atomic mag. moment =     2.653014
atom   13   Tr[ns(na)] (up, down, total) =   4.10542  1.45242  5.55785
   spin  1
    eigenvalues: 
  0.554  0.571  0.986  0.988  1.006
    eigenvectors:
  0.000  0.247  0.753  0.000  0.000
  0.500  0.000  0.000  0.500  0.000
  0.500  0.000  0.000  0.500  0.000
  0.000  0.000  0.000  0.000  1.000
  0.000  0.753  0.247  0.000  0.000
    occupations:
  0.884 -0.000 -0.000 -0.000  0.179
 -0.000  0.771  0.217  0.000  0.000
 -0.000  0.217  0.771  0.000  0.000
 -0.000  0.000  0.000  1.006 -0.000
  0.179  0.000  0.000 -0.000  0.674
   spin  2
    eigenvalues: 
  0.152  0.225  0.248  0.406  0.422
    eigenvectors:
  0.730  0.000  0.000  0.270  0.000
  0.000  0.500  0.000  0.000  0.500
  0.000  0.500  0.000  0.000  0.500
  0.000  0.000  1.000  0.000  0.000
  0.270  0.000  0.000  0.730  0.000
    occupations:
  0.220 -0.000 -0.000  0.000 -0.113
 -0.000  0.323 -0.099  0.000  0.000
 -0.000 -0.099  0.323  0.000  0.000
  0.000  0.000  0.000  0.248 -0.000
 -0.113  0.000  0.000 -0.000  0.337
atomic mag. moment =     2.653001
atom   14   Tr[ns(na)] (up, down, total) =   4.10544  1.45245  5.55788
   spin  1
    eigenvalues: 
  0.554  0.571  0.986  0.988  1.006
    eigenvectors:
  0.000  0.247  0.753  0.000  0.000
  0.500  0.000  0.000  0.500  0.000
  0.500  0.000  0.000  0.500  0.000
  0.000  0.000  0.000  0.000  1.000
  0.000  0.753  0.247  0.000  0.000
    occupations:
  0.884  0.000  0.000  0.000 -0.179
  0.000  0.771 -0.217 -0.000  0.000
  0.000 -0.217  0.771  0.000  0.000
  0.000 -0.000  0.000  1.006 -0.000
 -0.179  0.000  0.000 -0.000  0.674
   spin  2
    eigenvalues: 
  0.152  0.225  0.248  0.406  0.422
    eigenvectors:
  0.730  0.000  0.000  0.270  0.000
  0.000  0.500  0.000  0.000  0.500
  0.000  0.500  0.000  0.000  0.500
  0.000  0.000  1.000  0.000  0.000
  0.270  0.000  0.000  0.730  0.000
    occupations:
  0.220  0.000  0.000 -0.000  0.113
  0.000  0.323  0.099  0.000  0.000
  0.000  0.099  0.323 -0.000  0.000
 -0.000  0.000 -0.000  0.248 -0.000
  0.113  0.000  0.000 -0.000  0.337
atomic mag. moment =     2.652993
atom   15   Tr[ns(na)] (up, down, total) =   4.10539  1.45238  5.55777
   spin  1
    eigenvalues: 
  0.554  0.571  0.986  0.988  1.006
    eigenvectors:
  0.000  0.247  0.753  0.000  0.000
  0.500  0.000  0.000  0.500  0.000
  0.500  0.000  0.000  0.500  0.000
  0.000  0.000  0.000  0.000  1.000
  0.000  0.753  0.247  0.000  0.000
    occupations:
  0.884 -0.000 -0.000 -0.000  0.179
 -0.000  0.771  0.217  0.000  0.000
 -0.000  0.217  0.771  0.000  0.000
 -0.000  0.000  0.000  1.006 -0.000
  0.179  0.000  0.000 -0.000  0.674
   spin  2
    eigenvalues: 
  0.152  0.225  0.248  0.406  0.422
    eigenvectors:
  0.730  0.000  0.000  0.270  0.000
  0.000  0.500  0.000  0.000  0.500
  0.000  0.500  0.000  0.000  0.500
  0.000  0.000  1.000  0.000  0.000
  0.270  0.000  0.000  0.730  0.000
    occupations:
  0.220 -0.000 -0.000  0.000 -0.113
 -0.000  0.323 -0.099  0.000  0.000
 -0.000 -0.099  0.323  0.000  0.000
  0.000  0.000  0.000  0.248 -0.000
 -0.113  0.000  0.000 -0.000  0.337
atomic mag. moment =     2.653014
atom   16   Tr[ns(na)] (up, down, total) =   4.10544  1.45245  5.55788
   spin  1
    eigenvalues: 
  0.554  0.571  0.986  0.988  1.006
    eigenvectors:
  0.000  0.247  0.753  0.000  0.000
  0.500  0.000  0.000  0.500  0.000
  0.500  0.000  0.000  0.500  0.000
  0.000  0.000  0.000  0.000  1.000
  0.000  0.753  0.247  0.000  0.000
    occupations:
  0.884 -0.000 -0.000  0.000 -0.179
 -0.000  0.771 -0.217  0.000 -0.000
 -0.000 -0.217  0.771 -0.000 -0.000
  0.000  0.000 -0.000  1.006 -0.000
 -0.179 -0.000 -0.000 -0.000  0.674
   spin  2
    eigenvalues: 
  0.152  0.225  0.248  0.406  0.422
    eigenvectors:
  0.730  0.000  0.000  0.270  0.000
  0.000  0.500  0.000  0.000  0.500
  0.000  0.500  0.000  0.000  0.500
  0.000  0.000  1.000  0.000  0.000
  0.270  0.000  0.000  0.730  0.000
    occupations:
  0.220 -0.000 -0.000 -0.000  0.113
 -0.000  0.323  0.099 -0.000 -0.000
 -0.000  0.099  0.323  0.000 -0.000
 -0.000 -0.000  0.000  0.248 -0.000
  0.113 -0.000 -0.000 -0.000  0.337
atomic mag. moment =     2.652993
atom   17   Tr[ns(na)] (up, down, total) =   2.69939  2.62424  5.32364
   spin  1
    eigenvalues: 
  0.848  0.858  0.994
    eigenvectors:
  0.000  1.000  0.000
  0.500  0.000  0.500
  0.500  0.000  0.500
    occupations:
  0.858 -0.000 -0.000
 -0.000  0.921 -0.073
 -0.000 -0.073  0.921
   spin  2
    eigenvalues: 
  0.869  0.873  0.883
    eigenvectors:
  0.000  0.000  1.000
  0.500  0.500  0.000
  0.500  0.500  0.000
    occupations:
  0.883 -0.000 -0.000
 -0.000  0.871  0.002
 -0.000  0.002  0.871
atomic mag. moment =     0.075146
atom   18   Tr[ns(na)] (up, down, total) =   2.69937  2.62421  5.32358
   spin  1
    eigenvalues: 
  0.848  0.858  0.994
    eigenvectors:
  0.000  1.000  0.000
  0.500  0.000  0.500
  0.500  0.000  0.500
    occupations:
  0.858 -0.000 -0.000
 -0.000  0.921 -0.073
 -0.000 -0.073  0.921
   spin  2
    eigenvalues: 
  0.869  0.873  0.883
    eigenvectors:
  0.000  0.000  1.000
  0.500  0.500  0.000
  0.500  0.500  0.000
    occupations:
  0.883 -0.000 -0.000
 -0.000  0.871  0.002
 -0.000  0.002  0.871
atomic mag. moment =     0.075155
atom   19   Tr[ns(na)] (up, down, total) =   2.69944  2.62430  5.32374
   spin  1
    eigenvalues: 
  0.848  0.858  0.994
    eigenvectors:
  0.000  1.000  0.000
  0.500  0.000  0.500
  0.500  0.000  0.500
    occupations:
  0.858  0.000 -0.000
  0.000  0.921  0.073
 -0.000  0.073  0.921
   spin  2
    eigenvalues: 
  0.869  0.873  0.883
    eigenvectors:
  0.000  0.000  1.000
  0.500  0.500  0.000
  0.500  0.500  0.000
    occupations:
  0.883  0.000 -0.000
  0.000  0.871 -0.002
 -0.000 -0.002  0.871
atomic mag. moment =     0.075138
atom   20   Tr[ns(na)] (up, down, total) =   2.69944  2.62430  5.32374
   spin  1
    eigenvalues: 
  0.848  0.858  0.994
    eigenvectors:
  0.000  1.000  0.000
  0.500  0.000  0.500
  0.500  0.000  0.500
    occupations:
  0.858 -0.000  0.000
 -0.000  0.921  0.073
  0.000  0.073  0.921
   spin  2
    eigenvalues: 
  0.869  0.873  0.883
    eigenvectors:
  0.000  0.000  1.000
  0.500  0.500  0.000
  0.500  0.500  0.000
    occupations:
  0.883 -0.000  0.000
 -0.000  0.871 -0.002
  0.000 -0.002  0.871
atomic mag. moment =     0.075138
atom   21   Tr[ns(na)] (up, down, total) =   2.69938  2.62423  5.32360
   spin  1
    eigenvalues: 
  0.848  0.858  0.994
    eigenvectors:
  0.000  1.000  0.000
  0.500  0.000  0.500
  0.500  0.000  0.500
    occupations:
  0.858 -0.000 -0.000
 -0.000  0.921 -0.073
 -0.000 -0.073  0.921
   spin  2
    eigenvalues: 
  0.869  0.873  0.883
    eigenvectors:
  0.000  0.000  1.000
  0.500  0.500  0.000
  0.500  0.500  0.000
    occupations:
  0.883 -0.000 -0.000
 -0.000  0.871  0.002
 -0.000  0.002  0.871
atomic mag. moment =     0.075149
atom   22   Tr[ns(na)] (up, down, total) =   2.69942  2.62428  5.32370
   spin  1
    eigenvalues: 
  0.848  0.858  0.994
    eigenvectors:
  0.000  1.000  0.000
  0.500  0.000  0.500
  0.500  0.000  0.500
    occupations:
  0.858 -0.000 -0.000
 -0.000  0.921 -0.073
 -0.000 -0.073  0.921
   spin  2
    eigenvalues: 
  0.869  0.873  0.883
    eigenvectors:
  0.000  0.000  1.000
  0.500  0.500  0.000
  0.500  0.500  0.000
    occupations:
  0.883 -0.000 -0.000
 -0.000  0.871  0.002
 -0.000  0.002  0.871
atomic mag. moment =     0.075139
atom   23   Tr[ns(na)] (up, down, total) =   2.69944  2.62430  5.32374
   spin  1
    eigenvalues: 
  0.848  0.858  0.994
    eigenvectors:
  0.000  1.000  0.000
  0.500  0.000  0.500
  0.500  0.000  0.500
    occupations:
  0.858 -0.000  0.000
 -0.000  0.921  0.073
  0.000  0.073  0.921
   spin  2
    eigenvalues: 
  0.869  0.873  0.883
    eigenvectors:
  0.000  0.000  1.000
  0.500  0.500  0.000
  0.500  0.500  0.000
    occupations:
  0.883 -0.000  0.000
 -0.000  0.871 -0.002
  0.000 -0.002  0.871
atomic mag. moment =     0.075138
atom   24   Tr[ns(na)] (up, down, total) =   2.69944  2.62430  5.32374
   spin  1
    eigenvalues: 
  0.848  0.858  0.994
    eigenvectors:
  0.000  1.000  0.000
  0.500  0.000  0.500
  0.500  0.000  0.500
    occupations:
  0.858  0.000 -0.000
  0.000  0.921  0.073
 -0.000  0.073  0.921
   spin  2
    eigenvalues: 
  0.869  0.873  0.883
    eigenvectors:
  0.000  0.000  1.000
  0.500  0.500  0.000
  0.500  0.500  0.000
    occupations:
  0.883  0.000 -0.000
  0.000  0.871 -0.002
 -0.000 -0.002  0.871
atomic mag. moment =     0.075138
atom   25   Tr[ns(na)] (up, down, total) =   2.69937  2.62421  5.32358
   spin  1
    eigenvalues: 
  0.848  0.858  0.994
    eigenvectors:
  0.000  1.000  0.000
  0.500  0.000  0.500
  0.500  0.000  0.500
    occupations:
  0.858 -0.000 -0.000
 -0.000  0.921 -0.073
 -0.000 -0.073  0.921
   spin  2
    eigenvalues: 
  0.869  0.873  0.883
    eigenvectors:
  0.000  0.000  1.000
  0.500  0.500  0.000
  0.500  0.500  0.000
    occupations:
  0.883 -0.000 -0.000
 -0.000  0.871  0.002
 -0.000  0.002  0.871
atomic mag. moment =     0.075155
atom   26   Tr[ns(na)] (up, down, total) =   2.69939  2.62425  5.32364
   spin  1
    eigenvalues: 
  0.848  0.858  0.994
    eigenvectors:
  0.000  1.000  0.000
  0.500  0.000  0.500
  0.500  0.000  0.500
    occupations:
  0.858 -0.000 -0.000
 -0.000  0.921 -0.073
 -0.000 -0.073  0.921
   spin  2
    eigenvalues: 
  0.869  0.873  0.883
    eigenvectors:
  0.000  0.000  1.000
  0.500  0.500  0.000
  0.500  0.500  0.000
    occupations:
  0.883 -0.000 -0.000
 -0.000  0.871  0.002
 -0.000  0.002  0.871
atomic mag. moment =     0.075144
atom   27   Tr[ns(na)] (up, down, total) =   2.69938  2.62423  5.32361
   spin  1
    eigenvalues: 
  0.848  0.858  0.994
    eigenvectors:
  0.000  1.000  0.000
  0.500  0.000  0.500
  0.500  0.000  0.500
    occupations:
  0.858 -0.000  0.000
 -0.000  0.921  0.073
  0.000  0.073  0.921
   spin  2
    eigenvalues: 
  0.869  0.873  0.883
    eigenvectors:
  0.000  0.000  1.000
  0.500  0.500  0.000
  0.500  0.500  0.000
    occupations:
  0.883 -0.000  0.000
 -0.000  0.871 -0.002
  0.000 -0.002  0.871
atomic mag. moment =     0.075150
atom   28   Tr[ns(na)] (up, down, total) =   2.69936  2.62421  5.32357
   spin  1
    eigenvalues: 
  0.848  0.858  0.994
    eigenvectors:
  0.000  1.000  0.000
  0.500  0.000  0.500
  0.500  0.000  0.500
    occupations:
  0.858 -0.000  0.000
 -0.000  0.921  0.073
  0.000  0.073  0.921
   spin  2
    eigenvalues: 
  0.869  0.873  0.883
    eigenvectors:
  0.000  0.000  1.000
  0.500  0.500  0.000
  0.500  0.500  0.000
    occupations:
  0.883 -0.000  0.000
 -0.000  0.871 -0.002
  0.000 -0.002  0.871
atomic mag. moment =     0.075155
atom   29   Tr[ns(na)] (up, down, total) =   2.69939  2.62424  5.32363
   spin  1
    eigenvalues: 
  0.848  0.858  0.994
    eigenvectors:
  0.000  1.000  0.000
  0.500  0.000  0.500
  0.500  0.000  0.500
    occupations:
  0.858 -0.000 -0.000
 -0.000  0.921 -0.073
 -0.000 -0.073  0.921
   spin  2
    eigenvalues: 
  0.869  0.873  0.883
    eigenvectors:
  0.000  0.000  1.000
  0.500  0.500  0.000
  0.500  0.500  0.000
    occupations:
  0.883 -0.000 -0.000
 -0.000  0.871  0.002
 -0.000  0.002  0.871
atomic mag. moment =     0.075150
atom   30   Tr[ns(na)] (up, down, total) =   2.69936  2.62420  5.32356
   spin  1
    eigenvalues: 
  0.848  0.858  0.994
    eigenvectors:
  0.000  1.000  0.000
  0.500  0.000  0.500
  0.500  0.000  0.500
    occupations:
  0.858 -0.000 -0.000
 -0.000  0.921 -0.073
 -0.000 -0.073  0.921
   spin  2
    eigenvalues: 
  0.869  0.873  0.883
    eigenvectors:
  0.000  0.000  1.000
  0.500  0.500  0.000
  0.500  0.500  0.000
    occupations:
  0.883 -0.000 -0.000
 -0.000  0.871  0.002
 -0.000  0.002  0.871
atomic mag. moment =     0.075161
atom   31   Tr[ns(na)] (up, down, total) =   2.69938  2.62423  5.32361
   spin  1
    eigenvalues: 
  0.848  0.858  0.994
    eigenvectors:
  0.000  1.000  0.000
  0.500  0.000  0.500
  0.500  0.000  0.500
    occupations:
  0.858  0.000 -0.000
  0.000  0.921  0.073
 -0.000  0.073  0.921
   spin  2
    eigenvalues: 
  0.869  0.873  0.883
    eigenvectors:
  0.000  0.000  1.000
  0.500  0.500  0.000
  0.500  0.500  0.000
    occupations:
  0.883  0.000 -0.000
  0.000  0.871 -0.002
 -0.000 -0.002  0.871
atomic mag. moment =     0.075150
atom   32   Tr[ns(na)] (up, down, total) =   2.69936  2.62421  5.32357
   spin  1
    eigenvalues: 
  0.848  0.858  0.994
    eigenvectors:
  0.000  1.000  0.000
  0.500  0.000  0.500
  0.500  0.000  0.500
    occupations:
  0.858  0.000 -0.000
  0.000  0.921  0.073
 -0.000  0.073  0.921
   spin  2
    eigenvalues: 
  0.869  0.873  0.883
    eigenvectors:
  0.000  0.000  1.000
  0.500  0.500  0.000
  0.500  0.500  0.000
    occupations:
  0.883  0.000 -0.000
  0.000  0.871 -0.002
 -0.000 -0.002  0.871
atomic mag. moment =     0.075155
atom   33   Tr[ns(na)] (up, down, total) =   2.69937  2.62421  5.32358
   spin  1
    eigenvalues: 
  0.848  0.858  0.994
    eigenvectors:
  0.000  1.000  0.000
  0.500  0.000  0.500
  0.500  0.000  0.500
    occupations:
  0.858 -0.000 -0.000
 -0.000  0.921 -0.073
 -0.000 -0.073  0.921
   spin  2
    eigenvalues: 
  0.869  0.873  0.883
    eigenvectors:
  0.000  0.000  1.000
  0.500  0.500  0.000
  0.500  0.500  0.000
    occupations:
  0.883 -0.000 -0.000
 -0.000  0.871  0.002
 -0.000  0.002  0.871
atomic mag. moment =     0.075155
atom   34   Tr[ns(na)] (up, down, total) =   2.69939  2.62425  5.32364
   spin  1
    eigenvalues: 
  0.848  0.858  0.994
    eigenvectors:
  0.000  1.000  0.000
  0.500  0.000  0.500
  0.500  0.000  0.500
    occupations:
  0.858 -0.000 -0.000
 -0.000  0.921 -0.073
 -0.000 -0.073  0.921
   spin  2
    eigenvalues: 
  0.869  0.873  0.883
    eigenvectors:
  0.000  0.000  1.000
  0.500  0.500  0.000
  0.500  0.500  0.000
    occupations:
  0.883 -0.000 -0.000
 -0.000  0.871  0.002
 -0.000  0.002  0.871
atomic mag. moment =     0.075144
atom   35   Tr[ns(na)] (up, down, total) =   2.69936  2.62421  5.32357
   spin  1
    eigenvalues: 
  0.848  0.858  0.994
    eigenvectors:
  0.000  1.000  0.000
  0.500  0.000  0.500
  0.500  0.000  0.500
    occupations:
  0.858  0.000 -0.000
  0.000  0.921  0.073
 -0.000  0.073  0.921
   spin  2
    eigenvalues: 
  0.869  0.873  0.883
    eigenvectors:
  0.000  0.000  1.000
  0.500  0.500  0.000
  0.500  0.500  0.000
    occupations:
  0.883  0.000 -0.000
  0.000  0.871 -0.002
 -0.000 -0.002  0.871
atomic mag. moment =     0.075155
atom   36   Tr[ns(na)] (up, down, total) =   2.69938  2.62423  5.32361
   spin  1
    eigenvalues: 
  0.848  0.858  0.994
    eigenvectors:
  0.000  1.000  0.000
  0.500  0.000  0.500
  0.500  0.000  0.500
    occupations:
  0.858  0.000 -0.000
  0.000  0.921  0.073
 -0.000  0.073  0.921
   spin  2
    eigenvalues: 
  0.869  0.873  0.883
    eigenvectors:
  0.000  0.000  1.000
  0.500  0.500  0.000
  0.500  0.500  0.000
    occupations:
  0.883  0.000 -0.000
  0.000  0.871 -0.002
 -0.000 -0.002  0.871
atomic mag. moment =     0.075150
atom   37   Tr[ns(na)] (up, down, total) =   2.69939  2.62424  5.32363
   spin  1
    eigenvalues: 
  0.848  0.858  0.994
    eigenvectors:
  0.000  1.000  0.000
  0.500  0.000  0.500
  0.500  0.000  0.500
    occupations:
  0.858 -0.000 -0.000
 -0.000  0.921 -0.073
 -0.000 -0.073  0.921
   spin  2
    eigenvalues: 
  0.869  0.873  0.883
    eigenvectors:
  0.000  0.000  1.000
  0.500  0.500  0.000
  0.500  0.500  0.000
    occupations:
  0.883 -0.000 -0.000
 -0.000  0.871  0.002
 -0.000  0.002  0.871
atomic mag. moment =     0.075150
atom   38   Tr[ns(na)] (up, down, total) =   2.69936  2.62420  5.32356
   spin  1
    eigenvalues: 
  0.848  0.858  0.994
    eigenvectors:
  0.000  1.000  0.000
  0.500  0.000  0.500
  0.500  0.000  0.500
    occupations:
  0.858 -0.000 -0.000
 -0.000  0.921 -0.073
 -0.000 -0.073  0.921
   spin  2
    eigenvalues: 
  0.869  0.873  0.883
    eigenvectors:
  0.000  0.000  1.000
  0.500  0.500  0.000
  0.500  0.500  0.000
    occupations:
  0.883 -0.000 -0.000
 -0.000  0.871  0.002
 -0.000  0.002  0.871
atomic mag. moment =     0.075161
atom   39   Tr[ns(na)] (up, down, total) =   2.69936  2.62421  5.32357
   spin  1
    eigenvalues: 
  0.848  0.858  0.994
    eigenvectors:
  0.000  1.000  0.000
  0.500  0.000  0.500
  0.500  0.000  0.500
    occupations:
  0.858 -0.000  0.000
 -0.000  0.921  0.073
  0.000  0.073  0.921
   spin  2
    eigenvalues: 
  0.869  0.873  0.883
    eigenvectors:
  0.000  0.000  1.000
  0.500  0.500  0.000
  0.500  0.500  0.000
    occupations:
  0.883 -0.000  0.000
 -0.000  0.871 -0.002
  0.000 -0.002  0.871
atomic mag. moment =     0.075155
atom   40   Tr[ns(na)] (up, down, total) =   2.69938  2.62423  5.32361
   spin  1
    eigenvalues: 
  0.848  0.858  0.994
    eigenvectors:
  0.000  1.000  0.000
  0.500  0.000  0.500
  0.500  0.000  0.500
    occupations:
  0.858 -0.000  0.000
 -0.000  0.921  0.073
  0.000  0.073  0.921
   spin  2
    eigenvalues: 
  0.869  0.873  0.883
    eigenvectors:
  0.000  0.000  1.000
  0.500  0.500  0.000
  0.500  0.500  0.000
    occupations:
  0.883 -0.000  0.000
 -0.000  0.871 -0.002
  0.000 -0.002  0.871
atomic mag. moment =     0.075150
atom   41   Tr[ns(na)] (up, down, total) =   2.69934  2.62418  5.32352
   spin  1
    eigenvalues: 
  0.848  0.858  0.994
    eigenvectors:
  0.000  1.000  0.000
  0.500  0.000  0.500
  0.500  0.000  0.500
    occupations:
  0.858 -0.000 -0.000
 -0.000  0.921 -0.073
 -0.000 -0.073  0.921
   spin  2
    eigenvalues: 
  0.869  0.873  0.883
    eigenvectors:
  0.000  0.000  1.000
  0.500  0.500  0.000
  0.500  0.500  0.000
    occupations:
  0.883 -0.000 -0.000
 -0.000  0.871  0.002
 -0.000  0.002  0.871
atomic mag. moment =     0.075163
atom   42   Tr[ns(na)] (up, down, total) =   2.69937  2.62421  5.32358
   spin  1
    eigenvalues: 
  0.848  0.858  0.994
    eigenvectors:
  0.000  1.000  0.000
  0.500  0.000  0.500
  0.500  0.000  0.500
    occupations:
  0.858 -0.000 -0.000
 -0.000  0.921 -0.073
 -0.000 -0.073  0.921
   spin  2
    eigenvalues: 
  0.869  0.873  0.883
    eigenvectors:
  0.000  0.000  1.000
  0.500  0.500  0.000
  0.500  0.500  0.000
    occupations:
  0.883 -0.000 -0.000
 -0.000  0.871  0.002
 -0.000  0.002  0.871
atomic mag. moment =     0.075156
atom   43   Tr[ns(na)] (up, down, total) =   2.69937  2.62422  5.32359
   spin  1
    eigenvalues: 
  0.848  0.858  0.994
    eigenvectors:
  0.000  1.000  0.000
  0.500  0.000  0.500
  0.500  0.000  0.500
    occupations:
  0.858  0.000 -0.000
  0.000  0.921  0.073
 -0.000  0.073  0.921
   spin  2
    eigenvalues: 
  0.869  0.873  0.883
    eigenvectors:
  0.000  0.000  1.000
  0.500  0.500  0.000
  0.500  0.500  0.000
    occupations:
  0.883  0.000 -0.000
  0.000  0.871 -0.002
 -0.000 -0.002  0.871
atomic mag. moment =     0.075158
atom   44   Tr[ns(na)] (up, down, total) =   2.69937  2.62422  5.32359
   spin  1
    eigenvalues: 
  0.848  0.858  0.994
    eigenvectors:
  0.000  1.000  0.000
  0.500  0.000  0.500
  0.500  0.000  0.500
    occupations:
  0.858 -0.000  0.000
 -0.000  0.921  0.073
  0.000  0.073  0.921
   spin  2
    eigenvalues: 
  0.869  0.873  0.883
    eigenvectors:
  0.000  0.000  1.000
  0.500  0.500  0.000
  0.500  0.500  0.000
    occupations:
  0.883 -0.000  0.000
 -0.000  0.871 -0.002
  0.000 -0.002  0.871
atomic mag. moment =     0.075158
atom   45   Tr[ns(na)] (up, down, total) =   2.69937  2.62421  5.32358
   spin  1
    eigenvalues: 
  0.848  0.858  0.994
    eigenvectors:
  0.000  1.000  0.000
  0.500  0.000  0.500
  0.500  0.000  0.500
    occupations:
  0.858 -0.000 -0.000
 -0.000  0.921 -0.073
 -0.000 -0.073  0.921
   spin  2
    eigenvalues: 
  0.869  0.873  0.883
    eigenvectors:
  0.000  0.000  1.000
  0.500  0.500  0.000
  0.500  0.500  0.000
    occupations:
  0.883 -0.000 -0.000
 -0.000  0.871  0.002
 -0.000  0.002  0.871
atomic mag. moment =     0.075155
atom   46   Tr[ns(na)] (up, down, total) =   2.69934  2.62418  5.32351
   spin  1
    eigenvalues: 
  0.848  0.858  0.994
    eigenvectors:
  0.000  1.000  0.000
  0.500  0.000  0.500
  0.500  0.000  0.500
    occupations:
  0.858 -0.000 -0.000
 -0.000  0.921 -0.073
 -0.000 -0.073  0.921
   spin  2
    eigenvalues: 
  0.869  0.873  0.883
    eigenvectors:
  0.000  0.000  1.000
  0.500  0.500  0.000
  0.500  0.500  0.000
    occupations:
  0.883 -0.000 -0.000
 -0.000  0.871  0.002
 -0.000  0.002  0.871
atomic mag. moment =     0.075160
atom   47   Tr[ns(na)] (up, down, total) =   2.69937  2.62422  5.32359
   spin  1
    eigenvalues: 
  0.848  0.858  0.994
    eigenvectors:
  0.000  1.000  0.000
  0.500  0.000  0.500
  0.500  0.000  0.500
    occupations:
  0.858 -0.000  0.000
 -0.000  0.921  0.073
  0.000  0.073  0.921
   spin  2
    eigenvalues: 
  0.869  0.873  0.883
    eigenvectors:
  0.000  0.000  1.000
  0.500  0.500  0.000
  0.500  0.500  0.000
    occupations:
  0.883 -0.000  0.000
 -0.000  0.871 -0.002
  0.000 -0.002  0.871
atomic mag. moment =     0.075158
atom   48   Tr[ns(na)] (up, down, total) =   2.69937  2.62422  5.32359
   spin  1
    eigenvalues: 
  0.848  0.858  0.994
    eigenvectors:
  0.000  1.000  0.000
  0.500  0.000  0.500
  0.500  0.000  0.500
    occupations:
  0.858  0.000 -0.000
  0.000  0.921  0.073
 -0.000  0.073  0.921
   spin  2
    eigenvalues: 
  0.869  0.873  0.883
    eigenvectors:
  0.000  0.000  1.000
  0.500  0.500  0.000
  0.500  0.500  0.000
    occupations:
  0.883  0.000 -0.000
  0.000  0.871 -0.002
 -0.000 -0.002  0.871
atomic mag. moment =     0.075158
N of occupied +U levels = 259.2803700
 --- exit write_ns ---
 Atomic wfc used for LDA+U Projector are NOT orthogonalized
     Starting wfc from file

     total cpu time spent up to now is       90.0 secs

     per-process dynamical memory:    87.1 Mb

     Self-consistent Calculation

     iteration #  1     ecut=    40.00 Ry     beta=0.70
     Davidson diagonalization with overlap
     ethr =  1.14E-09,  avg # of iterations =  8.1
 --- enter write_ns ---
 LDA+U parameters:
U( 1)     =  0.00000000
alpha( 1) =  0.00000000
U( 2)     =  0.00000000
alpha( 2) =  0.15000000
U( 3)     =  0.00000000
alpha( 3) =  0.00000000
atom    1   Tr[ns(na)] (up, down, total) =   4.10709  1.45693  5.56403
   spin  1
    eigenvalues: 
  0.554  0.573  0.986  0.988  1.005
    eigenvectors:
  0.000  0.247  0.753  0.000  0.000
  0.500  0.000  0.000  0.500  0.000
  0.500  0.000  0.000  0.500  0.000
  0.000  0.000  0.000  0.000  1.000
  0.000  0.753  0.247  0.000  0.000
    occupations:
  0.884 -0.000 -0.000 -0.000  0.178
 -0.000  0.771  0.217  0.000  0.000
 -0.000  0.217  0.771  0.000  0.000
 -0.000  0.000  0.000  1.005 -0.000
  0.178  0.000  0.000 -0.000  0.675
   spin  2
    eigenvalues: 
  0.152  0.225  0.250  0.408  0.422
    eigenvectors:
  0.730  0.000  0.000  0.270  0.000
  0.000  0.500  0.000  0.000  0.500
  0.000  0.500  0.000  0.000  0.500
  0.000  0.000  1.000  0.000  0.000
  0.270  0.000  0.000  0.730  0.000
    occupations:
  0.221 -0.000 -0.000  0.000 -0.113
 -0.000  0.324 -0.098  0.000  0.000
 -0.000 -0.098  0.324  0.000  0.000
  0.000  0.000  0.000  0.250 -0.000
 -0.113  0.000  0.000 -0.000  0.339
atomic mag. moment =     2.650159
atom    2   Tr[ns(na)] (up, down, total) =   4.10766  1.45785  5.56551
   spin  1
    eigenvalues: 
  0.556  0.572  0.986  0.988  1.006
    eigenvectors:
  0.001  0.246  0.753  0.000  0.000
  0.498  0.002  0.000  0.500  0.000
  0.498  0.002  0.000  0.500  0.000
  0.000  0.000  0.000  0.000  1.000
  0.003  0.750  0.247  0.000  0.000
    occupations:
  0.884 -0.000 -0.000  0.000 -0.178
 -0.000  0.772 -0.216  0.000 -0.001
 -0.000 -0.216  0.772 -0.000 -0.001
  0.000  0.000 -0.000  1.006 -0.000
 -0.178 -0.001 -0.001 -0.000  0.674
   spin  2
    eigenvalues: 
  0.153  0.226  0.249  0.407  0.424
    eigenvectors:
  0.731  0.000  0.000  0.269  0.000
  0.000  0.499  0.001  0.001  0.499
  0.000  0.499  0.001  0.001  0.499
  0.000  0.002  0.998  0.000  0.000
  0.269  0.000  0.000  0.729  0.001
    occupations:
  0.221 -0.000 -0.000 -0.000  0.113
 -0.000  0.325  0.099 -0.001 -0.000
 -0.000  0.099  0.325  0.001 -0.000
 -0.000 -0.001  0.001  0.249 -0.000
  0.113 -0.000 -0.000 -0.000  0.338
atomic mag. moment =     2.649814
atom    3   Tr[ns(na)] (up, down, total) =   4.10568  1.45297  5.55865
   spin  1
    eigenvalues: 
  0.554  0.571  0.986  0.988  1.006
    eigenvectors:
  0.000  0.247  0.753  0.000  0.000
  0.500  0.000  0.000  0.500  0.000
  0.500  0.000  0.000  0.500  0.000
  0.000  0.000  0.000  0.000  1.000
  0.000  0.753  0.247  0.000  0.000
    occupations:
  0.884 -0.000 -0.000 -0.000  0.179
 -0.000  0.771  0.217  0.000  0.000
 -0.000  0.217  0.771  0.000  0.000
 -0.000  0.000  0.000  1.006 -0.000
  0.179  0.000  0.000 -0.000  0.674
   spin  2
    eigenvalues: 
  0.152  0.225  0.248  0.406  0.422
    eigenvectors:
  0.730  0.000  0.000  0.270  0.000
  0.000  0.500  0.000  0.000  0.500
  0.000  0.500  0.000  0.000  0.500
  0.000  0.000  1.000  0.000  0.000
  0.270  0.000  0.000  0.730  0.000
    occupations:
  0.220 -0.000 -0.000  0.000 -0.113
 -0.000  0.323 -0.099  0.000  0.000
 -0.000 -0.099  0.323  0.000  0.000
  0.000  0.000  0.000  0.248 -0.000
 -0.113  0.000  0.000 -0.000  0.338
atomic mag. moment =     2.652716
atom    4   Tr[ns(na)] (up, down, total) =   4.10766  1.45785  5.56551
   spin  1
    eigenvalues: 
  0.556  0.572  0.986  0.988  1.006
    eigenvectors:
  0.001  0.246  0.753  0.000  0.000
  0.498  0.002  0.000  0.500  0.000
  0.498  0.002  0.000  0.500  0.000
  0.000  0.000  0.000  0.000  1.000
  0.003  0.750  0.247  0.000  0.000
    occupations:
  0.884  0.000  0.000  0.000 -0.178
  0.000  0.772 -0.216 -0.000  0.001
  0.000 -0.216  0.772  0.000  0.001
  0.000 -0.000  0.000  1.006 -0.000
 -0.178  0.001  0.001 -0.000  0.674
   spin  2
    eigenvalues: 
  0.153  0.226  0.249  0.407  0.424
    eigenvectors:
  0.731  0.000  0.000  0.269  0.000
  0.000  0.499  0.001  0.001  0.499
  0.000  0.499  0.001  0.001  0.499
  0.000  0.002  0.998  0.000  0.000
  0.269  0.000  0.000  0.729  0.001
    occupations:
  0.221  0.000  0.000 -0.000  0.113
  0.000  0.325  0.099  0.001  0.000
  0.000  0.099  0.325 -0.001  0.000
 -0.000  0.001 -0.001  0.249 -0.000
  0.113  0.000  0.000 -0.000  0.338
atomic mag. moment =     2.649814
atom    5   Tr[ns(na)] (up, down, total) =   4.10569  1.45280  5.55849
   spin  1
    eigenvalues: 
  0.554  0.571  0.986  0.988  1.006
    eigenvectors:
  0.000  0.247  0.753  0.000  0.000
  0.500  0.000  0.000  0.500  0.000
  0.500  0.000  0.000  0.500  0.000
  0.000  0.000  0.000  0.000  1.000
  0.000  0.753  0.247  0.000  0.000
    occupations:
  0.884 -0.000 -0.000  0.000  0.179
 -0.000  0.771  0.217  0.000  0.000
 -0.000  0.217  0.771  0.000  0.000
  0.000  0.000  0.000  1.006 -0.000
  0.179  0.000  0.000 -0.000  0.674
   spin  2
    eigenvalues: 
  0.152  0.225  0.248  0.406  0.422
    eigenvectors:
  0.730  0.000  0.000  0.270  0.000
  0.000  0.500  0.000  0.000  0.500
  0.000  0.500  0.000  0.000  0.500
  0.000  0.000  1.000  0.000  0.000
  0.270  0.000  0.000  0.730  0.000
    occupations:
  0.220 -0.000 -0.000  0.000 -0.113
 -0.000  0.323 -0.099  0.000  0.000
 -0.000 -0.099  0.323  0.000  0.000
  0.000  0.000  0.000  0.248  0.000
 -0.113  0.000  0.000  0.000  0.338
atomic mag. moment =     2.652886
atom    6   Tr[ns(na)] (up, down, total) =   4.10562  1.45279  5.55842
   spin  1
    eigenvalues: 
  0.554  0.571  0.986  0.988  1.006
    eigenvectors:
  0.000  0.247  0.753  0.000  0.000
  0.500  0.000  0.000  0.500  0.000
  0.500  0.000  0.000  0.500  0.000
  0.000  0.000  0.000  0.000  1.000
  0.000  0.753  0.247  0.000  0.000
    occupations:
  0.884  0.000  0.000 -0.000 -0.179
  0.000  0.771 -0.217 -0.000  0.000
  0.000 -0.217  0.771  0.000 -0.000
 -0.000 -0.000  0.000  1.006 -0.000
 -0.179  0.000 -0.000 -0.000  0.674
   spin  2
    eigenvalues: 
  0.152  0.225  0.248  0.406  0.422
    eigenvectors:
  0.730  0.000  0.000  0.270  0.000
  0.000  0.500  0.000  0.000  0.500
  0.000  0.500  0.000  0.000  0.500
  0.000  0.000  1.000  0.000  0.000
  0.270  0.000  0.000  0.730  0.000
    occupations:
  0.220 -0.000  0.000 -0.000  0.113
 -0.000  0.323  0.099  0.000  0.000
  0.000  0.099  0.323 -0.000  0.000
 -0.000  0.000 -0.000  0.248  0.000
  0.113  0.000  0.000  0.000  0.337
atomic mag. moment =     2.652831
atom    7   Tr[ns(na)] (up, down, total) =   4.10496  1.45199  5.55695
   spin  1
    eigenvalues: 
  0.554  0.571  0.986  0.988  1.006
    eigenvectors:
  0.000  0.247  0.753  0.000  0.000
  0.500  0.000  0.000  0.500  0.000
  0.500  0.000  0.000  0.500  0.000
  0.000  0.000  0.000  0.000  1.000
  0.000  0.753  0.247  0.000  0.000
    occupations:
  0.883 -0.000 -0.000 -0.000  0.179
 -0.000  0.771  0.217  0.000  0.000
 -0.000  0.217  0.771  0.000  0.000
 -0.000  0.000  0.000  1.006  0.000
  0.179  0.000  0.000  0.000  0.674
   spin  2
    eigenvalues: 
  0.152  0.225  0.248  0.406  0.422
    eigenvectors:
  0.730  0.000  0.000  0.270  0.000
  0.000  0.499  0.000  0.000  0.501
  0.000  0.501  0.000  0.000  0.499
  0.000  0.000  1.000  0.000  0.000
  0.270  0.000  0.000  0.730  0.000
    occupations:
  0.220 -0.000 -0.000  0.000 -0.113
 -0.000  0.323 -0.099  0.000  0.000
 -0.000 -0.099  0.323  0.000  0.000
  0.000  0.000  0.000  0.248 -0.000
 -0.113  0.000  0.000 -0.000  0.337
atomic mag. moment =     2.652969
atom    8   Tr[ns(na)] (up, down, total) =   4.10562  1.45279  5.55842
   spin  1
    eigenvalues: 
  0.554  0.571  0.986  0.988  1.006
    eigenvectors:
  0.000  0.247  0.753  0.000  0.000
  0.500  0.000  0.000  0.500  0.000
  0.500  0.000  0.000  0.500  0.000
  0.000  0.000  0.000  0.000  1.000
  0.000  0.753  0.247  0.000  0.000
    occupations:
  0.884 -0.000 -0.000 -0.000 -0.179
 -0.000  0.771 -0.217  0.000 -0.000
 -0.000 -0.217  0.771 -0.000  0.000
 -0.000  0.000 -0.000  1.006 -0.000
 -0.179 -0.000  0.000 -0.000  0.674
   spin  2
    eigenvalues: 
  0.152  0.225  0.248  0.406  0.422
    eigenvectors:
  0.730  0.000  0.000  0.270  0.000
  0.000  0.500  0.000  0.000  0.500
  0.000  0.500  0.000  0.000  0.500
  0.000  0.000  1.000  0.000  0.000
  0.270  0.000  0.000  0.730  0.000
    occupations:
  0.220  0.000 -0.000 -0.000  0.113
  0.000  0.323  0.099 -0.000 -0.000
 -0.000  0.099  0.323  0.000 -0.000
 -0.000 -0.000  0.000  0.248  0.000
  0.113 -0.000 -0.000  0.000  0.337
atomic mag. moment =     2.652831
atom    9   Tr[ns(na)] (up, down, total) =   4.10569  1.45280  5.55849
   spin  1
    eigenvalues: 
  0.554  0.571  0.986  0.988  1.006
    eigenvectors:
  0.000  0.247  0.753  0.000  0.000
  0.500  0.000  0.000  0.500  0.000
  0.500  0.000  0.000  0.500  0.000
  0.000  0.000  0.000  0.000  1.000
  0.000  0.753  0.247  0.000  0.000
    occupations:
  0.884 -0.000 -0.000 -0.000  0.179
 -0.000  0.771  0.217  0.000  0.000
 -0.000  0.217  0.771  0.000  0.000
 -0.000  0.000  0.000  1.006  0.000
  0.179  0.000  0.000  0.000  0.674
   spin  2
    eigenvalues: 
  0.152  0.225  0.248  0.406  0.422
    eigenvectors:
  0.730  0.000  0.000  0.270  0.000
  0.000  0.500  0.000  0.000  0.500
  0.000  0.500  0.000  0.000  0.500
  0.000  0.000  1.000  0.000  0.000
  0.270  0.000  0.000  0.730  0.000
    occupations:
  0.220 -0.000 -0.000 -0.000 -0.113
 -0.000  0.323 -0.099  0.000  0.000
 -0.000 -0.099  0.323  0.000  0.000
 -0.000  0.000  0.000  0.248 -0.000
 -0.113  0.000  0.000 -0.000  0.338
atomic mag. moment =     2.652886
atom   10   Tr[ns(na)] (up, down, total) =   4.10562  1.45279  5.55842
   spin  1
    eigenvalues: 
  0.554  0.571  0.986  0.988  1.006
    eigenvectors:
  0.000  0.247  0.753  0.000  0.000
  0.500  0.000  0.000  0.500  0.000
  0.500  0.000  0.000  0.500  0.000
  0.000  0.000  0.000  0.000  1.000
  0.000  0.753  0.247  0.000  0.000
    occupations:
  0.884  0.000  0.000  0.000 -0.179
  0.000  0.771 -0.217 -0.000 -0.000
  0.000 -0.217  0.771  0.000  0.000
  0.000 -0.000  0.000  1.006  0.000
 -0.179 -0.000  0.000  0.000  0.674
   spin  2
    eigenvalues: 
  0.152  0.225  0.248  0.406  0.422
    eigenvectors:
  0.730  0.000  0.000  0.270  0.000
  0.000  0.500  0.000  0.000  0.500
  0.000  0.500  0.000  0.000  0.500
  0.000  0.000  1.000  0.000  0.000
  0.270  0.000  0.000  0.730  0.000
    occupations:
  0.220  0.000 -0.000  0.000  0.113
  0.000  0.323  0.099  0.000  0.000
 -0.000  0.099  0.323 -0.000  0.000
  0.000  0.000 -0.000  0.248 -0.000
  0.113  0.000  0.000 -0.000  0.337
atomic mag. moment =     2.652831
atom   11   Tr[ns(na)] (up, down, total) =   4.10496  1.45199  5.55695
   spin  1
    eigenvalues: 
  0.554  0.571  0.986  0.988  1.006
    eigenvectors:
  0.000  0.247  0.753  0.000  0.000
  0.500  0.000  0.000  0.500  0.000
  0.500  0.000  0.000  0.500  0.000
  0.000  0.000  0.000  0.000  1.000
  0.000  0.753  0.247  0.000  0.000
    occupations:
  0.883 -0.000 -0.000  0.000  0.179
 -0.000  0.771  0.217  0.000  0.000
 -0.000  0.217  0.771  0.000  0.000
  0.000  0.000  0.000  1.006 -0.000
  0.179  0.000  0.000 -0.000  0.674
   spin  2
    eigenvalues: 
  0.152  0.225  0.248  0.406  0.422
    eigenvectors:
  0.730  0.000  0.000  0.270  0.000
  0.000  0.501  0.000  0.000  0.499
  0.000  0.499  0.000  0.000  0.501
  0.000  0.000  1.000  0.000  0.000
  0.270  0.000  0.000  0.730  0.000
    occupations:
  0.220 -0.000 -0.000 -0.000 -0.113
 -0.000  0.323 -0.099  0.000  0.000
 -0.000 -0.099  0.323  0.000  0.000
 -0.000  0.000  0.000  0.248  0.000
 -0.113  0.000  0.000  0.000  0.337
atomic mag. moment =     2.652969
atom   12   Tr[ns(na)] (up, down, total) =   4.10562  1.45279  5.55842
   spin  1
    eigenvalues: 
  0.554  0.571  0.986  0.988  1.006
    eigenvectors:
  0.000  0.247  0.753  0.000  0.000
  0.500  0.000  0.000  0.500  0.000
  0.500  0.000  0.000  0.500  0.000
  0.000  0.000  0.000  0.000  1.000
  0.000  0.753  0.247  0.000  0.000
    occupations:
  0.884 -0.000 -0.000  0.000 -0.179
 -0.000  0.771 -0.217  0.000  0.000
 -0.000 -0.217  0.771 -0.000 -0.000
  0.000  0.000 -0.000  1.006  0.000
 -0.179  0.000 -0.000  0.000  0.674
   spin  2
    eigenvalues: 
  0.152  0.225  0.248  0.406  0.422
    eigenvectors:
  0.730  0.000  0.000  0.270  0.000
  0.000  0.500  0.000  0.000  0.500
  0.000  0.500  0.000  0.000  0.500
  0.000  0.000  1.000  0.000  0.000
  0.270  0.000  0.000  0.730  0.000
    occupations:
  0.220 -0.000  0.000  0.000  0.113
 -0.000  0.323  0.099 -0.000 -0.000
  0.000  0.099  0.323  0.000 -0.000
  0.000 -0.000  0.000  0.248 -0.000
  0.113 -0.000 -0.000 -0.000  0.337
atomic mag. moment =     2.652831
atom   13   Tr[ns(na)] (up, down, total) =   4.10541  1.45253  5.55794
   spin  1
    eigenvalues: 
  0.554  0.571  0.986  0.988  1.006
    eigenvectors:
  0.000  0.247  0.753  0.000  0.000
  0.500  0.000  0.000  0.500  0.000
  0.500  0.000  0.000  0.500  0.000
  0.000  0.000  0.000  0.000  1.000
  0.000  0.753  0.247  0.000  0.000
    occupations:
  0.883 -0.000 -0.000 -0.000  0.179
 -0.000  0.771  0.217  0.000  0.000
 -0.000  0.217  0.771  0.000  0.000
 -0.000  0.000  0.000  1.006 -0.000
  0.179  0.000  0.000 -0.000  0.674
   spin  2
    eigenvalues: 
  0.152  0.225  0.248  0.406  0.422
    eigenvectors:
  0.730  0.000  0.000  0.270  0.000
  0.000  0.500  0.000  0.000  0.500
  0.000  0.500  0.000  0.000  0.500
  0.000  0.000  1.000  0.000  0.000
  0.270  0.000  0.000  0.730  0.000
    occupations:
  0.220 -0.000 -0.000  0.000 -0.113
 -0.000  0.323 -0.099  0.000  0.000
 -0.000 -0.099  0.323  0.000  0.000
  0.000  0.000  0.000  0.248 -0.000
 -0.113  0.000  0.000 -0.000  0.337
atomic mag. moment =     2.652883
atom   14   Tr[ns(na)] (up, down, total) =   4.10513  1.45229  5.55742
   spin  1
    eigenvalues: 
  0.554  0.571  0.986  0.988  1.006
    eigenvectors:
  0.000  0.247  0.753  0.000  0.000
  0.500  0.000  0.000  0.500  0.000
  0.500  0.000  0.000  0.500  0.000
  0.000  0.000  0.000  0.000  1.000
  0.000  0.753  0.247  0.000  0.000
    occupations:
  0.883 -0.000 -0.000  0.000 -0.179
 -0.000  0.771 -0.217 -0.000  0.000
 -0.000 -0.217  0.771  0.000  0.000
  0.000 -0.000  0.000  1.006 -0.000
 -0.179  0.000  0.000 -0.000  0.674
   spin  2
    eigenvalues: 
  0.152  0.225  0.248  0.406  0.422
    eigenvectors:
  0.730  0.000  0.000  0.270  0.000
  0.000  0.500  0.000  0.000  0.500
  0.000  0.500  0.000  0.000  0.500
  0.000  0.000  1.000  0.000  0.000
  0.270  0.000  0.000  0.730  0.000
    occupations:
  0.220  0.000  0.000 -0.000  0.113
  0.000  0.323  0.099 -0.000 -0.000
  0.000  0.099  0.323  0.000 -0.000
 -0.000 -0.000  0.000  0.248 -0.000
  0.113 -0.000 -0.000 -0.000  0.337
atomic mag. moment =     2.652835
atom   15   Tr[ns(na)] (up, down, total) =   4.10558  1.45294  5.55852
   spin  1
    eigenvalues: 
  0.554  0.572  0.986  0.988  1.005
    eigenvectors:
  0.000  0.247  0.753  0.000  0.000
  0.500  0.000  0.000  0.500  0.000
  0.500  0.000  0.000  0.500  0.000
  0.000  0.000  0.000  0.000  1.000
  0.000  0.753  0.247  0.000  0.000
    occupations:
  0.884 -0.000 -0.000 -0.000  0.179
 -0.000  0.771  0.217  0.000  0.000
 -0.000  0.217  0.771  0.000  0.000
 -0.000  0.000  0.000  1.005 -0.000
  0.179  0.000  0.000 -0.000  0.674
   spin  2
    eigenvalues: 
  0.152  0.225  0.248  0.406  0.422
    eigenvectors:
  0.730  0.000  0.000  0.270  0.000
  0.000  0.500  0.000  0.000  0.500
  0.000  0.500  0.000  0.000  0.500
  0.000  0.000  1.000  0.000  0.000
  0.270  0.000  0.000  0.730  0.000
    occupations:
  0.220 -0.000 -0.000  0.000 -0.113
 -0.000  0.323 -0.099  0.000  0.000
 -0.000 -0.099  0.323  0.000  0.000
  0.000  0.000  0.000  0.248 -0.000
 -0.113  0.000  0.000 -0.000  0.338
atomic mag. moment =     2.652641
atom   16   Tr[ns(na)] (up, down, total) =   4.10513  1.45229  5.55742
   spin  1
    eigenvalues: 
  0.554  0.571  0.986  0.988  1.006
    eigenvectors:
  0.000  0.247  0.753  0.000  0.000
  0.500  0.000  0.000  0.500  0.000
  0.500  0.000  0.000  0.500  0.000
  0.000  0.000  0.000  0.000  1.000
  0.000  0.753  0.247  0.000  0.000
    occupations:
  0.883  0.000  0.000  0.000 -0.179
  0.000  0.771 -0.217  0.000 -0.000
  0.000 -0.217  0.771 -0.000 -0.000
  0.000  0.000 -0.000  1.006 -0.000
 -0.179 -0.000 -0.000 -0.000  0.674
   spin  2
    eigenvalues: 
  0.152  0.225  0.248  0.406  0.422
    eigenvectors:
  0.730  0.000  0.000  0.270  0.000
  0.000  0.500  0.000  0.000  0.500
  0.000  0.500  0.000  0.000  0.500
  0.000  0.000  1.000  0.000  0.000
  0.270  0.000  0.000  0.730  0.000
    occupations:
  0.220 -0.000 -0.000 -0.000  0.113
 -0.000  0.323  0.099  0.000  0.000
 -0.000  0.099  0.323 -0.000  0.000
 -0.000  0.000 -0.000  0.248 -0.000
  0.113  0.000  0.000 -0.000  0.337
atomic mag. moment =     2.652835
atom   17   Tr[ns(na)] (up, down, total) =   2.68750  2.60818  5.29568
   spin  1
    eigenvalues: 
  0.843  0.852  0.993
    eigenvectors:
  0.000  1.000  0.000
  0.500  0.000  0.500
  0.500  0.000  0.500
    occupations:
  0.852 -0.000 -0.000
 -0.000  0.918 -0.075
 -0.000 -0.075  0.918
   spin  2
    eigenvalues: 
  0.861  0.869  0.878
    eigenvectors:
  0.000  0.000  1.000
  0.500  0.500  0.000
  0.500  0.500  0.000
    occupations:
  0.878 -0.000 -0.000
 -0.000  0.865  0.004
 -0.000  0.004  0.865
atomic mag. moment =     0.079317
atom   18   Tr[ns(na)] (up, down, total) =   2.69946  2.62447  5.32393
   spin  1
    eigenvalues: 
  0.848  0.858  0.994
    eigenvectors:
  0.000  1.000  0.000
  0.500  0.000  0.500
  0.500  0.000  0.500
    occupations:
  0.858 -0.000 -0.000
 -0.000  0.921 -0.073
 -0.000 -0.073  0.921
   spin  2
    eigenvalues: 
  0.869  0.873  0.883
    eigenvectors:
  0.000  0.000  1.000
  0.500  0.500  0.000
  0.500  0.500  0.000
    occupations:
  0.883 -0.000 -0.000
 -0.000  0.871  0.002
 -0.000  0.002  0.871
atomic mag. moment =     0.074988
atom   19   Tr[ns(na)] (up, down, total) =   2.69936  2.62404  5.32340
   spin  1
    eigenvalues: 
  0.848  0.857  0.994
    eigenvectors:
  0.000  1.000  0.000
  0.500  0.000  0.500
  0.500  0.000  0.500
    occupations:
  0.857 -0.000  0.000
 -0.000  0.921  0.073
  0.000  0.073  0.921
   spin  2
    eigenvalues: 
  0.869  0.873  0.883
    eigenvectors:
  0.000  0.000  1.000
  0.505  0.495  0.000
  0.495  0.505  0.000
    occupations:
  0.883 -0.000 -0.000
 -0.000  0.871 -0.002
 -0.000 -0.002  0.871
atomic mag. moment =     0.075317
atom   20   Tr[ns(na)] (up, down, total) =   2.69936  2.62404  5.32340
   spin  1
    eigenvalues: 
  0.848  0.857  0.994
    eigenvectors:
  0.000  1.000  0.000
  0.500  0.000  0.500
  0.500  0.000  0.500
    occupations:
  0.857  0.000 -0.000
  0.000  0.921  0.073
 -0.000  0.073  0.921
   spin  2
    eigenvalues: 
  0.869  0.873  0.883
    eigenvectors:
  0.000  0.000  1.000
  0.495  0.505  0.000
  0.505  0.495  0.000
    occupations:
  0.883 -0.000 -0.000
 -0.000  0.871 -0.002
 -0.000 -0.002  0.871
atomic mag. moment =     0.075317
atom   21   Tr[ns(na)] (up, down, total) =   2.69960  2.62449  5.32410
   spin  1
    eigenvalues: 
  0.848  0.858  0.994
    eigenvectors:
  0.000  1.000  0.000
  0.500  0.000  0.500
  0.500  0.000  0.500
    occupations:
  0.858 -0.000 -0.000
 -0.000  0.921 -0.073
 -0.000 -0.073  0.921
   spin  2
    eigenvalues: 
  0.869  0.873  0.883
    eigenvectors:
  0.000  0.000  1.000
  0.500  0.500  0.000
  0.500  0.500  0.000
    occupations:
  0.883 -0.000 -0.000
 -0.000  0.871  0.002
 -0.000  0.002  0.871
atomic mag. moment =     0.075110
atom   22   Tr[ns(na)] (up, down, total) =   2.69933  2.62406  5.32339
   spin  1
    eigenvalues: 
  0.848  0.857  0.994
    eigenvectors:
  0.000  1.000  0.000
  0.500  0.000  0.500
  0.500  0.000  0.500
    occupations:
  0.857 -0.000 -0.000
 -0.000  0.921 -0.073
 -0.000 -0.073  0.921
   spin  2
    eigenvalues: 
  0.869  0.873  0.883
    eigenvectors:
  0.000  0.000  1.000
  0.500  0.500  0.000
  0.500  0.500  0.000
    occupations:
  0.883 -0.000 -0.000
 -0.000  0.871  0.002
 -0.000  0.002  0.871
atomic mag. moment =     0.075263
atom   23   Tr[ns(na)] (up, down, total) =   2.69936  2.62404  5.32340
   spin  1
    eigenvalues: 
  0.848  0.857  0.994
    eigenvectors:
  0.000  1.000  0.000
  0.500  0.000  0.500
  0.500  0.000  0.500
    occupations:
  0.857  0.000 -0.000
  0.000  0.921  0.073
 -0.000  0.073  0.921
   spin  2
    eigenvalues: 
  0.869  0.873  0.883
    eigenvectors:
  0.000  0.000  1.000
  0.505  0.495  0.000
  0.495  0.505  0.000
    occupations:
  0.883  0.000  0.000
  0.000  0.871 -0.002
  0.000 -0.002  0.871
atomic mag. moment =     0.075317
atom   24   Tr[ns(na)] (up, down, total) =   2.69936  2.62404  5.32340
   spin  1
    eigenvalues: 
  0.848  0.857  0.994
    eigenvectors:
  0.000  1.000  0.000
  0.500  0.000  0.500
  0.500  0.000  0.500
    occupations:
  0.857 -0.000  0.000
 -0.000  0.921  0.073
  0.000  0.073  0.921
   spin  2
    eigenvalues: 
  0.869  0.873  0.883
    eigenvectors:
  0.000  0.000  1.000
  0.495  0.505  0.000
  0.505  0.495  0.000
    occupations:
  0.883  0.000  0.000
  0.000  0.871 -0.002
  0.000 -0.002  0.871
atomic mag. moment =     0.075317
atom   25   Tr[ns(na)] (up, down, total) =   2.69949  2.62429  5.32377
   spin  1
    eigenvalues: 
  0.848  0.858  0.994
    eigenvectors:
  0.000  1.000  0.000
  0.500  0.000  0.500
  0.500  0.000  0.500
    occupations:
  0.858 -0.000 -0.000
 -0.000  0.921 -0.073
 -0.000 -0.073  0.921
   spin  2
    eigenvalues: 
  0.869  0.873  0.883
    eigenvectors:
  0.000  0.000  1.000
  0.500  0.500  0.000
  0.500  0.500  0.000
    occupations:
  0.883 -0.000 -0.000
 -0.000  0.871  0.002
 -0.000  0.002  0.871
atomic mag. moment =     0.075199
atom   26   Tr[ns(na)] (up, down, total) =   2.69937  2.62421  5.32358
   spin  1
    eigenvalues: 
  0.848  0.858  0.994
    eigenvectors:
  0.000  1.000  0.000
  0.500  0.000  0.500
  0.500  0.000  0.500
    occupations:
  0.858 -0.000 -0.000
 -0.000  0.921 -0.073
 -0.000 -0.073  0.921
   spin  2
    eigenvalues: 
  0.869  0.873  0.883
    eigenvectors:
  0.000  0.000  1.000
  0.503  0.497  0.000
  0.497  0.503  0.000
    occupations:
  0.883 -0.000 -0.000
 -0.000  0.871  0.002
 -0.000  0.002  0.871
atomic mag. moment =     0.075152
atom   27   Tr[ns(na)] (up, down, total) =   2.69951  2.62425  5.32377
   spin  1
    eigenvalues: 
  0.848  0.858  0.994
    eigenvectors:
  0.000  1.000  0.000
  0.500  0.000  0.500
  0.500  0.000  0.500
    occupations:
  0.858 -0.000 -0.000
 -0.000  0.921  0.073
 -0.000  0.073  0.921
   spin  2
    eigenvalues: 
  0.869  0.873  0.883
    eigenvectors:
  0.000  0.000  1.000
  0.501  0.499  0.000
  0.499  0.501  0.000
    occupations:
  0.883  0.000 -0.000
  0.000  0.871 -0.002
 -0.000 -0.002  0.871
atomic mag. moment =     0.075260
atom   28   Tr[ns(na)] (up, down, total) =   2.69964  2.62436  5.32400
   spin  1
    eigenvalues: 
  0.848  0.858  0.994
    eigenvectors:
  0.000  1.000  0.000
  0.500  0.000  0.500
  0.500  0.000  0.500
    occupations:
  0.858 -0.000  0.000
 -0.000  0.921  0.073
  0.000  0.073  0.921
   spin  2
    eigenvalues: 
  0.869  0.873  0.883
    eigenvectors:
  0.000  0.000  1.000
  0.503  0.497  0.000
  0.497  0.503  0.000
    occupations:
  0.883 -0.000  0.000
 -0.000  0.871 -0.002
  0.000 -0.002  0.871
atomic mag. moment =     0.075285
atom   29   Tr[ns(na)] (up, down, total) =   2.69937  2.62419  5.32356
   spin  1
    eigenvalues: 
  0.848  0.857  0.994
    eigenvectors:
  0.000  1.000  0.000
  0.500  0.000  0.500
  0.500  0.000  0.500
    occupations:
  0.857 -0.000 -0.000
 -0.000  0.921 -0.073
 -0.000 -0.073  0.921
   spin  2
    eigenvalues: 
  0.869  0.873  0.883
    eigenvectors:
  0.000  0.000  1.000
  0.499  0.501  0.000
  0.501  0.499  0.000
    occupations:
  0.883 -0.000 -0.000
 -0.000  0.871  0.002
 -0.000  0.002  0.871
atomic mag. moment =     0.075182
atom   30   Tr[ns(na)] (up, down, total) =   2.69949  2.62436  5.32386
   spin  1
    eigenvalues: 
  0.848  0.858  0.994
    eigenvectors:
  0.000  1.000  0.000
  0.500  0.000  0.500
  0.500  0.000  0.500
    occupations:
  0.858 -0.000 -0.000
 -0.000  0.921 -0.073
 -0.000 -0.073  0.921
   spin  2
    eigenvalues: 
  0.869  0.873  0.883
    eigenvectors:
  0.000  0.000  1.000
  0.500  0.500  0.000
  0.500  0.500  0.000
    occupations:
  0.883 -0.000 -0.000
 -0.000  0.871  0.002
 -0.000  0.002  0.871
atomic mag. moment =     0.075130
atom   31   Tr[ns(na)] (up, down, total) =   2.69951  2.62425  5.32377
   spin  1
    eigenvalues: 
  0.848  0.858  0.994
    eigenvectors:
  0.000  1.000  0.000
  0.500  0.000  0.500
  0.500  0.000  0.500
    occupations:
  0.858  0.000  0.000
  0.000  0.921  0.073
  0.000  0.073  0.921
   spin  2
    eigenvalues: 
  0.869  0.873  0.883
    eigenvectors:
  0.000  0.000  1.000
  0.501  0.499  0.000
  0.499  0.501  0.000
    occupations:
  0.883 -0.000  0.000
 -0.000  0.871 -0.002
  0.000 -0.002  0.871
atomic mag. moment =     0.075260
atom   32   Tr[ns(na)] (up, down, total) =   2.69964  2.62436  5.32400
   spin  1
    eigenvalues: 
  0.848  0.858  0.994
    eigenvectors:
  0.000  1.000  0.000
  0.500  0.000  0.500
  0.500  0.000  0.500
    occupations:
  0.858  0.000 -0.000
  0.000  0.921  0.073
 -0.000  0.073  0.921
   spin  2
    eigenvalues: 
  0.869  0.873  0.883
    eigenvectors:
  0.000  0.000  1.000
  0.503  0.497  0.000
  0.497  0.503  0.000
    occupations:
  0.883  0.000 -0.000
  0.000  0.871 -0.002
 -0.000 -0.002  0.871
atomic mag. moment =     0.075285
atom   33   Tr[ns(na)] (up, down, total) =   2.69949  2.62429  5.32377
   spin  1
    eigenvalues: 
  0.848  0.858  0.994
    eigenvectors:
  0.000  1.000  0.000
  0.500  0.000  0.500
  0.500  0.000  0.500
    occupations:
  0.858 -0.000 -0.000
 -0.000  0.921 -0.073
 -0.000 -0.073  0.921
   spin  2
    eigenvalues: 
  0.869  0.873  0.883
    eigenvectors:
  0.000  0.000  1.000
  0.500  0.500  0.000
  0.500  0.500  0.000
    occupations:
  0.883 -0.000 -0.000
 -0.000  0.871  0.002
 -0.000  0.002  0.871
atomic mag. moment =     0.075199
atom   34   Tr[ns(na)] (up, down, total) =   2.69937  2.62421  5.32358
   spin  1
    eigenvalues: 
  0.848  0.858  0.994
    eigenvectors:
  0.000  1.000  0.000
  0.500  0.000  0.500
  0.500  0.000  0.500
    occupations:
  0.858 -0.000 -0.000
 -0.000  0.921 -0.073
 -0.000 -0.073  0.921
   spin  2
    eigenvalues: 
  0.869  0.873  0.883
    eigenvectors:
  0.000  0.000  1.000
  0.497  0.503  0.000
  0.503  0.497  0.000
    occupations:
  0.883 -0.000 -0.000
 -0.000  0.871  0.002
 -0.000  0.002  0.871
atomic mag. moment =     0.075152
atom   35   Tr[ns(na)] (up, down, total) =   2.69964  2.62436  5.32400
   spin  1
    eigenvalues: 
  0.848  0.858  0.994
    eigenvectors:
  0.000  1.000  0.000
  0.500  0.000  0.500
  0.500  0.000  0.500
    occupations:
  0.858  0.000 -0.000
  0.000  0.921  0.073
 -0.000  0.073  0.921
   spin  2
    eigenvalues: 
  0.869  0.873  0.883
    eigenvectors:
  0.000  0.000  1.000
  0.497  0.503  0.000
  0.503  0.497  0.000
    occupations:
  0.883  0.000 -0.000
  0.000  0.871 -0.002
 -0.000 -0.002  0.871
atomic mag. moment =     0.075285
atom   36   Tr[ns(na)] (up, down, total) =   2.69951  2.62425  5.32377
   spin  1
    eigenvalues: 
  0.848  0.858  0.994
    eigenvectors:
  0.000  1.000  0.000
  0.500  0.000  0.500
  0.500  0.000  0.500
    occupations:
  0.858 -0.000 -0.000
 -0.000  0.921  0.073
 -0.000  0.073  0.921
   spin  2
    eigenvalues: 
  0.869  0.873  0.883
    eigenvectors:
  0.000  0.000  1.000
  0.499  0.501  0.000
  0.501  0.499  0.000
    occupations:
  0.883 -0.000  0.000
 -0.000  0.871 -0.002
  0.000 -0.002  0.871
atomic mag. moment =     0.075260
atom   37   Tr[ns(na)] (up, down, total) =   2.69937  2.62419  5.32356
   spin  1
    eigenvalues: 
  0.848  0.857  0.994
    eigenvectors:
  0.000  1.000  0.000
  0.500  0.000  0.500
  0.500  0.000  0.500
    occupations:
  0.857 -0.000 -0.000
 -0.000  0.921 -0.073
 -0.000 -0.073  0.921
   spin  2
    eigenvalues: 
  0.869  0.873  0.883
    eigenvectors:
  0.000  0.000  1.000
  0.501  0.499  0.000
  0.499  0.501  0.000
    occupations:
  0.883 -0.000 -0.000
 -0.000  0.871  0.002
 -0.000  0.002  0.871
atomic mag. moment =     0.075182
atom   38   Tr[ns(na)] (up, down, total) =   2.69949  2.62436  5.32386
   spin  1
    eigenvalues: 
  0.848  0.858  0.994
    eigenvectors:
  0.000  1.000  0.000
  0.500  0.000  0.500
  0.500  0.000  0.500
    occupations:
  0.858 -0.000 -0.000
 -0.000  0.921 -0.073
 -0.000 -0.073  0.921
   spin  2
    eigenvalues: 
  0.869  0.873  0.883
    eigenvectors:
  0.000  0.000  1.000
  0.500  0.500  0.000
  0.500  0.500  0.000
    occupations:
  0.883 -0.000 -0.000
 -0.000  0.871  0.002
 -0.000  0.002  0.871
atomic mag. moment =     0.075130
atom   39   Tr[ns(na)] (up, down, total) =   2.69964  2.62436  5.32400
   spin  1
    eigenvalues: 
  0.848  0.858  0.994
    eigenvectors:
  0.000  1.000  0.000
  0.500  0.000  0.500
  0.500  0.000  0.500
    occupations:
  0.858 -0.000  0.000
 -0.000  0.921  0.073
  0.000  0.073  0.921
   spin  2
    eigenvalues: 
  0.869  0.873  0.883
    eigenvectors:
  0.000  0.000  1.000
  0.497  0.503  0.000
  0.503  0.497  0.000
    occupations:
  0.883 -0.000  0.000
 -0.000  0.871 -0.002
  0.000 -0.002  0.871
atomic mag. moment =     0.075285
atom   40   Tr[ns(na)] (up, down, total) =   2.69951  2.62425  5.32377
   spin  1
    eigenvalues: 
  0.848  0.858  0.994
    eigenvectors:
  0.000  1.000  0.000
  0.500  0.000  0.500
  0.500  0.000  0.500
    occupations:
  0.858  0.000  0.000
  0.000  0.921  0.073
  0.000  0.073  0.921
   spin  2
    eigenvalues: 
  0.869  0.873  0.883
    eigenvectors:
  0.000  0.000  1.000
  0.499  0.501  0.000
  0.501  0.499  0.000
    occupations:
  0.883  0.000 -0.000
  0.000  0.871 -0.002
 -0.000 -0.002  0.871
atomic mag. moment =     0.075260
atom   41   Tr[ns(na)] (up, down, total) =   2.69960  2.62452  5.32412
   spin  1
    eigenvalues: 
  0.848  0.858  0.994
    eigenvectors:
  0.000  1.000  0.000
  0.500  0.000  0.500
  0.500  0.000  0.500
    occupations:
  0.858 -0.000 -0.000
 -0.000  0.921 -0.073
 -0.000 -0.073  0.921
   spin  2
    eigenvalues: 
  0.869  0.873  0.883
    eigenvectors:
  0.000  0.000  1.000
  0.500  0.500  0.000
  0.500  0.500  0.000
    occupations:
  0.883 -0.000 -0.000
 -0.000  0.871  0.002
 -0.000  0.002  0.871
atomic mag. moment =     0.075077
atom   42   Tr[ns(na)] (up, down, total) =   2.69980  2.62434  5.32414
   spin  1
    eigenvalues: 
  0.848  0.858  0.994
    eigenvectors:
  0.000  1.000  0.000
  0.500  0.000  0.500
  0.500  0.000  0.500
    occupations:
  0.858 -0.000 -0.000
 -0.000  0.921 -0.073
 -0.000 -0.073  0.921
   spin  2
    eigenvalues: 
  0.869  0.873  0.883
    eigenvectors:
  0.000  0.000  1.000
  0.500  0.500  0.000
  0.500  0.500  0.000
    occupations:
  0.883 -0.000 -0.000
 -0.000  0.871  0.002
 -0.000  0.002  0.871
atomic mag. moment =     0.075461
atom   43   Tr[ns(na)] (up, down, total) =   2.69956  2.62437  5.32393
   spin  1
    eigenvalues: 
  0.848  0.858  0.994
    eigenvectors:
  0.000  1.000  0.000
  0.500  0.000  0.500
  0.500  0.000  0.500
    occupations:
  0.858 -0.000  0.000
 -0.000  0.921  0.073
  0.000  0.073  0.921
   spin  2
    eigenvalues: 
  0.869  0.873  0.883
    eigenvectors:
  0.000  0.000  1.000
  0.501  0.499  0.000
  0.499  0.501  0.000
    occupations:
  0.883 -0.000  0.000
 -0.000  0.871 -0.002
  0.000 -0.002  0.871
atomic mag. moment =     0.075193
atom   44   Tr[ns(na)] (up, down, total) =   2.69956  2.62437  5.32393
   spin  1
    eigenvalues: 
  0.848  0.858  0.994
    eigenvectors:
  0.000  1.000  0.000
  0.500  0.000  0.500
  0.500  0.000  0.500
    occupations:
  0.858  0.000 -0.000
  0.000  0.921  0.073
 -0.000  0.073  0.921
   spin  2
    eigenvalues: 
  0.869  0.873  0.883
    eigenvectors:
  0.000  0.000  1.000
  0.499  0.501  0.000
  0.501  0.499  0.000
    occupations:
  0.883  0.000 -0.000
  0.000  0.871 -0.002
 -0.000 -0.002  0.871
atomic mag. moment =     0.075193
atom   45   Tr[ns(na)] (up, down, total) =   2.69922  2.62436  5.32357
   spin  1
    eigenvalues: 
  0.848  0.858  0.993
    eigenvectors:
  0.000  1.000  0.000
  0.500  0.000  0.500
  0.500  0.000  0.500
    occupations:
  0.858 -0.000 -0.000
 -0.000  0.921 -0.073
[...]
    -6.6981  -6.6763  -6.6452  -6.6451  -6.6450  -6.6355  -6.6014  -6.5896
    -6.5816  -6.5648  -6.4931  -6.4894  -6.4711  -6.4667  -6.4416  -6.4388
     3.7819   4.0942   4.3110   4.3130   4.3888   4.5130   4.6596   4.6690
     4.6769   4.7709   4.8368   4.8378   4.8402   4.8463   5.0655   5.0875
     5.0877   5.2386   5.2670   5.3417   5.3435   5.3914   5.6961   5.7009
     5.7468   5.8749   5.9271   5.9311   6.1225   6.1595   6.1738   6.1815
     6.1908   6.1910   6.2240   6.2379   6.2440   6.2682   6.2740   6.5983
     6.6016   6.6152   6.6422   6.6485   6.8117   6.9650   6.9929   6.9951
     7.0039   7.0389   7.0411   7.1347   7.1404   7.1706   7.1734   7.2204
     7.3447   7.3497   7.4004   7.8484   7.9751   8.1252   8.1299   8.1548
     8.2318   8.2329   8.4089   8.4096   8.4343   8.4927   8.6961   8.6998
     8.7353   8.7396   8.7489   8.7600   8.7617   8.8236   8.9822   9.0648
     9.1484   9.3327   9.3337   9.4106   9.5563   9.5635   9.6414   9.6857
     9.7204   9.7357   9.7388   9.9368   9.9927  10.3078  10.3115  10.8975
    11.4545  11.4797  11.7610  11.7613  11.8238  11.8253  11.8254  11.9030
    11.9156  11.9407  11.9505  12.0440  12.0444  12.1131  12.1136  12.2435
    12.2438  12.2561  12.2680  12.3014  12.4445  12.5589  12.5646  12.5649
    12.5694  12.5741  12.5748  12.5855  12.5863  12.5869  12.6215  12.6219
    12.8212  12.8380  12.9740  12.9753  13.2764  13.4195  13.4563  13.4566
    13.4631  13.5804  13.5808  13.6208  13.6217  13.7009  13.7062  13.7462
    13.8087  13.8099  13.8622  14.0165  14.0318  14.0453  14.0458  14.6932
    14.6939  14.7211  14.7314  14.8147  14.8208  15.0625  15.0645  15.1739
    15.2988  15.3057  15.3084  15.3087  15.3464  15.5003  15.5127  15.6187
    15.8532  15.8541  15.8671  15.9064  15.9069  16.2021  16.2033  16.6570
    20.1189  21.4410  21.4444  22.4914  22.7856  22.7891  22.9760  23.0811
    23.3618  23.4190  23.8390  23.8918  23.8951  23.9604  23.9627  24.0963
    24.1316  24.3789  24.3806  24.4152  24.9709  25.1718  25.3407  25.3419
    25.5853  25.5865  25.6688  25.9235  26.3575  26.3594  26.5233  26.5579
    26.7870  26.7938  26.9555  26.9576  26.9800  27.0134  27.2010  27.3495
    27.3843  27.3862  27.4238  27.7428  27.7506  27.7524  27.9794  27.9842
    28.2304  28.3356  28.3371  28.3413  28.4844  28.4857  28.4957  28.6312
    28.6324  28.7361  28.8177  29.0515  29.0546  29.2719  29.3414  29.3449
    29.5418  29.5830  29.5859  29.6186  29.7157  29.7193  29.8150  29.8322
    30.2477  30.2496  30.4669  30.4681  30.6215  30.6863  31.1354  31.2771
    31.3224  31.3238  31.4702  31.5373  31.5640  31.7670  32.0926  32.5751
    32.5757  32.7690  32.7696  32.9041  32.9073  33.2739  33.3493  33.6787
    33.7837  33.8009  33.8022  33.8847  33.9958  34.1419  34.1463  34.4733
    34.4773  34.5137  34.6918  34.6921  34.7755  34.7770  34.9614  34.9626
    35.0853  35.3095  35.3129  35.3129  35.3586  36.1489  36.1718  36.6017
    36.8982  37.2090  37.2244  37.2476  37.2483  37.3706  37.6157  37.9078
    37.9736  38.0152  38.1359  38.1369  38.2951  38.2973  38.7111  38.7122
    38.7897  38.8221  38.8244  39.0017  39.0039  39.0867  39.1052  39.5988
    39.7563  39.8742  40.3254  40.4841  40.4850  40.5848  40.5851  40.6137
    40.8545  40.9761  41.0907  41.0920  41.1564  41.1578  41.2165  41.2178
    41.3306  41.3317  41.4300  41.6609  41.6845  42.1963  42.3693  42.6165
    42.6176  42.7957  42.8881  42.9928  42.9929  43.3155  43.3878  43.4433
    43.4623  43.6457  43.6487  43.6588  44.1477  44.1515  44.2808  44.3846
    44.5708  44.7111  44.7116  44.7127  44.9493  44.9496  44.9879  45.1616
    45.2029  45.2057  45.2170  45.2275  45.2278  45.2352  45.2371  45.2588
    45.2737  45.2907  45.4476  45.4480  45.5220  45.6224  45.6233  45.8969
    45.8974  45.9147  46.2527  46.3313  46.4671  46.6730  46.8682  47.2270
    47.2912  47.4633  47.4665  47.6022  47.6033  47.6334  47.7656  47.7671
    47.7736  47.7967  47.7971  47.8626  48.1100  48.3115  48.4121  48.4135
    48.4950  48.6218  48.7864  48.9193  48.9201  48.9706  48.9709  49.5231
    49.7088  49.9959  50.0795  50.0814  50.1404  50.3122  50.4157  50.4172
    50.4462  50.6063  50.6072  50.9860  50.9873  51.1599  51.1624  51.2166
    51.2354  51.2496  51.3227  51.3239  51.3370  51.4970  51.5525  51.7414
    51.9384  52.0803  52.0888  52.0908  52.1210  52.4771  52.5458  52.6328
    52.6621  52.6935  52.6947  52.8000  52.8013  52.9217  52.9222  53.1544
    53.2852  53.3050  53.3073  53.5469  53.5477  53.7088  53.7106  53.7354
    53.8556  53.8563  53.9416  54.2019  54.2040  54.4184  54.5357  54.5891
    54.7368  54.7612  54.7647  54.7794  54.8560  54.9926  54.9938  55.0058
    55.0208  55.0731  55.0738  55.1118  55.1520  55.4321  55.4336  55.4620
    55.7331  55.7340  55.7542  55.7596  55.8172  55.9362  55.9437  55.9463
    56.0925  56.2864  56.3654  56.4714  56.5072  56.5090  56.5308  56.6172
    56.6192  56.8089  56.8614  56.8622  57.0654  57.2154  57.2936  57.2960
    57.4461  57.4796  57.4801  57.5779  57.5792  57.6523  57.7842  57.7849
    57.8838  57.9673  58.0491  58.1339  58.4334  58.4343  58.4346  58.5569

          k = 0.2500-0.2500 0.3838 ( 12442 PWs)   bands (ev):

   -67.4771 -67.4763 -67.4762 -67.4757 -67.4754 -67.4749 -67.4745 -67.4712
   -67.4680 -67.4678 -67.4676 -67.4673 -67.4672 -67.4668 -67.4661 -67.4627
   -36.4165 -36.4158 -36.4157 -36.4147 -36.4144 -36.4143 -36.4134 -36.4114
   -36.3168 -36.3143 -36.3140 -36.3123 -36.3107 -36.3099 -36.3090 -36.3060
   -36.2480 -36.2458 -36.2453 -36.2446 -36.2443 -36.2435 -36.2409 -36.2389
   -36.2248 -36.2240 -36.2238 -36.2234 -36.2234 -36.2233 -36.2228 -36.2200
   -36.1898 -36.1891 -36.1861 -36.1860 -36.1856 -36.1834 -36.1833 -36.1822
   -36.1815 -36.1810 -36.1809 -36.1807 -36.1807 -36.1804 -36.1802 -36.1780
    -8.4382  -7.9963  -7.9916  -7.7287  -7.4745  -7.4071  -7.3054  -7.2980
    -7.2278  -7.2237  -7.0675  -6.8904  -6.8764  -6.8690  -6.7940  -6.6900
    -6.6805  -6.6647  -6.6376  -6.6313  -6.6137  -6.6005  -6.5982  -6.5908
    -6.5801  -6.5677  -6.5130  -6.5092  -6.4916  -6.4878  -6.4668  -6.4611
     3.9627   4.2205   4.4593   4.4608   4.5230   4.6380   4.8100   4.8729
     4.8897   4.8952   4.9224   5.0000   5.0082   5.0422   5.0675   5.1696
     5.1734   5.1940   5.1944   5.2817   5.3312   5.4707   5.5916   5.5962
     5.6436   5.6580   5.7317   5.7343   5.7537   5.8914   5.8950   5.8985
     5.9042   5.9766   6.0695   6.1754   6.2802   6.3913   6.6146   6.6238
     6.6274   6.6720   6.6757   6.9424   6.9480   7.0155   7.0193   7.0860
     7.1448   7.3246   7.3375   7.3386   7.3441   7.3735   7.4552   7.4584
     7.5364   7.5465   7.5515   7.5725   7.5913   7.6685   7.7363   7.8164
     7.8720   7.8722   8.1221   8.1646   8.2260   8.2273   8.5666   8.6647
     8.6681   8.6927   8.6936   8.7034   8.8261   8.8365   8.8483   8.8963
     9.0202   9.2880   9.2906   9.4407   9.4633   9.5022   9.6469   9.6977
     9.7352   9.7375   9.8937   9.8980   9.9072  10.2334  10.2367  10.7339
    11.7148  11.7360  11.7363  11.7747  11.9086  12.0229  12.0230  12.0642
    12.0671  12.0909  12.1288  12.1525  12.2038  12.2041  12.2738  12.2742
    12.3131  12.3365  12.3367  12.3428  12.3968  12.4615  12.5185  12.5194
    12.5194  12.5491  12.6972  12.7057  12.7062  12.7215  12.7220  12.7473
    12.7957  12.9899  12.9908  13.0975  13.1297  13.3457  13.3674  13.3952
    13.3956  13.5459  13.5467  13.5699  13.5707  13.5734  13.6238  13.7331
    13.7334  13.9416  13.9667  13.9910  14.1216  14.1385  14.1389  14.5738
    14.5748  14.7337  14.7509  14.8011  14.8120  14.8122  14.8648  15.0142
    15.0363  15.1683  15.1688  15.2020  15.2810  15.2885  15.4928  15.6983
    15.7145  15.7150  15.7908  15.9663  15.9666  16.1434  16.1443  16.5065
    20.5623  21.8177  21.8212  22.7578  22.9599  23.2095  23.2132  23.3922
    23.4164  23.4200  23.5931  23.6768  23.6865  23.9693  24.4694  24.4718
    24.5054  24.5270  24.5293  25.2577  25.3595  25.5274  25.7651  25.7664
    25.8060  25.8488  25.8497  26.0786  26.1453  26.6353  26.6370  26.7086
    26.7483  26.8166  26.8435  27.0253  27.0358  27.0373  27.1478  27.2117
    27.2150  27.3480  27.3494  27.4085  27.4099  27.8157  27.8177  27.8221
    28.1205  28.2662  28.2670  28.3236  28.3648  28.3661  28.4849  28.5050
    28.9256  28.9267  28.9916  29.0240  29.1583  29.1601  29.2081  29.2111
    29.3742  29.3767  29.4445  29.6713  29.6835  29.6857  29.7786  29.9271
    30.0269  30.0292  30.3096  30.3323  30.3701  30.3718  30.6985  30.8722
    30.9143  30.9154  30.9695  31.2014  31.2034  31.2904  31.2963  31.4511
    31.5368  32.0065  32.0073  32.3620  32.8540  32.8552  33.2476  33.3615
    33.5642  33.5649  33.6060  33.6071  33.6163  33.9952  34.2221  34.3172
    34.7647  34.9282  35.1250  35.1264  35.2307  35.2312  35.2447  35.3048
    35.6253  36.1603  36.1613  36.1811  36.4723  36.4736  36.6372  36.6690
    36.7891  37.0109  37.7426  37.7752  37.7759  37.8833  37.8844  37.9049
    37.9839  37.9847  38.1161  38.3099  38.3549  38.3560  38.4170  38.5029
    38.5867  38.5872  38.8632  38.8636  39.0493  39.2237  39.2560  39.2573
    39.6299  39.6300  39.8090  39.9684  40.0623  40.2273  40.5003  40.7615
    40.7618  40.8466  40.8478  41.0754  41.0764  41.3508  41.5736  41.5739
    41.5836  41.5846  41.7968  41.7987  41.8211  42.0132  42.1500  42.1510
    42.1519  42.1789  42.3101  42.4746  42.5727  42.5740  42.8480  42.8485
    42.8489  43.0025  43.0065  43.0073  43.1752  43.3240  43.5335  43.7167
    44.3429  44.3553  44.3569  44.5000  44.5625  44.5630  44.6955  45.3101
    45.3490  45.4521  45.4536  45.5164  45.6909  45.8106  45.9107  45.9401
    46.1167  46.3212  46.3219  46.3442  46.6280  46.6289  46.8079  46.8085
    46.8149  46.8159  46.9393  47.2113  47.3260  47.3332  47.3616  47.3732
    47.3741  47.4583  47.4630  47.6648  47.7823  47.7834  47.7894  48.1950
    48.2942  48.2948  48.3377  48.3397  48.3684  48.5175  48.6739  48.7610
    48.7631  49.0337  49.1627  49.4209  49.4216  49.4775  49.7233  49.7259
    50.0143  50.0492  50.0508  50.2591  50.5026  50.5030  50.6319  50.6338
    50.6562  50.6576  50.9449  51.0586  51.1337  51.2227  51.2232  51.3211
    51.4610  51.6345  51.6350  51.7575  51.7617  51.8648  51.8668  51.9621
    52.0383  52.0397  52.0868  52.1170  52.2110  52.2126  52.2465  52.3858
    52.3982  52.3988  52.4855  52.5126  52.5132  52.6726  52.7198  52.7208
    52.8010  52.8920  53.0065  53.2321  53.4057  53.4063  53.4101  53.4246
    53.4257  53.4637  53.5171  53.7598  53.8687  53.8710  53.8848  53.9243
    53.9532  54.0292  54.0313  54.0875  54.1839  54.5861  54.7047  54.7658
    54.7950  54.7956  54.8330  54.8395  54.9139  54.9147  54.9922  54.9948
    55.0154  55.0339  55.5534  55.5541  55.6601  55.6711  55.6775  55.6787
    55.7060  55.7336  55.7444  55.7945  55.7963  55.8057  56.0439  56.0454
    56.4321  56.4322  56.5573  56.7408  56.7661  56.8678  56.8700  56.9814
    57.0243  57.0249  57.3180  57.3200  57.3984  57.5461  57.5464  57.5731
    57.7679  57.8679  57.8707  57.8717  58.2053  58.3397  58.3411  58.4028

          k = 0.2500-0.2500-0.7676 ( 12434 PWs)   bands (ev):

   -67.4727 -67.4726 -67.4722 -67.4721 -67.4720 -67.4719 -67.4717 -67.4715
   -67.4713 -67.4713 -67.4711 -67.4708 -67.4705 -67.4700 -67.4669 -67.4663
   -36.3672 -36.3671 -36.3655 -36.3654 -36.3652 -36.3651 -36.3641 -36.3639
   -36.3629 -36.3628 -36.3622 -36.3621 -36.3612 -36.3612 -36.3588 -36.3587
   -36.2368 -36.2368 -36.2351 -36.2349 -36.2348 -36.2347 -36.2343 -36.2342
   -36.2341 -36.2338 -36.2334 -36.2332 -36.2317 -36.2317 -36.2298 -36.2292
   -36.1855 -36.1854 -36.1850 -36.1847 -36.1833 -36.1833 -36.1832 -36.1832
   -36.1828 -36.1827 -36.1818 -36.1817 -36.1808 -36.1805 -36.1805 -36.1803
    -8.0254  -8.0193  -7.6537  -7.6449  -7.6444  -7.6443  -7.4230  -7.4148
    -7.1474  -7.1473  -7.0854  -7.0717  -7.0715  -7.0712  -6.6734  -6.6679
    -6.6524  -6.6413  -6.6204  -6.6191  -6.5753  -6.5629  -6.5629  -6.5626
    -6.5474  -6.5423  -6.5416  -6.5408  -6.5408  -6.5404  -6.5160  -6.5097
     4.4147   4.4210   4.4986   4.5078   4.7891   4.7892   4.7909   4.7913
     4.8082   4.8091   5.1161   5.1170   5.1984   5.2023   5.2863   5.2892
     5.3277   5.3279   5.3300   5.3394   5.4191   5.4192   5.4206   5.4264
     5.5022   5.5033   5.6611   5.6613   5.6655   5.6686   5.7619   5.7625
     6.2364   6.2365   6.2406   6.2471   6.3098   6.3128   6.3812   6.3849
     6.7133   6.7134   6.7139   6.7151   6.8202   6.8202   7.0442   7.0447
     7.0485   7.0493   7.1323   7.1388   7.2537   7.2586   7.5196   7.5198
     7.5242   7.5247   7.7570   7.7579   7.8031   7.8033   7.8045   7.8047
     7.8119   7.8123   7.8721   7.8757   8.1203   8.1215   8.2420   8.2446
     8.7389   8.7389   8.7418   8.7419   8.7425   8.7472   8.8971   8.8977
     9.0994   9.1043   9.2293   9.2335   9.5178   9.5179   9.5185   9.5207
     9.5870   9.5890  10.0751  10.0754  10.0756  10.0823  10.3523  10.3552
    11.8415  11.8417  11.9917  11.9921  11.9923  11.9926  12.1041  12.1045
    12.1384  12.1387  12.2461  12.2466  12.3517  12.3518  12.3518  12.3519
    12.3944  12.3944  12.4755  12.4756  12.4756  12.4758  12.5079  12.5080
    12.5409  12.5415  12.7446  12.7453  12.8069  12.8070  12.8075  12.8078
    13.0081  13.0084  13.1806  13.1806  13.2137  13.2139  13.2139  13.2149
    13.2920  13.2926  13.4484  13.4484  13.4486  13.4494  13.7119  13.7124
    13.9982  13.9984  13.9985  14.0008  14.2540  14.2542  14.4315  14.4316
    14.4316  14.4319  14.4437  14.4439  14.6580  14.6582  14.9033  14.9040
    14.9240  14.9248  15.1639  15.1640  15.3834  15.3835  15.3839  15.3839
    15.6391  15.6391  16.0440  16.0440  16.0443  16.0445  16.0820  16.0821
    21.6462  21.6483  22.6241  22.6283  22.6296  22.6306  23.2171  23.2193
    24.0282  24.0327  24.0389  24.0415  24.0428  24.0437  24.9692  24.9698
    24.9891  24.9919  25.2968  25.2993  25.6847  25.6868  25.6882  25.6895
    25.9852  25.9877  26.2946  26.2951  26.6411  26.6411  26.6448  26.6453
    26.8770  26.8783  26.9026  26.9049  26.9050  26.9063  26.9219  26.9248
    27.0491  27.0492  27.3462  27.3482  27.3486  27.3500  27.7442  27.7466
    28.3549  28.3550  28.4632  28.4653  28.4654  28.4670  28.8181  28.8190
    28.8633  28.8670  28.8680  28.8684  28.9589  28.9594  29.0599  29.0605
    29.1486  29.1490  29.3378  29.3378  29.3394  29.3395  29.5921  29.5948
    29.6013  29.6028  29.9949  29.9965  29.9973  29.9974  30.5226  30.5228
    30.7146  30.7175  30.8564  30.8573  30.8576  30.8583  31.5519  31.5519
    31.8069  31.8077  31.8079  31.8095  32.1506  32.1528  32.7561  32.7575
    33.1596  33.1613  33.1613  33.1627  33.6941  33.6943  33.7924  33.7927
    35.4338  35.4340  35.6412  35.6420  35.6423  35.6428  35.9667  35.9698
    36.0968  36.0968  36.1952  36.1955  37.0130  37.0136  37.3901  37.3912
    37.3916  37.3930  37.6421  37.6437  37.6506  37.6528  38.0253  38.0262
    38.0272  38.0275  38.4589  38.4592  38.4599  38.4608  38.5689  38.5704
    38.6572  38.6577  38.6579  38.6585  38.8962  38.8968  38.9194  38.9217
    39.6880  39.6894  40.0037  40.0062  40.0066  40.0068  40.4197  40.4207
    40.4216  40.4218  40.4896  40.4905  41.0401  41.0413  41.1678  41.1683
    41.1685  41.1697  41.3711  41.3719  41.5717  41.5722  41.8632  41.8632
    41.8766  41.8773  42.7075  42.7087  42.7093  42.7094  43.1228  43.1237
    43.2006  43.2018  43.2018  43.2030  43.4116  43.4120  44.1312  44.1317
    44.6250  44.6258  44.6259  44.6266  44.7843  44.7849  45.0774  45.0786
    45.3288  45.3295  45.3686  45.3692  45.4526  45.4530  45.4531  45.4545
    45.7233  45.7237  46.4055  46.4057  46.4062  46.4068  46.8014  46.8036
    47.3953  47.3964  47.3965  47.3976  47.4322  47.4338  47.7215  47.7233
    47.8331  47.8344  48.2110  48.2119  48.4722  48.4730  48.9652  48.9685
    48.9686  48.9693  49.2137  49.2137  49.2199  49.2209  49.2211  49.2220
    49.2589  49.2596  49.5092  49.5104  49.5107  49.5110  49.6238  49.6240
    50.0672  50.0673  50.2383  50.2388  50.7236  50.7254  50.7257  50.7262
    51.1681  51.1684  51.1689  51.1692  51.2545  51.2557  51.3721  51.3726
    51.5976  51.5992  51.6332  51.6340  51.9651  51.9657  51.9670  51.9673
    52.1867  52.1869  52.1881  52.1887  52.1904  52.1918  52.2846  52.2860
    52.3893  52.3905  52.3905  52.3912  52.5201  52.5203  52.7158  52.7160
    52.7178  52.7180  52.8226  52.8230  52.8953  52.8969  53.0183  53.0197
    53.3211  53.3216  53.3577  53.3601  53.3606  53.3609  53.5956  53.5971
    53.6868  53.6877  53.7401  53.7410  53.8573  53.8581  53.8590  53.8600
    53.8673  53.8683  54.3698  54.3698  54.3706  54.3708  54.5533  54.5548
    55.0009  55.0037  55.1719  55.1736  55.1741  55.1754  55.4118  55.4133
    55.4137  55.4149  55.5767  55.5773  55.7928  55.7941  56.0205  56.0210
    56.7286  56.7310  57.0669  57.0675  57.1122  57.1145  57.1148  57.1155
    57.2629  57.2643  57.3106  57.3125  57.3132  57.3138  57.4192  57.4205
    57.5127  57.5139  57.6039  57.6063  58.2280  58.2290  58.2299  58.2303

     the Fermi energy is    11.3910 ev

!    total energy              =   -4439.59687862 Ry
     Harris-Foulkes estimate   =   -4439.59687884 Ry
     estimated scf accuracy    <       0.00000025 Ry

     The total energy is the sum of the following terms:

     one-electron contribution =   -2118.30348979 Ry
     hartree contribution      =    1288.03587879 Ry
     xc contribution           =    -649.32976678 Ry
     ewald contribution        =   -2960.06000834 Ry
     Hubbard energy            =       0.05857480 Ry
     smearing contrib. (-TS)   =       0.00193270 Ry

     total magnetization       =    47.98 Bohr mag/cell
     absolute magnetization    =    49.33 Bohr mag/cell

     convergence has been achieved in   7 iterations

     Writing output data file pwscf.save

     init_run     :     28.33s CPU     89.60s WALL (       1 calls)
     electrons    :  10936.11s CPU  12566.77s WALL (       1 calls)

     Called by init_run:
     wfcinit      :     16.07s CPU     73.67s WALL (       1 calls)
     potinit      :      1.05s CPU      1.77s WALL (       1 calls)

     Called by electrons:
     c_bands      :  10392.11s CPU  11738.05s WALL (       7 calls)
     sum_band     :    464.42s CPU    734.26s WALL (       7 calls)
     v_of_rho     :      3.73s CPU      5.58s WALL (       8 calls)
     newd         :     83.89s CPU     96.32s WALL (       8 calls)
     mix_rho      :      0.49s CPU      0.88s WALL (       7 calls)

     Called by c_bands:
     init_us_2    :      3.03s CPU      3.18s WALL (     630 calls)
     cegterg      :  10379.63s CPU  11669.67s WALL (     294 calls)

     Called by *egterg:
     h_psi        :   1746.29s CPU   2601.09s WALL (     969 calls)
     s_psi        :    181.53s CPU    181.84s WALL (    1011 calls)
     g_psi        :      2.18s CPU      2.18s WALL (     675 calls)
     cdiaghg      :   7279.56s CPU   7375.07s WALL (     927 calls)

     Called by h_psi:
     add_vuspsi   :    176.17s CPU    177.17s WALL (     969 calls)
     vhpsi        :    383.11s CPU    530.83s WALL (     969 calls)

     General routines
     calbec       :    645.94s CPU    906.38s WALL (    2568 calls)
     fft          :      4.76s CPU      8.62s WALL (     236 calls)
     ffts         :      0.12s CPU      0.22s WALL (      30 calls)
     fftw         :   1108.14s CPU   1909.93s WALL (  976520 calls)
     interpolate  :      0.72s CPU      1.29s WALL (      30 calls)
     davcio       :      1.29s CPU    163.64s WALL (    1848 calls)

     Parallel routines
     fft_scatter  :    723.53s CPU   1508.23s WALL (  976786 calls)
     Hubbard U routines
     new_ns       :     89.21s CPU    191.51s WALL (       7 calls)
     vhpsi        :    383.11s CPU    530.83s WALL (     969 calls)

     PWSCF        :     3h 2m CPU        3h31m WALL


   This run was terminated on:   1: 6:28  15Feb2014            

=------------------------------------------------------------------------------=
   JOB DONE.
=------------------------------------------------------------------------------=
