
     Program PWSCF v.5.0.2 (svn rev. 9656) starts on 27Jan2014 at  9:39:15 

     This program is part of the open-source Quantum ESPRESSO suite
     for quantum simulation of materials; please cite
         "P. Giannozzi et al., J. Phys.:Condens. Matter 21 395502 (2009);
          URL http://www.quantum-espresso.org", 
     in publications or presentations arising from this work. More details at
     http://www.quantum-espresso.org/quote.php

     Parallel version (MPI), running on     4 processors
     R & G space division:  proc/nbgrp/npool/nimage =       4

     Current dimensions of program PWSCF are:
     Max number of different atomic species (ntypx) = 10
     Max number of k-points (npk) =  40000
     Max angular momentum in pseudopotentials (lmaxx) =  3
     Reading input from ReO2-v-1.05.in

     Subspace diagonalization in iterative solution of the eigenvalue problem:
     a serial algorithm will be used


     Parallelization info
     --------------------
     sticks:   dense  smooth     PW     G-vecs:    dense   smooth      PW
     Min         787     251     73                21613     3899     637
     Max         788     252     74                21614     3908     640
     Sum        3149    1005    293                86453    15619    2553



     bravais-lattice index     =            0
     lattice parameter (alat)  =       8.9231  a.u.
     unit-cell volume          =     457.8600 (a.u.)^3
     number of atoms/cell      =            6
     number of atomic types    =            2
     number of electrons       =        54.00
     number of Kohn-Sham states=           81
     kinetic-energy cutoff     =      40.0000  Ry
     charge density cutoff     =     500.0000  Ry
     convergence threshold     =      7.0E-06
     mixing beta               =       0.3000
     number of iterations used =            8  plain     mixing
     Exchange-correlation      = SLA  PW   PBE  PBE ( 1 4 3 4 0)
     EXX-fraction              =        0.00
     nstep                     =           50


     celldm(1)=   8.923100  celldm(2)=   0.000000  celldm(3)=   0.000000
     celldm(4)=   0.000000  celldm(5)=   0.000000  celldm(6)=   0.000000

     crystal axes: (cart. coord. in units of alat)
               a(1) = (   1.000000   0.000000   0.000000 )  
               a(2) = (   0.000000   1.000000   0.000000 )  
               a(3) = (   0.000000   0.000000   0.644444 )  

     reciprocal axes: (cart. coord. in units 2 pi/alat)
               b(1) = (  1.000000  0.000000  0.000000 )  
               b(2) = (  0.000000  1.000000  0.000000 )  
               b(3) = (  0.000000  0.000000  1.551724 )  


     PseudoPot. # 1 for Re read from file:
     /home/camp/zhonxu/pseudo/re_pbe_v1.uspp.F.UPF
     MD5 check sum: 6f5a5dcaf9c96c20d0ffdde0de57afc6
     Pseudo is Ultrasoft + core correction, Zval = 15.0
     Generated by new atomic code, or converted to UPF format
     Using radial grid of  981 points,  8 beta functions with: 
                l(1) =   0
                l(2) =   0
                l(3) =   1
                l(4) =   1
                l(5) =   2
                l(6) =   2
                l(7) =   3
                l(8) =   3
     Q(r) pseudized with  8 coefficients,  rinner =    1.000   1.000   1.000
                                                       1.000   1.000   1.000
                                                       1.000

     PseudoPot. # 2 for O  read from file:
     /home/camp/zhonxu/pseudo/o_pbe_v1.01.uspp.F.UPF
     MD5 check sum: 2bcb18d16ea4b960afae9ec6d52f22d2
     Pseudo is Ultrasoft + core correction, Zval =  6.0
     Generated by new atomic code, or converted to UPF format
     Using radial grid of  737 points,  5 beta functions with: 
                l(1) =   0
                l(2) =   0
                l(3) =   1
                l(4) =   1
                l(5) =   2
     Q(r) pseudized with  8 coefficients,  rinner =    0.900   0.900   0.900
                                                       0.900   0.900

     atomic species   valence    mass     pseudopotential
        Re0           15.00   186.20700     Re( 1.00)
        O1             6.00    15.99940     O ( 1.00)

     Starting magnetic structure 
     atomic species   magnetization
        Re0          0.600
        O1           0.000

      8 Sym. Ops., with inversion, found
          (note:  8 additional sym.ops. were found but ignored
           their fractional translations are incommensurate with FFT grid)


   Cartesian axes

     site n.     atom                  positions (alat units)
         1           Re0 tau(   1) = (   0.0000000   0.0000000   0.0000000  )
         2           Re0 tau(   2) = (   0.5000000   0.5000000   0.3222222  )
         3           O1  tau(   3) = (   0.3050000   0.3050000   0.0000000  )
         4           O1  tau(   4) = (  -0.3050000  -0.3050000   0.0000000  )
         5           O1  tau(   5) = (   0.8050000   0.1950000   0.3222222  )
         6           O1  tau(   6) = (   0.1950000   0.8050000   0.3222222  )

     number of k points=    54  Methfessel-Paxton smearing, width (Ry)=  0.0100
                       cart. coord. in units 2pi/alat
        k(    1) = (   0.0000000   0.0000000   0.0000000), wk =   0.0080000
        k(    2) = (   0.0000000   0.0000000   0.3103448), wk =   0.0160000
        k(    3) = (   0.0000000   0.0000000   0.6206897), wk =   0.0160000
        k(    4) = (   0.0000000   0.2000000   0.0000000), wk =   0.0320000
        k(    5) = (   0.0000000   0.2000000   0.3103448), wk =   0.0640000
        k(    6) = (   0.0000000   0.2000000   0.6206897), wk =   0.0640000
        k(    7) = (   0.0000000   0.4000000   0.0000000), wk =   0.0320000
        k(    8) = (   0.0000000   0.4000000   0.3103448), wk =   0.0640000
        k(    9) = (   0.0000000   0.4000000   0.6206897), wk =   0.0640000
        k(   10) = (   0.2000000   0.2000000   0.0000000), wk =   0.0160000
        k(   11) = (   0.2000000   0.2000000   0.3103448), wk =   0.0320000
        k(   12) = (   0.2000000   0.2000000   0.6206897), wk =   0.0320000
        k(   13) = (   0.2000000   0.4000000   0.0000000), wk =   0.0320000
        k(   14) = (   0.2000000   0.4000000   0.3103448), wk =   0.0640000
        k(   15) = (   0.2000000   0.4000000   0.6206897), wk =   0.0640000
        k(   16) = (   0.4000000   0.4000000   0.0000000), wk =   0.0160000
        k(   17) = (   0.4000000   0.4000000   0.3103448), wk =   0.0320000
        k(   18) = (   0.4000000   0.4000000   0.6206897), wk =   0.0320000
        k(   19) = (  -0.2000000   0.2000000   0.0000000), wk =   0.0160000
        k(   20) = (  -0.2000000   0.2000000  -0.3103448), wk =   0.0320000
        k(   21) = (  -0.2000000   0.2000000  -0.6206897), wk =   0.0320000
        k(   22) = (  -0.2000000   0.4000000   0.0000000), wk =   0.0320000
        k(   23) = (  -0.2000000   0.4000000  -0.3103448), wk =   0.0640000
        k(   24) = (  -0.2000000   0.4000000  -0.6206897), wk =   0.0640000
        k(   25) = (  -0.4000000   0.4000000   0.0000000), wk =   0.0160000
        k(   26) = (  -0.4000000   0.4000000  -0.3103448), wk =   0.0320000
        k(   27) = (  -0.4000000   0.4000000  -0.6206897), wk =   0.0320000
        k(   28) = (   0.0000000   0.0000000   0.0000000), wk =   0.0080000
        k(   29) = (   0.0000000   0.0000000   0.3103448), wk =   0.0160000
        k(   30) = (   0.0000000   0.0000000   0.6206897), wk =   0.0160000
        k(   31) = (   0.0000000   0.2000000   0.0000000), wk =   0.0320000
        k(   32) = (   0.0000000   0.2000000   0.3103448), wk =   0.0640000
        k(   33) = (   0.0000000   0.2000000   0.6206897), wk =   0.0640000
        k(   34) = (   0.0000000   0.4000000   0.0000000), wk =   0.0320000
        k(   35) = (   0.0000000   0.4000000   0.3103448), wk =   0.0640000
        k(   36) = (   0.0000000   0.4000000   0.6206897), wk =   0.0640000
        k(   37) = (   0.2000000   0.2000000   0.0000000), wk =   0.0160000
        k(   38) = (   0.2000000   0.2000000   0.3103448), wk =   0.0320000
        k(   39) = (   0.2000000   0.2000000   0.6206897), wk =   0.0320000
        k(   40) = (   0.2000000   0.4000000   0.0000000), wk =   0.0320000
        k(   41) = (   0.2000000   0.4000000   0.3103448), wk =   0.0640000
        k(   42) = (   0.2000000   0.4000000   0.6206897), wk =   0.0640000
        k(   43) = (   0.4000000   0.4000000   0.0000000), wk =   0.0160000
        k(   44) = (   0.4000000   0.4000000   0.3103448), wk =   0.0320000
        k(   45) = (   0.4000000   0.4000000   0.6206897), wk =   0.0320000
        k(   46) = (  -0.2000000   0.2000000   0.0000000), wk =   0.0160000
        k(   47) = (  -0.2000000   0.2000000  -0.3103448), wk =   0.0320000
        k(   48) = (  -0.2000000   0.2000000  -0.6206897), wk =   0.0320000
        k(   49) = (  -0.2000000   0.4000000   0.0000000), wk =   0.0320000
        k(   50) = (  -0.2000000   0.4000000  -0.3103448), wk =   0.0640000
        k(   51) = (  -0.2000000   0.4000000  -0.6206897), wk =   0.0640000
        k(   52) = (  -0.4000000   0.4000000   0.0000000), wk =   0.0160000
        k(   53) = (  -0.4000000   0.4000000  -0.3103448), wk =   0.0320000
        k(   54) = (  -0.4000000   0.4000000  -0.6206897), wk =   0.0320000

     Dense  grid:    86453 G-vectors     FFT dimensions: (  64,  64,  45)

     Smooth grid:    15619 G-vectors     FFT dimensions: (  36,  36,  24)

     Largest allocated arrays     est. size (Mb)     dimensions
        Kohn-Sham Wavefunctions         0.63 Mb     (    511,   81)
        NL pseudopotentials             0.90 Mb     (    511,  116)
        Each V/rho on FFT grid          1.50 Mb     (  49152,   2)
        Each G-vector array             0.16 Mb     (  21613)
        G-vector shells                 0.16 Mb     (  21613)
     Largest temporary arrays     est. size (Mb)     dimensions
        Auxiliary wavefunctions         2.53 Mb     (    511,  324)
        Each subspace H/S matrix        1.60 Mb     ( 324, 324)
        Each <psi_i|beta_j> matrix      0.14 Mb     (    116,   81)
        Arrays for rho mixing           6.00 Mb     (  49152,   8)

     Check: negative/imaginary core charge=   -0.000004    0.000000

     Initial potential from superposition of free atoms
     Check: negative starting charge=(component1):   -0.046755
     Check: negative starting charge=(component2):   -0.011442

     starting charge   52.99990, renormalised to   54.00000

     negative rho (up, down):  0.476E-01 0.117E-01
     Starting wfc are   42 randomized atomic wfcs

     total cpu time spent up to now is       16.3 secs

     per-process dynamical memory:    73.3 Mb

     Self-consistent Calculation

     iteration #  1     ecut=    40.00 Ry     beta=0.30
     Davidson diagonalization with overlap
     ethr =  1.00E-02,  avg # of iterations =  5.2

     negative rho (up, down):  0.347E-01 0.283E-01

     total cpu time spent up to now is       94.0 secs

     total energy              =    -517.69922806 Ry
     Harris-Foulkes estimate   =    -517.88124449 Ry
     estimated scf accuracy    <       2.29969241 Ry

     total magnetization       =     6.00 Bohr mag/cell
     absolute magnetization    =     6.38 Bohr mag/cell

     iteration #  2     ecut=    40.00 Ry     beta=0.30
     Davidson diagonalization with overlap
     ethr =  4.26E-03,  avg # of iterations =  1.0

     negative rho (up, down):  0.229E-01 0.406E-01

     total cpu time spent up to now is      126.3 secs

     total energy              =    -518.17933025 Ry
     Harris-Foulkes estimate   =    -517.94032819 Ry
     estimated scf accuracy    <       0.50021238 Ry

     total magnetization       =     5.85 Bohr mag/cell
     absolute magnetization    =     6.18 Bohr mag/cell

     iteration #  3     ecut=    40.00 Ry     beta=0.30
     Davidson diagonalization with overlap
     ethr =  9.26E-04,  avg # of iterations =  1.0

     negative rho (up, down):  0.512E-02 0.636E-01

     total cpu time spent up to now is      157.5 secs

     total energy              =    -518.38693629 Ry
     Harris-Foulkes estimate   =    -518.18507767 Ry
     estimated scf accuracy    <       0.23156053 Ry

     total magnetization       =     5.59 Bohr mag/cell
     absolute magnetization    =     5.80 Bohr mag/cell

     iteration #  4     ecut=    40.00 Ry     beta=0.30
     Davidson diagonalization with overlap
     ethr =  4.29E-04,  avg # of iterations =  1.1

     negative rho (up, down):  0.515E-02 0.634E-01

     total cpu time spent up to now is      188.8 secs

     total energy              =    -518.43190416 Ry
     Harris-Foulkes estimate   =    -518.43127839 Ry
     estimated scf accuracy    <       0.01502622 Ry

     total magnetization       =     3.99 Bohr mag/cell
     absolute magnetization    =     4.05 Bohr mag/cell

     iteration #  5     ecut=    40.00 Ry     beta=0.30
     Davidson diagonalization with overlap
     ethr =  2.78E-05,  avg # of iterations =  2.1

     negative rho (up, down):  0.813E-02 0.575E-01

     total cpu time spent up to now is      223.1 secs

     total energy              =    -518.44498899 Ry
     Harris-Foulkes estimate   =    -518.43196575 Ry
     estimated scf accuracy    <       0.01452565 Ry

     total magnetization       =     3.98 Bohr mag/cell
     absolute magnetization    =     4.04 Bohr mag/cell

     iteration #  6     ecut=    40.00 Ry     beta=0.30
     Davidson diagonalization with overlap
     ethr =  2.69E-05,  avg # of iterations =  1.0

     negative rho (up, down):  0.119E-01 0.511E-01

     total cpu time spent up to now is      271.8 secs

     total energy              =    -518.45478550 Ry
     Harris-Foulkes estimate   =    -518.44814008 Ry
     estimated scf accuracy    <       0.00595723 Ry

     total magnetization       =     3.59 Bohr mag/cell
     absolute magnetization    =     3.62 Bohr mag/cell

     iteration #  7     ecut=    40.00 Ry     beta=0.30
     Davidson diagonalization with overlap
     ethr =  1.10E-05,  avg # of iterations =  2.4

     negative rho (up, down):  0.118E-01 0.513E-01

     total cpu time spent up to now is      306.3 secs

     total energy              =    -518.45902985 Ry
     Harris-Foulkes estimate   =    -518.45927560 Ry
     estimated scf accuracy    <       0.00224055 Ry

     total magnetization       =     3.01 Bohr mag/cell
     absolute magnetization    =     3.03 Bohr mag/cell

     iteration #  8     ecut=    40.00 Ry     beta=0.30
     Davidson diagonalization with overlap
     ethr =  4.15E-06,  avg # of iterations =  1.1

     negative rho (up, down):  0.142E-01 0.473E-01

     total cpu time spent up to now is      337.1 secs

     total energy              =    -518.46248148 Ry
     Harris-Foulkes estimate   =    -518.45903760 Ry
     estimated scf accuracy    <       0.00228864 Ry

     total magnetization       =     3.03 Bohr mag/cell
     absolute magnetization    =     3.05 Bohr mag/cell

     iteration #  9     ecut=    40.00 Ry     beta=0.30
     Davidson diagonalization with overlap
     ethr =  4.15E-06,  avg # of iterations =  1.6

     negative rho (up, down):  0.159E-01 0.447E-01

     total cpu time spent up to now is      369.4 secs

     total energy              =    -518.46579491 Ry
     Harris-Foulkes estimate   =    -518.46452697 Ry
     estimated scf accuracy    <       0.00110483 Ry

     total magnetization       =     2.70 Bohr mag/cell
     absolute magnetization    =     2.71 Bohr mag/cell

     iteration # 10     ecut=    40.00 Ry     beta=0.30
     Davidson diagonalization with overlap
     ethr =  2.05E-06,  avg # of iterations =  2.4

     negative rho (up, down):  0.163E-01 0.441E-01

     total cpu time spent up to now is      404.1 secs

     total energy              =    -518.46650293 Ry
     Harris-Foulkes estimate   =    -518.46632716 Ry
     estimated scf accuracy    <       0.00029624 Ry

     total magnetization       =     2.59 Bohr mag/cell
     absolute magnetization    =     2.60 Bohr mag/cell

     iteration # 11     ecut=    40.00 Ry     beta=0.30
     Davidson diagonalization with overlap
     ethr =  5.49E-07,  avg # of iterations =  1.0

     negative rho (up, down):  0.171E-01 0.428E-01

     total cpu time spent up to now is      434.8 secs

     total energy              =    -518.46643548 Ry
     Harris-Foulkes estimate   =    -518.46655373 Ry
     estimated scf accuracy    <       0.00022524 Ry

     total magnetization       =     2.54 Bohr mag/cell
     absolute magnetization    =     2.55 Bohr mag/cell

     iteration # 12     ecut=    40.00 Ry     beta=0.30
     Davidson diagonalization with overlap
     ethr =  4.17E-07,  avg # of iterations =  1.8

     negative rho (up, down):  0.170E-01 0.429E-01

     total cpu time spent up to now is      467.5 secs

     total energy              =    -518.46665785 Ry
     Harris-Foulkes estimate   =    -518.46665617 Ry
     estimated scf accuracy    <       0.00041913 Ry

     total magnetization       =     2.41 Bohr mag/cell
     absolute magnetization    =     2.41 Bohr mag/cell

     iteration # 13     ecut=    40.00 Ry     beta=0.30
     Davidson diagonalization with overlap
     ethr =  4.17E-07,  avg # of iterations =  1.0

     negative rho (up, down):  0.176E-01 0.422E-01

     total cpu time spent up to now is      498.0 secs

     total energy              =    -518.46647931 Ry
     Harris-Foulkes estimate   =    -518.46666295 Ry
     estimated scf accuracy    <       0.00049750 Ry

     total magnetization       =     2.43 Bohr mag/cell
     absolute magnetization    =     2.43 Bohr mag/cell

     iteration # 14     ecut=    40.00 Ry     beta=0.30
     Davidson diagonalization with overlap
     ethr =  4.17E-07,  avg # of iterations =  1.7

     negative rho (up, down):  0.180E-01 0.418E-01

     total cpu time spent up to now is      530.7 secs

     total energy              =    -518.46657837 Ry
     Harris-Foulkes estimate   =    -518.46666938 Ry
     estimated scf accuracy    <       0.00019976 Ry

     total magnetization       =     2.30 Bohr mag/cell
     absolute magnetization    =     2.30 Bohr mag/cell

     iteration # 15     ecut=    40.00 Ry     beta=0.30
     Davidson diagonalization with overlap
     ethr =  3.70E-07,  avg # of iterations =  2.0

     negative rho (up, down):  0.183E-01 0.414E-01

     total cpu time spent up to now is      565.1 secs

     total energy              =    -518.46674927 Ry
     Harris-Foulkes estimate   =    -518.46675259 Ry
     estimated scf accuracy    <       0.00014563 Ry

     total magnetization       =     2.20 Bohr mag/cell
     absolute magnetization    =     2.21 Bohr mag/cell

     iteration # 16     ecut=    40.00 Ry     beta=0.30
     Davidson diagonalization with overlap
     ethr =  2.70E-07,  avg # of iterations =  1.0

     negative rho (up, down):  0.186E-01 0.410E-01

     total cpu time spent up to now is      595.4 secs

     total energy              =    -518.46677634 Ry
     Harris-Foulkes estimate   =    -518.46677661 Ry
     estimated scf accuracy    <       0.00003114 Ry

     total magnetization       =     2.15 Bohr mag/cell
     absolute magnetization    =     2.16 Bohr mag/cell

     iteration # 17     ecut=    40.00 Ry     beta=0.30
     Davidson diagonalization with overlap
     ethr =  5.77E-08,  avg # of iterations =  2.0

     negative rho (up, down):  0.183E-01 0.414E-01

     total cpu time spent up to now is      629.8 secs

     total energy              =    -518.46674409 Ry
     Harris-Foulkes estimate   =    -518.46683497 Ry
     estimated scf accuracy    <       0.00001893 Ry

     total magnetization       =     2.08 Bohr mag/cell
     absolute magnetization    =     2.08 Bohr mag/cell

     iteration # 18     ecut=    40.00 Ry     beta=0.30
     Davidson diagonalization with overlap
     ethr =  3.50E-08,  avg # of iterations =  2.0

     negative rho (up, down):  0.175E-01 0.425E-01

     total cpu time spent up to now is      664.3 secs

     total energy              =    -518.46638896 Ry
     Harris-Foulkes estimate   =    -518.46678676 Ry
     estimated scf accuracy    <       0.00000965 Ry

     total magnetization       =     2.15 Bohr mag/cell
     absolute magnetization    =     2.15 Bohr mag/cell

     iteration # 19     ecut=    40.00 Ry     beta=0.30
     Davidson diagonalization with overlap
     ethr =  1.79E-08,  avg # of iterations =  2.4

     negative rho (up, down):  0.168E-01 0.434E-01

     total cpu time spent up to now is      702.1 secs

     total energy              =    -518.46642513 Ry
     Harris-Foulkes estimate   =    -518.46669469 Ry
     estimated scf accuracy    <       0.00000850 Ry

     total magnetization       =     2.33 Bohr mag/cell
     absolute magnetization    =     2.34 Bohr mag/cell

     iteration # 20     ecut=    40.00 Ry     beta=0.30
     Davidson diagonalization with overlap
     ethr =  1.57E-08,  avg # of iterations =  2.1

     negative rho (up, down):  0.172E-01 0.428E-01

     total cpu time spent up to now is      738.7 secs

     total energy              =    -518.46660437 Ry
     Harris-Foulkes estimate   =    -518.46663293 Ry
     estimated scf accuracy    <       0.00000790 Ry

     total magnetization       =     2.47 Bohr mag/cell
     absolute magnetization    =     2.48 Bohr mag/cell

     iteration # 21     ecut=    40.00 Ry     beta=0.30
     Davidson diagonalization with overlap
     ethr =  1.46E-08,  avg # of iterations =  2.0

     negative rho (up, down):  0.173E-01 0.427E-01

     total cpu time spent up to now is      774.0 secs

     End of self-consistent calculation

 ------ SPIN UP ------------


          k = 0.0000 0.0000 0.0000 (  1955 PWs)   bands (ev):

   -67.3887 -67.3860 -29.3624 -29.3623 -29.3473 -29.3251 -29.2052 -29.2038
    -7.3613  -6.3350  -5.3143  -5.3139   4.1617   4.6161   5.9929   6.4283
     6.4290   8.5240   8.5242   9.0200  10.0985  10.3622  10.3623  10.9234
    12.2065  12.2654  13.0335  13.0341  13.1332  16.1100  16.3926  17.3075
    19.4244  19.4251  20.7402  21.9118  21.9124  25.6109  25.8004  26.1907
    28.8288  29.2780  29.2781  29.4760  31.3382  32.5466  33.3320  33.3323
    34.4119  34.4122  35.7258  38.9169  39.3802  39.3804  39.7248  40.7011
    41.6665  42.1638  42.6039  42.6986  42.6988  43.3740  43.3740  43.8616
    44.3912  44.7087  44.7092  45.9462  47.8660  49.7436  49.7440  50.4875
    50.5707  50.8917  50.8921  51.5181  52.2247  52.2968  52.2969  52.5790
    53.1065

          k = 0.0000 0.0000 0.3103 (  1939 PWs)   bands (ev):

   -67.3845 -67.3822 -29.4571 -29.4398 -29.3501 -29.3499 -29.1893 -29.1878
    -6.9380  -6.0625  -5.5599  -5.5594   4.8395   5.1268   6.3871   6.3877
     6.4470   7.7010   8.5456   9.0334   9.0335   9.4448   9.4450  10.7638
    12.8567  12.8845  13.1697  13.7026  13.7030  15.8679  16.8779  18.3866
    18.7976  18.7984  20.3879  23.5952  23.5958  25.6749  26.0440  26.4464
    26.8545  28.6047  28.8824  28.8827  29.2238  34.0094  34.1133  34.1136
    34.2465  34.2470  35.7456  38.5898  38.6393  38.9176  38.9669  38.9671
    39.7742  40.2857  40.4717  40.4720  43.3907  44.6399  44.6402  46.1743
    46.6104  46.6168  46.6168  46.8061  47.7516  49.0137  49.0276  49.0281
    50.1827  50.4898  50.4899  52.6727  53.3861  53.4080  54.3145  54.3148
    54.6776

          k = 0.0000 0.0000 0.6207 (  1964 PWs)   bands (ev):

   -67.3774 -67.3762 -29.6297 -29.6229 -29.3310 -29.3308 -29.1625 -29.1609
    -6.1005  -5.9391  -5.9387  -5.7327   5.8905   6.1158   6.3350   6.7354
     6.7356   6.9902   7.7220   8.1027   8.1031   9.4767   9.5039   9.5041
    13.3338  13.6759  14.1528  14.5316  14.5320  14.6154  17.6684  17.9884
    18.6274  18.6282  21.8611  24.2792  25.6258  25.9776  25.9782  26.0493
    26.7185  27.5860  27.8375  27.8380  28.1526  29.9528  33.7333  33.7335
    35.1022  35.1022  36.7259  36.9739  37.8225  38.2368  38.8191  39.0990
    39.0994  40.9047  40.9047  41.9877  44.3566  44.3569  44.9322  46.6894
    46.6899  47.0979  47.0980  47.2299  47.7463  48.5446  48.8646  50.4629
    50.5866  50.5868  51.5269  51.7472  52.7788  52.7790  54.7938  55.1762
    55.4068

          k = 0.0000 0.2000 0.0000 (  1940 PWs)   bands (ev):

   -67.3885 -67.3862 -29.3591 -29.3588 -29.3450 -29.3271 -29.2090 -29.2075
    -7.2230  -6.3252  -5.4666  -5.3916   4.4905   4.8547   6.2454   6.4579
     6.4678   8.1104   8.2174   8.9641   9.5761   9.7965  10.1023  10.7982
    12.5060  12.6401  13.2636  13.3347  13.5392  16.0621  16.5465  17.9379
    19.2239  19.2570  20.2837  21.7342  22.1206  25.2575  25.9209  25.9784
    27.5369  29.8610  29.8918  30.0912  31.7471  32.3247  32.5210  32.5883
    34.3445  35.2587  37.0321  37.8373  39.2809  39.3964  40.1623  40.7309
    41.0720  41.8173  41.9077  42.4879  43.2149  43.7884  43.8577  44.5208
    45.3029  45.5497  45.5948  46.4033  47.7374  49.0613  49.0649  49.4809
    49.8018  49.8918  50.2529  50.7486  50.9946  52.2869  52.5478  54.2890
    54.8097

          k = 0.0000 0.2000 0.3103 (  1945 PWs)   bands (ev):

   -67.3843 -67.3824 -29.4566 -29.4425 -29.3471 -29.3469 -29.1917 -29.1901
    -6.8225  -6.0342  -5.6936  -5.6114   5.0734   5.3501   6.2804   6.3586
     6.8702   7.5527   8.0071   8.7643   8.7819   9.4460   9.5078  10.6237
    12.8342  13.2739  13.4283  13.6436  14.0035  15.6368  17.1543  17.9716
    18.5930  19.4961  20.1342  23.1026  23.6746  25.5074  26.1361  26.3528
    26.9822  28.3684  28.3709  29.1854  30.4032  32.9331  33.3396  33.9579
    34.2607  34.8682  36.7498  37.8517  38.0493  38.2050  39.0474  39.6438
    40.2523  40.5284  41.1159  42.0221  44.3705  44.3782  45.0610  45.1342
    45.7649  46.7642  46.7989  47.2044  48.4010  48.6083  48.8243  48.8923
    49.2931  50.0595  50.9351  52.1406  52.5692  53.2522  54.2469  54.7316
    55.1403

          k = 0.0000 0.2000 0.6207 (  1948 PWs)   bands (ev):

   -67.3773 -67.3763 -29.6298 -29.6245 -29.3299 -29.3296 -29.1628 -29.1612
    -6.2220  -6.0924  -5.7712  -5.6012   5.8476   5.8521   6.0903   6.4622
     6.9972   7.2354   7.9288   8.3551   8.4192   9.2513   9.3401   9.7578
    12.8953  13.7722  13.8566  14.1816  14.7548  14.9868  17.3942  17.5295
    18.8890  19.3850  21.8687  23.8978  24.8969  25.3368  26.1176  26.3175
    27.2006  27.3695  27.4678  28.0209  29.7258  29.7619  33.3167  33.5659
    34.6466  35.1507  36.3318  36.8915  38.2669  38.3648  39.1552  39.3987
    40.4350  40.4816  40.7372  42.8684  44.4135  44.6865  45.2159  45.5326
    46.4541  46.5645  46.8670  47.9026  48.1976  48.6202  48.7680  49.9167
    50.0680  50.9477  51.6186  51.9715  53.3431  53.4881  53.6576  53.9973
    55.2136

          k = 0.0000 0.4000 0.0000 (  1968 PWs)   bands (ev):

   -67.3879 -67.3868 -29.3534 -29.3531 -29.3396 -29.3327 -29.2157 -29.2141
    -6.8567  -6.4525  -5.6597  -5.5654   5.2105   5.3616   6.5144   6.5251
     6.9838   7.3681   7.4720   8.1995   8.9734   9.2770  10.0971  10.4309
    12.8955  12.9784  13.6758  13.7404  14.3709  15.2888  17.6933  18.9077
    18.9435  19.0780  19.4110  20.8455  22.8554  24.1090  25.9694  26.4211
    26.9535  28.8142  30.1902  30.9878  30.9929  32.1238  32.8073  34.1337
    34.4783  36.0536  37.2371  38.1436  38.1547  38.9347  39.2630  39.3370
    41.4535  41.4884  42.6137  43.2995  43.8614  44.3327  44.5414  45.0868
    46.4021  46.5979  46.9376  47.4516  47.6655  48.0577  48.1907  48.2042
    49.0424  49.5952  49.6429  50.2925  50.6731  50.7181  53.8953  53.9331
    54.1238

          k = 0.0000 0.4000 0.3103 (  1956 PWs)   bands (ev):

   -67.3838 -67.3828 -29.4541 -29.4485 -29.3419 -29.3417 -29.1957 -29.1941
    -6.5116  -6.1254  -5.8546  -5.7369   5.6529   5.9112   6.1850   6.3155
     7.0785   7.2869   7.7927   8.1471   8.2611   8.9294   9.9355  10.2938
    13.1441  13.4212  13.8367  13.8881  14.5399  15.0829  17.5216  17.5554
    18.5685  19.3988  20.7390  22.0313  24.0623  24.8227  26.1016  26.5111
    27.3351  27.7835  28.3619  29.5369  31.0555  31.9573  33.3729  34.2355
    34.3799  35.3211  36.7560  36.9787  38.0712  38.0887  39.0016  39.0514
    40.5124  42.2307  42.3860  43.3389  43.7819  44.4659  45.0592  45.5711
    46.3203  46.6451  46.6767  47.1229  48.2663  48.3376  48.4993  48.8158
    49.7204  50.1015  50.6419  52.3400  52.4298  53.0228  53.2892  53.5458
    54.0516

          k = 0.0000 0.4000 0.6207 (  1959 PWs)   bands (ev):

   -67.3772 -67.3764 -29.6299 -29.6275 -29.3281 -29.3279 -29.1634 -29.1618
    -6.2989  -6.2514  -5.5827  -5.5145   5.5632   5.6614   6.0506   6.1152
     7.3287   7.6897   7.9623   8.6253   8.7506   8.9049   9.4803  10.0870
    12.3874  12.8791  14.0870  14.2049  15.0185  15.0994  17.0186  17.1697
    19.5299  19.9110  22.1437  22.9582  24.6471  24.8283  26.1050  26.1678
    26.8369  27.0456  28.0260  28.8179  29.6785  30.8568  32.6103  33.1954
    34.8838  35.2915  36.2942  36.5912  38.3381  38.3838  39.5213  39.7038
    40.6367  40.7855  42.9350  43.4485  43.4905  43.9010  45.1732  45.5413
    46.4216  46.4719  46.8741  47.6101  48.1137  48.2413  49.3428  50.5378
    51.0197  51.0885  52.0733  52.1523  52.4523  52.7501  53.9414  54.0219
    55.0262

          k = 0.2000 0.2000 0.0000 (  1955 PWs)   bands (ev):

   -67.3883 -67.3864 -29.3636 -29.3527 -29.3433 -29.3288 -29.2159 -29.2030
    -7.1245  -6.3446  -5.6211  -5.3486   4.3740   5.3241   6.4083   6.4799
     6.5273   7.3918   8.5104   8.9420   9.4735   9.7450   9.8057  10.6868
    12.2251  12.9448  13.0456  13.7106  13.8942  15.8707  16.5780  18.7410
    18.9252  19.4203  19.7444  21.9417  22.0332  24.7235  25.5976  26.4178
    27.0087  29.0672  30.3131  31.8194  31.9536  32.5689  32.7143  32.8053
    33.4863  34.8908  36.8882  37.2064  38.8321  39.5011  39.8676  40.0231
    41.1710  42.3043  42.6018  43.1916  43.1953  44.0795  44.6958  44.9215
    45.2521  45.8247  46.0838  47.0205  47.7869  47.8684  48.0146  49.0957
    49.2361  50.1142  50.3371  51.0376  52.3055  52.6287  52.9834  52.9924
    53.4889

          k = 0.2000 0.2000 0.3103 (  1949 PWs)   bands (ev):

   -67.3841 -67.3825 -29.4558 -29.4439 -29.3511 -29.3414 -29.1958 -29.1874
    -6.7363  -6.0237  -5.8283  -5.5899   4.9566   5.7977   6.1571   6.3495
     7.1077   7.2835   8.0828   8.2971   8.9654   9.3588   9.6572  10.4460
    12.8831  13.0112  13.5023  14.0031  14.1553  15.4530  17.2666  17.6751
    18.7700  19.7953  20.0364  23.2066  23.2068  25.0652  26.0710  26.2707
    27.0170  28.0777  29.0517  29.7093  30.4964  31.9412  33.4357  34.1461
    34.5473  35.1663  36.5060  37.5480  37.9435  38.2271  39.4369  39.6461
    40.0587  41.1735  42.1646  42.3024  44.1201  44.1620  45.2166  45.2379
    45.4000  46.4000  47.3147  47.7741  48.1092  48.4220  48.6291  48.9779
    49.1695  49.7702  50.4100  51.2733  53.2656  53.2875  54.1321  54.3562
    55.5751

          k = 0.2000 0.2000 0.6207 (  1956 PWs)   bands (ev):

   -67.3773 -67.3763 -29.6300 -29.6249 -29.3314 -29.3277 -29.1633 -29.1612
    -6.2914  -5.9637  -5.8943  -5.5259   5.6604   6.0022   6.0960   6.3841
     6.5092   7.7550   7.9627   8.4668   8.5822   8.9666   9.4818   9.9619
    12.6713  13.8612  14.0045  14.1116  14.2655  15.2198  17.0069  18.0542
    18.5922  19.6927  21.9132  23.8104  24.4886  24.8694  25.3768  25.9978
    26.5162  28.0853  28.4031  29.0081  29.5199  30.3248  32.9824  33.4100
    34.3807  34.9774  35.6227  37.8301  38.2692  39.2918  39.6520  40.0297
    40.1400  40.6000  41.1696  43.0809  44.0181  44.6210  45.0641  45.7064
    45.8614  46.1941  46.9930  47.4760  47.9162  48.6577  49.1530  49.6508
    50.0139  51.0293  51.7989  52.0281  52.1764  53.3954  54.0996  54.1567
    55.2123

          k = 0.2000 0.4000 0.0000 (  1956 PWs)   bands (ev):

   -67.3879 -67.3868 -29.3608 -29.3538 -29.3389 -29.3331 -29.2151 -29.2065
    -6.8609  -6.5349  -5.6335  -5.4631   4.6705   5.2919   6.4332   6.5071
     7.1392   7.4369   8.1041   8.6822   9.0852   9.4487   9.7329  10.2235
    12.5608  12.9378  13.3096  13.7157  14.5883  15.3140  17.3134  18.5507
    18.9225  19.2349  20.1248  21.3168  22.7200  23.8130  25.5394  25.9797
    27.1430  28.3969  31.4074  31.9298  32.1493  32.3080  32.7353  33.7327
    34.3809  35.0054  35.9962  37.4180  37.8694  38.4485  38.9845  39.8588
    41.4347  41.5000  43.1832  43.4943  44.1590  44.4683  45.6637  45.8606
    45.9786  46.4975  46.5642  47.3211  47.8407  48.3306  48.4541  48.4680
    49.2392  49.8642  50.1712  50.2969  50.7094  51.5713  52.0594  52.5765
    54.1989

          k = 0.2000 0.4000 0.3103 (  1951 PWs)   bands (ev):

   -67.3838 -67.3828 -29.4529 -29.4479 -29.3483 -29.3422 -29.1954 -29.1896
    -6.5068  -6.2118  -5.8123  -5.6743   5.1933   5.7836   6.1751   6.2062
     7.2815   7.6487   7.9763   8.3218   8.6566   9.0300   9.6948  10.0459
    13.1723  13.3422  13.4698  13.9473  14.5051  14.9863  17.5682  17.7791
    18.6103  19.1256  21.1283  22.2265  23.6273  24.3395  25.9944  26.2590
    27.2331  27.6964  29.1200  29.8211  30.9807  31.7547  33.4142  34.5968
    34.9036  35.4558  36.5982  36.7736  38.2434  38.4068  39.0873  39.5831
    40.3498  41.5942  42.3143  42.9699  43.8353  44.9460  44.9798  45.5292
    45.7222  46.7706  46.8594  47.2837  47.9356  48.2731  48.5443  48.6746
    49.8671  50.1696  51.0953  51.1826  51.6491  52.2792  53.0212  53.6703
    55.1988

          k = 0.2000 0.4000 0.6207 (  1963 PWs)   bands (ev):

   -67.3772 -67.3764 -29.6293 -29.6265 -29.3305 -29.3281 -29.1634 -29.1616
    -6.2791  -6.1462  -5.6927  -5.5386   5.5637   5.7205   6.1160   6.2412
     6.8460   7.5203   8.1029   8.3333   8.9126   9.2375   9.6227  10.1501
    12.5433  13.1526  14.0132  14.1617  14.6011  15.0506  17.0844  17.6166
    19.1688  19.7361  22.2224  22.9934  24.0949  24.4017  25.2116  25.6292
    26.5890  27.4331  29.0197  29.5014  30.2115  31.4123  32.4105  33.2865
    34.7105  35.2522  35.5940  36.8939  39.0558  39.3640  39.8167  40.0822
    41.1748  41.6044  42.4497  42.9021  43.6101  43.9692  45.0371  45.3893
    45.7791  46.0433  46.4237  47.1412  48.1234  48.8256  49.2994  49.4649
    50.1247  50.2263  51.1627  51.7425  52.4252  52.7700  53.7130  54.5450
    55.0086

          k = 0.4000 0.4000 0.0000 (  1958 PWs)   bands (ev):

   -67.3878 -67.3869 -29.3659 -29.3619 -29.3372 -29.3347 -29.2072 -29.2017
    -6.8246  -6.7024  -5.4942  -5.4031   4.4001   4.6755   6.3739   6.4145
     7.7064   8.1391   8.5003   8.9753   9.3565   9.3991   9.6023   9.9567
    12.1914  12.5450  13.0656  13.3215  14.9795  15.2463  17.2141  17.7011
    19.2302  19.4125  21.1983  21.8349  22.5537  23.2127  25.0263  25.1908
    27.8498  28.5109  32.5375  32.5682  32.6023  32.6704  33.4082  33.7002
    34.0522  34.1261  35.5903  36.5592  36.6305  38.4335  39.0932  40.2314
    40.5415  41.8965  41.9786  42.4899  44.2604  45.4117  45.5417  46.3297
    46.5422  46.5836  47.4393  47.9474  48.3103  48.5197  48.9157  49.1832
    49.6594  49.7111  50.5832  50.7528  50.8160  51.4979  51.6274  52.9863
    54.8669

          k = 0.4000 0.4000 0.3103 (  1964 PWs)   bands (ev):

   -67.3837 -67.3829 -29.4504 -29.4477 -29.3527 -29.3489 -29.1907 -29.1867
    -6.4654  -6.3603  -5.7037  -5.6380   4.9610   5.1946   6.0906   6.1472
     7.8698   8.2052   8.2487   8.8322   8.9047   9.1980   9.2488   9.5302
    12.9940  13.3075  13.3777  13.5772  14.5591  14.7522  17.8660  17.9736
    18.7104  18.7182  21.8740  22.5250  22.9413  23.5187  26.0506  26.0697
    27.2312  27.7252  28.7114  29.3466  31.7907  32.8233  33.4777  34.9029
    35.0885  35.3948  36.9989  37.6429  37.8259  38.9824  39.3736  39.8344
    40.5850  40.8658  41.8314  42.2766  43.4054  43.9158  45.1535  45.3665
    45.9871  46.1156  46.6039  47.3054  47.5698  48.5603  49.0180  49.1676
    49.8885  50.3494  51.1047  51.4243  51.5650  52.4118  53.7063  53.9457
    54.0210

          k = 0.4000 0.4000 0.6207 (  1972 PWs)   bands (ev):

   -67.3772 -67.3764 -29.6276 -29.6256 -29.3321 -29.3305 -29.1632 -29.1615
    -6.1538  -6.0034  -5.8376  -5.6764   5.6560   5.8494   6.1231   6.2490
     6.6853   7.0895   7.9992   8.1327   9.2817   9.4491   9.9163  10.1704
    13.0383  13.6649  13.9338  14.0114  14.0479  14.5879  17.6095  18.2841
    18.5164  19.1793  22.4143  22.8426  23.3970  23.6592  25.2247  25.3380
    26.0847  26.5597  30.1332  30.1689  31.4201  32.0177  32.6638  33.2771
    35.2400  35.4258  35.4317  36.6871  39.5328  39.5819  40.9479  41.0745
    41.2121  42.0660  42.1725  43.4534  43.9513  44.0776  44.7850  44.8803
    45.4605  45.6312  46.1952  46.3962  47.1233  47.6262  47.8324  49.4560
    49.5436  50.5808  50.5917  51.3420  51.7230  51.8595  53.0332  53.6593
    54.5635

          k =-0.2000 0.2000 0.0000 (  1955 PWs)   bands (ev):

   -67.3883 -67.3864 -29.3635 -29.3529 -29.3433 -29.3288 -29.2144 -29.2045
    -7.1247  -6.3444  -5.6207  -5.3490   4.3733   5.3249   6.4076   6.4799
     6.5280   7.3922   8.5104   8.9422   9.4734   9.7446   9.8055  10.6868
    12.2232  12.9467  13.0462  13.7101  13.8942  15.8708  16.5777  18.7412
    18.9261  19.4196  19.7446  21.9422  22.0327  24.7231  25.5976  26.4181
    27.0087  29.0671  30.3131  31.8193  31.9536  32.5688  32.7142  32.8054
    33.4864  34.8905  36.8882  37.2066  38.8319  39.5014  39.8674  40.0233
    41.1714  42.3041  42.6021  43.1913  43.1951  44.0793  44.6958  44.9214
    45.2522  45.8246  46.0838  47.0209  47.7870  47.8682  48.0150  49.0955
    49.2363  50.1138  50.3375  51.0370  52.3055  52.6293  52.9832  52.9924
    53.4887

          k =-0.2000 0.2000-0.3103 (  1949 PWs)   bands (ev):

   -67.3841 -67.3825 -29.4556 -29.4441 -29.3510 -29.3416 -29.1942 -29.1889
    -6.7364  -6.0235  -5.8279  -5.5903   4.9560   5.7983   6.1567   6.3502
     7.1075   7.2839   8.0825   8.2971   8.9654   9.3585   9.6573  10.4459
    12.8832  13.0094  13.5031  14.0037  14.1558  15.4530  17.2665  17.6756
    18.7692  19.7954  20.0367  23.2064  23.2070  25.0647  26.0711  26.2707
    27.0169  28.0778  29.0518  29.7092  30.4966  31.9410  33.4360  34.1464
    34.5470  35.1662  36.5062  37.5481  37.9434  38.2268  39.4369  39.6459
    40.0587  41.1735  42.1645  42.3023  44.1201  44.1617  45.2167  45.2377
    45.4001  46.4002  47.3151  47.7739  48.1094  48.4223  48.6291  48.9776
    49.1693  49.7704  50.4102  51.2729  53.2656  53.2876  54.1324  54.3559
    55.5748

          k =-0.2000 0.2000-0.6207 (  1956 PWs)   bands (ev):

   -67.3773 -67.3763 -29.6295 -29.6254 -29.3312 -29.3280 -29.1628 -29.1617
    -6.2910  -5.9641  -5.8946  -5.5255   5.6609   6.0021   6.0960   6.3840
     6.5086   7.7554   7.9623   8.4668   8.5828   8.9667   9.4816   9.9620
    12.6710  13.8597  14.0053  14.1122  14.2659  15.2198  17.0072  18.0542
    18.5914  19.6929  21.9133  23.8104  24.4886  24.8695  25.3767  25.9975
    26.5162  28.0851  28.4028  29.0083  29.5202  30.3251  32.9823  33.4101
    34.3809  34.9774  35.6228  37.8299  38.2689  39.2913  39.6521  40.0301
    40.1398  40.6001  41.1694  43.0807  44.0180  44.6208  45.0642  45.7068
    45.8614  46.1945  46.9929  47.4761  47.9165  48.6577  49.1528  49.6506
    50.0138  51.0292  51.7988  52.0283  52.1767  53.3953  54.0991  54.1569
    55.2123

          k =-0.2000 0.4000 0.0000 (  1956 PWs)   bands (ev):

   -67.3879 -67.3868 -29.3607 -29.3540 -29.3389 -29.3332 -29.2135 -29.2080
    -6.8612  -6.5346  -5.6332  -5.4635   4.6698   5.2927   6.4325   6.5078
     7.1391   7.4373   8.1042   8.6818   9.0855   9.4484   9.7329  10.2234
    12.5589  12.9397  13.3102  13.7151  14.5882  15.3141  17.3131  18.5509
    18.9234  19.2341  20.1250  21.3167  22.7201  23.8127  25.5394  25.9797
    27.1433  28.3967  31.4074  31.9298  32.1493  32.3081  32.7352  33.7324
    34.3809  35.0056  35.9964  37.4182  37.8695  38.4483  38.9842  39.8588
    41.4346  41.5002  43.1835  43.4941  44.1587  44.4683  45.6638  45.8606
    45.9785  46.4976  46.5640  47.3211  47.8408  48.3307  48.4543  48.4681
    49.2395  49.8637  50.1710  50.2968  50.7099  51.5711  52.0592  52.5766
    54.1988

          k =-0.2000 0.4000-0.3103 (  1951 PWs)   bands (ev):

   -67.3838 -67.3828 -29.4526 -29.4483 -29.3481 -29.3424 -29.1938 -29.1911
    -6.5071  -6.2114  -5.8120  -5.6747   5.1927   5.7842   6.1746   6.2068
     7.2819   7.6484   7.9761   8.3223   8.6565   9.0297   9.6949  10.0459
    13.1719  13.3417  13.4697  13.9483  14.5053  14.9862  17.5686  17.7789
    18.6097  19.1259  21.1285  22.2264  23.6275  24.3392  25.9944  26.2589
    27.2329  27.6964  29.1203  29.8208  30.9807  31.7548  33.4145  34.5969
    34.9034  35.4559  36.5983  36.7736  38.2432  38.4067  39.0873  39.5831
    40.3496  41.5944  42.3143  42.9698  43.8351  44.9459  44.9798  45.5292
    45.7223  46.7707  46.8596  47.2836  47.9356  48.2731  48.5444  48.6744
    49.8675  50.1696  51.0953  51.1823  51.6492  52.2793  53.0209  53.6703
    55.1989

          k =-0.2000 0.4000-0.6207 (  1963 PWs)   bands (ev):

   -67.3772 -67.3764 -29.6286 -29.6272 -29.3303 -29.3283 -29.1631 -29.1618
    -6.2787  -6.1466  -5.6930  -5.5383   5.5641   5.7202   6.1164   6.2407
     6.8456   7.5206   8.1026   8.3336   8.9127   9.2373   9.6229  10.1501
    12.5430  13.1529  14.0113  14.1636  14.6011  15.0506  17.0849  17.6162
    19.1684  19.7363  22.2224  22.9934  24.0951  24.4015  25.2120  25.6287
    26.5891  27.4329  29.0196  29.5016  30.2115  31.4125  32.4107  33.2861
    34.7112  35.2522  35.5942  36.8932  39.0557  39.3641  39.8165  40.0824
    41.1749  41.6043  42.4496  42.9022  43.6099  43.9692  45.0371  45.3894
    45.7790  46.0436  46.4237  47.1412  48.1233  48.8255  49.2996  49.4649
    50.1246  50.2262  51.1628  51.7424  52.4253  52.7700  53.7129  54.5451
    55.0086

          k =-0.4000 0.4000 0.0000 (  1958 PWs)   bands (ev):

   -67.3878 -67.3869 -29.3658 -29.3620 -29.3371 -29.3347 -29.2058 -29.2032
    -6.8250  -6.7020  -5.4938  -5.4035   4.3994   4.6762   6.3732   6.4152
     7.7063   8.1393   8.5006   8.9750   9.3566   9.3996   9.6018   9.9565
    12.1896  12.5468  13.0663  13.3209  14.9794  15.2464  17.2138  17.7014
    19.2310  19.4118  21.1985  21.8346  22.5540  23.2125  25.0263  25.1909
    27.8501  28.5106  32.5377  32.5679  32.6023  32.6702  33.4084  33.6999
    34.0525  34.1261  35.5905  36.5590  36.6307  38.4335  39.0929  40.2315
    40.5412  41.8963  41.9788  42.4901  44.2608  45.4115  45.5416  46.3295
    46.5419  46.5839  47.4394  47.9473  48.3103  48.5197  48.9157  49.1835
    49.6595  49.7114  50.5833  50.7532  50.8156  51.4977  51.6273  52.9863
    54.8667

          k =-0.4000 0.4000-0.3103 (  1964 PWs)   bands (ev):

   -67.3837 -67.3829 -29.4499 -29.4483 -29.3525 -29.3491 -29.1892 -29.1882
    -6.4658  -6.3598  -5.7033  -5.6384   4.9604   5.1952   6.0902   6.1477
     7.8703   8.2045   8.2486   8.8325   8.9053   9.1981   9.2485   9.5300
    12.9922  13.3092  13.3782  13.5767  14.5595  14.7519  17.8658  17.9738
    18.7110  18.7175  21.8742  22.5248  22.9414  23.5185  26.0508  26.0694
    27.2311  27.7253  28.7117  29.3463  31.7905  32.8235  33.4781  34.9027
    35.0881  35.3952  36.9989  37.6428  37.8259  38.9823  39.3733  39.8346
    40.5848  40.8660  41.8316  42.2765  43.4051  43.9160  45.1533  45.3666
    45.9869  46.1157  46.6042  47.3054  47.5697  48.5604  49.0181  49.1678
    49.8882  50.3490  51.1050  51.4243  51.5655  52.4118  53.7062  53.9455
    54.0211

          k =-0.4000 0.4000-0.6207 (  1972 PWs)   bands (ev):

   -67.3772 -67.3764 -29.6269 -29.6262 -29.3319 -29.3307 -29.1631 -29.1616
    -6.1534  -6.0038  -5.8380  -5.6760   5.6564   5.8493   6.1230   6.2488
     6.6851   7.0897   7.9987   8.1332   9.2817   9.4491   9.9166  10.1703
    13.0379  13.6658  13.9322  14.0111  14.0493  14.5879  17.6099  18.2841
    18.5156  19.1796  22.4142  22.8428  23.3969  23.6592  25.2250  25.3375
    26.0850  26.5595  30.1332  30.1689  31.4200  32.0179  32.6644  33.2764
    35.2409  35.4258  35.4317  36.6863  39.5327  39.5819  40.9479  41.0742
    41.2120  42.0662  42.1728  43.4533  43.9513  44.0775  44.7852  44.8802
    45.4605  45.6315  46.1950  46.3959  47.1233  47.6261  47.8327  49.4562
    49.5435  50.5808  50.5917  51.3420  51.7229  51.8595  53.0330  53.6596
    54.5637

 ------ SPIN DOWN ----------


          k = 0.0000 0.0000 0.0000 (  1955 PWs)   bands (ev):

   -66.8856 -66.8829 -28.8051 -28.8043 -28.6262 -28.6256 -28.5093 -28.4863
    -7.2297  -6.2040  -5.2131  -5.2130   4.5110   4.9365   6.1913   6.6772
     6.6773   8.6387   8.6388   9.1503  10.2208  10.4602  10.4602  11.0573
    13.1293  13.1981  13.6819  14.0925  14.0935  16.6651  16.8647  17.6490
    19.8485  19.8485  21.1907  22.2097  22.2098  25.9097  26.1478  26.4795
    29.1156  29.5905  29.5958  29.5960  31.8955  32.8166  33.7849  33.7850
    34.7390  34.7394  35.8166  39.1217  39.5745  39.5747  39.9112  41.0981
    41.7947  42.8302  42.8303  42.8398  43.0078  43.5301  43.5301  44.1305
    44.7685  44.9661  44.9662  46.0178  48.1838  50.0590  50.0591  50.9170
    51.2474  51.2474  51.4370  51.6872  52.4921  52.4923  52.6399  52.8406
    53.2948

          k = 0.0000 0.0000 0.3103 (  1939 PWs)   bands (ev):

   -66.8814 -66.8792 -28.7933 -28.7925 -28.6207 -28.6092 -28.6086 -28.6028
    -6.8121  -5.9382  -5.4536  -5.4536   5.1484   5.4131   6.6303   6.6305
     6.6433   7.9102   8.7721   9.1728   9.1729   9.6752   9.6754  10.8647
    13.4316  13.7613  14.1603  14.5581  14.5590  16.3381  17.4245  18.6774
    19.2462  19.2463  20.8611  23.9040  23.9040  26.1556  26.2086  26.7788
    27.1527  28.7122  29.1664  29.1666  29.7016  34.2176  34.4327  34.4329
    34.6939  34.6940  36.2800  38.6665  39.0278  39.1570  39.1636  39.1638
    40.1089  40.6093  40.7259  40.7261  43.7322  44.8843  44.8844  46.2711
    46.7665  46.7665  46.9059  47.0952  48.0546  49.3032  49.3033  49.5773
    50.3810  50.7949  50.7951  52.9657  53.5843  53.7034  54.7454  54.7454
    54.8162

          k = 0.0000 0.0000 0.6207 (  1964 PWs)   bands (ev):

   -66.8745 -66.8734 -28.7956 -28.7885 -28.7749 -28.7741 -28.5808 -28.5801
    -5.9857  -5.8262  -5.8261  -5.6194   6.1281   6.3585   6.5475   7.0353
     7.0356   7.2053   7.9086   8.3354   8.3355   9.6286   9.6579   9.6580
    13.8468  14.7133  15.0904  15.3027  15.3036  15.3080  18.2227  18.4128
    19.0423  19.0425  22.1934  24.6037  26.1141  26.3020  26.3022  26.5181
    26.8312  27.6946  28.1107  28.1110  28.4997  30.3292  33.9929  33.9930
    35.3244  35.3245  37.1105  37.2556  38.0489  38.5004  39.1724  39.5412
    39.5414  41.4106  41.4111  42.2430  44.5546  44.5548  45.0759  46.9534
    46.9534  47.3577  47.3580  47.3642  48.2639  49.0374  49.0603  50.5914
    50.9636  50.9640  51.8543  51.9576  53.1036  53.1037  55.0503  55.3613
    55.7568

          k = 0.0000 0.2000 0.0000 (  1940 PWs)   bands (ev):

   -66.8853 -66.8831 -28.8019 -28.8011 -28.6298 -28.6291 -28.5070 -28.4884
    -7.0920  -6.1946  -5.3628  -5.2882   4.8378   5.1756   6.4420   6.7014
     6.7101   8.2623   8.3666   9.1291   9.7387   9.9717  10.2288  10.9214
    13.4419  13.4851  14.0606  14.3039  14.3582  16.5367  17.0615  18.2662
    19.6354  19.6693  20.7312  22.0102  22.4229  25.6462  26.2122  26.2618
    27.8693  30.0099  30.1052  30.4976  32.2996  32.6162  32.7875  32.8315
    34.7487  35.6348  37.3245  38.0346  39.4632  39.6053  40.5066  41.0193
    41.2170  42.0420  42.2794  42.6294  43.6191  44.0688  44.1631  44.7342
    45.4916  45.7957  45.9429  46.5580  48.0459  49.3599  49.4435  49.7437
    50.0548  50.1331  50.6233  51.2025  51.5828  52.5399  53.1472  54.5627
    55.1509

          k = 0.0000 0.2000 0.3103 (  1945 PWs)   bands (ev):

   -66.8812 -66.8793 -28.7921 -28.7912 -28.6194 -28.6151 -28.6100 -28.6000
    -6.6976  -5.9106  -5.5857  -5.5036   5.3720   5.6328   6.5132   6.6016
     7.0827   7.7806   8.2525   8.9031   8.9300   9.6862   9.7429  10.7399
    13.4980  14.1386  14.3585  14.5141  14.8009  16.1263  17.6709  18.3631
    19.0201  19.8405  20.5887  23.3718  23.9858  25.9457  26.4478  26.5912
    27.3084  28.5245  28.6304  29.6331  30.7039  33.3625  33.8297  34.1665
    34.5343  35.1607  37.2265  38.1484  38.2468  38.4299  39.4337  39.9192
    40.5439  40.6801  41.3845  42.2409  44.5981  44.6940  45.2817  45.3998
    46.0304  46.9849  47.1045  47.4837  48.6225  48.9963  49.1678  49.1866
    49.5101  50.2953  51.2163  52.4883  52.8424  53.5003  54.5047  55.2365
    55.5211

          k = 0.0000 0.2000 0.6207 (  1948 PWs)   bands (ev):

   -66.8744 -66.8734 -28.8050 -28.8005 -28.7641 -28.7634 -28.5809 -28.5802
    -6.1065  -5.9776  -5.6597  -5.4902   6.1171   6.1177   6.3329   6.7068
     7.2202   7.4622   8.1145   8.5763   8.6424   9.4176   9.5239   9.8982
    13.4899  14.4127  14.8869  15.3265  15.4817  15.6354  17.8393  18.0544
    19.3052  19.7850  22.1708  24.1517  25.3036  25.7440  26.4015  26.5823
    27.5038  27.6822  27.7516  28.2773  29.9997  30.1448  33.6198  33.8554
    34.9508  35.3949  36.6363  37.1786  38.4951  38.6152  39.5269  39.7415
    40.8864  40.9159  41.1750  43.1403  44.6315  44.8770  45.4685  45.7168
    46.7351  46.8704  47.1114  48.3280  48.3792  48.8817  49.2537  50.2407
    50.4543  51.2157  51.8740  52.2567  53.5609  53.7656  53.9736  54.2851
    55.5012

          k = 0.0000 0.4000 0.0000 (  1968 PWs)   bands (ev):

   -66.8847 -66.8837 -28.7968 -28.7959 -28.6360 -28.6353 -28.5013 -28.4942
    -6.7274  -6.3234  -5.5514  -5.4575   5.5563   5.6943   6.7479   6.7571
     7.1751   7.5545   7.6645   8.3948   9.1928   9.5049  10.2191  10.5513
    13.7868  13.8461  14.6934  14.7472  14.8671  15.7686  18.1577  19.2938
    19.3313  19.5301  19.6986  21.1081  23.1840  24.4809  26.2494  26.6803
    27.3636  29.2475  30.4040  31.1322  31.1939  32.3414  33.3269  34.3830
    34.8783  36.3921  37.6404  38.3617  38.3657  39.2617  39.5058  39.6289
    41.6917  41.7518  42.7892  43.5730  44.1083  44.5428  44.8264  45.4577
    46.6163  46.9560  47.1325  47.6197  47.9509  48.3531  48.4986  48.5028
    49.3811  49.9829  50.1519  50.5421  50.9755  51.5109  54.1535  54.1704
    54.5987

          k = 0.0000 0.4000 0.3103 (  1956 PWs)   bands (ev):

   -66.8808 -66.8798 -28.7899 -28.7890 -28.6210 -28.6207 -28.6070 -28.6014
    -6.3895  -6.0056  -5.7409  -5.6250   5.9217   6.1746   6.4424   6.5728
     7.3199   7.5479   8.0078   8.3122   8.4528   9.1594  10.1274  10.4540
    13.9381  14.3247  14.6558  14.7112  15.2792  15.6575  17.9620  17.9729
    18.9705  19.8207  21.0390  22.2951  24.3959  25.2114  26.3961  26.7768
    27.6289  28.0062  28.6736  29.9097  31.5112  32.4231  33.6761  34.4577
    34.6374  35.6718  37.0326  37.2205  38.3318  38.4341  39.2610  39.2850
    40.8497  42.4410  42.7188  43.6193  44.0070  44.7979  45.3174  45.8417
    46.6265  46.9139  46.9807  47.4139  48.5033  48.5358  48.8553  49.1671
    50.0463  50.3579  50.8507  52.6165  52.8019  53.3822  53.5564  53.9340
    54.2852

          k = 0.0000 0.4000 0.6207 (  1959 PWs)   bands (ev):

   -66.8743 -66.8736 -28.8136 -28.8118 -28.7540 -28.7536 -28.5812 -28.5804
    -6.1827  -6.1354  -5.4728  -5.4050   5.8512   5.9695   6.2865   6.3314
     7.5192   7.8718   8.1521   8.7743   8.9960   9.0882   9.6852  10.1924
    13.0907  13.5381  15.1843  15.3341  15.7034  15.7585  17.4873  17.6651
    19.9272  20.3055  22.3873  23.1780  25.0461  25.2269  26.3729  26.4267
    27.0846  27.3154  28.4082  29.2084  30.0083  31.1573  32.9565  33.5351
    35.2281  35.5796  36.6477  36.9385  38.5383  38.6123  39.7101  39.9455
    40.9110  41.1754  43.3205  43.8135  43.8610  44.1455  45.4296  45.8556
    46.6658  46.7715  47.2296  47.8857  48.4482  48.6010  49.6641  50.9076
    51.3036  51.3067  52.3881  52.4425  52.6644  53.0935  54.1557  54.3355
    55.1565

          k = 0.2000 0.2000 0.0000 (  1955 PWs)   bands (ev):

   -66.8851 -66.8833 -28.8055 -28.7963 -28.6355 -28.6255 -28.5052 -28.4902
    -6.9937  -6.2143  -5.5131  -5.2478   4.7102   5.6650   6.6566   6.6740
     6.7601   7.5747   8.6496   9.1387   9.5976   9.9005   9.9591  10.7983
    13.1667  13.8191  14.1057  14.3908  14.7202  16.3415  17.0739  19.0741
    19.3133  19.8420  20.1991  22.2541  22.2751  25.1299  25.7888  26.8151
    27.3392  29.4234  30.4330  32.0607  32.4826  32.8624  32.8813  33.1857
    33.8477  35.2237  37.2178  37.4427  39.0723  39.7785  40.0929  40.2646
    41.3657  42.6485  42.8360  43.4005  43.4814  44.5391  44.9481  45.1663
    45.5318  46.1681  46.2059  47.2785  48.0402  48.1242  48.3268  49.3063
    49.5004  50.5578  50.9404  51.3862  52.5492  53.1134  53.3272  53.4385
    53.7500

          k = 0.2000 0.2000 0.3103 (  1949 PWs)   bands (ev):

   -66.8811 -66.8795 -28.7934 -28.7896 -28.6224 -28.6122 -28.6089 -28.6018
    -6.6118  -5.9006  -5.7166  -5.4842   5.2513   6.0658   6.3904   6.6127
     7.3131   7.5452   8.2740   8.4988   9.1324   9.5569   9.8593  10.5785
    13.5763  13.9453  14.4518  14.8475  14.8876  15.9537  17.7612  18.0729
    19.2043  20.1829  20.4144  23.4198  23.5362  25.4655  26.4309  26.4941
    27.3690  28.3000  29.5186  29.9104  30.7752  32.4337  33.7695  34.3996
    34.7858  35.4972  36.9316  37.7679  38.2083  38.5637  39.7017  40.0388
    40.4162  41.3721  42.3420  42.4774  44.4001  44.4227  45.4331  45.5574
    45.6691  46.7160  47.6452  47.9475  48.3574  48.7780  48.8804  49.3735
    49.3748  50.0579  50.6331  51.6038  53.5135  53.7156  54.4570  54.6202
    55.9859

          k = 0.2000 0.2000 0.6207 (  1956 PWs)   bands (ev):

   -66.8743 -66.8735 -28.8122 -28.7930 -28.7745 -28.7535 -28.5811 -28.5804
    -6.1751  -5.8513  -5.7802  -5.4160   5.9598   6.2172   6.3302   6.6754
     6.7361   7.9457   8.1565   8.6699   8.7281   9.2472   9.6419  10.0862
    13.3042  14.5138  14.8614  15.0380  15.3546  15.8995  17.4852  18.5407
    19.0020  20.0878  22.1930  24.0690  24.6535  25.3442  25.8531  26.2178
    26.8426  28.4689  28.6089  29.3530  29.7203  30.7056  33.2622  33.7248
    34.7557  35.2514  35.8908  38.0903  38.5177  39.7093  39.8360  40.3646
    40.5582  41.0329  41.5677  43.3610  44.2468  44.8171  45.2799  46.0150
    46.0779  46.4742  47.2130  47.7637  48.2122  49.1389  49.6270  49.9559
    50.2443  51.2702  52.0766  52.3680  52.5514  53.6745  54.3463  54.4619
    55.4043

          k = 0.2000 0.4000 0.0000 (  1956 PWs)   bands (ev):

   -66.8847 -66.8838 -28.8029 -28.7974 -28.6347 -28.6288 -28.5005 -28.4947
    -6.7305  -6.4047  -5.5254  -5.3597   5.0023   5.6308   6.6762   6.7403
     7.3251   7.6208   8.2915   8.8532   9.2980   9.6283   9.8749  10.3502
    13.4589  13.8180  14.3444  14.7274  15.0645  15.7841  17.7926  19.0155
    19.3090  19.6441  20.4164  21.5678  23.0370  24.1782  25.8013  26.2793
    27.5478  28.7879  31.5502  32.1670  32.3704  32.5683  33.2403  34.0118
    34.7500  35.3182  36.2523  37.6553  38.1192  38.6655  39.3518  40.2384
    41.6321  41.7385  43.4516  43.7669  44.4940  44.7208  45.9161  46.1893
    46.2184  46.7728  46.8895  47.5272  48.0622  48.6065  48.6763  48.8841
    49.5080  50.4393  50.5242  50.5975  51.2642  51.8844  52.3178  52.9047
    54.5955

          k = 0.2000 0.4000 0.3103 (  1951 PWs)   bands (ev):

   -66.8807 -66.8799 -28.7925 -28.7904 -28.6215 -28.6151 -28.6065 -28.6034
    -6.3833  -6.0897  -5.6996  -5.5664   5.4791   6.0477   6.4154   6.4669
     7.5356   7.8679   8.1823   8.5236   8.8261   9.2405   9.8848  10.2147
    13.9866  14.2251  14.3962  14.7750  15.1549  15.5362  17.9969  18.2371
    19.0172  19.5507  21.4239  22.4792  23.9359  24.6920  26.2952  26.5274
    27.6134  28.0021  29.5146  30.1092  31.3807  32.0536  33.7134  34.8873
    35.1485  35.8042  36.9059  37.0223  38.5651  38.6489  39.3843  39.8452
    40.7740  41.9489  42.5228  43.2627  44.0833  45.1693  45.2543  45.7793
    45.9869  47.0482  47.1409  47.5758  48.2014  48.5522  48.7636  48.9521
    50.2062  50.4930  51.3982  51.4870  51.9474  52.6481  53.3763  53.9090
    55.4722

          k = 0.2000 0.4000 0.6207 (  1963 PWs)   bands (ev):

   -66.8743 -66.8736 -28.8123 -28.8033 -28.7642 -28.7538 -28.5812 -28.5805
    -6.1629  -6.0314  -5.5813  -5.4287   5.8525   5.9791   6.3615   6.4760
     7.0720   7.7149   8.2972   8.5154   9.1105   9.4138   9.8162  10.2615
    13.2252  13.7896  15.1070  15.2693  15.3261  15.7379  17.5593  18.0875
    19.5748  20.1279  22.4599  23.2080  24.3552  24.7676  25.6055  25.9777
    26.9289  27.7673  29.2950  29.7964  30.5137  31.7172  32.7429  33.6351
    35.0721  35.5642  35.9076  37.2391  39.3198  39.6097  40.0212  40.3879
    41.5141  41.9187  42.7709  43.1846  43.9428  44.2443  45.3389  45.7044
    46.0449  46.3095  46.6877  47.4823  48.4584  49.1037  49.6343  49.7767
    50.4377  50.5567  51.4988  52.1157  52.6981  53.0440  54.0141  54.7169
    55.2337

          k = 0.4000 0.4000 0.0000 (  1958 PWs)   bands (ev):

   -66.8846 -66.8839 -28.8077 -28.8048 -28.6275 -28.6243 -28.4987 -28.4963
    -6.6927  -6.5705  -5.3907  -5.3025   4.7309   5.0064   6.6223   6.6582
     7.8777   8.2764   8.7068   9.1414   9.4931   9.5648   9.7330  10.0633
    13.1325  13.4421  14.1261  14.3550  15.4373  15.7037  17.7350  18.2088
    19.6389  19.8316  21.4319  22.0030  22.9466  23.5880  25.3050  25.4880
    28.2515  28.9065  32.7234  32.8977  32.9398  33.1626  33.7457  33.8448
    34.2281  34.3698  35.8181  36.7612  36.8599  38.7820  39.4727  40.5571
    40.8540  42.1629  42.2103  42.7538  44.5706  45.7969  45.7977  46.6399
    46.8398  46.8743  47.5586  48.2019  48.4928  49.2121  49.2143  49.8617
    49.9790  50.0076  50.7645  50.9989  51.0947  51.7300  51.8661  53.2587
    55.1741

          k = 0.4000 0.4000 0.3103 (  1964 PWs)   bands (ev):

   -66.8806 -66.8799 -28.7950 -28.7940 -28.6168 -28.6102 -28.6083 -28.6059
    -6.3400  -6.2351  -5.5956  -5.5326   5.2515   5.4803   6.3280   6.3888
     8.1058   8.4281   8.4504   9.0415   9.0777   9.3709   9.4215   9.6863
    13.9386  14.2329  14.2358  14.5121  15.0584  15.2499  18.3565  18.4454
    19.1297  19.1310  22.1246  22.6806  23.3447  23.8712  26.3369  26.3451
    27.6158  28.0502  29.1750  29.7848  31.9706  33.0085  33.7632  35.2883
    35.3127  35.7732  37.2299  37.8770  38.1070  39.2899  39.7147  40.1544
    41.0954  41.2811  42.1118  42.4445  43.7505  44.1292  45.3783  45.5611
    46.2811  46.3820  46.9670  47.6735  47.7401  48.6939  49.2498  49.4260
    50.1705  50.6466  51.3605  51.7951  51.9048  52.6526  53.9809  54.2641
    54.3122

          k = 0.4000 0.4000 0.6207 (  1972 PWs)   bands (ev):

   -66.8742 -66.8736 -28.8024 -28.7926 -28.7752 -28.7644 -28.5814 -28.5806
    -6.0389  -5.8913  -5.7232  -5.5645   5.9140   6.0566   6.4079   6.4915
     6.9348   7.3275   8.1907   8.3248   9.4635   9.6262  10.0787  10.3006
    13.6609  14.1529  14.8202  15.0936  15.1691  15.3133  18.0699  18.7522
    18.9145  19.5791  22.6009  22.9732  23.7883  24.1020  25.5448  25.5767
    26.5202  26.9331  30.4288  30.5126  31.6039  32.2210  33.0448  33.6513
    35.6060  35.7802  35.7965  37.0276  39.7598  39.7947  41.2169  41.3572
    41.5835  42.4429  42.5269  43.6977  44.2646  44.2923  45.0247  45.0970
    45.6977  46.0293  46.6261  46.6449  47.4329  47.9075  48.1987  49.7022
    49.7646  50.7759  50.9165  51.5914  52.1359  52.3366  53.2609  53.9545
    54.8856

          k =-0.2000 0.2000 0.0000 (  1955 PWs)   bands (ev):

   -66.8851 -66.8833 -28.8062 -28.7955 -28.6362 -28.6249 -28.5052 -28.4902
    -6.9937  -6.2143  -5.5130  -5.2479   4.7104   5.6646   6.6565   6.6740
     6.7602   7.5749   8.6495   9.1388   9.5976   9.9005   9.9591  10.7983
    13.1681  13.8177  14.1046  14.3909  14.7212  16.3415  17.0741  19.0740
    19.3132  19.8420  20.1991  22.2539  22.2751  25.1303  25.7887  26.8149
    27.3394  29.4233  30.4329  32.0608  32.4823  32.8627  32.8813  33.1855
    33.8475  35.2241  37.2179  37.4427  39.0723  39.7784  40.0928  40.2643
    41.3656  42.6487  42.8360  43.4005  43.4817  44.5393  44.9480  45.1665
    45.5318  46.1680  46.2059  47.2784  48.0400  48.1241  48.3267  49.3064
    49.5004  50.5575  50.9409  51.3864  52.5493  53.1132  53.3275  53.4382
    53.7500

          k =-0.2000 0.2000-0.3103 (  1949 PWs)   bands (ev):

   -66.8811 -66.8795 -28.7942 -28.7888 -28.6223 -28.6129 -28.6082 -28.6018
    -6.6118  -5.9006  -5.7165  -5.4843   5.2515   6.0657   6.3903   6.6126
     7.3131   7.5453   8.2741   8.4989   9.1323   9.5567   9.8593  10.5785
    13.5761  13.9467  14.4514  14.8468  14.8874  15.9537  17.7614  18.0729
    19.2044  20.1830  20.4142  23.4199  23.5361  25.4659  26.4308  26.4940
    27.3691  28.2999  29.5184  29.9104  30.7752  32.4341  33.7693  34.3994
    34.7859  35.4973  36.9314  37.7678  38.2085  38.5638  39.7016  40.0390
    40.4166  41.3719  42.3420  42.4774  44.4000  44.4225  45.4328  45.5574
    45.6692  46.7160  47.6452  47.9474  48.3574  48.7781  48.8804  49.3736
    49.3751  50.0579  50.6329  51.6039  53.5135  53.7158  54.4567  54.6202
    55.9858

          k =-0.2000 0.2000-0.6207 (  1956 PWs)   bands (ev):

   -66.8743 -66.8735 -28.8126 -28.7920 -28.7753 -28.7533 -28.5811 -28.5804
    -6.1750  -5.8513  -5.7803  -5.4160   5.9599   6.2173   6.3303   6.6752
     6.7362   7.9456   8.1564   8.6698   8.7282   9.2473   9.6418  10.0862
    13.3043  14.5131  14.8624  15.0387  15.3537  15.8992  17.4853  18.5405
    19.0021  20.0879  22.1929  24.0690  24.6534  25.3440  25.8533  26.2179
    26.8425  28.4693  28.6089  29.3531  29.7201  30.7053  33.2621  33.7250
    34.7556  35.2514  35.8908  38.0903  38.5176  39.7095  39.8360  40.3646
    40.5583  41.0326  41.5680  43.3611  44.2466  44.8170  45.2801  46.0150
    46.0778  46.4742  47.2129  47.7635  48.2121  49.1389  49.6274  49.9560
    50.2442  51.2702  52.0767  52.3676  52.5514  53.6745  54.3463  54.4621
    55.4042

          k =-0.2000 0.4000 0.0000 (  1956 PWs)   bands (ev):

   -66.8847 -66.8838 -28.8037 -28.7965 -28.6354 -28.6282 -28.5005 -28.4947
    -6.7305  -6.4047  -5.5254  -5.3598   5.0025   5.6304   6.6761   6.7404
     7.3251   7.6209   8.2913   8.8532   9.2982   9.6282   9.8749  10.3502
    13.4602  13.8167  14.3434  14.7284  15.0646  15.7841  17.7927  19.0154
    19.3089  19.6442  20.4163  21.5678  23.0369  24.1785  25.8011  26.2795
    27.5477  28.7879  31.5502  32.1670  32.3704  32.5682  33.2403  34.0119
    34.7500  35.3183  36.2522  37.6553  38.1193  38.6653  39.3518  40.2384
    41.6323  41.7383  43.4516  43.7670  44.4941  44.7208  45.9159  46.1892
    46.2184  46.7729  46.8895  47.5273  48.0621  48.6066  48.6762  48.8839
    49.5079  50.4394  50.5248  50.5977  51.2637  51.8845  52.3178  52.9047
    54.5955

          k =-0.2000 0.4000-0.3103 (  1951 PWs)   bands (ev):

   -66.8807 -66.8799 -28.7932 -28.7895 -28.6216 -28.6151 -28.6066 -28.6031
    -6.3833  -6.0897  -5.6996  -5.5665   5.4792   6.0476   6.4153   6.4668
     7.5356   7.8680   8.1823   8.5237   8.8260   9.2405   9.8847  10.2148
    13.9864  14.2261  14.3962  14.7742  15.1547  15.5363  17.9970  18.2370
    19.0173  19.5507  21.4238  22.4792  23.9357  24.6924  26.2951  26.5274
    27.6135  28.0020  29.5143  30.1094  31.3809  32.0535  33.7132  34.8873
    35.1486  35.8043  36.9058  37.0222  38.5652  38.6491  39.3843  39.8452
    40.7741  41.9488  42.5227  43.2627  44.0833  45.1693  45.2541  45.7792
    45.9870  47.0482  47.1408  47.5757  48.2014  48.5522  48.7636  48.9523
    50.2061  50.4930  51.3982  51.4871  51.9474  52.6481  53.3764  53.9091
    55.4721

          k =-0.2000 0.4000-0.6207 (  1963 PWs)   bands (ev):

   -66.8743 -66.8736 -28.8127 -28.8028 -28.7645 -28.7536 -28.5812 -28.5805
    -6.1628  -6.0315  -5.5814  -5.4286   5.8526   5.9790   6.3615   6.4759
     7.0719   7.7149   8.2972   8.5154   9.1105   9.4139   9.8162  10.2615
    13.2253  13.7894  15.1083  15.2683  15.3261  15.7376  17.5594  18.0874
    19.5747  20.1281  22.4598  23.2081  24.3552  24.7676  25.6052  25.9781
    26.9286  27.7676  29.2950  29.7964  30.5139  31.7170  32.7426  33.6355
    35.0718  35.5641  35.9076  37.2394  39.3198  39.6096  40.0213  40.3880
    41.5141  41.9185  42.7711  43.1844  43.9429  44.2443  45.3389  45.7045
    46.0449  46.3094  46.6876  47.4824  48.4586  49.1038  49.6341  49.7766
    50.4378  50.5567  51.4987  52.1157  52.6981  53.0440  54.0142  54.7168
    55.2336

          k =-0.4000 0.4000 0.0000 (  1958 PWs)   bands (ev):

   -66.8846 -66.8839 -28.8085 -28.8040 -28.6282 -28.6237 -28.4988 -28.4963
    -6.6928  -6.5705  -5.3906  -5.3026   4.7311   5.0061   6.6222   6.6583
     7.8777   8.2765   8.7066   9.1415   9.4931   9.5650   9.7329  10.0632
    13.1338  13.4408  14.1251  14.3560  15.4373  15.7037  17.7351  18.2087
    19.6389  19.8317  21.4318  22.0031  22.9464  23.5883  25.3047  25.4883
    28.2515  28.9065  32.7233  32.8976  32.9396  33.1628  33.7458  33.8449
    34.2279  34.3699  35.8182  36.7611  36.8598  38.7821  39.4727  40.5572
    40.8542  42.1632  42.2100  42.7538  44.5707  45.7965  45.7979  46.6400
    46.8401  46.8740  47.5585  48.2019  48.4927  49.2123  49.2146  49.8616
    49.9786  50.0074  50.7645  50.9989  51.0949  51.7302  51.8662  53.2587
    55.1739

          k =-0.4000 0.4000-0.3103 (  1964 PWs)   bands (ev):

   -66.8806 -66.8799 -28.7958 -28.7932 -28.6167 -28.6109 -28.6077 -28.6060
    -6.3401  -6.2351  -5.5956  -5.5327   5.2517   5.4802   6.3279   6.3889
     8.1058   8.4281   8.4504   9.0414   9.0778   9.3709   9.4214   9.6863
    13.9400  14.2324  14.2344  14.5131  15.0577  15.2503  18.3567  18.4453
    19.1296  19.1311  22.1245  22.6807  23.3446  23.8714  26.3369  26.3451
    27.6162  28.0500  29.1745  29.7852  31.9707  33.0084  33.7630  35.2884
    35.3128  35.7730  37.2298  37.8770  38.1070  39.2902  39.7146  40.1544
    41.0958  41.2808  42.1117  42.4444  43.7509  44.1291  45.3784  45.5609
    46.2812  46.3818  46.9670  47.6736  47.7400  48.6938  49.2496  49.4259
    50.1708  50.6467  51.3606  51.7952  51.9046  52.6524  53.9811  54.2642
    54.3119

          k =-0.4000 0.4000-0.6207 (  1972 PWs)   bands (ev):

   -66.8742 -66.8736 -28.8029 -28.7916 -28.7760 -28.7641 -28.5813 -28.5807
    -6.0389  -5.8913  -5.7232  -5.5645   5.9141   6.0566   6.4076   6.4916
     6.9349   7.3275   8.1907   8.3249   9.4635   9.6262  10.0788  10.3005
    13.6613  14.1521  14.8211  15.0953  15.1674  15.3129  18.0701  18.7519
    18.9147  19.5793  22.6009  22.9731  23.7885  24.1017  25.5449  25.5767
    26.5198  26.9335  30.4285  30.5129  31.6040  32.2209  33.0443  33.6519
    35.6055  35.7805  35.7962  37.0279  39.7599  39.7946  41.2169  41.3574
    41.5839  42.4427  42.5264  43.6975  44.2645  44.2925  45.0247  45.0971
    45.6976  46.0293  46.6260  46.6450  47.4331  47.9075  48.1988  49.7022
    49.7645  50.7757  50.9167  51.5913  52.1364  52.3362  53.2611  53.9541
    54.8856

     the Fermi energy is    14.2114 ev

!    total energy              =    -518.46667595 Ry
     Harris-Foulkes estimate   =    -518.46667152 Ry
     estimated scf accuracy    <       0.00000560 Ry

     The total energy is the sum of the following terms:

     one-electron contribution =    -127.10768271 Ry
     hartree contribution      =      93.03442854 Ry
     xc contribution           =    -142.54844726 Ry
     ewald contribution        =    -341.84490817 Ry
     smearing contrib. (-TS)   =      -0.00006635 Ry

     total magnetization       =     2.39 Bohr mag/cell
     absolute magnetization    =     2.40 Bohr mag/cell

     convergence has been achieved in  21 iterations

     Forces acting on atoms (Ry/au):


     negative rho (up, down):  0.173E-01 0.427E-01
     atom    1 type  1   force =     0.00000000    0.00000000    0.00000000
     atom    2 type  1   force =     0.00000000    0.00000000    0.00000000
     atom    3 type  2   force =    -0.03226598   -0.03226598    0.00000000
     atom    4 type  2   force =     0.03226598    0.03226598   -0.00000000
     atom    5 type  2   force =    -0.03221566    0.03221566    0.00000000
     atom    6 type  2   force =     0.03221566   -0.03221566    0.00000000

     Total force =     0.091191     Total SCF correction =     0.003211


     entering subroutine stress ...


     negative rho (up, down):  0.173E-01 0.427E-01
          total   stress  (Ry/bohr**3)                   (kbar)     P=    1.92
  -0.00018335  -0.00000302   0.00000000        -26.97     -0.44      0.00
  -0.00000302  -0.00018335   0.00000000         -0.44    -26.97      0.00
   0.00000000   0.00000000   0.00040590          0.00      0.00     59.71

     Volume is kept fixed: isostatic pressure set to zero

     BFGS Geometry Optimization

     number of scf cycles    =   1
     number of bfgs steps    =   0

     enthalpy new            =    -518.4666759477 Ry

     new trust radius        =       0.0456309854 bohr
     new conv_thr            =       0.0000070000 Ry

     new unit-cell volume =    457.85999 a.u.^3 (    67.84785 Ang^3 )

CELL_PARAMETERS (alat=  8.92309954)
   0.995113545  -0.000075555   0.000000000
  -0.000075555   0.995113545   0.000000000
   0.000000000   0.000000000   0.650789012

ATOMIC_POSITIONS (crystal)
Re0      0.000000000   0.000000000   0.000000000    0   0   0
Re0      0.500000000   0.500000000   0.500000000    0   0   0
O1       0.301383994   0.301383994   0.000000000    1   1   0
O1      -0.301383994  -0.301383994   0.000000000    1   1   0
O1       0.801389633   0.198610367   0.500000000    1   1   0
O1       0.198610367   0.801389633   0.500000000    1   1   0


     Check: negative starting charge=(component1):   -0.058177
     NEW-OLD atomic charge density approx. for the potential
     NEW k-points:
        k(    1) = (   0.0000000   0.0000000   0.0000000), wk =   0.0080000
        k(    2) = (   0.0000000   0.0000000   0.3073193), wk =   0.0160000
        k(    3) = (   0.0000000   0.0000000   0.6146385), wk =   0.0160000
        k(    4) = (   0.0000153   0.2009821   0.0000000), wk =   0.0320000
        k(    5) = (   0.0000153   0.2009821   0.3073193), wk =   0.0640000
        k(    6) = (   0.0000153   0.2009821   0.6146385), wk =   0.0640000
        k(    7) = (   0.0000305   0.4019642   0.0000000), wk =   0.0320000
        k(    8) = (   0.0000305   0.4019642   0.3073193), wk =   0.0640000
        k(    9) = (   0.0000305   0.4019642   0.6146385), wk =   0.0640000
        k(   10) = (   0.2009974   0.2009974   0.0000000), wk =   0.0160000
        k(   11) = (   0.2009974   0.2009974   0.3073193), wk =   0.0320000
        k(   12) = (   0.2009974   0.2009974   0.6146385), wk =   0.0320000
        k(   13) = (   0.2010126   0.4019794   0.0000000), wk =   0.0320000
        k(   14) = (   0.2010126   0.4019794   0.3073193), wk =   0.0640000
        k(   15) = (   0.2010126   0.4019794   0.6146385), wk =   0.0640000
        k(   16) = (   0.4019947   0.4019947   0.0000000), wk =   0.0160000
        k(   17) = (   0.4019947   0.4019947   0.3073193), wk =   0.0320000
        k(   18) = (   0.4019947   0.4019947   0.6146385), wk =   0.0320000
        k(   19) = (  -0.2009668   0.2009668   0.0000000), wk =   0.0160000
        k(   20) = (  -0.2009668   0.2009668  -0.3073193), wk =   0.0320000
        k(   21) = (  -0.2009668   0.2009668  -0.6146385), wk =   0.0320000
        k(   22) = (  -0.2009516   0.4019489   0.0000000), wk =   0.0320000
        k(   23) = (  -0.2009516   0.4019489  -0.3073193), wk =   0.0640000
        k(   24) = (  -0.2009516   0.4019489  -0.6146385), wk =   0.0640000
        k(   25) = (  -0.4019337   0.4019337   0.0000000), wk =   0.0160000
        k(   26) = (  -0.4019337   0.4019337  -0.3073193), wk =   0.0320000
        k(   27) = (  -0.4019337   0.4019337  -0.6146385), wk =   0.0320000
        k(   28) = (   0.0000000   0.0000000   0.0000000), wk =   0.0080000
        k(   29) = (   0.0000000   0.0000000   0.3073193), wk =   0.0160000
        k(   30) = (   0.0000000   0.0000000   0.6146385), wk =   0.0160000
        k(   31) = (   0.0000153   0.2009821   0.0000000), wk =   0.0320000
        k(   32) = (   0.0000153   0.2009821   0.3073193), wk =   0.0640000
        k(   33) = (   0.0000153   0.2009821   0.6146385), wk =   0.0640000
        k(   34) = (   0.0000305   0.4019642   0.0000000), wk =   0.0320000
        k(   35) = (   0.0000305   0.4019642   0.3073193), wk =   0.0640000
        k(   36) = (   0.0000305   0.4019642   0.6146385), wk =   0.0640000
        k(   37) = (   0.2009974   0.2009974   0.0000000), wk =   0.0160000
        k(   38) = (   0.2009974   0.2009974   0.3073193), wk =   0.0320000
        k(   39) = (   0.2009974   0.2009974   0.6146385), wk =   0.0320000
        k(   40) = (   0.2010126   0.4019794   0.0000000), wk =   0.0320000
        k(   41) = (   0.2010126   0.4019794   0.3073193), wk =   0.0640000
        k(   42) = (   0.2010126   0.4019794   0.6146385), wk =   0.0640000
        k(   43) = (   0.4019947   0.4019947   0.0000000), wk =   0.0160000
        k(   44) = (   0.4019947   0.4019947   0.3073193), wk =   0.0320000
        k(   45) = (   0.4019947   0.4019947   0.6146385), wk =   0.0320000
        k(   46) = (  -0.2009668   0.2009668   0.0000000), wk =   0.0160000
        k(   47) = (  -0.2009668   0.2009668  -0.3073193), wk =   0.0320000
        k(   48) = (  -0.2009668   0.2009668  -0.6146385), wk =   0.0320000
        k(   49) = (  -0.2009516   0.4019489   0.0000000), wk =   0.0320000
        k(   50) = (  -0.2009516   0.4019489  -0.3073193), wk =   0.0640000
        k(   51) = (  -0.2009516   0.4019489  -0.6146385), wk =   0.0640000
        k(   52) = (  -0.4019337   0.4019337   0.0000000), wk =   0.0160000
        k(   53) = (  -0.4019337   0.4019337  -0.3073193), wk =   0.0320000
        k(   54) = (  -0.4019337   0.4019337  -0.6146385), wk =   0.0320000

     Check: negative/imaginary core charge=   -0.000004    0.000000
     Check: negative starting charge=(component1):   -0.058347

     negative rho (up, down):  0.173E-01 0.427E-01

     total cpu time spent up to now is      830.2 secs

     per-process dynamical memory:    65.7 Mb

     Self-consistent Calculation

     iteration #  1     ecut=    40.00 Ry     beta=0.30
     Davidson diagonalization with overlap
     ethr =  1.00E-06,  avg # of iterations =  4.6

     negative rho (up, down):  0.173E-01 0.428E-01

     total cpu time spent up to now is      904.6 secs

     total energy              =    -518.47358228 Ry
     Harris-Foulkes estimate   =    -518.47388932 Ry
     estimated scf accuracy    <       0.00121466 Ry

     total magnetization       =     2.39 Bohr mag/cell
     absolute magnetization    =     2.40 Bohr mag/cell

     iteration #  2     ecut=    40.00 Ry     beta=0.30
     Davidson diagonalization with overlap
     ethr =  2.25E-06,  avg # of iterations =  1.0

     negative rho (up, down):  0.173E-01 0.428E-01

     total cpu time spent up to now is      934.7 secs

     total energy              =    -518.47345362 Ry
     Harris-Foulkes estimate   =    -518.47367676 Ry
     estimated scf accuracy    <       0.00106469 Ry

     total magnetization       =     2.40 Bohr mag/cell
     absolute magnetization    =     2.41 Bohr mag/cell

     iteration #  3     ecut=    40.00 Ry     beta=0.30
     Davidson diagonalization with overlap
     ethr =  1.97E-06,  avg # of iterations =  1.1

     negative rho (up, down):  0.173E-01 0.428E-01

     total cpu time spent up to now is      965.0 secs

     total energy              =    -518.47342112 Ry
     Harris-Foulkes estimate   =    -518.47376959 Ry
     estimated scf accuracy    <       0.00309474 Ry

     total magnetization       =     2.40 Bohr mag/cell
     absolute magnetization    =     2.41 Bohr mag/cell

     iteration #  4     ecut=    40.00 Ry     beta=0.30
     Davidson diagonalization with overlap
     ethr =  1.97E-06,  avg # of iterations =  1.0

     negative rho (up, down):  0.173E-01 0.429E-01

     total cpu time spent up to now is      995.1 secs

     total energy              =    -518.47360468 Ry
     Harris-Foulkes estimate   =    -518.47359297 Ry
     estimated scf accuracy    <       0.00002793 Ry

     total magnetization       =     2.42 Bohr mag/cell
     absolute magnetization    =     2.43 Bohr mag/cell

     iteration #  5     ecut=    40.00 Ry     beta=0.30
     Davidson diagonalization with overlap
     ethr =  5.17E-08,  avg # of iterations =  1.0

     negative rho (up, down):  0.172E-01 0.430E-01

     total cpu time spent up to now is     1025.2 secs

     total energy              =    -518.47361616 Ry
     Harris-Foulkes estimate   =    -518.47360657 Ry
     estimated scf accuracy    <       0.00001014 Ry

     total magnetization       =     2.43 Bohr mag/cell
     absolute magnetization    =     2.44 Bohr mag/cell

     iteration #  6     ecut=    40.00 Ry     beta=0.30
     Davidson diagonalization with overlap
     ethr =  1.88E-08,  avg # of iterations =  1.0

     negative rho (up, down):  0.171E-01 0.431E-01

     total cpu time spent up to now is     1055.2 secs

     End of self-consistent calculation

 ------ SPIN UP ------------


          k = 0.0000 0.0000 0.0000 (  1955 PWs)   bands (ev):

   -67.4057 -67.4028 -29.4069 -29.4069 -29.3316 -29.3079 -29.2203 -29.2188
    -7.3078  -6.2548  -5.2926  -5.2911   4.2018   4.6578   5.9643   6.5489
     6.5517   8.5876   8.5881   8.9632  10.1140  10.3980  10.3986  11.0625
    12.1747  12.1768  12.9777  13.0073  13.0083  16.2064  16.3901  17.3214
    19.1582  19.1594  20.9069  21.7877  21.7892  25.6757  25.9812  26.1685
    28.7341  29.2040  29.4656  29.4687  31.0723  32.4974  33.5387  33.5418
    34.5523  34.5563  35.5939  38.8887  39.2693  39.2718  39.8762  40.7734
    41.4200  41.7709  42.3513  42.7139  42.7139  43.5832  43.5854  43.8243
    43.9793  44.8493  44.8549  45.7559  47.3042  49.7141  49.7188  50.1058
    50.6308  50.9792  50.9803  51.7723  51.8866  52.1883  52.1897  52.3861
    53.4187

          k = 0.0000 0.0000 0.3073 (  1939 PWs)   bands (ev):

   -67.4020 -67.3996 -29.4279 -29.4094 -29.3962 -29.3961 -29.2064 -29.2048
    -6.9175  -6.0249  -5.5075  -5.5059   4.8499   5.1245   6.4051   6.4775
     6.4796   7.7103   8.6118   9.1045   9.1050   9.4774   9.4777  10.7622
    12.8022  12.8623  13.1244  13.6693  13.6702  15.8990  16.9507  18.5374
    18.5743  18.5751  20.3720  23.4277  23.4291  25.6989  26.1928  26.4055
    26.8913  28.4099  29.0508  29.0540  29.1006  33.7712  34.1800  34.1807
    34.4808  34.4808  35.4717  38.4148  38.5096  39.0051  39.0724  39.0732
    39.7476  40.2927  40.4635  40.4644  43.1148  44.8670  44.8718  46.1366
    46.2271  46.4405  46.6044  46.6078  47.6182  48.8559  48.8597  49.2123
    50.3819  50.5959  50.5960  52.7763  53.4111  53.5982  54.1501  54.1520
    54.4974

          k = 0.0000 0.0000 0.6146 (  1964 PWs)   bands (ev):

   -67.3958 -67.3946 -29.5795 -29.5722 -29.3794 -29.3793 -29.1832 -29.1816
    -6.1378  -5.8419  -5.8401  -5.7674   5.8398   6.0573   6.4163   6.7782
     6.7793   7.0755   7.6441   8.1476   8.1483   9.3648   9.5854   9.5866
    13.4764  13.6273  14.0751  14.5038  14.5047  14.7173  17.7897  18.2970
    18.3376  18.3377  21.6431  24.1881  25.7476  25.8625  25.8642  26.1483
    26.7686  27.5020  27.9737  27.9836  27.9867  29.7543  33.8969  33.8985
    35.2513  35.2514  36.8043  36.8973  37.9303  38.2358  38.5977  39.1855
    39.1860  40.7715  40.7733  41.4770  44.5636  44.7065  44.7112  46.3870
    46.3888  46.9812  46.9831  47.4174  47.7735  48.2681  49.0845  50.7053
    50.7590  50.7647  51.3764  51.6135  52.6724  52.6768  54.8824  55.2100
    55.3759

          k = 0.0000 0.2010 0.0000 (  1940 PWs)   bands (ev):

   -67.4054 -67.4031 -29.4040 -29.4038 -29.3291 -29.3100 -29.2237 -29.2221
    -7.1618  -6.2258  -5.4694  -5.3770   4.5507   4.9168   6.2235   6.5861
     6.6005   8.1352   8.2428   8.8880   9.6198   9.7726  10.1533  10.9077
    12.4583  12.5474  13.2690  13.3562  13.4147  16.0407  16.6509  17.9389
    18.9322  18.9727  20.4735  21.6902  22.0499  25.3436  25.9628  26.0351
    27.5351  29.6277  29.9354  30.2400  31.4978  32.4411  32.4475  32.6316
    34.5243  35.3637  36.8842  37.7993  39.3225  39.3832  40.1614  40.7745
    41.0644  41.7789  41.8218  42.4470  42.9919  43.5698  44.0891  44.7847
    45.1005  45.3262  45.6887  46.4458  47.1878  48.9782  49.0132  49.5617
    49.8021  49.8575  50.2640  50.5006  51.2343  52.2470  52.4761  54.1801
    55.0069

          k = 0.0000 0.2010 0.3073 (  1945 PWs)   bands (ev):

   -67.4018 -67.3998 -29.4297 -29.4157 -29.3909 -29.3898 -29.2085 -29.2069
[...]
     absolute magnetization    =     2.21 Bohr mag/cell

     iteration # 68     ecut=    40.00 Ry     beta=0.30
     Davidson diagonalization with overlap
     ethr =  6.05E-09,  avg # of iterations =  2.0

     negative rho (up, down):  0.173E-01 0.428E-01

     total cpu time spent up to now is     3626.7 secs

     total energy              =    -518.47415260 Ry
     Harris-Foulkes estimate   =    -518.47452065 Ry
     estimated scf accuracy    <       0.00002086 Ry

     total magnetization       =     2.19 Bohr mag/cell
     absolute magnetization    =     2.20 Bohr mag/cell

     iteration # 69     ecut=    40.00 Ry     beta=0.30
     Davidson diagonalization with overlap
     ethr =  6.05E-09,  avg # of iterations =  3.0

     negative rho (up, down):  0.172E-01 0.430E-01

     total cpu time spent up to now is     3667.8 secs

     total energy              =    -518.47440634 Ry
     Harris-Foulkes estimate   =    -518.47442816 Ry
     estimated scf accuracy    <       0.00001179 Ry

     total magnetization       =     2.37 Bohr mag/cell
     absolute magnetization    =     2.37 Bohr mag/cell

     iteration # 70     ecut=    40.00 Ry     beta=0.30
     Davidson diagonalization with overlap
     ethr =  6.05E-09,  avg # of iterations =  2.0

     negative rho (up, down):  0.171E-01 0.430E-01

     total cpu time spent up to now is     3702.1 secs

     total energy              =    -518.47441083 Ry
     Harris-Foulkes estimate   =    -518.47441345 Ry
     estimated scf accuracy    <       0.00001425 Ry

     total magnetization       =     2.39 Bohr mag/cell
     absolute magnetization    =     2.40 Bohr mag/cell

     iteration # 71     ecut=    40.00 Ry     beta=0.30
     Davidson diagonalization with overlap
     ethr =  6.05E-09,  avg # of iterations =  1.0

     negative rho (up, down):  0.170E-01 0.432E-01

     total cpu time spent up to now is     3732.7 secs

     total energy              =    -518.47439326 Ry
     Harris-Foulkes estimate   =    -518.47441113 Ry
     estimated scf accuracy    <       0.00001413 Ry

     total magnetization       =     2.40 Bohr mag/cell
     absolute magnetization    =     2.40 Bohr mag/cell

     iteration # 72     ecut=    40.00 Ry     beta=0.30
     Davidson diagonalization with overlap
     ethr =  6.05E-09,  avg # of iterations =  2.0

     negative rho (up, down):  0.171E-01 0.431E-01

     total cpu time spent up to now is     3767.2 secs

     total energy              =    -518.47439060 Ry
     Harris-Foulkes estimate   =    -518.47439852 Ry
     estimated scf accuracy    <       0.00001498 Ry

     total magnetization       =     2.42 Bohr mag/cell
     absolute magnetization    =     2.42 Bohr mag/cell

     iteration # 73     ecut=    40.00 Ry     beta=0.30
     Davidson diagonalization with overlap
     ethr =  6.05E-09,  avg # of iterations =  2.0

     negative rho (up, down):  0.166E-01 0.438E-01

     total cpu time spent up to now is     3802.5 secs

     total energy              =    -518.47419653 Ry
     Harris-Foulkes estimate   =    -518.47440603 Ry
     estimated scf accuracy    <       0.00001656 Ry

     total magnetization       =     2.40 Bohr mag/cell
     absolute magnetization    =     2.41 Bohr mag/cell

     iteration # 74     ecut=    40.00 Ry     beta=0.30
     Davidson diagonalization with overlap
     ethr =  6.05E-09,  avg # of iterations =  2.6

     negative rho (up, down):  0.189E-01 0.408E-01

     total cpu time spent up to now is     3842.1 secs

     total energy              =    -518.47227298 Ry
     Harris-Foulkes estimate   =    -518.47431815 Ry
     estimated scf accuracy    <       0.00003671 Ry

     total magnetization       =     2.50 Bohr mag/cell
     absolute magnetization    =     2.51 Bohr mag/cell

     iteration # 75     ecut=    40.00 Ry     beta=0.30
     Davidson diagonalization with overlap
     ethr =  6.05E-09,  avg # of iterations =  3.5

     negative rho (up, down):  0.178E-01 0.421E-01

     total cpu time spent up to now is     3888.9 secs

     total energy              =    -518.47392538 Ry
     Harris-Foulkes estimate   =    -518.47470218 Ry
     estimated scf accuracy    <       0.00007228 Ry

     total magnetization       =     1.96 Bohr mag/cell
     absolute magnetization    =     1.97 Bohr mag/cell

     iteration # 76     ecut=    40.00 Ry     beta=0.30
     Davidson diagonalization with overlap
     ethr =  6.05E-09,  avg # of iterations =  3.0

     negative rho (up, down):  0.173E-01 0.428E-01

     total cpu time spent up to now is     3930.8 secs

     total energy              =    -518.47426379 Ry
     Harris-Foulkes estimate   =    -518.47449756 Ry
     estimated scf accuracy    <       0.00001405 Ry

     total magnetization       =     2.23 Bohr mag/cell
     absolute magnetization    =     2.24 Bohr mag/cell

     iteration # 77     ecut=    40.00 Ry     beta=0.30
     Davidson diagonalization with overlap
     ethr =  6.05E-09,  avg # of iterations =  3.0

     negative rho (up, down):  0.169E-01 0.433E-01

     total cpu time spent up to now is     3971.6 secs

     total energy              =    -518.47431927 Ry
     Harris-Foulkes estimate   =    -518.47442922 Ry
     estimated scf accuracy    <       0.00001213 Ry

     total magnetization       =     2.36 Bohr mag/cell
     absolute magnetization    =     2.37 Bohr mag/cell

     iteration # 78     ecut=    40.00 Ry     beta=0.30
     Davidson diagonalization with overlap
     ethr =  6.05E-09,  avg # of iterations =  2.0

     negative rho (up, down):  0.174E-01 0.427E-01

     total cpu time spent up to now is     4009.1 secs

     total energy              =    -518.47434638 Ry
     Harris-Foulkes estimate   =    -518.47438130 Ry
     estimated scf accuracy    <       0.00002060 Ry

     total magnetization       =     2.44 Bohr mag/cell
     absolute magnetization    =     2.45 Bohr mag/cell

     iteration # 79     ecut=    40.00 Ry     beta=0.30
     Davidson diagonalization with overlap
     ethr =  6.05E-09,  avg # of iterations =  2.1

     negative rho (up, down):  0.174E-01 0.427E-01

     total cpu time spent up to now is     4046.6 secs

     total energy              =    -518.47444401 Ry
     Harris-Foulkes estimate   =    -518.47443998 Ry
     estimated scf accuracy    <       0.00001126 Ry

     total magnetization       =     2.34 Bohr mag/cell
     absolute magnetization    =     2.35 Bohr mag/cell

     iteration # 80     ecut=    40.00 Ry     beta=0.30
     Davidson diagonalization with overlap
     ethr =  6.05E-09,  avg # of iterations =  1.0

     negative rho (up, down):  0.172E-01 0.430E-01

     total cpu time spent up to now is     4077.3 secs

     total energy              =    -518.47439037 Ry
     Harris-Foulkes estimate   =    -518.47444488 Ry
     estimated scf accuracy    <       0.00001113 Ry

     total magnetization       =     2.33 Bohr mag/cell
     absolute magnetization    =     2.34 Bohr mag/cell

     iteration # 81     ecut=    40.00 Ry     beta=0.30
     Davidson diagonalization with overlap
     ethr =  6.05E-09,  avg # of iterations =  2.0

     negative rho (up, down):  0.169E-01 0.434E-01

     total cpu time spent up to now is     4112.9 secs

     total energy              =    -518.47433286 Ry
     Harris-Foulkes estimate   =    -518.47441708 Ry
     estimated scf accuracy    <       0.00001450 Ry

     total magnetization       =     2.39 Bohr mag/cell
     absolute magnetization    =     2.39 Bohr mag/cell

     iteration # 82     ecut=    40.00 Ry     beta=0.30
     Davidson diagonalization with overlap
     ethr =  6.05E-09,  avg # of iterations =  2.0

     negative rho (up, down):  0.162E-01 0.442E-01

     total cpu time spent up to now is     4149.1 secs

     total energy              =    -518.47406824 Ry
     Harris-Foulkes estimate   =    -518.47437512 Ry
     estimated scf accuracy    <       0.00002245 Ry

     total magnetization       =     2.45 Bohr mag/cell
     absolute magnetization    =     2.45 Bohr mag/cell

     iteration # 83     ecut=    40.00 Ry     beta=0.30
     Davidson diagonalization with overlap
     ethr =  6.05E-09,  avg # of iterations =  3.0

     negative rho (up, down):  0.165E-01 0.438E-01

     total cpu time spent up to now is     4190.2 secs

     total energy              =    -518.47428039 Ry
     Harris-Foulkes estimate   =    -518.47423002 Ry
     estimated scf accuracy    <       0.00008283 Ry

     total magnetization       =     2.56 Bohr mag/cell
     absolute magnetization    =     2.56 Bohr mag/cell

     iteration # 84     ecut=    40.00 Ry     beta=0.30
     Davidson diagonalization with overlap
     ethr =  6.05E-09,  avg # of iterations =  2.0

     negative rho (up, down):  0.195E-01 0.400E-01

     total cpu time spent up to now is     4226.5 secs

     total energy              =    -518.47088803 Ry
     Harris-Foulkes estimate   =    -518.47431596 Ry
     estimated scf accuracy    <       0.00004643 Ry

     total magnetization       =     2.51 Bohr mag/cell
     absolute magnetization    =     2.51 Bohr mag/cell

     iteration # 85     ecut=    40.00 Ry     beta=0.30
     Davidson diagonalization with overlap
     ethr =  6.05E-09,  avg # of iterations =  3.7

     negative rho (up, down):  0.193E-01 0.402E-01

     total cpu time spent up to now is     4278.6 secs

     total energy              =    -518.47484311 Ry
     Harris-Foulkes estimate   =    -518.47492827 Ry
     estimated scf accuracy    <       0.00019632 Ry

     total magnetization       =     1.79 Bohr mag/cell
     absolute magnetization    =     1.80 Bohr mag/cell

     iteration # 86     ecut=    40.00 Ry     beta=0.30
     Davidson diagonalization with overlap
     ethr =  6.05E-09,  avg # of iterations =  2.0

     negative rho (up, down):  0.173E-01 0.428E-01

     total cpu time spent up to now is     4314.2 secs

     total energy              =    -518.47219629 Ry
     Harris-Foulkes estimate   =    -518.47485947 Ry
     estimated scf accuracy    <       0.00015587 Ry

     total magnetization       =     1.84 Bohr mag/cell
     absolute magnetization    =     1.84 Bohr mag/cell

     iteration # 87     ecut=    40.00 Ry     beta=0.30
     Davidson diagonalization with overlap
     ethr =  6.05E-09,  avg # of iterations =  3.3

     negative rho (up, down):  0.174E-01 0.427E-01

     total cpu time spent up to now is     4359.6 secs

     total energy              =    -518.47443778 Ry
     Harris-Foulkes estimate   =    -518.47443309 Ry
     estimated scf accuracy    <       0.00001000 Ry

     total magnetization       =     2.35 Bohr mag/cell
     absolute magnetization    =     2.36 Bohr mag/cell

     iteration # 88     ecut=    40.00 Ry     beta=0.30
     Davidson diagonalization with overlap
     ethr =  6.05E-09,  avg # of iterations =  2.0

     negative rho (up, down):  0.174E-01 0.427E-01

     total cpu time spent up to now is     4393.2 secs

     total energy              =    -518.47443619 Ry
     Harris-Foulkes estimate   =    -518.47444069 Ry
     estimated scf accuracy    <       0.00000961 Ry

     total magnetization       =     2.34 Bohr mag/cell
     absolute magnetization    =     2.35 Bohr mag/cell

     iteration # 89     ecut=    40.00 Ry     beta=0.30
     Davidson diagonalization with overlap
     ethr =  6.05E-09,  avg # of iterations =  1.0

     negative rho (up, down):  0.175E-01 0.425E-01

     total cpu time spent up to now is     4424.0 secs

     total energy              =    -518.47444357 Ry
     Harris-Foulkes estimate   =    -518.47443735 Ry
     estimated scf accuracy    <       0.00000950 Ry

     total magnetization       =     2.35 Bohr mag/cell
     absolute magnetization    =     2.35 Bohr mag/cell

     iteration # 90     ecut=    40.00 Ry     beta=0.30
     Davidson diagonalization with overlap
     ethr =  6.05E-09,  avg # of iterations =  2.0

     negative rho (up, down):  0.174E-01 0.427E-01

     total cpu time spent up to now is     4459.2 secs

     total energy              =    -518.47442876 Ry
     Harris-Foulkes estimate   =    -518.47445532 Ry
     estimated scf accuracy    <       0.00001008 Ry

     total magnetization       =     2.31 Bohr mag/cell
     absolute magnetization    =     2.32 Bohr mag/cell

     iteration # 91     ecut=    40.00 Ry     beta=0.30
     Davidson diagonalization with overlap
     ethr =  6.05E-09,  avg # of iterations =  2.0

     negative rho (up, down):  0.173E-01 0.427E-01

     total cpu time spent up to now is     4493.9 secs

     total energy              =    -518.47443370 Ry
     Harris-Foulkes estimate   =    -518.47444168 Ry
     estimated scf accuracy    <       0.00001017 Ry

     total magnetization       =     2.34 Bohr mag/cell
     absolute magnetization    =     2.34 Bohr mag/cell

     iteration # 92     ecut=    40.00 Ry     beta=0.30
     Davidson diagonalization with overlap
     ethr =  6.05E-09,  avg # of iterations =  1.5

     negative rho (up, down):  0.173E-01 0.428E-01

     total cpu time spent up to now is     4525.9 secs

     total energy              =    -518.47442827 Ry
     Harris-Foulkes estimate   =    -518.47443581 Ry
     estimated scf accuracy    <       0.00000992 Ry

     total magnetization       =     2.35 Bohr mag/cell
     absolute magnetization    =     2.35 Bohr mag/cell

     iteration # 93     ecut=    40.00 Ry     beta=0.30
     Davidson diagonalization with overlap
     ethr =  6.05E-09,  avg # of iterations =  2.0

     negative rho (up, down):  0.166E-01 0.437E-01

     total cpu time spent up to now is     4559.7 secs

     total energy              =    -518.47413024 Ry
     Harris-Foulkes estimate   =    -518.47443388 Ry
     estimated scf accuracy    <       0.00000978 Ry

     total magnetization       =     2.35 Bohr mag/cell
     absolute magnetization    =     2.36 Bohr mag/cell

     iteration # 94     ecut=    40.00 Ry     beta=0.30
     Davidson diagonalization with overlap
     ethr =  6.05E-09,  avg # of iterations =  3.0

     negative rho (up, down):  0.174E-01 0.427E-01

     total cpu time spent up to now is     4601.2 secs

     total energy              =    -518.47419259 Ry
     Harris-Foulkes estimate   =    -518.47433442 Ry
     estimated scf accuracy    <       0.00003273 Ry

     total magnetization       =     2.49 Bohr mag/cell
     absolute magnetization    =     2.49 Bohr mag/cell

     iteration # 95     ecut=    40.00 Ry     beta=0.30
     Davidson diagonalization with overlap
     ethr =  6.05E-09,  avg # of iterations =  3.0

     negative rho (up, down):  0.176E-01 0.424E-01

     total cpu time spent up to now is     4643.2 secs

     total energy              =    -518.47444171 Ry
     Harris-Foulkes estimate   =    -518.47444321 Ry
     estimated scf accuracy    <       0.00001030 Ry

     total magnetization       =     2.34 Bohr mag/cell
     absolute magnetization    =     2.34 Bohr mag/cell

     iteration # 96     ecut=    40.00 Ry     beta=0.30
     Davidson diagonalization with overlap
     ethr =  6.05E-09,  avg # of iterations =  2.0

     negative rho (up, down):  0.174E-01 0.427E-01

     total cpu time spent up to now is     4678.7 secs

     total energy              =    -518.47440565 Ry
     Harris-Foulkes estimate   =    -518.47446401 Ry
     estimated scf accuracy    <       0.00001155 Ry

     total magnetization       =     2.29 Bohr mag/cell
     absolute magnetization    =     2.30 Bohr mag/cell

     iteration # 97     ecut=    40.00 Ry     beta=0.30
     Davidson diagonalization with overlap
     ethr =  6.05E-09,  avg # of iterations =  2.0

     negative rho (up, down):  0.174E-01 0.427E-01

     total cpu time spent up to now is     4715.1 secs

     total energy              =    -518.47443020 Ry
     Harris-Foulkes estimate   =    -518.47443802 Ry
     estimated scf accuracy    <       0.00001065 Ry

     total magnetization       =     2.35 Bohr mag/cell
     absolute magnetization    =     2.35 Bohr mag/cell

     iteration # 98     ecut=    40.00 Ry     beta=0.30
     Davidson diagonalization with overlap
     ethr =  6.05E-09,  avg # of iterations =  2.0

     negative rho (up, down):  0.172E-01 0.429E-01

     total cpu time spent up to now is     4749.8 secs

     total energy              =    -518.47440023 Ry
     Harris-Foulkes estimate   =    -518.47443983 Ry
     estimated scf accuracy    <       0.00000983 Ry

     total magnetization       =     2.34 Bohr mag/cell
     absolute magnetization    =     2.35 Bohr mag/cell

     iteration # 99     ecut=    40.00 Ry     beta=0.30
     Davidson diagonalization with overlap
     ethr =  6.05E-09,  avg # of iterations =  2.0

     negative rho (up, down):  0.165E-01 0.440E-01

     total cpu time spent up to now is     4785.3 secs

     total energy              =    -518.47384409 Ry
     Harris-Foulkes estimate   =    -518.47441815 Ry
     estimated scf accuracy    <       0.00001081 Ry

     total magnetization       =     2.38 Bohr mag/cell
     absolute magnetization    =     2.39 Bohr mag/cell

     iteration #100     ecut=    40.00 Ry     beta=0.30
     Davidson diagonalization with overlap
     ethr =  6.05E-09,  avg # of iterations =  3.0

     negative rho (up, down):  0.185E-01 0.412E-01

     total cpu time spent up to now is     4826.7 secs

     total energy              =    -518.47241165 Ry
     Harris-Foulkes estimate   =    -518.47425065 Ry
     estimated scf accuracy    <       0.00021163 Ry

     total magnetization       =     2.52 Bohr mag/cell
     absolute magnetization    =     2.53 Bohr mag/cell

     End of self-consistent calculation

     convergence NOT achieved after 100 iterations: stopping

     init_run     :     15.90s CPU     16.06s WALL (       1 calls)
     electrons    :   4542.04s CPU   4696.74s WALL (       3 calls)
     update_pot   :      9.42s CPU      9.48s WALL (       2 calls)
     forces       :     23.37s CPU     23.43s WALL (       2 calls)
     stress       :     74.85s CPU     75.07s WALL (       2 calls)

     Called by init_run:
     wfcinit      :      8.70s CPU      8.82s WALL (       1 calls)
     potinit      :      1.37s CPU      1.38s WALL (       1 calls)

     Called by electrons:
     c_bands      :   3448.42s CPU   3569.38s WALL (     127 calls)
     sum_band     :    703.97s CPU    711.54s WALL (     127 calls)
     v_of_rho     :     32.58s CPU     33.48s WALL (     130 calls)
     newd         :    355.76s CPU    357.33s WALL (     130 calls)
     mix_rho      :      4.46s CPU      4.48s WALL (     127 calls)

     Called by c_bands:
     init_us_2    :     23.69s CPU     23.93s WALL (   13986 calls)
     cegterg      :   3343.42s CPU   3464.09s WALL (    6858 calls)

     Called by *egterg:
     h_psi        :   1655.14s CPU   1699.73s WALL (   21103 calls)
     s_psi        :    151.67s CPU    151.98s WALL (   21103 calls)
     g_psi        :      9.44s CPU      9.44s WALL (   14191 calls)
     cdiaghg      :    807.28s CPU    808.62s WALL (   20941 calls)

     Called by h_psi:
     add_vuspsi   :    154.38s CPU    154.83s WALL (   21103 calls)

     General routines
     calbec       :    236.34s CPU    256.12s WALL (   28177 calls)
     fft          :     28.38s CPU     28.63s WALL (    4092 calls)
     ffts         :      0.37s CPU      0.35s WALL (     514 calls)
     fftw         :   1314.92s CPU   1311.08s WALL ( 3058284 calls)
     interpolate  :      3.68s CPU      3.73s WALL (     514 calls)
     davcio       :      0.00s CPU      0.06s WALL (      54 calls)

     Parallel routines
     fft_scatter  :    472.26s CPU    484.82s WALL ( 3062890 calls)

     PWSCF        :     1h17m CPU        1h20m WALL


   This run was terminated on:  10:59:44  27Jan2014            

=------------------------------------------------------------------------------=
   JOB DONE.
=------------------------------------------------------------------------------=
