ScientificPython/2.8-dl160g6-numpy-1.7.1-1(15):ERROR:151: Module 'ScientificPython/2.8-dl160g6-numpy-1.7.1-1' depends on one of the module(s) 'numpy/1.7.1-dl160g6-gfortran-internal-1'
ScientificPython/2.8-dl160g6-numpy-1.7.1-1(15):ERROR:102: Tcl command execution failed: prereq numpy/1.7.1-dl160g6-gfortran-internal-1


     Program PWSCF v.5.0.2 (svn rev. 9656) starts on  1Jun2014 at 11:56:39 

     This program is part of the open-source Quantum ESPRESSO suite
     for quantum simulation of materials; please cite
         "P. Giannozzi et al., J. Phys.:Condens. Matter 21 395502 (2009);
          URL http://www.quantum-espresso.org", 
     in publications or presentations arising from this work. More details at
     http://www.quantum-espresso.org/quote.php

     Parallel version (MPI), running on    16 processors
     K-points division:     npool     =       4
     R & G space division:  proc/nbgrp/npool/nimage =       4

     Current dimensions of program PWSCF are:
     Max number of different atomic species (ntypx) = 10
     Max number of k-points (npk) =  40000
     Max angular momentum in pseudopotentials (lmaxx) =  3
     Reading input from pwscf.in
Warning: card &CELL ignored
Warning: card / ignored

     Subspace diagonalization in iterative solution of the eigenvalue problem:
     a serial algorithm will be used


     Parallelization info
     --------------------
     sticks:   dense  smooth     PW     G-vecs:    dense   smooth      PW
     Min        1333     428    119               322637    58444    8739
     Max        1334     429    120               322642    58462    8748
     Sum        5335    1713    477              1290557   233813   34969



     bravais-lattice index     =            0
     lattice parameter (alat)  =      10.1289  a.u.
     unit-cell volume          =    6836.7721 (a.u.)^3
     number of atoms/cell      =           33
     number of atomic types    =            3
     number of electrons       =       245.00
     number of Kohn-Sham states=          367
     kinetic-energy cutoff     =      40.0000  Ry
     charge density cutoff     =     500.0000  Ry
     convergence threshold     =      1.0E-06
     mixing beta               =       0.7000
     number of iterations used =            8  plain     mixing
     Exchange-correlation      = SLA  PW   PBE  PBE ( 1 4 3 4 0)
     EXX-fraction              =        0.00
     nstep                     =           50


     celldm(1)=  10.128932  celldm(2)=   0.000000  celldm(3)=   0.000000
     celldm(4)=   0.000000  celldm(5)=   0.000000  celldm(6)=   0.000000

     crystal axes: (cart. coord. in units of alat)
               a(1) = (   1.000000   0.000000   0.000000 )  
               a(2) = (   0.000000   1.306037   0.000000 )  
               a(3) = (   0.000000   0.000000   5.037380 )  

     reciprocal axes: (cart. coord. in units 2 pi/alat)
               b(1) = (  1.000000  0.000000  0.000000 )  
               b(2) = (  0.000000  0.765675  0.000000 )  
               b(3) = (  0.000000  0.000000  0.198516 )  


     PseudoPot. # 1 for O  read from file:
     /home/camp/zhonxu/pseudo/o_pbe_v1.01.uspp.F.UPF
     MD5 check sum: 2bcb18d16ea4b960afae9ec6d52f22d2
     Pseudo is Ultrasoft + core correction, Zval =  6.0
     Generated by new atomic code, or converted to UPF format
     Using radial grid of  737 points,  5 beta functions with: 
                l(1) =   0
                l(2) =   0
                l(3) =   1
                l(4) =   1
                l(5) =   2
     Q(r) pseudized with  8 coefficients,  rinner =    0.900   0.900   0.900
                                                       0.900   0.900

     PseudoPot. # 2 for Re read from file:
     /home/camp/zhonxu/pseudo/re_pbe_v1.uspp.F.UPF
     MD5 check sum: 6f5a5dcaf9c96c20d0ffdde0de57afc6
     Pseudo is Ultrasoft + core correction, Zval = 15.0
     Generated by new atomic code, or converted to UPF format
     Using radial grid of  981 points,  8 beta functions with: 
                l(1) =   0
                l(2) =   0
                l(3) =   1
                l(4) =   1
                l(5) =   2
                l(6) =   2
                l(7) =   3
                l(8) =   3
     Q(r) pseudized with  8 coefficients,  rinner =    1.000   1.000   1.000
                                                       1.000   1.000   1.000
                                                       1.000

     PseudoPot. # 3 for H  read from file:
     /home/camp/zhonxu/pseudo/h_pbe_v1.uspp.F.UPF
     MD5 check sum: 3408e3ff4ec8b0a4e358431e7e038a48
     Pseudo is Ultrasoft, Zval =  1.0
     Generated by new atomic code, or converted to UPF format
     Using radial grid of  615 points,  2 beta functions with: 
                l(1) =   0
                l(2) =   0
     Q(r) pseudized with  8 coefficients,  rinner =    0.700

     atomic species   valence    mass     pseudopotential
        O0             6.00    15.99940     O ( 1.00)
        Re1           15.00   186.20700     Re( 1.00)
        H2             1.00     1.00794     H ( 1.00)


     Simplified LDA+U calculation (l_max = 2) with parameters (eV):
     atomic species    L          U    alpha       J0     beta
        Re1            2     2.5000   0.0000   0.0000   0.0000



     No symmetry found



   Cartesian axes

     site n.     atom                  positions (alat units)
         1           O0  tau(   1) = (   0.0000000   0.0000000   1.8623194  )
         2           O0  tau(   2) = (   0.0000000   0.6530184   1.9253370  )
         3           Re1 tau(   3) = (   0.2500000   0.6530184   2.2271768  )
         4           Re1 tau(   4) = (   0.0000000   0.0000000   2.2287384  )
         5           O0  tau(   5) = (   0.2500000   1.0187087   2.2217869  )
         6           O0  tau(   6) = (   0.2500000   0.2873281   2.2210816  )
         7           O0  tau(   7) = (   0.0000000   0.6530184   2.5071544  )
         8           O0  tau(   8) = (   0.0000000   0.0000000   2.5894652  )
         9           Re1 tau(   9) = (   0.2500000   0.0000000   2.8894412  )
        10           Re1 tau(  10) = (   0.0000000   0.6530184   2.8583102  )
        11           O0  tau(  11) = (   0.2500000   0.9403465   2.8756892  )
        12           O0  tau(  12) = (   0.2500000   0.3656903   2.8872751  )
        13           O0  tau(  13) = (   0.0000000   0.0000000   3.1516368  )
        14           O0  tau(  14) = (   0.5000000   0.0000000   1.8624705  )
        15           O0  tau(  15) = (   0.5000000   0.6530184   1.9269994  )
        16           Re1 tau(  16) = (   0.7500000   0.6530184   2.2271768  )
        17           Re1 tau(  17) = (   0.5000000   0.0000000   2.2274287  )
        18           O0  tau(  18) = (   0.7500000   1.0187087   2.2214342  )
        19           O0  tau(  19) = (   0.7500000   0.2873281   2.2214846  )
        20           O0  tau(  20) = (   0.5000000   0.6530184   2.5086153  )
        21           O0  tau(  21) = (   0.5000000   0.0000000   2.5899690  )
        22           Re1 tau(  22) = (   0.7500000   0.0000000   2.8888367  )
        23           Re1 tau(  23) = (   0.5000000   0.6530184   2.9018835  )
        24           O0  tau(  24) = (   0.7500000   0.9403465   2.8756892  )
        25           O0  tau(  25) = (   0.7500000   0.3656903   2.8872248  )
        26           O0  tau(  26) = (   0.5000000   0.0000000   3.1466498  )
        27           H2  tau(  27) = (  -0.0002100   0.8169913   1.8417165  )
        28           H2  tau(  28) = (   0.4996400   0.8147057   1.8388956  )
        29           H2  tau(  29) = (   0.1678400   0.0328729   1.7887233  )
        30           H2  tau(  30) = (   0.6697500   0.0291246   1.7904864  )
        31           O0  tau(  31) = (   0.4996300   0.6876806   3.2307741  )
        32           O0  tau(  32) = (   0.5002900   0.4188329   3.4291461  )
        33           H2  tau(  33) = (   0.4999500   0.5176477   3.5843478  )

     number of k points=    10  Methfessel-Paxton smearing, width (Ry)=  0.0100
                       cart. coord. in units 2pi/alat
        k(    1) = (   0.0000000   0.0000000   0.0000000), wk =   0.1250000
        k(    2) = (   0.0000000   0.1914188   0.0000000), wk =   0.2500000
        k(    3) = (   0.0000000  -0.3828376   0.0000000), wk =   0.1250000
        k(    4) = (   0.2500000   0.0000000   0.0000000), wk =   0.2500000
        k(    5) = (   0.2500000   0.1914188   0.0000000), wk =   0.2500000
        k(    6) = (   0.2500000  -0.3828376   0.0000000), wk =   0.2500000
        k(    7) = (  -0.5000000   0.0000000   0.0000000), wk =   0.1250000
        k(    8) = (  -0.5000000   0.1914188   0.0000000), wk =   0.2500000
        k(    9) = (  -0.5000000  -0.3828376   0.0000000), wk =   0.1250000
        k(   10) = (  -0.2500000   0.1914188   0.0000000), wk =   0.2500000

     Dense  grid:  1290557 G-vectors     FFT dimensions: (  75,  96, 375)

     Smooth grid:   233813 G-vectors     FFT dimensions: (  45,  54, 216)

     Largest allocated arrays     est. size (Mb)     dimensions
        Kohn-Sham Wavefunctions        41.24 Mb     (   7365,  367)
        Atomic wavefunctions           21.24 Mb     (   7365,  189)
        NL pseudopotentials            59.11 Mb     (   7365,  526)
        Each V/rho on FFT grid         10.33 Mb     ( 676800)
        Each G-vector array             2.46 Mb     ( 322642)
        G-vector shells                 1.07 Mb     ( 139625)
     Largest temporary arrays     est. size (Mb)     dimensions
        Auxiliary wavefunctions       164.98 Mb     (   7365, 1468)
        Each subspace H/S matrix       32.88 Mb     (1468,1468)
        Each <psi_i|beta_j> matrix      2.95 Mb     (    526,  367)
        Arrays for rho mixing          82.62 Mb     ( 676800,   8)

     Check: negative/imaginary core charge=   -0.000003    0.000000

     Initial potential from superposition of free atoms
     Check: negative starting charge=   -0.236968

     starting charge  240.99957, renormalised to  245.00000

     negative rho (up, down):  0.241E+00 0.000E+00
     Number of +U iterations with fixed ns =  0
     Starting occupations:
 --- enter write_ns ---
 LDA+U parameters:
U( 2)     =  2.50000000
alpha( 2) =  0.00000000
atom    3   Tr[ns(na)] =   5.00000
    eigenvalues: 
  0.500  0.500  0.500  0.500  0.500
    eigenvectors:
  1.000  0.000  0.000  0.000  0.000
  0.000  1.000  0.000  0.000  0.000
  0.000  0.000  1.000  0.000  0.000
  0.000  0.000  0.000  1.000  0.000
  0.000  0.000  0.000  0.000  1.000
    occupations:
  0.500  0.000  0.000  0.000  0.000
  0.000  0.500  0.000  0.000  0.000
  0.000  0.000  0.500  0.000  0.000
  0.000  0.000  0.000  0.500  0.000
  0.000  0.000  0.000  0.000  0.500
atom    4   Tr[ns(na)] =   5.00000
    eigenvalues: 
  0.500  0.500  0.500  0.500  0.500
    eigenvectors:
  1.000  0.000  0.000  0.000  0.000
  0.000  1.000  0.000  0.000  0.000
  0.000  0.000  1.000  0.000  0.000
  0.000  0.000  0.000  1.000  0.000
  0.000  0.000  0.000  0.000  1.000
    occupations:
  0.500  0.000  0.000  0.000  0.000
  0.000  0.500  0.000  0.000  0.000
  0.000  0.000  0.500  0.000  0.000
  0.000  0.000  0.000  0.500  0.000
  0.000  0.000  0.000  0.000  0.500
atom    9   Tr[ns(na)] =   5.00000
    eigenvalues: 
  0.500  0.500  0.500  0.500  0.500
    eigenvectors:
  1.000  0.000  0.000  0.000  0.000
  0.000  1.000  0.000  0.000  0.000
  0.000  0.000  1.000  0.000  0.000
  0.000  0.000  0.000  1.000  0.000
  0.000  0.000  0.000  0.000  1.000
    occupations:
  0.500  0.000  0.000  0.000  0.000
  0.000  0.500  0.000  0.000  0.000
  0.000  0.000  0.500  0.000  0.000
  0.000  0.000  0.000  0.500  0.000
  0.000  0.000  0.000  0.000  0.500
atom   10   Tr[ns(na)] =   5.00000
    eigenvalues: 
  0.500  0.500  0.500  0.500  0.500
    eigenvectors:
  1.000  0.000  0.000  0.000  0.000
  0.000  1.000  0.000  0.000  0.000
  0.000  0.000  1.000  0.000  0.000
  0.000  0.000  0.000  1.000  0.000
  0.000  0.000  0.000  0.000  1.000
    occupations:
  0.500  0.000  0.000  0.000  0.000
  0.000  0.500  0.000  0.000  0.000
  0.000  0.000  0.500  0.000  0.000
  0.000  0.000  0.000  0.500  0.000
  0.000  0.000  0.000  0.000  0.500
atom   16   Tr[ns(na)] =   5.00000
    eigenvalues: 
  0.500  0.500  0.500  0.500  0.500
    eigenvectors:
  1.000  0.000  0.000  0.000  0.000
  0.000  1.000  0.000  0.000  0.000
  0.000  0.000  1.000  0.000  0.000
  0.000  0.000  0.000  1.000  0.000
  0.000  0.000  0.000  0.000  1.000
    occupations:
  0.500  0.000  0.000  0.000  0.000
  0.000  0.500  0.000  0.000  0.000
  0.000  0.000  0.500  0.000  0.000
  0.000  0.000  0.000  0.500  0.000
  0.000  0.000  0.000  0.000  0.500
atom   17   Tr[ns(na)] =   5.00000
    eigenvalues: 
  0.500  0.500  0.500  0.500  0.500
    eigenvectors:
  1.000  0.000  0.000  0.000  0.000
  0.000  1.000  0.000  0.000  0.000
  0.000  0.000  1.000  0.000  0.000
  0.000  0.000  0.000  1.000  0.000
  0.000  0.000  0.000  0.000  1.000
    occupations:
  0.500  0.000  0.000  0.000  0.000
  0.000  0.500  0.000  0.000  0.000
  0.000  0.000  0.500  0.000  0.000
  0.000  0.000  0.000  0.500  0.000
  0.000  0.000  0.000  0.000  0.500
atom   22   Tr[ns(na)] =   5.00000
    eigenvalues: 
  0.500  0.500  0.500  0.500  0.500
    eigenvectors:
  1.000  0.000  0.000  0.000  0.000
  0.000  1.000  0.000  0.000  0.000
  0.000  0.000  1.000  0.000  0.000
  0.000  0.000  0.000  1.000  0.000
  0.000  0.000  0.000  0.000  1.000
    occupations:
  0.500  0.000  0.000  0.000  0.000
  0.000  0.500  0.000  0.000  0.000
  0.000  0.000  0.500  0.000  0.000
  0.000  0.000  0.000  0.500  0.000
  0.000  0.000  0.000  0.000  0.500
atom   23   Tr[ns(na)] =   5.00000
    eigenvalues: 
  0.500  0.500  0.500  0.500  0.500
    eigenvectors:
  1.000  0.000  0.000  0.000  0.000
  0.000  1.000  0.000  0.000  0.000
  0.000  0.000  1.000  0.000  0.000
  0.000  0.000  0.000  1.000  0.000
  0.000  0.000  0.000  0.000  1.000
    occupations:
  0.500  0.000  0.000  0.000  0.000
  0.000  0.500  0.000  0.000  0.000
  0.000  0.000  0.500  0.000  0.000
  0.000  0.000  0.000  0.500  0.000
  0.000  0.000  0.000  0.000  0.500
N of occupied +U levels =  40.0000000
 --- exit write_ns ---
 Atomic wfc used for LDA+U Projector are NOT orthogonalized
     Starting wfc are  189 randomized atomic wfcs

     total cpu time spent up to now is      173.6 secs

     per-process dynamical memory:   427.2 Mb

     Self-consistent Calculation

     iteration #  1     ecut=    40.00 Ry     beta=0.70
     Davidson diagonalization with overlap
     ethr =  1.00E-02,  avg # of iterations =  6.0
 --- enter write_ns ---
 LDA+U parameters:
U( 2)     =  2.50000000
alpha( 2) =  0.00000000
atom    3   Tr[ns(na)] =   5.55175
    eigenvalues: 
  0.426  0.465  0.498  0.661  0.725
    eigenvectors:
  0.003  0.001  0.455  0.000  0.542
  0.000  0.999  0.000  0.000  0.000
  0.995  0.000  0.002  0.002  0.001
  0.000  0.000  0.544  0.000  0.456
  0.002  0.000  0.000  0.997  0.000
    occupations:
  0.621 -0.004  0.010 -0.113 -0.001
 -0.004  0.465  0.000  0.003 -0.003
  0.010  0.000  0.427 -0.005 -0.011
 -0.113  0.003 -0.005  0.602  0.000
 -0.001 -0.003 -0.011  0.000  0.661
atom    4   Tr[ns(na)] =   5.40655
    eigenvalues: 
  0.391  0.463  0.514  0.609  0.727
    eigenvectors:
  0.000  0.000  0.953  0.001  0.046
  0.001  0.000  0.001  0.999  0.000
  0.999  0.000  0.000  0.001  0.000
  0.000  0.000  0.046  0.000  0.954
  0.000  1.000  0.000  0.000  0.000
    occupations:
  0.524  0.003  0.001 -0.045  0.000
  0.003  0.609  0.005  0.000 -0.000
  0.001  0.005  0.391  0.000  0.000
 -0.045  0.000  0.000  0.717  0.000
  0.000 -0.000  0.000  0.000  0.463
atom    9   Tr[ns(na)] =   5.83868
    eigenvalues: 
  0.487  0.511  0.519  0.675  0.727
    eigenvectors:
  0.000  0.348  0.016  0.000  0.635
  0.000  0.050  0.950  0.000  0.000
  0.998  0.000  0.000  0.001  0.000
  0.000  0.602  0.034  0.000  0.364
  0.001  0.000  0.000  0.999  0.000
    occupations:
  0.648 -0.003  0.001 -0.104  0.000
 -0.003  0.519 -0.001 -0.000 -0.000
  0.001 -0.001  0.488 -0.001 -0.006
 -0.104 -0.000 -0.001  0.590 -0.000
  0.000 -0.000 -0.006 -0.000  0.675
atom   10   Tr[ns(na)] =   6.12437
    eigenvalues: 
  0.413  0.465  0.674  0.723  0.787
    eigenvectors:
  0.986  0.000  0.000  0.014  0.000
  0.000  0.000  0.000  0.000  1.000
  0.000  0.000  0.992  0.008  0.000
  0.014  0.000  0.008  0.978  0.000
  0.000  1.000  0.000  0.000  0.000
    occupations:
  0.418  0.000  0.000 -0.037 -0.000
  0.000  0.786  0.000  0.000 -0.006
  0.000  0.000  0.675  0.005 -0.000
 -0.037  0.000  0.005  0.718  0.000
 -0.000 -0.006 -0.000  0.000  0.465
atom   16   Tr[ns(na)] =   5.55273
    eigenvalues: 
  0.426  0.465  0.498  0.662  0.725
    eigenvectors:
  0.003  0.001  0.454  0.000  0.542
  0.000  0.999  0.000  0.000  0.000
  0.995  0.000  0.002  0.002  0.001
  0.000  0.000  0.544  0.000  0.456
  0.002  0.000  0.000  0.997  0.000
    occupations:
  0.621  0.004  0.010 -0.113  0.001
  0.004  0.465 -0.001 -0.003 -0.003
  0.010 -0.001  0.427 -0.005  0.011
 -0.113 -0.003 -0.005  0.602 -0.000
  0.001 -0.003  0.011 -0.000  0.661
atom   17   Tr[ns(na)] =   5.32077
    eigenvalues: 
  0.382  0.462  0.514  0.582  0.720
    eigenvectors:
  0.000  0.000  0.953  0.002  0.045
  0.000  0.000  0.002  0.998  0.000
  1.000  0.000  0.000  0.000  0.000
  0.000  0.000  0.045  0.000  0.955
  0.000  1.000  0.000  0.000  0.000
    occupations:
  0.524  0.003  0.001 -0.043  0.000
  0.003  0.582  0.004  0.001 -0.000
  0.001  0.004  0.382 -0.000  0.000
 -0.043  0.001 -0.000  0.711  0.000
  0.000 -0.000  0.000  0.000  0.462
atom   22   Tr[ns(na)] =   5.84432
    eigenvalues: 
  0.488  0.510  0.519  0.677  0.728
    eigenvectors:
  0.000  0.342  0.022  0.000  0.636
  0.000  0.067  0.933  0.000  0.000
  0.998  0.000  0.000  0.001  0.000
  0.000  0.591  0.045  0.000  0.364
  0.001  0.000  0.000  0.998  0.000
    occupations:
  0.649  0.003  0.001 -0.104  0.001
  0.003  0.518  0.001  0.001 -0.000
  0.001  0.001  0.489 -0.001  0.007
 -0.104  0.001 -0.001  0.590 -0.000
  0.001 -0.000  0.007 -0.000  0.676
atom   23   Tr[ns(na)] =   5.65723
    eigenvalues: 
  0.463  0.517  0.532  0.592  0.726
    eigenvectors:
  0.000  0.000  0.775  0.168  0.056
  0.016  0.984  0.000  0.000  0.000
  0.000  0.000  0.187  0.810  0.002
  0.000  0.000  0.037  0.021  0.941
  0.984  0.016  0.000  0.000  0.000
    occupations:
  0.553  0.000 -0.024 -0.041 -0.000
  0.000  0.516 -0.000 -0.000 -0.007
 -0.024 -0.000  0.581  0.001  0.000
 -0.041 -0.000  0.001  0.715  0.000
 -0.000 -0.007  0.000  0.000  0.464
N of occupied +U levels =  45.2964031
 --- exit write_ns ---

     negative rho (up, down):  0.294E+00 0.000E+00

     total cpu time spent up to now is      653.8 secs

     total energy              =   -2201.49493853 Ry
     Harris-Foulkes estimate   =   -2208.35400550 Ry
     estimated scf accuracy    <       8.63866258 Ry

     iteration #  2     ecut=    40.00 Ry     beta=0.70
     Davidson diagonalization with overlap
     ethr =  3.53E-03,  avg # of iterations =  5.0

     negative rho (up, down):  0.286E+00 0.000E+00

     total cpu time spent up to now is     1027.4 secs

     total energy              =   -2168.60590176 Ry
     Harris-Foulkes estimate   =   -2245.32378678 Ry
     estimated scf accuracy    <     952.63183875 Ry

     iteration #  3     ecut=    40.00 Ry     beta=0.70
     Davidson diagonalization with overlap
     ethr =  3.53E-03,  avg # of iterations =  4.9

     negative rho (up, down):  0.242E+00 0.000E+00

     total cpu time spent up to now is     1431.5 secs

     total energy              =   -2194.55751350 Ry
     Harris-Foulkes estimate   =   -2217.73189083 Ry
     estimated scf accuracy    <     273.71753737 Ry

     iteration #  4     ecut=    40.00 Ry     beta=0.70
     Davidson diagonalization with overlap
     ethr =  3.53E-03,  avg # of iterations =  4.0

     negative rho (up, down):  0.236E+00 0.000E+00

     total cpu time spent up to now is     1743.1 secs

     total energy              =   -2205.70894581 Ry
     Harris-Foulkes estimate   =   -2208.44743557 Ry
     estimated scf accuracy    <      12.65017716 Ry

     iteration #  5     ecut=    40.00 Ry     beta=0.70
     Davidson diagonalization with overlap
     ethr =  3.53E-03,  avg # of iterations =  2.6

     negative rho (up, down):  0.236E+00 0.000E+00

     total cpu time spent up to now is     2030.4 secs

     total energy              =   -2206.84463571 Ry
     Harris-Foulkes estimate   =   -2207.14621517 Ry
     estimated scf accuracy    <       1.36982671 Ry

     iteration #  6     ecut=    40.00 Ry     beta=0.70
     Davidson diagonalization with overlap
     ethr =  5.59E-04,  avg # of iterations =  4.0

     negative rho (up, down):  0.238E+00 0.000E+00

     total cpu time spent up to now is     2328.8 secs

     total energy              =   -2206.89378156 Ry
     Harris-Foulkes estimate   =   -2207.06512685 Ry
     estimated scf accuracy    <       1.05623129 Ry

     iteration #  7     ecut=    40.00 Ry     beta=0.70
     Davidson diagonalization with overlap
     ethr =  4.31E-04,  avg # of iterations =  1.0

     negative rho (up, down):  0.239E+00 0.000E+00

     total cpu time spent up to now is     2604.3 secs

     total energy              =   -2206.93832772 Ry
     Harris-Foulkes estimate   =   -2207.00865576 Ry
     estimated scf accuracy    <       0.58184439 Ry

     iteration #  8     ecut=    40.00 Ry     beta=0.70
     Davidson diagonalization with overlap
     ethr =  2.37E-04,  avg # of iterations =  3.8

     negative rho (up, down):  0.241E+00 0.000E+00

     total cpu time spent up to now is     2898.6 secs

     total energy              =   -2206.93993548 Ry
     Harris-Foulkes estimate   =   -2206.99341724 Ry
     estimated scf accuracy    <       0.27817184 Ry

     iteration #  9     ecut=    40.00 Ry     beta=0.70
     Davidson diagonalization with overlap
     ethr =  1.14E-04,  avg # of iterations =  2.1

     negative rho (up, down):  0.243E+00 0.000E+00

     total cpu time spent up to now is     3174.7 secs

     total energy              =   -2206.94324630 Ry
     Harris-Foulkes estimate   =   -2206.98680342 Ry
     estimated scf accuracy    <       0.20075927 Ry

     iteration # 10     ecut=    40.00 Ry     beta=0.70
     Davidson diagonalization with overlap
     ethr =  8.19E-05,  avg # of iterations =  2.8

     negative rho (up, down):  0.243E+00 0.000E+00

     total cpu time spent up to now is     3454.8 secs

     total energy              =   -2206.95066653 Ry
     Harris-Foulkes estimate   =   -2206.97763895 Ry
     estimated scf accuracy    <       0.17131053 Ry

     iteration # 11     ecut=    40.00 Ry     beta=0.70
     Davidson diagonalization with overlap
     ethr =  6.99E-05,  avg # of iterations =  1.0

     negative rho (up, down):  0.243E+00 0.000E+00

     total cpu time spent up to now is     3723.7 secs

     total energy              =   -2206.95993846 Ry
     Harris-Foulkes estimate   =   -2206.97441339 Ry
     estimated scf accuracy    <       0.10369929 Ry

     iteration # 12     ecut=    40.00 Ry     beta=0.70
     Davidson diagonalization with overlap
     ethr =  4.23E-05,  avg # of iterations =  3.0

     negative rho (up, down):  0.244E+00 0.000E+00

     total cpu time spent up to now is     4015.5 secs

     total energy              =   -2206.96634945 Ry
     Harris-Foulkes estimate   =   -2206.96922440 Ry
     estimated scf accuracy    <       0.03609696 Ry

     iteration # 13     ecut=    40.00 Ry     beta=0.70
     Davidson diagonalization with overlap
     ethr =  1.47E-05,  avg # of iterations =  6.8

     negative rho (up, down):  0.244E+00 0.000E+00

     total cpu time spent up to now is     4313.8 secs

     total energy              =   -2206.96723038 Ry
     Harris-Foulkes estimate   =   -2206.96848535 Ry
     estimated scf accuracy    <       0.00661477 Ry

     iteration # 14     ecut=    40.00 Ry     beta=0.70
     Davidson diagonalization with overlap
     ethr =  2.70E-06,  avg # of iterations =  5.9

     negative rho (up, down):  0.244E+00 0.000E+00

     total cpu time spent up to now is     4618.9 secs

     total energy              =   -2206.96762268 Ry
     Harris-Foulkes estimate   =   -2206.96807827 Ry
     estimated scf accuracy    <       0.00149433 Ry

     iteration # 15     ecut=    40.00 Ry     beta=0.70
     Davidson diagonalization with overlap
     ethr =  6.10E-07,  avg # of iterations =  2.1

     negative rho (up, down):  0.244E+00 0.000E+00

     total cpu time spent up to now is     4893.1 secs

     total energy              =   -2206.96781065 Ry
     Harris-Foulkes estimate   =   -2206.96798220 Ry
     estimated scf accuracy    <       0.00174825 Ry

     iteration # 16     ecut=    40.00 Ry     beta=0.70
     Davidson diagonalization with overlap
     ethr =  6.10E-07,  avg # of iterations =  1.0

     negative rho (up, down):  0.244E+00 0.000E+00

     total cpu time spent up to now is     5169.5 secs

     total energy              =   -2206.96784169 Ry
     Harris-Foulkes estimate   =   -2206.96797686 Ry
     estimated scf accuracy    <       0.00079241 Ry

     iteration # 17     ecut=    40.00 Ry     beta=0.70
     Davidson diagonalization with overlap
     ethr =  3.23E-07,  avg # of iterations =  1.0

     negative rho (up, down):  0.244E+00 0.000E+00

     total cpu time spent up to now is     5449.8 secs

     total energy              =   -2206.96788108 Ry
     Harris-Foulkes estimate   =   -2206.96793717 Ry
     estimated scf accuracy    <       0.00039684 Ry

     iteration # 18     ecut=    40.00 Ry     beta=0.70
     Davidson diagonalization with overlap
     ethr =  1.62E-07,  avg # of iterations =  1.0

     negative rho (up, down):  0.244E+00 0.000E+00

     total cpu time spent up to now is     5721.8 secs

     total energy              =   -2206.96789970 Ry
     Harris-Foulkes estimate   =   -2206.96792843 Ry
     estimated scf accuracy    <       0.00015714 Ry

     iteration # 19     ecut=    40.00 Ry     beta=0.70
     Davidson diagonalization with overlap
     ethr =  6.41E-08,  avg # of iterations =  1.0

     negative rho (up, down):  0.244E+00 0.000E+00

     total cpu time spent up to now is     5994.3 secs

     total energy              =   -2206.96789633 Ry
     Harris-Foulkes estimate   =   -2206.96793791 Ry
     estimated scf accuracy    <       0.00043607 Ry

     iteration # 20     ecut=    40.00 Ry     beta=0.70
     Davidson diagonalization with overlap
     ethr =  6.41E-08,  avg # of iterations =  1.0

     negative rho (up, down):  0.244E+00 0.000E+00

     total cpu time spent up to now is     6268.0 secs

     total energy              =   -2206.96791542 Ry
     Harris-Foulkes estimate   =   -2206.96791832 Ry
     estimated scf accuracy    <       0.00001054 Ry

     iteration # 21     ecut=    40.00 Ry     beta=0.70
     Davidson diagonalization with overlap
     ethr =  4.30E-09,  avg # of iterations =  1.0

     negative rho (up, down):  0.244E+00 0.000E+00

     total cpu time spent up to now is     6542.7 secs

     total energy              =   -2206.96791456 Ry
     Harris-Foulkes estimate   =   -2206.96791986 Ry
     estimated scf accuracy    <       0.00002716 Ry

     iteration # 22     ecut=    40.00 Ry     beta=0.70
     Davidson diagonalization with overlap
     ethr =  4.30E-09,  avg # of iterations =  2.0

     negative rho (up, down):  0.244E+00 0.000E+00

     total cpu time spent up to now is     6823.3 secs

     total energy              =   -2206.96791492 Ry
     Harris-Foulkes estimate   =   -2206.96791892 Ry
     estimated scf accuracy    <       0.00002706 Ry

     iteration # 23     ecut=    40.00 Ry     beta=0.70
     Davidson diagonalization with overlap
     ethr =  4.30E-09,  avg # of iterations =  1.0

     negative rho (up, down):  0.244E+00 0.000E+00

     total cpu time spent up to now is     7106.1 secs

     total energy              =   -2206.96791511 Ry
     Harris-Foulkes estimate   =   -2206.96791982 Ry
     estimated scf accuracy    <       0.00003321 Ry

     iteration # 24     ecut=    40.00 Ry     beta=0.70
     Davidson diagonalization with overlap
     ethr =  4.30E-09,  avg # of iterations =  1.0

     negative rho (up, down):  0.244E+00 0.000E+00

     total cpu time spent up to now is     7380.0 secs

     total energy              =   -2206.96791682 Ry
     Harris-Foulkes estimate   =   -2206.96791804 Ry
     estimated scf accuracy    <       0.00000748 Ry

     iteration # 25     ecut=    40.00 Ry     beta=0.70
     Davidson diagonalization with overlap
     ethr =  3.05E-09,  avg # of iterations =  1.0

     negative rho (up, down):  0.244E+00 0.000E+00

     total cpu time spent up to now is     7660.1 secs

     total energy              =   -2206.96791738 Ry
     Harris-Foulkes estimate   =   -2206.96791759 Ry
     estimated scf accuracy    <       0.00000106 Ry

     iteration # 26     ecut=    40.00 Ry     beta=0.70
     Davidson diagonalization with overlap
     ethr =  4.32E-10,  avg # of iterations =  1.0

     negative rho (up, down):  0.244E+00 0.000E+00

     total cpu time spent up to now is     7931.1 secs

     total energy              =   -2206.96791736 Ry
     Harris-Foulkes estimate   =   -2206.96791763 Ry
     estimated scf accuracy    <       0.00000241 Ry

     iteration # 27     ecut=    40.00 Ry     beta=0.70
     Davidson diagonalization with overlap
     ethr =  4.32E-10,  avg # of iterations =  1.0

     negative rho (up, down):  0.244E+00 0.000E+00

     total cpu time spent up to now is     8201.6 secs

     End of self-consistent calculation
 --- enter write_ns ---
 LDA+U parameters:
U( 2)     =  2.50000000
alpha( 2) =  0.00000000
atom    3   Tr[ns(na)] =   6.55163
    eigenvalues: 
  0.546  0.573  0.607  0.768  0.782
    eigenvectors:
  0.008  0.342  0.001  0.641  0.007
  0.985  0.013  0.000  0.001  0.001
  0.000  0.002  0.979  0.004  0.015
  0.005  0.644  0.006  0.341  0.004
  0.001  0.000  0.013  0.014  0.972
    occupations:
  0.699 -0.007  0.011 -0.092 -0.001
 -0.007  0.547 -0.000  0.002 -0.006
  0.011 -0.000  0.610 -0.006  0.020
 -0.092  0.002 -0.006  0.640 -0.001
 -0.001 -0.006  0.020 -0.001  0.779
atom    4   Tr[ns(na)] =   6.53670
    eigenvalues: 
  0.565  0.602  0.628  0.698  0.776
    eigenvectors:
  0.000  0.984  0.000  0.001  0.015
  0.000  0.001  0.015  0.984  0.000
  0.000  0.000  0.985  0.015  0.000
  0.000  0.015  0.000  0.000  0.985
  1.000  0.000  0.000  0.000  0.000
    occupations:
  0.605  0.003  0.000 -0.021  0.001
  0.003  0.697  0.008 -0.000 -0.002
  0.000  0.008  0.629  0.000 -0.000
 -0.021 -0.000  0.000  0.773 -0.000
  0.001 -0.002 -0.000 -0.000  0.565
atom    9   Tr[ns(na)] =   6.53696
    eigenvalues: 
  0.597  0.610  0.611  0.712  0.739
    eigenvectors:
  0.251  0.001  0.001  0.008  0.740
  0.000  0.632  0.368  0.000  0.000
  0.006  0.347  0.594  0.052  0.000
  0.743  0.001  0.004  0.002  0.250
  0.001  0.018  0.034  0.938  0.009
    occupations:
  0.703  0.001 -0.001 -0.061  0.002
  0.001  0.610 -0.001 -0.001  0.000
 -0.001 -0.001  0.616 -0.001 -0.023
 -0.061 -0.001 -0.001  0.633 -0.002
  0.002  0.000 -0.023 -0.002  0.706
atom   10   Tr[ns(na)] =   6.51572
    eigenvalues: 
  0.482  0.541  0.648  0.742  0.845
    eigenvectors:
  0.999  0.000  0.000  0.001  0.000
  0.000  0.000  0.000  0.000  1.000
  0.000  0.000  0.995  0.005  0.000
  0.001  0.000  0.005  0.994  0.000
  0.000  1.000  0.000  0.000  0.000
    occupations:
  0.482  0.000 -0.002 -0.008  0.000
  0.000  0.845  0.001  0.000 -0.004
 -0.002  0.001  0.648  0.006 -0.000
 -0.008  0.000  0.006  0.742 -0.000
  0.000 -0.004 -0.000 -0.000  0.541
atom   16   Tr[ns(na)] =   6.55173
    eigenvalues: 
  0.546  0.573  0.608  0.768  0.781
    eigenvectors:
  0.008  0.342  0.001  0.640  0.009
  0.986  0.012  0.000  0.001  0.001
  0.000  0.002  0.980  0.004  0.015
  0.005  0.643  0.006  0.340  0.005
  0.001  0.000  0.013  0.016  0.971
    occupations:
  0.699  0.007  0.011 -0.092  0.000
  0.007  0.547 -0.000 -0.002 -0.006
  0.011 -0.000  0.611 -0.006 -0.020
 -0.092 -0.002 -0.006  0.640  0.001
  0.000 -0.006 -0.020  0.001  0.779
atom   17   Tr[ns(na)] =   6.53403
    eigenvalues: 
  0.565  0.602  0.615  0.709  0.776
    eigenvectors:
  0.000  0.987  0.000  0.001  0.012
  0.000  0.001  0.006  0.994  0.000
  0.000  0.000  0.994  0.006  0.000
  0.000  0.012  0.000  0.000  0.988
  1.000  0.000  0.000  0.000  0.000
    occupations:
  0.604  0.003  0.000 -0.019  0.001
  0.003  0.708  0.007 -0.000 -0.001
  0.000  0.007  0.615  0.001 -0.000
 -0.019 -0.000  0.001  0.774 -0.000
  0.001 -0.001 -0.000 -0.000  0.566
atom   22   Tr[ns(na)] =   6.53893
    eigenvalues: 
  0.597  0.608  0.611  0.712  0.742
    eigenvectors:
  0.251  0.003  0.000  0.006  0.739
  0.001  0.604  0.394  0.000  0.000
  0.008  0.368  0.570  0.053  0.001
  0.739  0.005  0.002  0.002  0.252
  0.001  0.020  0.033  0.939  0.008
    occupations:
  0.705 -0.001  0.000 -0.063  0.003
 -0.001  0.609  0.001  0.001  0.000
  0.000  0.001  0.615 -0.001  0.023
 -0.063  0.001 -0.001  0.634 -0.001
  0.003  0.000  0.023 -0.001  0.707
atom   23   Tr[ns(na)] =   6.58007
    eigenvalues: 
  0.555  0.583  0.609  0.758  0.785
    eigenvectors:
  0.000  0.000  0.961  0.002  0.036
  0.028  0.972  0.000  0.000  0.000
  0.000  0.000  0.009  0.934  0.057
  0.000  0.000  0.030  0.063  0.907
  0.972  0.028  0.000  0.000  0.000
    occupations:
  0.615  0.000 -0.015 -0.030 -0.000
  0.000  0.583 -0.001 -0.000 -0.005
 -0.015 -0.001  0.759  0.004  0.000
 -0.030 -0.000  0.004  0.778  0.000
 -0.000 -0.005  0.000  0.000  0.555
N of occupied +U levels =  52.3457977
 --- exit write_ns ---

          k = 0.0000 0.0000 0.0000 ( 29221 PWs)   bands (ev):

   -81.3755 -81.3038 -81.2169 -81.1576 -81.0686 -80.9076 -80.8522 -80.7258
   -43.5881 -43.5112 -43.3417 -43.2883 -43.2853 -43.2002 -43.1885 -43.1292
   -43.1081 -43.0836 -43.0571 -43.0527 -42.9428 -42.9128 -42.8371 -42.8037
   -42.7920 -42.7538 -42.7127 -42.6863 -42.6455 -42.5986 -42.2882 -42.1758
   -21.0170 -20.5895 -20.5380 -20.3300 -20.0928 -19.9534 -19.7048 -19.6814
   -19.6664 -19.5232 -19.4942 -19.4001 -19.2887 -19.2838 -19.1545 -18.9552
   -18.9454 -18.4404 -18.1055 -16.9992  -9.7267  -9.5666  -9.2108  -8.9562
    -8.5322  -8.5098  -8.2112  -8.0824  -8.0046  -7.9754  -7.7958  -7.7340
    -7.5353  -7.3560  -7.3248  -7.1987  -7.0846  -6.9469  -6.8976  -6.7479
    -6.6618  -6.4087  -6.3382  -5.7371  -5.7034  -5.6153  -5.6061  -5.5322
    -5.4269  -5.3783  -5.2278  -5.1804  -5.1261  -4.9349  -4.8638  -4.8138
    -4.5628  -4.4968  -4.4586  -4.3994  -4.3314  -4.1463  -4.0237  -3.9579
    -3.8861  -3.8066  -3.6919  -3.6372  -3.4239  -3.3855  -3.3347  -3.3055
    -3.2220  -3.1773  -3.0763  -2.9790  -2.8970  -2.8615  -2.7241  -2.6354
    -2.4443  -1.2371  -0.9730  -0.8790  -0.6400  -0.2674  -0.1862  -0.1467
     0.0887   0.2656   0.2900   0.3700   0.4577   0.8624   0.9658   1.0063
     1.2968   1.7611   1.8012   2.0775   2.7104   2.7645   2.9613   3.1647
     3.1819   3.2326   3.4821   3.7468   4.1553   4.2383   4.4447   4.5309
     4.6401   4.6822   4.8080   4.8598   4.8945   5.0198   5.0981   5.1253
     5.3422   5.4258   5.5691   6.1737   6.2410   6.3579   6.6543   6.9625
     7.4115   7.6569   7.7563   7.8922   7.9746   8.1094   8.1718   8.2499
     8.3008   8.5336   8.6651   8.7605   8.8814   8.9991   9.0356   9.1721
     9.1808   9.3109   9.3846   9.4146   9.5596   9.7692   9.8134   9.8505
     9.9039  10.0961  10.1032  10.2273  10.2731  10.3550  10.5408  10.6654
    10.6896  10.7562  10.8620  11.0018  11.0850  11.2685  11.3408  11.3837
    11.5316  11.6542  11.7854  11.8511  11.8674  11.9923  12.0703  12.1605
    12.1715  12.3640  12.5852  12.6482  12.7285  12.7493  12.8728  12.8969
    13.0081  13.0905  13.1368  13.1732  13.2524  13.2766  13.3148  13.3442
    13.4341  13.4631  13.5010  13.5808  13.6007  13.7377  13.7720  13.8737
    13.9286  14.0109  14.0401  14.0723  14.1323  14.1719  14.1960  14.3130
    14.3777  14.4561  14.5437  14.6574  14.8113  14.8571  14.9536  15.0582
    15.0707  15.1321  15.1987  15.2687  15.3714  15.4789  15.5202  15.5575
    15.7328  15.7777  15.8472  16.0226  16.0411  16.0897  16.1496  16.2432
    16.3794  16.5073  16.5754  16.6206  16.6348  16.8156  16.9065  16.9654
    17.0264  17.1203  17.2037  17.2632  17.3204  17.3340  17.4462  17.5335
    17.5889  17.6542  17.7328  17.9130  17.9166  17.9787  18.0731  18.2086
    18.3165  18.3937  18.4564  18.5722  18.6234  18.6336  18.8774  18.9047
    18.9378  18.9945  19.0178  19.2223  19.2705  19.3122  19.3476  19.4214
    19.5034  19.5975  19.7537  19.8404  19.9684  19.9847  20.0213  20.0858
    20.1280  20.1748  20.2094  20.2897  20.4291  20.4517  20.6185  20.6869
    20.7731  20.8322  20.9292  20.9390  21.0206  21.0663  21.2009  21.2382
    21.4320  21.4696  21.4820  21.5649  21.6456  21.7031  21.7634  21.7861
    21.9855  22.0505  22.1048  22.1481  22.1980  22.2335  22.2593  22.3775
    22.3999  22.4583  22.4680  22.4969  22.5615  22.5725  22.6130  22.7172
    22.7923  22.8276  22.8706  22.9136  23.0046  23.0541  23.0876  23.1172
    23.1366  23.1906  23.2254  23.2318  23.2958  23.4139  23.4723

          k = 0.0000 0.1914 0.0000 ( 29141 PWs)   bands (ev):

   -81.3755 -81.3039 -81.2167 -81.1576 -81.0686 -80.9074 -80.8522 -80.7258
   -43.5882 -43.5111 -43.3424 -43.2884 -43.2838 -43.1986 -43.1885 -43.1295
   -43.1071 -43.0835 -43.0573 -43.0518 -42.9429 -42.9128 -42.8394 -42.8037
   -42.7943 -42.7533 -42.7127 -42.6863 -42.6452 -42.5985 -42.2881 -42.1757
   -20.9451 -20.5352 -20.4227 -20.3167 -20.0858 -19.9593 -19.9354 -19.7946
   -19.7122 -19.6775 -19.5269 -19.4724 -19.3351 -19.0761 -18.9536 -18.9404
   -18.9379 -18.4391 -18.1054 -16.9978  -9.3711  -9.1841  -9.0822  -8.9677
    -8.8234  -8.5090  -8.4737  -8.3508  -8.2718  -8.1831  -8.1396  -7.8776
    -7.8171  -7.3656  -7.3338  -7.0635  -6.7377  -6.5965  -6.4788  -6.4114
    -6.3833  -6.2834  -6.0869  -5.9718  -5.8163  -5.7743  -5.6765  -5.6031
    -5.5670  -5.4354  -5.4132  -5.3776  -5.2478  -5.0896  -4.8986  -4.6480
    -4.5889  -4.4916  -4.4611  -4.3865  -4.1644  -4.1416  -3.9871  -3.8365
    -3.8047  -3.6990  -3.6067  -3.5700  -3.4945  -3.3968  -3.3107  -3.2615
    -3.2508  -3.1773  -3.0311  -2.9124  -2.9094  -2.8398  -2.7544  -2.6263
    -2.5224  -1.3598  -1.2887  -1.2067  -1.0323  -0.5289  -0.2661  -0.1007
     0.1894   0.6034   0.7800   0.8299   0.8372   0.8921   0.9622   1.0145
     1.3898   1.4274   1.7756   2.0689   2.5297   2.9322   3.0945   3.1456
     3.2200   3.4301   3.4739   3.7539   3.7921   4.1543   4.1903   4.2572
     4.2630   4.3912   4.4326   4.6854   4.9340   5.1022   5.1216   5.4163
     5.6226   5.8397   6.3119   6.3360   6.4775   6.5650   6.6648   6.7130
     6.9114   7.1169   7.2938   7.6237   7.7339   7.9515   7.9551   8.3240
     8.3367   8.3820   8.7116   8.8118   9.0338   9.2292   9.2547   9.4102
     9.4781   9.6128   9.6765   9.7051   9.7705   9.9721  10.0310  10.0682
    10.1840  10.2672  10.2842  10.3826  10.5145  10.5551  10.6920  10.7720
    10.8772  10.9057  10.9627  11.1109  11.2048  11.3231  11.4068  11.4961
    11.5268  11.5995  11.6351  11.8211  11.8661  11.9147  11.9571  11.9690
    12.0770  12.2212  12.3142  12.3362  12.3965  12.4764  12.4873  12.5381
    12.6246  12.7504  12.8465  12.9565  13.0204  13.1060  13.2259  13.2777
    13.3002  13.5086  13.6078  13.6238  13.7256  13.7848  13.8197  13.9164
    13.9365  14.0115  14.0557  14.1585  14.1964  14.2907  14.4200  14.4621
    14.5478  14.6145  14.6885  14.7145  14.7567  14.8691  14.9421  14.9438
    14.9907  15.1227  15.1565  15.2339  15.2817  15.3532  15.4713  15.5391
    15.6105  15.7076  15.7208  15.8322  15.8503  15.9435  15.9949  16.0630
    16.1741  16.3001  16.3956  16.5652  16.5825  16.7122  16.7918  16.8691
    17.0054  17.1403  17.2752  17.3041  17.3565  17.3694  17.4277  17.5506
    17.6278  17.8050  17.8331  17.9274  18.0374  18.0960  18.1686  18.3010
    18.3934  18.4349  18.6130  18.6447  18.7706  18.8594  18.9131  18.9320
    19.0430  19.0633  19.0771  19.1751  19.2510  19.2941  19.3666  19.4319
    19.4883  19.6115  19.6277  19.6560  19.6926  19.7365  19.8402  19.9648
    20.0522  20.1371  20.1875  20.2376  20.3413  20.3523  20.3711  20.4475
    20.5994  20.6314  20.6949  20.8514  20.8757  20.9157  21.0072  21.0306
    21.0757  21.1462  21.3238  21.4541  21.4918  21.5264  21.6032  21.6618
    21.6972  21.7496  21.7611  21.8620  21.9371  22.0494  22.1301  22.1922
    22.2172  22.3684  22.4049  22.4450  22.5272  22.5677  22.5770  22.6187
    22.6451  22.7694  22.8532  22.9602  23.0181  23.0808  23.2058  23.2682
    23.3180  23.3561  23.4472  23.5104  23.5756  23.6451  23.7751

          k = 0.0000-0.3828 0.0000 ( 29262 PWs)   bands (ev):

   -81.3754 -81.3040 -81.2165 -81.1576 -81.0686 -80.9072 -80.8523 -80.7259
   -43.5884 -43.5110 -43.3432 -43.2884 -43.2823 -43.1970 -43.1885 -43.1299
   -43.1062 -43.0835 -43.0574 -43.0510 -42.9429 -42.9128 -42.8419 -42.8037
   -42.7966 -42.7529 -42.7127 -42.6863 -42.6450 -42.5985 -42.2881 -42.1758
   -20.8749 -20.4766 -20.3466 -20.1457 -20.1058 -20.0401 -19.9418 -19.8912
   -19.7914 -19.7562 -19.6941 -19.5486 -19.5014 -18.9633 -18.9466 -18.8626
   -18.7425 -18.4388 -18.1053 -16.9964  -9.2606  -9.0646  -8.9330  -8.8063
    -8.7286  -8.6831  -8.5848  -8.5012  -8.3430  -8.1886  -8.1760  -7.9101
    -7.6146  -7.3574  -7.2512  -7.2341  -7.0979  -6.8955  -6.8700  -6.6576
    -6.4088  -6.0320  -5.9024  -5.8444  -5.7811  -5.6949  -5.4890  -5.4608
    -5.4545  -5.4198  -5.2794  -5.2593  -5.1350  -5.1034  -4.8810  -4.7589
    -4.6951  -4.6219  -4.5425  -4.1861  -4.1024  -3.9913  -3.8809  -3.8688
    -3.8258  -3.8188  -3.7676  -3.6693  -3.5247  -3.5089  -3.3648  -3.2852
    -3.1270  -2.9361  -2.9307  -2.8912  -2.8608  -2.8432  -2.7292  -2.6019
    -2.5060  -1.7064  -1.5665  -1.4698  -1.2237  -0.5889  -0.3103  -0.0505
     0.5648   0.7331   0.7902   0.9866   0.9894   1.1219   1.1749   1.1779
     1.3602   1.5356   1.5723   2.1890   2.3095   2.7539   2.7678   3.0530
     3.2404   3.2906   3.3678   3.7121   3.7831   3.9914   4.0220   4.2529
     4.3257   4.5178   4.7777   4.8754   5.0892   5.1063   5.1837   5.5004
     5.6256   5.7747   6.0743   6.2472   6.5206   6.5501   6.6222   6.7991
     7.0134   7.0353   7.1954   7.3168   7.4040   7.7678   7.7875   8.0794
     8.5256   8.6132   8.7200   8.7644   8.8635   9.1168   9.1700   9.4034
     9.6247   9.7473   9.9915  10.0477  10.1404  10.2902  10.3452  10.5074
    10.5362  10.6000  10.6403  10.6483  10.7713  10.8307  11.0062  11.0621
    11.0934  11.1183  11.2446  11.2662  11.4001  11.4121  11.4908  11.5506
    11.5834  11.6128  11.6343  11.6480  11.7111  11.7451  11.8132  11.9631
    12.0243  12.1178  12.1247  12.1507  12.2128  12.2507  12.3093  12.3576
    12.4564  12.5029  12.5713  12.6597  12.6768  12.8418  12.9493  13.0048
    13.0810  13.2396  13.2461  13.4181  13.5087  13.6010  13.6665  13.7243
    13.7779  13.7890  13.8987  13.9487  14.0307  14.0621  14.1460  14.2486
    14.4019  14.4494  14.5037  14.5668  14.6868  14.8031  14.8183  14.8531
    14.9437  15.1386  15.3018  15.4706  15.5976  15.6599  15.7364  15.7433
    15.9536  15.9848  15.9967  16.1997  16.2789  16.3653  16.5434  16.6131
    16.6305  16.7387  16.7849  16.8003  16.8546  16.8869  16.9491  17.0867
    17.1162  17.1249  17.1939  17.2006  17.3916  17.4076  17.4414  17.4801
    17.5428  17.5871  17.6606  17.7409  17.7680  17.8024  17.8901  17.9762
    18.0343  18.1334  18.2235  18.2781  18.3323  18.3584  18.4994  18.5169
    18.6350  18.7030  18.7081  18.7297  18.8517  18.9668  19.0375  19.1058
    19.1373  19.2312  19.3615  19.4637  19.5536  19.7588  19.8145  19.9253
    19.9647  20.0552  20.0859  20.1277  20.1874  20.2629  20.3514  20.5034
    20.5189  20.5638  20.7130  20.8417  20.8538  20.9207  20.9221  21.0540
    21.2200  21.3097  21.3415  21.3929  21.4531  21.5402  21.6240  21.7794
    21.8050  21.8340  21.9685  22.1586  22.1777  22.2129  22.2641  22.3483
    22.3869  22.4499  22.5452  22.6215  22.7205  22.8187  22.8715  22.8986
    22.9803  23.0983  23.1733  23.2169  23.2270  23.3364  23.3628  23.4465
    23.4616  23.5628  23.6066  23.6610  23.8195  23.9265  23.9533

          k = 0.2500 0.0000 0.0000 ( 29190 PWs)   bands (ev):

   -81.3656 -81.3058 -81.2055 -81.1624 -81.0648 -80.8957 -80.8567 -80.7230
   -43.4723 -43.3917 -43.2781 -43.2670 -43.2596 -43.2004 -43.1879 -43.1493
   -43.1223 -43.0825 -43.0357 -42.9450 -42.9387 -42.9153 -42.8536 -42.8259
   -42.8249 -42.7734 -42.7671 -42.7395 -42.6919 -42.6607 -42.3920 -42.3164
   -20.8512 -20.4490 -20.3913 -20.3107 -20.0862 -19.9350 -19.7650 -19.6257
   -19.5763 -19.5524 -19.5250 -19.4473 -19.4184 -19.3398 -19.1991 -19.0478
   -18.9933 -18.4773 -18.2261 -16.9994  -9.3148  -9.1955  -8.9102  -8.6258
    -8.5524  -8.3235  -8.0056  -7.8946  -7.8074  -7.7667  -7.7301  -7.5990
    -7.5408  -7.5068  -7.2996  -7.1062  -6.9767  -6.8331  -6.6962  -6.6454
    -6.6059  -6.4655  -6.3296  -6.2899  -6.0242  -5.9863  -5.7840  -5.6031
    -5.5506  -5.4173  -5.1763  -5.0593  -4.9945  -4.8907  -4.8154  -4.7059
    -4.6271  -4.5933  -4.5374  -4.4585  -4.3968  -4.3316  -4.2551  -4.1741
    -3.9188  -3.8803  -3.8196  -3.7122  -3.6327  -3.5005  -3.4552  -3.4032
    -3.2037  -3.1542  -3.0302  -2.8732  -2.8052  -2.7824  -2.5560  -2.5025
    -1.9832  -1.0301  -0.9509  -0.8636  -0.6275  -0.5581  -0.3163  -0.2449
    -0.0283   0.0234   0.2538   0.4910   0.6594   0.7242   0.8176   1.0459
     1.1811   1.1933   1.5646   1.6857   1.7240   1.8039   2.0402   2.1464
     2.6456   3.4749   3.7856   4.1467   4.2239   4.2762   4.4190   4.5119
     4.5790   4.7123   4.8325   4.9455   4.9887   5.1111   5.2191   5.2349
     5.3642   5.7765   5.9133   6.2395   6.3984   6.5361   6.7124   7.0186
     7.2485   7.6295   7.6884   7.7041   8.0265   8.1500   8.2671   8.3287
     8.3371   8.4661   8.5090   8.6309   8.7149   8.8847   8.9849   9.0077
     9.1722   9.2295   9.3598   9.4768   9.5636   9.6257   9.7473   9.7922
     9.9014   9.9566  10.0487  10.1395  10.2547  10.3400  10.4276  10.5421
    10.6781  10.7719  10.8718  10.9745  11.0228  11.0418  11.1355  11.2724
    11.2836  11.3884  11.4570  11.5918  11.7005  11.9126  12.0306  12.0945
    12.2593  12.3803  12.4222  12.5281  12.5416  12.6000  12.7451  12.8037
    12.9763  13.0409  13.1723  13.2559  13.3220  13.3760  13.4427  13.6005
    13.6773  13.7264  13.8080  13.8163  13.8628  14.0217  14.0823  14.2280
    14.3153  14.4051  14.4786  14.5170  14.6383  14.6935  14.8298  14.8769
    14.9359  14.9628  14.9825  15.1978  15.2543  15.3458  15.3942  15.5034
    15.5683  15.7017  15.7417  15.8415  15.8662  15.9626  16.0423  16.1197
    16.1855  16.2418  16.3360  16.3654  16.4506  16.5382  16.6542  16.6964
    16.7729  16.8816  16.9721  16.9944  17.0947  17.2048  17.2208  17.2478
    17.2943  17.4148  17.4422  17.5055  17.5312  17.5989  17.6473  17.8097
    17.8314  17.9012  17.9854  18.0523  18.1050  18.1443  18.1878  18.2710
    18.3552  18.4083  18.4675  18.5623  18.6967  18.7421  18.8127  18.8896
    18.9472  19.0524  19.1770  19.2765  19.3056  19.3144  19.3792  19.4439
    19.5511  19.5717  19.6423  19.6702  19.7617  19.8455  19.8924  20.0076
    20.0210  20.1066  20.1541  20.1997  20.2457  20.3156  20.3915  20.4425
    20.4977  20.5529  20.5883  20.6530  20.7051  20.7732  20.8301  20.9253
    20.9322  21.0239  21.0803  21.1241  21.1864  21.2890  21.3916  21.4613
    21.4775  21.5943  21.6738  21.7950  21.8240  21.8806  22.0029  22.0373
    22.1457  22.2051  22.2646  22.2974  22.3193  22.3765  22.4029  22.4170
    22.5241  22.5897  22.7066  22.7857  22.8374  22.8697  22.9581  23.0074
    23.0873  23.1335  23.1512  23.2202  23.3032  23.4001  23.4718

          k = 0.2500 0.1914 0.0000 ( 29229 PWs)   bands (ev):

   -81.3656 -81.3059 -81.2053 -81.1624 -81.0648 -80.8955 -80.8567 -80.7230
   -43.4724 -43.3917 -43.2781 -43.2656 -43.2607 -43.2005 -43.1865 -43.1488
   -43.1208 -43.0824 -43.0358 -42.9448 -42.9387 -42.9152 -42.8542 -42.8274
   -42.8250 -42.7756 -42.7670 -42.7392 -42.6919 -42.6607 -42.3919 -42.3164
   -20.7941 -20.3966 -20.3451 -20.2442 -20.0922 -19.9449 -19.8812 -19.8045
   -19.6962 -19.5845 -19.5396 -19.4883 -19.3487 -19.2390 -19.1007 -19.0380
   -18.9872 -18.4773 -18.2271 -16.9980  -9.0077  -8.8535  -8.7777  -8.6986
    -8.6012  -8.4023  -8.3324  -8.3199  -7.9844  -7.9109  -7.8365  -7.6828
    -7.4835  -7.3722  -7.2050  -7.1454  -6.8901  -6.8185  -6.6761  -6.6353
    -6.5092  -6.3312  -6.1827  -6.0955  -5.8712  -5.8307  -5.6886  -5.5940
    -5.5117  -5.4292  -5.2789  -5.2229  -5.0690  -4.9733  -4.9307  -4.8481
    -4.7794  -4.7099  -4.6268  -4.5654  -4.4879  -4.3425  -4.2613  -4.0572
    -3.9727  -3.8438  -3.8316  -3.7111  -3.6331  -3.5342  -3.4738  -3.3659
    -3.3267  -3.0977  -3.0096  -2.8605  -2.7969  -2.6448  -2.3313  -2.1013
    -1.9589  -1.2785  -1.1592  -0.9900  -0.9284  -0.6211  -0.2395  -0.0981
     0.0698   0.3075   0.4615   0.6367   0.7187   0.7348   0.9495   1.0677
     1.2655   1.3944   1.4935   1.6225   1.7171   1.8662   1.9457   2.2413
     2.5081   3.5915   3.6471   3.7403   3.8178   3.9965   4.1253   4.3694
     4.4892   4.5246   4.7501   4.8789   5.0016   5.3656   5.4271   5.6801
     5.8430   5.9537   6.1228   6.2608   6.3993   6.5450   6.7469   6.9225
     7.0607   7.2248   7.4268   7.6061   7.7529   7.8582   8.0505   8.1725
     8.3015   8.3807   8.5376   8.7000   8.7183   8.7732   8.9927   9.0711
     9.1973   9.4589   9.5447   9.6258   9.6965   9.8384   9.8982   9.9622
    10.0090  10.0713  10.1664  10.2051  10.2745  10.4335  10.4658  10.5115
    10.5758  10.7213  10.9117  10.9754  11.0882  11.1626  11.3634  11.4395
    11.5064  11.6053  11.7324  11.8144  11.9417  12.0614  12.2385  12.3170
    12.4456  12.5545  12.6157  12.6714  12.7398  12.7987  12.8936  12.9498
    12.9640  13.0871  13.1997  13.2251  13.3804  13.4811  13.5527  13.6494
    13.7426  13.7905  13.8688  13.9109  13.9538  14.0605  14.1035  14.1609
    14.2230  14.2810  14.3913  14.4310  14.5251  14.6026  14.6269  14.6476
    14.7662  14.8111  14.8629  14.9302  14.9697  15.0334  15.1094  15.1908
    15.2313  15.2989  15.3648  15.5036  15.5419  15.6213  15.7125  15.8564
    15.9581  16.1131  16.1470  16.2062  16.2690  16.3514  16.4565  16.5047
    16.5548  16.6360  16.7500  16.7902  16.8618  16.9818  17.0324  17.1072
    17.1613  17.2725  17.3472  17.3909  17.4604  17.5393  17.5679  17.7388
    17.7968  17.8396  17.8986  17.9539  18.0392  18.1159  18.1870  18.2634
    18.3667  18.3976  18.4403  18.4971  18.5552  18.6388  18.7036  18.7824
    18.8429  18.9421  19.0221  19.0806  19.1224  19.2352  19.3236  19.4461
    19.5359  19.5763  19.6666  19.7464  19.8699  19.8973  20.0132  20.0930
    20.1409  20.2262  20.3193  20.4102  20.4595  20.5265  20.6153  20.6763
    20.7138  20.7801  20.8381  20.8806  20.9163  21.0267  21.0862  21.1589
    21.2044  21.2626  21.3279  21.4369  21.4747  21.5662  21.5905  21.6544
    21.7027  21.7930  21.8390  21.8828  21.9952  22.0283  22.1069  22.1704
    22.2367  22.2830  22.3518  22.4009  22.4345  22.4998  22.5460  22.5917
    22.6863  22.7162  22.7762  22.8120  22.8319  22.9069  22.9414  23.0304
    23.0881  23.1191  23.1399  23.1912  23.2536  23.3141  23.3765

          k = 0.2500-0.3828 0.0000 ( 29202 PWs)   bands (ev):

   -81.3655 -81.3060 -81.2052 -81.1624 -81.0648 -80.8953 -80.8567 -80.7230
   -43.4726 -43.3916 -43.2781 -43.2641 -43.2618 -43.2004 -43.1851 -43.1482
   -43.1194 -43.0824 -43.0358 -42.9446 -42.9387 -42.9151 -42.8558 -42.8279
   -42.8250 -42.7776 -42.7671 -42.7390 -42.6920 -42.6608 -42.3918 -42.3164
   -20.7400 -20.3433 -20.3153 -20.1685 -20.0342 -19.9189 -19.9111 -19.8278
   -19.8027 -19.7148 -19.7040 -19.5113 -19.4900 -19.1165 -19.0086 -19.0018
   -18.9238 -18.4781 -18.2283 -16.9966  -8.9354  -8.7533  -8.6988  -8.6398
    -8.5813  -8.3357  -8.2079  -8.1655  -8.0918  -7.9056  -7.8035  -7.7400
    -7.7197  -7.6744  -7.4301  -7.1938  -7.1704  -6.9093  -6.8331  -6.5868
    -6.1993  -6.1218  -5.9585  -5.8827  -5.8071  -5.7088  -5.6567  -5.5964
    -5.5051  -5.3833  -5.3454  -5.1794  -5.1628  -5.0537  -4.9890  -4.9465
    -4.9092  -4.7862  -4.7371  -4.6794  -4.5248  -4.2852  -4.1336  -4.0800
    -3.9450  -3.9056  -3.8271  -3.7676  -3.6682  -3.6485  -3.4578  -3.3347
    -3.1805  -3.0639  -2.9586  -2.8883  -2.7581  -2.6817  -2.2292  -1.9571
    -1.8514  -1.4817  -1.3489  -1.3101  -0.9835  -0.6656  -0.1747   0.0007
     0.3126   0.4382   0.7287   0.7653   0.8779   0.9209   1.0754   1.1362
     1.3521   1.3819   1.5946   1.6839   1.7950   1.8406   2.0295   2.3292
     2.4203   2.7550   2.9084   3.3282   3.5361   3.8563   4.1989   4.3160
     4.5929   4.6147   4.9392   5.1147   5.3580   5.4398   5.5707   5.7248
     5.9578   6.1011   6.1930   6.2706   6.4077   6.6066   6.7633   6.8872
     6.8929   6.9280   7.2248   7.3085   7.7309   7.7430   7.8329   8.1005
     8.1563   8.4092   8.4957   8.6514   8.7987   8.8353   8.9991   9.0245
     9.1119   9.2173   9.2931   9.4300   9.5988   9.7358   9.9091   9.9665
    10.1636  10.3038  10.4527  10.4927  10.5573  10.6438  10.7276  10.7639
    10.8667  10.9805  11.2366  11.2707  11.3547  11.4304  11.5555  11.6784
    11.8417  11.9508  12.0142  12.0749  12.1058  12.1859  12.2381  12.3498
    12.4720  12.4969  12.5198  12.6022  12.7059  12.7734  12.8480  12.9204
    13.0129  13.1187  13.2007  13.3211  13.4200  13.5195  13.6319  13.6657
    13.7651  13.8087  13.8569  13.9726  14.0193  14.0636  14.0943  14.1337
    14.1789  14.2246  14.2715  14.4089  14.4589  14.4733  14.5315  14.5895
    14.6390  14.6717  14.7266  14.7547  14.7653  14.8451  14.9191  14.9901
    15.0886  15.2121  15.3409  15.3763  15.4725  15.4942  15.5241  15.6042
    15.6921  15.7384  15.8627  15.9280  16.0465  16.1092  16.1427  16.1864
    16.2816  16.3367  16.4715  16.5591  16.6327  16.6720  16.7237  16.8706
    16.9178  16.9448  17.0785  17.1558  17.3113  17.4526  17.4913  17.5827
    17.6532  17.7571  17.7933  17.8175  17.8700  17.9232  18.0748  18.1046
    18.2283  18.2526  18.4096  18.5334  18.6033  18.7560  18.8512  18.9124
    19.0080  19.0701  19.1457  19.3739  19.4215  19.4643  19.6012  19.6486
    19.7330  19.7904  19.8438  19.9144  19.9813  20.0001  20.0772  20.1249
    20.1498  20.2864  20.3370  20.3827  20.4099  20.4678  20.5389  20.6926
    20.7039  20.8057  20.8702  20.9703  21.0246  21.0565  21.1620  21.2466
    21.2788  21.3320  21.4089  21.4127  21.5208  21.5525  21.6462  21.6947
    21.7154  21.7978  21.8414  21.8765  21.9550  22.0132  22.0557  22.1125
    22.1617  22.2430  22.3268  22.3416  22.3938  22.4978  22.5194  22.6253
    22.6383  22.6974  22.7320  22.8124  22.8707  22.9567  22.9949  23.0922
    23.1386  23.1957  23.3227  23.3884  23.4502  23.5254  23.5793

          k =-0.5000 0.0000 0.0000 ( 29180 PWs)   bands (ev):

   -81.3542 -81.3092 -81.1881 -81.1733 -81.0611 -80.8727 -80.8722 -80.7201
   -43.2638 -43.2406 -43.2185 -43.1925 -43.1813 -43.1617 -43.1532 -43.1513
   -43.1508 -43.1061 -43.0844 -43.0837 -42.9849 -42.9542 -42.8782 -42.8757
   -42.7979 -42.7973 -42.7376 -42.7168 -42.6759 -42.6361 -42.6330 -42.5227
   -20.4855 -20.4655 -20.2940 -20.1383 -20.0369 -19.9644 -19.9108 -19.7412
   -19.6845 -19.5110 -19.4708 -19.4683 -19.3207 -19.3088 -19.2888 -19.2581
   -19.0388 -18.5300 -18.3505 -16.9995  -8.5188  -8.4554  -8.4468  -8.4431
    -8.3718  -8.3382  -8.2036  -8.1969  -8.0917  -7.6312  -7.5994  -7.4623
    -7.3904  -7.3787  -7.1405  -7.1116  -6.9334  -6.8171  -6.5499  -6.3769
    -6.2575  -6.1467  -6.1169  -6.0669  -6.0423  -6.0358  -5.9853  -5.7478
    -5.4588  -5.3755  -5.3576  -5.3492  -5.2493  -5.2381  -5.1394  -5.1092
    -5.0063  -4.9136  -4.8170  -4.7940  -4.6590  -4.6441  -4.3954  -4.3683
    -4.0067  -3.9891  -3.7300  -3.6432  -3.5376  -3.4784  -3.3917  -3.2752
    -3.2009  -3.0620  -2.9836  -2.8669  -2.8654  -2.6056  -1.2606  -1.2470
    -1.2303  -1.0353  -0.9100  -0.8844  -0.7905  -0.7352  -0.7061  -0.6792
    -0.5796  -0.3559  -0.3433   0.0381   0.2023   0.2435   0.4368   0.5248
     0.6509   0.7162   1.1235   1.3741   1.4117   1.6039   1.9894   2.0794
     2.4737   3.8171   3.9766   4.0235   4.2934   4.4120   4.4274   4.5425
     4.6996   4.8159   4.8457   4.8880   4.9465   5.1297   5.2512   5.7406
     5.8829   6.0634   6.1654   6.1714   6.4482   6.6696   6.7816   6.8269
     6.9339   7.1679   7.4020   7.4063   7.7983   7.9569   7.9663   8.2332
     8.5345   8.5442   8.7275   8.9317   8.9936   9.1266   9.1994   9.2690
     9.2778   9.3260   9.3460   9.4073   9.4647   9.6591   9.7029   9.8146
     9.8198   9.8315   9.8593   9.9786   9.9882  10.0287  10.3616  10.4429
    10.5643  10.6373  10.6426  10.7452  10.7524  10.7781  10.8004  10.8809
    10.9635  11.2664  11.5190  11.5554  11.6527  11.7624  12.0162  12.0611
    12.0865  12.1767  12.2091  12.3421  12.3969  12.5592  12.8363  12.9819
    13.2030  13.2140  13.3226  13.4511  13.4842  13.5504  13.6304  13.7467
    13.8728  13.9058  13.9590  14.2189  14.4393  14.4873  14.5437  14.5669
    14.6743  14.7386  14.9622  15.0197  15.1275  15.2666  15.3058  15.3299
    15.4655  15.5549  15.5920  15.6176  15.6414  15.6938  15.7518  15.8371
    15.9046  16.0487  16.0972  16.2424  16.3137  16.4036  16.4270  16.4863
    16.5174  16.5742  16.6642  16.6985  16.8030  16.8795  16.9438  16.9897
    17.0497  17.1520  17.1948  17.2369  17.2847  17.4612  17.5155  17.5577
    17.5980  17.7076  17.7695  17.7964  17.9930  18.0921  18.1071  18.2593
    18.3001  18.3107  18.3204  18.3694  18.5387  18.5894  18.6400  18.6967
    18.7315  18.7435  18.8287  18.8753  18.9347  18.9770  19.0068  19.0715
    19.1094  19.1771  19.2253  19.3695  19.3818  19.4533  19.4701  19.4972
    19.5382  19.5623  19.6255  19.6385  19.6959  19.7360  19.7676  19.8087
    19.8226  19.8909  19.9094  19.9917  20.0278  20.0529  20.0660  20.1928
    20.2026  20.3068  20.3652  20.3820  20.4444  20.4888  20.6468  20.7036
    20.7363  20.7991  20.8862  20.9285  20.9587  20.9883  21.0616  21.0979
    21.1159  21.2028  21.2857  21.3026  21.3473  21.3771  21.4333  21.4655
    21.4793  21.4988  21.5898  21.7086  21.7628  21.9868  21.9945  22.0745
    22.1669  22.2525  22.3198  22.4016  22.4264  22.4697  22.5458  22.5854
    22.7508  22.7609  22.8671  22.9217  22.9540  23.0049  23.1138

          k =-0.5000 0.1914 0.0000 ( 29244 PWs)   bands (ev):

   -81.3543 -81.3093 -81.1880 -81.1732 -81.0611 -80.8726 -80.8721 -80.7201
   -43.2638 -43.2396 -43.2185 -43.1918 -43.1815 -43.1651 -43.1550 -43.1529
   -43.1422 -43.1062 -43.0844 -43.0838 -42.9850 -42.9543 -42.8782 -42.8758
   -42.7990 -42.7983 -42.7384 -42.7177 -42.6761 -42.6361 -42.6329 -42.5225
   -20.4686 -20.4538 -20.2800 -20.0944 -20.0177 -19.9184 -19.9032 -19.7949
   -19.7306 -19.5706 -19.4685 -19.4659 -19.3458 -19.3133 -19.2853 -19.2543
   -19.0348 -18.5327 -18.3507 -16.9981  -8.5370  -8.5037  -8.4038  -8.3868
    -8.3578  -8.3365  -8.2198  -8.2083  -8.0983  -7.6023  -7.4370  -7.3158
    -7.2206  -7.1992  -7.1033  -7.0681  -6.8082  -6.7638  -6.5437  -6.4716
    -6.4232  -6.3708  -6.3376  -6.3152  -6.1258  -6.0097  -5.9544  -5.7204
    -5.6678  -5.5787  -5.4798  -5.4031  -5.2675  -5.2501  -5.1369  -5.0822
    -4.9498  -4.9346  -4.8503  -4.7789  -4.6207  -4.5542  -4.4371  -4.2948
    -4.0437  -3.9567  -3.7419  -3.6537  -3.5942  -3.4586  -3.4241  -3.2984
    -3.2205  -3.1486  -2.8341  -2.7943  -2.7682  -2.7030  -1.3510  -1.2095
    -1.1525  -1.0394  -0.8885  -0.7857  -0.7081  -0.6212  -0.5735  -0.4295
    -0.4161  -0.2251  -0.2029   0.0648   0.1997   0.2396   0.4620   0.5108
     0.7849   0.8321   1.0843   1.3501   1.3786   1.5676   1.8111   2.1724
     2.4007   3.5734   3.5821   3.6973   3.7883   3.8635   4.1166   4.3595
     4.4525   4.9656   5.1433   5.3646   5.3726   5.4404   5.5945   5.7352
     5.8813   6.1963   6.3402   6.3438   6.5550   6.6188   6.8114   6.8264
     7.0184   7.1274   7.2081   7.4282   7.7472   7.8175   7.9431   7.9687
     8.0263   8.2170   8.2989   8.3573   8.5094   8.7083   8.7539   8.9634
     9.0503   9.1983   9.2588   9.4416   9.5357   9.6559   9.7098   9.7837
     9.8797  10.0366  10.2148  10.4925  10.5289  10.6312  10.6529  10.7384
    10.8023  10.9225  10.9705  10.9993  11.0459  11.1167  11.1733  11.2132
    11.3819  11.5580  11.6179  11.7953  11.8688  11.9135  12.0576  12.1093
    12.3029  12.4276  12.4698  12.5379  12.7585  12.8056  12.8565  12.9202
    13.0699  13.1568  13.4496  13.4882  13.5582  13.6078  13.8324  13.8683
    13.9497  14.0281  14.1905  14.2514  14.3762  14.4291  14.5247  14.5322
    14.7152  14.7437  14.7818  14.8473  14.8986  14.9539  15.0186  15.1046
    15.1664  15.2949  15.4043  15.5046  15.5331  15.6180  15.6731  15.7396
    15.7725  15.8756  15.9882  16.0468  16.0971  16.1536  16.1808  16.2446
    16.2653  16.4125  16.4363  16.4768  16.5864  16.6251  16.6905  16.7291
    16.8329  16.8871  16.9868  17.0088  17.1190  17.1506  17.1834  17.2069
    17.2778  17.3282  17.3650  17.4591  17.5181  17.6500  17.6820  17.7416
    17.8063  17.8354  17.9731  18.0013  18.0557  18.1447  18.2420  18.2834
    18.4004  18.4121  18.4320  18.5125  18.5306  18.6580  18.7176  18.8300
    18.9316  18.9835  19.0308  19.1208  19.2192  19.2844  19.3373  19.3619
    19.4823  19.5829  19.6265  19.7594  19.7972  19.8645  19.8825  19.9860
    20.0326  20.0874  20.1648  20.2066  20.2994  20.3569  20.4546  20.4899
    20.5808  20.7343  20.7710  20.8126  20.8520  20.9761  21.0561  21.0747
    21.1688  21.2110  21.2446  21.3273  21.4061  21.4171  21.4361  21.5583
    21.6013  21.6590  21.7018  21.7833  21.8109  21.8590  21.9032  21.9512
    22.0114  22.0290  22.0720  22.1052  22.2459  22.2648  22.3664  22.3918
    22.4340  22.4825  22.5481  22.5835  22.6782  22.7415  22.7495  22.7993
    22.8207  22.9068  22.9462  23.0009  23.0651  23.1128  23.1376

          k =-0.5000-0.3828 0.0000 ( 29192 PWs)   bands (ev):

   -81.3543 -81.3093 -81.1879 -81.1732 -81.0611 -80.8725 -80.8720 -80.7201
   -43.2638 -43.2387 -43.2186 -43.1910 -43.1816 -43.1679 -43.1549 -43.1526
   -43.1378 -43.1062 -43.0842 -43.0838 -42.9850 -42.9543 -42.8782 -42.8758
   -42.8000 -42.7992 -42.7392 -42.7186 -42.6762 -42.6360 -42.6328 -42.5222
   -20.4523 -20.4427 -20.2624 -20.0029 -19.9984 -19.9394 -19.8833 -19.7894
   -19.7865 -19.6728 -19.4660 -19.4649 -19.3720 -19.3162 -19.2823 -19.2513
   -19.0315 -18.5355 -18.3509 -16.9968  -8.4954  -8.4662  -8.4032  -8.3656
    -8.3586  -8.3288  -8.2005  -8.1956  -8.0905  -7.6009  -7.3456  -7.2498
    -7.0778  -7.0619  -7.0145  -6.9553  -6.7947  -6.7792  -6.7342  -6.6653
    -6.5624  -6.4575  -6.4112  -6.3123  -6.0840  -6.0270  -5.7983  -5.7637
    -5.7214  -5.6663  -5.6067  -5.4886  -5.4396  -5.3083  -5.1170  -5.0709
    -5.0207  -4.9492  -4.8702  -4.8524  -4.5097  -4.4623  -4.3936  -4.2532
    -4.1868  -3.9196  -3.8654  -3.7179  -3.6806  -3.4645  -3.3684  -3.2544
    -3.1725  -3.1237  -2.9326  -2.7389  -2.7052  -2.6488  -1.3873  -1.3581
    -1.3136  -1.0782  -0.9356  -0.8443  -0.7365  -0.5876  -0.4819  -0.1070
    -0.0419   0.0577   0.1283   0.3096   0.3229   0.4321   0.4937   0.7770
     0.9248   1.0059   1.0218   1.2784   1.4065   1.5707   1.6128   2.2267
     2.3181   2.8323   2.8361   2.9495   3.0637   3.8738   4.1898   4.4802
     4.5165   5.0813   5.3279   5.4605   5.4917   5.8089   5.9133   6.1648
     6.1975   6.2715   6.3676   6.3857   6.4097   6.5963   6.8951   6.8994
     7.0503   7.0681   7.2733   7.3560   7.4021   7.5423   7.5721   7.8799
     7.8947   8.0063   8.0324   8.2357   8.2984   8.4735   8.6572   8.8142
     8.8188   8.8564   8.9945   9.3017   9.3358   9.6896   9.7528   9.9650
    10.0048  10.0529  10.2068  10.4258  10.5738  10.6966  10.8403  11.0520
    11.0703  11.1479  11.2311  11.2983  11.3350  11.4497  11.6510  11.6686
    11.7769  11.9473  12.1231  12.1389  12.4152  12.4210  12.5461  12.6880
    12.7406  12.8722  12.9219  13.0418  13.0675  13.1465  13.2142  13.2305
    13.3336  13.3626  13.3848  13.4365  13.4648  13.4838  13.6565  13.7001
    13.7568  13.8218  13.8398  13.9528  14.0402  14.1040  14.2095  14.2445
    14.3381  14.4529  14.5247  14.5689  14.6025  14.6806  14.6849  14.7384
    14.7890  15.0636  15.1565  15.2046  15.2617  15.3446  15.4010  15.4267
    15.4919  15.6141  15.7142  15.7817  15.7945  15.8535  16.0637  16.1029
    16.1453  16.2712  16.2981  16.3724  16.3949  16.4930  16.5625  16.7305
    16.7412  16.7948  16.8286  16.9209  17.0024  17.0744  17.1184  17.1841
    17.3136  17.3410  17.3488  17.4795  17.5618  17.6560  17.6924  17.7111
    17.7376  17.7941  17.8262  17.8523  18.0500  18.0627  18.1647  18.2038
    18.2182  18.2367  18.2984  18.3233  18.3354  18.3581  18.4026  18.5941
    18.6052  18.6147  18.6300  18.7693  18.8647  18.9437  18.9984  19.0218
    19.1576  19.3254  19.4050  19.5314  19.5650  19.7330  19.7341  19.7887
    20.0029  20.0745  20.1669  20.2561  20.2935  20.3027  20.5774  20.6369
    20.6482  20.7357  20.7941  20.8642  20.8703  20.9733  21.2430  21.2535
    21.2855  21.3371  21.3771  21.5104  21.5451  21.7146  21.7425  21.8221
    21.8434  22.0663  22.1029  22.1173  22.1507  22.2377  22.2660  22.3234
    22.3464  22.3947  22.4454  22.4832  22.5319  22.7369  22.7866  22.8640
    22.8845  22.9576  22.9788  22.9978  23.1701  23.2121  23.3141  23.3269
    23.3917  23.4339  23.4509  23.5297  23.6193  23.6675  23.7062

          k =-0.2500 0.1914 0.0000 ( 29229 PWs)   bands (ev):

   -81.3656 -81.3059 -81.2053 -81.1624 -81.0648 -80.8955 -80.8567 -80.7230
   -43.4725 -43.3916 -43.2781 -43.2655 -43.2607 -43.2005 -43.1865 -43.1487
   -43.1208 -43.0824 -43.0358 -42.9448 -42.9387 -42.9152 -42.8551 -42.8265
   -42.8250 -42.7755 -42.7671 -42.7393 -42.6919 -42.6607 -42.3919 -42.3164
   -20.7942 -20.3968 -20.3448 -20.2440 -20.0921 -19.9436 -19.8811 -19.8052
   -19.6973 -19.5851 -19.5384 -19.4897 -19.3489 -19.2386 -19.1007 -19.0383
   -18.9862 -18.4773 -18.2270 -16.9980  -9.0044  -8.8548  -8.7760  -8.7016
    -8.6035  -8.4044  -8.3330  -8.3194  -7.9838  -7.9084  -7.8418  -7.6762
    -7.4890  -7.3778  -7.2203  -7.1294  -6.8815  -6.8235  -6.6663  -6.6341
    -6.4956  -6.3192  -6.1857  -6.0842  -5.8848  -5.8525  -5.6926  -5.6202
    -5.5052  -5.4366  -5.2522  -5.2163  -5.0696  -4.9800  -4.9055  -4.8844
    -4.7706  -4.7005  -4.6268  -4.5739  -4.4978  -4.3185  -4.2737  -4.0613
    -3.9533  -3.8431  -3.8166  -3.7516  -3.6896  -3.4962  -3.4412  -3.3398
    -3.3196  -3.1129  -3.0401  -2.8527  -2.7779  -2.6704  -2.3344  -2.1039
    -1.9594  -1.2816  -1.1186  -0.9840  -0.9225  -0.6257  -0.2604  -0.1116
     0.0626   0.3054   0.4432   0.6328   0.7064   0.7643   0.9652   1.0800
     1.2683   1.3938   1.4853   1.6212   1.7171   1.8640   1.9448   2.2419
     2.5071   3.5900   3.6503   3.7412   3.8200   3.9952   4.1211   4.3684
     4.4906   4.5257   4.7502   4.8783   5.0035   5.3657   5.4265   5.6822
     5.8456   5.9599   6.1263   6.2559   6.3995   6.5400   6.7426   6.9219
     7.0620   7.2252   7.4187   7.6182   7.7322   7.8532   8.0597   8.1685
     8.3005   8.3799   8.5509   8.6885   8.7104   8.7904   9.0126   9.0583
     9.1895   9.4604   9.5182   9.6500   9.7002   9.8527   9.8897   9.9741
    10.0081  10.0730  10.1589  10.1915  10.3097  10.4138  10.4812  10.5150
    10.5650  10.6990  10.8927  10.9936  11.1102  11.1746  11.3512  11.4615
    11.5082  11.5900  11.7235  11.8201  11.9292  12.0596  12.2246  12.3282
    12.4442  12.5508  12.6271  12.6565  12.7429  12.7922  12.8849  12.9497
    12.9684  13.0940  13.1984  13.2276  13.3793  13.4744  13.5562  13.6418
    13.7585  13.7762  13.8636  13.9078  13.9450  14.0512  14.0915  14.1581
    14.2284  14.2953  14.3982  14.4324  14.5419  14.5983  14.6276  14.6545
    14.7324  14.8142  14.8640  14.9323  14.9822  15.0485  15.1049  15.1840
    15.2346  15.2993  15.4006  15.4995  15.5667  15.6470  15.6897  15.8492
    15.9509  16.1029  16.1303  16.2129  16.2872  16.3501  16.4441  16.4874
    16.5654  16.6441  16.7499  16.7897  16.8398  16.9806  17.0200  17.1142
    17.1805  17.2797  17.3298  17.4003  17.4663  17.5307  17.5832  17.7210
    17.7939  17.8498  17.9206  17.9580  18.0441  18.1011  18.1496  18.2647
    18.3606  18.3829  18.4546  18.5016  18.5574  18.6268  18.7062  18.7757
    18.8407  18.9365  19.0195  19.0927  19.1245  19.2205  19.3222  19.4430
    19.5259  19.5587  19.6735  19.7411  19.8502  19.9169  20.0088  20.0871
    20.1557  20.2361  20.3031  20.4002  20.4667  20.5364  20.5903  20.6876
    20.7112  20.7947  20.8437  20.8974  20.9211  21.0119  21.0857  21.1595
    21.2274  21.2644  21.3196  21.4197  21.4828  21.5662  21.5909  21.6648
    21.7233  21.7956  21.8526  21.9032  21.9928  22.0352  22.1255  22.1786
    22.2551  22.2805  22.3756  22.3918  22.4406  22.5017  22.5335  22.5983
    22.6749  22.7240  22.7739  22.8049  22.8347  22.8972  22.9475  23.0192
    23.0959  23.1260  23.1537  23.1872  23.2479  23.3180  23.3676

     the Fermi energy is     0.3259 ev

!    total energy              =   -2206.96791721 Ry
     Harris-Foulkes estimate   =   -2206.96791755 Ry
     estimated scf accuracy    <       0.00000040 Ry

     The total energy is the sum of the following terms:

     one-electron contribution =  -24599.06784191 Ry
     hartree contribution      =   12319.60155743 Ry
     xc contribution           =    -601.91015016 Ry
     ewald contribution        =   10672.80590672 Ry
     Hubbard energy            =       1.60274020 Ry
     smearing contrib. (-TS)   =      -0.00012950 Ry

     convergence has been achieved in  27 iterations

     Forces acting on atoms (Ry/au):


     negative rho (up, down):  0.244E+00 0.000E+00
     atom    1 type  1   force =    -0.00650840   -0.00700605    0.00714121
     atom    2 type  1   force =     0.00007608    0.00618595    0.00318692
     atom    3 type  2   force =     0.01780435   -0.00269424   -0.00051818
     atom    4 type  2   force =     0.00133905    0.00747074    0.00315608
     atom    5 type  1   force =     0.00288257    0.00499436    0.00084647
     atom    6 type  1   force =     0.00155576   -0.00589408    0.00035807
     atom    7 type  1   force =    -0.00022292   -0.00257527   -0.00040227
     atom    8 type  1   force =     0.00333661    0.00262818   -0.00935976
     atom    9 type  2   force =    -0.04185571   -0.00362991    0.00208876
     atom   10 type  2   force =    -0.00004981    0.00207432    0.00046734
     atom   11 type  1   force =    -0.02062971   -0.00500201   -0.00043659
     atom   12 type  1   force =    -0.01203144    0.01684306   -0.00073843
     atom   13 type  1   force =    -0.00008424   -0.00495125   -0.00109615
     atom   14 type  1   force =    -0.00363782   -0.00590636    0.00641617
     atom   15 type  1   force =    -0.00002185    0.00439725    0.00052311
     atom   16 type  2   force =    -0.01777798   -0.00257640   -0.00060301
     atom   17 type  2   force =     0.00209442    0.00739976   -0.00289854
     atom   18 type  1   force =     0.00027738    0.00493545    0.00083976
     atom   19 type  1   force =    -0.00099170   -0.00573016    0.00055559
     atom   20 type  1   force =    -0.00027087    0.00023148    0.00158864
     atom   21 type  1   force =     0.00255087    0.00209451   -0.00403414
     atom   22 type  2   force =     0.03834390   -0.00253631    0.00163929
     atom   23 type  2   force =     0.00031395   -0.00697097    0.00054190
     atom   24 type  1   force =     0.02068405   -0.00576578   -0.00048888
     atom   25 type  1   force =     0.01173604    0.01657320   -0.00078913
     atom   26 type  1   force =    -0.00088743   -0.01242373   -0.00180968
     atom   27 type  3   force =    -0.00000969   -0.00094138   -0.00063027
     atom   28 type  3   force =    -0.00000786   -0.00090419    0.00029482
     atom   29 type  3   force =     0.00126084    0.00019104    0.00034970
     atom   30 type  3   force =     0.00065932    0.00001114    0.00061531
     atom   31 type  1   force =    -0.00003252   -0.00582340   -0.00295669
     atom   32 type  1   force =     0.00011440    0.00512634   -0.00421925
     atom   33 type  3   force =    -0.00000964    0.00017470    0.00037183

     Total force =     0.018312     Total SCF correction =     0.001516


     entering subroutine stress ...


     negative rho (up, down):  0.244E+00 0.000E+00
          total   stress  (Ry/bohr**3)                   (kbar)     P=  -11.14
  -0.00006325   0.00000031   0.00000233         -9.30      0.05      0.34
   0.00000031  -0.00008911  -0.00000711          0.05    -13.11     -1.05
   0.00000233  -0.00000711  -0.00007475          0.34     -1.05    -11.00


     BFGS Geometry Optimization

     number of scf cycles    =   1
     number of bfgs steps    =   0

     energy   new            =   -2206.9679172096 Ry

     new trust radius        =       0.0093597620 bohr
     new conv_thr            =       0.0000010000 Ry


ATOMIC_POSITIONS (crystal)
O0       0.000000000   0.000000000   0.369839960    0   0   1
O0       0.000000000   0.500000000   0.382272460    0   0   1
Re1      0.250000000   0.500000000   0.442119844    0   0   1
Re1      0.000000000   0.000000000   0.442501856    0   0   1
O0       0.250000000   0.780000000   0.441076590    0   0   1
O0       0.250000000   0.220000000   0.440927018    0   0   1
O0       0.000000000   0.500000000   0.497702116    0   0   1
O0       0.000000000   0.000000000   0.513866559    0   0   1
Re1      0.250000000   0.000000000   0.573640937    0   0   1
Re1      0.000000000   0.500000000   0.567429159    0   0   1
O0       0.250000000   0.720000000   0.570861443    0   0   1
O0       0.250000000   0.280000000   0.573155528    0   0   1
O0       0.000000000   0.000000000   0.625628517    0   0   1
O0       0.500000000   0.000000000   0.369855750    0   0   1
O0       0.500000000   0.500000000   0.382550252    0   0   1
Re1      0.750000000   0.500000000   0.442118182    0   0   1
Re1      0.500000000   0.000000000   0.442123192    0   0   1
O0       0.750000000   0.780000000   0.441006458    0   0   1
O0       0.750000000   0.220000000   0.441010889    0   0   1
O0       0.500000000   0.500000000   0.498031136    0   0   1
O0       0.500000000   0.000000000   0.514070935    0   0   1
Re1      0.750000000   0.000000000   0.573512128    0   0   1
Re1      0.500000000   0.500000000   0.576080621    0   0   1
O0       0.750000000   0.720000000   0.570860418    0   0   1
O0       0.750000000   0.280000000   0.573144534    0   0   1
O0       0.500000000   0.000000000   0.624624532    0   0   1
H2      -0.000210957   0.625478839   0.365597647
H2       0.499639224   0.623731649   0.365055778
H2       0.167964479   0.025184441   0.355096854
H2       0.669815093   0.022300842   0.355452059
O0       0.499626789   0.526099792   0.641302052
O0       0.500301295   0.321077515   0.680657307
H2       0.499949048   0.396363206   0.711557287


     Check: negative starting charge=   -0.236968
     NEW-OLD atomic charge density approx. for the potential

     Check: negative/imaginary core charge=   -0.000003    0.000000
     Check: negative starting charge=   -0.236787

     negative rho (up, down):  0.244E+00 0.000E+00
 Atomic wfc used for LDA+U Projector are NOT orthogonalized

     total cpu time spent up to now is     9649.8 secs

     per-process dynamical memory:   452.9 Mb

     Self-consistent Calculation

     iteration #  1     ecut=    40.00 Ry     beta=0.70
     Davidson diagonalization with overlap
     ethr =  1.00E-06,  avg # of iterations =  3.0
 --- enter write_ns ---
 LDA+U parameters:
U( 2)     =  2.50000000
alpha( 2) =  0.00000000
atom    3   Tr[ns(na)] =   6.55516
    eigenvalues: 
  0.546  0.573  0.607  0.768  0.783
    eigenvectors:
  0.008  0.342  0.001  0.642  0.006
  0.985  0.013  0.000  0.001  0.001
  0.000  0.002  0.979  0.004  0.016
  0.005  0.644  0.006  0.341  0.004
  0.001  0.000  0.014  0.012  0.973
    occupations:
  0.699 -0.007  0.011 -0.092 -0.001
 -0.007  0.547 -0.000  0.002 -0.006
  0.011 -0.000  0.610 -0.006  0.021
 -0.092  0.002 -0.006  0.640 -0.001
 -0.001 -0.006  0.021 -0.001  0.781
atom    4   Tr[ns(na)] =   6.53472
    eigenvalues: 
  0.565  0.603  0.626  0.697  0.776
    eigenvectors:
  0.000  0.984  0.000  0.001  0.015
  0.000  0.001  0.013  0.985  0.000
  0.000  0.000  0.987  0.013  0.000
  0.000  0.015  0.000  0.000  0.985
  1.000  0.000  0.000  0.000  0.000
    occupations:
  0.606  0.003  0.000 -0.021  0.001
  0.003  0.696  0.008 -0.000 -0.002
  0.000  0.008  0.627  0.000 -0.000
 -0.021 -0.000  0.000  0.774 -0.000
  0.001 -0.002 -0.000 -0.000  0.565
atom    9   Tr[ns(na)] =   6.54087
    eigenvalues: 
  0.597  0.610  0.611  0.713  0.739
    eigenvectors:
  0.251  0.001  0.001  0.008  0.739
  0.000  0.749  0.251  0.000  0.000
  0.006  0.237  0.703  0.053  0.000
  0.742  0.001  0.004  0.002  0.251
  0.001  0.012  0.041  0.937  0.010
    occupations:
  0.703  0.002 -0.001 -0.062  0.002
  0.002  0.610 -0.001 -0.001  0.000
 -0.001 -0.001  0.616 -0.001 -0.023
 -0.062 -0.001 -0.001  0.633 -0.002
  0.002  0.000 -0.023 -0.002  0.708
atom   10   Tr[ns(na)] =   6.52342
    eigenvalues: 
  0.482  0.541  0.650  0.743  0.846
    eigenvectors:
  0.999  0.000  0.000  0.001  0.000
  0.000  0.000  0.000  0.000  1.000
  0.000  0.000  0.995  0.005  0.000
  0.001  0.000  0.005  0.994  0.000
  0.000  1.000  0.000  0.000  0.000
    occupations:
  0.482  0.000 -0.002 -0.008  0.000
  0.000  0.846  0.001  0.000 -0.004
 -0.002  0.001  0.650  0.006 -0.000
 -0.008  0.000  0.006  0.742 -0.000
  0.000 -0.004 -0.000 -0.000  0.541
atom   16   Tr[ns(na)] =   6.55290
    eigenvalues: 
  0.546  0.573  0.607  0.768  0.782
    eigenvectors:
  0.008  0.342  0.001  0.641  0.008
  0.986  0.012  0.000  0.001  0.001
  0.000  0.002  0.979  0.004  0.015
  0.005  0.643  0.006  0.340  0.005
  0.001  0.000  0.013  0.014  0.972
    occupations:
  0.699  0.007  0.011 -0.092  0.000
  0.007  0.547 -0.000 -0.002 -0.006
  0.011 -0.000  0.610 -0.006 -0.020
 -0.092 -0.002 -0.006  0.640  0.001
  0.000 -0.006 -0.020  0.001  0.780
atom   17   Tr[ns(na)] =   6.52947
    eigenvalues: 
  0.565  0.603  0.613  0.708  0.776
    eigenvectors:
  0.000  0.986  0.001  0.001  0.012
  0.000  0.001  0.005  0.994  0.000
  0.000  0.001  0.994  0.005  0.000
  0.000  0.012  0.000  0.000  0.988
  1.000  0.000  0.000  0.000  0.000
    occupations:
  0.605  0.003  0.000 -0.019  0.001
  0.003  0.707  0.007 -0.000 -0.001
  0.000  0.007  0.613  0.001 -0.000
 -0.019 -0.000  0.001  0.774 -0.000
  0.001 -0.001 -0.000 -0.000  0.566
atom   22   Tr[ns(na)] =   6.54038
    eigenvalues: 
  0.596  0.608  0.611  0.713  0.742
    eigenvectors:
  0.252  0.002  0.001  0.007  0.739
  0.001  0.639  0.360  0.000  0.000
  0.008  0.337  0.601  0.054  0.001
  0.739  0.004  0.003  0.003  0.252
  0.001  0.018  0.036  0.937  0.009
    occupations:
  0.705 -0.001  0.000 -0.063  0.003
 -0.001  0.609  0.001  0.001  0.000
  0.000  0.001  0.615 -0.001  0.024
 -0.063  0.001 -0.001  0.633 -0.001
  0.003  0.000  0.024 -0.001  0.708
atom   23   Tr[ns(na)] =   6.58474
    eigenvalues: 
  0.555  0.584  0.609  0.760  0.785
    eigenvectors:
  0.000  0.000  0.961  0.002  0.037
  0.028  0.972  0.000  0.000  0.000
  0.000  0.000  0.009  0.927  0.064
  0.000  0.000  0.030  0.071  0.900
  0.972  0.028  0.000  0.000  0.000
    occupations:
  0.616  0.000 -0.016 -0.030 -0.000
  0.000  0.583 -0.001 -0.000 -0.005
 -0.016 -0.001  0.760  0.004  0.000
 -0.030 -0.000  0.004  0.778  0.000
 -0.000 -0.005  0.000  0.000  0.556
N of occupied +U levels =  52.3616436
 --- exit write_ns ---

     negative rho (up, down):  0.244E+00 0.000E+00

     total cpu time spent up to now is    10004.8 secs

     total energy              =   -2206.96786479 Ry
     Harris-Foulkes estimate   =   -2206.96818091 Ry
     estimated scf accuracy    <       0.00039063 Ry

     iteration #  2     ecut=    40.00 Ry     beta=0.70
     Davidson diagonalization with overlap
     ethr =  1.59E-07,  avg # of iterations =  4.7

     negative rho (up, down):  0.244E+00 0.000E+00

     total cpu time spent up to now is    10311.5 secs

     total energy              =   -2206.96470191 Ry
     Harris-Foulkes estimate   =   -2206.97130128 Ry
[...]
    21.4800  21.5257  21.6224  21.7010  21.7731  21.9801  21.9976  22.0814
    22.1927  22.2816  22.3218  22.3934  22.4253  22.4626  22.5360  22.6103
    22.7533  22.7914  22.8698  22.9182  22.9586  23.0360  23.1197

          k =-0.5000 0.1914 0.0000 ( 29244 PWs)   bands (ev):

   -81.2135 -81.1888 -81.0281 -81.0072 -80.8497 -80.7211 -80.7206 -80.5642
   -43.1355 -43.1172 -43.1010 -43.0685 -43.0384 -43.0288 -43.0035 -42.9891
   -42.9702 -42.9465 -42.9177 -42.8514 -42.8244 -42.7895 -42.7367 -42.7338
   -42.6438 -42.6432 -42.5777 -42.5219 -42.4928 -42.4864 -42.4834 -42.3761
   -20.3719 -20.3351 -20.1444 -20.0934 -19.9434 -19.9018 -19.7617 -19.7511
   -19.6353 -19.6069 -19.3302 -19.3265 -19.2264 -19.1992 -19.1729 -19.1443
   -19.0462 -18.3781 -18.2166 -16.9718  -8.4073  -8.3959  -8.2729  -8.2705
    -8.2143  -8.2074  -8.1128  -8.1076  -7.9517  -7.5270  -7.3064  -7.2048
    -7.0851  -7.0621  -6.9918  -6.9612  -6.7987  -6.6651  -6.5085  -6.3480
    -6.3213  -6.2331  -6.2023  -6.1834  -6.0650  -5.9444  -5.8589  -5.5994
    -5.5433  -5.4469  -5.4070  -5.2787  -5.2183  -5.1479  -5.0763  -4.9595
    -4.9066  -4.7963  -4.7216  -4.6511  -4.5678  -4.5017  -4.3814  -4.1944
    -3.9364  -3.8466  -3.6455  -3.5251  -3.4584  -3.3303  -3.2970  -3.1774
    -3.1004  -3.0338  -2.7396  -2.7058  -2.6671  -2.5969  -1.1949  -1.1425
    -1.0498  -1.0080  -0.8880  -0.6597  -0.5744  -0.4972  -0.4411  -0.3012
    -0.2927  -0.0887  -0.0762   0.1983   0.3396   0.3961   0.6185   0.6571
     0.9381   0.9775   1.1998   1.4941   1.5118   1.7689   1.9502   2.3087
     2.7001   3.7092   3.7243   3.8785   3.9408   4.0033   4.2527   4.5161
     4.6053   5.0932   5.2716   5.4760   5.4838   5.6023   5.7410   5.8657
     6.0088   6.0338   6.3472   6.3517   6.5297   6.7303   6.8613   6.8739
     7.0379   7.1415   7.2225   7.4603   7.7474   7.8175   7.9294   7.9423
     8.0399   8.1976   8.2668   8.3310   8.5313   8.7029   8.7583   8.9857
     9.0751   9.2703   9.3340   9.4781   9.5656   9.6847   9.7238   9.7857
     9.9362  10.1019  10.2925  10.5054  10.5447  10.6950  10.7124  10.8271
    10.8462  10.9391  10.9909  10.9971  11.0566  11.0956  11.1850  11.2411
    11.3644  11.5552  11.6489  11.8197  11.8813  11.9668  12.0958  12.1274
    12.3162  12.4191  12.4680  12.5166  12.7758  12.8265  12.8980  12.9562
    13.1344  13.2030  13.4800  13.5050  13.5566  13.6329  13.8484  13.8963
    13.9901  14.0348  14.2595  14.3148  14.4328  14.5076  14.6495  14.6642
    14.7905  14.8225  14.8782  14.9096  14.9159  14.9721  15.0551  15.1463
    15.2119  15.3167  15.4235  15.5149  15.5378  15.6339  15.7011  15.7801
    15.8189  15.9101  16.0185  16.0849  16.0965  16.1833  16.2099  16.2578
    16.3132  16.4235  16.4873  16.5198  16.6136  16.6539  16.7444  16.7609
    16.8425  16.8635  16.9850  17.0274  17.1006  17.1504  17.2029  17.2255
    17.3176  17.3537  17.3726  17.4716  17.5627  17.6674  17.7126  17.7688
    17.8076  17.8613  17.9932  18.0184  18.0706  18.1458  18.2578  18.2747
    18.3759  18.4026  18.4220  18.4818  18.5040  18.6561  18.7017  18.8005
    18.9184  18.9558  19.0541  19.1383  19.2415  19.2875  19.3389  19.3765
    19.4770  19.5567  19.6374  19.7600  19.7792  19.8520  19.9147  19.9716
    20.0375  20.0974  20.1723  20.2310  20.3193  20.3604  20.4719  20.5094
    20.6056  20.7624  20.8072  20.8409  20.8774  20.9729  21.0632  21.0749
    21.1741  21.2195  21.2424  21.3091  21.3631  21.4345  21.4564  21.5340
    21.5978  21.6503  21.7093  21.7747  21.7888  21.8420  21.8921  21.9391
    21.9949  22.0109  22.0599  22.1032  22.2236  22.2758  22.3493  22.3795
    22.4273  22.5101  22.5694  22.5918  22.6918  22.7558  22.7767  22.8114
    22.8256  22.9068  22.9591  23.0005  23.0625  23.1320  23.1529

          k =-0.5000-0.3828 0.0000 ( 29192 PWs)   bands (ev):

   -81.2135 -81.1888 -81.0280 -81.0072 -80.8497 -80.7210 -80.7206 -80.5643
   -43.1355 -43.1173 -43.1000 -43.0677 -43.0385 -43.0287 -43.0047 -42.9900
   -42.9665 -42.9466 -42.9177 -42.8513 -42.8245 -42.7896 -42.7367 -42.7338
   -42.6448 -42.6441 -42.5785 -42.5220 -42.4936 -42.4863 -42.4832 -42.3759
   -20.3592 -20.3243 -20.1203 -20.0697 -19.8930 -19.8866 -19.7905 -19.7412
   -19.6559 -19.6480 -19.3319 -19.3281 -19.2874 -19.2238 -19.1696 -19.1413
   -19.0342 -18.3801 -18.2169 -16.9703  -8.3655  -8.3541  -8.2697  -8.2660
    -8.2290  -8.1980  -8.0920  -8.0805  -7.9434  -7.5220  -7.2259  -7.1508
    -6.9368  -6.9175  -6.8893  -6.8540  -6.7021  -6.6601  -6.6080  -6.5618
    -6.5150  -6.4371  -6.3301  -6.1875  -6.0423  -5.9075  -5.6903  -5.6436
    -5.6080  -5.5343  -5.4983  -5.3689  -5.3540  -5.1852  -5.0926  -4.9932
    -4.8984  -4.8314  -4.7602  -4.7188  -4.5083  -4.4706  -4.2861  -4.1367
    -4.0595  -3.8011  -3.7697  -3.5931  -3.5367  -3.3306  -3.2478  -3.1340
    -3.0581  -2.9999  -2.8419  -2.6834  -2.5916  -2.5378  -1.2250  -1.2178
    -1.1680  -1.1434  -0.9306  -0.7378  -0.6179  -0.4806  -0.3480   0.0218
     0.0931   0.1937   0.2470   0.4477   0.4609   0.5903   0.6635   0.9229
     1.0490   1.1637   1.1769   1.4343   1.5533   1.7253   1.7329   2.3631
     2.6408   2.9704   2.9747   3.1303   3.2154   4.0146   4.3251   4.6365
     4.6697   5.2131   5.4395   5.5979   5.6322   5.9385   6.0372   6.1716
     6.3333   6.3412   6.3994   6.4620   6.4840   6.6583   6.8876   6.8949
     7.0088   7.0354   7.2302   7.2978   7.3377   7.4957   7.5560   7.8344
     7.8456   8.0162   8.0664   8.3103   8.3337   8.5606   8.6926   8.8075
     8.8542   8.8658   9.0472   9.3325   9.3778   9.7395   9.7567   9.9527
    10.0644  10.1314  10.2464  10.4343  10.6411  10.7591  10.9045  11.1533
    11.1787  11.2259  11.2669  11.3690  11.4144  11.4911  11.6739  11.6876
    11.7713  12.0109  12.1810  12.2032  12.3820  12.4826  12.5539  12.7052
    12.7533  12.9047  12.9308  13.0418  13.0597  13.1379  13.1951  13.1995
    13.3364  13.3757  13.3892  13.4175  13.4688  13.5045  13.6537  13.6820
    13.7823  13.8067  13.8449  13.9410  14.1056  14.1388  14.2675  14.3075
    14.3406  14.4042  14.5105  14.6631  14.6728  14.7248  14.7555  14.7780
    14.8807  15.0963  15.1755  15.2325  15.2871  15.3911  15.4226  15.4819
    15.5319  15.6516  15.7375  15.7996  15.8097  15.9093  16.1099  16.1614
    16.1874  16.3051  16.3571  16.4104  16.4213  16.5184  16.5915  16.7723
    16.7874  16.8419  16.8484  16.9743  17.0356  17.0544  17.1080  17.1773
    17.3196  17.3503  17.3830  17.4669  17.5480  17.6352  17.6737  17.7042
    17.7200  17.7839  17.8275  17.8572  18.0741  18.0774  18.1868  18.2091
    18.2672  18.2862  18.3159  18.3466  18.3760  18.3884  18.4494  18.5816
    18.6043  18.6076  18.6211  18.7208  18.8848  18.9538  18.9844  19.0358
    19.1598  19.3216  19.4380  19.5223  19.5446  19.7220  19.7368  19.8188
    20.0111  20.0629  20.1672  20.2321  20.2810  20.3020  20.5806  20.6454
    20.6633  20.7335  20.7922  20.8922  20.8979  20.9674  21.2472  21.2550
    21.3173  21.3381  21.3930  21.5494  21.6313  21.7291  21.8339  21.8761
    21.8889  22.0885  22.1088  22.1709  22.2241  22.2805  22.3235  22.3342
    22.3734  22.3925  22.4856  22.5359  22.5672  22.7544  22.8439  22.9081
    22.9310  22.9911  23.0125  23.0380  23.1924  23.2449  23.3080  23.3648
    23.3727  23.4600  23.4756  23.5661  23.6590  23.6808  23.6990

          k =-0.2500 0.1914 0.0000 ( 29229 PWs)   bands (ev):

   -81.2282 -81.1819 -81.0436 -80.9982 -80.8537 -80.7440 -80.7051 -80.5669
   -43.3375 -43.2275 -43.1574 -43.1321 -43.0918 -43.0910 -43.0252 -43.0221
   -42.9586 -42.8747 -42.8518 -42.8030 -42.7779 -42.7653 -42.7200 -42.6829
   -42.6721 -42.6119 -42.5972 -42.5742 -42.5238 -42.4654 -42.2391 -42.1670
   -20.6793 -20.2863 -20.2359 -20.1620 -19.9806 -19.9556 -19.7987 -19.7464
   -19.6682 -19.5791 -19.4509 -19.3547 -19.2136 -19.1022 -19.0360 -18.9334
   -18.9226 -18.3341 -18.0922 -16.9715  -8.8784  -8.7173  -8.6328  -8.6050
    -8.5220  -8.2615  -8.2149  -8.2041  -7.8510  -7.7751  -7.7093  -7.5593
    -7.3884  -7.2884  -7.1460  -7.0384  -6.7536  -6.7314  -6.5631  -6.4955
    -6.4094  -6.2899  -6.0755  -5.9851  -5.7967  -5.7296  -5.6439  -5.5072
    -5.4269  -5.3347  -5.1676  -5.1373  -4.9517  -4.8740  -4.8266  -4.7469
    -4.6504  -4.6097  -4.5620  -4.4700  -4.3986  -4.2387  -4.1535  -3.9595
    -3.8405  -3.7325  -3.7088  -3.6377  -3.5815  -3.3904  -3.3208  -3.2179
    -3.1997  -3.0138  -2.9340  -2.7449  -2.6760  -2.5550  -2.2007  -1.9612
    -1.8350  -1.2807  -1.0343  -0.9194  -0.8558  -0.5784  -0.1370   0.0281
     0.2196   0.4472   0.5970   0.7959   0.8553   0.9187   1.1361   1.2241
     1.4102   1.5312   1.6246   1.7568   1.8612   2.0129   2.1236   2.4070
     2.7567   3.7294   3.7787   3.9100   3.9578   4.1491   4.2748   4.5109
     4.6298   4.6807   4.8908   5.0211   5.0981   5.3519   5.4011   5.7894
     5.9265   5.9874   6.2011   6.3485   6.5321   6.6458   6.7438   6.9298
     7.1148   7.2004   7.4327   7.5987   7.7848   7.8311   8.0335   8.1688
     8.3216   8.4546   8.6287   8.7003   8.7284   8.8152   9.0577   9.1279
     9.2190   9.4492   9.5341   9.6651   9.7455   9.8709   9.9213   9.9791
    10.0183  10.0809  10.1668  10.2450  10.3755  10.4474  10.5503  10.5655
    10.5918  10.7051  10.9226  11.0170  11.1485  11.1946  11.4019  11.4833
    11.5541  11.6038  11.7466  11.8238  11.9755  12.0656  12.2599  12.3669
    12.4809  12.5715  12.6382  12.6728  12.7384  12.8125  12.8942  12.9392
    13.0066  13.1144  13.2124  13.2594  13.4082  13.5025  13.5877  13.6895
    13.7458  13.8161  13.8966  13.9379  13.9864  14.0801  14.1338  14.1913
    14.2941  14.3491  14.4319  14.4411  14.5416  14.6200  14.6489  14.7225
    14.7592  14.8231  14.8798  14.9533  15.0010  15.0517  15.1054  15.1858
    15.2484  15.3451  15.4107  15.4767  15.6017  15.6757  15.7200  15.8745
    15.9781  16.0999  16.1416  16.2157  16.3092  16.3593  16.4424  16.4922
    16.5783  16.6800  16.7640  16.8174  16.8801  16.9926  17.0407  17.1639
    17.2019  17.2932  17.3494  17.3939  17.4646  17.5431  17.6077  17.7176
    17.7958  17.8332  17.9116  17.9778  18.0543  18.0943  18.1931  18.3059
    18.3552  18.4165  18.4770  18.5326  18.5907  18.6598  18.7123  18.7961
    18.8503  18.9420  19.0613  19.1027  19.1506  19.2220  19.3468  19.4455
    19.5447  19.5755  19.6670  19.7565  19.8411  19.9360  20.0166  20.0955
    20.1784  20.2888  20.3457  20.4264  20.4742  20.5651  20.6000  20.6871
    20.7389  20.8328  20.8749  20.8875  20.9201  21.0034  21.0895  21.1838
    21.2157  21.2749  21.3215  21.4074  21.5044  21.5761  21.5998  21.6965
    21.7312  21.8067  21.8676  21.9238  22.0098  22.0454  22.1158  22.1871
    22.2597  22.3123  22.3743  22.4020  22.4542  22.4989  22.5412  22.6061
    22.6880  22.7214  22.7844  22.8107  22.8449  22.9338  22.9610  23.0022
    23.1042  23.1386  23.1745  23.1988  23.2719  23.3378  23.3766

     the Fermi energy is     0.4727 ev

!    total energy              =   -2206.96883751 Ry
     Harris-Foulkes estimate   =   -2206.96883751 Ry
     estimated scf accuracy    <          2.9E-09 Ry

     The total energy is the sum of the following terms:

     one-electron contribution =  -24669.31398918 Ry
     hartree contribution      =   12355.81704340 Ry
     xc contribution           =    -601.98648036 Ry
     ewald contribution        =   10706.91460190 Ry
     Hubbard energy            =       1.60034360 Ry
     smearing contrib. (-TS)   =      -0.00035688 Ry

     convergence has been achieved in  17 iterations

     Forces acting on atoms (Ry/au):


     negative rho (up, down):  0.244E+00 0.000E+00
     atom    1 type  1   force =    -0.00502202   -0.00662993    0.00011070
     atom    2 type  1   force =     0.00004451    0.00429516   -0.00011103
     atom    3 type  2   force =     0.01840780   -0.00240470   -0.00020634
     atom    4 type  2   force =     0.00086426    0.00713400    0.00058817
     atom    5 type  1   force =     0.00301304    0.00582449    0.00006880
     atom    6 type  1   force =     0.00158176   -0.00680162    0.00001416
     atom    7 type  1   force =    -0.00035628   -0.00255393   -0.00034284
     atom    8 type  1   force =     0.00346399    0.00254609    0.00012439
     atom    9 type  2   force =    -0.03966524   -0.00394607    0.00009992
     atom   10 type  2   force =    -0.00012751    0.00205576   -0.00020886
     atom   11 type  1   force =    -0.02067197   -0.00353184   -0.00000028
     atom   12 type  1   force =    -0.01240357    0.01519081   -0.00048880
     atom   13 type  1   force =    -0.00011954   -0.00446434   -0.00004739
     atom   14 type  1   force =    -0.00300182   -0.00591195    0.00001562
     atom   15 type  1   force =    -0.00002784    0.00376863   -0.00051416
     atom   16 type  2   force =    -0.01818831   -0.00252215   -0.00019344
     atom   17 type  2   force =     0.00178529    0.00724422   -0.00020755
     atom   18 type  1   force =     0.00021483    0.00578520    0.00006435
     atom   19 type  1   force =    -0.00108879   -0.00667366    0.00002429
     atom   20 type  1   force =    -0.00051984    0.00078528    0.00034361
     atom   21 type  1   force =     0.00247703    0.00195601    0.00033081
     atom   22 type  2   force =     0.03600258   -0.00215367    0.00020546
     atom   23 type  2   force =     0.00070134   -0.00875208    0.00072660
     atom   24 type  1   force =     0.02035557   -0.00477223    0.00003972
     atom   25 type  1   force =     0.01229656    0.01453253   -0.00037682
     atom   26 type  1   force =    -0.00074455   -0.01179561   -0.00012026
     atom   27 type  3   force =     0.00000693    0.00020580    0.00012284
     atom   28 type  3   force =     0.00000133    0.00016443   -0.00022335
     atom   29 type  3   force =     0.00027678    0.00004932   -0.00041753
     atom   30 type  3   force =     0.00025457    0.00014982   -0.00031135
     atom   31 type  1   force =    -0.00011089    0.00040557    0.00073646
     atom   32 type  1   force =     0.00028007    0.00057439    0.00005765
     atom   33 type  3   force =     0.00001992    0.00024627    0.00009649

     Total force =     0.001981     Total SCF correction =     0.000219
     SCF correction compared to forces is large: reduce conv_thr to get better values


     entering subroutine stress ...


     negative rho (up, down):  0.244E+00 0.000E+00
          total   stress  (Ry/bohr**3)                   (kbar)     P=   -9.28
  -0.00006256  -0.00000015   0.00000224         -9.20     -0.02      0.33
  -0.00000015  -0.00008309  -0.00000750         -0.02    -12.22     -1.10
   0.00000224  -0.00000750  -0.00004355          0.33     -1.10     -6.41


     bfgs converged in  15 scf cycles and  14 bfgs steps
     (criteria: energy < 0.10E-03, force < 0.10E-02)

     End of BFGS Geometry Optimization

     Final energy   =   -2206.9688375087 Ry
Begin final coordinates

ATOMIC_POSITIONS (crystal)
O0       0.000000000   0.000000000   0.370424830    0   0   1
O0       0.000000000   0.500000000   0.382591490    0   0   1
Re1      0.250000000   0.500000000   0.442221690    0   0   1
Re1      0.000000000   0.000000000   0.442881591    0   0   1
O0       0.250000000   0.780000000   0.441398357    0   0   1
O0       0.250000000   0.220000000   0.441195653    0   0   1
O0       0.000000000   0.500000000   0.497748604    0   0   1
O0       0.000000000   0.000000000   0.513936989    0   0   1
Re1      0.250000000   0.000000000   0.573787352    0   0   1
Re1      0.000000000   0.500000000   0.567474415    0   0   1
O0       0.250000000   0.720000000   0.570970785    0   0   1
O0       0.250000000   0.280000000   0.573136794    0   0   1
O0       0.000000000   0.000000000   0.625806108    0   0   1
O0       0.500000000   0.000000000   0.370341047    0   0   1
O0       0.500000000   0.500000000   0.382646821    0   0   1
Re1      0.750000000   0.500000000   0.442215346    0   0   1
Re1      0.500000000   0.000000000   0.442536088    0   0   1
O0       0.750000000   0.780000000   0.441335248    0   0   1
O0       0.750000000   0.220000000   0.441300825    0   0   1
O0       0.500000000   0.500000000   0.498013941    0   0   1
O0       0.500000000   0.000000000   0.514182711    0   0   1
Re1      0.750000000   0.000000000   0.573587972    0   0   1
Re1      0.500000000   0.500000000   0.575120235    0   0   1
O0       0.750000000   0.720000000   0.570919317    0   0   1
O0       0.750000000   0.280000000   0.573098256    0   0   1
O0       0.500000000   0.000000000   0.624868880    0   0   1
H2      -0.000251913   0.624114115   0.365332210
H2       0.499566975   0.623927949   0.365270240
H2       0.168291279   0.024758019   0.355910456
H2       0.670122528   0.021773411   0.356159665
O0       0.499206493   0.525720908   0.641189818
O0       0.501611796   0.329126582   0.677845454
H2       0.499887057   0.400950707   0.709280812
End final coordinates



     init_run     :    169.82s CPU    171.36s WALL (       1 calls)
     electrons    :  71902.44s CPU  74208.19s WALL (      15 calls)
     update_pot   :    271.91s CPU    279.26s WALL (      14 calls)
     forces       :   3257.96s CPU   3330.40s WALL (      15 calls)
     stress       :  16266.88s CPU  16587.70s WALL (      15 calls)

     Called by init_run:
     wfcinit      :     43.01s CPU     44.09s WALL (       1 calls)
     potinit      :      7.02s CPU      7.13s WALL (       1 calls)

     Called by electrons:
     c_bands      :  27348.77s CPU  28137.99s WALL (     256 calls)
     sum_band     :  16187.58s CPU  16685.62s WALL (     256 calls)
     v_of_rho     :    296.37s CPU    325.00s WALL (     268 calls)
     newd         :  29627.58s CPU  30389.08s WALL (     268 calls)
     mix_rho      :     52.59s CPU     53.69s WALL (     256 calls)

     Called by c_bands:
     init_us_2    :    106.69s CPU    107.72s WALL (    2124 calls)
     cegterg      :  26822.40s CPU  27542.07s WALL (     768 calls)

     Called by *egterg:
     h_psi        :  16109.72s CPU  16523.68s WALL (    2174 calls)
     s_psi        :   2239.41s CPU   2264.68s WALL (    2669 calls)
     g_psi        :     29.77s CPU     29.81s WALL (    1403 calls)
     cdiaghg      :   2344.94s CPU   2352.04s WALL (    2120 calls)

     Called by h_psi:
     add_vuspsi   :   1746.42s CPU   1769.19s WALL (    2174 calls)
     vhpsi        :   1482.37s CPU   1509.17s WALL (    2174 calls)

     General routines
     calbec       :   4940.74s CPU   5035.36s WALL (   20689 calls)
     fft          :    601.93s CPU    895.64s WALL (    4629 calls)
     ffts         :      5.02s CPU      5.34s WALL (     524 calls)
     fftw         :   9008.62s CPU   9443.82s WALL ( 1461148 calls)
     interpolate  :     45.03s CPU     46.17s WALL (     524 calls)
     davcio       :      0.21s CPU     42.54s WALL (    2529 calls)

     Parallel routines
     fft_scatter  :   3912.24s CPU   4620.18s WALL ( 1466301 calls)
     Hubbard U routines
     new_ns       :    334.38s CPU    351.54s WALL (     256 calls)
     vhpsi        :   1482.37s CPU   1509.17s WALL (    2174 calls)
     force_hub    :    653.33s CPU    665.23s WALL (      15 calls)
     stres_hub    :   7193.75s CPU   7312.63s WALL (      15 calls)

     PWSCF        :     1d    2h 0m CPU        1d    2h46m WALL


   This run was terminated on:  14:43:31   2Jun2014            

=------------------------------------------------------------------------------=
   JOB DONE.
=------------------------------------------------------------------------------=
---------------------------------------
Running PBS batch system epilogue script
Job id: 373380.audhumbla.fysik.dtu.dk
Username: zhonxu
Groupname: campgst
Jobname: ReO2/Eads-2-layers/OOH-U-2.5
Sessionid: 17079
Resources limits: neednodes=2:ppn=8:xeon8,nodes=2:ppn=8:xeon8,walltime=48:00:00
Resources used: cput=428:11:06,mem=17584284kb,vmem=21252924kb,walltime=26:46:54
Queuename: verylong
Accounting:
This job has allocated the following 16 nodes:
a038 a038 a038 a038 a038 a038 a038 a038 a030 a030 a030 a030 a030 a030 a030 a030
Finished epilogue job 373380.audhumbla.fysik.dtu.dk for zhonxu
