
     Program PWSCF v.5.0.2 (svn rev. 9656) starts on  6May2014 at  9:20:13 

     This program is part of the open-source Quantum ESPRESSO suite
     for quantum simulation of materials; please cite
         "P. Giannozzi et al., J. Phys.:Condens. Matter 21 395502 (2009);
          URL http://www.quantum-espresso.org", 
     in publications or presentations arising from this work. More details at
     http://www.quantum-espresso.org/quote.php

     Parallel version (MPI), running on    16 processors
     K-points division:     npool     =       4
     R & G space division:  proc/nbgrp/npool/nimage =       4

     Current dimensions of program PWSCF are:
     Max number of different atomic species (ntypx) = 10
     Max number of k-points (npk) =  40000
     Max angular momentum in pseudopotentials (lmaxx) =  3
     Reading input from pwscf.in
Warning: card &CELL ignored
Warning: card / ignored

     Subspace diagonalization in iterative solution of the eigenvalue problem:
     a serial algorithm will be used

     Found symmetry operation: I + ( -0.5000  0.0000  0.0000)
     This is a supercell, fractional translations are disabled

     Parallelization info
     --------------------
     sticks:   dense  smooth     PW     G-vecs:    dense   smooth      PW
     Min        1491     475    132               353925    64028    9441
     Max        1492     476    134               353934    64061    9444
     Sum        5965    1901    531              1415713   256153   37769



     bravais-lattice index     =            0
     lattice parameter (alat)  =      12.2076  a.u.
     unit-cell volume          =    7496.5096 (a.u.)^3
     number of atoms/cell      =           30
     number of atomic types    =            3
     number of electrons       =       240.00
     number of Kohn-Sham states=          360
     kinetic-energy cutoff     =      40.0000  Ry
     charge density cutoff     =     500.0000  Ry
     convergence threshold     =      1.0E-06
     mixing beta               =       0.7000
     number of iterations used =            8  plain     mixing
     Exchange-correlation      = SLA  PW   PBE  PBE ( 1 4 3 4 0)
     EXX-fraction              =        0.00
     nstep                     =           50


     celldm(1)=  12.207631  celldm(2)=   0.000000  celldm(3)=   0.000000
     celldm(4)=   0.000000  celldm(5)=   0.000000  celldm(6)=   0.000000

     crystal axes: (cart. coord. in units of alat)
               a(1) = (   1.000000   0.000000   0.000000 )  
               a(2) = (   0.000000   1.004836   0.000000 )  
               a(3) = (   0.000000   0.000000   4.100811 )  

     reciprocal axes: (cart. coord. in units 2 pi/alat)
               b(1) = (  1.000000  0.000000  0.000000 )  
               b(2) = (  0.000000  0.995187  0.000000 )  
               b(3) = (  0.000000  0.000000  0.243854 )  


     PseudoPot. # 1 for O  read from file:
     /home/camp/zhonxu/pseudo/o_pbe_v1.01.uspp.F.UPF
     MD5 check sum: 2bcb18d16ea4b960afae9ec6d52f22d2
     Pseudo is Ultrasoft + core correction, Zval =  6.0
     Generated by new atomic code, or converted to UPF format
     Using radial grid of  737 points,  5 beta functions with: 
                l(1) =   0
                l(2) =   0
                l(3) =   1
                l(4) =   1
                l(5) =   2
     Q(r) pseudized with  8 coefficients,  rinner =    0.900   0.900   0.900
                                                       0.900   0.900

     PseudoPot. # 2 for Pt read from file:
     /home/camp/zhonxu/pseudo/pt_pbe_v1.uspp.F.UPF
     MD5 check sum: 4c71d6ad5ef119f1eb26a4d0b7884226
     Pseudo is Ultrasoft + core correction, Zval = 16.0
     Generated by new atomic code, or converted to UPF format
     Using radial grid of  985 points,  6 beta functions with: 
                l(1) =   0
                l(2) =   0
                l(3) =   1
                l(4) =   1
                l(5) =   2
                l(6) =   2
     Q(r) pseudized with  8 coefficients,  rinner =    1.300   1.300   1.300
                                                       1.300   1.300

     PseudoPot. # 3 for H  read from file:
     /home/camp/zhonxu/pseudo/h_pbe_v1.uspp.F.UPF
     MD5 check sum: 3408e3ff4ec8b0a4e358431e7e038a48
     Pseudo is Ultrasoft, Zval =  1.0
     Generated by new atomic code, or converted to UPF format
     Using radial grid of  615 points,  2 beta functions with: 
                l(1) =   0
                l(2) =   0
     Q(r) pseudized with  8 coefficients,  rinner =    0.700

     atomic species   valence    mass     pseudopotential
        O0             6.00    15.99940     O ( 1.00)
        Pt1           16.00   195.08000     Pt( 1.00)
        H2             1.00     1.00794     H ( 1.00)


     Simplified LDA+U calculation (l_max = 2) with parameters (eV):
     atomic species    L          U    alpha       J0     beta
        Pt1            2     4.0000   0.0000   0.0000   0.0000



     No symmetry found



   Cartesian axes

     site n.     atom                  positions (alat units)
         1           O0  tau(   1) = (   0.0000000   0.0000000   1.5457188  )
         2           O0  tau(   2) = (   0.0000000   0.5024180   1.6369208  )
         3           Pt1 tau(   3) = (   0.2500000   0.5024180   1.8413872  )
         4           Pt1 tau(   4) = (   0.0000000   0.0000000   1.8534436  )
         5           O0  tau(   5) = (   0.2500000   0.8139171   1.8157162  )
         6           O0  tau(   6) = (   0.2500000   0.1909188   1.8824364  )
         7           O0  tau(   7) = (   0.0000000   0.5024180   2.0315829  )
         8           O0  tau(   8) = (   0.0000000   0.0000000   2.1708464  )
         9           Pt1 tau(   9) = (   0.2500000   0.0000000   2.3625593  )
        10           Pt1 tau(  10) = (   0.0000000   0.5024180   2.3549318  )
        11           O0  tau(  11) = (   0.2500000   0.6933368   2.3911010  )
        12           O0  tau(  12) = (   0.2500000   0.3114991   2.3934384  )
        13           O0  tau(  13) = (   0.0000000   0.0000000   2.5491052  )
        14           O0  tau(  14) = (   0.5000000   0.0000000   1.5457188  )
        15           O0  tau(  15) = (   0.5000000   0.5024180   1.6369208  )
        16           Pt1 tau(  16) = (   0.7500000   0.5024180   1.8413872  )
        17           Pt1 tau(  17) = (   0.5000000   0.0000000   1.8534436  )
        18           O0  tau(  18) = (   0.7500000   0.8139171   1.8157162  )
        19           O0  tau(  19) = (   0.7500000   0.1909188   1.8824364  )
        20           O0  tau(  20) = (   0.5000000   0.5024180   2.0315829  )
        21           O0  tau(  21) = (   0.5000000   0.0000000   2.1708464  )
        22           Pt1 tau(  22) = (   0.7500000   0.0000000   2.3625593  )
        23           Pt1 tau(  23) = (   0.5000000   0.5024180   2.3549318  )
        24           O0  tau(  24) = (   0.7500000   0.6933368   2.3911010  )
        25           O0  tau(  25) = (   0.7500000   0.3114991   2.3934384  )
        26           O0  tau(  26) = (   0.5000000   0.0000000   2.5491052  )
        27           H2  tau(  27) = (  -0.0000500   0.6431553   1.5728661  )
        28           H2  tau(  28) = (   0.4999500   0.6431553   1.5728661  )
        29           H2  tau(  29) = (   0.1440700   0.0315318   1.5048747  )
        30           H2  tau(  30) = (   0.6440700   0.0315318   1.5048747  )

     number of k points=    10  Methfessel-Paxton smearing, width (Ry)=  0.0100
                       cart. coord. in units 2pi/alat
        k(    1) = (   0.0000000   0.0000000   0.0000000), wk =   0.1250000
        k(    2) = (   0.0000000   0.2487968   0.0000000), wk =   0.2500000
        k(    3) = (   0.0000000  -0.4975937   0.0000000), wk =   0.1250000
        k(    4) = (   0.2500000   0.0000000   0.0000000), wk =   0.2500000
        k(    5) = (   0.2500000   0.2487968   0.0000000), wk =   0.2500000
        k(    6) = (   0.2500000  -0.4975937   0.0000000), wk =   0.2500000
        k(    7) = (  -0.5000000   0.0000000   0.0000000), wk =   0.1250000
        k(    8) = (  -0.5000000   0.2487968   0.0000000), wk =   0.2500000
        k(    9) = (  -0.5000000  -0.4975937   0.0000000), wk =   0.1250000
        k(   10) = (  -0.2500000   0.2487968   0.0000000), wk =   0.2500000

     Dense  grid:  1415713 G-vectors     FFT dimensions: (  90,  90, 360)

     Smooth grid:   256153 G-vectors     FFT dimensions: (  50,  50, 216)

     Largest allocated arrays     est. size (Mb)     dimensions
        Kohn-Sham Wavefunctions        44.48 Mb     (   8098,  360)
        Atomic wavefunctions           21.25 Mb     (   8098,  172)
        NL pseudopotentials            47.70 Mb     (   8098,  386)
        Each V/rho on FFT grid         11.12 Mb     ( 729000)
        Each G-vector array             2.70 Mb     ( 353934)
        G-vector shells                 1.17 Mb     ( 153301)
     Largest temporary arrays     est. size (Mb)     dimensions
        Auxiliary wavefunctions       177.93 Mb     (   8098, 1440)
        Each subspace H/S matrix       31.64 Mb     (1440,1440)
        Each <psi_i|beta_j> matrix      2.12 Mb     (    386,  360)
        Arrays for rho mixing          88.99 Mb     ( 729000,   8)

     Check: negative/imaginary core charge=   -0.000003    0.000000

     Initial potential from superposition of free atoms
     Check: negative starting charge=   -1.537272

     starting charge  235.99985, renormalised to  240.00000

     negative rho (up, down):  0.156E+01 0.000E+00
     Number of +U iterations with fixed ns =  0
     Starting occupations:
 --- enter write_ns ---
 LDA+U parameters:
U( 2)     =  4.00000000
alpha( 2) =  0.00000000
atom    3   Tr[ns(na)] =   8.00000
    eigenvalues: 
  0.800  0.800  0.800  0.800  0.800
    eigenvectors:
  1.000  0.000  0.000  0.000  0.000
  0.000  1.000  0.000  0.000  0.000
  0.000  0.000  1.000  0.000  0.000
  0.000  0.000  0.000  1.000  0.000
  0.000  0.000  0.000  0.000  1.000
    occupations:
  0.800  0.000  0.000  0.000  0.000
  0.000  0.800  0.000  0.000  0.000
  0.000  0.000  0.800  0.000  0.000
  0.000  0.000  0.000  0.800  0.000
  0.000  0.000  0.000  0.000  0.800
atom    4   Tr[ns(na)] =   8.00000
    eigenvalues: 
  0.800  0.800  0.800  0.800  0.800
    eigenvectors:
  1.000  0.000  0.000  0.000  0.000
  0.000  1.000  0.000  0.000  0.000
  0.000  0.000  1.000  0.000  0.000
  0.000  0.000  0.000  1.000  0.000
  0.000  0.000  0.000  0.000  1.000
    occupations:
  0.800  0.000  0.000  0.000  0.000
  0.000  0.800  0.000  0.000  0.000
  0.000  0.000  0.800  0.000  0.000
  0.000  0.000  0.000  0.800  0.000
  0.000  0.000  0.000  0.000  0.800
atom    9   Tr[ns(na)] =   8.00000
    eigenvalues: 
  0.800  0.800  0.800  0.800  0.800
    eigenvectors:
  1.000  0.000  0.000  0.000  0.000
  0.000  1.000  0.000  0.000  0.000
  0.000  0.000  1.000  0.000  0.000
  0.000  0.000  0.000  1.000  0.000
  0.000  0.000  0.000  0.000  1.000
    occupations:
  0.800  0.000  0.000  0.000  0.000
  0.000  0.800  0.000  0.000  0.000
  0.000  0.000  0.800  0.000  0.000
  0.000  0.000  0.000  0.800  0.000
  0.000  0.000  0.000  0.000  0.800
atom   10   Tr[ns(na)] =   8.00000
    eigenvalues: 
  0.800  0.800  0.800  0.800  0.800
    eigenvectors:
  1.000  0.000  0.000  0.000  0.000
  0.000  1.000  0.000  0.000  0.000
  0.000  0.000  1.000  0.000  0.000
  0.000  0.000  0.000  1.000  0.000
  0.000  0.000  0.000  0.000  1.000
    occupations:
  0.800  0.000  0.000  0.000  0.000
  0.000  0.800  0.000  0.000  0.000
  0.000  0.000  0.800  0.000  0.000
  0.000  0.000  0.000  0.800  0.000
  0.000  0.000  0.000  0.000  0.800
atom   16   Tr[ns(na)] =   8.00000
    eigenvalues: 
  0.800  0.800  0.800  0.800  0.800
    eigenvectors:
  1.000  0.000  0.000  0.000  0.000
  0.000  1.000  0.000  0.000  0.000
  0.000  0.000  1.000  0.000  0.000
  0.000  0.000  0.000  1.000  0.000
  0.000  0.000  0.000  0.000  1.000
    occupations:
  0.800  0.000  0.000  0.000  0.000
  0.000  0.800  0.000  0.000  0.000
  0.000  0.000  0.800  0.000  0.000
  0.000  0.000  0.000  0.800  0.000
  0.000  0.000  0.000  0.000  0.800
atom   17   Tr[ns(na)] =   8.00000
    eigenvalues: 
  0.800  0.800  0.800  0.800  0.800
    eigenvectors:
  1.000  0.000  0.000  0.000  0.000
  0.000  1.000  0.000  0.000  0.000
  0.000  0.000  1.000  0.000  0.000
  0.000  0.000  0.000  1.000  0.000
  0.000  0.000  0.000  0.000  1.000
    occupations:
  0.800  0.000  0.000  0.000  0.000
  0.000  0.800  0.000  0.000  0.000
  0.000  0.000  0.800  0.000  0.000
  0.000  0.000  0.000  0.800  0.000
  0.000  0.000  0.000  0.000  0.800
atom   22   Tr[ns(na)] =   8.00000
    eigenvalues: 
  0.800  0.800  0.800  0.800  0.800
    eigenvectors:
  1.000  0.000  0.000  0.000  0.000
  0.000  1.000  0.000  0.000  0.000
  0.000  0.000  1.000  0.000  0.000
  0.000  0.000  0.000  1.000  0.000
  0.000  0.000  0.000  0.000  1.000
    occupations:
  0.800  0.000  0.000  0.000  0.000
  0.000  0.800  0.000  0.000  0.000
  0.000  0.000  0.800  0.000  0.000
  0.000  0.000  0.000  0.800  0.000
  0.000  0.000  0.000  0.000  0.800
atom   23   Tr[ns(na)] =   8.00000
    eigenvalues: 
  0.800  0.800  0.800  0.800  0.800
    eigenvectors:
  1.000  0.000  0.000  0.000  0.000
  0.000  1.000  0.000  0.000  0.000
  0.000  0.000  1.000  0.000  0.000
  0.000  0.000  0.000  1.000  0.000
  0.000  0.000  0.000  0.000  1.000
    occupations:
  0.800  0.000  0.000  0.000  0.000
  0.000  0.800  0.000  0.000  0.000
  0.000  0.000  0.800  0.000  0.000
  0.000  0.000  0.000  0.800  0.000
  0.000  0.000  0.000  0.000  0.800
N of occupied +U levels =  64.0000000
 --- exit write_ns ---
 Atomic wfc used for LDA+U Projector are NOT orthogonalized
     Starting wfc are  172 randomized atomic wfcs

     total cpu time spent up to now is      106.8 secs

     per-process dynamical memory:   415.8 Mb

     Self-consistent Calculation

     iteration #  1     ecut=    40.00 Ry     beta=0.70
     Davidson diagonalization with overlap
     ethr =  1.00E-02,  avg # of iterations =  5.1
 --- enter write_ns ---
 LDA+U parameters:
U( 2)     =  4.00000000
alpha( 2) =  0.00000000
atom    3   Tr[ns(na)] =   7.17470
    eigenvalues: 
  0.443  0.480  0.743  0.959  0.962
    eigenvectors:
  0.000  0.138  0.069  0.793  0.000
  1.000  0.000  0.000  0.000  0.000
  0.000  0.019  0.930  0.052  0.000
  0.000  0.843  0.001  0.155  0.000
  0.000  0.000  0.000  0.000  1.000
    occupations:
  0.878 -0.000 -0.030 -0.165  0.000
 -0.000  0.443  0.000  0.000 -0.004
 -0.030  0.000  0.749  0.052  0.001
 -0.165  0.000  0.052  0.555 -0.000
  0.000 -0.004  0.001 -0.000  0.962
atom    4   Tr[ns(na)] =   6.98240
    eigenvalues: 
  0.456  0.476  0.775  0.826  0.959
    eigenvectors:
  0.000  0.973  0.009  0.001  0.017
  0.032  0.000  0.064  0.904  0.000
  0.000  0.012  0.919  0.065  0.005
  0.000  0.015  0.006  0.000  0.979
  0.968  0.000  0.002  0.030  0.000
    occupations:
  0.487 -0.003 -0.034  0.059 -0.001
 -0.003  0.811  0.012  0.001  0.064
 -0.034  0.012  0.775 -0.008  0.002
  0.059  0.001 -0.008  0.951  0.000
 -0.001  0.064  0.002  0.000  0.468
atom    9   Tr[ns(na)] =   7.76652
    eigenvalues: 
  0.473  0.494  0.971  0.971  0.975
    eigenvectors:
  0.000  0.140  0.586  0.086  0.187
  1.000  0.000  0.000  0.000  0.000
  0.000  0.000  0.176  0.042  0.782
  0.000  0.860  0.097  0.014  0.029
  0.000  0.000  0.141  0.857  0.001
    occupations:
  0.904  0.000 -0.002 -0.166  0.000
  0.000  0.473  0.000  0.000  0.001
 -0.002  0.000  0.974 -0.001 -0.000
 -0.166  0.000 -0.001  0.561  0.000
  0.000  0.001 -0.000  0.000  0.971
atom   10   Tr[ns(na)] =   8.57266
    eigenvalues: 
  0.465  0.875  0.979  0.982  0.985
    eigenvectors:
  0.000  0.880  0.117  0.000  0.003
  0.000  0.000  0.000  1.000  0.000
  0.000  0.001  0.006  0.000  0.993
  0.000  0.119  0.878  0.000  0.004
  1.000  0.000  0.000  0.000  0.000
    occupations:
  0.887  0.000  0.003  0.034  0.000
  0.000  0.982 -0.000 -0.000 -0.003
  0.003 -0.000  0.985 -0.001  0.000
  0.034 -0.000 -0.001  0.967 -0.000
  0.000 -0.003  0.000 -0.000  0.465
atom   16   Tr[ns(na)] =   7.17473
    eigenvalues: 
  0.443  0.480  0.743  0.959  0.962
    eigenvectors:
  0.000  0.138  0.069  0.793  0.000
  1.000  0.000  0.000  0.000  0.000
  0.000  0.019  0.929  0.052  0.000
  0.000  0.843  0.001  0.155  0.000
  0.000  0.000  0.000  0.000  1.000
    occupations:
  0.878 -0.000 -0.030 -0.165  0.000
 -0.000  0.443  0.000  0.000 -0.004
 -0.030  0.000  0.749  0.052  0.001
 -0.165  0.000  0.052  0.555 -0.000
  0.000 -0.004  0.001 -0.000  0.962
atom   17   Tr[ns(na)] =   6.98237
    eigenvalues: 
  0.456  0.476  0.775  0.826  0.959
    eigenvectors:
  0.000  0.973  0.009  0.001  0.017
  0.032  0.000  0.064  0.904  0.000
  0.000  0.012  0.919  0.065  0.005
  0.000  0.015  0.006  0.000  0.979
  0.968  0.000  0.002  0.030  0.000
    occupations:
  0.487 -0.003 -0.034  0.059 -0.001
 -0.003  0.811  0.012  0.001  0.064
 -0.034  0.012  0.775 -0.008  0.002
  0.059  0.001 -0.008  0.951  0.000
 -0.001  0.064  0.002  0.000  0.468
atom   22   Tr[ns(na)] =   7.76651
    eigenvalues: 
  0.473  0.494  0.971  0.971  0.975
    eigenvectors:
  0.000  0.140  0.586  0.087  0.187
  1.000  0.000  0.000  0.000  0.000
  0.000  0.000  0.175  0.043  0.782
  0.000  0.860  0.097  0.014  0.029
  0.000  0.000  0.142  0.856  0.001
    occupations:
  0.904  0.000 -0.002 -0.166  0.000
  0.000  0.473  0.000  0.000  0.001
 -0.002  0.000  0.974 -0.001 -0.000
 -0.166  0.000 -0.001  0.561  0.000
  0.000  0.001 -0.000  0.000  0.971
atom   23   Tr[ns(na)] =   8.57266
    eigenvalues: 
  0.465  0.875  0.979  0.982  0.985
    eigenvectors:
  0.000  0.880  0.117  0.000  0.003
  0.000  0.000  0.000  1.000  0.000
  0.000  0.001  0.006  0.000  0.993
  0.000  0.119  0.878  0.000  0.004
  1.000  0.000  0.000  0.000  0.000
    occupations:
  0.887  0.000  0.003  0.034  0.000
  0.000  0.982 -0.000 -0.000 -0.003
  0.003 -0.000  0.985 -0.001  0.000
  0.034 -0.000 -0.001  0.967 -0.000
  0.000 -0.003  0.000 -0.000  0.465
N of occupied +U levels =  60.9925502
 --- exit write_ns ---

     negative rho (up, down):  0.151E+01 0.000E+00

     total cpu time spent up to now is      449.9 secs

     total energy              =   -2230.63753216 Ry
     Harris-Foulkes estimate   =   -2252.55658373 Ry
     estimated scf accuracy    <      26.79202387 Ry

     iteration #  2     ecut=    40.00 Ry     beta=0.70
     Davidson diagonalization with overlap
     ethr =  1.00E-02,  avg # of iterations =  4.9

     negative rho (up, down):  0.129E+01 0.000E+00

     total cpu time spent up to now is      775.8 secs

     total energy              =   -2153.77921652 Ry
     Harris-Foulkes estimate   =   -2331.69559686 Ry
     estimated scf accuracy    <    1724.55775073 Ry

     iteration #  3     ecut=    40.00 Ry     beta=0.70
     Davidson diagonalization with overlap
     ethr =  1.00E-02,  avg # of iterations =  5.0

     negative rho (up, down):  0.930E+00 0.000E+00

     total cpu time spent up to now is     1129.8 secs

     total energy              =   -2220.88292667 Ry
     Harris-Foulkes estimate   =   -2272.47256322 Ry
     estimated scf accuracy    <     393.19971779 Ry

     iteration #  4     ecut=    40.00 Ry     beta=0.70
     Davidson diagonalization with overlap
     ethr =  1.00E-02,  avg # of iterations =  3.7

     negative rho (up, down):  0.101E+01 0.000E+00

     total cpu time spent up to now is     1351.6 secs

     total energy              =   -2244.75239537 Ry
     Harris-Foulkes estimate   =   -2250.64120143 Ry
     estimated scf accuracy    <      20.82466653 Ry

     iteration #  5     ecut=    40.00 Ry     beta=0.70
     Davidson diagonalization with overlap
     ethr =  8.68E-03,  avg # of iterations =  1.0

     negative rho (up, down):  0.115E+01 0.000E+00

     total cpu time spent up to now is     1523.6 secs

     total energy              =   -2247.31320412 Ry
     Harris-Foulkes estimate   =   -2248.62517803 Ry
     estimated scf accuracy    <       6.41319875 Ry

     iteration #  6     ecut=    40.00 Ry     beta=0.70
     Davidson diagonalization with overlap
     ethr =  2.67E-03,  avg # of iterations =  3.2

     negative rho (up, down):  0.120E+01 0.000E+00

     total cpu time spent up to now is     1708.0 secs

     total energy              =   -2247.66519006 Ry
     Harris-Foulkes estimate   =   -2248.05757340 Ry
     estimated scf accuracy    <       1.69115286 Ry

     iteration #  7     ecut=    40.00 Ry     beta=0.70
     Davidson diagonalization with overlap
     ethr =  7.05E-04,  avg # of iterations =  5.0

     negative rho (up, down):  0.127E+01 0.000E+00

     total cpu time spent up to now is     1910.8 secs

     total energy              =   -2247.67012296 Ry
     Harris-Foulkes estimate   =   -2247.88425325 Ry
     estimated scf accuracy    <       1.39727150 Ry

     iteration #  8     ecut=    40.00 Ry     beta=0.70
     Davidson diagonalization with overlap
     ethr =  5.82E-04,  avg # of iterations =  1.6

     negative rho (up, down):  0.138E+01 0.000E+00

     total cpu time spent up to now is     2101.7 secs

     total energy              =   -2247.65620492 Ry
     Harris-Foulkes estimate   =   -2247.82532207 Ry
     estimated scf accuracy    <       0.67525487 Ry

     iteration #  9     ecut=    40.00 Ry     beta=0.70
     Davidson diagonalization with overlap
     ethr =  2.81E-04,  avg # of iterations =  6.3

     negative rho (up, down):  0.147E+01 0.000E+00

     total cpu time spent up to now is     2359.3 secs

     total energy              =   -2247.68380962 Ry
     Harris-Foulkes estimate   =   -2247.73427818 Ry
     estimated scf accuracy    <       0.21659264 Ry

     iteration # 10     ecut=    40.00 Ry     beta=0.70
     Davidson diagonalization with overlap
     ethr =  9.02E-05,  avg # of iterations =  3.7

     negative rho (up, down):  0.153E+01 0.000E+00

     total cpu time spent up to now is     2573.2 secs

     total energy              =   -2247.68103815 Ry
     Harris-Foulkes estimate   =   -2247.70306907 Ry
     estimated scf accuracy    <       0.07644522 Ry

     iteration # 11     ecut=    40.00 Ry     beta=0.70
     Davidson diagonalization with overlap
     ethr =  3.19E-05,  avg # of iterations =  4.5

     negative rho (up, down):  0.158E+01 0.000E+00

     total cpu time spent up to now is     2783.1 secs

     total energy              =   -2247.67948661 Ry
     Harris-Foulkes estimate   =   -2247.69088534 Ry
     estimated scf accuracy    <       0.05863657 Ry

     iteration # 12     ecut=    40.00 Ry     beta=0.70
     Davidson diagonalization with overlap
     ethr =  2.44E-05,  avg # of iterations =  3.4

     negative rho (up, down):  0.157E+01 0.000E+00

     total cpu time spent up to now is     2980.0 secs

     total energy              =   -2247.68082644 Ry
     Harris-Foulkes estimate   =   -2247.68810138 Ry
     estimated scf accuracy    <       0.03347134 Ry

     iteration # 13     ecut=    40.00 Ry     beta=0.70
     Davidson diagonalization with overlap
     ethr =  1.39E-05,  avg # of iterations =  1.6

     negative rho (up, down):  0.158E+01 0.000E+00

     total cpu time spent up to now is     3166.9 secs

     total energy              =   -2247.68046262 Ry
     Harris-Foulkes estimate   =   -2247.68598014 Ry
     estimated scf accuracy    <       0.02002121 Ry

     iteration # 14     ecut=    40.00 Ry     beta=0.70
     Davidson diagonalization with overlap
     ethr =  8.34E-06,  avg # of iterations =  6.2

     negative rho (up, down):  0.158E+01 0.000E+00

     total cpu time spent up to now is     3396.4 secs

     total energy              =   -2247.68063276 Ry
     Harris-Foulkes estimate   =   -2247.68726560 Ry
     estimated scf accuracy    <       0.04883184 Ry

     iteration # 15     ecut=    40.00 Ry     beta=0.70
     Davidson diagonalization with overlap
     ethr =  8.34E-06,  avg # of iterations =  5.3

     negative rho (up, down):  0.158E+01 0.000E+00

     total cpu time spent up to now is     3615.1 secs

     total energy              =   -2247.68366667 Ry
     Harris-Foulkes estimate   =   -2247.68412297 Ry
     estimated scf accuracy    <       0.00170078 Ry

     iteration # 16     ecut=    40.00 Ry     beta=0.70
     Davidson diagonalization with overlap
     ethr =  7.09E-07,  avg # of iterations =  1.5

     negative rho (up, down):  0.158E+01 0.000E+00

     total cpu time spent up to now is     3802.8 secs

     total energy              =   -2247.68383270 Ry
     Harris-Foulkes estimate   =   -2247.68397294 Ry
     estimated scf accuracy    <       0.00038357 Ry

     iteration # 17     ecut=    40.00 Ry     beta=0.70
     Davidson diagonalization with overlap
     ethr =  1.60E-07,  avg # of iterations =  1.4

     negative rho (up, down):  0.158E+01 0.000E+00

     total cpu time spent up to now is     3989.9 secs

     total energy              =   -2247.68374524 Ry
     Harris-Foulkes estimate   =   -2247.68406612 Ry
     estimated scf accuracy    <       0.00200350 Ry

     iteration # 18     ecut=    40.00 Ry     beta=0.70
     Davidson diagonalization with overlap
     ethr =  1.60E-07,  avg # of iterations =  1.9

     negative rho (up, down):  0.158E+01 0.000E+00

     total cpu time spent up to now is     4178.8 secs

     total energy              =   -2247.68385673 Ry
     Harris-Foulkes estimate   =   -2247.68398907 Ry
     estimated scf accuracy    <       0.00092398 Ry

     iteration # 19     ecut=    40.00 Ry     beta=0.70
     Davidson diagonalization with overlap
     ethr =  1.60E-07,  avg # of iterations =  1.0

     negative rho (up, down):  0.158E+01 0.000E+00

     total cpu time spent up to now is     4364.8 secs

     total energy              =   -2247.68391866 Ry
     Harris-Foulkes estimate   =   -2247.68392961 Ry
     estimated scf accuracy    <       0.00005029 Ry

     iteration # 20     ecut=    40.00 Ry     beta=0.70
     Davidson diagonalization with overlap
     ethr =  2.10E-08,  avg # of iterations =  1.0

     negative rho (up, down):  0.158E+01 0.000E+00

     total cpu time spent up to now is     4550.4 secs

     total energy              =   -2247.68391998 Ry
     Harris-Foulkes estimate   =   -2247.68393020 Ry
     estimated scf accuracy    <       0.00006530 Ry

     iteration # 21     ecut=    40.00 Ry     beta=0.70
     Davidson diagonalization with overlap
     ethr =  2.10E-08,  avg # of iterations =  1.0

     negative rho (up, down):  0.158E+01 0.000E+00

     total cpu time spent up to now is     4736.6 secs

     total energy              =   -2247.68392384 Ry
     Harris-Foulkes estimate   =   -2247.68392580 Ry
     estimated scf accuracy    <       0.00000577 Ry

     iteration # 22     ecut=    40.00 Ry     beta=0.70
     Davidson diagonalization with overlap
     ethr =  2.41E-09,  avg # of iterations =  2.0

     negative rho (up, down):  0.158E+01 0.000E+00

     total cpu time spent up to now is     4927.9 secs

     total energy              =   -2247.68392217 Ry
     Harris-Foulkes estimate   =   -2247.68392834 Ry
     estimated scf accuracy    <       0.00003596 Ry

     iteration # 23     ecut=    40.00 Ry     beta=0.70
     Davidson diagonalization with overlap
     ethr =  2.41E-09,  avg # of iterations =  1.5

     negative rho (up, down):  0.158E+01 0.000E+00

     total cpu time spent up to now is     5114.7 secs

     total energy              =   -2247.68392484 Ry
     Harris-Foulkes estimate   =   -2247.68392554 Ry
     estimated scf accuracy    <       0.00000304 Ry

     iteration # 24     ecut=    40.00 Ry     beta=0.70
     Davidson diagonalization with overlap
     ethr =  1.27E-09,  avg # of iterations =  1.0

     negative rho (up, down):  0.158E+01 0.000E+00

     total cpu time spent up to now is     5300.6 secs

     total energy              =   -2247.68392456 Ry
     Harris-Foulkes estimate   =   -2247.68392587 Ry
     estimated scf accuracy    <       0.00000710 Ry

     iteration # 25     ecut=    40.00 Ry     beta=0.70
     Davidson diagonalization with overlap
     ethr =  1.27E-09,  avg # of iterations =  1.0

     negative rho (up, down):  0.158E+01 0.000E+00

     total cpu time spent up to now is     5486.4 secs

     total energy              =   -2247.68392514 Ry
     Harris-Foulkes estimate   =   -2247.68392540 Ry
     estimated scf accuracy    <       0.00000148 Ry

     iteration # 26     ecut=    40.00 Ry     beta=0.70
     Davidson diagonalization with overlap
     ethr =  6.18E-10,  avg # of iterations =  1.0

     negative rho (up, down):  0.158E+01 0.000E+00

     total cpu time spent up to now is     5673.7 secs

     End of self-consistent calculation
 --- enter write_ns ---
 LDA+U parameters:
U( 2)     =  4.00000000
alpha( 2) =  0.00000000
atom    3   Tr[ns(na)] =   8.74285
    eigenvalues: 
  0.701  0.709  0.984  0.987  0.990
    eigenvectors:
  0.178  0.000  0.777  0.000  0.045
  0.000  1.000  0.000  0.000  0.000
  0.003  0.000  0.066  0.000  0.931
  0.819  0.000  0.157  0.000  0.023
  0.000  0.000  0.000  1.000  0.000
    occupations:
  0.934 -0.000  0.005 -0.108  0.000
 -0.000  0.709  0.000  0.000 -0.001
  0.005  0.000  0.989  0.014 -0.000
 -0.108  0.000  0.014  0.752  0.000
  0.000 -0.001 -0.000  0.000  0.987
atom    4   Tr[ns(na)] =   8.71962
    eigenvalues: 
  0.691  0.714  0.982  0.986  0.987
    eigenvectors:
  0.000  0.987  0.008  0.002  0.003
  0.008  0.000  0.032  0.934  0.025
  0.000  0.004  0.792  0.008  0.196
  0.000  0.009  0.168  0.048  0.775
  0.992  0.000  0.000  0.008  0.000
    occupations:
  0.717 -0.005 -0.016  0.026 -0.001
 -0.005  0.983  0.000  0.000  0.026
 -0.016  0.000  0.982  0.003  0.000
  0.026  0.000  0.003  0.984  0.000
 -0.001  0.026  0.000  0.000  0.693
atom    9   Tr[ns(na)] =   8.70153
    eigenvalues: 
  0.717  0.723  0.961  0.963  0.987
    eigenvectors:
  0.001  0.142  0.000  0.000  0.857
  0.995  0.005  0.000  0.000  0.000
  0.000  0.000  0.000  1.000  0.000
  0.004  0.853  0.000  0.000  0.143
  0.000  0.000  1.000  0.000  0.000
    occupations:
  0.949  0.000 -0.001 -0.092  0.000
  0.000  0.717  0.000  0.000 -0.000
 -0.001  0.000  0.963 -0.001 -0.000
 -0.092  0.000 -0.001  0.761  0.000
  0.000 -0.000 -0.000  0.000  0.961
atom   10   Tr[ns(na)] =   8.77869
    eigenvalues: 
  0.658  0.790  0.969  0.986  0.986
    eigenvectors:
  0.000  0.979  0.000  0.018  0.002
  0.000  0.000  1.000  0.000  0.000
  0.000  0.000  0.000  0.083  0.917
  0.000  0.021  0.000  0.899  0.080
  1.000  0.000  0.000  0.000  0.000
    occupations:
  0.794  0.000  0.002  0.028  0.000
  0.000  0.969 -0.000  0.000 -0.001
  0.002 -0.000  0.986 -0.000 -0.000
  0.028  0.000 -0.000  0.982 -0.000
  0.000 -0.001 -0.000 -0.000  0.658
atom   16   Tr[ns(na)] =   8.74285
    eigenvalues: 
  0.701  0.709  0.984  0.987  0.990
    eigenvectors:
  0.178  0.000  0.777  0.000  0.045
  0.000  1.000  0.000  0.000  0.000
  0.003  0.000  0.066  0.000  0.931
  0.819  0.000  0.157  0.000  0.023
  0.000  0.000  0.000  1.000  0.000
    occupations:
  0.934 -0.000  0.005 -0.108  0.000
 -0.000  0.709  0.000  0.000 -0.001
  0.005  0.000  0.989  0.014 -0.000
 -0.108  0.000  0.014  0.752  0.000
  0.000 -0.001 -0.000  0.000  0.987
atom   17   Tr[ns(na)] =   8.71962
    eigenvalues: 
  0.691  0.714  0.982  0.986  0.987
    eigenvectors:
  0.000  0.987  0.008  0.002  0.003
  0.008  0.000  0.032  0.934  0.025
  0.000  0.004  0.792  0.008  0.196
  0.000  0.009  0.168  0.048  0.775
  0.992  0.000  0.000  0.008  0.000
    occupations:
  0.717 -0.005 -0.016  0.026 -0.001
 -0.005  0.983  0.000  0.000  0.026
 -0.016  0.000  0.982  0.003  0.000
  0.026  0.000  0.003  0.984  0.000
 -0.001  0.026  0.000  0.000  0.693
atom   22   Tr[ns(na)] =   8.70153
    eigenvalues: 
  0.717  0.723  0.961  0.963  0.987
    eigenvectors:
  0.001  0.142  0.000  0.000  0.857
  0.995  0.005  0.000  0.000  0.000
  0.000  0.000  0.000  1.000  0.000
  0.004  0.853  0.000  0.000  0.143
  0.000  0.000  1.000  0.000  0.000
    occupations:
  0.949  0.000 -0.001 -0.092  0.000
  0.000  0.717  0.000  0.000 -0.000
 -0.001  0.000  0.963 -0.001 -0.000
 -0.092  0.000 -0.001  0.761  0.000
  0.000 -0.000 -0.000  0.000  0.961
atom   23   Tr[ns(na)] =   8.77862
    eigenvalues: 
  0.658  0.790  0.969  0.986  0.986
    eigenvectors:
  0.000  0.979  0.000  0.018  0.002
  0.000  0.000  1.000  0.000  0.000
  0.000  0.000  0.000  0.083  0.917
  0.000  0.021  0.000  0.898  0.081
  1.000  0.000  0.000  0.000  0.000
    occupations:
  0.794  0.000  0.002  0.028  0.000
  0.000  0.969 -0.000  0.000 -0.001
  0.002 -0.000  0.986 -0.000 -0.000
  0.028  0.000 -0.000  0.982 -0.000
  0.000 -0.001 -0.000 -0.000  0.658
N of occupied +U levels =  69.8853153
 --- exit write_ns ---

          k = 0.0000 0.0000 0.0000 ( 32157 PWs)   bands (ev):

   -55.4097 -55.3528 -55.3347 -55.3239 -55.2822 -55.2797 -55.2791 -55.2681
   -55.1801 -55.1757 -55.0854 -55.0805 -55.0188 -55.0110 -55.0099 -55.0026
   -54.9969 -54.9944 -54.7712 -54.7143 -54.4163 -54.4101 -54.1377 -54.1340
   -22.1286 -21.8501 -21.4169 -21.3580 -20.6917 -20.5705 -20.5398 -20.4708
   -20.4389 -20.4155 -20.3443 -20.3185 -20.2007 -19.9356 -19.8087 -19.7797
   -19.1343 -18.8927 -11.2441 -11.0330 -10.8200 -10.1668  -9.9451  -9.8961
    -9.6030  -9.5110  -9.4447  -9.4179  -9.2955  -9.2641  -9.1402  -9.1089
    -9.1044  -8.9860  -8.7219  -8.5108  -8.4851  -8.4168  -7.9362  -7.9083
    -7.8125  -7.7239  -7.6291  -7.5401  -7.1801  -7.0376  -7.0301  -6.9653
    -6.6973  -6.6492  -6.3593  -6.3459  -6.1808  -6.1669  -6.1622  -6.0237
    -5.8839  -5.8525  -5.7944  -5.6988  -5.6789  -5.5827  -5.5411  -5.4488
    -5.4177  -5.3312  -5.2379  -5.1531  -5.1033  -5.0894  -5.0574  -5.0192
    -4.8855  -4.8307  -4.8198  -4.5346  -4.3657  -4.2826  -4.1279  -3.9578
    -3.7471  -3.6741  -3.3269  -3.2822  -3.1310  -3.0803  -3.0405  -2.7312
    -2.6054  -2.5612  -2.4604  -2.3402  -2.3205  -2.2139  -2.2092  -1.7712
    -1.5722  -1.5515  -0.6689  -0.5472  -0.5363  -0.4178  -0.1285  -0.0018
     0.0939   0.5169   0.8088   1.3048   1.3349   1.4612   1.5158   1.8659
     2.3363   3.1930   4.1037   4.5607   4.6248   5.4809   5.5343   5.7570
     5.7740   6.0830   6.3837   6.4879   6.5774   6.7917   6.9678   6.9911
     7.1048   7.1378   7.2496   7.3191   7.5745   7.5798   7.6526   7.6688
     7.7755   7.8133   7.8525   8.0085   8.0400   8.0660   8.0973   8.2640
     8.2985   8.4159   8.4525   8.5405   8.6512   8.8117   8.8865   8.9927
     9.0478   9.0830   9.3870   9.5180   9.5375   9.6128   9.7566   9.8573
     9.9048   9.9291  10.1148  10.1461  10.3058  10.4588  10.5996  10.6412
    10.7104  10.8012  10.8401  10.9394  10.9674  11.0294  11.0795  11.1172
    11.2606  11.3436  11.3909  11.3973  11.4138  11.4743  11.5436  11.6686
    11.8521  11.8528  11.8916  11.9977  12.0183  12.1297  12.1670  12.2249
    12.2726  12.3587  12.4155  12.4607  12.4859  12.6560  12.7777  12.9320
    12.9353  13.2200  13.2887  13.3446  13.3517  13.3999  13.5315  13.5640
    13.6753  13.7074  13.9797  13.9859  13.9957  14.1271  14.2251  14.3263
    14.4892  14.5226  14.6114  14.6345  14.7216  14.7242  14.7295  14.9628
    15.1482  15.2319  15.2491  15.3512  15.4769  15.5007  15.5320  15.6244
    15.7073  15.7782  15.8477  15.8581  15.9544  16.1692  16.3301  16.3629
    16.5097  16.5640  16.6338  16.7059  16.7583  16.7893  16.8941  16.9049
    16.9154  16.9778  17.0869  17.0912  17.0938  17.1159  17.1403  17.2569
    17.3761  17.3797  17.4043  17.6146  17.7299  17.7712  17.8148  17.8374
    17.9376  17.9637  18.0172  18.0615  18.0942  18.1435  18.1524  18.1783
    18.2190  18.4134  18.4888  18.5307  18.5690  18.5926  18.6256  18.8003
    18.8073  18.8639  18.9268  18.9682  19.0031  19.0214  19.0432  19.0930
    19.1015  19.1665  19.3253  19.3378  19.4948  19.5654  19.6303  19.6506
    19.7009  19.7210  19.7468  19.8625  19.9308  20.0091  20.0421  20.1318
    20.1433  20.1623  20.1704  20.3773  20.5153  20.5728  20.6485  20.7855
    20.8309  20.8564  20.8746  20.8916  21.0086  21.1100  21.1796  21.2533
    21.2584  21.3800  21.3943  21.4186  21.4316  21.5647  21.6239  21.6818
    21.7408  21.8007  21.8140  21.8282  21.8375  21.8750  21.9118  21.9221

          k = 0.0000 0.2488 0.0000 ( 32033 PWs)   bands (ev):

   -55.4094 -55.3528 -55.3344 -55.3239 -55.2825 -55.2795 -55.2789 -55.2683
   -55.1800 -55.1753 -55.0858 -55.0801 -55.0189 -55.0110 -55.0098 -55.0025
   -54.9976 -54.9940 -54.7710 -54.7143 -54.4167 -54.4094 -54.1378 -54.1340
   -22.1117 -21.8493 -21.3137 -21.2281 -20.7603 -20.7043 -20.6417 -20.4287
   -20.4241 -20.3629 -20.2640 -20.2198 -20.2178 -19.9777 -19.9402 -19.9349
   -19.1317 -18.8887 -10.8927 -10.7533 -10.5900 -10.4899  -9.9851  -9.9436
    -9.9039  -9.4924  -9.4580  -9.2686  -9.2575  -9.2139  -9.1323  -8.9772
    -8.9695  -8.9342  -8.6350  -8.4332  -8.1982  -8.0152  -7.9454  -7.8965
    -7.8618  -7.6436  -7.5689  -7.4863  -7.4578  -7.0856  -7.0587  -6.9661
    -6.8727  -6.8612  -6.8473  -6.7485  -6.5941  -6.5068  -6.2536  -6.2248
    -6.1726  -6.0075  -5.9671  -5.6987  -5.6077  -5.5350  -5.4854  -5.4312
    -5.3194  -5.2339  -5.1106  -5.1086  -5.0647  -4.9577  -4.8701  -4.7405
    -4.6623  -4.5447  -4.5074  -4.3937  -4.3928  -4.3245  -4.1707  -3.9715
    -3.8339  -3.7717  -3.6648  -3.6155  -3.4058  -3.2529  -3.0357  -2.7851
    -2.5813  -2.3985  -2.3843  -2.3043  -2.2926  -2.2674  -2.0112  -1.8336
    -1.5746  -1.4749  -1.3084  -0.9776  -0.5274  -0.3961  -0.1772   0.3713
     0.8078   1.0364   1.1388   1.2882   1.3480   1.3653   1.4334   1.8665
     2.6966   3.3730   4.3153   4.7447   4.8133   4.9453   5.4956   5.7159
     5.8007   5.9336   6.1526   6.1619   6.3827   6.5547   6.6082   6.8080
     7.0468   7.1342   7.1749   7.2957   7.3502   7.3936   7.4926   7.6074
     7.6903   7.8467   7.9065   8.0488   8.0958   8.1703   8.2477   8.2873
     8.4275   8.5356   8.6236   8.7231   8.8558   8.8766   9.0743   9.1435
     9.1670   9.3251   9.4466   9.4579   9.6853   9.7194   9.7800   9.8789
     9.9573   9.9691  10.0176  10.0356  10.1668  10.2961  10.3162  10.3408
    10.5171  10.5253  10.6659  10.7491  10.7890  10.9435  11.0271  11.0272
    11.2191  11.2925  11.3795  11.4799  11.5103  11.6531  11.7937  11.8625
    11.9263  12.1055  12.1603  12.1638  12.3176  12.3907  12.4006  12.4691
    12.5285  12.6098  12.6481  12.8098  13.0176  13.1247  13.1417  13.2225
    13.3334  13.3761  13.4736  13.5511  13.5922  13.6499  13.7155  13.7585
    13.8292  13.9534  14.0088  14.0742  14.1322  14.2880  14.2915  14.4322
    14.5588  14.5704  14.7489  14.8032  14.8439  14.8622  15.0286  15.0889
    15.0977  15.1913  15.2303  15.3855  15.4613  15.5170  15.5831  15.6151
    15.6619  15.8067  15.8426  15.8798  15.9222  15.9710  16.0600  16.0937
    16.1907  16.2611  16.2715  16.3608  16.5347  16.6435  16.6735  16.7285
    16.8132  16.8802  16.9053  16.9472  17.0169  17.0214  17.0317  17.0963
    17.1151  17.1156  17.1456  17.1780  17.2377  17.4148  17.5122  17.5744
    17.7031  17.7264  17.8601  17.8802  18.0217  18.0407  18.1039  18.1840
    18.2611  18.2741  18.2894  18.3857  18.4691  18.4917  18.5727  18.5943
    18.6088  18.7413  18.8315  18.8642  18.9062  18.9214  18.9675  18.9759
    19.0090  19.0938  19.1050  19.1189  19.2943  19.3151  19.3352  19.3835
    19.3869  19.4467  19.4479  19.6609  19.6658  19.6893  19.7453  19.7477
    19.8981  19.9151  20.0151  20.0786  20.2084  20.2318  20.3054  20.3194
    20.3256  20.4102  20.4148  20.4737  20.5232  20.6690  20.6984  20.7303
    20.8039  20.8236  20.8395  21.0102  21.0446  21.0605  21.1386  21.1876
    21.2343  21.2927  21.3192  21.3526  21.3895  21.4198  21.4798  21.5879

          k = 0.0000-0.4976 0.0000 ( 31948 PWs)   bands (ev):

   -55.4090 -55.3528 -55.3340 -55.3238 -55.2829 -55.2793 -55.2787 -55.2685
   -55.1800 -55.1748 -55.0863 -55.0797 -55.0190 -55.0109 -55.0096 -55.0024
   -54.9983 -54.9936 -54.7707 -54.7144 -54.4171 -54.4087 -54.1379 -54.1340
   -22.0963 -21.8485 -21.1803 -21.0178 -20.8551 -20.7558 -20.7076 -20.4598
   -20.4082 -20.3801 -20.2656 -20.1810 -20.1673 -20.1510 -20.0770 -19.9328
   -19.1291 -18.8864 -10.8222 -10.7099 -10.1926 -10.1761 -10.0579  -9.9996
    -9.9408  -9.4200  -9.3480  -9.2952  -9.1065  -9.0826  -9.0065  -8.9819
    -8.8572  -8.7869  -8.6367  -8.5601  -8.1155  -8.0861  -8.0830  -8.0674
    -8.0265  -7.7737  -7.4589  -7.4228  -7.3775  -7.3607  -7.2945  -7.2678
    -7.0604  -6.8016  -6.7347  -6.6954  -6.6121  -6.5995  -6.5563  -6.3085
    -6.1236  -6.0309  -6.0284  -5.9792  -5.5870  -5.5448  -5.5263  -5.4552
    -5.3189  -5.2970  -5.1888  -5.1286  -4.9724  -4.9648  -4.6752  -4.6696
    -4.5863  -4.5304  -4.5181  -4.3362  -4.2034  -4.0973  -4.0783  -4.0353
    -3.9779  -3.9138  -3.6592  -3.4926  -3.4807  -3.3367  -3.0517  -2.8182
    -2.5883  -2.5211  -2.4638  -2.4314  -2.4154  -2.3324  -1.9443  -1.7857
    -1.5927  -1.4692  -1.4220  -1.3403  -0.5152  -0.3767   0.3301   0.6809
     0.8014   0.9336   1.1012   1.2923   1.4222   1.5336   1.8170   1.8669
     3.5112   3.7204   4.0154   4.6654   4.8984   5.0866   5.2868   5.4060
     5.5393   5.6361   6.1054   6.1804   6.2132   6.2638   6.4370   6.5456
     6.8682   7.0180   7.2363   7.3156   7.4214   7.5386   7.5675   7.6509
     7.6860   7.7881   7.9536   8.0610   8.2210   8.4393   8.4723   8.5887
     8.5910   8.6380   8.6977   8.7531   8.7939   8.8366   8.8542   8.9775
     8.9884   9.0074   9.0260   9.3167   9.3674   9.4363   9.4731   9.6797
     9.7737   9.8295   9.8508   9.8855   9.9573  10.6053  10.6398  10.6949
    10.7466  10.8275  10.9301  11.0301  11.1567  11.2472  11.2562  11.3368
    11.3851  11.4399  11.5579  11.5910  11.8172  11.9921  12.0500  12.0735
    12.1210  12.1856  12.2115  12.3321  12.4385  12.5209  12.5294  12.6520
    12.6736  12.7743  12.8324  12.8717  12.8749  13.0507  13.0953  13.1277
    13.2138  13.2340  13.4762  13.4926  13.5306  13.6512  13.8196  13.8851
    13.9451  14.1927  14.2095  14.2273  14.2525  14.5000  14.5601  14.6459
    14.8917  14.9163  14.9274  15.0073  15.0323  15.0740  15.1450  15.3242
    15.3469  15.3787  15.4295  15.6611  15.6628  15.6774  15.7027  15.7143
    15.7183  15.7706  15.8326  15.8734  15.8849  15.9765  16.1128  16.1295
    16.2011  16.2039  16.2552  16.2609  16.3797  16.3973  16.4498  16.5813
    16.6308  16.6481  16.6934  16.7365  16.8811  16.9069  16.9511  17.0407
    17.0446  17.0690  17.1124  17.1272  17.1327  17.1457  17.2168  17.2466
    17.3193  17.3431  17.4042  17.5508  17.5966  17.7017  17.7077  17.7659
    17.8166  17.8431  17.8981  18.0125  18.0131  18.0378  18.1265  18.1604
    18.2178  18.2584  18.4097  18.5174  18.5805  18.6376  18.7125  18.7833
    18.7866  18.8551  18.8915  18.9929  19.0815  19.1646  19.1932  19.2584
    19.2813  19.4365  19.4532  19.4871  19.5780  19.6065  19.6183  19.7517
    19.7548  19.8079  19.8761  19.8784  19.9418  19.9678  19.9942  20.1121
    20.1150  20.1360  20.1705  20.2446  20.3154  20.3739  20.4087  20.4929
    20.5031  20.5550  20.5950  20.6525  20.7134  20.7486  20.7564  20.8624
    20.9615  20.9706  20.9771  21.0928  21.1227  21.2315  21.3416  21.3503

          k = 0.2500 0.0000 0.0000 ( 32013 PWs)   bands (ev):

   -55.4027 -55.3624 -55.3281 -55.3168 -55.2891 -55.2819 -55.2797 -55.2774
   -55.1797 -55.1765 -55.0848 -55.0813 -55.0177 -55.0122 -55.0090 -55.0039
   -54.9965 -54.9947 -54.7642 -54.7240 -54.4155 -54.4111 -54.1373 -54.1347
   -22.0548 -21.8545 -21.3034 -21.2399 -20.7304 -20.6592 -20.5963 -20.4433
   -20.4401 -20.3824 -20.3482 -20.2451 -20.1753 -19.9503 -19.9023 -19.8646
   -19.1841 -18.9905 -11.0098 -10.8010 -10.6125 -10.1454  -9.8286  -9.6885
    -9.5988  -9.5547  -9.5412  -9.3963  -9.3409  -9.1503  -9.1187  -9.0706
    -8.9677  -8.8362  -8.7492  -8.6821  -8.3879  -8.2590  -8.2175  -8.0260
    -7.9153  -7.7543  -7.5015  -7.4508  -7.3725  -7.2205  -7.1058  -7.0686
    -6.9825  -6.8654  -6.5738  -6.5720  -6.4465  -6.3541  -6.3258  -6.2600
    -6.2370  -6.1440  -6.1191  -6.0521  -5.9615  -5.7447  -5.6249  -5.4718
    -5.3983  -5.2648  -5.1875  -5.0290  -4.9247  -4.8653  -4.8595  -4.8398
    -4.6410  -4.6111  -4.3916  -4.3766  -4.1197  -4.0795  -3.8179  -3.7061
    -3.6465  -3.5416  -3.5315  -3.0088  -2.9444  -2.9271  -2.8759  -2.7597
    -2.7065  -2.6904  -2.5836  -2.3806  -2.2787  -2.2484  -1.9987  -1.7452
    -1.7444  -1.6492  -0.4998  -0.4325  -0.3589  -0.2763   0.0527   0.0647
     0.0756   0.5103   0.5211   0.9792   1.1688   1.2056   1.2923   1.6205
     2.7425   3.5093   4.3313   4.7796   4.8582   4.8837   5.4124   5.6966
     5.7361   6.0128   6.0400   6.3760   6.5109   6.5977   6.7956   6.8245
     7.0348   7.1329   7.1677   7.2325   7.3873   7.5137   7.5190   7.8190
     7.8369   7.8984   7.9805   8.0059   8.2042   8.2692   8.3019   8.4729
     8.4734   8.5009   8.6508   8.6801   8.8217   8.8575   9.0394   9.2023
     9.2284   9.3880   9.5239   9.5692   9.6899   9.7486   9.7551   9.8640
     9.8957  10.0001  10.0510  10.1001  10.1170  10.1910  10.2866  10.3108
    10.5625  10.6216  10.6904  10.7154  10.7428  10.7914  10.9553  10.9908
    11.0928  11.1565  11.2580  11.3116  11.4100  11.4243  11.6016  11.7202
    12.0155  12.0168  12.0979  12.1404  12.2424  12.2707  12.4254  12.4975
    12.5783  12.7416  12.8579  12.9041  13.0253  13.0796  13.1800  13.2952
    13.3221  13.4574  13.5192  13.5414  13.6295  13.6535  13.6679  13.7266
    13.7281  13.7990  13.8385  13.9264  13.9771  14.0480  14.1289  14.2119
    14.3172  14.3725  14.4393  14.5948  14.6487  14.8022  14.8260  14.9610
    15.0139  15.0851  15.1859  15.2743  15.2872  15.4650  15.4794  15.5649
    15.6607  15.6794  15.7581  15.8861  15.9332  16.0510  16.0870  16.1452
    16.2540  16.3757  16.3758  16.5414  16.5578  16.7702  16.7790  16.8619
    16.8679  16.9113  16.9861  17.0217  17.0231  17.0850  17.0913  17.1194
    17.1232  17.1543  17.2631  17.3792  17.5259  17.5567  17.6602  17.7118
    17.8333  17.8568  17.8895  17.9650  18.0039  18.0367  18.1215  18.1726
    18.3367  18.4026  18.5008  18.5288  18.5439  18.6609  18.6895  18.7033
    18.7691  18.8324  18.8625  18.9243  18.9267  18.9577  19.0036  19.0288
    19.0600  19.1212  19.1529  19.2585  19.2592  19.3036  19.3190  19.3935
    19.4813  19.5667  19.5690  19.6197  19.6684  19.6815  19.7375  19.8036
    19.8933  19.9099  20.0080  20.0503  20.1329  20.1889  20.2126  20.2991
    20.3567  20.4578  20.4903  20.5085  20.5966  20.6506  20.6629  20.7160
    20.8066  20.8836  20.9081  20.9123  20.9851  21.0158  21.0307  21.1776
    21.1954  21.2459  21.2942  21.3314  21.5357  21.5538  21.5782  21.6092

          k = 0.2500 0.2488 0.0000 ( 32025 PWs)   bands (ev):

   -55.4024 -55.3624 -55.3277 -55.3169 -55.2889 -55.2822 -55.2796 -55.2776
   -55.1795 -55.1761 -55.0851 -55.0810 -55.0178 -55.0122 -55.0088 -55.0037
   -54.9971 -54.9946 -54.7640 -54.7240 -54.4157 -54.4105 -54.1374 -54.1347
   -22.0426 -21.8535 -21.1997 -21.1104 -20.7569 -20.6569 -20.6072 -20.4588
   -20.4512 -20.4115 -20.2762 -20.2579 -20.2082 -20.0548 -20.0039 -19.9526
   -19.1825 -18.9871 -10.6874 -10.5196 -10.3739 -10.3235  -9.8297  -9.7902
    -9.6813  -9.4442  -9.4414  -9.3437  -9.3311  -9.0849  -9.0250  -9.0073
    -8.9048  -8.8291  -8.7757  -8.4930  -8.3140  -8.1798  -8.0827  -8.0690
    -7.8219  -7.7509  -7.5898  -7.4895  -7.4040  -7.2863  -7.2204  -7.1937
    -7.1883  -7.0137  -6.9530  -6.8279  -6.7231  -6.6138  -6.5650  -6.5250
    -6.3993  -6.1827  -6.1590  -5.9881  -5.8203  -5.7060  -5.5840  -5.5827
    -5.4064  -5.2370  -5.1926  -4.9721  -4.9599  -4.8588  -4.8567  -4.5287
    -4.4024  -4.3961  -4.2761  -4.1855  -4.0513  -3.9442  -3.8930  -3.7337
    -3.5873  -3.5377  -3.5178  -3.4469  -3.1969  -3.1806  -2.7815  -2.7488
    -2.6648  -2.5955  -2.4581  -2.3780  -2.3684  -2.3009  -1.9195  -1.8245
    -1.7879  -1.4542  -1.0792  -0.6971  -0.3669  -0.3143  -0.1190   0.2848
     0.5280   0.7361   0.8753   0.9969   1.2372   1.2461   1.4075   1.6021
     3.0870   3.6873   4.5469   4.9690   5.0492   5.0706   5.1752   5.4926
     5.7148   5.9559   6.0562   6.2411   6.3914   6.5408   6.6215   6.6451
     6.7610   6.8132   7.0275   7.1272   7.2707   7.3785   7.4483   7.5368
     7.5697   7.7333   7.8396   7.9567   8.1270   8.1753   8.2270   8.3513
     8.3601   8.4882   8.5482   8.6382   8.7657   8.8376   9.0262   9.1332
     9.3018   9.3360   9.4606   9.5906   9.6439   9.7875   9.8936   9.9601
    10.0535  10.1411  10.2021  10.2178  10.4181  10.5306  10.5555  10.6354
    10.6653  10.8161  10.8367  10.9489  11.1482  11.2318  11.3260  11.3794
    11.4323  11.5429  11.6444  11.7284  11.7893  11.8016  11.8835  11.9211
    11.9911  12.1486  12.2015  12.2122  12.3397  12.3556  12.4021  12.5121
    12.5720  12.6081  12.7261  12.7506  12.8252  12.8999  13.0345  13.1160
    13.1605  13.3121  13.4117  13.4983  13.6178  13.6264  13.7258  13.8085
    13.8105  13.9608  13.9891  14.0326  14.1256  14.3713  14.3783  14.4165
    14.4852  14.6065  14.6495  14.7105  14.8033  14.9776  15.0759  15.1850
    15.2401  15.2666  15.3328  15.3500  15.4335  15.5271  15.5604  15.6146
    15.6163  15.6749  15.7644  15.8101  15.8761  15.9504  16.0027  16.0229
    16.1420  16.1945  16.2068  16.3186  16.4294  16.4754  16.6203  16.6896
    16.7523  16.8602  16.9042  16.9177  16.9414  16.9686  17.0342  17.0387
    17.0551  17.0919  17.1061  17.1495  17.1542  17.1848  17.2550  17.2645
    17.3295  17.4062  17.4379  17.4554  17.4559  17.5782  17.6828  17.7691
    17.8261  17.8806  17.8831  17.9219  18.0074  18.0701  18.0737  18.1591
    18.2051  18.3402  18.3910  18.4047  18.4625  18.5106  18.6911  18.6942
    18.7370  18.8219  18.9244  18.9947  19.0090  19.1292  19.1390  19.3054
    19.3107  19.4324  19.4371  19.5173  19.5697  19.7496  19.8122  19.8872
    19.9178  19.9791  20.0259  20.0340  20.0859  20.0884  20.1925  20.2570
    20.3456  20.3460  20.4316  20.4588  20.6034  20.7132  20.7751  20.8390
    20.8490  20.9312  20.9673  21.0341  21.0579  21.1737  21.2183  21.2503
    21.3464  21.4543  21.4580  21.5404  21.5631  21.6196  21.7164  21.7767

          k = 0.2500-0.4976 0.0000 ( 32026 PWs)   bands (ev):

   -55.4021 -55.3624 -55.3273 -55.3170 -55.2886 -55.2824 -55.2795 -55.2779
   -55.1794 -55.1757 -55.0855 -55.0808 -55.0179 -55.0122 -55.0086 -55.0036
   -54.9977 -54.9944 -54.7638 -54.7240 -54.4159 -54.4100 -54.1375 -54.1347
   -22.0313 -21.8525 -21.0538 -20.8958 -20.7869 -20.6556 -20.6490 -20.5109
   -20.4545 -20.4246 -20.2827 -20.2808 -20.2524 -20.2355 -20.0927 -19.9514
   -19.1808 -18.9850 -10.6127 -10.4602  -9.9462  -9.8890  -9.8661  -9.8330
    -9.7517  -9.4106  -9.3244  -9.2464  -9.0593  -9.0190  -8.9513  -8.9149
    -8.8982  -8.7301  -8.6585  -8.5496  -8.4817  -8.2664  -8.0685  -7.9885
    -7.9749  -7.8214  -7.7716  -7.7159  -7.6323  -7.5607  -7.4330  -7.4180
    -7.1894  -7.0708  -6.9079  -6.8563  -6.8405  -6.7435  -6.6467  -6.5927
    -6.4766  -6.3897  -6.1699  -6.0629  -5.7500  -5.7132  -5.6773  -5.5554
    -5.4828  -5.3034  -5.1424  -5.1357  -4.7249  -4.7060  -4.6571  -4.5555
    -4.4322  -4.2363  -4.1709  -4.0420  -3.9674  -3.9087  -3.7946  -3.7415
    -3.6811  -3.5633  -3.5151  -3.3509  -3.2230  -3.1214  -3.0789  -2.6903
    -2.6137  -2.5564  -2.5336  -2.5233  -2.4686  -2.2847  -2.0447  -1.8189
    -1.6737  -1.3820  -1.3297  -1.1235  -0.3507  -0.3070   0.1997   0.3584
     0.4596   0.6229   0.9313   1.2607   1.2764   1.4050   1.5650   1.7386
     3.7988   3.9988   4.3109   4.9890   5.1583   5.3271   5.3960   5.5337
     5.6059   5.6413   5.7818   5.8975   6.0500   6.4210   6.4483   6.7087
     6.7254   6.7944   6.8691   7.0951   7.2043   7.3319   7.4412   7.4560
     7.5832   7.6053   7.7733   7.8157   7.8985   7.9152   8.0180   8.1670
     8.2880   8.3932   8.4193   8.6952   8.7097   8.8289   8.8477   9.0527
     9.0847   9.2171   9.3065   9.5159   9.5892   9.7898   9.9381   9.9862
    10.0978  10.4237  10.5974  10.6952  10.7670  10.8110  11.0160  11.0559
    11.1115  11.1124  11.2358  11.2762  11.2806  11.3762  11.4878  11.5358
    11.6125  11.6597  11.6983  11.8876  11.9279  12.0304  12.0574  12.1020
    12.2348  12.3508  12.3662  12.4212  12.4376  12.6020  12.7658  12.7926
    12.7953  12.9004  12.9077  12.9896  13.0296  13.1235  13.1710  13.2611
    13.2907  13.4869  13.5362  13.6178  13.6775  13.6809  13.7870  13.8537
    13.9003  13.9489  14.0405  14.0960  14.1280  14.2161  14.2581  14.3331
    14.4123  14.5216  14.5526  14.5592  14.6454  14.6915  14.7337  14.8422
    14.8819  14.9181  15.0859  15.1514  15.2927  15.3109  15.3708  15.5097
    15.5931  15.6362  15.6942  15.7305  15.7320  15.9080  15.9557  16.0403
    16.0555  16.1152  16.1984  16.2796  16.2949  16.3523  16.3971  16.4284
    16.5338  16.5851  16.6305  16.6343  16.6896  16.8108  16.8637  16.9056
    16.9369  17.0295  17.0498  17.0501  17.0809  17.1032  17.1131  17.1502
    17.1891  17.2377  17.2412  17.3477  17.4082  17.5038  17.5579  17.6491
    17.7191  17.7420  17.7869  17.8877  17.9155  17.9699  18.0866  18.0911
    18.1368  18.1542  18.2527  18.2633  18.2867  18.3754  18.3943  18.4083
    18.6050  18.6418  18.6484  18.8167  18.8688  18.8919  18.9367  19.0811
    19.0837  19.1656  19.2594  19.2678  19.2935  19.3782  19.3855  19.4812
    19.5025  19.5631  19.6838  19.8623  19.9295  19.9943  20.0463  20.2003
    20.2030  20.3359  20.3513  20.3943  20.4682  20.4848  20.5877  20.6392
    20.6622  20.7748  20.8706  20.8770  20.9901  21.0005  21.1225  21.1623
    21.1716  21.2383  21.4706  21.4797  21.5496  21.5869  21.6478  21.7157

          k =-0.5000 0.0000 0.0000 ( 31984 PWs)   bands (ev):

   -55.3838 -55.3838 -55.3100 -55.3100 -55.2982 -55.2982 -55.2809 -55.2809
   -55.1783 -55.1783 -55.0831 -55.0831 -55.0151 -55.0151 -55.0066 -55.0066
   -54.9956 -54.9956 -54.7456 -54.7454 -54.4134 -54.4133 -54.1362 -54.1360
   -21.9184 -21.9183 -21.0295 -21.0295 -20.9511 -20.9511 -20.4719 -20.4719
   -20.4160 -20.4159 -20.1928 -20.1928 -20.0621 -20.0621 -20.0122 -20.0122
   -19.1629 -19.1629 -10.4067 -10.4067 -10.1991 -10.1990 -10.1603 -10.1603
    -9.5305  -9.5305  -9.4070  -9.4070  -9.2076  -9.2076  -9.1252  -9.1252
    -8.7904  -8.7904  -8.6935  -8.6935  -8.2490  -8.2489  -7.8752  -7.8752
    -7.7992  -7.7992  -7.6731  -7.6731  -7.4831  -7.4831  -7.3457  -7.3457
    -7.1632  -7.1632  -6.7836  -6.7836  -6.6203  -6.6203  -6.5050  -6.5050
    -6.4205  -6.4205  -6.2201  -6.2200  -6.1120  -6.1120  -5.5020  -5.5019
    -5.2666  -5.2665  -5.0393  -5.0393  -4.8751  -4.8751  -4.5200  -4.5199
    -4.4826  -4.4826  -4.1679  -4.1679  -3.9994  -3.9994  -3.5805  -3.5804
    -3.4786  -3.4786  -3.2552  -3.2552  -2.7937  -2.7937  -2.7319  -2.7319
    -2.6723  -2.6723  -2.5433  -2.5433  -2.1878  -2.1878  -2.0434  -2.0434
    -1.6658  -1.6657  -0.2643  -0.2643  -0.1387  -0.1387   0.2572   0.2572
     0.3509   0.3509   0.4630   0.4630   0.5696   0.5697   1.3956   1.3957
     3.7220   3.7220   4.3321   4.3321   4.9974   4.9974   5.4126   5.4126
     5.5117   5.5117   6.2249   6.2249   6.3159   6.3159   6.6064   6.6064
     7.0197   7.0197   7.4086   7.4086   7.6030   7.6030   7.6890   7.6890
     8.0103   8.0103   8.2626   8.2626   8.4135   8.4136   8.4941   8.4941
     8.6114   8.6114   8.7887   8.7887   8.8899   8.8899   9.0528   9.0528
     9.0985   9.0985   9.2578   9.2578   9.3673   9.3673   9.4694   9.4694
     9.7573   9.7573   9.9894   9.9894  10.1713  10.1713  10.5994  10.5994
    10.6740  10.6741  10.7581  10.7581  11.1377  11.1377  11.3740  11.3740
    11.4999  11.4999  11.5662  11.5662  11.6571  11.6571  11.8555  11.8555
    11.9603  11.9603  12.2276  12.2276  12.4167  12.4167  12.5341  12.5341
    12.6570  12.6570  12.7819  12.7819  12.9123  12.9123  13.0076  13.0076
    13.0955  13.0956  13.2478  13.2478  13.4721  13.4721  13.5967  13.5968
    13.7867  13.7867  13.8965  13.8965  14.2082  14.2082  14.3287  14.3287
    14.4829  14.4829  14.6218  14.6218  14.9342  14.9342  15.1232  15.1233
    15.4747  15.4747  15.5868  15.5868  15.6696  15.6696  15.7069  15.7069
    15.7955  15.7955  15.9789  15.9789  16.0634  16.0634  16.1321  16.1321
    16.2111  16.2111  16.2883  16.2883  16.4920  16.4920  16.5952  16.5952
    16.7163  16.7163  16.8639  16.8639  16.9151  16.9151  17.0677  17.0677
    17.0863  17.0864  17.1162  17.1162  17.1840  17.1840  17.3385  17.3385
    17.5630  17.5630  17.6703  17.6703  17.8412  17.8413  17.9107  17.9107
    17.9760  17.9760  18.1707  18.1707  18.2297  18.2297  18.4039  18.4039
    18.5527  18.5527  18.6531  18.6531  18.7415  18.7415  18.8135  18.8135
    18.9307  18.9307  19.0854  19.0854  19.1876  19.1876  19.3582  19.3583
    19.3789  19.3789  19.4583  19.4583  19.5208  19.5208  19.6199  19.6199
    19.8041  19.8041  19.9003  19.9003  19.9455  19.9455  20.0083  20.0083
    20.1280  20.1280  20.2529  20.2529  20.4479  20.4479  20.4958  20.4959
    20.5203  20.5203  20.5532  20.5532  20.7874  20.7874  20.8867  20.8867
    20.9598  20.9598  21.1110  21.1110  21.2250  21.2250  21.4587  21.4587

          k =-0.5000 0.2488 0.0000 ( 32052 PWs)   bands (ev):

   -55.3837 -55.3837 -55.3097 -55.3097 -55.2985 -55.2985 -55.2810 -55.2810
   -55.1780 -55.1780 -55.0832 -55.0831 -55.0151 -55.0151 -55.0064 -55.0064
   -54.9959 -54.9958 -54.7455 -54.7453 -54.4132 -54.4131 -54.1362 -54.1361
   -21.9143 -21.9142 -20.9377 -20.9365 -20.8403 -20.8402 -20.5090 -20.5024
   -20.4200 -20.4165 -20.2764 -20.2619 -20.2033 -20.2026 -20.0256 -20.0208
   -19.1610 -19.1610 -10.2509 -10.2493  -9.9846  -9.9796  -9.8187  -9.8184
    -9.5568  -9.5399  -9.3910  -9.3817  -9.2055  -9.2005  -9.1148  -9.1044
    -8.8838  -8.8543  -8.6170  -8.5732  -8.3471  -8.3393  -8.1098  -8.0584
    -7.8498  -7.8210  -7.7879  -7.7577  -7.4769  -7.4327  -7.3603  -7.3150
    -7.1860  -7.1393  -7.0412  -7.0167  -6.8381  -6.8272  -6.7147  -6.7134
    -6.4703  -6.4233  -6.2949  -6.2441  -5.9457  -5.9027  -5.7375  -5.7358
    -5.4242  -5.3184  -5.1564  -5.1110  -5.0314  -4.9793  -4.3104  -4.2815
    -4.1626  -4.0885  -4.0152  -3.9901  -3.8137  -3.8120  -3.6728  -3.6615
    -3.4449  -3.3931  -3.2216  -3.2025  -2.9537  -2.9173  -2.8332  -2.8248
    -2.6669  -2.6668  -2.5081  -2.4773  -2.2884  -2.2883  -2.1751  -2.1719
    -1.5243  -1.5233  -0.4386  -0.4291  -0.2038  -0.2031   0.0133   0.0136
     0.2325   0.2331   0.6378   0.6415   1.0135   1.0149   1.4729   1.4743
     3.9849   3.9934   4.4739   4.4753   5.2156   5.2183   5.6050   5.6074
     5.6948   5.7033   5.7914   5.8277   6.2946   6.3058   6.5611   6.5729
     6.7321   6.7328   7.0584   7.0708   7.2859   7.2972   7.4791   7.5006
     7.5862   7.5995   7.8296   7.8411   8.0275   8.0691   8.1221   8.1252
     8.3983   8.4004   8.6552   8.6872   8.8588   8.8739   9.0341   9.0488
     9.2944   9.3020   9.4181   9.4394   9.6947   9.6987  10.0086  10.0229
    10.2359  10.2624  10.5129  10.5356  10.7247  10.7312  10.8221  10.8292
    10.8761  10.8828  11.1400  11.1529  11.2254  11.2334  11.5311  11.5635
    11.7219  11.7226  11.7782  11.8436  12.0053  12.0439  12.0670  12.0805
    12.2324  12.2449  12.4625  12.4680  12.5030  12.5426  12.6366  12.6596
    12.8227  12.8292  12.9177  12.9317  13.0475  13.0722  13.1173  13.1381
    13.1962  13.2149  13.4086  13.4095  13.4815  13.5045  13.6940  13.6977
    13.9283  13.9578  14.0248  14.0252  14.1449  14.1450  14.1807  14.2305
    14.2998  14.3378  14.4407  14.4465  14.5731  14.5839  14.7110  14.7282
    14.8035  14.8050  15.0472  15.0847  15.2762  15.3104  15.5099  15.5146
    15.6779  15.6908  15.7580  15.7657  15.9100  15.9219  15.9697  15.9806
    16.1311  16.1331  16.2009  16.2292  16.3526  16.3806  16.4972  16.5051
    16.5763  16.5823  16.6471  16.6477  16.7658  16.8295  16.9030  16.9192
    17.0211  17.0326  17.0729  17.0813  17.1062  17.1104  17.1347  17.1660
    17.3473  17.3527  17.3851  17.3926  17.4912  17.5344  17.5844  17.6062
    17.8420  17.8526  17.9449  17.9507  17.9853  17.9856  18.0304  18.0511
    18.1108  18.1283  18.2179  18.2473  18.3699  18.3726  18.5156  18.5832
    18.6696  18.6722  18.7665  18.8143  18.8366  18.8783  19.0761  19.0887
    19.2146  19.2322  19.2776  19.2829  19.4539  19.4852  19.5442  19.5864
    19.6795  19.6903  19.7333  19.7755  19.8937  19.9644  20.0050  20.0116
    20.2193  20.2280  20.3256  20.3648  20.4832  20.5113  20.6272  20.6801
    20.8218  20.8702  20.9419  20.9726  21.1315  21.1650  21.2004  21.2094
    21.3670  21.3879  21.5510  21.5550  21.6478  21.6699  21.7543  21.7599

          k =-0.5000-0.4976 0.0000 ( 31956 PWs)   bands (ev):

   -55.3835 -55.3835 -55.3093 -55.3093 -55.2987 -55.2987 -55.2811 -55.2811
   -55.1777 -55.1777 -55.0832 -55.0832 -55.0152 -55.0152 -55.0062 -55.0062
   -54.9961 -54.9961 -54.7453 -54.7452 -54.4131 -54.4129 -54.1363 -54.1361
   -21.9103 -21.9103 -20.7515 -20.7515 -20.6516 -20.6516 -20.5870 -20.5870
   -20.5197 -20.5197 -20.3933 -20.3932 -20.3216 -20.3216 -20.0315 -20.0315
   -19.1594 -19.1594 -10.2146 -10.2146  -9.6343  -9.6343  -9.3902  -9.3902
    -9.3377  -9.3377  -9.2351  -9.2350  -9.1311  -9.1311  -9.0156  -9.0156
    -8.9119  -8.9119  -8.8363  -8.8363  -8.7572  -8.7572  -8.1231  -8.1231
    -7.8990  -7.8990  -7.8015  -7.8015  -7.6827  -7.6827  -7.4361  -7.4361
    -7.2962  -7.2962  -7.1964  -7.1964  -7.0033  -7.0033  -6.8204  -6.8204
    -6.4789  -6.4789  -6.1502  -6.1502  -5.9042  -5.9042  -5.7306  -5.7306
    -5.6272  -5.6271  -5.1537  -5.1537  -4.9550  -4.9549  -4.1093  -4.1092
    -4.0151  -4.0151  -3.8390  -3.8390  -3.6386  -3.6386  -3.5572  -3.5572
    -3.4467  -3.4467  -3.2521  -3.2520  -2.9548  -2.9547  -2.9047  -2.9047
    -2.6993  -2.6992  -2.4382  -2.4382  -2.3600  -2.3600  -2.2686  -2.2686
    -1.4282  -1.4281  -0.7556  -0.7556  -0.3796  -0.3796  -0.0942  -0.0942
     0.2720   0.2720   0.9670   0.9670   1.1247   1.1247   1.5925   1.5925
     4.4887   4.4887   4.6972   4.6972   5.0423   5.0423   5.7595   5.7595
     5.8608   5.8608   6.0175   6.0175   6.1991   6.1991   6.3118   6.3118
     6.4573   6.4573   6.5994   6.5994   7.0623   7.0623   7.0742   7.0742
     7.3877   7.3877   7.4618   7.4618   7.9137   7.9137   8.2284   8.2284
     8.3089   8.3089   8.4934   8.4934   8.8848   8.8848   9.1740   9.1740
     9.2860   9.2860   9.5070   9.5070   9.6674   9.6674  10.0150  10.0150
    10.3247  10.3247  10.6922  10.6922  10.8538  10.8538  11.1886  11.1886
    11.3951  11.3951  11.7228  11.7228  11.8973  11.8974  11.9326  11.9327
    12.0415  12.0415  12.3523  12.3523  12.4808  12.4808  12.5332  12.5332
    12.6939  12.6939  12.7574  12.7574  12.8455  12.8456  13.0452  13.0452
    13.1504  13.1504  13.1911  13.1911  13.2263  13.2263  13.3620  13.3621
    13.4324  13.4324  13.5056  13.5056  13.5713  13.5713  13.6667  13.6667
    13.6893  13.6893  13.7606  13.7607  13.8843  13.8843  13.9393  13.9393
    14.1903  14.1903  14.2673  14.2673  14.4875  14.4875  14.6462  14.6462
    14.6906  14.6906  14.7607  14.7607  14.8161  14.8161  14.9723  14.9723
    15.0768  15.0768  15.1258  15.1258  15.2978  15.2978  15.3271  15.3271
    15.4167  15.4167  15.5541  15.5541  15.7606  15.7606  16.0509  16.0509
    16.2935  16.2935  16.3914  16.3914  16.4788  16.4788  16.5659  16.5659
    16.8714  16.8714  16.8906  16.8906  16.9852  16.9852  17.0960  17.0960
    17.1132  17.1133  17.2147  17.2147  17.4174  17.4174  17.6505  17.6505
    17.7292  17.7292  17.7523  17.7523  17.9511  17.9511  17.9742  17.9742
    18.1634  18.1634  18.3777  18.3777  18.5275  18.5275  18.6018  18.6018
    18.9124  18.9124  19.0172  19.0172  19.1489  19.1489  19.2357  19.2357
    19.4885  19.4885  19.6911  19.6911  19.8415  19.8415  19.9632  19.9632
    20.0652  20.0652  20.0847  20.0847  20.2672  20.2672  20.3963  20.3963
    20.4466  20.4466  20.4774  20.4774  20.5747  20.5747  20.7605  20.7605
    20.9137  20.9137  20.9384  20.9384  20.9818  20.9818  21.0903  21.0903
    21.1932  21.1932  21.2786  21.2786  21.3570  21.3570  21.4683  21.4683

          k =-0.2500 0.2488 0.0000 ( 32025 PWs)   bands (ev):

   -55.4024 -55.3624 -55.3277 -55.3169 -55.2889 -55.2822 -55.2796 -55.2776
   -55.1795 -55.1761 -55.0851 -55.0810 -55.0178 -55.0122 -55.0088 -55.0037
   -54.9971 -54.9945 -54.7640 -54.7240 -54.4157 -54.4105 -54.1374 -54.1347
   -22.0426 -21.8535 -21.1994 -21.1103 -20.7596 -20.6560 -20.6094 -20.4511
   -20.4450 -20.4140 -20.2865 -20.2605 -20.2044 -20.0556 -20.0053 -19.9493
   -19.1825 -18.9872 -10.6860 -10.5206 -10.3739 -10.3219  -9.8308  -9.8056
    -9.6814  -9.4493  -9.3972  -9.3426  -9.3319  -9.0885  -9.0364  -9.0131
    -8.9551  -8.8155  -8.7500  -8.4988  -8.2980  -8.1954  -8.0648  -8.0609
    -7.8088  -7.6792  -7.6481  -7.5220  -7.4767  -7.2793  -7.2647  -7.1793
    -7.0978  -7.0713  -6.8178  -6.7987  -6.7405  -6.6649  -6.5777  -6.5447
    -6.3848  -6.2227  -6.1479  -6.0043  -5.8614  -5.7440  -5.5863  -5.4436
    -5.3435  -5.3003  -5.2369  -4.9921  -4.9811  -4.8799  -4.7454  -4.5611
    -4.4126  -4.3808  -4.2824  -4.2252  -3.9896  -3.9465  -3.8698  -3.7273
    -3.6033  -3.5846  -3.5441  -3.4421  -3.1934  -3.1506  -2.8376  -2.7022
    -2.6640  -2.5965  -2.4528  -2.4018  -2.3707  -2.2665  -1.9179  -1.8263
    -1.7880  -1.4559  -1.0890  -0.6967  -0.3683  -0.3143  -0.1165   0.2847
     0.5273   0.7343   0.8793   0.9984   1.2356   1.2469   1.4062   1.6023
     3.0861   3.6859   4.5480   4.9699   5.0494   5.0900   5.1980   5.4931
     5.7183   5.9494   6.0581   6.2241   6.3963   6.5091   6.5852   6.6396
     6.7668   6.8217   7.0252   7.0960   7.2643   7.4010   7.4430   7.5299
     7.6049   7.7407   7.8180   7.9853   8.1138   8.1859   8.2588   8.3174
     8.3604   8.4834   8.5408   8.6363   8.7627   8.8706   9.0289   9.1476
     9.3014   9.3379   9.4515   9.5746   9.6484   9.7635   9.8901   9.9439
    10.0889  10.1426  10.2028  10.2206  10.4207  10.5087  10.5293  10.6338
    10.6632  10.8235  10.8405  10.9712  11.1495  11.2455  11.3444  11.3858
    11.4233  11.5454  11.6503  11.7275  11.7963  11.8027  11.9041  11.9318
    11.9896  12.1577  12.2078  12.2204  12.3180  12.3512  12.4355  12.5210
    12.5699  12.6085  12.7213  12.7913  12.8909  12.9051  13.0318  13.0876
    13.1554  13.2554  13.4090  13.5062  13.6039  13.6342  13.7016  13.8109
    13.8299  13.8882  14.0180  14.0298  14.1244  14.2923  14.3644  14.4287
    14.4574  14.6040  14.6732  14.7276  14.8338  14.9162  15.0360  15.1510
    15.2162  15.2169  15.3450  15.3491  15.4398  15.5091  15.5620  15.6205
    15.6215  15.6689  15.7596  15.8051  15.8536  15.9339  16.0161  16.0323
    16.1697  16.1735  16.2301  16.3102  16.3908  16.4855  16.6048  16.7186
    16.7761  16.8560  16.8696  16.9089  16.9527  16.9910  17.0390  17.0576
    17.0737  17.1027  17.1096  17.1477  17.1482  17.1843  17.2494  17.2691
    17.3392  17.3936  17.4484  17.4517  17.4935  17.6080  17.6805  17.7609
    17.7657  17.8806  17.8858  17.8938  18.0379  18.0917  18.1199  18.1944
    18.2026  18.3629  18.3966  18.3969  18.5279  18.5807  18.6894  18.6950
    18.7338  18.8863  18.9293  19.0221  19.0363  19.1108  19.1533  19.2717
    19.3327  19.3900  19.4087  19.5580  19.6160  19.7738  19.8283  19.8427
    19.8984  19.9415  19.9939  20.0424  20.0635  20.0971  20.2419  20.2631
    20.3161  20.3279  20.5104  20.5202  20.6386  20.6971  20.7643  20.8097
    20.8126  20.9319  20.9345  21.0077  21.0381  21.2139  21.2453  21.2545
    21.3466  21.4324  21.4450  21.5345  21.5817  21.6215  21.6491  21.7705

     the Fermi energy is    -1.7661 ev

!    total energy              =   -2247.68392499 Ry
     Harris-Foulkes estimate   =   -2247.68392531 Ry
     estimated scf accuracy    <       0.00000037 Ry

     The total energy is the sum of the following terms:

     one-electron contribution =  -22776.73005341 Ry
     hartree contribution      =   11429.41207547 Ry
     xc contribution           =    -565.13904682 Ry
     ewald contribution        =    9663.68434580 Ry
     Hubbard energy            =       1.08980193 Ry
     smearing contrib. (-TS)   =      -0.00104796 Ry

     convergence has been achieved in  26 iterations

     Forces acting on atoms (Ry/au):


     negative rho (up, down):  0.158E+01 0.000E+00
     atom    1 type  1   force =    -0.00806868   -0.00561424   -0.00077900
     atom    2 type  1   force =     0.00009829    0.00366474    0.00341838
     atom    3 type  2   force =    -0.00049986    0.00265297   -0.00339194
     atom    4 type  2   force =     0.01090617    0.00206659   -0.00023883
     atom    5 type  1   force =     0.00098898   -0.00180507   -0.00230718
     atom    6 type  1   force =     0.00004671    0.00117396    0.00123922
     atom    7 type  1   force =     0.00003707    0.00407973    0.00202980
     atom    8 type  1   force =    -0.00406814   -0.00717594    0.00382541
     atom    9 type  2   force =     0.00185557    0.00101623   -0.00653248
     atom   10 type  2   force =    -0.00003538   -0.00172082   -0.00573830
     atom   11 type  1   force =     0.00001268   -0.00537153    0.00250178
     atom   12 type  1   force =     0.00009307    0.00633493    0.00204478
     atom   13 type  1   force =    -0.00112851   -0.00033287    0.00124506
     atom   14 type  1   force =    -0.00806743   -0.00561387   -0.00077679
     atom   15 type  1   force =     0.00009851    0.00366450    0.00342063
     atom   16 type  2   force =    -0.00050995    0.00265282   -0.00339195
     atom   17 type  2   force =     0.01090663    0.00206656   -0.00022549
     atom   18 type  1   force =     0.00098184   -0.00180494   -0.00230718
     atom   19 type  1   force =     0.00003567    0.00117384    0.00123898
     atom   20 type  1   force =     0.00003718    0.00407951    0.00205794
     atom   21 type  1   force =    -0.00406819   -0.00717640    0.00383039
     atom   22 type  2   force =     0.00182852    0.00101636   -0.00653251
     atom   23 type  2   force =    -0.00003557   -0.00172293   -0.00574926
     atom   24 type  1   force =    -0.00001351   -0.00537153    0.00250181
     atom   25 type  1   force =     0.00006753    0.00633489    0.00204478
     atom   26 type  1   force =    -0.00112857   -0.00033231    0.00123424
     atom   27 type  3   force =     0.00000370    0.00053391    0.00180235
     atom   28 type  3   force =     0.00000369    0.00053316    0.00180284
     atom   29 type  3   force =    -0.00018895    0.00049889    0.00086630
     atom   30 type  3   force =    -0.00018908    0.00049883    0.00086621

     Total force =     0.016838     Total SCF correction =     0.002361
     SCF correction compared to forces is large: reduce conv_thr to get better values

     BFGS Geometry Optimization

     number of scf cycles    =   1
     number of bfgs steps    =   0

     energy   new            =   -2247.6839249864 Ry

     new trust radius        =       0.0065325062 bohr
     new conv_thr            =       0.0000010000 Ry


ATOMIC_POSITIONS (crystal)
O0       0.000000000   0.000000000   0.376914439    0   0   1
O0       0.000000000   0.500000000   0.399238284    0   0   1
Pt1      0.250000000   0.500000000   0.448962244    0   0   1
Pt1      0.000000000   0.000000000   0.451965229    0   0   1
O0       0.250000000   0.810000000   0.442723913    0   0   1
O0       0.250000000   0.190000000   0.459064754    0   0   1
O0       0.000000000   0.500000000   0.495450546    0   0   1
O0       0.000000000   0.000000000   0.529446415    0   0   1
Pt1      0.250000000   0.000000000   0.575989510    0   0   1
Pt1      0.000000000   0.500000000   0.574145374    0   0   1
O0       0.250000000   0.690000000   0.583129974    0   0   1
O0       0.250000000   0.310000000   0.583690846    0   0   1
O0       0.000000000   0.000000000   0.621634871    0   0   1
O0       0.500000000   0.000000000   0.376914483    0   0   1
O0       0.500000000   0.500000000   0.399238329    0   0   1
Pt1      0.750000000   0.500000000   0.448962244    0   0   1
Pt1      0.500000000   0.000000000   0.451965496    0   0   1
O0       0.750000000   0.810000000   0.442723913    0   0   1
O0       0.750000000   0.190000000   0.459064749    0   0   1
O0       0.500000000   0.500000000   0.495451108    0   0   1
O0       0.500000000   0.000000000   0.529446514    0   0   1
Pt1      0.750000000   0.000000000   0.575989510    0   0   1
Pt1      0.500000000   0.500000000   0.574145155    0   0   1
O0       0.750000000   0.690000000   0.583129975    0   0   1
O0       0.750000000   0.310000000   0.583690846    0   0   1
O0       0.500000000   0.000000000   0.621634655    0   0   1
H2      -0.000049697   0.640103525   0.383586003
H2       0.499950303   0.640103464   0.383586013
H2       0.144054522   0.031420670   0.366987305
H2       0.644054511   0.031420665   0.366987303


     Check: negative starting charge=   -1.537272
     NEW-OLD atomic charge density approx. for the potential

     Check: negative/imaginary core charge=   -0.000003    0.000000
     Check: negative starting charge=   -1.537987

     negative rho (up, down):  0.158E+01 0.000E+00
 Atomic wfc used for LDA+U Projector are NOT orthogonalized

     total cpu time spent up to now is     5886.8 secs

     per-process dynamical memory:   430.2 Mb

     Self-consistent Calculation

     iteration #  1     ecut=    40.00 Ry     beta=0.70
     Davidson diagonalization with overlap
     ethr =  1.00E-06,  avg # of iterations =  3.0
 --- enter write_ns ---
 LDA+U parameters:
U( 2)     =  4.00000000
alpha( 2) =  0.00000000
atom    3   Tr[ns(na)] =   8.74537
    eigenvalues: 
  0.701  0.710  0.984  0.987  0.990
    eigenvectors:
  0.178  0.000  0.776  0.000  0.045
  0.000  1.000  0.000  0.000  0.000
  0.003  0.000  0.066  0.000  0.931
  0.819  0.000  0.157  0.000  0.024
  0.000  0.000  0.000  1.000  0.000
    occupations:
  0.934 -0.000  0.005 -0.108  0.000
 -0.000  0.710  0.000  0.000 -0.001
  0.005  0.000  0.989  0.014 -0.000
 -0.108  0.000  0.014  0.752  0.000
  0.000 -0.001 -0.000  0.000  0.987
atom    4   Tr[ns(na)] =   8.72096
    eigenvalues: 
  0.691  0.714  0.983  0.986  0.987
    eigenvectors:
  0.000  0.987  0.009  0.002  0.003
  0.008  0.000  0.033  0.931  0.027
  0.000  0.004  0.762  0.007  0.227
  0.000  0.009  0.196  0.052  0.742
  0.992  0.000  0.000  0.008  0.000
    occupations:
  0.717 -0.005 -0.016  0.026 -0.001
 -0.005  0.983  0.000  0.000  0.026
 -0.016  0.000  0.983  0.003  0.000
  0.026  0.000  0.003  0.984  0.000
 -0.001  0.026  0.000  0.000  0.693
atom    9   Tr[ns(na)] =   8.70280
    eigenvalues: 
  0.717  0.723  0.961  0.963  0.987
    eigenvectors:
  0.001  0.143  0.000  0.000  0.857
  0.995  0.005  0.000  0.000  0.000
  0.000  0.000  0.000  1.000  0.000
  0.004  0.853  0.000  0.000  0.143
  0.000  0.000  1.000  0.000  0.000
    occupations:
  0.949  0.000 -0.001 -0.092  0.000
  0.000  0.717  0.000  0.000 -0.000
 -0.001  0.000  0.963 -0.001 -0.000
 -0.092  0.000 -0.001  0.761  0.000
  0.000 -0.000 -0.000  0.000  0.961
atom   10   Tr[ns(na)] =   8.77706
    eigenvalues: 
  0.659  0.788  0.969  0.986  0.986
    eigenvectors:
  0.000  0.979  0.000  0.017  0.003
  0.000  0.000  1.000  0.000  0.000
  0.000  0.000  0.000  0.126  0.874
  0.000  0.021  0.000  0.857  0.122
  1.000  0.000  0.000  0.000  0.000
    occupations:
  0.792  0.000  0.002  0.028  0.000
  0.000  0.969 -0.000  0.000 -0.001
  0.002 -0.000  0.986 -0.000 -0.000
  0.028  0.000 -0.000  0.982 -0.000
  0.000 -0.001 -0.000 -0.000  0.659
atom   16   Tr[ns(na)] =   8.74537
    eigenvalues: 
  0.701  0.710  0.984  0.987  0.990
    eigenvectors:
  0.178  0.000  0.776  0.000  0.045
  0.000  1.000  0.000  0.000  0.000
  0.003  0.000  0.066  0.000  0.931
  0.819  0.000  0.157  0.000  0.024
  0.000  0.000  0.000  1.000  0.000
    occupations:
  0.934 -0.000  0.005 -0.108  0.000
 -0.000  0.710  0.000  0.000 -0.001
  0.005  0.000  0.989  0.014 -0.000
 -0.108  0.000  0.014  0.752  0.000
  0.000 -0.001 -0.000  0.000  0.987
atom   17   Tr[ns(na)] =   8.72103
    eigenvalues: 
  0.691  0.714  0.983  0.986  0.987
    eigenvectors:
  0.000  0.987  0.009  0.002  0.003
  0.008  0.000  0.033  0.931  0.027
  0.000  0.004  0.762  0.007  0.228
  0.000  0.009  0.197  0.053  0.742
  0.992  0.000  0.000  0.008  0.000
    occupations:
  0.717 -0.005 -0.016  0.026 -0.001
 -0.005  0.983  0.000  0.000  0.026
 -0.016  0.000  0.983  0.003  0.000
  0.026  0.000  0.003  0.984  0.000
 -0.001  0.026  0.000  0.000  0.693
atom   22   Tr[ns(na)] =   8.70280
    eigenvalues: 
  0.717  0.723  0.961  0.963  0.987
    eigenvectors:
  0.001  0.143  0.000  0.000  0.857
  0.995  0.005  0.000  0.000  0.000
  0.000  0.000  0.000  1.000  0.000
  0.004  0.853  0.000  0.000  0.143
  0.000  0.000  1.000  0.000  0.000
    occupations:
  0.949  0.000 -0.001 -0.092  0.000
  0.000  0.717  0.000  0.000 -0.000
 -0.001  0.000  0.963 -0.001 -0.000
 -0.092  0.000 -0.001  0.761  0.000
  0.000 -0.000 -0.000  0.000  0.961
atom   23   Tr[ns(na)] =   8.77766
    eigenvalues: 
  0.659  0.788  0.969  0.986  0.986
    eigenvectors:
  0.000  0.979  0.000  0.017  0.003
  0.000  0.000  1.000  0.000  0.000
  0.000  0.000  0.000  0.118  0.882
  0.000  0.021  0.000  0.865  0.115
  1.000  0.000  0.000  0.000  0.000
    occupations:
  0.792  0.000  0.002  0.028  0.000
  0.000  0.969 -0.000  0.000 -0.001
  0.002 -0.000  0.986 -0.000 -0.000
  0.028  0.000 -0.000  0.982 -0.000
  0.000 -0.001 -0.000 -0.000  0.659
N of occupied +U levels =  69.8930621
 --- exit write_ns ---

     negative rho (up, down):  0.158E+01 0.000E+00

     total cpu time spent up to now is     6137.3 secs

     total energy              =   -2247.68396405 Ry
     Harris-Foulkes estimate   =   -2247.68413682 Ry
     estimated scf accuracy    <       0.00024077 Ry

     iteration #  2     ecut=    40.00 Ry     beta=0.70
     Davidson diagonalization with overlap
     ethr =  1.00E-07,  avg # of iterations =  4.6

     negative rho (up, down):  0.158E+01 0.000E+00

     total cpu time spent up to now is     6352.2 secs

     total energy              =   -2247.68302392 Ry
     Harris-Foulkes estimate   =   -2247.68519568 Ry
     estimated scf accuracy    <       0.01857487 Ry

     iteration #  3     ecut=    40.00 Ry     beta=0.70
     Davidson diagonalization with overlap
     ethr =  1.00E-07,  avg # of iterations =  5.0

     negative rho (up, down):  0.158E+01 0.000E+00

     total cpu time spent up to now is     6571.1 secs

     total energy              =   -2247.68404892 Ry
     Harris-Foulkes estimate   =   -2247.68414377 Ry
     estimated scf accuracy    <       0.00044517 Ry

     iteration #  4     ecut=    40.00 Ry     beta=0.70
     Davidson diagonalization with overlap
     ethr =  1.00E-07,  avg # of iterations =  1.0

     negative rho (up, down):  0.158E+01 0.000E+00

     total cpu time spent up to now is     6747.8 secs

     total energy              =   -2247.68407323 Ry
     Harris-Foulkes estimate   =   -2247.68415334 Ry
     estimated scf accuracy    <       0.00064301 Ry

     iteration #  5     ecut=    40.00 Ry     beta=0.70
     Davidson diagonalization with overlap
     ethr =  1.00E-07,  avg # of iterations =  1.0

     negative rho (up, down):  0.158E+01 0.000E+00

     total cpu time spent up to now is     6924.9 secs

     total energy              =   -2247.68410199 Ry
     Harris-Foulkes estimate   =   -2247.68412491 Ry
     estimated scf accuracy    <       0.00008895 Ry

     iteration #  6     ecut=    40.00 Ry     beta=0.70
     Davidson diagonalization with overlap
     ethr =  3.71E-08,  avg # of iterations =  1.0

     negative rho (up, down):  0.158E+01 0.000E+00

     total cpu time spent up to now is     7101.5 secs

     total energy              =   -2247.68411086 Ry
     Harris-Foulkes estimate   =   -2247.68411856 Ry
     estimated scf accuracy    <       0.00003395 Ry

     iteration #  7     ecut=    40.00 Ry     beta=0.70
     Davidson diagonalization with overlap
     ethr =  1.41E-08,  avg # of iterations =  1.0

     negative rho (up, down):  0.158E+01 0.000E+00

     total cpu time spent up to now is     7278.6 secs

     total energy              =   -2247.68411444 Ry
     Harris-Foulkes estimate   =   -2247.68411559 Ry
     estimated scf accuracy    <       0.00000402 Ry

     iteration #  8     ecut=    40.00 Ry     beta=0.70
     Davidson diagonalization with overlap
     ethr =  1.68E-09,  avg # of iterations =  1.0

     negative rho (up, down):  0.158E+01 0.000E+00

[...]
    11.9566  11.9566  12.2294  12.2294  12.4197  12.4197  12.5313  12.5313
    12.6541  12.6541  12.7813  12.7813  12.9141  12.9141  13.0083  13.0083
    13.1014  13.1015  13.2549  13.2549  13.4751  13.4751  13.5971  13.5971
    13.7888  13.7888  13.9016  13.9016  14.2176  14.2176  14.3430  14.3430
    14.4879  14.4879  14.6192  14.6192  14.9367  14.9367  15.1260  15.1261
    15.4801  15.4801  15.5893  15.5893  15.6664  15.6664  15.7167  15.7167
    15.7985  15.7985  15.9858  15.9858  16.0685  16.0685  16.1405  16.1405
    16.2220  16.2220  16.2937  16.2937  16.4919  16.4919  16.6055  16.6055
    16.7331  16.7332  16.8692  16.8692  16.9310  16.9310  17.0581  17.0582
    17.0803  17.0803  17.1081  17.1081  17.1904  17.1904  17.3374  17.3374
    17.5504  17.5504  17.6688  17.6688  17.8272  17.8273  17.9116  17.9117
    17.9711  17.9711  18.1637  18.1637  18.2288  18.2288  18.3989  18.3989
    18.5501  18.5502  18.6572  18.6573  18.7376  18.7376  18.8206  18.8206
    18.9293  18.9293  19.0900  19.0901  19.1831  19.1831  19.3468  19.3469
    19.3809  19.3809  19.4503  19.4503  19.5195  19.5195  19.6227  19.6227
    19.8067  19.8067  19.8972  19.8972  19.9477  19.9477  20.0127  20.0127
    20.1347  20.1347  20.2586  20.2586  20.4544  20.4544  20.4994  20.4994
    20.5236  20.5236  20.5573  20.5573  20.7885  20.7885  20.8916  20.8916
    20.9672  20.9672  21.1185  21.1185  21.2336  21.2336  21.4550  21.4550

          k =-0.5000 0.2488 0.0000 ( 32052 PWs)   bands (ev):

   -55.3768 -55.3768 -55.3355 -55.3355 -55.3053 -55.3053 -55.2629 -55.2629
   -55.2049 -55.2049 -55.0986 -55.0986 -55.0262 -55.0261 -54.9983 -54.9983
   -54.9929 -54.9929 -54.7585 -54.7585 -54.4285 -54.4285 -54.1872 -54.1871
   -21.9801 -21.9800 -20.9571 -20.9557 -20.8331 -20.8329 -20.5590 -20.5548
   -20.4489 -20.4408 -20.3029 -20.2865 -20.1972 -20.1967 -20.0349 -20.0301
   -19.1502 -19.1501 -10.3049 -10.3032  -9.9949  -9.9894  -9.7985  -9.7982
    -9.5712  -9.5514  -9.4260  -9.4160  -9.2181  -9.2085  -9.1528  -9.1397
    -8.9032  -8.8762  -8.6493  -8.6054  -8.3867  -8.3763  -8.1364  -8.0886
    -7.8659  -7.8431  -7.8010  -7.7848  -7.4877  -7.4155  -7.3801  -7.3136
    -7.1768  -7.1391  -7.0626  -7.0386  -6.8643  -6.8490  -6.7295  -6.7254
    -6.4755  -6.4220  -6.2996  -6.2429  -5.9516  -5.9031  -5.7721  -5.7647
    -5.4306  -5.3136  -5.1729  -5.1085  -5.0405  -4.9932  -4.3317  -4.3025
    -4.1848  -4.1119  -4.0243  -4.0023  -3.8218  -3.8191  -3.6858  -3.6772
    -3.4764  -3.4182  -3.2415  -3.2235  -2.9665  -2.9288  -2.8529  -2.8456
    -2.6806  -2.6792  -2.5400  -2.5113  -2.2899  -2.2893  -2.1905  -2.1883
    -1.4978  -1.4968  -0.4676  -0.4572  -0.2089  -0.2082   0.0069   0.0071
     0.2346   0.2357   0.6198   0.6231   0.9922   0.9935   1.4495   1.4508
     3.9778   3.9866   4.4634   4.4652   5.2203   5.2229   5.6074   5.6103
     5.6951   5.7053   5.7799   5.8163   6.2815   6.2931   6.5539   6.5653
     6.7276   6.7285   7.0624   7.0745   7.2819   7.2933   7.4765   7.4971
     7.5762   7.5904   7.8289   7.8399   8.0040   8.0478   8.1088   8.1089
     8.3926   8.3950   8.6466   8.6836   8.8439   8.8594   9.0306   9.0457
     9.2923   9.3004   9.4222   9.4460   9.6873   9.6898  10.0133  10.0271
    10.2300  10.2571  10.5172  10.5401  10.7293  10.7363  10.8213  10.8252
    10.8783  10.8839  11.1376  11.1490  11.2288  11.2373  11.5394  11.5701
    11.7157  11.7158  11.7771  11.8456  12.0172  12.0505  12.0720  12.0809
    12.2395  12.2441  12.4614  12.4673  12.5019  12.5334  12.6347  12.6601
    12.8269  12.8301  12.9192  12.9320  13.0419  13.0648  13.1207  13.1388
    13.1948  13.2169  13.4176  13.4213  13.4842  13.5041  13.7041  13.7086
    13.9360  13.9661  14.0285  14.0321  14.1506  14.1521  14.1839  14.2344
    14.3050  14.3419  14.4424  14.4464  14.5790  14.5881  14.7086  14.7305
    14.8081  14.8092  15.0545  15.0936  15.2807  15.3165  15.5154  15.5220
    15.6848  15.6974  15.7594  15.7667  15.9149  15.9260  15.9723  15.9792
    16.1363  16.1402  16.2029  16.2338  16.3610  16.3960  16.5044  16.5101
    16.5779  16.5844  16.6602  16.6625  16.7709  16.8396  16.9206  16.9340
    17.0236  17.0335  17.0691  17.0734  17.1026  17.1088  17.1322  17.1672
    17.3514  17.3551  17.3862  17.3946  17.4958  17.5377  17.5839  17.6069
    17.8278  17.8372  17.9484  17.9523  17.9801  17.9885  18.0319  18.0492
    18.1123  18.1314  18.2175  18.2447  18.3715  18.3755  18.5146  18.5763
    18.6725  18.6801  18.7731  18.8066  18.8314  18.8875  19.0727  19.0877
    19.2185  19.2402  19.2880  19.2944  19.4468  19.4786  19.5395  19.5754
    19.6778  19.6869  19.7289  19.7638  19.8792  19.9617  20.0027  20.0091
    20.2108  20.2238  20.3272  20.3665  20.4931  20.5262  20.6279  20.6753
    20.8228  20.8661  20.9375  20.9747  21.1302  21.1690  21.2031  21.2163
    21.3598  21.3797  21.5586  21.5626  21.6538  21.6716  21.7525  21.7595

          k =-0.5000-0.4976 0.0000 ( 31956 PWs)   bands (ev):

   -55.3767 -55.3767 -55.3353 -55.3353 -55.3054 -55.3054 -55.2629 -55.2629
   -55.2046 -55.2046 -55.0986 -55.0986 -55.0261 -55.0261 -54.9984 -54.9984
   -54.9929 -54.9929 -54.7584 -54.7584 -54.4283 -54.4283 -54.1873 -54.1871
   -21.9762 -21.9761 -20.7743 -20.7743 -20.6841 -20.6841 -20.5833 -20.5833
   -20.5234 -20.5234 -20.4341 -20.4341 -20.3331 -20.3331 -20.0416 -20.0416
   -19.1485 -19.1484 -10.2715 -10.2715  -9.6564  -9.6564  -9.4301  -9.4301
    -9.3529  -9.3529  -9.2399  -9.2399  -9.1632  -9.1632  -9.0025  -9.0025
    -8.9228  -8.9228  -8.8505  -8.8505  -8.7710  -8.7710  -8.1573  -8.1573
    -7.9131  -7.9131  -7.8305  -7.8304  -7.6975  -7.6975  -7.4484  -7.4484
    -7.3183  -7.3183  -7.2018  -7.2018  -7.0234  -7.0234  -6.8388  -6.8388
    -6.4808  -6.4808  -6.1567  -6.1567  -5.8852  -5.8852  -5.7492  -5.7491
    -5.6204  -5.6204  -5.1825  -5.1824  -4.9697  -4.9696  -4.1172  -4.1172
    -4.0365  -4.0365  -3.8622  -3.8622  -3.6794  -3.6793  -3.5836  -3.5836
    -3.4424  -3.4424  -3.2483  -3.2483  -2.9777  -2.9777  -2.9343  -2.9342
    -2.7146  -2.7145  -2.4791  -2.4791  -2.3567  -2.3567  -2.2794  -2.2794
    -1.4009  -1.4008  -0.7776  -0.7776  -0.3839  -0.3838  -0.0988  -0.0986
     0.2803   0.2803   0.9552   0.9553   1.0851   1.0852   1.5725   1.5725
     4.4829   4.4829   4.6927   4.6928   5.0281   5.0281   5.7361   5.7362
     5.8601   5.8601   6.0224   6.0224   6.1986   6.1986   6.3141   6.3141
     6.4549   6.4549   6.6011   6.6011   7.0599   7.0600   7.0708   7.0709
     7.3840   7.3840   7.4481   7.4481   7.8933   7.8933   8.2107   8.2108
     8.3105   8.3105   8.4770   8.4770   8.8802   8.8802   9.1684   9.1684
     9.2636   9.2637   9.4964   9.4964   9.6705   9.6705  10.0280  10.0280
    10.3126  10.3126  10.6908  10.6908  10.8749  10.8749  11.1688  11.1688
    11.3989  11.3989  11.7299  11.7299  11.9084  11.9084  11.9246  11.9246
    12.0415  12.0415  12.3560  12.3560  12.4720  12.4720  12.5396  12.5396
    12.6972  12.6972  12.7489  12.7489  12.8456  12.8456  13.0542  13.0542
    13.1507  13.1507  13.1981  13.1981  13.2299  13.2299  13.3665  13.3665
    13.4368  13.4368  13.5151  13.5152  13.5755  13.5755  13.6719  13.6719
    13.6922  13.6922  13.7653  13.7653  13.8864  13.8864  13.9380  13.9380
    14.1989  14.1989  14.2746  14.2746  14.4880  14.4880  14.6476  14.6476
    14.6946  14.6946  14.7646  14.7647  14.8226  14.8226  14.9747  14.9747
    15.0807  15.0807  15.1321  15.1321  15.3017  15.3018  15.3276  15.3276
    15.4291  15.4291  15.5616  15.5617  15.7678  15.7678  16.0563  16.0563
    16.3023  16.3023  16.3954  16.3954  16.4819  16.4819  16.5824  16.5824
    16.8763  16.8763  16.9048  16.9048  16.9918  16.9918  17.0899  17.0899
    17.0998  17.0998  17.2215  17.2215  17.4268  17.4268  17.6450  17.6450
    17.7219  17.7220  17.7660  17.7660  17.9426  17.9427  17.9842  17.9842
    18.1687  18.1687  18.3764  18.3764  18.5303  18.5304  18.6053  18.6053
    18.9087  18.9088  19.0166  19.0167  19.1417  19.1417  19.2375  19.2375
    19.4937  19.4937  19.6926  19.6927  19.8378  19.8378  19.9614  19.9614
    20.0637  20.0637  20.0819  20.0819  20.2617  20.2617  20.3853  20.3853
    20.4441  20.4441  20.4817  20.4817  20.5738  20.5738  20.7614  20.7614
    20.9176  20.9177  20.9404  20.9404  20.9802  20.9802  21.0943  21.0943
    21.2082  21.2082  21.2770  21.2770  21.3501  21.3501  21.4544  21.4544

          k =-0.2500 0.2488 0.0000 ( 32025 PWs)   bands (ev):

   -55.3956 -55.3555 -55.3538 -55.3235 -55.3146 -55.2845 -55.2640 -55.2615
   -55.2065 -55.2030 -55.1005 -55.0964 -55.0285 -55.0236 -55.0010 -54.9949
   -54.9941 -54.9919 -54.7770 -54.7372 -54.4310 -54.4259 -54.1883 -54.1857
   -22.1113 -21.9173 -21.2151 -21.0996 -20.7840 -20.6486 -20.6261 -20.5070
   -20.5007 -20.4399 -20.3044 -20.2563 -20.2264 -20.0641 -20.0083 -19.9616
   -19.1723 -18.9765 -10.7352 -10.5400 -10.3735 -10.3557  -9.8441  -9.8259
    -9.6736  -9.4699  -9.4094  -9.3877  -9.3548  -9.1021  -9.0659  -8.9998
    -8.9795  -8.8283  -8.7605  -8.5779  -8.3216  -8.2293  -8.0813  -8.0710
    -7.8216  -7.7100  -7.6508  -7.5428  -7.4972  -7.2904  -7.2716  -7.1981
    -7.1239  -7.0820  -6.8376  -6.7931  -6.7665  -6.6711  -6.5893  -6.5492
    -6.3966  -6.2330  -6.1471  -6.0072  -5.8816  -5.7835  -5.6130  -5.4530
    -5.3642  -5.3167  -5.2472  -4.9917  -4.9909  -4.8815  -4.7528  -4.5727
    -4.4158  -4.4137  -4.2689  -4.2448  -4.0129  -3.9649  -3.8899  -3.7382
    -3.6271  -3.5951  -3.5628  -3.4234  -3.2044  -3.1620  -2.8527  -2.7090
    -2.6933  -2.6230  -2.4777  -2.4358  -2.4002  -2.3024  -1.9261  -1.8313
    -1.7835  -1.4194  -1.1006  -0.6906  -0.3694  -0.3044  -0.1342   0.2816
     0.5207   0.6965   0.8458   0.9561   1.2179   1.2411   1.3824   1.5991
     3.0707   3.6803   4.5535   4.9733   5.0532   5.0910   5.1917   5.4786
     5.6998   5.9423   6.0530   6.2244   6.4012   6.4885   6.5836   6.6377
     6.7609   6.8185   7.0204   7.0781   7.2614   7.3984   7.4282   7.5111
     7.6031   7.7363   7.8129   7.9777   8.1001   8.1656   8.2600   8.3124
     8.3601   8.4770   8.5386   8.6440   8.7677   8.8699   9.0288   9.1200
     9.3060   9.3400   9.4451   9.5620   9.6463   9.7653   9.8927   9.9514
    10.0929  10.1416  10.2083  10.2162  10.4226  10.5128  10.5289  10.6364
    10.6606  10.8259  10.8376  10.9781  11.1455  11.2479  11.3473  11.3906
    11.4192  11.5473  11.6549  11.7323  11.7971  11.8116  11.8881  11.9354
    11.9906  12.1591  12.2106  12.2117  12.3235  12.3521  12.4357  12.5188
    12.5795  12.6182  12.7267  12.7970  12.8900  12.9032  13.0382  13.0949
    13.1580  13.2477  13.4118  13.5065  13.6144  13.6352  13.7066  13.8139
    13.8257  13.8917  14.0280  14.0285  14.1228  14.2853  14.3618  14.4145
    14.4690  14.6138  14.6798  14.7307  14.8332  14.9225  15.0447  15.1559
    15.2206  15.2218  15.3483  15.3541  15.4441  15.5147  15.5610  15.6283
    15.6287  15.6736  15.7580  15.8184  15.8621  15.9396  16.0210  16.0387
    16.1711  16.1765  16.2297  16.3210  16.3948  16.4944  16.6092  16.7204
    16.7817  16.8649  16.8734  16.9274  16.9654  16.9905  17.0348  17.0510
    17.0657  17.1004  17.1042  17.1487  17.1499  17.1855  17.2542  17.2717
    17.3448  17.4015  17.4491  17.4589  17.4974  17.6163  17.6843  17.7594
    17.7633  17.8615  17.8709  17.8939  18.0439  18.0920  18.1207  18.1910
    18.2068  18.3573  18.3901  18.3979  18.5307  18.5905  18.6967  18.7071
    18.7324  18.8946  18.9339  19.0114  19.0255  19.1048  19.1505  19.2801
    19.3297  19.3906  19.4065  19.5622  19.6128  19.7717  19.8194  19.8371
    19.9027  19.9462  19.9806  20.0466  20.0721  20.0897  20.2489  20.2735
    20.3201  20.3364  20.5107  20.5131  20.6481  20.6947  20.7663  20.8010
    20.8092  20.9329  20.9417  21.0030  21.0390  21.2128  21.2473  21.2619
    21.3558  21.4379  21.4404  21.5296  21.5813  21.6245  21.6552  21.7703

     the Fermi energy is    -1.7650 ev

!    total energy              =   -2247.68450293 Ry
     Harris-Foulkes estimate   =   -2247.68450294 Ry
     estimated scf accuracy    <          5.3E-09 Ry

     The total energy is the sum of the following terms:

     one-electron contribution =  -22797.58363702 Ry
     hartree contribution      =   11439.72426617 Ry
     xc contribution           =    -565.15411810 Ry
     ewald contribution        =    9674.24071082 Ry
     Hubbard energy            =       1.08922208 Ry
     smearing contrib. (-TS)   =      -0.00094688 Ry

     convergence has been achieved in  12 iterations

     Forces acting on atoms (Ry/au):


     negative rho (up, down):  0.158E+01 0.000E+00
     atom    1 type  1   force =    -0.00760341   -0.00432304   -0.00021067
     atom    2 type  1   force =     0.00010205    0.00425270   -0.00017180
     atom    3 type  2   force =    -0.00046454    0.00220300   -0.00013764
     atom    4 type  2   force =     0.01007783    0.00214941    0.00004912
     atom    5 type  1   force =     0.00112968   -0.00207095    0.00011853
     atom    6 type  1   force =     0.00009752    0.00059911   -0.00009766
     atom    7 type  1   force =     0.00003203    0.00469824    0.00096137
     atom    8 type  1   force =    -0.00394793   -0.00784759    0.00064291
     atom    9 type  2   force =     0.00177304    0.00098461   -0.00039906
     atom   10 type  2   force =    -0.00003027   -0.00180624   -0.00006814
     atom   11 type  1   force =     0.00000536   -0.00658099   -0.00016266
     atom   12 type  1   force =     0.00008826    0.00755439   -0.00008627
     atom   13 type  1   force =    -0.00107745   -0.00026801   -0.00000460
     atom   14 type  1   force =    -0.00760697   -0.00432345   -0.00021379
     atom   15 type  1   force =     0.00010207    0.00425245   -0.00016834
     atom   16 type  2   force =    -0.00047768    0.00220301   -0.00013765
     atom   17 type  2   force =     0.01007988    0.00214969    0.00005306
     atom   18 type  1   force =     0.00112352   -0.00207099    0.00011872
     atom   19 type  1   force =     0.00008890    0.00059909   -0.00009753
     atom   20 type  1   force =     0.00003201    0.00469782    0.00094201
     atom   21 type  1   force =    -0.00394834   -0.00784755    0.00063816
     atom   22 type  2   force =     0.00176586    0.00098463   -0.00039897
     atom   23 type  2   force =    -0.00003024   -0.00180697   -0.00005278
     atom   24 type  1   force =    -0.00002193   -0.00658099   -0.00016270
     atom   25 type  1   force =     0.00006053    0.00755437   -0.00008627
     atom   26 type  1   force =    -0.00107728   -0.00026780    0.00000695
     atom   27 type  3   force =     0.00001289    0.00022445    0.00007475
     atom   28 type  3   force =     0.00001282    0.00022317    0.00007697
     atom   29 type  3   force =    -0.00015058    0.00023166   -0.00051402
     atom   30 type  3   force =    -0.00014761    0.00023275   -0.00051200

     Total force =     0.002014     Total SCF correction =     0.000166

     bfgs converged in   9 scf cycles and   8 bfgs steps
     (criteria: energy < 0.10E-03, force < 0.10E-02)

     End of BFGS Geometry Optimization

     Final energy   =   -2247.6845029333 Ry
Begin final coordinates

ATOMIC_POSITIONS (crystal)
O0       0.000000000   0.000000000   0.376797733    0   0   1
O0       0.000000000   0.500000000   0.399568209    0   0   1
Pt1      0.250000000   0.500000000   0.449058328    0   0   1
Pt1      0.000000000   0.000000000   0.451855590    0   0   1
O0       0.250000000   0.810000000   0.441879110    0   0   1
O0       0.250000000   0.190000000   0.459625135    0   0   1
O0       0.000000000   0.500000000   0.495458435    0   0   1
O0       0.000000000   0.000000000   0.529298183    0   0   1
Pt1      0.250000000   0.000000000   0.575825826    0   0   1
Pt1      0.000000000   0.500000000   0.573717264    0   0   1
O0       0.250000000   0.690000000   0.583297697    0   0   1
O0       0.250000000   0.310000000   0.583781058    0   0   1
O0       0.000000000   0.000000000   0.621364850    0   0   1
O0       0.500000000   0.000000000   0.376798174    0   0   1
O0       0.500000000   0.500000000   0.399568483    0   0   1
Pt1      0.750000000   0.500000000   0.449058329    0   0   1
Pt1      0.500000000   0.000000000   0.451855791    0   0   1
O0       0.750000000   0.810000000   0.441879092    0   0   1
O0       0.750000000   0.190000000   0.459625140    0   0   1
O0       0.500000000   0.500000000   0.495460413    0   0   1
O0       0.500000000   0.000000000   0.529298303    0   0   1
Pt1      0.750000000   0.000000000   0.575825822    0   0   1
Pt1      0.500000000   0.500000000   0.573716069    0   0   1
O0       0.750000000   0.690000000   0.583297702    0   0   1
O0       0.750000000   0.310000000   0.583781058    0   0   1
O0       0.500000000   0.000000000   0.621363889    0   0   1
H2      -0.000020862   0.640727054   0.384295629
H2       0.499979150   0.640725987   0.384295341
H2       0.144129089   0.032395765   0.367106850
H2       0.644128048   0.032395171   0.367106499
End final coordinates



     init_run     :    104.03s CPU    106.41s WALL (       1 calls)
     electrons    :  24579.85s CPU  25366.62s WALL (       9 calls)
     update_pot   :    169.81s CPU    173.64s WALL (       8 calls)
     forces       :   1147.26s CPU   1170.98s WALL (       9 calls)

     Called by init_run:
     wfcinit      :     37.03s CPU     38.43s WALL (       1 calls)
     potinit      :      7.63s CPU      7.77s WALL (       1 calls)

     Called by electrons:
     c_bands      :  13633.58s CPU  14111.95s WALL (     133 calls)
     sum_band     :   4764.99s CPU   4906.17s WALL (     133 calls)
     v_of_rho     :    157.34s CPU    173.59s WALL (     137 calls)
     newd         :   6351.05s CPU   6392.16s WALL (     137 calls)
     mix_rho      :     26.79s CPU     27.68s WALL (     133 calls)

     Called by c_bands:
     init_us_2    :     31.92s CPU     32.23s WALL (     882 calls)
     cegterg      :  13457.88s CPU  13875.67s WALL (     399 calls)

     Called by *egterg:
     h_psi        :   7780.73s CPU   8045.89s WALL (    1160 calls)
     s_psi        :    767.65s CPU    779.49s WALL (    1214 calls)
     g_psi        :     16.87s CPU     16.88s WALL (     758 calls)
     cdiaghg      :   1226.73s CPU   1229.86s WALL (    1118 calls)

     Called by h_psi:
     add_vuspsi   :    738.20s CPU    750.42s WALL (    1160 calls)
     vhpsi        :    802.53s CPU    811.96s WALL (    1160 calls)

     General routines
     calbec       :   1828.82s CPU   1849.34s WALL (   10516 calls)
     fft          :    177.80s CPU    202.39s WALL (    2283 calls)
     ffts         :      2.39s CPU      2.46s WALL (     270 calls)
     fftw         :   4505.44s CPU   4813.09s WALL (  753738 calls)
     interpolate  :     22.96s CPU     23.19s WALL (     270 calls)
     davcio       :      0.09s CPU     18.56s WALL (     909 calls)

     Parallel routines
     fft_scatter  :   1748.57s CPU   2068.43s WALL (  756291 calls)
     Hubbard U routines
     new_ns       :    166.46s CPU    175.51s WALL (     133 calls)
     vhpsi        :    802.53s CPU    811.96s WALL (    1160 calls)
     force_hub    :    316.72s CPU    324.56s WALL (       9 calls)

     PWSCF        :     7h20m CPU        7h34m WALL


   This run was terminated on:  16:54:26   6May2014            

=------------------------------------------------------------------------------=
   JOB DONE.
=------------------------------------------------------------------------------=
---------------------------------------
Running PBS batch system epilogue script
Job id: 340799.audhumbla.fysik.dtu.dk
Username: zhonxu
Groupname: campgst
Jobname: PtO2/Eads-2-layers/bare-U-4.0
Sessionid: 10870
Resources limits: neednodes=2:ppn=8:xeon8,nodes=2:ppn=8:xeon8,walltime=48:00:00
Resources used: cput=121:00:46,mem=18360088kb,vmem=22007016kb,walltime=07:34:15
Queuename: verylong
Accounting:
This job has allocated the following 16 nodes:
b022 b022 b022 b022 b022 b022 b022 b022 b010 b010 b010 b010 b010 b010 b010 b010
Finished epilogue job 340799.audhumbla.fysik.dtu.dk for zhonxu
