loading modules
dropbox is Dropbox isn't running!

     Program PWSCF v.5.0.2 (svn rev. 9656) starts on 11Aug2014 at  8:48:38 

     This program is part of the open-source Quantum ESPRESSO suite
     for quantum simulation of materials; please cite
         "P. Giannozzi et al., J. Phys.:Condens. Matter 21 395502 (2009);
          URL http://www.quantum-espresso.org", 
     in publications or presentations arising from this work. More details at
     http://www.quantum-espresso.org/quote.php

     Parallel version (MPI), running on    16 processors
     K-points division:     npool     =       4
     R & G space division:  proc/nbgrp/npool/nimage =       4

     Current dimensions of program PWSCF are:
     Max number of different atomic species (ntypx) = 10
     Max number of k-points (npk) =  40000
     Max angular momentum in pseudopotentials (lmaxx) =  3
     Reading input from pwscf.in
Warning: card &CELL ignored
Warning: card / ignored

     Subspace diagonalization in iterative solution of the eigenvalue problem:
     a serial algorithm will be used

 
     Parallelization info
     --------------------
     sticks:   dense  smooth     PW     G-vecs:    dense   smooth      PW
     Min        1274     408    116               299662    54238    8133
     Max        1275     409    117               299663    54251    8135
     Sum        5097    1635    467              1198649   216969   32535
 


     bravais-lattice index     =            0
     lattice parameter (alat)  =      10.9604  a.u.
     unit-cell volume          =    6350.6732 (a.u.)^3
     number of atoms/cell      =           33
     number of atomic types    =            3
     number of electrons       =       237.00 (up: 126.00, down: 111.00)
     number of Kohn-Sham states=          343
     kinetic-energy cutoff     =      40.0000  Ry
     charge density cutoff     =     500.0000  Ry
     convergence threshold     =      1.0E-06
     mixing beta               =       0.3000
     number of iterations used =            8  plain     mixing
     Exchange-correlation      = SLA  PW   PBE  PBE ( 1 4 3 4 0)
     EXX-fraction              =        0.00
     nstep                     =           50


     celldm(1)=  10.960412  celldm(2)=   0.000000  celldm(3)=   0.000000
     celldm(4)=   0.000000  celldm(5)=   0.000000  celldm(6)=   0.000000

     crystal axes: (cart. coord. in units of alat)
               a(1) = (   1.000000   0.000000   0.000000 )  
               a(2) = (   0.000000   1.067975   0.000000 )  
               a(3) = (   0.000000   0.000000   4.516251 )  

     reciprocal axes: (cart. coord. in units 2 pi/alat)
               b(1) = (  1.000000  0.000000  0.000000 )  
               b(2) = (  0.000000  0.936351  0.000000 )  
               b(3) = (  0.000000  0.000000  0.221423 )  


     PseudoPot. # 1 for O  read from file:
     /home-research/zhongnanxu/gbrv_espresso_pseudo_v1.01/o_pbe_v1.01.uspp.F.UPF
     MD5 check sum: 2bcb18d16ea4b960afae9ec6d52f22d2
     Pseudo is Ultrasoft + core correction, Zval =  6.0
     Generated by new atomic code, or converted to UPF format
     Using radial grid of  737 points,  5 beta functions with: 
                l(1) =   0
                l(2) =   0
                l(3) =   1
                l(4) =   1
                l(5) =   2
     Q(r) pseudized with  8 coefficients,  rinner =    0.900   0.900   0.900
                                                       0.900   0.900

     PseudoPot. # 2 for Cr read from file:
     /home-research/zhongnanxu/gbrv_espresso_pseudo_v1.01/cr_pbe_v1.uspp.F.UPF
     MD5 check sum: 68b6f918d1762dccfb11451fe85b0e0e
     Pseudo is Ultrasoft + core correction, Zval = 14.0
     Generated by new atomic code, or converted to UPF format
     Using radial grid of  857 points,  6 beta functions with: 
                l(1) =   0
                l(2) =   0
                l(3) =   1
                l(4) =   1
                l(5) =   2
                l(6) =   2
     Q(r) pseudized with  6 coefficients,  rinner =    1.000   1.000   1.000
                                                       1.000   1.000

     PseudoPot. # 3 for H  read from file:
     /home-research/zhongnanxu/gbrv_espresso_pseudo_v1.01/h_pbe_v1.uspp.F.UPF
     MD5 check sum: 3408e3ff4ec8b0a4e358431e7e038a48
     Pseudo is Ultrasoft, Zval =  1.0
     Generated by new atomic code, or converted to UPF format
     Using radial grid of  615 points,  2 beta functions with: 
                l(1) =   0
                l(2) =   0
     Q(r) pseudized with  8 coefficients,  rinner =    0.700

     atomic species   valence    mass     pseudopotential
        O0             6.00    15.99940     O ( 1.00)
        Cr1           14.00    51.99600     Cr( 1.00)
        H2             1.00     1.00794     H ( 1.00)

     Starting magnetic structure 
     atomic species   magnetization
        O0           0.000
        Cr1          0.600
        H2           0.000


     Simplified LDA+U calculation (l_max = 2) with parameters (eV):
     atomic species    L          U    alpha       J0     beta
        Cr1            2     2.5000   0.0000   0.0000   0.0000



     No symmetry found



   Cartesian axes

     site n.     atom                  positions (alat units)
         1           O0  tau(   1) = (   0.0000000   0.0000000   1.7042073  )
         2           O0  tau(   2) = (   0.0000000   0.5339875   1.8080811  )
         3           Cr1 tau(   3) = (   0.2500000   0.5339875   2.0392679  )
         4           Cr1 tau(   4) = (   0.0000000   0.0000000   2.0271644  )
         5           O0  tau(   5) = (   0.2500000   0.8543801   2.0309580  )
         6           O0  tau(   6) = (   0.2500000   0.2135950   2.0316355  )
         7           O0  tau(   7) = (   0.0000000   0.5339875   2.2509446  )
         8           O0  tau(   8) = (   0.0000000   0.0000000   2.3604637  )
         9           Cr1 tau(   9) = (   0.2500000   0.0000000   2.5617982  )
        10           Cr1 tau(  10) = (   0.0000000   0.5339875   2.5572368  )
        11           O0  tau(  11) = (   0.2500000   0.7475825   2.5881279  )
        12           O0  tau(  12) = (   0.2500000   0.3203925   2.5981540  )
        13           O0  tau(  13) = (   0.0000000   0.0000000   2.7902753  )
        14           O0  tau(  14) = (   0.5000000   0.0000000   1.7033944  )
        15           O0  tau(  15) = (   0.5000000   0.5339875   1.8075843  )
        16           Cr1 tau(  16) = (   0.7500000   0.5339875   2.0394034  )
        17           Cr1 tau(  17) = (   0.5000000   0.0000000   2.0270289  )
        18           O0  tau(  18) = (   0.7500000   0.8543801   2.0309580  )
        19           O0  tau(  19) = (   0.7500000   0.2135950   2.0319516  )
        20           O0  tau(  20) = (   0.5000000   0.5339875   2.2575384  )
        21           O0  tau(  21) = (   0.5000000   0.0000000   2.3601927  )
        22           Cr1 tau(  22) = (   0.7500000   0.0000000   2.6307613  )
        23           Cr1 tau(  23) = (   0.5000000   0.5339875   2.6046574  )
        24           O0  tau(  24) = (   0.7500000   0.7475825   2.5954894  )
        25           O0  tau(  25) = (   0.7500000   0.3203925   2.6051993  )
        26           O0  tau(  26) = (   0.5000000   0.0000000   2.7862107  )
        27           H2  tau(  27) = (  -0.0006600   0.6811438   1.7223626  )
        28           H2  tau(  28) = (   0.4997800   0.6830662   1.7248014  )
        29           H2  tau(  29) = (   0.1575300   0.0328296   1.6463993  )
        30           H2  tau(  30) = (   0.6571800   0.0331179   1.6456767  )
        31           O0  tau(  31) = (   0.4998600   0.5722104   2.9318146  )
        32           O0  tau(  32) = (   0.5002200   0.3731718   3.0706893  )
        33           H2  tau(  33) = (   0.4998900   0.4485816   3.2222547  )

     number of k points=    20  Methfessel-Paxton smearing, width (Ry)=  0.0100
                       cart. coord. in units 2pi/alat
        k(    1) = (   0.0000000   0.0000000   0.0000000), wk =   0.0625000
        k(    2) = (   0.0000000   0.2340879   0.0000000), wk =   0.1250000
        k(    3) = (   0.0000000  -0.4681757   0.0000000), wk =   0.0625000
        k(    4) = (   0.2500000   0.0000000   0.0000000), wk =   0.1250000
        k(    5) = (   0.2500000   0.2340879   0.0000000), wk =   0.1250000
        k(    6) = (   0.2500000  -0.4681757   0.0000000), wk =   0.1250000
        k(    7) = (  -0.5000000   0.0000000   0.0000000), wk =   0.0625000
        k(    8) = (  -0.5000000   0.2340879   0.0000000), wk =   0.1250000
        k(    9) = (  -0.5000000  -0.4681757   0.0000000), wk =   0.0625000
        k(   10) = (  -0.2500000   0.2340879   0.0000000), wk =   0.1250000
        k(   11) = (   0.0000000   0.0000000   0.0000000), wk =   0.0625000
        k(   12) = (   0.0000000   0.2340879   0.0000000), wk =   0.1250000
        k(   13) = (   0.0000000  -0.4681757   0.0000000), wk =   0.0625000
        k(   14) = (   0.2500000   0.0000000   0.0000000), wk =   0.1250000
        k(   15) = (   0.2500000   0.2340879   0.0000000), wk =   0.1250000
        k(   16) = (   0.2500000  -0.4681757   0.0000000), wk =   0.1250000
        k(   17) = (  -0.5000000   0.0000000   0.0000000), wk =   0.0625000
        k(   18) = (  -0.5000000   0.2340879   0.0000000), wk =   0.1250000
        k(   19) = (  -0.5000000  -0.4681757   0.0000000), wk =   0.0625000
        k(   20) = (  -0.2500000   0.2340879   0.0000000), wk =   0.1250000

     Dense  grid:  1198649 G-vectors     FFT dimensions: (  80,  90, 360)

     Smooth grid:   216969 G-vectors     FFT dimensions: (  45,  48, 200)

     Largest allocated arrays     est. size (Mb)     dimensions
        Kohn-Sham Wavefunctions        36.03 Mb     (   6884,  343)
        Atomic wavefunctions           17.33 Mb     (   6884,  165)
        NL pseudopotentials            43.49 Mb     (   6884,  414)
        Each V/rho on FFT grid         19.78 Mb     ( 648000,   2)
        Each G-vector array             2.29 Mb     ( 299662)
        G-vector shells                 0.99 Mb     ( 129803)
     Largest temporary arrays     est. size (Mb)     dimensions
        Auxiliary wavefunctions       144.12 Mb     (   6884, 1372)
        Each subspace H/S matrix       28.72 Mb     (1372,1372)
        Each <psi_i|beta_j> matrix      2.17 Mb     (    414,  343)
        Arrays for rho mixing          79.10 Mb     ( 648000,   8)

     Check: negative/imaginary core charge=   -0.000012    0.000000

     Initial potential from superposition of free atoms
     Check: negative starting charge=(component1):   -0.001311
     Check: negative starting charge=(component2):   -0.000452

     starting charge  228.99983, renormalised to  237.00000

     negative rho (up, down):  0.136E-02 0.468E-03
     Number of +U iterations with fixed ns =  0
     Starting occupations:
 --- enter write_ns ---
 LDA+U parameters:
U( 2)     =  2.50000000
alpha( 2) =  0.00000000
atom    3   Tr[ns(na)] (up, down, total) =   5.00000  0.00000  5.00000
   spin  1
    eigenvalues: 
  1.000  1.000  1.000  1.000  1.000
    eigenvectors:
  1.000  0.000  0.000  0.000  0.000
  0.000  1.000  0.000  0.000  0.000
  0.000  0.000  1.000  0.000  0.000
  0.000  0.000  0.000  1.000  0.000
  0.000  0.000  0.000  0.000  1.000
    occupations:
  1.000  0.000  0.000  0.000  0.000
  0.000  1.000  0.000  0.000  0.000
  0.000  0.000  1.000  0.000  0.000
  0.000  0.000  0.000  1.000  0.000
  0.000  0.000  0.000  0.000  1.000
   spin  2
    eigenvalues: 
  0.000  0.000  0.000  0.000  0.000
    eigenvectors:
  1.000  0.000  0.000  0.000  0.000
  0.000  1.000  0.000  0.000  0.000
  0.000  0.000  1.000  0.000  0.000
  0.000  0.000  0.000  1.000  0.000
  0.000  0.000  0.000  0.000  1.000
    occupations:
  0.000  0.000  0.000  0.000  0.000
  0.000  0.000  0.000  0.000  0.000
  0.000  0.000  0.000  0.000  0.000
  0.000  0.000  0.000  0.000  0.000
  0.000  0.000  0.000  0.000  0.000
atomic mag. moment =     5.000000
atom    4   Tr[ns(na)] (up, down, total) =   5.00000  0.00000  5.00000
   spin  1
    eigenvalues: 
  1.000  1.000  1.000  1.000  1.000
    eigenvectors:
  1.000  0.000  0.000  0.000  0.000
  0.000  1.000  0.000  0.000  0.000
  0.000  0.000  1.000  0.000  0.000
  0.000  0.000  0.000  1.000  0.000
  0.000  0.000  0.000  0.000  1.000
    occupations:
  1.000  0.000  0.000  0.000  0.000
  0.000  1.000  0.000  0.000  0.000
  0.000  0.000  1.000  0.000  0.000
  0.000  0.000  0.000  1.000  0.000
  0.000  0.000  0.000  0.000  1.000
   spin  2
    eigenvalues: 
  0.000  0.000  0.000  0.000  0.000
    eigenvectors:
  1.000  0.000  0.000  0.000  0.000
  0.000  1.000  0.000  0.000  0.000
  0.000  0.000  1.000  0.000  0.000
  0.000  0.000  0.000  1.000  0.000
  0.000  0.000  0.000  0.000  1.000
    occupations:
  0.000  0.000  0.000  0.000  0.000
  0.000  0.000  0.000  0.000  0.000
  0.000  0.000  0.000  0.000  0.000
  0.000  0.000  0.000  0.000  0.000
  0.000  0.000  0.000  0.000  0.000
atomic mag. moment =     5.000000
atom    9   Tr[ns(na)] (up, down, total) =   5.00000  0.00000  5.00000
   spin  1
    eigenvalues: 
  1.000  1.000  1.000  1.000  1.000
    eigenvectors:
  1.000  0.000  0.000  0.000  0.000
  0.000  1.000  0.000  0.000  0.000
  0.000  0.000  1.000  0.000  0.000
  0.000  0.000  0.000  1.000  0.000
  0.000  0.000  0.000  0.000  1.000
    occupations:
  1.000  0.000  0.000  0.000  0.000
  0.000  1.000  0.000  0.000  0.000
  0.000  0.000  1.000  0.000  0.000
  0.000  0.000  0.000  1.000  0.000
  0.000  0.000  0.000  0.000  1.000
   spin  2
    eigenvalues: 
  0.000  0.000  0.000  0.000  0.000
    eigenvectors:
  1.000  0.000  0.000  0.000  0.000
  0.000  1.000  0.000  0.000  0.000
  0.000  0.000  1.000  0.000  0.000
  0.000  0.000  0.000  1.000  0.000
  0.000  0.000  0.000  0.000  1.000
    occupations:
  0.000  0.000  0.000  0.000  0.000
  0.000  0.000  0.000  0.000  0.000
  0.000  0.000  0.000  0.000  0.000
  0.000  0.000  0.000  0.000  0.000
  0.000  0.000  0.000  0.000  0.000
atomic mag. moment =     5.000000
atom   10   Tr[ns(na)] (up, down, total) =   5.00000  0.00000  5.00000
   spin  1
    eigenvalues: 
  1.000  1.000  1.000  1.000  1.000
    eigenvectors:
  1.000  0.000  0.000  0.000  0.000
  0.000  1.000  0.000  0.000  0.000
  0.000  0.000  1.000  0.000  0.000
  0.000  0.000  0.000  1.000  0.000
  0.000  0.000  0.000  0.000  1.000
    occupations:
  1.000  0.000  0.000  0.000  0.000
  0.000  1.000  0.000  0.000  0.000
  0.000  0.000  1.000  0.000  0.000
  0.000  0.000  0.000  1.000  0.000
  0.000  0.000  0.000  0.000  1.000
   spin  2
    eigenvalues: 
  0.000  0.000  0.000  0.000  0.000
    eigenvectors:
  1.000  0.000  0.000  0.000  0.000
  0.000  1.000  0.000  0.000  0.000
  0.000  0.000  1.000  0.000  0.000
  0.000  0.000  0.000  1.000  0.000
  0.000  0.000  0.000  0.000  1.000
    occupations:
  0.000  0.000  0.000  0.000  0.000
  0.000  0.000  0.000  0.000  0.000
  0.000  0.000  0.000  0.000  0.000
  0.000  0.000  0.000  0.000  0.000
  0.000  0.000  0.000  0.000  0.000
atomic mag. moment =     5.000000
atom   16   Tr[ns(na)] (up, down, total) =   5.00000  0.00000  5.00000
   spin  1
    eigenvalues: 
  1.000  1.000  1.000  1.000  1.000
    eigenvectors:
  1.000  0.000  0.000  0.000  0.000
  0.000  1.000  0.000  0.000  0.000
  0.000  0.000  1.000  0.000  0.000
  0.000  0.000  0.000  1.000  0.000
  0.000  0.000  0.000  0.000  1.000
    occupations:
  1.000  0.000  0.000  0.000  0.000
  0.000  1.000  0.000  0.000  0.000
  0.000  0.000  1.000  0.000  0.000
  0.000  0.000  0.000  1.000  0.000
  0.000  0.000  0.000  0.000  1.000
   spin  2
    eigenvalues: 
  0.000  0.000  0.000  0.000  0.000
    eigenvectors:
  1.000  0.000  0.000  0.000  0.000
  0.000  1.000  0.000  0.000  0.000
  0.000  0.000  1.000  0.000  0.000
  0.000  0.000  0.000  1.000  0.000
  0.000  0.000  0.000  0.000  1.000
    occupations:
  0.000  0.000  0.000  0.000  0.000
  0.000  0.000  0.000  0.000  0.000
  0.000  0.000  0.000  0.000  0.000
  0.000  0.000  0.000  0.000  0.000
  0.000  0.000  0.000  0.000  0.000
atomic mag. moment =     5.000000
atom   17   Tr[ns(na)] (up, down, total) =   5.00000  0.00000  5.00000
   spin  1
    eigenvalues: 
  1.000  1.000  1.000  1.000  1.000
    eigenvectors:
  1.000  0.000  0.000  0.000  0.000
  0.000  1.000  0.000  0.000  0.000
  0.000  0.000  1.000  0.000  0.000
  0.000  0.000  0.000  1.000  0.000
  0.000  0.000  0.000  0.000  1.000
    occupations:
  1.000  0.000  0.000  0.000  0.000
  0.000  1.000  0.000  0.000  0.000
  0.000  0.000  1.000  0.000  0.000
  0.000  0.000  0.000  1.000  0.000
  0.000  0.000  0.000  0.000  1.000
   spin  2
    eigenvalues: 
  0.000  0.000  0.000  0.000  0.000
    eigenvectors:
  1.000  0.000  0.000  0.000  0.000
  0.000  1.000  0.000  0.000  0.000
  0.000  0.000  1.000  0.000  0.000
  0.000  0.000  0.000  1.000  0.000
  0.000  0.000  0.000  0.000  1.000
    occupations:
  0.000  0.000  0.000  0.000  0.000
  0.000  0.000  0.000  0.000  0.000
  0.000  0.000  0.000  0.000  0.000
  0.000  0.000  0.000  0.000  0.000
  0.000  0.000  0.000  0.000  0.000
atomic mag. moment =     5.000000
atom   22   Tr[ns(na)] (up, down, total) =   5.00000  0.00000  5.00000
   spin  1
    eigenvalues: 
  1.000  1.000  1.000  1.000  1.000
    eigenvectors:
  1.000  0.000  0.000  0.000  0.000
  0.000  1.000  0.000  0.000  0.000
  0.000  0.000  1.000  0.000  0.000
  0.000  0.000  0.000  1.000  0.000
  0.000  0.000  0.000  0.000  1.000
    occupations:
  1.000  0.000  0.000  0.000  0.000
  0.000  1.000  0.000  0.000  0.000
  0.000  0.000  1.000  0.000  0.000
  0.000  0.000  0.000  1.000  0.000
  0.000  0.000  0.000  0.000  1.000
   spin  2
    eigenvalues: 
  0.000  0.000  0.000  0.000  0.000
    eigenvectors:
  1.000  0.000  0.000  0.000  0.000
  0.000  1.000  0.000  0.000  0.000
  0.000  0.000  1.000  0.000  0.000
  0.000  0.000  0.000  1.000  0.000
  0.000  0.000  0.000  0.000  1.000
    occupations:
  0.000  0.000  0.000  0.000  0.000
  0.000  0.000  0.000  0.000  0.000
  0.000  0.000  0.000  0.000  0.000
  0.000  0.000  0.000  0.000  0.000
  0.000  0.000  0.000  0.000  0.000
atomic mag. moment =     5.000000
atom   23   Tr[ns(na)] (up, down, total) =   5.00000  0.00000  5.00000
   spin  1
    eigenvalues: 
  1.000  1.000  1.000  1.000  1.000
    eigenvectors:
  1.000  0.000  0.000  0.000  0.000
  0.000  1.000  0.000  0.000  0.000
  0.000  0.000  1.000  0.000  0.000
  0.000  0.000  0.000  1.000  0.000
  0.000  0.000  0.000  0.000  1.000
    occupations:
  1.000  0.000  0.000  0.000  0.000
  0.000  1.000  0.000  0.000  0.000
  0.000  0.000  1.000  0.000  0.000
  0.000  0.000  0.000  1.000  0.000
  0.000  0.000  0.000  0.000  1.000
   spin  2
    eigenvalues: 
  0.000  0.000  0.000  0.000  0.000
    eigenvectors:
  1.000  0.000  0.000  0.000  0.000
  0.000  1.000  0.000  0.000  0.000
  0.000  0.000  1.000  0.000  0.000
  0.000  0.000  0.000  1.000  0.000
  0.000  0.000  0.000  0.000  1.000
    occupations:
  0.000  0.000  0.000  0.000  0.000
  0.000  0.000  0.000  0.000  0.000
  0.000  0.000  0.000  0.000  0.000
  0.000  0.000  0.000  0.000  0.000
  0.000  0.000  0.000  0.000  0.000
atomic mag. moment =     5.000000
N of occupied +U levels =  40.0000000
 --- exit write_ns ---
 Atomic wfc used for LDA+U Projector are NOT orthogonalized
     Starting wfc are  165 randomized atomic wfcs

     total cpu time spent up to now is      704.0 secs

     per-process dynamical memory:   512.5 Mb

     Self-consistent Calculation

     iteration #  1     ecut=    40.00 Ry     beta=0.30
     Davidson diagonalization with overlap
     ethr =  1.00E-02,  avg # of iterations =  5.5
 --- enter write_ns ---
 LDA+U parameters:
U( 2)     =  2.50000000
alpha( 2) =  0.00000000
atom    3   Tr[ns(na)] (up, down, total) =   3.96500  0.62882  4.59382
   spin  1
    eigenvalues: 
  0.586  0.614  0.846  0.949  0.970
    eigenvectors:
  0.243  0.000  0.009  0.740  0.007
  0.001  0.996  0.000  0.000  0.003
  0.000  0.000  0.983  0.014  0.004
  0.755  0.001  0.004  0.238  0.002
  0.000  0.003  0.005  0.008  0.984
    occupations:
  0.860  0.003  0.011 -0.155 -0.003
  0.003  0.615  0.000  0.000 -0.019
  0.011  0.000  0.847 -0.004  0.008
 -0.155  0.000 -0.004  0.674  0.001
 -0.003 -0.019  0.008  0.001  0.968
   spin  2
    eigenvalues: 
  0.064  0.073  0.074  0.199  0.219
    eigenvectors:
  0.642  0.056  0.114  0.000  0.188
  0.000  0.001  0.000  0.999  0.000
  0.205  0.243  0.552  0.000  0.000
  0.153  0.012  0.023  0.000  0.812
  0.000  0.688  0.311  0.001  0.000
    occupations:
  0.095 -0.001 -0.003  0.060  0.000
 -0.001  0.199  0.000  0.000  0.004
 -0.003  0.000  0.072  0.003  0.000
  0.060  0.000  0.003  0.190  0.000
  0.000  0.004  0.000  0.000  0.073
atomic mag. moment =     3.336177
atom    4   Tr[ns(na)] (up, down, total) =   3.76647  0.66056  4.42703
   spin  1
    eigenvalues: 
  0.518  0.626  0.801  0.851  0.971
    eigenvectors:
  0.000  0.891  0.106  0.000  0.002
  0.000  0.102  0.877  0.021  0.000
  0.000  0.004  0.017  0.977  0.002
  0.000  0.002  0.000  0.002  0.995
  1.000  0.000  0.000  0.000  0.000
    occupations:
  0.645  0.053  0.011  0.017  0.000
  0.053  0.784 -0.011 -0.003  0.000
  0.011 -0.011  0.850 -0.007  0.000
  0.017 -0.003 -0.007  0.970  0.000
  0.000  0.000  0.000  0.000  0.518
   spin  2
    eigenvalues: 
  0.064  0.077  0.089  0.201  0.229
    eigenvectors:
  0.009  0.002  0.000  0.000  0.989
  0.004  0.887  0.107  0.000  0.002
  0.001  0.106  0.893  0.000  0.000
  0.986  0.005  0.000  0.000  0.008
  0.000  0.000  0.000  1.000  0.000
    occupations:
  0.227  0.007  0.002 -0.015  0.000
  0.007  0.079 -0.004  0.000  0.000
  0.002 -0.004  0.088  0.000  0.000
 -0.015  0.000  0.000  0.066  0.000
  0.000  0.000  0.000  0.000  0.201
atomic mag. moment =     3.105911
atom    9   Tr[ns(na)] (up, down, total) =   4.08993  0.68937  4.77930
   spin  1
    eigenvalues: 
  0.612  0.624  0.924  0.955  0.975
    eigenvectors:
  0.190  0.000  0.000  0.000  0.809
  0.000  1.000  0.000  0.000  0.000
  0.000  0.000  0.198  0.801  0.001
  0.809  0.000  0.000  0.001  0.190
  0.000  0.000  0.802  0.198  0.000
    occupations:
  0.906  0.001 -0.004 -0.143  0.000
  0.001  0.624 -0.001 -0.001  0.000
 -0.004 -0.001  0.949 -0.006  0.012
 -0.143 -0.001 -0.006  0.681  0.000
  0.000  0.000  0.012  0.000  0.930
   spin  2
    eigenvalues: 
  0.079  0.081  0.086  0.220  0.223
    eigenvectors:
  0.831  0.017  0.000  0.026  0.125
  0.000  0.000  0.000  0.834  0.166
  0.019  0.968  0.013  0.000  0.000
  0.150  0.001  0.000  0.139  0.709
  0.000  0.013  0.987  0.000  0.000
    occupations:
  0.101  0.000  0.001  0.051  0.000
  0.000  0.220  0.000 -0.001  0.000
  0.001  0.000  0.081  0.003 -0.001
  0.051 -0.001  0.003  0.201  0.000
  0.000  0.000 -0.001  0.000  0.086
atomic mag. moment =     3.400561
atom   10   Tr[ns(na)] (up, down, total) =   4.21991  0.57610  4.79601
   spin  1
    eigenvalues: 
  0.606  0.665  0.981  0.984  0.985
    eigenvectors:
  0.000  0.996  0.001  0.003  0.001
  0.000  0.000  0.732  0.253  0.014
  0.001  0.000  0.001  0.074  0.924
  0.000  0.004  0.266  0.670  0.060
  0.999  0.000  0.000  0.000  0.001
    occupations:
  0.666  0.003  0.006  0.020  0.000
  0.003  0.982  0.000  0.001 -0.003
  0.006  0.000  0.984  0.000 -0.011
  0.020  0.001  0.000  0.982  0.001
  0.000 -0.003 -0.011  0.001  0.607
   spin  2
    eigenvalues: 
  0.065  0.070  0.078  0.163  0.201
    eigenvectors:
  0.018  0.000  0.000  0.981  0.000
  0.003  0.001  0.996  0.000  0.000
  0.009  0.990  0.000  0.000  0.000
  0.969  0.009  0.003  0.019  0.000
  0.000  0.000  0.000  0.000  0.999
    occupations:
  0.161 -0.001 -0.001 -0.013  0.000
 -0.001  0.078  0.000  0.001  0.003
 -0.001  0.000  0.070  0.000  0.002
 -0.013  0.001  0.000  0.066  0.000
  0.000  0.003  0.002  0.000  0.201
atomic mag. moment =     3.643816
atom   16   Tr[ns(na)] (up, down, total) =   3.96040  0.62888  4.58928
   spin  1
    eigenvalues: 
  0.586  0.613  0.843  0.950  0.969
    eigenvectors:
  0.240  0.000  0.009  0.730  0.020
  0.001  0.996  0.000  0.000  0.003
  0.000  0.000  0.986  0.012  0.002
  0.758  0.001  0.004  0.230  0.006
  0.000  0.003  0.001  0.028  0.969
    occupations:
  0.862 -0.002  0.012 -0.155  0.003
 -0.002  0.613  0.000  0.000 -0.019
  0.012  0.000  0.844 -0.004  0.003
 -0.155  0.000 -0.004  0.673 -0.001
  0.003 -0.019  0.003 -0.001  0.968
   spin  2
    eigenvalues: 
  0.064  0.073  0.074  0.198  0.219
    eigenvectors:
  0.657  0.049  0.107  0.000  0.188
  0.000  0.001  0.000  0.999  0.000
  0.187  0.241  0.572  0.000  0.000
  0.156  0.010  0.022  0.000  0.812
  0.000  0.700  0.299  0.001  0.000
    occupations:
  0.095  0.001 -0.003  0.060  0.000
  0.001  0.198  0.000  0.000  0.004
 -0.003  0.000  0.072  0.003  0.000
  0.060  0.000  0.003  0.191  0.000
  0.000  0.004  0.000  0.000  0.073
atomic mag. moment =     3.331515
atom   17   Tr[ns(na)] (up, down, total) =   3.75991  0.65778  4.41770
   spin  1
    eigenvalues: 
  0.516  0.623  0.803  0.848  0.970
    eigenvectors:
  0.000  0.894  0.103  0.000  0.003
  0.000  0.098  0.869  0.033  0.000
  0.000  0.005  0.028  0.965  0.002
  0.000  0.003  0.000  0.002  0.995
  1.000  0.000  0.000  0.000  0.000
    occupations:
  0.643  0.053  0.012  0.018  0.000
  0.053  0.787 -0.012 -0.005  0.000
  0.012 -0.012  0.846 -0.007  0.001
  0.018 -0.005 -0.007  0.969  0.000
  0.000  0.000  0.001  0.000  0.516
   spin  2
    eigenvalues: 
  0.064  0.077  0.088  0.200  0.228
    eigenvectors:
  0.009  0.001  0.000  0.000  0.989
  0.007  0.880  0.110  0.000  0.002
  0.001  0.110  0.890  0.000  0.000
  0.983  0.009  0.000  0.000  0.008
  0.000  0.000  0.000  1.000  0.000
    occupations:
  0.226  0.007  0.002 -0.015  0.000
  0.007  0.078 -0.004  0.000  0.000
  0.002 -0.004  0.087  0.000  0.000
 -0.015  0.000  0.000  0.065  0.000
  0.000  0.000  0.000  0.000  0.200
atomic mag. moment =     3.102129
atom   22   Tr[ns(na)] (up, down, total) =   3.60181  0.79561  4.39741
   spin  1
    eigenvalues: 
  0.607  0.620  0.728  0.803  0.845
    eigenvectors:
  0.047  0.012  0.000  0.880  0.061
  0.307  0.692  0.000  0.001  0.000
  0.000  0.000  0.003  0.064  0.932
  0.646  0.296  0.000  0.055  0.004
  0.000  0.000  0.997  0.000  0.003
    occupations:
  0.794  0.007 -0.010 -0.046 -0.001
  0.007  0.616  0.001  0.004  0.001
 -0.010  0.001  0.842  0.002  0.007
 -0.046  0.004  0.002  0.622  0.001
 -0.001  0.001  0.007  0.001  0.728
   spin  2
    eigenvalues: 
  0.084  0.117  0.120  0.231  0.244
    eigenvectors:
  0.000  0.974  0.009  0.001  0.016
  0.000  0.000  0.000  0.971  0.029
  0.998  0.000  0.002  0.000  0.000
  0.000  0.017  0.000  0.028  0.955
  0.002  0.009  0.989  0.000  0.000
    occupations:
  0.119 -0.001  0.000  0.016  0.000
 -0.001  0.232  0.000  0.002  0.000
  0.000  0.000  0.084  0.002  0.002
  0.016  0.002  0.002  0.241  0.000
  0.000  0.000  0.002  0.000  0.120
atomic mag. moment =     2.806198
atom   23   Tr[ns(na)] (up, down, total) =   4.05360  0.68455  4.73815
   spin  1
    eigenvalues: 
  0.539  0.653  0.921  0.963  0.977
    eigenvectors:
  0.000  0.966  0.000  0.002  0.031
  0.000  0.000  0.999  0.000  0.000
  0.001  0.028  0.000  0.020  0.950
  0.000  0.005  0.000  0.978  0.017
  0.998  0.000  0.000  0.000  0.001
    occupations:
  0.664 -0.006  0.054  0.022  0.001
 -0.006  0.921  0.001  0.001 -0.006
  0.054  0.001  0.967 -0.002  0.014
  0.022  0.001 -0.002  0.962 -0.001
  0.001 -0.006  0.014 -0.001  0.540
   spin  2
    eigenvalues: 
  0.061  0.065  0.130  0.201  0.227
    eigenvectors:
  0.001  0.006  0.000  0.000  0.993
  0.000  0.000  0.999  0.001  0.000
  0.678  0.321  0.000  0.000  0.000
  0.321  0.673  0.000  0.000  0.006
  0.000  0.000  0.001  0.999  0.000
    occupations:
  0.226  0.001 -0.003 -0.013  0.000
  0.001  0.131  0.000  0.000 -0.002
 -0.003  0.000  0.063  0.002 -0.002
 -0.013  0.000  0.002  0.065  0.000
  0.000 -0.002 -0.002  0.000  0.200
atomic mag. moment =     3.369057
N of occupied +U levels =  36.7387012
 --- exit write_ns ---

     negative rho (up, down):  0.157E-02 0.613E-03

     total cpu time spent up to now is     1453.9 secs

     total energy              =   -2050.11180745 Ry
     Harris-Foulkes estimate   =   -2054.60291191 Ry
     estimated scf accuracy    <      19.58832735 Ry

     total magnetization       =    15.00 Bohr mag/cell
     absolute magnetization    =    36.92 Bohr mag/cell

     iteration #  2     ecut=    40.00 Ry     beta=0.30
     Davidson diagonalization with overlap
     ethr =  8.27E-03,  avg # of iterations =  3.9

     negative rho (up, down):  0.308E-02 0.113E-05

     total cpu time spent up to now is     1827.0 secs

     total energy              =   -2049.85619006 Ry
     Harris-Foulkes estimate   =   -2059.62957641 Ry
     estimated scf accuracy    <      59.03980695 Ry

     total magnetization       =    15.00 Bohr mag/cell
     absolute magnetization    =    29.01 Bohr mag/cell

     iteration #  3     ecut=    40.00 Ry     beta=0.30
     Davidson diagonalization with overlap
     ethr =  8.27E-03,  avg # of iterations =  2.4

     negative rho (up, down):  0.486E-02 0.142E-04

     total cpu time spent up to now is     2161.2 secs

     total energy              =   -2055.67670383 Ry
     Harris-Foulkes estimate   =   -2056.34753555 Ry
     estimated scf accuracy    <       8.37881689 Ry

     total magnetization       =    15.00 Bohr mag/cell
     absolute magnetization    =    29.19 Bohr mag/cell

     iteration #  4     ecut=    40.00 Ry     beta=0.30
     Davidson diagonalization with overlap
     ethr =  3.54E-03,  avg # of iterations =  2.3

     negative rho (up, down):  0.697E-02 0.460E-04

     total cpu time spent up to now is     2502.8 secs

     total energy              =   -2055.86822446 Ry
     Harris-Foulkes estimate   =   -2056.79439690 Ry
     estimated scf accuracy    <      12.93842046 Ry

     total magnetization       =    15.00 Bohr mag/cell
     absolute magnetization    =    31.56 Bohr mag/cell

     iteration #  5     ecut=    40.00 Ry     beta=0.30
     Davidson diagonalization with overlap
     ethr =  3.54E-03,  avg # of iterations =  2.3

     negative rho (up, down):  0.311E-02 0.272E-05

     total cpu time spent up to now is     2834.8 secs

     total energy              =   -2056.81981053 Ry
     Harris-Foulkes estimate   =   -2056.78140818 Ry
     estimated scf accuracy    <       7.82815427 Ry

     total magnetization       =    15.00 Bohr mag/cell
     absolute magnetization    =    31.15 Bohr mag/cell

     iteration #  6     ecut=    40.00 Ry     beta=0.30
     Davidson diagonalization with overlap
     ethr =  3.30E-03,  avg # of iterations =  1.0

     negative rho (up, down):  0.229E-02 0.225E-06

     total cpu time spent up to now is     3146.2 secs

     total energy              =   -2057.42628334 Ry
     Harris-Foulkes estimate   =   -2057.51711666 Ry
     estimated scf accuracy    <       3.35683498 Ry

     total magnetization       =    15.00 Bohr mag/cell
     absolute magnetization    =    28.42 Bohr mag/cell

     iteration #  7     ecut=    40.00 Ry     beta=0.30
     Davidson diagonalization with overlap
     ethr =  1.42E-03,  avg # of iterations =  2.3

     negative rho (up, down):  0.333E-02 0.239E-04

     total cpu time spent up to now is     3484.7 secs

     total energy              =   -2057.68095100 Ry
     Harris-Foulkes estimate   =   -2057.66411704 Ry
     estimated scf accuracy    <       0.56864906 Ry

     total magnetization       =    15.00 Bohr mag/cell
     absolute magnetization    =    27.15 Bohr mag/cell

     iteration #  8     ecut=    40.00 Ry     beta=0.30
     Davidson diagonalization with overlap
     ethr =  2.40E-04,  avg # of iterations =  5.8

     negative rho (up, down):  0.433E-02 0.344E-03

     total cpu time spent up to now is     3898.7 secs

     total energy              =   -2057.73656621 Ry
     Harris-Foulkes estimate   =   -2057.74590823 Ry
     estimated scf accuracy    <       0.29743365 Ry

     total magnetization       =    15.00 Bohr mag/cell
     absolute magnetization    =    26.31 Bohr mag/cell

     iteration #  9     ecut=    40.00 Ry     beta=0.30
     Davidson diagonalization with overlap
     ethr =  1.25E-04,  avg # of iterations =  1.8

     negative rho (up, down):  0.440E-02 0.630E-03

     total cpu time spent up to now is     4221.2 secs

     total energy              =   -2057.75564478 Ry
     Harris-Foulkes estimate   =   -2057.77415067 Ry
     estimated scf accuracy    <       0.31114308 Ry

     total magnetization       =    15.00 Bohr mag/cell
     absolute magnetization    =    25.26 Bohr mag/cell

     iteration # 10     ecut=    40.00 Ry     beta=0.30
     Davidson diagonalization with overlap
     ethr =  1.25E-04,  avg # of iterations =  1.0

     negative rho (up, down):  0.448E-02 0.115E-02

     total cpu time spent up to now is     4529.2 secs

     total energy              =   -2057.77594585 Ry
     Harris-Foulkes estimate   =   -2057.77133816 Ry
     estimated scf accuracy    <       0.03957846 Ry

     total magnetization       =    15.00 Bohr mag/cell
     absolute magnetization    =    25.09 Bohr mag/cell

     iteration # 11     ecut=    40.00 Ry     beta=0.30
     Davidson diagonalization with overlap
     ethr =  1.67E-05,  avg # of iterations =  4.7

     negative rho (up, down):  0.466E-02 0.175E-02

     total cpu time spent up to now is     4894.8 secs

     total energy              =   -2057.78180197 Ry
     Harris-Foulkes estimate   =   -2057.78144379 Ry
     estimated scf accuracy    <       0.03937869 Ry

     total magnetization       =    15.00 Bohr mag/cell
     absolute magnetization    =    24.37 Bohr mag/cell

     iteration # 12     ecut=    40.00 Ry     beta=0.30
     Davidson diagonalization with overlap
     ethr =  1.66E-05,  avg # of iterations =  1.0

     negative rho (up, down):  0.466E-02 0.182E-02

     total cpu time spent up to now is     5219.6 secs

     total energy              =   -2057.78553996 Ry
     Harris-Foulkes estimate   =   -2057.78547348 Ry
     estimated scf accuracy    <       0.03200290 Ry

     total magnetization       =    15.00 Bohr mag/cell
     absolute magnetization    =    24.26 Bohr mag/cell

     iteration # 13     ecut=    40.00 Ry     beta=0.30
     Davidson diagonalization with overlap
     ethr =  1.35E-05,  avg # of iterations =  1.0

     negative rho (up, down):  0.485E-02 0.250E-02

     total cpu time spent up to now is     5532.0 secs

     total energy              =   -2057.79080775 Ry
     Harris-Foulkes estimate   =   -2057.78763278 Ry
     estimated scf accuracy    <       0.01672892 Ry

     total magnetization       =    15.00 Bohr mag/cell
     absolute magnetization    =    24.02 Bohr mag/cell

     iteration # 14     ecut=    40.00 Ry     beta=0.30
     Davidson diagonalization with overlap
     ethr =  7.06E-06,  avg # of iterations =  1.2

     negative rho (up, down):  0.508E-02 0.294E-02

     total cpu time spent up to now is     5850.6 secs

     total energy              =   -2057.79434438 Ry
     Harris-Foulkes estimate   =   -2057.79274889 Ry
     estimated scf accuracy    <       0.00683730 Ry

     total magnetization       =    15.00 Bohr mag/cell
     absolute magnetization    =    23.59 Bohr mag/cell

     iteration # 15     ecut=    40.00 Ry     beta=0.30
     Davidson diagonalization with overlap
     ethr =  2.88E-06,  avg # of iterations =  5.8

     negative rho (up, down):  0.518E-02 0.280E-02

     total cpu time spent up to now is     6228.5 secs

     total energy              =   -2057.79653842 Ry
     Harris-Foulkes estimate   =   -2057.79586465 Ry
     estimated scf accuracy    <       0.00896541 Ry

     total magnetization       =    15.00 Bohr mag/cell
     absolute magnetization    =    23.12 Bohr mag/cell

     iteration # 16     ecut=    40.00 Ry     beta=0.30
     Davidson diagonalization with overlap
     ethr =  2.88E-06,  avg # of iterations =  3.7

     negative rho (up, down):  0.512E-02 0.275E-02

     total cpu time spent up to now is     6588.5 secs

     total energy              =   -2057.79775934 Ry
     Harris-Foulkes estimate   =   -2057.79758880 Ry
     estimated scf accuracy    <       0.00240704 Ry

     total magnetization       =    15.00 Bohr mag/cell
     absolute magnetization    =    22.86 Bohr mag/cell

     iteration # 17     ecut=    40.00 Ry     beta=0.30
     Davidson diagonalization with overlap
     ethr =  1.02E-06,  avg # of iterations =  1.2

     negative rho (up, down):  0.508E-02 0.251E-02

     total cpu time spent up to now is     6900.9 secs

     total energy              =   -2057.79815687 Ry
     Harris-Foulkes estimate   =   -2057.79807774 Ry
     estimated scf accuracy    <       0.00220713 Ry

     total magnetization       =    15.00 Bohr mag/cell
     absolute magnetization    =    22.68 Bohr mag/cell

     iteration # 18     ecut=    40.00 Ry     beta=0.30
     Davidson diagonalization with overlap
     ethr =  9.31E-07,  avg # of iterations =  1.0

     negative rho (up, down):  0.500E-02 0.228E-02

     total cpu time spent up to now is     7216.6 secs

     total energy              =   -2057.79850614 Ry
     Harris-Foulkes estimate   =   -2057.79844688 Ry
     estimated scf accuracy    <       0.00119285 Ry

     total magnetization       =    15.00 Bohr mag/cell
     absolute magnetization    =    22.58 Bohr mag/cell

     iteration # 19     ecut=    40.00 Ry     beta=0.30
     Davidson diagonalization with overlap
     ethr =  5.03E-07,  avg # of iterations =  1.0

     negative rho (up, down):  0.492E-02 0.193E-02

     total cpu time spent up to now is     7522.8 secs

     total energy              =   -2057.79876941 Ry
     Harris-Foulkes estimate   =   -2057.79860711 Ry
     estimated scf accuracy    <       0.00029626 Ry

     total magnetization       =    15.00 Bohr mag/cell
     absolute magnetization    =    22.47 Bohr mag/cell

     iteration # 20     ecut=    40.00 Ry     beta=0.30
     Davidson diagonalization with overlap
     ethr =  1.25E-07,  avg # of iterations =  1.0

     negative rho (up, down):  0.486E-02 0.174E-02

     total cpu time spent up to now is     7851.3 secs

     total energy              =   -2057.79893988 Ry
     Harris-Foulkes estimate   =   -2057.79887199 Ry
     estimated scf accuracy    <       0.00027802 Ry

     total magnetization       =    15.00 Bohr mag/cell
     absolute magnetization    =    22.38 Bohr mag/cell

     iteration # 21     ecut=    40.00 Ry     beta=0.30
     Davidson diagonalization with overlap
     ethr =  1.17E-07,  avg # of iterations =  1.0

     negative rho (up, down):  0.482E-02 0.162E-02

     total cpu time spent up to now is     8167.2 secs

     total energy              =   -2057.79902487 Ry
     Harris-Foulkes estimate   =   -2057.79898348 Ry
     estimated scf accuracy    <       0.00014796 Ry

     total magnetization       =    15.00 Bohr mag/cell
     absolute magnetization    =    22.32 Bohr mag/cell

     iteration # 22     ecut=    40.00 Ry     beta=0.30
     Davidson diagonalization with overlap
     ethr =  6.24E-08,  avg # of iterations =  1.0

     negative rho (up, down):  0.479E-02 0.157E-02

     total cpu time spent up to now is     8477.2 secs

     total energy              =   -2057.79907115 Ry
     Harris-Foulkes estimate   =   -2057.79906579 Ry
     estimated scf accuracy    <       0.00018876 Ry

     total magnetization       =    15.00 Bohr mag/cell
     absolute magnetization    =    22.29 Bohr mag/cell

     iteration # 23     ecut=    40.00 Ry     beta=0.30
     Davidson diagonalization with overlap
     ethr =  6.24E-08,  avg # of iterations =  1.0

     negative rho (up, down):  0.479E-02 0.156E-02

     total cpu time spent up to now is     8784.0 secs

     total energy              =   -2057.79910087 Ry
     Harris-Foulkes estimate   =   -2057.79908814 Ry
     estimated scf accuracy    <       0.00005919 Ry

     total magnetization       =    15.00 Bohr mag/cell
     absolute magnetization    =    22.26 Bohr mag/cell

     iteration # 24     ecut=    40.00 Ry     beta=0.30
     Davidson diagonalization with overlap
     ethr =  2.50E-08,  avg # of iterations =  1.0

     negative rho (up, down):  0.479E-02 0.159E-02

     total cpu time spent up to now is     9110.0 secs

     total energy              =   -2057.79911842 Ry
     Harris-Foulkes estimate   =   -2057.79911307 Ry
     estimated scf accuracy    <       0.00003042 Ry

     total magnetization       =    15.00 Bohr mag/cell
     absolute magnetization    =    22.25 Bohr mag/cell

     iteration # 25     ecut=    40.00 Ry     beta=0.30
     Davidson diagonalization with overlap
     ethr =  1.28E-08,  avg # of iterations =  1.0

     negative rho (up, down):  0.480E-02 0.163E-02

     total cpu time spent up to now is     9421.7 secs

     total energy              =   -2057.79912599 Ry
     Harris-Foulkes estimate   =   -2057.79912228 Ry
     estimated scf accuracy    <       0.00002956 Ry

     total magnetization       =    15.00 Bohr mag/cell
     absolute magnetization    =    22.25 Bohr mag/cell

     iteration # 26     ecut=    40.00 Ry     beta=0.30
     Davidson diagonalization with overlap
     ethr =  1.25E-08,  avg # of iterations =  1.0

     negative rho (up, down):  0.481E-02 0.166E-02

     total cpu time spent up to now is     9725.1 secs

     total energy              =   -2057.79913152 Ry
     Harris-Foulkes estimate   =   -2057.79912946 Ry
     estimated scf accuracy    <       0.00001101 Ry

     total magnetization       =    15.00 Bohr mag/cell
     absolute magnetization    =    22.25 Bohr mag/cell

     iteration # 27     ecut=    40.00 Ry     beta=0.30
     Davidson diagonalization with overlap
     ethr =  4.64E-09,  avg # of iterations =  1.0

     negative rho (up, down):  0.482E-02 0.169E-02

     total cpu time spent up to now is    10035.2 secs

     total energy              =   -2057.79913370 Ry
     Harris-Foulkes estimate   =   -2057.79913332 Ry
     estimated scf accuracy    <       0.00002207 Ry

     total magnetization       =    15.00 Bohr mag/cell
     absolute magnetization    =    22.25 Bohr mag/cell

     iteration # 28     ecut=    40.00 Ry     beta=0.30
     Davidson diagonalization with overlap
     ethr =  4.64E-09,  avg # of iterations =  1.0

     negative rho (up, down):  0.483E-02 0.172E-02

     total cpu time spent up to now is    10365.0 secs

     total energy              =   -2057.79913656 Ry
     Harris-Foulkes estimate   =   -2057.79913486 Ry
     estimated scf accuracy    <       0.00000962 Ry

     total magnetization       =    15.00 Bohr mag/cell
     absolute magnetization    =    22.25 Bohr mag/cell

     iteration # 29     ecut=    40.00 Ry     beta=0.30
     Davidson diagonalization with overlap
     ethr =  4.06E-09,  avg # of iterations =  1.0

     negative rho (up, down):  0.484E-02 0.175E-02

     total cpu time spent up to now is    10675.3 secs

     total energy              =   -2057.79913874 Ry
     Harris-Foulkes estimate   =   -2057.79913766 Ry
     estimated scf accuracy    <       0.00000682 Ry

     total magnetization       =    15.00 Bohr mag/cell
     absolute magnetization    =    22.25 Bohr mag/cell

     iteration # 30     ecut=    40.00 Ry     beta=0.30
     Davidson diagonalization with overlap
     ethr =  2.88E-09,  avg # of iterations =  1.0

     negative rho (up, down):  0.484E-02 0.177E-02

     total cpu time spent up to now is    10987.4 secs

     total energy              =   -2057.79914040 Ry
     Harris-Foulkes estimate   =   -2057.79913937 Ry
     estimated scf accuracy    <       0.00000627 Ry

     total magnetization       =    15.00 Bohr mag/cell
     absolute magnetization    =    22.25 Bohr mag/cell

     iteration # 31     ecut=    40.00 Ry     beta=0.30
     Davidson diagonalization with overlap
     ethr =  2.64E-09,  avg # of iterations =  1.1

     negative rho (up, down):  0.484E-02 0.177E-02

     total cpu time spent up to now is    11302.8 secs

     total energy              =   -2057.79914131 Ry
     Harris-Foulkes estimate   =   -2057.79914104 Ry
     estimated scf accuracy    <       0.00000243 Ry

     total magnetization       =    15.00 Bohr mag/cell
     absolute magnetization    =    22.25 Bohr mag/cell

     iteration # 32     ecut=    40.00 Ry     beta=0.30
     Davidson diagonalization with overlap
     ethr =  1.02E-09,  avg # of iterations =  1.0

     negative rho (up, down):  0.484E-02 0.177E-02

     total cpu time spent up to now is    11624.1 secs

     total energy              =   -2057.79914236 Ry
     Harris-Foulkes estimate   =   -2057.79914151 Ry
     estimated scf accuracy    <       0.00000362 Ry

     total magnetization       =    15.00 Bohr mag/cell
     absolute magnetization    =    22.25 Bohr mag/cell

     iteration # 33     ecut=    40.00 Ry     beta=0.30
     Davidson diagonalization with overlap
     ethr =  1.02E-09,  avg # of iterations =  1.5

     negative rho (up, down):  0.484E-02 0.177E-02

     total cpu time spent up to now is    11942.4 secs

     total energy              =   -2057.79914316 Ry
     Harris-Foulkes estimate   =   -2057.79914280 Ry
     estimated scf accuracy    <       0.00000180 Ry

     total magnetization       =    15.00 Bohr mag/cell
     absolute magnetization    =    22.24 Bohr mag/cell

     iteration # 34     ecut=    40.00 Ry     beta=0.30
     Davidson diagonalization with overlap
     ethr =  7.61E-10,  avg # of iterations =  1.0

     negative rho (up, down):  0.484E-02 0.176E-02

     total cpu time spent up to now is    12256.3 secs

     total energy              =   -2057.79914393 Ry
     Harris-Foulkes estimate   =   -2057.79914334 Ry
     estimated scf accuracy    <       0.00000375 Ry

     total magnetization       =    15.00 Bohr mag/cell
     absolute magnetization    =    22.24 Bohr mag/cell

     iteration # 35     ecut=    40.00 Ry     beta=0.30
     Davidson diagonalization with overlap
     ethr =  7.61E-10,  avg # of iterations =  2.0

     negative rho (up, down):  0.484E-02 0.175E-02

     total cpu time spent up to now is    12572.2 secs

     total energy              =   -2057.79914498 Ry
     Harris-Foulkes estimate   =   -2057.79914426 Ry
     estimated scf accuracy    <       0.00000195 Ry

     total magnetization       =    15.00 Bohr mag/cell
     absolute magnetization    =    22.24 Bohr mag/cell

     iteration # 36     ecut=    40.00 Ry     beta=0.30
     Davidson diagonalization with overlap
     ethr =  7.61E-10,  avg # of iterations =  2.0

     negative rho (up, down):  0.484E-02 0.174E-02

     total cpu time spent up to now is    12909.2 secs

     total energy              =   -2057.79914570 Ry
     Harris-Foulkes estimate   =   -2057.79914553 Ry
     estimated scf accuracy    <       0.00000174 Ry

     total magnetization       =    15.00 Bohr mag/cell
     absolute magnetization    =    22.24 Bohr mag/cell

     iteration # 37     ecut=    40.00 Ry     beta=0.30
     Davidson diagonalization with overlap
     ethr =  7.36E-10,  avg # of iterations =  1.0

     negative rho (up, down):  0.484E-02 0.175E-02

     total cpu time spent up to now is    13254.1 secs

     total energy              =   -2057.79914626 Ry
     Harris-Foulkes estimate   =   -2057.79914580 Ry
     estimated scf accuracy    <       0.00000187 Ry

     total magnetization       =    15.00 Bohr mag/cell
     absolute magnetization    =    22.24 Bohr mag/cell

     iteration # 38     ecut=    40.00 Ry     beta=0.30
     Davidson diagonalization with overlap
     ethr =  7.36E-10,  avg # of iterations =  1.6

     negative rho (up, down):  0.483E-02 0.173E-02

     total cpu time spent up to now is    13579.7 secs

     total energy              =   -2057.79914719 Ry
     Harris-Foulkes estimate   =   -2057.79914663 Ry
     estimated scf accuracy    <       0.00000398 Ry

     total magnetization       =    15.00 Bohr mag/cell
     absolute magnetization    =    22.24 Bohr mag/cell

     iteration # 39     ecut=    40.00 Ry     beta=0.30
     Davidson diagonalization with overlap
     ethr =  7.36E-10,  avg # of iterations =  2.0

     negative rho (up, down):  0.484E-02 0.173E-02

     total cpu time spent up to now is    13896.5 secs

     total energy              =   -2057.79914821 Ry
     Harris-Foulkes estimate   =   -2057.79914822 Ry
     estimated scf accuracy    <       0.00000167 Ry

     total magnetization       =    15.00 Bohr mag/cell
     absolute magnetization    =    22.23 Bohr mag/cell

     iteration # 40     ecut=    40.00 Ry     beta=0.30
     Davidson diagonalization with overlap
     ethr =  7.06E-10,  avg # of iterations =  1.0

     negative rho (up, down):  0.484E-02 0.173E-02

     total cpu time spent up to now is    14214.2 secs

     total energy              =   -2057.79914820 Ry
     Harris-Foulkes estimate   =   -2057.79914828 Ry
     estimated scf accuracy    <       0.00000276 Ry

     total magnetization       =    15.00 Bohr mag/cell
     absolute magnetization    =    22.23 Bohr mag/cell

     iteration # 41     ecut=    40.00 Ry     beta=0.30
     Davidson diagonalization with overlap
     ethr =  7.06E-10,  avg # of iterations =  1.0

     negative rho (up, down):  0.484E-02 0.173E-02

     total cpu time spent up to now is    14521.8 secs

     total energy              =   -2057.79914823 Ry
     Harris-Foulkes estimate   =   -2057.79914827 Ry
     estimated scf accuracy    <       0.00000150 Ry

     total magnetization       =    15.00 Bohr mag/cell
     absolute magnetization    =    22.23 Bohr mag/cell

     iteration # 42     ecut=    40.00 Ry     beta=0.30
     Davidson diagonalization with overlap
     ethr =  6.35E-10,  avg # of iterations =  1.0

     negative rho (up, down):  0.484E-02 0.173E-02

     total cpu time spent up to now is    14828.4 secs

     total energy              =   -2057.79914852 Ry
     Harris-Foulkes estimate   =   -2057.79914832 Ry
     estimated scf accuracy    <       0.00000365 Ry

     total magnetization       =    15.00 Bohr mag/cell
     absolute magnetization    =    22.23 Bohr mag/cell

     iteration # 43     ecut=    40.00 Ry     beta=0.30
     Davidson diagonalization with overlap
     ethr =  6.35E-10,  avg # of iterations =  1.0

     negative rho (up, down):  0.484E-02 0.173E-02

     total cpu time spent up to now is    15140.0 secs

     total energy              =   -2057.79914750 Ry
     Harris-Foulkes estimate   =   -2057.79914864 Ry
     estimated scf accuracy    <       0.00000232 Ry

     total magnetization       =    15.00 Bohr mag/cell
     absolute magnetization    =    22.23 Bohr mag/cell

     iteration # 44     ecut=    40.00 Ry     beta=0.30
     Davidson diagonalization with overlap
     ethr =  6.35E-10,  avg # of iterations =  2.0

     negative rho (up, down):  0.484E-02 0.173E-02

     total cpu time spent up to now is    15472.1 secs

     total energy              =   -2057.79914831 Ry
     Harris-Foulkes estimate   =   -2057.79914784 Ry
     estimated scf accuracy    <       0.00000301 Ry

     total magnetization       =    15.00 Bohr mag/cell
     absolute magnetization    =    22.24 Bohr mag/cell

     iteration # 45     ecut=    40.00 Ry     beta=0.30
     Davidson diagonalization with overlap
     ethr =  6.35E-10,  avg # of iterations =  1.5

     negative rho (up, down):  0.484E-02 0.173E-02

     total cpu time spent up to now is    15790.1 secs

     total energy              =   -2057.79914877 Ry
     Harris-Foulkes estimate   =   -2057.79914852 Ry
     estimated scf accuracy    <       0.00000298 Ry

     total magnetization       =    15.00 Bohr mag/cell
     absolute magnetization    =    22.23 Bohr mag/cell

     iteration # 46     ecut=    40.00 Ry     beta=0.30
     Davidson diagonalization with overlap
     ethr =  6.35E-10,  avg # of iterations =  1.0

     negative rho (up, down):  0.484E-02 0.173E-02

     total cpu time spent up to now is    16094.7 secs

     total energy              =   -2057.79914870 Ry
     Harris-Foulkes estimate   =   -2057.79914883 Ry
     estimated scf accuracy    <       0.00000272 Ry

     total magnetization       =    15.00 Bohr mag/cell
     absolute magnetization    =    22.23 Bohr mag/cell

     iteration # 47     ecut=    40.00 Ry     beta=0.30
     Davidson diagonalization with overlap
     ethr =  6.35E-10,  avg # of iterations =  1.0

     negative rho (up, down):  0.484E-02 0.173E-02

     total cpu time spent up to now is    16411.0 secs

     total energy              =   -2057.79914786 Ry
     Harris-Foulkes estimate   =   -2057.79914871 Ry
     estimated scf accuracy    <       0.00000296 Ry

     total magnetization       =    15.00 Bohr mag/cell
     absolute magnetization    =    22.23 Bohr mag/cell

     iteration # 48     ecut=    40.00 Ry     beta=0.30
     Davidson diagonalization with overlap
     ethr =  6.35E-10,  avg # of iterations =  1.9

     negative rho (up, down):  0.484E-02 0.174E-02

     total cpu time spent up to now is    16740.2 secs

     total energy              =   -2057.79914695 Ry
     Harris-Foulkes estimate   =   -2057.79914808 Ry
     estimated scf accuracy    <       0.00000270 Ry

     total magnetization       =    15.00 Bohr mag/cell
     absolute magnetization    =    22.23 Bohr mag/cell

     iteration # 49     ecut=    40.00 Ry     beta=0.30
     Davidson diagonalization with overlap
     ethr =  6.35E-10,  avg # of iterations =  2.0

     negative rho (up, down):  0.484E-02 0.174E-02

     total cpu time spent up to now is    17062.3 secs

     total energy              =   -2057.79914681 Ry
     Harris-Foulkes estimate   =   -2057.79914735 Ry
     estimated scf accuracy    <       0.00000312 Ry

     total magnetization       =    15.00 Bohr mag/cell
     absolute magnetization    =    22.24 Bohr mag/cell

     iteration # 50     ecut=    40.00 Ry     beta=0.30
     Davidson diagonalization with overlap
     ethr =  6.35E-10,  avg # of iterations =  1.0

     negative rho (up, down):  0.484E-02 0.174E-02

     total cpu time spent up to now is    17367.8 secs

     total energy              =   -2057.79914653 Ry
     Harris-Foulkes estimate   =   -2057.79914697 Ry
     estimated scf accuracy    <       0.00000227 Ry

     total magnetization       =    15.00 Bohr mag/cell
     absolute magnetization    =    22.24 Bohr mag/cell

     iteration # 51     ecut=    40.00 Ry     beta=0.30
     Davidson diagonalization with overlap
     ethr =  6.35E-10,  avg # of iterations =  1.0

     negative rho (up, down):  0.484E-02 0.174E-02

     total cpu time spent up to now is    17683.8 secs

     total energy              =   -2057.79914601 Ry
     Harris-Foulkes estimate   =   -2057.79914673 Ry
     estimated scf accuracy    <       0.00000195 Ry

     total magnetization       =    15.00 Bohr mag/cell
     absolute magnetization    =    22.23 Bohr mag/cell

     iteration # 52     ecut=    40.00 Ry     beta=0.30
     Davidson diagonalization with overlap
     ethr =  6.35E-10,  avg # of iterations =  1.0

     negative rho (up, down):  0.484E-02 0.174E-02

     total cpu time spent up to now is    18003.0 secs

     total energy              =   -2057.79914571 Ry
     Harris-Foulkes estimate   =   -2057.79914622 Ry
     estimated scf accuracy    <       0.00000181 Ry

     total magnetization       =    15.00 Bohr mag/cell
     absolute magnetization    =    22.24 Bohr mag/cell

     iteration # 53     ecut=    40.00 Ry     beta=0.30
     Davidson diagonalization with overlap
     ethr =  6.35E-10,  avg # of iterations =  1.0

     negative rho (up, down):  0.484E-02 0.174E-02

     total cpu time spent up to now is    18314.5 secs

     total energy              =   -2057.79914618 Ry
     Harris-Foulkes estimate   =   -2057.79914598 Ry
     estimated scf accuracy    <       0.00000285 Ry

     total magnetization       =    15.00 Bohr mag/cell
     absolute magnetization    =    22.23 Bohr mag/cell

     iteration # 54     ecut=    40.00 Ry     beta=0.30
     Davidson diagonalization with overlap
     ethr =  6.35E-10,  avg # of iterations =  2.0

     negative rho (up, down):  0.484E-02 0.174E-02

     total cpu time spent up to now is    18631.2 secs

     total energy              =   -2057.79914688 Ry
     Harris-Foulkes estimate   =   -2057.79914663 Ry
     estimated scf accuracy    <       0.00000226 Ry

     total magnetization       =    15.00 Bohr mag/cell
     absolute magnetization    =    22.24 Bohr mag/cell

     iteration # 55     ecut=    40.00 Ry     beta=0.30
     Davidson diagonalization with overlap
     ethr =  6.35E-10,  avg # of iterations =  1.0

     negative rho (up, down):  0.484E-02 0.174E-02

     total cpu time spent up to now is    18943.3 secs

     total energy              =   -2057.79914716 Ry
     Harris-Foulkes estimate   =   -2057.79914694 Ry
     estimated scf accuracy    <       0.00000220 Ry

     total magnetization       =    15.00 Bohr mag/cell
     absolute magnetization    =    22.24 Bohr mag/cell

     iteration # 56     ecut=    40.00 Ry     beta=0.30
     Davidson diagonalization with overlap
     ethr =  6.35E-10,  avg # of iterations =  1.0

     negative rho (up, down):  0.484E-02 0.174E-02

     total cpu time spent up to now is    19245.8 secs

     total energy              =   -2057.79914720 Ry
     Harris-Foulkes estimate   =   -2057.79914721 Ry
     estimated scf accuracy    <       0.00000176 Ry

     total magnetization       =    15.00 Bohr mag/cell
     absolute magnetization    =    22.24 Bohr mag/cell

     iteration # 57     ecut=    40.00 Ry     beta=0.30
     Davidson diagonalization with overlap
     ethr =  6.35E-10,  avg # of iterations =  1.0

     negative rho (up, down):  0.484E-02 0.174E-02

     total cpu time spent up to now is    19566.0 secs

     total energy              =   -2057.79914743 Ry
     Harris-Foulkes estimate   =   -2057.79914724 Ry
     estimated scf accuracy    <       0.00000183 Ry

     total magnetization       =    15.00 Bohr mag/cell
     absolute magnetization    =    22.23 Bohr mag/cell

     iteration # 58     ecut=    40.00 Ry     beta=0.30
     Davidson diagonalization with overlap
     ethr =  6.35E-10,  avg # of iterations =  1.0

     negative rho (up, down):  0.484E-02 0.174E-02

     total cpu time spent up to now is    19884.2 secs

     total energy              =   -2057.79914694 Ry
     Harris-Foulkes estimate   =   -2057.79914747 Ry
     estimated scf accuracy    <       0.00000325 Ry

     total magnetization       =    15.00 Bohr mag/cell
     absolute magnetization    =    22.24 Bohr mag/cell

     iteration # 59     ecut=    40.00 Ry     beta=0.30
     Davidson diagonalization with overlap
     ethr =  6.35E-10,  avg # of iterations =  1.0

     negative rho (up, down):  0.484E-02 0.174E-02

     total cpu time spent up to now is    20190.9 secs

     total energy              =   -2057.79914732 Ry
     Harris-Foulkes estimate   =   -2057.79914706 Ry
     estimated scf accuracy    <       0.00000359 Ry

     total magnetization       =    15.00 Bohr mag/cell
     absolute magnetization    =    22.23 Bohr mag/cell

     iteration # 60     ecut=    40.00 Ry     beta=0.30
     Davidson diagonalization with overlap
     ethr =  6.35E-10,  avg # of iterations =  1.0

     negative rho (up, down):  0.484E-02 0.174E-02

     total cpu time spent up to now is    20494.7 secs

     total energy              =   -2057.79914589 Ry
     Harris-Foulkes estimate   =   -2057.79914744 Ry
     estimated scf accuracy    <       0.00000360 Ry

     total magnetization       =    15.00 Bohr mag/cell
     absolute magnetization    =    22.24 Bohr mag/cell

     iteration # 61     ecut=    40.00 Ry     beta=0.30
     Davidson diagonalization with overlap
     ethr =  6.35E-10,  avg # of iterations =  2.0

     negative rho (up, down):  0.484E-02 0.174E-02

     total cpu time spent up to now is    20821.3 secs

     total energy              =   -2057.79914648 Ry
     Harris-Foulkes estimate   =   -2057.79914640 Ry
     estimated scf accuracy    <       0.00000219 Ry

     total magnetization       =    15.00 Bohr mag/cell
     absolute magnetization    =    22.24 Bohr mag/cell

     iteration # 62     ecut=    40.00 Ry     beta=0.30
     Davidson diagonalization with overlap
     ethr =  6.35E-10,  avg # of iterations =  1.0

     negative rho (up, down):  0.484E-02 0.175E-02

     total cpu time spent up to now is    21134.7 secs

     total energy              =   -2057.79914244 Ry
     Harris-Foulkes estimate   =   -2057.79914655 Ry
     estimated scf accuracy    <       0.00000291 Ry

     total magnetization       =    15.00 Bohr mag/cell
     absolute magnetization    =    22.24 Bohr mag/cell

     iteration # 63     ecut=    40.00 Ry     beta=0.30
     Davidson diagonalization with overlap
     ethr =  6.35E-10,  avg # of iterations =  2.2

     negative rho (up, down):  0.484E-02 0.175E-02

     total cpu time spent up to now is    21461.1 secs

     total energy              =   -2057.79914485 Ry
     Harris-Foulkes estimate   =   -2057.79914452 Ry
     estimated scf accuracy    <       0.00000237 Ry

     total magnetization       =    15.00 Bohr mag/cell
     absolute magnetization    =    22.23 Bohr mag/cell

     iteration # 64     ecut=    40.00 Ry     beta=0.30
     Davidson diagonalization with overlap
     ethr =  6.35E-10,  avg # of iterations =  2.0

     negative rho (up, down):  0.484E-02 0.175E-02

     total cpu time spent up to now is    21786.2 secs

     total energy              =   -2057.79914556 Ry
     Harris-Foulkes estimate   =   -2057.79914584 Ry
     estimated scf accuracy    <       0.00000274 Ry

     total magnetization       =    15.00 Bohr mag/cell
     absolute magnetization    =    22.23 Bohr mag/cell

     iteration # 65     ecut=    40.00 Ry     beta=0.30
     Davidson diagonalization with overlap
     ethr =  6.35E-10,  avg # of iterations =  1.0

     negative rho (up, down):  0.484E-02 0.175E-02

     total cpu time spent up to now is    22104.0 secs

     total energy              =   -2057.79914550 Ry
     Harris-Foulkes estimate   =   -2057.79914561 Ry
     estimated scf accuracy    <       0.00000304 Ry

     total magnetization       =    15.00 Bohr mag/cell
     absolute magnetization    =    22.23 Bohr mag/cell

     iteration # 66     ecut=    40.00 Ry     beta=0.30
     Davidson diagonalization with overlap
     ethr =  6.35E-10,  avg # of iterations =  1.0

     negative rho (up, down):  0.484E-02 0.175E-02

     total cpu time spent up to now is    22412.9 secs

     total energy              =   -2057.79914459 Ry
     Harris-Foulkes estimate   =   -2057.79914556 Ry
     estimated scf accuracy    <       0.00000200 Ry

     total magnetization       =    15.00 Bohr mag/cell
     absolute magnetization    =    22.23 Bohr mag/cell

     iteration # 67     ecut=    40.00 Ry     beta=0.30
     Davidson diagonalization with overlap
     ethr =  6.35E-10,  avg # of iterations =  2.0

     negative rho (up, down):  0.484E-02 0.175E-02

     total cpu time spent up to now is    22730.6 secs

     total energy              =   -2057.79914456 Ry
     Harris-Foulkes estimate   =   -2057.79914506 Ry
     estimated scf accuracy    <       0.00000344 Ry

     total magnetization       =    15.00 Bohr mag/cell
     absolute magnetization    =    22.23 Bohr mag/cell

     iteration # 68     ecut=    40.00 Ry     beta=0.30
     Davidson diagonalization with overlap
     ethr =  6.35E-10,  avg # of iterations =  1.0

     negative rho (up, down):  0.484E-02 0.175E-02

     total cpu time spent up to now is    23042.6 secs

     total energy              =   -2057.79914304 Ry
     Harris-Foulkes estimate   =   -2057.79914482 Ry
     estimated scf accuracy    <       0.00000283 Ry

     total magnetization       =    15.00 Bohr mag/cell
     absolute magnetization    =    22.23 Bohr mag/cell

     iteration # 69     ecut=    40.00 Ry     beta=0.30
     Davidson diagonalization with overlap
     ethr =  6.35E-10,  avg # of iterations =  2.0

     negative rho (up, down):  0.484E-02 0.175E-02

     total cpu time spent up to now is    23373.9 secs

     total energy              =   -2057.79914402 Ry
     Harris-Foulkes estimate   =   -2057.79914369 Ry
     estimated scf accuracy    <       0.00000291 Ry

     total magnetization       =    15.00 Bohr mag/cell
     absolute magnetization    =    22.23 Bohr mag/cell

     iteration # 70     ecut=    40.00 Ry     beta=0.30
     Davidson diagonalization with overlap
     ethr =  6.35E-10,  avg # of iterations =  1.1

     negative rho (up, down):  0.484E-02 0.175E-02

     total cpu time spent up to now is    23688.4 secs

     total energy              =   -2057.79914299 Ry
     Harris-Foulkes estimate   =   -2057.79914417 Ry
     estimated scf accuracy    <       0.00000299 Ry

     total magnetization       =    15.00 Bohr mag/cell
     absolute magnetization    =    22.23 Bohr mag/cell

     iteration # 71     ecut=    40.00 Ry     beta=0.30
     Davidson diagonalization with overlap
     ethr =  6.35E-10,  avg # of iterations =  2.0

     negative rho (up, down):  0.484E-02 0.175E-02

     total cpu time spent up to now is    24008.2 secs

     total energy              =   -2057.79914358 Ry
     Harris-Foulkes estimate   =   -2057.79914334 Ry
     estimated scf accuracy    <       0.00000232 Ry

     total magnetization       =    15.00 Bohr mag/cell
     absolute magnetization    =    22.23 Bohr mag/cell

     iteration # 72     ecut=    40.00 Ry     beta=0.30
     Davidson diagonalization with overlap
     ethr =  6.35E-10,  avg # of iterations =  2.2

     negative rho (up, down):  0.484E-02 0.175E-02

     total cpu time spent up to now is    24337.8 secs

     total energy              =   -2057.79914446 Ry
     Harris-Foulkes estimate   =   -2057.79914519 Ry
     estimated scf accuracy    <       0.00000352 Ry

     total magnetization       =    15.00 Bohr mag/cell
     absolute magnetization    =    22.23 Bohr mag/cell

     iteration # 73     ecut=    40.00 Ry     beta=0.30
     Davidson diagonalization with overlap
     ethr =  6.35E-10,  avg # of iterations =  1.0

     negative rho (up, down):  0.484E-02 0.174E-02

     total cpu time spent up to now is    24647.2 secs

     total energy              =   -2057.79914495 Ry
     Harris-Foulkes estimate   =   -2057.79914473 Ry
     estimated scf accuracy    <       0.00000188 Ry

     total magnetization       =    15.00 Bohr mag/cell
     absolute magnetization    =    22.23 Bohr mag/cell

     iteration # 74     ecut=    40.00 Ry     beta=0.30
     Davidson diagonalization with overlap
     ethr =  6.35E-10,  avg # of iterations =  1.0

     negative rho (up, down):  0.484E-02 0.174E-02

     total cpu time spent up to now is    24963.0 secs

     total energy              =   -2057.79914444 Ry
     Harris-Foulkes estimate   =   -2057.79914527 Ry
     estimated scf accuracy    <       0.00000350 Ry

     total magnetization       =    15.00 Bohr mag/cell
     absolute magnetization    =    22.23 Bohr mag/cell

     iteration # 75     ecut=    40.00 Ry     beta=0.30
     Davidson diagonalization with overlap
     ethr =  6.35E-10,  avg # of iterations =  2.6

     negative rho (up, down):  0.484E-02 0.174E-02

     total cpu time spent up to now is    25302.0 secs

     total energy              =   -2057.79914728 Ry
     Harris-Foulkes estimate   =   -2057.79914806 Ry
     estimated scf accuracy    <       0.00000283 Ry

     total magnetization       =    15.00 Bohr mag/cell
     absolute magnetization    =    22.23 Bohr mag/cell

     iteration # 76     ecut=    40.00 Ry     beta=0.30
     Davidson diagonalization with overlap
     ethr =  6.35E-10,  avg # of iterations =  1.5

     negative rho (up, down):  0.484E-02 0.174E-02

     total cpu time spent up to now is    25618.0 secs

     total energy              =   -2057.79914359 Ry
     Harris-Foulkes estimate   =   -2057.79914751 Ry
     estimated scf accuracy    <       0.00000256 Ry

     total magnetization       =    15.00 Bohr mag/cell
     absolute magnetization    =    22.23 Bohr mag/cell

     iteration # 77     ecut=    40.00 Ry     beta=0.30
     Davidson diagonalization with overlap
     ethr =  6.35E-10,  avg # of iterations =  2.1

     negative rho (up, down):  0.484E-02 0.174E-02

     total cpu time spent up to now is    25946.8 secs

     total energy              =   -2057.79914587 Ry
     Harris-Foulkes estimate   =   -2057.79914560 Ry
     estimated scf accuracy    <       0.00000257 Ry

     total magnetization       =    15.00 Bohr mag/cell
     absolute magnetization    =    22.23 Bohr mag/cell

     iteration # 78     ecut=    40.00 Ry     beta=0.30
     Davidson diagonalization with overlap
     ethr =  6.35E-10,  avg # of iterations =  2.0

     negative rho (up, down):  0.484E-02 0.174E-02

     total cpu time spent up to now is    26277.9 secs

     total energy              =   -2057.79914431 Ry
     Harris-Foulkes estimate   =   -2057.79914704 Ry
     estimated scf accuracy    <       0.00000356 Ry

     total magnetization       =    15.00 Bohr mag/cell
     absolute magnetization    =    22.23 Bohr mag/cell

     iteration # 79     ecut=    40.00 Ry     beta=0.30
     Davidson diagonalization with overlap
     ethr =  6.35E-10,  avg # of iterations =  2.0

     negative rho (up, down):  0.484E-02 0.174E-02

     total cpu time spent up to now is    26599.0 secs

     total energy              =   -2057.79914544 Ry
     Harris-Foulkes estimate   =   -2057.79914551 Ry
     estimated scf accuracy    <       0.00000434 Ry

     total magnetization       =    15.00 Bohr mag/cell
     absolute magnetization    =    22.23 Bohr mag/cell

     iteration # 80     ecut=    40.00 Ry     beta=0.30
     Davidson diagonalization with overlap
     ethr =  6.35E-10,  avg # of iterations =  1.0

     negative rho (up, down):  0.484E-02 0.174E-02

     total cpu time spent up to now is    26904.0 secs

     total energy              =   -2057.79914519 Ry
     Harris-Foulkes estimate   =   -2057.79914551 Ry
     estimated scf accuracy    <       0.00000385 Ry

     total magnetization       =    15.00 Bohr mag/cell
     absolute magnetization    =    22.23 Bohr mag/cell

     iteration # 81     ecut=    40.00 Ry     beta=0.30
     Davidson diagonalization with overlap
     ethr =  6.35E-10,  avg # of iterations =  1.0

     negative rho (up, down):  0.484E-02 0.174E-02

     total cpu time spent up to now is    27220.2 secs

     total energy              =   -2057.79914530 Ry
     Harris-Foulkes estimate   =   -2057.79914534 Ry
     estimated scf accuracy    <       0.00000228 Ry

     total magnetization       =    15.00 Bohr mag/cell
     absolute magnetization    =    22.22 Bohr mag/cell

     iteration # 82     ecut=    40.00 Ry     beta=0.30
     Davidson diagonalization with overlap
     ethr =  6.35E-10,  avg # of iterations =  1.0

     negative rho (up, down):  0.484E-02 0.174E-02

     total cpu time spent up to now is    27535.0 secs

     total energy              =   -2057.79914400 Ry
     Harris-Foulkes estimate   =   -2057.79914557 Ry
     estimated scf accuracy    <       0.00000316 Ry

     total magnetization       =    15.00 Bohr mag/cell
     absolute magnetization    =    22.23 Bohr mag/cell

     iteration # 83     ecut=    40.00 Ry     beta=0.30
     Davidson diagonalization with overlap
     ethr =  6.35E-10,  avg # of iterations =  2.0

     negative rho (up, down):  0.484E-02 0.174E-02

     total cpu time spent up to now is    27854.0 secs

     total energy              =   -2057.79914312 Ry
     Harris-Foulkes estimate   =   -2057.79914464 Ry
     estimated scf accuracy    <       0.00000166 Ry

     total magnetization       =    15.00 Bohr mag/cell
     absolute magnetization    =    22.23 Bohr mag/cell

     iteration # 84     ecut=    40.00 Ry     beta=0.30
     Davidson diagonalization with overlap
     ethr =  6.35E-10,  avg # of iterations =  2.0

     negative rho (up, down):  0.484E-02 0.174E-02

     total cpu time spent up to now is    28179.1 secs

     total energy              =   -2057.79914420 Ry
     Harris-Foulkes estimate   =   -2057.79914366 Ry
     estimated scf accuracy    <       0.00000284 Ry

     total magnetization       =    15.00 Bohr mag/cell
     absolute magnetization    =    22.22 Bohr mag/cell

     iteration # 85     ecut=    40.00 Ry     beta=0.30
     Davidson diagonalization with overlap
     ethr =  6.35E-10,  avg # of iterations =  2.0

     negative rho (up, down):  0.484E-02 0.174E-02

     total cpu time spent up to now is    28503.4 secs

     total energy              =   -2057.79914438 Ry
     Harris-Foulkes estimate   =   -2057.79914465 Ry
     estimated scf accuracy    <       0.00000282 Ry

     total magnetization       =    15.00 Bohr mag/cell
     absolute magnetization    =    22.23 Bohr mag/cell

     iteration # 86     ecut=    40.00 Ry     beta=0.30
     Davidson diagonalization with overlap
     ethr =  6.35E-10,  avg # of iterations =  2.6

     negative rho (up, down):  0.484E-02 0.174E-02

     total cpu time spent up to now is    28840.5 secs

     total energy              =   -2057.79914730 Ry
     Harris-Foulkes estimate   =   -2057.79914691 Ry
     estimated scf accuracy    <       0.00000201 Ry

     total magnetization       =    15.00 Bohr mag/cell
     absolute magnetization    =    22.23 Bohr mag/cell

     iteration # 87     ecut=    40.00 Ry     beta=0.30
     Davidson diagonalization with overlap
     ethr =  6.35E-10,  avg # of iterations =  2.0

     negative rho (up, down):  0.484E-02 0.174E-02

     total cpu time spent up to now is    29164.8 secs

     total energy              =   -2057.79914267 Ry
     Harris-Foulkes estimate   =   -2057.79914841 Ry
     estimated scf accuracy    <       0.00000162 Ry

     total magnetization       =    15.00 Bohr mag/cell
     absolute magnetization    =    22.23 Bohr mag/cell

     iteration # 88     ecut=    40.00 Ry     beta=0.30
     Davidson diagonalization with overlap
     ethr =  6.35E-10,  avg # of iterations =  3.0

     negative rho (up, down):  0.484E-02 0.174E-02

     total cpu time spent up to now is    29528.0 secs

     total energy              =   -2057.79914797 Ry
     Harris-Foulkes estimate   =   -2057.79915418 Ry
     estimated scf accuracy    <       0.00000149 Ry

     total magnetization       =    15.00 Bohr mag/cell
     absolute magnetization    =    22.24 Bohr mag/cell

     iteration # 89     ecut=    40.00 Ry     beta=0.30
     Davidson diagonalization with overlap
     ethr =  6.28E-10,  avg # of iterations =  2.6

     negative rho (up, down):  0.484E-02 0.174E-02

     total cpu time spent up to now is    29869.6 secs

     total energy              =   -2057.79914481 Ry
     Harris-Foulkes estimate   =   -2057.79915107 Ry
     estimated scf accuracy    <       0.00000218 Ry

     total magnetization       =    15.00 Bohr mag/cell
     absolute magnetization    =    22.23 Bohr mag/cell

     iteration # 90     ecut=    40.00 Ry     beta=0.30
     Davidson diagonalization with overlap
     ethr =  6.28E-10,  avg # of iterations =  3.0

     negative rho (up, down):  0.484E-02 0.174E-02

     total cpu time spent up to now is    30243.4 secs

     total energy              =   -2057.79913379 Ry
     Harris-Foulkes estimate   =   -2057.79915788 Ry
     estimated scf accuracy    <       0.00000212 Ry

     total magnetization       =    15.00 Bohr mag/cell
     absolute magnetization    =    22.24 Bohr mag/cell

     iteration # 91     ecut=    40.00 Ry     beta=0.30
     Davidson diagonalization with overlap
     ethr =  6.28E-10,  avg # of iterations =  3.0

     negative rho (up, down):  0.484E-02 0.174E-02

     total cpu time spent up to now is    30612.7 secs

     total energy              =   -2057.79914928 Ry
     Harris-Foulkes estimate   =   -2057.79915022 Ry
     estimated scf accuracy    <       0.00000180 Ry

     total magnetization       =    15.00 Bohr mag/cell
     absolute magnetization    =    22.23 Bohr mag/cell

     iteration # 92     ecut=    40.00 Ry     beta=0.30
     Davidson diagonalization with overlap
     ethr =  6.28E-10,  avg # of iterations =  2.9

     negative rho (up, down):  0.484E-02 0.174E-02

     total cpu time spent up to now is    30948.2 secs

     total energy              =   -2057.79915437 Ry
     Harris-Foulkes estimate   =   -2057.79915408 Ry
     estimated scf accuracy    <       0.00000174 Ry

     total magnetization       =    15.00 Bohr mag/cell
     absolute magnetization    =    22.24 Bohr mag/cell

     iteration # 93     ecut=    40.00 Ry     beta=0.30
     Davidson diagonalization with overlap
     ethr =  6.28E-10,  avg # of iterations =  2.6

     negative rho (up, down):  0.484E-02 0.174E-02

     total cpu time spent up to now is    31301.3 secs

     total energy              =   -2057.79913074 Ry
     Harris-Foulkes estimate   =   -2057.79915767 Ry
     estimated scf accuracy    <       0.00000405 Ry

     total magnetization       =    15.00 Bohr mag/cell
     absolute magnetization    =    22.24 Bohr mag/cell

     iteration # 94     ecut=    40.00 Ry     beta=0.30
     Davidson diagonalization with overlap
     ethr =  6.28E-10,  avg # of iterations =  3.0

     negative rho (up, down):  0.484E-02 0.174E-02

     total cpu time spent up to now is    31675.4 secs

     total energy              =   -2057.79914998 Ry
     Harris-Foulkes estimate   =   -2057.79914951 Ry
     estimated scf accuracy    <       0.00000255 Ry

     total magnetization       =    15.00 Bohr mag/cell
     absolute magnetization    =    22.23 Bohr mag/cell

     iteration # 95     ecut=    40.00 Ry     beta=0.30
     Davidson diagonalization with overlap
     ethr =  6.28E-10,  avg # of iterations =  1.5

     negative rho (up, down):  0.484E-02 0.174E-02

     total cpu time spent up to now is    31988.9 secs

     total energy              =   -2057.79915049 Ry
     Harris-Foulkes estimate   =   -2057.79915013 Ry
     estimated scf accuracy    <       0.00000171 Ry

     total magnetization       =    15.00 Bohr mag/cell
     absolute magnetization    =    22.23 Bohr mag/cell

     iteration # 96     ecut=    40.00 Ry     beta=0.30
     Davidson diagonalization with overlap
     ethr =  6.28E-10,  avg # of iterations =  1.0

     negative rho (up, down):  0.484E-02 0.174E-02

     total cpu time spent up to now is    32304.7 secs

     total energy              =   -2057.79915118 Ry
     Harris-Foulkes estimate   =   -2057.79915057 Ry
     estimated scf accuracy    <       0.00000178 Ry

     total magnetization       =    15.00 Bohr mag/cell
     absolute magnetization    =    22.23 Bohr mag/cell

     iteration # 97     ecut=    40.00 Ry     beta=0.30
     Davidson diagonalization with overlap
     ethr =  6.28E-10,  avg # of iterations =  2.0

     negative rho (up, down):  0.484E-02 0.174E-02

     total cpu time spent up to now is    32640.0 secs

     total energy              =   -2057.79915059 Ry
     Harris-Foulkes estimate   =   -2057.79915152 Ry
     estimated scf accuracy    <       0.00000145 Ry

     total magnetization       =    15.00 Bohr mag/cell
     absolute magnetization    =    22.23 Bohr mag/cell

     iteration # 98     ecut=    40.00 Ry     beta=0.30
     Davidson diagonalization with overlap
     ethr =  6.13E-10,  avg # of iterations =  2.0

     negative rho (up, down):  0.484E-02 0.174E-02

     total cpu time spent up to now is    32959.1 secs

     total energy              =   -2057.79915034 Ry
     Harris-Foulkes estimate   =   -2057.79915078 Ry
     estimated scf accuracy    <       0.00000140 Ry

     total magnetization       =    15.00 Bohr mag/cell
     absolute magnetization    =    22.23 Bohr mag/cell

     iteration # 99     ecut=    40.00 Ry     beta=0.30
     Davidson diagonalization with overlap
     ethr =  5.89E-10,  avg # of iterations =  1.0

     negative rho (up, down):  0.484E-02 0.174E-02

     total cpu time spent up to now is    33267.8 secs

     total energy              =   -2057.79914769 Ry
     Harris-Foulkes estimate   =   -2057.79915044 Ry
     estimated scf accuracy    <       0.00000169 Ry

     total magnetization       =    15.00 Bohr mag/cell
     absolute magnetization    =    22.23 Bohr mag/cell

     iteration #100     ecut=    40.00 Ry     beta=0.30
     Davidson diagonalization with overlap
     ethr =  5.89E-10,  avg # of iterations =  2.0

     negative rho (up, down):  0.484E-02 0.174E-02

     total cpu time spent up to now is    33596.3 secs

     total energy              =   -2057.79914543 Ry
     Harris-Foulkes estimate   =   -2057.79914882 Ry
     estimated scf accuracy    <       0.00000216 Ry

     total magnetization       =    15.00 Bohr mag/cell
     absolute magnetization    =    22.23 Bohr mag/cell

     End of self-consistent calculation

     convergence NOT achieved after 100 iterations: stopping
 
     init_run     :    263.03s CPU    700.67s WALL (       1 calls)
     electrons    :  32454.56s CPU  32892.32s WALL (       1 calls)

     Called by init_run:
     wfcinit      :    199.76s CPU    636.92s WALL (       1 calls)
     potinit      :     11.11s CPU     11.25s WALL (       1 calls)

     Called by electrons:
     c_bands      :  19651.08s CPU  19915.28s WALL (     100 calls)
     sum_band     :   8050.17s CPU   8099.51s WALL (     100 calls)
     v_of_rho     :    350.09s CPU    365.79s WALL (     101 calls)
     newd         :   4226.00s CPU   4241.51s WALL (     101 calls)
     mix_rho      :     65.91s CPU     66.35s WALL (     100 calls)

     Called by c_bands:
     init_us_2    :     38.35s CPU     38.39s WALL (    1010 calls)
     cegterg      :  19224.56s CPU  19437.70s WALL (     500 calls)

     Called by *egterg:
     h_psi        :  10348.78s CPU  10383.21s WALL (    1362 calls)
     s_psi        :   1278.56s CPU   1278.96s WALL (    1367 calls)
     g_psi        :     35.24s CPU     35.25s WALL (     857 calls)
     cdiaghg      :   1845.89s CPU   1846.49s WALL (    1357 calls)

     Called by h_psi:
     add_vuspsi   :   1279.36s CPU   1279.90s WALL (    1362 calls)
     vhpsi        :   1259.78s CPU   1262.07s WALL (    1362 calls)

     General routines
     calbec       :   2897.94s CPU   2905.05s WALL (    3729 calls)
     fft          :    453.02s CPU    473.54s WALL (    3125 calls)
     ffts         :      6.29s CPU      6.36s WALL (     402 calls)
     fftw         :   6074.40s CPU   6117.37s WALL (  875868 calls)
     interpolate  :     51.93s CPU     52.24s WALL (     402 calls)
     davcio       :      0.08s CPU    450.51s WALL (    1020 calls)
 
     Parallel routines
     fft_scatter  :   2427.87s CPU   2464.35s WALL (  879395 calls)
     Hubbard U routines
     new_ns       :    282.19s CPU    291.58s WALL (     100 calls)
     vhpsi        :   1259.78s CPU   1262.07s WALL (    1362 calls)
 
     PWSCF        :     9h 5m CPU        9h20m WALL

 
   This run was terminated on:  18: 9:16  11Aug2014            

=------------------------------------------------------------------------------=
   JOB DONE.
=------------------------------------------------------------------------------=
1
1
1
1
1
1
1
1
1
1
1
1
1
1
1
1
