loading modules
dropbox is Dropbox isn't running!

     Program PWSCF v.5.0.2 (svn rev. 9656) starts on  8Aug2014 at 18: 7: 9 

     This program is part of the open-source Quantum ESPRESSO suite
     for quantum simulation of materials; please cite
         "P. Giannozzi et al., J. Phys.:Condens. Matter 21 395502 (2009);
          URL http://www.quantum-espresso.org", 
     in publications or presentations arising from this work. More details at
     http://www.quantum-espresso.org/quote.php

     Parallel version (MPI), running on    16 processors
     K-points division:     npool     =       4
     R & G space division:  proc/nbgrp/npool/nimage =       4

     Current dimensions of program PWSCF are:
     Max number of different atomic species (ntypx) = 10
     Max number of k-points (npk) =  40000
     Max angular momentum in pseudopotentials (lmaxx) =  3
     Reading input from pwscf.in
Warning: card &CELL ignored
Warning: card / ignored

     Subspace diagonalization in iterative solution of the eigenvalue problem:
     a serial algorithm will be used

 
     Parallelization info
     --------------------
     sticks:   dense  smooth     PW     G-vecs:    dense   smooth      PW
     Min        1274     408    116               299662    54238    8133
     Max        1275     409    117               299663    54251    8135
     Sum        5097    1635    467              1198649   216969   32535
 


     bravais-lattice index     =            0
     lattice parameter (alat)  =      10.9604  a.u.
     unit-cell volume          =    6350.6732 (a.u.)^3
     number of atoms/cell      =           33
     number of atomic types    =            3
     number of electrons       =       237.00 (up: 126.00, down: 111.00)
     number of Kohn-Sham states=          343
     kinetic-energy cutoff     =      40.0000  Ry
     charge density cutoff     =     500.0000  Ry
     convergence threshold     =      1.0E-06
     mixing beta               =       0.7000
     number of iterations used =            8  plain     mixing
     Exchange-correlation      = SLA  PW   PBE  PBE ( 1 4 3 4 0)
     EXX-fraction              =        0.00
     nstep                     =           50


     celldm(1)=  10.960412  celldm(2)=   0.000000  celldm(3)=   0.000000
     celldm(4)=   0.000000  celldm(5)=   0.000000  celldm(6)=   0.000000

     crystal axes: (cart. coord. in units of alat)
               a(1) = (   1.000000   0.000000   0.000000 )  
               a(2) = (   0.000000   1.067975   0.000000 )  
               a(3) = (   0.000000   0.000000   4.516251 )  

     reciprocal axes: (cart. coord. in units 2 pi/alat)
               b(1) = (  1.000000  0.000000  0.000000 )  
               b(2) = (  0.000000  0.936351  0.000000 )  
               b(3) = (  0.000000  0.000000  0.221423 )  


     PseudoPot. # 1 for O  read from file:
     /home-research/zhongnanxu/gbrv_espresso_pseudo_v1.01/o_pbe_v1.01.uspp.F.UPF
     MD5 check sum: 2bcb18d16ea4b960afae9ec6d52f22d2
     Pseudo is Ultrasoft + core correction, Zval =  6.0
     Generated by new atomic code, or converted to UPF format
     Using radial grid of  737 points,  5 beta functions with: 
                l(1) =   0
                l(2) =   0
                l(3) =   1
                l(4) =   1
                l(5) =   2
     Q(r) pseudized with  8 coefficients,  rinner =    0.900   0.900   0.900
                                                       0.900   0.900

     PseudoPot. # 2 for Cr read from file:
     /home-research/zhongnanxu/gbrv_espresso_pseudo_v1.01/cr_pbe_v1.uspp.F.UPF
     MD5 check sum: 68b6f918d1762dccfb11451fe85b0e0e
     Pseudo is Ultrasoft + core correction, Zval = 14.0
     Generated by new atomic code, or converted to UPF format
     Using radial grid of  857 points,  6 beta functions with: 
                l(1) =   0
                l(2) =   0
                l(3) =   1
                l(4) =   1
                l(5) =   2
                l(6) =   2
     Q(r) pseudized with  6 coefficients,  rinner =    1.000   1.000   1.000
                                                       1.000   1.000

     PseudoPot. # 3 for H  read from file:
     /home-research/zhongnanxu/gbrv_espresso_pseudo_v1.01/h_pbe_v1.uspp.F.UPF
     MD5 check sum: 3408e3ff4ec8b0a4e358431e7e038a48
     Pseudo is Ultrasoft, Zval =  1.0
     Generated by new atomic code, or converted to UPF format
     Using radial grid of  615 points,  2 beta functions with: 
                l(1) =   0
                l(2) =   0
     Q(r) pseudized with  8 coefficients,  rinner =    0.700

     atomic species   valence    mass     pseudopotential
        O0             6.00    15.99940     O ( 1.00)
        Cr1           14.00    51.99600     Cr( 1.00)
        H2             1.00     1.00794     H ( 1.00)

     Starting magnetic structure 
     atomic species   magnetization
        O0           0.000
        Cr1          0.600
        H2           0.000


     Simplified LDA+U calculation (l_max = 2) with parameters (eV):
     atomic species    L          U    alpha       J0     beta
        Cr1            2     2.5000   0.0000   0.0000   0.0000



     No symmetry found



   Cartesian axes

     site n.     atom                  positions (alat units)
         1           O0  tau(   1) = (   0.0000000   0.0000000   1.7057880  )
         2           O0  tau(   2) = (   0.0000000   0.5339875   1.8101134  )
         3           Cr1 tau(   3) = (   0.2500000   0.5339875   2.0412099  )
         4           Cr1 tau(   4) = (   0.0000000   0.0000000   2.0263515  )
         5           O0  tau(   5) = (   0.2500000   0.8543801   2.0311839  )
         6           O0  tau(   6) = (   0.2500000   0.2135950   2.0319065  )
         7           O0  tau(   7) = (   0.0000000   0.5339875   2.2504478  )
         8           O0  tau(   8) = (   0.0000000   0.0000000   2.3617283  )
         9           Cr1 tau(   9) = (   0.2500000   0.0000000   2.5571464  )
        10           Cr1 tau(  10) = (   0.0000000   0.5339875   2.5545270  )
        11           O0  tau(  11) = (   0.2500000   0.7475825   2.5883086  )
        12           O0  tau(  12) = (   0.2500000   0.3203925   2.5986508  )
        13           O0  tau(  13) = (   0.0000000   0.0000000   2.7891463  )
        14           O0  tau(  14) = (   0.5000000   0.0000000   1.7052460  )
        15           O0  tau(  15) = (   0.5000000   0.5339875   1.8091650  )
        16           Cr1 tau(  16) = (   0.7500000   0.5339875   2.0419325  )
        17           Cr1 tau(  17) = (   0.5000000   0.0000000   2.0263063  )
        18           O0  tau(  18) = (   0.7500000   0.8543801   2.0310484  )
        19           O0  tau(  19) = (   0.7500000   0.2135950   2.0321774  )
        20           O0  tau(  20) = (   0.5000000   0.5339875   2.2541963  )
        21           O0  tau(  21) = (   0.5000000   0.0000000   2.3617283  )
        22           Cr1 tau(  22) = (   0.7500000   0.0000000   2.6331549  )
        23           Cr1 tau(  23) = (   0.5000000   0.5339875   2.6097156  )
        24           O0  tau(  24) = (   0.7500000   0.7475825   2.5944507  )
        25           O0  tau(  25) = (   0.7500000   0.3203925   2.6044767  )
        26           O0  tau(  26) = (   0.5000000   0.0000000   2.7840880  )
        27           H2  tau(  27) = (  -0.0006600   0.6808768   1.7228142  )
        28           H2  tau(  28) = (   0.4998000   0.6828846   1.7250724  )
        29           H2  tau(  29) = (   0.1568300   0.0328936   1.6463090  )
        30           H2  tau(  30) = (   0.6565800   0.0331499   1.6456315  )
        31           O0  tau(  31) = (   0.4998600   0.5715162   2.9254467  )
        32           O0  tau(  32) = (   0.5002200   0.3713883   3.0709603  )
        33           H2  tau(  33) = (   0.4998900   0.4494573   3.2222096  )

     number of k points=    20  Methfessel-Paxton smearing, width (Ry)=  0.0100
                       cart. coord. in units 2pi/alat
        k(    1) = (   0.0000000   0.0000000   0.0000000), wk =   0.0625000
        k(    2) = (   0.0000000   0.2340879   0.0000000), wk =   0.1250000
        k(    3) = (   0.0000000  -0.4681757   0.0000000), wk =   0.0625000
        k(    4) = (   0.2500000   0.0000000   0.0000000), wk =   0.1250000
        k(    5) = (   0.2500000   0.2340879   0.0000000), wk =   0.1250000
        k(    6) = (   0.2500000  -0.4681757   0.0000000), wk =   0.1250000
        k(    7) = (  -0.5000000   0.0000000   0.0000000), wk =   0.0625000
        k(    8) = (  -0.5000000   0.2340879   0.0000000), wk =   0.1250000
        k(    9) = (  -0.5000000  -0.4681757   0.0000000), wk =   0.0625000
        k(   10) = (  -0.2500000   0.2340879   0.0000000), wk =   0.1250000
        k(   11) = (   0.0000000   0.0000000   0.0000000), wk =   0.0625000
        k(   12) = (   0.0000000   0.2340879   0.0000000), wk =   0.1250000
        k(   13) = (   0.0000000  -0.4681757   0.0000000), wk =   0.0625000
        k(   14) = (   0.2500000   0.0000000   0.0000000), wk =   0.1250000
        k(   15) = (   0.2500000   0.2340879   0.0000000), wk =   0.1250000
        k(   16) = (   0.2500000  -0.4681757   0.0000000), wk =   0.1250000
        k(   17) = (  -0.5000000   0.0000000   0.0000000), wk =   0.0625000
        k(   18) = (  -0.5000000   0.2340879   0.0000000), wk =   0.1250000
        k(   19) = (  -0.5000000  -0.4681757   0.0000000), wk =   0.0625000
        k(   20) = (  -0.2500000   0.2340879   0.0000000), wk =   0.1250000

     Dense  grid:  1198649 G-vectors     FFT dimensions: (  80,  90, 360)

     Smooth grid:   216969 G-vectors     FFT dimensions: (  45,  48, 200)

     Largest allocated arrays     est. size (Mb)     dimensions
        Kohn-Sham Wavefunctions        36.03 Mb     (   6884,  343)
        Atomic wavefunctions           17.33 Mb     (   6884,  165)
        NL pseudopotentials            43.49 Mb     (   6884,  414)
        Each V/rho on FFT grid         19.78 Mb     ( 648000,   2)
        Each G-vector array             2.29 Mb     ( 299662)
        G-vector shells                 0.99 Mb     ( 129803)
     Largest temporary arrays     est. size (Mb)     dimensions
        Auxiliary wavefunctions       144.12 Mb     (   6884, 1372)
        Each subspace H/S matrix       28.72 Mb     (1372,1372)
        Each <psi_i|beta_j> matrix      2.17 Mb     (    414,  343)
        Arrays for rho mixing          79.10 Mb     ( 648000,   8)

     Check: negative/imaginary core charge=   -0.000012    0.000000

     Initial potential from superposition of free atoms
     Check: negative starting charge=(component1):   -0.001299
     Check: negative starting charge=(component2):   -0.000449

     starting charge  228.99983, renormalised to  237.00000

     negative rho (up, down):  0.134E-02 0.465E-03
     Number of +U iterations with fixed ns =  0
     Starting occupations:
 --- enter write_ns ---
 LDA+U parameters:
U( 2)     =  2.50000000
alpha( 2) =  0.00000000
atom    3   Tr[ns(na)] (up, down, total) =   5.00000  0.00000  5.00000
   spin  1
    eigenvalues: 
  1.000  1.000  1.000  1.000  1.000
    eigenvectors:
  1.000  0.000  0.000  0.000  0.000
  0.000  1.000  0.000  0.000  0.000
  0.000  0.000  1.000  0.000  0.000
  0.000  0.000  0.000  1.000  0.000
  0.000  0.000  0.000  0.000  1.000
    occupations:
  1.000  0.000  0.000  0.000  0.000
  0.000  1.000  0.000  0.000  0.000
  0.000  0.000  1.000  0.000  0.000
  0.000  0.000  0.000  1.000  0.000
  0.000  0.000  0.000  0.000  1.000
   spin  2
    eigenvalues: 
  0.000  0.000  0.000  0.000  0.000
    eigenvectors:
  1.000  0.000  0.000  0.000  0.000
  0.000  1.000  0.000  0.000  0.000
  0.000  0.000  1.000  0.000  0.000
  0.000  0.000  0.000  1.000  0.000
  0.000  0.000  0.000  0.000  1.000
    occupations:
  0.000  0.000  0.000  0.000  0.000
  0.000  0.000  0.000  0.000  0.000
  0.000  0.000  0.000  0.000  0.000
  0.000  0.000  0.000  0.000  0.000
  0.000  0.000  0.000  0.000  0.000
atomic mag. moment =     5.000000
atom    4   Tr[ns(na)] (up, down, total) =   5.00000  0.00000  5.00000
   spin  1
    eigenvalues: 
  1.000  1.000  1.000  1.000  1.000
    eigenvectors:
  1.000  0.000  0.000  0.000  0.000
  0.000  1.000  0.000  0.000  0.000
  0.000  0.000  1.000  0.000  0.000
  0.000  0.000  0.000  1.000  0.000
  0.000  0.000  0.000  0.000  1.000
    occupations:
  1.000  0.000  0.000  0.000  0.000
  0.000  1.000  0.000  0.000  0.000
  0.000  0.000  1.000  0.000  0.000
  0.000  0.000  0.000  1.000  0.000
  0.000  0.000  0.000  0.000  1.000
   spin  2
    eigenvalues: 
  0.000  0.000  0.000  0.000  0.000
    eigenvectors:
  1.000  0.000  0.000  0.000  0.000
  0.000  1.000  0.000  0.000  0.000
  0.000  0.000  1.000  0.000  0.000
  0.000  0.000  0.000  1.000  0.000
  0.000  0.000  0.000  0.000  1.000
    occupations:
  0.000  0.000  0.000  0.000  0.000
  0.000  0.000  0.000  0.000  0.000
  0.000  0.000  0.000  0.000  0.000
  0.000  0.000  0.000  0.000  0.000
  0.000  0.000  0.000  0.000  0.000
atomic mag. moment =     5.000000
atom    9   Tr[ns(na)] (up, down, total) =   5.00000  0.00000  5.00000
   spin  1
    eigenvalues: 
  1.000  1.000  1.000  1.000  1.000
    eigenvectors:
  1.000  0.000  0.000  0.000  0.000
  0.000  1.000  0.000  0.000  0.000
  0.000  0.000  1.000  0.000  0.000
  0.000  0.000  0.000  1.000  0.000
  0.000  0.000  0.000  0.000  1.000
    occupations:
  1.000  0.000  0.000  0.000  0.000
  0.000  1.000  0.000  0.000  0.000
  0.000  0.000  1.000  0.000  0.000
  0.000  0.000  0.000  1.000  0.000
  0.000  0.000  0.000  0.000  1.000
   spin  2
    eigenvalues: 
  0.000  0.000  0.000  0.000  0.000
    eigenvectors:
  1.000  0.000  0.000  0.000  0.000
  0.000  1.000  0.000  0.000  0.000
  0.000  0.000  1.000  0.000  0.000
  0.000  0.000  0.000  1.000  0.000
  0.000  0.000  0.000  0.000  1.000
    occupations:
  0.000  0.000  0.000  0.000  0.000
  0.000  0.000  0.000  0.000  0.000
  0.000  0.000  0.000  0.000  0.000
  0.000  0.000  0.000  0.000  0.000
  0.000  0.000  0.000  0.000  0.000
atomic mag. moment =     5.000000
atom   10   Tr[ns(na)] (up, down, total) =   5.00000  0.00000  5.00000
   spin  1
    eigenvalues: 
  1.000  1.000  1.000  1.000  1.000
    eigenvectors:
  1.000  0.000  0.000  0.000  0.000
  0.000  1.000  0.000  0.000  0.000
  0.000  0.000  1.000  0.000  0.000
  0.000  0.000  0.000  1.000  0.000
  0.000  0.000  0.000  0.000  1.000
    occupations:
  1.000  0.000  0.000  0.000  0.000
  0.000  1.000  0.000  0.000  0.000
  0.000  0.000  1.000  0.000  0.000
  0.000  0.000  0.000  1.000  0.000
  0.000  0.000  0.000  0.000  1.000
   spin  2
    eigenvalues: 
  0.000  0.000  0.000  0.000  0.000
    eigenvectors:
  1.000  0.000  0.000  0.000  0.000
  0.000  1.000  0.000  0.000  0.000
  0.000  0.000  1.000  0.000  0.000
  0.000  0.000  0.000  1.000  0.000
  0.000  0.000  0.000  0.000  1.000
    occupations:
  0.000  0.000  0.000  0.000  0.000
  0.000  0.000  0.000  0.000  0.000
  0.000  0.000  0.000  0.000  0.000
  0.000  0.000  0.000  0.000  0.000
  0.000  0.000  0.000  0.000  0.000
atomic mag. moment =     5.000000
atom   16   Tr[ns(na)] (up, down, total) =   5.00000  0.00000  5.00000
   spin  1
    eigenvalues: 
  1.000  1.000  1.000  1.000  1.000
    eigenvectors:
  1.000  0.000  0.000  0.000  0.000
  0.000  1.000  0.000  0.000  0.000
  0.000  0.000  1.000  0.000  0.000
  0.000  0.000  0.000  1.000  0.000
  0.000  0.000  0.000  0.000  1.000
    occupations:
  1.000  0.000  0.000  0.000  0.000
  0.000  1.000  0.000  0.000  0.000
  0.000  0.000  1.000  0.000  0.000
  0.000  0.000  0.000  1.000  0.000
  0.000  0.000  0.000  0.000  1.000
   spin  2
    eigenvalues: 
  0.000  0.000  0.000  0.000  0.000
    eigenvectors:
  1.000  0.000  0.000  0.000  0.000
  0.000  1.000  0.000  0.000  0.000
  0.000  0.000  1.000  0.000  0.000
  0.000  0.000  0.000  1.000  0.000
  0.000  0.000  0.000  0.000  1.000
    occupations:
  0.000  0.000  0.000  0.000  0.000
  0.000  0.000  0.000  0.000  0.000
  0.000  0.000  0.000  0.000  0.000
  0.000  0.000  0.000  0.000  0.000
  0.000  0.000  0.000  0.000  0.000
atomic mag. moment =     5.000000
atom   17   Tr[ns(na)] (up, down, total) =   5.00000  0.00000  5.00000
   spin  1
    eigenvalues: 
  1.000  1.000  1.000  1.000  1.000
    eigenvectors:
  1.000  0.000  0.000  0.000  0.000
  0.000  1.000  0.000  0.000  0.000
  0.000  0.000  1.000  0.000  0.000
  0.000  0.000  0.000  1.000  0.000
  0.000  0.000  0.000  0.000  1.000
    occupations:
  1.000  0.000  0.000  0.000  0.000
  0.000  1.000  0.000  0.000  0.000
  0.000  0.000  1.000  0.000  0.000
  0.000  0.000  0.000  1.000  0.000
  0.000  0.000  0.000  0.000  1.000
   spin  2
    eigenvalues: 
  0.000  0.000  0.000  0.000  0.000
    eigenvectors:
  1.000  0.000  0.000  0.000  0.000
  0.000  1.000  0.000  0.000  0.000
  0.000  0.000  1.000  0.000  0.000
  0.000  0.000  0.000  1.000  0.000
  0.000  0.000  0.000  0.000  1.000
    occupations:
  0.000  0.000  0.000  0.000  0.000
  0.000  0.000  0.000  0.000  0.000
  0.000  0.000  0.000  0.000  0.000
  0.000  0.000  0.000  0.000  0.000
  0.000  0.000  0.000  0.000  0.000
atomic mag. moment =     5.000000
atom   22   Tr[ns(na)] (up, down, total) =   5.00000  0.00000  5.00000
   spin  1
    eigenvalues: 
  1.000  1.000  1.000  1.000  1.000
    eigenvectors:
  1.000  0.000  0.000  0.000  0.000
  0.000  1.000  0.000  0.000  0.000
  0.000  0.000  1.000  0.000  0.000
  0.000  0.000  0.000  1.000  0.000
  0.000  0.000  0.000  0.000  1.000
    occupations:
  1.000  0.000  0.000  0.000  0.000
  0.000  1.000  0.000  0.000  0.000
  0.000  0.000  1.000  0.000  0.000
  0.000  0.000  0.000  1.000  0.000
  0.000  0.000  0.000  0.000  1.000
   spin  2
    eigenvalues: 
  0.000  0.000  0.000  0.000  0.000
    eigenvectors:
  1.000  0.000  0.000  0.000  0.000
  0.000  1.000  0.000  0.000  0.000
  0.000  0.000  1.000  0.000  0.000
  0.000  0.000  0.000  1.000  0.000
  0.000  0.000  0.000  0.000  1.000
    occupations:
  0.000  0.000  0.000  0.000  0.000
  0.000  0.000  0.000  0.000  0.000
  0.000  0.000  0.000  0.000  0.000
  0.000  0.000  0.000  0.000  0.000
  0.000  0.000  0.000  0.000  0.000
atomic mag. moment =     5.000000
atom   23   Tr[ns(na)] (up, down, total) =   5.00000  0.00000  5.00000
   spin  1
    eigenvalues: 
  1.000  1.000  1.000  1.000  1.000
    eigenvectors:
  1.000  0.000  0.000  0.000  0.000
  0.000  1.000  0.000  0.000  0.000
  0.000  0.000  1.000  0.000  0.000
  0.000  0.000  0.000  1.000  0.000
  0.000  0.000  0.000  0.000  1.000
    occupations:
  1.000  0.000  0.000  0.000  0.000
  0.000  1.000  0.000  0.000  0.000
  0.000  0.000  1.000  0.000  0.000
  0.000  0.000  0.000  1.000  0.000
  0.000  0.000  0.000  0.000  1.000
   spin  2
    eigenvalues: 
  0.000  0.000  0.000  0.000  0.000
    eigenvectors:
  1.000  0.000  0.000  0.000  0.000
  0.000  1.000  0.000  0.000  0.000
  0.000  0.000  1.000  0.000  0.000
  0.000  0.000  0.000  1.000  0.000
  0.000  0.000  0.000  0.000  1.000
    occupations:
  0.000  0.000  0.000  0.000  0.000
  0.000  0.000  0.000  0.000  0.000
  0.000  0.000  0.000  0.000  0.000
  0.000  0.000  0.000  0.000  0.000
  0.000  0.000  0.000  0.000  0.000
atomic mag. moment =     5.000000
N of occupied +U levels =  40.0000000
 --- exit write_ns ---
 Atomic wfc used for LDA+U Projector are NOT orthogonalized
     Starting wfc are  165 randomized atomic wfcs

     total cpu time spent up to now is      150.7 secs

     per-process dynamical memory:   512.5 Mb

     Self-consistent Calculation

     iteration #  1     ecut=    40.00 Ry     beta=0.70
     Davidson diagonalization with overlap
     ethr =  1.00E-02,  avg # of iterations =  5.3
 --- enter write_ns ---
 LDA+U parameters:
U( 2)     =  2.50000000
alpha( 2) =  0.00000000
atom    3   Tr[ns(na)] (up, down, total) =   3.96324  0.63573  4.59897
   spin  1
    eigenvalues: 
  0.586  0.613  0.844  0.950  0.970
    eigenvectors:
  0.239  0.001  0.008  0.746  0.007
  0.003  0.994  0.000  0.000  0.003
  0.000  0.000  0.983  0.013  0.005
  0.758  0.003  0.003  0.234  0.002
  0.000  0.003  0.006  0.007  0.984
    occupations:
  0.862  0.001  0.011 -0.155 -0.003
  0.001  0.614 -0.001  0.001 -0.019
  0.011 -0.001  0.846 -0.004  0.009
 -0.155  0.001 -0.004  0.673  0.000
 -0.003 -0.019  0.009  0.000  0.968
   spin  2
    eigenvalues: 
  0.065  0.073  0.075  0.202  0.220
    eigenvectors:
  0.625  0.111  0.081  0.000  0.183
  0.000  0.001  0.000  0.996  0.003
  0.228  0.389  0.383  0.000  0.000
  0.146  0.022  0.016  0.002  0.814
  0.001  0.478  0.520  0.001  0.000
    occupations:
  0.095 -0.001 -0.003  0.059  0.000
 -0.001  0.202  0.000 -0.001  0.004
 -0.003  0.000  0.072  0.003 -0.001
  0.059 -0.001  0.003  0.192  0.000
  0.000  0.004 -0.001  0.000  0.074
atomic mag. moment =     3.327506
atom    4   Tr[ns(na)] (up, down, total) =   3.75625  0.66300  4.41926
   spin  1
    eigenvalues: 
  0.518  0.625  0.796  0.847  0.970
    eigenvectors:
  0.000  0.889  0.109  0.000  0.002
  0.000  0.104  0.871  0.025  0.000
  0.000  0.005  0.020  0.973  0.002
  0.000  0.002  0.000  0.002  0.995
  1.000  0.000  0.000  0.000  0.000
    occupations:
  0.644  0.052  0.012  0.016  0.000
  0.052  0.779 -0.012 -0.003  0.000
  0.012 -0.012  0.845 -0.007  0.000
  0.016 -0.003 -0.007  0.969  0.000
  0.000  0.000  0.000  0.000  0.518
   spin  2
    eigenvalues: 
  0.064  0.078  0.090  0.201  0.230
    eigenvectors:
  0.009  0.002  0.000  0.000  0.989
  0.004  0.887  0.106  0.000  0.002
  0.001  0.106  0.894  0.000  0.000
  0.986  0.005  0.000  0.000  0.008
  0.000  0.000  0.000  1.000  0.000
    occupations:
  0.228  0.007  0.002 -0.015  0.000
  0.007  0.080 -0.004  0.000  0.000
  0.002 -0.004  0.089  0.000  0.000
 -0.015  0.000  0.000  0.066  0.000
  0.000  0.000  0.000  0.000  0.201
atomic mag. moment =     3.093249
atom    9   Tr[ns(na)] (up, down, total) =   4.09232  0.69476  4.78709
   spin  1
    eigenvalues: 
  0.610  0.618  0.929  0.960  0.975
    eigenvectors:
  0.184  0.000  0.000  0.001  0.815
  0.002  0.998  0.000  0.000  0.000
  0.001  0.000  0.215  0.783  0.001
  0.814  0.002  0.000  0.001  0.183
  0.000  0.000  0.785  0.214  0.000
    occupations:
  0.908  0.001 -0.004 -0.141  0.000
  0.001  0.618 -0.001  0.000  0.000
 -0.004 -0.001  0.953 -0.007  0.013
 -0.141  0.000 -0.007  0.677  0.000
  0.000  0.000  0.013  0.000  0.936
   spin  2
    eigenvalues: 
  0.081  0.082  0.087  0.221  0.224
    eigenvectors:
  0.824  0.033  0.000  0.081  0.062
  0.000  0.000  0.000  0.442  0.557
  0.036  0.958  0.006  0.000  0.000
  0.141  0.003  0.000  0.476  0.381
  0.000  0.006  0.994  0.000  0.000
    occupations:
  0.101  0.000  0.001  0.050  0.000
  0.000  0.223  0.000 -0.001  0.000
  0.001  0.000  0.082  0.003  0.000
  0.050 -0.001  0.003  0.202  0.000
  0.000  0.000  0.000  0.000  0.087
atomic mag. moment =     3.397563
atom   10   Tr[ns(na)] (up, down, total) =   4.23000  0.58075  4.81075
   spin  1
    eigenvalues: 
  0.615  0.665  0.980  0.984  0.985
    eigenvectors:
  0.000  0.995  0.000  0.003  0.002
  0.000  0.000  0.814  0.161  0.025
  0.001  0.000  0.000  0.130  0.869
  0.000  0.004  0.185  0.706  0.104
  0.999  0.000  0.000  0.000  0.001
    occupations:
  0.667  0.003  0.006  0.021  0.000
  0.003  0.981  0.000  0.001 -0.004
  0.006  0.000  0.984  0.000 -0.011
  0.021  0.001  0.000  0.982  0.001
  0.000 -0.004 -0.011  0.001  0.616
   spin  2
    eigenvalues: 
  0.064  0.071  0.079  0.165  0.201
    eigenvectors:
  0.017  0.000  0.000  0.983  0.000
  0.002  0.000  0.997  0.000  0.001
  0.005  0.995  0.000  0.000  0.000
  0.976  0.004  0.002  0.017  0.000
  0.000  0.000  0.000  0.000  0.999
    occupations:
  0.163  0.000 -0.001 -0.013  0.000
  0.000  0.079  0.000  0.001  0.003
 -0.001  0.000  0.071  0.000  0.002
 -0.013  0.001  0.000  0.066  0.000
  0.000  0.003  0.002  0.000  0.201
atomic mag. moment =     3.649256
atom   16   Tr[ns(na)] (up, down, total) =   3.95620  0.63581  4.59201
   spin  1
    eigenvalues: 
  0.586  0.611  0.840  0.949  0.969
    eigenvectors:
  0.235  0.001  0.008  0.735  0.020
  0.004  0.994  0.000  0.000  0.003
  0.000  0.000  0.988  0.011  0.001
  0.761  0.003  0.004  0.227  0.006
  0.000  0.003  0.000  0.027  0.970
    occupations:
  0.863 -0.001  0.012 -0.154  0.003
 -0.001  0.612  0.000 -0.001 -0.019
  0.012  0.000  0.841 -0.004  0.003
 -0.154 -0.001 -0.004  0.672 -0.001
  0.003 -0.019  0.003 -0.001  0.968
   spin  2
    eigenvalues: 
  0.065  0.074  0.075  0.201  0.221
    eigenvectors:
  0.649  0.098  0.070  0.000  0.183
  0.000  0.001  0.000  0.996  0.003
  0.200  0.417  0.382  0.000  0.000
  0.150  0.020  0.014  0.002  0.814
  0.001  0.465  0.534  0.001  0.000
    occupations:
  0.095  0.001 -0.003  0.059  0.000
  0.001  0.201  0.000  0.001  0.004
 -0.003  0.000  0.073  0.003  0.001
  0.059  0.001  0.003  0.192  0.000
  0.000  0.004  0.001  0.000  0.075
atomic mag. moment =     3.320387
atom   17   Tr[ns(na)] (up, down, total) =   3.74427  0.66012  4.40439
   spin  1
    eigenvalues: 
  0.515  0.621  0.795  0.844  0.970
    eigenvectors:
  0.000  0.883  0.115  0.000  0.002
  0.000  0.109  0.857  0.034  0.000
  0.000  0.006  0.029  0.964  0.002
  0.000  0.003  0.000  0.002  0.995
  1.000  0.000  0.000  0.000  0.000
    occupations:
  0.642  0.054  0.013  0.017  0.000
  0.054  0.778 -0.013 -0.005  0.000
  0.013 -0.013  0.841 -0.007  0.001
  0.017 -0.005 -0.007  0.968  0.000
  0.000  0.000  0.001  0.000  0.515
   spin  2
    eigenvalues: 
  0.064  0.078  0.089  0.200  0.229
    eigenvectors:
  0.009  0.002  0.000  0.000  0.989
  0.007  0.881  0.110  0.000  0.002
  0.001  0.109  0.890  0.000  0.000
  0.983  0.009  0.000  0.000  0.008
  0.000  0.000  0.000  1.000  0.000
    occupations:
  0.227  0.007  0.002 -0.015  0.000
  0.007  0.079 -0.004  0.000  0.000
  0.002 -0.004  0.088  0.000  0.000
 -0.015  0.000  0.000  0.065  0.000
  0.000  0.000  0.000  0.000  0.200
atomic mag. moment =     3.084157
atom   22   Tr[ns(na)] (up, down, total) =   3.57253  0.80683  4.37936
   spin  1
    eigenvalues: 
  0.606  0.617  0.717  0.775  0.858
    eigenvectors:
  0.045  0.015  0.000  0.919  0.020
  0.372  0.627  0.000  0.001  0.000
  0.000  0.000  0.004  0.022  0.975
  0.583  0.358  0.000  0.058  0.001
  0.000  0.000  0.996  0.000  0.004
    occupations:
  0.767  0.007 -0.012 -0.039 -0.002
  0.007  0.613  0.001  0.004  0.001
 -0.012  0.001  0.855  0.002  0.009
 -0.039  0.004  0.002  0.620  0.001
 -0.002  0.001  0.009  0.001  0.717
   spin  2
    eigenvalues: 
  0.084  0.119  0.123  0.234  0.247
    eigenvectors:
  0.000  0.986  0.004  0.001  0.009
  0.000  0.000  0.000  0.967  0.033
  0.998  0.000  0.002  0.000  0.000
  0.000  0.010  0.000  0.032  0.958
  0.002  0.004  0.994  0.000  0.000
    occupations:
  0.120 -0.001  0.000  0.013  0.000
 -0.001  0.234  0.000  0.002  0.000
  0.000  0.000  0.084  0.002  0.002
  0.013  0.002  0.002  0.245  0.000
  0.000  0.000  0.002  0.000  0.123
atomic mag. moment =     2.765708
atom   23   Tr[ns(na)] (up, down, total) =   4.02748  0.69968  4.72716
   spin  1
    eigenvalues: 
  0.541  0.657  0.896  0.962  0.971
    eigenvectors:
  0.000  0.955  0.001  0.003  0.041
  0.000  0.001  0.999  0.000  0.000
  0.001  0.039  0.000  0.006  0.954
  0.000  0.005  0.000  0.991  0.004
  0.998  0.000  0.000  0.000  0.001
    occupations:
  0.671 -0.005  0.061  0.022  0.001
 -0.005  0.896  0.001  0.000 -0.007
  0.061  0.001  0.958 -0.004  0.015
  0.022  0.000 -0.004  0.960 -0.001
  0.001 -0.007  0.015 -0.001  0.541
   spin  2
    eigenvalues: 
  0.062  0.069  0.136  0.200  0.233
    eigenvectors:
  0.003  0.003  0.000  0.000  0.994
  0.000  0.000  0.998  0.002  0.000
  0.256  0.744  0.000  0.000  0.000
  0.741  0.253  0.000  0.000  0.005
  0.000  0.000  0.002  0.998  0.000
    occupations:
  0.232  0.001 -0.003 -0.012  0.000
  0.001  0.136  0.000  0.000 -0.003
 -0.003  0.000  0.067  0.003 -0.002
 -0.012  0.000  0.003  0.065  0.000
  0.000 -0.003 -0.002  0.000  0.199
atomic mag. moment =     3.327797
N of occupied +U levels =  36.7189838
 --- exit write_ns ---

     negative rho (up, down):  0.278E-02 0.108E-02

     total cpu time spent up to now is      884.2 secs

     total energy              =   -2046.40002811 Ry
     Harris-Foulkes estimate   =   -2054.56375173 Ry
     estimated scf accuracy    <      19.43000547 Ry

     total magnetization       =    15.00 Bohr mag/cell
     absolute magnetization    =    36.66 Bohr mag/cell

     iteration #  2     ecut=    40.00 Ry     beta=0.70
     Davidson diagonalization with overlap
     ethr =  8.20E-03,  avg # of iterations =  5.7

     total cpu time spent up to now is     1389.2 secs

     total energy              =   -1941.79086286 Ry
     Harris-Foulkes estimate   =   -2131.70560489 Ry
     estimated scf accuracy    <    2921.26259765 Ry

     total magnetization       =    15.00 Bohr mag/cell
     absolute magnetization    =    16.81 Bohr mag/cell

     iteration #  3     ecut=    40.00 Ry     beta=0.70
     Davidson diagonalization with overlap
     ethr =  8.20E-03,  avg # of iterations =  4.0

     negative rho (up, down):  0.195E-07 0.000E+00

     total cpu time spent up to now is     1947.6 secs

     total energy              =   -2047.77618291 Ry
     Harris-Foulkes estimate   =   -2066.41121547 Ry
     estimated scf accuracy    <      71.71005335 Ry

     total magnetization       =    15.00 Bohr mag/cell
     absolute magnetization    =    26.73 Bohr mag/cell

     iteration #  4     ecut=    40.00 Ry     beta=0.70
     Davidson diagonalization with overlap
     ethr =  8.20E-03,  avg # of iterations =  3.0

     negative rho (up, down):  0.325E-06 0.000E+00

     total cpu time spent up to now is     2294.9 secs

     total energy              =   -2051.90103991 Ry
     Harris-Foulkes estimate   =   -2061.83339978 Ry
     estimated scf accuracy    <      72.59729603 Ry

     total magnetization       =    15.00 Bohr mag/cell
     absolute magnetization    =    18.80 Bohr mag/cell

     iteration #  5     ecut=    40.00 Ry     beta=0.70
     Davidson diagonalization with overlap
     ethr =  8.20E-03,  avg # of iterations =  3.5

     total cpu time spent up to now is     2638.1 secs

     total energy              =   -2051.70204953 Ry
     Harris-Foulkes estimate   =   -2061.18916461 Ry
     estimated scf accuracy    <     116.35528190 Ry

     total magnetization       =    15.00 Bohr mag/cell
     absolute magnetization    =    23.05 Bohr mag/cell

     iteration #  6     ecut=    40.00 Ry     beta=0.70
     Davidson diagonalization with overlap
     ethr =  8.20E-03,  avg # of iterations =  3.0

     total cpu time spent up to now is     2963.1 secs

     total energy              =   -2056.43465519 Ry
     Harris-Foulkes estimate   =   -2058.79807708 Ry
     estimated scf accuracy    <      16.73494886 Ry

     total magnetization       =    15.00 Bohr mag/cell
     absolute magnetization    =    24.53 Bohr mag/cell

     iteration #  7     ecut=    40.00 Ry     beta=0.70
     Davidson diagonalization with overlap
     ethr =  7.06E-03,  avg # of iterations =  1.0

     total cpu time spent up to now is     3257.4 secs

     total energy              =   -2056.53089873 Ry
     Harris-Foulkes estimate   =   -2058.91192482 Ry
     estimated scf accuracy    <      15.51251332 Ry

     total magnetization       =    15.00 Bohr mag/cell
     absolute magnetization    =    25.31 Bohr mag/cell

     iteration #  8     ecut=    40.00 Ry     beta=0.70
     Davidson diagonalization with overlap
     ethr =  6.55E-03,  avg # of iterations =  1.0

     total cpu time spent up to now is     3547.1 secs

     total energy              =   -2056.93510783 Ry
     Harris-Foulkes estimate   =   -2058.47688366 Ry
     estimated scf accuracy    <      10.14362031 Ry

     total magnetization       =    15.00 Bohr mag/cell
     absolute magnetization    =    22.32 Bohr mag/cell

     iteration #  9     ecut=    40.00 Ry     beta=0.70
     Davidson diagonalization with overlap
     ethr =  4.28E-03,  avg # of iterations =  1.0

     total cpu time spent up to now is     3849.0 secs

     total energy              =   -2057.70513915 Ry
     Harris-Foulkes estimate   =   -2058.07910236 Ry
     estimated scf accuracy    <       3.12036233 Ry

     total magnetization       =    15.00 Bohr mag/cell
     absolute magnetization    =    22.34 Bohr mag/cell

     iteration # 10     ecut=    40.00 Ry     beta=0.70
     Davidson diagonalization with overlap
     ethr =  1.32E-03,  avg # of iterations =  1.0

     total cpu time spent up to now is     4141.7 secs

     total energy              =   -2057.78549434 Ry
     Harris-Foulkes estimate   =   -2058.07776463 Ry
     estimated scf accuracy    <       2.28383761 Ry

     total magnetization       =    15.00 Bohr mag/cell
     absolute magnetization    =    21.87 Bohr mag/cell

     iteration # 11     ecut=    40.00 Ry     beta=0.70
     Davidson diagonalization with overlap
     ethr =  9.64E-04,  avg # of iterations =  1.2

     negative rho (up, down):  0.518E-06 0.000E+00

     total cpu time spent up to now is     4427.9 secs

     total energy              =   -2057.63969977 Ry
     Harris-Foulkes estimate   =   -2057.97477532 Ry
     estimated scf accuracy    <       0.81921182 Ry

     total magnetization       =    15.00 Bohr mag/cell
     absolute magnetization    =    23.53 Bohr mag/cell

     iteration # 12     ecut=    40.00 Ry     beta=0.70
     Davidson diagonalization with overlap
     ethr =  3.46E-04,  avg # of iterations =  7.1

     negative rho (up, down):  0.341E-05 0.000E+00

     total cpu time spent up to now is     4927.2 secs

     total energy              =   -2057.57462980 Ry
     Harris-Foulkes estimate   =   -2057.92419839 Ry
     estimated scf accuracy    <       1.38129999 Ry

     total magnetization       =    15.00 Bohr mag/cell
     absolute magnetization    =    22.24 Bohr mag/cell

     iteration # 13     ecut=    40.00 Ry     beta=0.70
     Davidson diagonalization with overlap
     ethr =  3.46E-04,  avg # of iterations =  4.0

     negative rho (up, down):  0.526E-04 0.119E-07

     total cpu time spent up to now is     5261.5 secs

     total energy              =   -2057.64968283 Ry
     Harris-Foulkes estimate   =   -2057.88268214 Ry
     estimated scf accuracy    <       1.18406366 Ry

     total magnetization       =    15.00 Bohr mag/cell
     absolute magnetization    =    22.86 Bohr mag/cell

     iteration # 14     ecut=    40.00 Ry     beta=0.70
     Davidson diagonalization with overlap
     ethr =  3.46E-04,  avg # of iterations =  1.0

     negative rho (up, down):  0.192E-03 0.109E-06

     total cpu time spent up to now is     5554.5 secs

     total energy              =   -2057.72333053 Ry
     Harris-Foulkes estimate   =   -2057.82566535 Ry
     estimated scf accuracy    <       0.49897771 Ry

     total magnetization       =    15.00 Bohr mag/cell
     absolute magnetization    =    23.03 Bohr mag/cell

     iteration # 15     ecut=    40.00 Ry     beta=0.70
     Davidson diagonalization with overlap
     ethr =  2.11E-04,  avg # of iterations =  2.8

     negative rho (up, down):  0.211E-02 0.164E-03

     total cpu time spent up to now is     5868.1 secs

     total energy              =   -2057.75892039 Ry
     Harris-Foulkes estimate   =   -2057.81249292 Ry
     estimated scf accuracy    <       0.41669650 Ry

     total magnetization       =    15.00 Bohr mag/cell
     absolute magnetization    =    22.31 Bohr mag/cell

     iteration # 16     ecut=    40.00 Ry     beta=0.70
     Davidson diagonalization with overlap
     ethr =  1.76E-04,  avg # of iterations =  2.8

     negative rho (up, down):  0.367E-02 0.634E-03

     total cpu time spent up to now is     6183.2 secs

     total energy              =   -2057.76805768 Ry
     Harris-Foulkes estimate   =   -2057.81764969 Ry
     estimated scf accuracy    <       0.36211620 Ry

     total magnetization       =    15.00 Bohr mag/cell
     absolute magnetization    =    22.90 Bohr mag/cell

     iteration # 17     ecut=    40.00 Ry     beta=0.70
     Davidson diagonalization with overlap
     ethr =  1.53E-04,  avg # of iterations =  1.2

     negative rho (up, down):  0.392E-02 0.934E-03

     total cpu time spent up to now is     6478.5 secs

     total energy              =   -2057.78827337 Ry
     Harris-Foulkes estimate   =   -2057.79459049 Ry
     estimated scf accuracy    <       0.03287429 Ry

     total magnetization       =    15.00 Bohr mag/cell
     absolute magnetization    =    22.44 Bohr mag/cell

     iteration # 18     ecut=    40.00 Ry     beta=0.70
     Davidson diagonalization with overlap
     ethr =  1.39E-05,  avg # of iterations =  6.3

     negative rho (up, down):  0.557E-02 0.228E-02

     total cpu time spent up to now is     6869.5 secs

     total energy              =   -2057.78890508 Ry
     Harris-Foulkes estimate   =   -2057.79583833 Ry
     estimated scf accuracy    <       0.04664172 Ry

     total magnetization       =    15.00 Bohr mag/cell
     absolute magnetization    =    22.43 Bohr mag/cell

     iteration # 19     ecut=    40.00 Ry     beta=0.70
     Davidson diagonalization with overlap
     ethr =  1.39E-05,  avg # of iterations =  1.9

     negative rho (up, down):  0.602E-02 0.272E-02

     total cpu time spent up to now is     7169.3 secs

     total energy              =   -2057.79062969 Ry
     Harris-Foulkes estimate   =   -2057.79621260 Ry
     estimated scf accuracy    <       0.04025683 Ry

     total magnetization       =    15.00 Bohr mag/cell
     absolute magnetization    =    22.45 Bohr mag/cell

     iteration # 20     ecut=    40.00 Ry     beta=0.70
     Davidson diagonalization with overlap
     ethr =  1.39E-05,  avg # of iterations =  1.0

     negative rho (up, down):  0.448E-02 0.138E-02

     total cpu time spent up to now is     7467.6 secs

     total energy              =   -2057.79241917 Ry
     Harris-Foulkes estimate   =   -2057.79458714 Ry
     estimated scf accuracy    <       0.01984353 Ry

     total magnetization       =    15.00 Bohr mag/cell
     absolute magnetization    =    22.28 Bohr mag/cell

     iteration # 21     ecut=    40.00 Ry     beta=0.70
     Davidson diagonalization with overlap
     ethr =  8.37E-06,  avg # of iterations =  1.0

     negative rho (up, down):  0.539E-02 0.215E-02

     total cpu time spent up to now is     7755.8 secs

     total energy              =   -2057.79180286 Ry
     Harris-Foulkes estimate   =   -2057.79640673 Ry
     estimated scf accuracy    <       0.03588124 Ry

     total magnetization       =    15.00 Bohr mag/cell
     absolute magnetization    =    22.08 Bohr mag/cell

     iteration # 22     ecut=    40.00 Ry     beta=0.70
     Davidson diagonalization with overlap
     ethr =  8.37E-06,  avg # of iterations =  1.0

     negative rho (up, down):  0.526E-02 0.206E-02

     total cpu time spent up to now is     8053.9 secs

     total energy              =   -2057.79387581 Ry
     Harris-Foulkes estimate   =   -2057.79506272 Ry
     estimated scf accuracy    <       0.01064557 Ry

     total magnetization       =    15.00 Bohr mag/cell
     absolute magnetization    =    22.17 Bohr mag/cell

     iteration # 23     ecut=    40.00 Ry     beta=0.70
     Davidson diagonalization with overlap
     ethr =  4.49E-06,  avg # of iterations =  1.0

     negative rho (up, down):  0.517E-02 0.201E-02

     total cpu time spent up to now is     8336.4 secs

     total energy              =   -2057.79440503 Ry
     Harris-Foulkes estimate   =   -2057.79471275 Ry
     estimated scf accuracy    <       0.00223823 Ry

     total magnetization       =    15.00 Bohr mag/cell
     absolute magnetization    =    22.17 Bohr mag/cell

     iteration # 24     ecut=    40.00 Ry     beta=0.70
     Davidson diagonalization with overlap
     ethr =  9.44E-07,  avg # of iterations =  1.1

     negative rho (up, down):  0.500E-02 0.184E-02

     total cpu time spent up to now is     8625.4 secs

     total energy              =   -2057.79403418 Ry
     Harris-Foulkes estimate   =   -2057.79529110 Ry
     estimated scf accuracy    <       0.00763495 Ry

     total magnetization       =    15.00 Bohr mag/cell
     absolute magnetization    =    22.09 Bohr mag/cell

     iteration # 25     ecut=    40.00 Ry     beta=0.70
     Davidson diagonalization with overlap
     ethr =  9.44E-07,  avg # of iterations =  3.5

     negative rho (up, down):  0.510E-02 0.193E-02

     total cpu time spent up to now is     8957.2 secs

     total energy              =   -2057.79400016 Ry
     Harris-Foulkes estimate   =   -2057.79564005 Ry
     estimated scf accuracy    <       0.01371243 Ry

     total magnetization       =    15.00 Bohr mag/cell
     absolute magnetization    =    22.16 Bohr mag/cell

     iteration # 26     ecut=    40.00 Ry     beta=0.70
     Davidson diagonalization with overlap
     ethr =  9.44E-07,  avg # of iterations =  3.5

     negative rho (up, down):  0.495E-02 0.180E-02

     total cpu time spent up to now is     9293.9 secs

     total energy              =   -2057.79464968 Ry
     Harris-Foulkes estimate   =   -2057.79504383 Ry
     estimated scf accuracy    <       0.00128743 Ry

     total magnetization       =    15.00 Bohr mag/cell
     absolute magnetization    =    21.97 Bohr mag/cell

     iteration # 27     ecut=    40.00 Ry     beta=0.70
     Davidson diagonalization with overlap
     ethr =  5.43E-07,  avg # of iterations =  2.2

     negative rho (up, down):  0.492E-02 0.177E-02

     total cpu time spent up to now is     9602.7 secs

     total energy              =   -2057.79451907 Ry
     Harris-Foulkes estimate   =   -2057.79537680 Ry
     estimated scf accuracy    <       0.00620753 Ry

     total magnetization       =    15.00 Bohr mag/cell
     absolute magnetization    =    22.08 Bohr mag/cell

     iteration # 28     ecut=    40.00 Ry     beta=0.70
     Davidson diagonalization with overlap
     ethr =  5.43E-07,  avg # of iterations =  1.1

     negative rho (up, down):  0.487E-02 0.174E-02

     total cpu time spent up to now is     9906.1 secs

     total energy              =   -2057.79494679 Ry
     Harris-Foulkes estimate   =   -2057.79504361 Ry
     estimated scf accuracy    <       0.00084131 Ry

     total magnetization       =    15.00 Bohr mag/cell
     absolute magnetization    =    21.99 Bohr mag/cell

     iteration # 29     ecut=    40.00 Ry     beta=0.70
     Davidson diagonalization with overlap
     ethr =  3.55E-07,  avg # of iterations =  1.0

     negative rho (up, down):  0.493E-02 0.177E-02

     total cpu time spent up to now is    10200.5 secs

     total energy              =   -2057.79484697 Ry
     Harris-Foulkes estimate   =   -2057.79508742 Ry
     estimated scf accuracy    <       0.00096147 Ry

     total magnetization       =    15.00 Bohr mag/cell
     absolute magnetization    =    21.93 Bohr mag/cell

     iteration # 30     ecut=    40.00 Ry     beta=0.70
     Davidson diagonalization with overlap
     ethr =  3.55E-07,  avg # of iterations =  1.0

     negative rho (up, down):  0.487E-02 0.174E-02

     total cpu time spent up to now is    10487.4 secs

     total energy              =   -2057.79483191 Ry
     Harris-Foulkes estimate   =   -2057.79513891 Ry
     estimated scf accuracy    <       0.00443480 Ry

     total magnetization       =    15.00 Bohr mag/cell
     absolute magnetization    =    22.02 Bohr mag/cell

     iteration # 31     ecut=    40.00 Ry     beta=0.70
     Davidson diagonalization with overlap
     ethr =  3.55E-07,  avg # of iterations =  1.0

     negative rho (up, down):  0.487E-02 0.174E-02

     total cpu time spent up to now is    10785.5 secs

     total energy              =   -2057.79495244 Ry
     Harris-Foulkes estimate   =   -2057.79508187 Ry
     estimated scf accuracy    <       0.00080512 Ry

     total magnetization       =    15.00 Bohr mag/cell
     absolute magnetization    =    21.98 Bohr mag/cell

     iteration # 32     ecut=    40.00 Ry     beta=0.70
     Davidson diagonalization with overlap
     ethr =  3.40E-07,  avg # of iterations =  1.0

     negative rho (up, down):  0.487E-02 0.173E-02

     total cpu time spent up to now is    11074.1 secs

     total energy              =   -2057.79497385 Ry
     Harris-Foulkes estimate   =   -2057.79508810 Ry
     estimated scf accuracy    <       0.00118459 Ry

     total magnetization       =    15.00 Bohr mag/cell
     absolute magnetization    =    21.95 Bohr mag/cell

     iteration # 33     ecut=    40.00 Ry     beta=0.70
     Davidson diagonalization with overlap
     ethr =  3.40E-07,  avg # of iterations =  1.0

     negative rho (up, down):  0.485E-02 0.172E-02

     total cpu time spent up to now is    11366.0 secs

     total energy              =   -2057.79503924 Ry
     Harris-Foulkes estimate   =   -2057.79504514 Ry
     estimated scf accuracy    <       0.00011673 Ry

     total magnetization       =    15.00 Bohr mag/cell
     absolute magnetization    =    21.94 Bohr mag/cell

     iteration # 34     ecut=    40.00 Ry     beta=0.70
     Davidson diagonalization with overlap
     ethr =  4.93E-08,  avg # of iterations =  1.0

     negative rho (up, down):  0.483E-02 0.170E-02

     total cpu time spent up to now is    11656.5 secs

     total energy              =   -2057.79505152 Ry
     Harris-Foulkes estimate   =   -2057.79506474 Ry
     estimated scf accuracy    <       0.00014597 Ry

     total magnetization       =    15.00 Bohr mag/cell
     absolute magnetization    =    21.92 Bohr mag/cell

     iteration # 35     ecut=    40.00 Ry     beta=0.70
     Davidson diagonalization with overlap
     ethr =  4.93E-08,  avg # of iterations =  1.0

     negative rho (up, down):  0.485E-02 0.172E-02

     total cpu time spent up to now is    11949.9 secs

     total energy              =   -2057.79503927 Ry
     Harris-Foulkes estimate   =   -2057.79508016 Ry
     estimated scf accuracy    <       0.00019641 Ry

     total magnetization       =    15.00 Bohr mag/cell
     absolute magnetization    =    21.89 Bohr mag/cell

     iteration # 36     ecut=    40.00 Ry     beta=0.70
     Davidson diagonalization with overlap
     ethr =  4.93E-08,  avg # of iterations =  1.0

     negative rho (up, down):  0.484E-02 0.171E-02

     total cpu time spent up to now is    12242.3 secs

     total energy              =   -2057.79505882 Ry
     Harris-Foulkes estimate   =   -2057.79506525 Ry
     estimated scf accuracy    <       0.00010428 Ry

     total magnetization       =    15.00 Bohr mag/cell
     absolute magnetization    =    21.93 Bohr mag/cell

     iteration # 37     ecut=    40.00 Ry     beta=0.70
     Davidson diagonalization with overlap
     ethr =  4.40E-08,  avg # of iterations =  1.0

     negative rho (up, down):  0.484E-02 0.171E-02

     total cpu time spent up to now is    12527.4 secs

     total energy              =   -2057.79505823 Ry
     Harris-Foulkes estimate   =   -2057.79508507 Ry
     estimated scf accuracy    <       0.00013448 Ry

     total magnetization       =    15.00 Bohr mag/cell
     absolute magnetization    =    21.89 Bohr mag/cell

     iteration # 38     ecut=    40.00 Ry     beta=0.70
     Davidson diagonalization with overlap
     ethr =  4.40E-08,  avg # of iterations =  1.1

     negative rho (up, down):  0.485E-02 0.171E-02

     total cpu time spent up to now is    12815.3 secs

     total energy              =   -2057.79504775 Ry
     Harris-Foulkes estimate   =   -2057.79509985 Ry
     estimated scf accuracy    <       0.00029735 Ry

     total magnetization       =    15.00 Bohr mag/cell
     absolute magnetization    =    21.90 Bohr mag/cell

     iteration # 39     ecut=    40.00 Ry     beta=0.70
     Davidson diagonalization with overlap
     ethr =  4.40E-08,  avg # of iterations =  1.0

     negative rho (up, down):  0.484E-02 0.171E-02

     total cpu time spent up to now is    13099.9 secs

     total energy              =   -2057.79507570 Ry
     Harris-Foulkes estimate   =   -2057.79507929 Ry
     estimated scf accuracy    <       0.00004840 Ry

     total magnetization       =    15.00 Bohr mag/cell
     absolute magnetization    =    21.89 Bohr mag/cell

     iteration # 40     ecut=    40.00 Ry     beta=0.70
     Davidson diagonalization with overlap
     ethr =  2.04E-08,  avg # of iterations =  1.0

     negative rho (up, down):  0.484E-02 0.171E-02

     total cpu time spent up to now is    13394.4 secs

     total energy              =   -2057.79507794 Ry
     Harris-Foulkes estimate   =   -2057.79508479 Ry
     estimated scf accuracy    <       0.00009976 Ry

     total magnetization       =    15.00 Bohr mag/cell
     absolute magnetization    =    21.87 Bohr mag/cell

     iteration # 41     ecut=    40.00 Ry     beta=0.70
     Davidson diagonalization with overlap
     ethr =  2.04E-08,  avg # of iterations =  1.0

     negative rho (up, down):  0.484E-02 0.171E-02

     total cpu time spent up to now is    13682.2 secs

     total energy              =   -2057.79507851 Ry
     Harris-Foulkes estimate   =   -2057.79508536 Ry
     estimated scf accuracy    <       0.00002989 Ry

     total magnetization       =    15.00 Bohr mag/cell
     absolute magnetization    =    21.87 Bohr mag/cell

     iteration # 42     ecut=    40.00 Ry     beta=0.70
     Davidson diagonalization with overlap
     ethr =  1.26E-08,  avg # of iterations =  1.1

     negative rho (up, down):  0.485E-02 0.171E-02

     total cpu time spent up to now is    13977.1 secs

     total energy              =   -2057.79506943 Ry
     Harris-Foulkes estimate   =   -2057.79509304 Ry
     estimated scf accuracy    <       0.00021247 Ry

     total magnetization       =    15.00 Bohr mag/cell
     absolute magnetization    =    21.88 Bohr mag/cell

     iteration # 43     ecut=    40.00 Ry     beta=0.70
     Davidson diagonalization with overlap
     ethr =  1.26E-08,  avg # of iterations =  1.9

     negative rho (up, down):  0.484E-02 0.171E-02

     total cpu time spent up to now is    14279.2 secs

     total energy              =   -2057.79507587 Ry
     Harris-Foulkes estimate   =   -2057.79509007 Ry
     estimated scf accuracy    <       0.00008203 Ry

     total magnetization       =    15.00 Bohr mag/cell
     absolute magnetization    =    21.88 Bohr mag/cell

     iteration # 44     ecut=    40.00 Ry     beta=0.70
     Davidson diagonalization with overlap
     ethr =  1.26E-08,  avg # of iterations =  1.2

     negative rho (up, down):  0.485E-02 0.171E-02

     total cpu time spent up to now is    14580.0 secs

     total energy              =   -2057.79508170 Ry
     Harris-Foulkes estimate   =   -2057.79508601 Ry
     estimated scf accuracy    <       0.00002578 Ry

     total magnetization       =    15.00 Bohr mag/cell
     absolute magnetization    =    21.87 Bohr mag/cell

     iteration # 45     ecut=    40.00 Ry     beta=0.70
     Davidson diagonalization with overlap
     ethr =  1.09E-08,  avg # of iterations =  1.0

     negative rho (up, down):  0.485E-02 0.171E-02

     total cpu time spent up to now is    14868.2 secs

     total energy              =   -2057.79508296 Ry
     Harris-Foulkes estimate   =   -2057.79508490 Ry
     estimated scf accuracy    <       0.00001333 Ry

     total magnetization       =    15.00 Bohr mag/cell
     absolute magnetization    =    21.87 Bohr mag/cell

     iteration # 46     ecut=    40.00 Ry     beta=0.70
     Davidson diagonalization with overlap
     ethr =  5.62E-09,  avg # of iterations =  1.0

     negative rho (up, down):  0.485E-02 0.171E-02

     total cpu time spent up to now is    15164.9 secs

     total energy              =   -2057.79508425 Ry
     Harris-Foulkes estimate   =   -2057.79508496 Ry
     estimated scf accuracy    <       0.00001427 Ry

     total magnetization       =    15.00 Bohr mag/cell
     absolute magnetization    =    21.86 Bohr mag/cell

     iteration # 47     ecut=    40.00 Ry     beta=0.70
     Davidson diagonalization with overlap
     ethr =  5.62E-09,  avg # of iterations =  1.0

     negative rho (up, down):  0.485E-02 0.171E-02

     total cpu time spent up to now is    15458.8 secs

     total energy              =   -2057.79508503 Ry
     Harris-Foulkes estimate   =   -2057.79508550 Ry
     estimated scf accuracy    <       0.00000709 Ry

     total magnetization       =    15.00 Bohr mag/cell
     absolute magnetization    =    21.86 Bohr mag/cell

     iteration # 48     ecut=    40.00 Ry     beta=0.70
     Davidson diagonalization with overlap
     ethr =  2.99E-09,  avg # of iterations =  1.0

     negative rho (up, down):  0.485E-02 0.171E-02

     total cpu time spent up to now is    15755.4 secs

     total energy              =   -2057.79508375 Ry
     Harris-Foulkes estimate   =   -2057.79508600 Ry
     estimated scf accuracy    <       0.00000358 Ry

     total magnetization       =    15.00 Bohr mag/cell
     absolute magnetization    =    21.86 Bohr mag/cell

     iteration # 49     ecut=    40.00 Ry     beta=0.70
     Davidson diagonalization with overlap
     ethr =  1.51E-09,  avg # of iterations =  1.7

     negative rho (up, down):  0.485E-02 0.171E-02

     total cpu time spent up to now is    16056.5 secs

     total energy              =   -2057.79508402 Ry
     Harris-Foulkes estimate   =   -2057.79508618 Ry
     estimated scf accuracy    <       0.00001806 Ry

     total magnetization       =    15.00 Bohr mag/cell
     absolute magnetization    =    21.86 Bohr mag/cell

     iteration # 50     ecut=    40.00 Ry     beta=0.70
     Davidson diagonalization with overlap
     ethr =  1.51E-09,  avg # of iterations =  1.2

     negative rho (up, down):  0.485E-02 0.171E-02

     total cpu time spent up to now is    16359.5 secs

     total energy              =   -2057.79508538 Ry
     Harris-Foulkes estimate   =   -2057.79508578 Ry
     estimated scf accuracy    <       0.00000500 Ry

     total magnetization       =    15.00 Bohr mag/cell
     absolute magnetization    =    21.86 Bohr mag/cell

     iteration # 51     ecut=    40.00 Ry     beta=0.70
     Davidson diagonalization with overlap
     ethr =  1.51E-09,  avg # of iterations =  1.0

     negative rho (up, down):  0.485E-02 0.171E-02

     total cpu time spent up to now is    16650.9 secs

     total energy              =   -2057.79508576 Ry
     Harris-Foulkes estimate   =   -2057.79508588 Ry
     estimated scf accuracy    <       0.00000281 Ry

     total magnetization       =    15.00 Bohr mag/cell
     absolute magnetization    =    21.86 Bohr mag/cell

     iteration # 52     ecut=    40.00 Ry     beta=0.70
     Davidson diagonalization with overlap
     ethr =  1.19E-09,  avg # of iterations =  1.0

     negative rho (up, down):  0.485E-02 0.171E-02

     total cpu time spent up to now is    16937.4 secs

     total energy              =   -2057.79508596 Ry
     Harris-Foulkes estimate   =   -2057.79508636 Ry
     estimated scf accuracy    <       0.00000311 Ry

     total magnetization       =    15.00 Bohr mag/cell
     absolute magnetization    =    21.85 Bohr mag/cell

     iteration # 53     ecut=    40.00 Ry     beta=0.70
     Davidson diagonalization with overlap
     ethr =  1.19E-09,  avg # of iterations =  1.0

     negative rho (up, down):  0.485E-02 0.171E-02

     total cpu time spent up to now is    17233.0 secs

     total energy              =   -2057.79508594 Ry
     Harris-Foulkes estimate   =   -2057.79508655 Ry
     estimated scf accuracy    <       0.00000437 Ry

     total magnetization       =    15.00 Bohr mag/cell
     absolute magnetization    =    21.85 Bohr mag/cell

     iteration # 54     ecut=    40.00 Ry     beta=0.70
     Davidson diagonalization with overlap
     ethr =  1.19E-09,  avg # of iterations =  1.0

     negative rho (up, down):  0.485E-02 0.171E-02

     total cpu time spent up to now is    17523.3 secs

     total energy              =   -2057.79508604 Ry
     Harris-Foulkes estimate   =   -2057.79508641 Ry
     estimated scf accuracy    <       0.00000234 Ry

     total magnetization       =    15.00 Bohr mag/cell
     absolute magnetization    =    21.85 Bohr mag/cell

     iteration # 55     ecut=    40.00 Ry     beta=0.70
     Davidson diagonalization with overlap
     ethr =  9.88E-10,  avg # of iterations =  1.0

     negative rho (up, down):  0.485E-02 0.171E-02

     total cpu time spent up to now is    17820.2 secs

     total energy              =   -2057.79508590 Ry
     Harris-Foulkes estimate   =   -2057.79508639 Ry
     estimated scf accuracy    <       0.00000369 Ry

     total magnetization       =    15.00 Bohr mag/cell
     absolute magnetization    =    21.85 Bohr mag/cell

     iteration # 56     ecut=    40.00 Ry     beta=0.70
     Davidson diagonalization with overlap
     ethr =  9.88E-10,  avg # of iterations =  1.0

     negative rho (up, down):  0.485E-02 0.171E-02

     total cpu time spent up to now is    18107.4 secs

     total energy              =   -2057.79508547 Ry
     Harris-Foulkes estimate   =   -2057.79508705 Ry
     estimated scf accuracy    <       0.00001469 Ry

     total magnetization       =    15.00 Bohr mag/cell
     absolute magnetization    =    21.86 Bohr mag/cell

     iteration # 57     ecut=    40.00 Ry     beta=0.70
     Davidson diagonalization with overlap
     ethr =  9.88E-10,  avg # of iterations =  1.0

     negative rho (up, down):  0.485E-02 0.171E-02

     total cpu time spent up to now is    18403.1 secs

     total energy              =   -2057.79508625 Ry
     Harris-Foulkes estimate   =   -2057.79508638 Ry
     estimated scf accuracy    <       0.00000121 Ry

     total magnetization       =    15.00 Bohr mag/cell
     absolute magnetization    =    21.85 Bohr mag/cell

     iteration # 58     ecut=    40.00 Ry     beta=0.70
     Davidson diagonalization with overlap
     ethr =  5.10E-10,  avg # of iterations =  1.0

     negative rho (up, down):  0.485E-02 0.171E-02

     total cpu time spent up to now is    18695.1 secs

     End of self-consistent calculation
 --- enter write_ns ---
 LDA+U parameters:
U( 2)     =  2.50000000
alpha( 2) =  0.00000000
atom    3   Tr[ns(na)] (up, down, total) =   3.54540  1.11443  4.65983
   spin  1
    eigenvalues: 
  0.465  0.508  0.672  0.919  0.981
    eigenvectors:
  0.007  0.206  0.001  0.000  0.785
  0.975  0.025  0.000  0.000  0.000
  0.000  0.000  0.980  0.017  0.002
  0.018  0.769  0.001  0.000  0.212
  0.000  0.000  0.017  0.982  0.000
    occupations:
  0.880 -0.010  0.014 -0.194 -0.003
 -0.010  0.466 -0.003 -0.003 -0.007
  0.014 -0.003  0.677 -0.005  0.032
 -0.194 -0.003 -0.005  0.608 -0.001
 -0.003 -0.007  0.032 -0.001  0.914
   spin  2
    eigenvalues: 
  0.104  0.126  0.153  0.354  0.378
    eigenvectors:
  0.765  0.001  0.016  0.018  0.199
  0.000  0.002  0.000  0.920  0.078
  0.019  0.039  0.942  0.000  0.000
  0.216  0.000  0.002  0.059  0.723
  0.000  0.958  0.040  0.002  0.000
    occupations:
  0.164 -0.002 -0.004  0.112  0.001
 -0.002  0.355  0.001 -0.007  0.011
 -0.004  0.001  0.151  0.007 -0.005
  0.112 -0.007  0.007  0.317  0.000
  0.001  0.011 -0.005  0.000  0.127
atomic mag. moment =     2.430966
atom    4   Tr[ns(na)] (up, down, total) =   3.47397  1.18675  4.66072
   spin  1
    eigenvalues: 
  0.487  0.531  0.576  0.896  0.985
    eigenvectors:
  0.003  0.990  0.000  0.001  0.005
  0.000  0.001  0.018  0.981  0.000
  0.000  0.000  0.982  0.018  0.000
  0.000  0.005  0.000  0.000  0.995
  0.997  0.003  0.000  0.000  0.000
    occupations:
  0.534 -0.013 -0.001  0.033  0.002
 -0.013  0.890  0.042  0.002  0.000
 -0.001  0.042  0.581  0.002 -0.001
  0.033  0.002  0.002  0.982  0.000
  0.002  0.000 -0.001  0.000  0.487
   spin  2
    eigenvalues: 
  0.107  0.136  0.177  0.373  0.395
    eigenvectors:
  0.003  0.003  0.000  0.003  0.991
  0.002  0.948  0.047  0.000  0.003
  0.000  0.046  0.953  0.000  0.000
  0.995  0.003  0.000  0.000  0.002
  0.000  0.000  0.000  0.997  0.003
    occupations:
  0.393  0.014  0.003 -0.014  0.001
  0.014  0.139 -0.008  0.001 -0.001
  0.003 -0.008  0.175  0.000  0.000
 -0.014  0.001  0.000  0.108  0.000
  0.001 -0.001  0.000  0.000  0.373
atomic mag. moment =     2.287218
atom    9   Tr[ns(na)] (up, down, total) =   3.49863  1.20592  4.70455
   spin  1
    eigenvalues: 
  0.500  0.509  0.640  0.869  0.981
    eigenvectors:
  0.009  0.152  0.000  0.000  0.838
  0.946  0.054  0.000  0.000  0.000
  0.000  0.001  0.993  0.005  0.000
  0.045  0.793  0.001  0.000  0.161
  0.000  0.000  0.006  0.994  0.000
    occupations:
  0.904  0.001  0.000 -0.173  0.000
  0.001  0.501  0.002  0.002  0.000
  0.000  0.002  0.641 -0.004 -0.017
 -0.173  0.002 -0.004  0.585  0.003
  0.000  0.000 -0.017  0.003  0.867
   spin  2
    eigenvalues: 
  0.124  0.152  0.167  0.381  0.382
    eigenvectors:
  0.825  0.000  0.000  0.160  0.015
  0.000  0.000  0.000  0.090  0.910
  0.000  0.018  0.982  0.000  0.000
  0.175  0.000  0.000  0.750  0.075
  0.000  0.982  0.018  0.000  0.000
    occupations:
  0.169  0.001  0.001  0.097  0.000
  0.001  0.382  0.000 -0.001  0.000
  0.001  0.000  0.167  0.004  0.002
  0.097 -0.001  0.004  0.336  0.000
  0.000  0.000  0.002  0.000  0.152
atomic mag. moment =     2.292715
atom   10   Tr[ns(na)] (up, down, total) =   3.59797  1.05027  4.64823
   spin  1
    eigenvalues: 
  0.475  0.497  0.737  0.906  0.983
    eigenvectors:
  0.000  0.995  0.000  0.000  0.004
  0.000  0.000  0.000  0.961  0.038
  0.001  0.000  0.999  0.000  0.000
  0.000  0.004  0.000  0.038  0.958
  0.998  0.000  0.001  0.000  0.000
    occupations:
  0.500 -0.009  0.001  0.031  0.001
 -0.009  0.908  0.000 -0.014 -0.009
  0.001  0.000  0.737  0.001  0.009
  0.031 -0.014  0.001  0.978  0.000
  0.001 -0.009  0.009  0.000  0.476
   spin  2
    eigenvalues: 
  0.098  0.146  0.154  0.299  0.354
    eigenvectors:
  0.006  0.000  0.000  0.994  0.000
  0.001  0.994  0.004  0.000  0.000
  0.000  0.004  0.996  0.000  0.000
  0.993  0.001  0.000  0.006  0.000
  0.000  0.000  0.000  0.000  0.999
    occupations:
  0.297  0.000 -0.001 -0.015  0.000
  0.000  0.146  0.000  0.002  0.004
 -0.001  0.000  0.154 -0.001  0.003
 -0.015  0.002 -0.001  0.099  0.000
  0.000  0.004  0.003  0.000  0.353
atomic mag. moment =     2.547697
atom   16   Tr[ns(na)] (up, down, total) =   3.54262  1.11736  4.65997
   spin  1
    eigenvalues: 
  0.465  0.509  0.671  0.917  0.981
    eigenvectors:
  0.008  0.206  0.002  0.000  0.785
  0.972  0.028  0.000  0.000  0.000
  0.000  0.000  0.976  0.021  0.002
  0.020  0.766  0.001  0.000  0.213
  0.000  0.000  0.021  0.978  0.000
    occupations:
  0.879  0.010  0.014 -0.193  0.003
  0.010  0.466  0.003  0.003 -0.008
  0.014  0.003  0.677 -0.006 -0.035
 -0.193  0.003 -0.006  0.609  0.000
  0.003 -0.008 -0.035  0.000  0.911
   spin  2
    eigenvalues: 
  0.104  0.126  0.154  0.354  0.379
    eigenvectors:
  0.766  0.001  0.015  0.020  0.198
  0.000  0.002  0.000  0.915  0.082
  0.018  0.047  0.934  0.000  0.000
  0.215  0.000  0.002  0.063  0.720
  0.000  0.949  0.048  0.002  0.000
    occupations:
  0.164  0.002 -0.004  0.112 -0.001
  0.002  0.356 -0.001  0.007  0.011
 -0.004 -0.001  0.151  0.007  0.006
  0.112  0.007  0.007  0.318  0.000
 -0.001  0.011  0.006  0.000  0.128
atomic mag. moment =     2.425264
atom   17   Tr[ns(na)] (up, down, total) =   3.48802  1.17239  4.66041
   spin  1
    eigenvalues: 
  0.483  0.530  0.610  0.880  0.985
    eigenvectors:
  0.002  0.992  0.001  0.001  0.004
  0.000  0.001  0.015  0.984  0.000
  0.000  0.001  0.984  0.015  0.000
  0.000  0.004  0.000  0.000  0.996
  0.998  0.002  0.000  0.000  0.000
    occupations:
  0.533 -0.012 -0.003  0.030  0.002
 -0.012  0.875  0.032  0.001  0.000
 -0.003  0.032  0.614  0.001  0.003
  0.030  0.001  0.001  0.983  0.000
  0.002  0.000  0.003  0.000  0.483
   spin  2
    eigenvalues: 
  0.106  0.134  0.172  0.368  0.392
    eigenvectors:
  0.003  0.004  0.000  0.002  0.992
  0.003  0.944  0.049  0.000  0.004
  0.000  0.049  0.951  0.000  0.000
  0.994  0.003  0.000  0.000  0.003
  0.000  0.000  0.000  0.998  0.002
    occupations:
  0.390  0.016  0.003 -0.014  0.001
  0.016  0.137 -0.008  0.001  0.000
  0.003 -0.008  0.170  0.000  0.000
 -0.014  0.001  0.000  0.106  0.000
  0.001  0.000  0.000  0.000  0.368
atomic mag. moment =     2.315625
atom   22   Tr[ns(na)] (up, down, total) =   3.09495  1.73646  4.83142
   spin  1
    eigenvalues: 
  0.520  0.549  0.565  0.646  0.815
    eigenvectors:
  0.989  0.001  0.010  0.000  0.000
  0.001  0.999  0.000  0.000  0.000
  0.000  0.000  0.000  0.010  0.990
  0.010  0.000  0.990  0.000  0.000
  0.000  0.000  0.000  0.990  0.010
    occupations:
  0.521 -0.001  0.005 -0.004 -0.001
 -0.001  0.549  0.001  0.000  0.000
  0.005  0.001  0.813 -0.003  0.017
 -0.004  0.000 -0.003  0.564  0.000
 -0.001  0.000  0.017  0.000  0.648
   spin  2
    eigenvalues: 
  0.216  0.287  0.309  0.462  0.462
    eigenvectors:
  0.000  0.000  0.992  0.002  0.006
  0.000  0.000  0.000  0.600  0.400
  0.998  0.002  0.000  0.000  0.000
  0.000  0.000  0.007  0.399  0.594
  0.002  0.997  0.000  0.000  0.000
    occupations:
  0.310 -0.003  0.000  0.013  0.000
 -0.003  0.462  0.000  0.000  0.001
  0.000  0.000  0.216  0.003 -0.003
  0.013  0.000  0.003  0.461  0.001
  0.000  0.001 -0.003  0.001  0.287
atomic mag. moment =     1.358487
atom   23   Tr[ns(na)] (up, down, total) =   3.57099  1.08268  4.65368
   spin  1
    eigenvalues: 
  0.474  0.495  0.708  0.921  0.973
    eigenvectors:
  0.000  0.997  0.002  0.000  0.000
  0.001  0.002  0.990  0.000  0.007
  0.000  0.000  0.000  0.999  0.001
  0.000  0.000  0.007  0.000  0.992
  0.999  0.000  0.001  0.000  0.000
    occupations:
  0.496  0.010  0.009 -0.003 -0.001
  0.010  0.710  0.003  0.022 -0.006
  0.009  0.003  0.921 -0.001 -0.005
 -0.003  0.022 -0.001  0.971 -0.001
 -0.001 -0.006 -0.005 -0.001  0.474
   spin  2
    eigenvalues: 
  0.101  0.108  0.164  0.348  0.362
    eigenvectors:
  0.003  0.001  0.000  0.995  0.001
  0.002  0.000  0.998  0.000  0.000
  0.039  0.960  0.000  0.000  0.000
  0.955  0.039  0.002  0.004  0.000
  0.000  0.000  0.000  0.001  0.999
    occupations:
  0.347  0.001 -0.004 -0.015  0.000
  0.001  0.164  0.000 -0.003  0.003
 -0.004  0.000  0.107  0.001 -0.004
 -0.015 -0.003  0.001  0.102  0.000
  0.000  0.003 -0.004  0.000  0.362
atomic mag. moment =     2.488310
N of occupied +U levels =  37.4788129
 --- exit write_ns ---

 ------ SPIN UP ------------


          k = 0.0000 0.0000 0.0000 ( 27003 PWs)   bands (ev):

   -75.0578 -74.6688 -74.5194 -74.5068 -74.4688 -74.4598 -74.4377 -74.4208
   -46.4552 -46.3425 -46.3180 -46.1694 -45.9605 -45.9285 -45.8742 -45.8727
   -45.8675 -45.8506 -45.8296 -45.8089 -45.8035 -45.7982 -45.7944 -45.7802
   -45.7669 -45.7446 -45.7409 -45.7262 -45.7138 -45.7040 -45.6504 -45.5873
   -24.0665 -20.6739 -20.2147 -19.8857 -19.8087 -19.6614 -19.2973 -19.1932
   -19.1282 -19.0786 -18.9714 -18.9104 -18.7807 -18.7416 -18.6688 -18.5841
   -18.5330 -18.4265 -18.3500 -17.4291  -9.2465  -8.8374  -8.6458  -8.4374
    -8.2698  -8.1173  -7.7642  -7.5952  -7.4866  -7.4033  -7.3123  -7.2201
    -7.1942  -7.1657  -7.1079  -6.6952  -6.5138  -6.5042  -6.4427  -6.4233
    -6.4155  -6.3329  -6.2485  -5.9858  -5.9675  -5.8229  -5.6502  -5.5572
    -5.2878  -5.2185  -5.1215  -4.9649  -4.9226  -4.7917  -4.6332  -4.5405
    -4.4655  -4.3776  -4.3161  -4.2979  -4.2205  -4.0805  -3.9242  -3.8167
    -3.7851  -3.7602  -3.6499  -3.5901  -3.4733  -3.4218  -3.4036  -3.3671
    -3.3044  -3.2704  -3.1907  -3.1023  -3.0466  -2.9291  -2.8214  -2.7854
    -2.6480  -2.5658  -2.5090  -2.4383  -2.4206  -2.3482  -2.3130  -2.0058
    -1.9264  -1.7510  -1.5166  -1.4274  -1.1958  -1.1616  -1.1047  -0.9735
    -0.8408  -0.7360  -0.6454  -0.5781  -0.3993  -0.2734  -0.0099   0.2325
     0.9267   1.0730   1.4051   1.8371   1.8701   2.0577   2.0625   2.1576
     2.2874   2.3978   2.5365   2.6949   2.7492   2.8214   2.8463   3.1944
     3.5455   3.6955   3.8062   4.3421   4.9401   5.5306   5.9929   6.4603
     6.8723   6.9653   7.1866   7.3550   7.4354   7.4644   7.5167   7.6015
     7.7312   7.7695   7.8771   8.0554   8.1224   8.1971   8.2818   8.5308
     8.6843   8.7293   8.8920   8.9712   9.1511   9.2666   9.3989   9.4652
     9.6463   9.7775   9.9275   9.9619  10.0734  10.1775  10.1892  10.5141
    10.5771  10.5967  10.6178  10.8278  10.8516  10.9657  10.9861  11.1289
    11.1695  11.4200  11.4460  11.5336  11.6389  11.7002  11.7589  11.8309
    11.9111  11.9210  11.9666  12.0510  12.1335  12.2048  12.2355  12.3026
    12.3277  12.4424  12.4675  12.6454  12.7152  12.7984  12.8295  12.9291
    12.9785  13.0269  13.1469  13.2942  13.3354  13.3482  13.4927  13.5659
    13.5718  13.6261  13.6850  13.7521  13.7986  13.8859  13.9059  14.0997
    14.1951  14.3535  14.3652  14.4343  14.4716  14.5059  14.8196  14.8369
    14.9895  15.0291  15.0968  15.1308  15.2150  15.2573  15.3057  15.3566
    15.3977  15.5427  15.5957  15.7437  15.7746  15.8676  15.9928  16.1334
    16.2181  16.5041  16.5457  16.7001  16.7176  16.7856  16.8524  16.9041
    17.0155  17.1016  17.2789  17.3740  17.4071  17.4966  17.6169  17.6775
    17.7085  17.7726  17.8674  18.0682  18.1825  18.2680  18.3284  18.4471
    18.5021  18.5971  18.6467  18.7044  18.8256  18.9577  19.0088  19.0714
    19.1437  19.1706  19.2425  19.2870  19.4463  19.4886  19.5754  19.6538
    19.7066  19.7190  19.7410  19.7768  19.9635  19.9907  20.0523  20.1213
    20.1661  20.3575  20.3743  20.5353  20.5504  20.5924  20.6928  20.7747
    20.8536  20.9203  20.9958  21.0717  21.1870  21.1906  21.2451  21.3336
    21.3684  21.3859  21.4819  21.5283  21.6063  21.6463  21.7180  21.7444
    21.8227  21.8992  21.9283  22.0338  22.1484  22.1757  22.2383

          k = 0.0000 0.2341 0.0000 ( 27088 PWs)   bands (ev):

   -75.0578 -74.6688 -74.5194 -74.5069 -74.4688 -74.4598 -74.4377 -74.4208
   -46.4552 -46.3425 -46.3178 -46.1694 -45.9614 -45.9267 -45.8726 -45.8697
   -45.8679 -45.8509 -45.8324 -45.8138 -45.7981 -45.7974 -45.7951 -45.7837
   -45.7659 -45.7446 -45.7404 -45.7262 -45.7155 -45.7030 -45.6502 -45.5874
   -24.0662 -20.5918 -20.1125 -19.8817 -19.8656 -19.6532 -19.3532 -19.2403
   -19.1833 -19.0890 -19.0169 -18.8922 -18.7438 -18.7285 -18.7051 -18.6545
   -18.4960 -18.4306 -18.3459 -17.4265  -9.2272  -8.7342  -8.3830  -8.3645
    -8.2106  -8.1747  -7.9537  -7.6586  -7.6051  -7.4588  -7.2328  -7.1080
    -7.0774  -6.9822  -6.8391  -6.6722  -6.5471  -6.3880  -6.3642  -6.3186
    -6.2718  -6.1861  -6.1170  -5.9905  -5.9219  -5.8491  -5.6163  -5.5167
    -5.4956  -5.4225  -5.2397  -5.1845  -5.0845  -4.9513  -4.7647  -4.6193
    -4.5640  -4.4971  -4.4134  -4.3573  -4.2853  -4.2098  -4.1296  -3.9905
    -3.9070  -3.8297  -3.6951  -3.6077  -3.5605  -3.5251  -3.4538  -3.3018
    -3.2671  -3.1818  -3.1147  -2.9825  -2.8812  -2.7978  -2.7052  -2.6055
    -2.5846  -2.5235  -2.4837  -2.4312  -2.3896  -2.3162  -2.0667  -2.0581
    -1.9980  -1.7880  -1.7661  -1.7000  -1.5088  -1.1484  -1.1051  -0.9302
    -0.7297  -0.7083  -0.5907  -0.4448  -0.3600  -0.3130  -0.2104   0.4145
     0.9704   1.0489   1.1286   1.1618   1.7133   2.1438   2.2881   2.3903
     2.4698   2.6461   2.6949   2.7942   2.8724   2.9000   3.0651   3.0999
     3.6454   3.8504   4.0343   4.5588   5.1551   5.2490   5.7136   5.8184
     5.9960   6.3793   6.5890   7.1169   7.2615   7.5710   7.6178   7.6670
     7.8955   7.9792   8.1449   8.2475   8.3585   8.4764   8.7189   8.8891
     8.9067   8.9458   9.0348   9.2430   9.3770   9.4146   9.5213   9.6001
     9.6670   9.7142   9.8400  10.0422  10.1752  10.2016  10.2509  10.2813
    10.2977  10.4498  10.4771  10.6298  10.6701  10.7181  10.8636  10.9310
    10.9782  11.0625  11.1995  11.3845  11.4464  11.5181  11.6467  11.7409
    11.7993  11.8820  11.9624  11.9852  12.1749  12.2129  12.2674  12.5408
    12.5707  12.6625  12.7078  12.7298  12.8516  13.0696  13.1485  13.1923
    13.3134  13.3846  13.4286  13.6076  13.6857  13.7492  13.7847  13.8856
    13.9565  14.0417  14.1198  14.1761  14.2019  14.2616  14.3483  14.4131
    14.4972  14.5323  14.6191  14.6273  14.7623  14.8742  14.9113  14.9787
    15.0103  15.0963  15.2009  15.2495  15.2883  15.3498  15.3958  15.4617
    15.5265  15.5828  15.6449  15.7675  15.8618  15.9006  15.9314  15.9889
    16.0906  16.1277  16.1964  16.2656  16.4165  16.4991  16.5706  16.6934
    16.8195  16.8522  16.9227  17.0089  17.1351  17.1817  17.2347  17.2865
    17.4411  17.4963  17.5367  17.7025  17.8010  17.8956  18.0383  18.1177
    18.2299  18.3143  18.4187  18.4549  18.5731  18.7249  18.7553  18.8420
    18.8568  19.0088  19.0977  19.1641  19.2347  19.2543  19.3623  19.4327
    19.5758  19.7055  19.7428  19.7951  19.9307  19.9548  20.0387  20.1412
    20.1779  20.2684  20.3077  20.4036  20.4677  20.5501  20.5711  20.6361
    20.6627  20.7310  20.7798  20.8455  20.8875  20.9421  21.0273  21.0898
    21.1900  21.2382  21.3290  21.3729  21.4344  21.4425  21.5027  21.5231
    21.6090  21.6701  21.7179  21.7480  21.8495  21.8815  21.9546

          k = 0.0000-0.4682 0.0000 ( 27136 PWs)   bands (ev):

   -75.0578 -74.6688 -74.5194 -74.5069 -74.4688 -74.4598 -74.4377 -74.4208
   -46.4552 -46.3425 -46.3177 -46.1694 -45.9621 -45.9250 -45.8725 -45.8688
   -45.8644 -45.8513 -45.8330 -45.8179 -45.7985 -45.7980 -45.7941 -45.7849
   -45.7650 -45.7446 -45.7399 -45.7262 -45.7170 -45.7022 -45.6501 -45.5876
   -24.0659 -20.4846 -20.0170 -19.8856 -19.8439 -19.6955 -19.5365 -19.2075
   -19.1942 -19.1018 -19.0469 -18.8822 -18.8455 -18.7125 -18.7075 -18.6397
   -18.4706 -18.4375 -18.3499 -17.4239  -9.2051  -8.6794  -8.4964  -8.1855
    -8.1681  -7.9869  -7.8736  -7.6756  -7.6168  -7.4529  -7.0709  -7.0354
    -6.8778  -6.7707  -6.7515  -6.6784  -6.6206  -6.3819  -6.2775  -6.2206
    -6.1769  -6.1515  -6.0339  -6.0119  -5.9184  -5.8340  -5.6786  -5.6568
    -5.6091  -5.5247  -5.3339  -5.2558  -5.1405  -5.0403  -4.9535  -4.8382
    -4.7381  -4.6645  -4.5957  -4.5334  -4.4333  -4.3352  -4.1052  -3.9200
    -3.8926  -3.8333  -3.7749  -3.6722  -3.6101  -3.5424  -3.3576  -3.2416
    -3.1323  -3.0735  -2.9563  -2.9352  -2.8181  -2.7510  -2.6978  -2.6826
    -2.5722  -2.5306  -2.4722  -2.4204  -2.4083  -2.3837  -2.2599  -2.1998
    -2.1193  -1.8438  -1.6010  -1.5219  -1.4486  -1.1271  -0.9660  -0.9563
    -0.8944  -0.8040  -0.6278  -0.5077  -0.3507  -0.2672  -0.1487   0.5419
     0.6074   0.7208   1.0434   1.3424   1.9206   2.1942   2.3536   2.3745
     2.5427   2.5963   2.6767   2.7338   2.8204   3.1531   3.2847   3.4611
     3.6658   4.3228   4.5051   4.6015   4.7788   4.9702   5.2607   5.5091
     5.7431   6.1062   6.3136   6.9059   7.1357   7.6622   7.7054   7.8556
     8.0296   8.1894   8.2742   8.4044   8.5143   8.5680   8.6323   8.7186
     8.9166   8.9885   9.0386   9.1128   9.1906   9.3122   9.4155   9.5868
     9.6024   9.6636   9.8916   9.9199  10.0176  10.0750  10.1781  10.2492
    10.2869  10.5227  10.5539  10.6619  10.7696  10.9758  11.1326  11.1951
    11.2693  11.3323  11.3504  11.4561  11.5886  11.6598  11.7294  11.9531
    12.0425  12.1113  12.1565  12.1898  12.2861  12.3053  12.3976  12.4762
    12.5844  12.6578  12.8321  12.8338  12.9771  13.0493  13.1782  13.2498
    13.2772  13.4104  13.4447  13.6108  13.6410  13.7744  13.8425  13.8671
    13.9097  13.9871  14.0829  14.1527  14.2788  14.3300  14.4564  14.5070
    14.5167  14.6199  14.6655  14.8152  14.8352  14.9476  15.0261  15.1709
    15.2208  15.2679  15.2985  15.5323  15.5488  15.6026  15.6363  15.6403
    15.7015  15.7752  15.9024  15.9462  15.9707  16.0554  16.1202  16.2186
    16.2719  16.3151  16.3985  16.4371  16.4876  16.6118  16.7183  16.7828
    16.8030  16.8176  16.8467  16.9129  16.9459  17.1043  17.1570  17.2316
    17.3366  17.3630  17.4330  17.4891  17.6036  17.7086  17.7754  17.7921
    17.9909  18.0485  18.0807  18.1254  18.2050  18.3041  18.3846  18.4576
    18.5811  18.6391  18.7255  18.7777  18.8886  18.9146  18.9536  19.0280
    19.0746  19.1384  19.1902  19.2558  19.3932  19.5741  19.5892  19.7916
    19.8125  19.8909  19.9932  20.0512  20.2418  20.2479  20.2843  20.3094
    20.4132  20.5334  20.6378  20.6625  20.7392  20.7818  20.8544  20.8785
    21.0142  21.0377  21.0904  21.1503  21.1700  21.2415  21.3209  21.3625
    21.4149  21.4877  21.5728  21.6784  21.8158  21.8840  21.9626

          k = 0.2500 0.0000 0.0000 ( 27178 PWs)   bands (ev):

   -75.0577 -74.6685 -74.5187 -74.5069 -74.4691 -74.4598 -74.4359 -74.4222
   -46.4517 -46.3424 -46.3179 -46.1695 -45.9383 -45.9279 -45.8733 -45.8708
   -45.8676 -45.8493 -45.8237 -45.8207 -45.8057 -45.7964 -45.7941 -45.7781
   -45.7567 -45.7444 -45.7314 -45.7226 -45.7141 -45.7082 -45.6750 -45.6116
   -24.0664 -20.5538 -20.1014 -19.9618 -19.7402 -19.6858 -19.3642 -19.2555
   -19.2091 -19.0745 -18.9760 -18.8893 -18.7685 -18.7454 -18.6912 -18.6075
   -18.5116 -18.4526 -18.3740 -17.4281  -9.2440  -8.6470  -8.4708  -8.2891
    -8.1658  -7.9782  -7.7357  -7.5048  -7.4291  -7.4181  -7.3792  -7.2958
    -7.2412  -7.1459  -6.9671  -6.8469  -6.7418  -6.6428  -6.5430  -6.4424
    -6.3670  -6.2648  -6.2158  -6.0006  -5.9224  -5.8520  -5.5476  -5.4224
    -5.3103  -5.2034  -5.0699  -5.0027  -4.8899  -4.8001  -4.7582  -4.6863
    -4.6173  -4.5795  -4.5503  -4.3708  -4.3276  -4.1173  -4.0796  -4.0418
    -3.9102  -3.8783  -3.7882  -3.7279  -3.5686  -3.5298  -3.4686  -3.4188
    -3.3720  -3.2263  -3.1334  -2.9294  -2.8441  -2.7798  -2.7284  -2.6891
    -2.5919  -2.5405  -2.4679  -2.3655  -2.1687  -2.1296  -2.0674  -1.9026
    -1.8354  -1.7311  -1.5578  -1.5178  -1.1851  -1.1317  -1.0998  -1.0277
    -0.8290  -0.7357  -0.6127  -0.5325  -0.4896  -0.3408  -0.1118   0.3278
     0.9926   1.1073   1.4997   1.7820   1.8791   2.0044   2.0609   2.0891
     2.2054   2.3604   2.4055   2.4671   2.5949   2.6932   2.9806   3.1543
     3.6958   3.8999   4.0893   4.6313   5.1186   5.3124   5.9587   6.0750
     6.1955   6.5177   6.7635   6.9487   7.1639   7.2574   7.4824   7.6878
     7.7500   7.8687   8.0060   8.0840   8.1873   8.3869   8.4893   8.6335
     8.7586   8.9232   9.1279   9.1802   9.3885   9.4469   9.5484   9.6772
     9.8071   9.8290   9.9587  10.0008  10.0670  10.1826  10.1958  10.3280
    10.4358  10.4859  10.5309  10.5924  10.6061  10.7037  10.8387  10.9148
    10.9654  11.1419  11.2676  11.3832  11.4583  11.5595  11.6452  11.7307
    11.7937  11.8477  11.9748  12.1127  12.1778  12.3514  12.4743  12.5068
    12.5656  12.6461  12.7575  12.7860  12.9344  13.0857  13.1649  13.2258
    13.3379  13.4356  13.4616  13.5171  13.6770  13.7514  13.7941  13.8329
    13.9061  13.9965  14.0500  14.1697  14.2318  14.3349  14.4044  14.4709
    14.5466  14.6237  14.7438  14.7719  14.8301  14.9212  14.9894  15.0729
    15.1171  15.1889  15.2379  15.2878  15.3878  15.4391  15.5888  15.6557
    15.6953  15.7588  15.7865  15.8827  15.9804  16.0245  16.1814  16.2554
    16.3445  16.4591  16.5429  16.6085  16.7091  16.7744  16.9029  16.9881
    17.0321  17.1114  17.1741  17.2540  17.3436  17.4162  17.4620  17.5420
    17.6428  17.6625  17.7280  17.7599  17.8154  17.8722  18.0049  18.0847
    18.1403  18.2693  18.3526  18.5268  18.5603  18.6629  18.7245  18.7780
    18.8921  18.9379  19.0275  19.1378  19.2017  19.2901  19.3662  19.4214
    19.4705  19.4906  19.6187  19.6367  19.7045  19.8113  19.8671  19.9056
    19.9416  20.0647  20.1425  20.2016  20.2644  20.3161  20.3749  20.3934
    20.5196  20.5776  20.6957  20.7838  20.8415  20.9054  21.0035  21.0460
    21.0812  21.1619  21.2279  21.2943  21.3510  21.4122  21.4590  21.4903
    21.5154  21.6433  21.6630  21.6959  21.7197  21.8146  21.8303

          k = 0.2500 0.2341 0.0000 ( 27132 PWs)   bands (ev):

   -75.0576 -74.6685 -74.5187 -74.5069 -74.4691 -74.4598 -74.4359 -74.4222
   -46.4517 -46.3424 -46.3178 -46.1695 -45.9395 -45.9260 -45.8730 -45.8686
   -45.8662 -45.8494 -45.8206 -45.8203 -45.8147 -45.7964 -45.7941 -45.7773
   -45.7565 -45.7445 -45.7314 -45.7222 -45.7164 -45.7067 -45.6748 -45.6117
[...]

     total cpu time spent up to now is    49814.5 secs

     total energy              =   -2057.79914767 Ry
     Harris-Foulkes estimate   =   -2057.79914768 Ry
     estimated scf accuracy    <       0.00002693 Ry

     total magnetization       =    15.00 Bohr mag/cell
     absolute magnetization    =    22.24 Bohr mag/cell

     iteration # 69     ecut=    40.00 Ry     beta=0.70
     Davidson diagonalization with overlap
     ethr =  3.39E-09,  avg # of iterations =  1.0

     negative rho (up, down):  0.484E-02 0.174E-02

     total cpu time spent up to now is    50108.3 secs

     total energy              =   -2057.79914668 Ry
     Harris-Foulkes estimate   =   -2057.79914800 Ry
     estimated scf accuracy    <       0.00002745 Ry

     total magnetization       =    15.00 Bohr mag/cell
     absolute magnetization    =    22.24 Bohr mag/cell

     iteration # 70     ecut=    40.00 Ry     beta=0.70
     Davidson diagonalization with overlap
     ethr =  3.39E-09,  avg # of iterations =  1.4

     negative rho (up, down):  0.484E-02 0.174E-02

     total cpu time spent up to now is    50404.4 secs

     total energy              =   -2057.79914185 Ry
     Harris-Foulkes estimate   =   -2057.79915229 Ry
     estimated scf accuracy    <       0.00005781 Ry

     total magnetization       =    15.00 Bohr mag/cell
     absolute magnetization    =    22.23 Bohr mag/cell

     iteration # 71     ecut=    40.00 Ry     beta=0.70
     Davidson diagonalization with overlap
     ethr =  3.39E-09,  avg # of iterations =  2.0

     negative rho (up, down):  0.484E-02 0.174E-02

     total cpu time spent up to now is    50711.6 secs

     total energy              =   -2057.79914356 Ry
     Harris-Foulkes estimate   =   -2057.79915195 Ry
     estimated scf accuracy    <       0.00005220 Ry

     total magnetization       =    15.00 Bohr mag/cell
     absolute magnetization    =    22.23 Bohr mag/cell

     iteration # 72     ecut=    40.00 Ry     beta=0.70
     Davidson diagonalization with overlap
     ethr =  3.39E-09,  avg # of iterations =  1.1

     negative rho (up, down):  0.484E-02 0.174E-02

     total cpu time spent up to now is    51010.6 secs

     total energy              =   -2057.79914433 Ry
     Harris-Foulkes estimate   =   -2057.79914852 Ry
     estimated scf accuracy    <       0.00003082 Ry

     total magnetization       =    15.00 Bohr mag/cell
     absolute magnetization    =    22.24 Bohr mag/cell

     iteration # 73     ecut=    40.00 Ry     beta=0.70
     Davidson diagonalization with overlap
     ethr =  3.39E-09,  avg # of iterations =  2.0

     negative rho (up, down):  0.484E-02 0.174E-02

     total cpu time spent up to now is    51319.7 secs

     total energy              =   -2057.79911670 Ry
     Harris-Foulkes estimate   =   -2057.79917509 Ry
     estimated scf accuracy    <       0.00086911 Ry

     total magnetization       =    15.00 Bohr mag/cell
     absolute magnetization    =    22.22 Bohr mag/cell

     iteration # 74     ecut=    40.00 Ry     beta=0.70
     Davidson diagonalization with overlap
     ethr =  3.39E-09,  avg # of iterations =  2.0

     negative rho (up, down):  0.484E-02 0.174E-02

     total cpu time spent up to now is    51645.0 secs

     total energy              =   -2057.79914165 Ry
     Harris-Foulkes estimate   =   -2057.79915450 Ry
     estimated scf accuracy    <       0.00008701 Ry

     total magnetization       =    15.00 Bohr mag/cell
     absolute magnetization    =    22.23 Bohr mag/cell

     iteration # 75     ecut=    40.00 Ry     beta=0.70
     Davidson diagonalization with overlap
     ethr =  3.39E-09,  avg # of iterations =  1.9

     negative rho (up, down):  0.484E-02 0.174E-02

     total cpu time spent up to now is    51948.7 secs

     total energy              =   -2057.79914800 Ry
     Harris-Foulkes estimate   =   -2057.79914897 Ry
     estimated scf accuracy    <       0.00002928 Ry

     total magnetization       =    15.00 Bohr mag/cell
     absolute magnetization    =    22.24 Bohr mag/cell

     iteration # 76     ecut=    40.00 Ry     beta=0.70
     Davidson diagonalization with overlap
     ethr =  3.39E-09,  avg # of iterations =  1.4

     negative rho (up, down):  0.484E-02 0.174E-02

     total cpu time spent up to now is    52251.2 secs

     total energy              =   -2057.79914321 Ry
     Harris-Foulkes estimate   =   -2057.79915428 Ry
     estimated scf accuracy    <       0.00010574 Ry

     total magnetization       =    15.00 Bohr mag/cell
     absolute magnetization    =    22.23 Bohr mag/cell

     iteration # 77     ecut=    40.00 Ry     beta=0.70
     Davidson diagonalization with overlap
     ethr =  3.39E-09,  avg # of iterations =  1.4

     negative rho (up, down):  0.484E-02 0.174E-02

     total cpu time spent up to now is    52557.2 secs

     total energy              =   -2057.79914971 Ry
     Harris-Foulkes estimate   =   -2057.79914971 Ry
     estimated scf accuracy    <       0.00002567 Ry

     total magnetization       =    15.00 Bohr mag/cell
     absolute magnetization    =    22.24 Bohr mag/cell

     iteration # 78     ecut=    40.00 Ry     beta=0.70
     Davidson diagonalization with overlap
     ethr =  3.39E-09,  avg # of iterations =  1.0

     negative rho (up, down):  0.484E-02 0.174E-02

     total cpu time spent up to now is    52847.6 secs

     total energy              =   -2057.79915003 Ry
     Harris-Foulkes estimate   =   -2057.79915017 Ry
     estimated scf accuracy    <       0.00003175 Ry

     total magnetization       =    15.00 Bohr mag/cell
     absolute magnetization    =    22.24 Bohr mag/cell

     iteration # 79     ecut=    40.00 Ry     beta=0.70
     Davidson diagonalization with overlap
     ethr =  3.39E-09,  avg # of iterations =  1.0

     negative rho (up, down):  0.484E-02 0.174E-02

     total cpu time spent up to now is    53156.3 secs

     total energy              =   -2057.79914913 Ry
     Harris-Foulkes estimate   =   -2057.79915030 Ry
     estimated scf accuracy    <       0.00003051 Ry

     total magnetization       =    15.00 Bohr mag/cell
     absolute magnetization    =    22.24 Bohr mag/cell

     iteration # 80     ecut=    40.00 Ry     beta=0.70
     Davidson diagonalization with overlap
     ethr =  3.39E-09,  avg # of iterations =  1.6

     negative rho (up, down):  0.484E-02 0.174E-02

     total cpu time spent up to now is    53464.1 secs

     total energy              =   -2057.79914338 Ry
     Harris-Foulkes estimate   =   -2057.79915535 Ry
     estimated scf accuracy    <       0.00006812 Ry

     total magnetization       =    15.00 Bohr mag/cell
     absolute magnetization    =    22.23 Bohr mag/cell

     iteration # 81     ecut=    40.00 Ry     beta=0.70
     Davidson diagonalization with overlap
     ethr =  3.39E-09,  avg # of iterations =  2.0

     negative rho (up, down):  0.484E-02 0.174E-02

     total cpu time spent up to now is    53770.0 secs

     total energy              =   -2057.79914474 Ry
     Harris-Foulkes estimate   =   -2057.79915542 Ry
     estimated scf accuracy    <       0.00006774 Ry

     total magnetization       =    15.00 Bohr mag/cell
     absolute magnetization    =    22.23 Bohr mag/cell

     iteration # 82     ecut=    40.00 Ry     beta=0.70
     Davidson diagonalization with overlap
     ethr =  3.39E-09,  avg # of iterations =  1.4

     negative rho (up, down):  0.484E-02 0.174E-02

     total cpu time spent up to now is    54065.6 secs

     total energy              =   -2057.79914517 Ry
     Harris-Foulkes estimate   =   -2057.79915091 Ry
     estimated scf accuracy    <       0.00003471 Ry

     total magnetization       =    15.00 Bohr mag/cell
     absolute magnetization    =    22.24 Bohr mag/cell

     iteration # 83     ecut=    40.00 Ry     beta=0.70
     Davidson diagonalization with overlap
     ethr =  3.39E-09,  avg # of iterations =  2.0

     negative rho (up, down):  0.484E-02 0.174E-02

     total cpu time spent up to now is    54383.0 secs

     total energy              =   -2057.79911265 Ry
     Harris-Foulkes estimate   =   -2057.79918203 Ry
     estimated scf accuracy    <       0.00100865 Ry

     total magnetization       =    15.00 Bohr mag/cell
     absolute magnetization    =    22.22 Bohr mag/cell

     iteration # 84     ecut=    40.00 Ry     beta=0.70
     Davidson diagonalization with overlap
     ethr =  3.39E-09,  avg # of iterations =  2.0

     negative rho (up, down):  0.484E-02 0.174E-02

     total cpu time spent up to now is    54702.2 secs

     total energy              =   -2057.79914349 Ry
     Harris-Foulkes estimate   =   -2057.79915673 Ry
     estimated scf accuracy    <       0.00009562 Ry

     total magnetization       =    15.00 Bohr mag/cell
     absolute magnetization    =    22.23 Bohr mag/cell

     iteration # 85     ecut=    40.00 Ry     beta=0.70
     Davidson diagonalization with overlap
     ethr =  3.39E-09,  avg # of iterations =  1.5

     negative rho (up, down):  0.484E-02 0.174E-02

     total cpu time spent up to now is    55009.7 secs

     total energy              =   -2057.79914998 Ry
     Harris-Foulkes estimate   =   -2057.79915198 Ry
     estimated scf accuracy    <       0.00003722 Ry

     total magnetization       =    15.00 Bohr mag/cell
     absolute magnetization    =    22.24 Bohr mag/cell

     iteration # 86     ecut=    40.00 Ry     beta=0.70
     Davidson diagonalization with overlap
     ethr =  3.39E-09,  avg # of iterations =  1.4

     negative rho (up, down):  0.484E-02 0.174E-02

     total cpu time spent up to now is    55311.0 secs

     total energy              =   -2057.79914514 Ry
     Harris-Foulkes estimate   =   -2057.79915754 Ry
     estimated scf accuracy    <       0.00012140 Ry

     total magnetization       =    15.00 Bohr mag/cell
     absolute magnetization    =    22.23 Bohr mag/cell

     iteration # 87     ecut=    40.00 Ry     beta=0.70
     Davidson diagonalization with overlap
     ethr =  3.39E-09,  avg # of iterations =  1.5

     negative rho (up, down):  0.484E-02 0.174E-02

     total cpu time spent up to now is    55614.2 secs

     total energy              =   -2057.79915201 Ry
     Harris-Foulkes estimate   =   -2057.79915238 Ry
     estimated scf accuracy    <       0.00002715 Ry

     total magnetization       =    15.00 Bohr mag/cell
     absolute magnetization    =    22.24 Bohr mag/cell

     iteration # 88     ecut=    40.00 Ry     beta=0.70
     Davidson diagonalization with overlap
     ethr =  3.39E-09,  avg # of iterations =  1.0

     negative rho (up, down):  0.484E-02 0.174E-02

     total cpu time spent up to now is    55910.8 secs

     total energy              =   -2057.79915262 Ry
     Harris-Foulkes estimate   =   -2057.79915254 Ry
     estimated scf accuracy    <       0.00003383 Ry

     total magnetization       =    15.00 Bohr mag/cell
     absolute magnetization    =    22.24 Bohr mag/cell

     iteration # 89     ecut=    40.00 Ry     beta=0.70
     Davidson diagonalization with overlap
     ethr =  3.39E-09,  avg # of iterations =  1.0

     negative rho (up, down):  0.484E-02 0.174E-02

     total cpu time spent up to now is    56205.6 secs

     total energy              =   -2057.79915155 Ry
     Harris-Foulkes estimate   =   -2057.79915284 Ry
     estimated scf accuracy    <       0.00003379 Ry

     total magnetization       =    15.00 Bohr mag/cell
     absolute magnetization    =    22.24 Bohr mag/cell

     iteration # 90     ecut=    40.00 Ry     beta=0.70
     Davidson diagonalization with overlap
     ethr =  3.39E-09,  avg # of iterations =  2.0

     negative rho (up, down):  0.484E-02 0.174E-02

     total cpu time spent up to now is    56504.6 secs

     total energy              =   -2057.79914511 Ry
     Harris-Foulkes estimate   =   -2057.79915857 Ry
     estimated scf accuracy    <       0.00007832 Ry

     total magnetization       =    15.00 Bohr mag/cell
     absolute magnetization    =    22.23 Bohr mag/cell

     iteration # 91     ecut=    40.00 Ry     beta=0.70
     Davidson diagonalization with overlap
     ethr =  3.39E-09,  avg # of iterations =  2.0

     negative rho (up, down):  0.484E-02 0.174E-02

     total cpu time spent up to now is    56815.5 secs

     total energy              =   -2057.79914598 Ry
     Harris-Foulkes estimate   =   -2057.79915931 Ry
     estimated scf accuracy    <       0.00008666 Ry

     total magnetization       =    15.00 Bohr mag/cell
     absolute magnetization    =    22.23 Bohr mag/cell

     iteration # 92     ecut=    40.00 Ry     beta=0.70
     Davidson diagonalization with overlap
     ethr =  3.39E-09,  avg # of iterations =  1.5

     negative rho (up, down):  0.484E-02 0.174E-02

     total cpu time spent up to now is    57120.5 secs

     total energy              =   -2057.79914769 Ry
     Harris-Foulkes estimate   =   -2057.79915358 Ry
     estimated scf accuracy    <       0.00003887 Ry

     total magnetization       =    15.00 Bohr mag/cell
     absolute magnetization    =    22.24 Bohr mag/cell

     iteration # 93     ecut=    40.00 Ry     beta=0.70
     Davidson diagonalization with overlap
     ethr =  3.39E-09,  avg # of iterations =  2.0

     negative rho (up, down):  0.484E-02 0.174E-02

     total cpu time spent up to now is    57433.2 secs

     total energy              =   -2057.79910667 Ry
     Harris-Foulkes estimate   =   -2057.79919332 Ry
     estimated scf accuracy    <       0.00126254 Ry

     total magnetization       =    15.00 Bohr mag/cell
     absolute magnetization    =    22.22 Bohr mag/cell

     iteration # 94     ecut=    40.00 Ry     beta=0.70
     Davidson diagonalization with overlap
     ethr =  3.39E-09,  avg # of iterations =  2.0

     negative rho (up, down):  0.484E-02 0.174E-02

     total cpu time spent up to now is    57761.0 secs

     total energy              =   -2057.79914535 Ry
     Harris-Foulkes estimate   =   -2057.79916118 Ry
     estimated scf accuracy    <       0.00011365 Ry

     total magnetization       =    15.00 Bohr mag/cell
     absolute magnetization    =    22.24 Bohr mag/cell

     iteration # 95     ecut=    40.00 Ry     beta=0.70
     Davidson diagonalization with overlap
     ethr =  3.39E-09,  avg # of iterations =  1.9

     negative rho (up, down):  0.484E-02 0.174E-02

     total cpu time spent up to now is    58068.0 secs

     total energy              =   -2057.79915342 Ry
     Harris-Foulkes estimate   =   -2057.79915430 Ry
     estimated scf accuracy    <       0.00003466 Ry

     total magnetization       =    15.00 Bohr mag/cell
     absolute magnetization    =    22.24 Bohr mag/cell

     iteration # 96     ecut=    40.00 Ry     beta=0.70
     Davidson diagonalization with overlap
     ethr =  3.39E-09,  avg # of iterations =  1.4

     negative rho (up, down):  0.484E-02 0.174E-02

     total cpu time spent up to now is    58368.1 secs

     total energy              =   -2057.79914772 Ry
     Harris-Foulkes estimate   =   -2057.79916066 Ry
     estimated scf accuracy    <       0.00013415 Ry

     total magnetization       =    15.00 Bohr mag/cell
     absolute magnetization    =    22.24 Bohr mag/cell

     iteration # 97     ecut=    40.00 Ry     beta=0.70
     Davidson diagonalization with overlap
     ethr =  3.39E-09,  avg # of iterations =  1.5

     negative rho (up, down):  0.484E-02 0.174E-02

     total cpu time spent up to now is    58677.6 secs

     total energy              =   -2057.79915461 Ry
     Harris-Foulkes estimate   =   -2057.79915541 Ry
     estimated scf accuracy    <       0.00002807 Ry

     total magnetization       =    15.00 Bohr mag/cell
     absolute magnetization    =    22.24 Bohr mag/cell

     iteration # 98     ecut=    40.00 Ry     beta=0.70
     Davidson diagonalization with overlap
     ethr =  3.39E-09,  avg # of iterations =  1.0

     negative rho (up, down):  0.484E-02 0.174E-02

     total cpu time spent up to now is    58973.9 secs

     total energy              =   -2057.79915544 Ry
     Harris-Foulkes estimate   =   -2057.79915554 Ry
     estimated scf accuracy    <       0.00003664 Ry

     total magnetization       =    15.00 Bohr mag/cell
     absolute magnetization    =    22.24 Bohr mag/cell

     iteration # 99     ecut=    40.00 Ry     beta=0.70
     Davidson diagonalization with overlap
     ethr =  3.39E-09,  avg # of iterations =  1.0

     negative rho (up, down):  0.484E-02 0.174E-02

     total cpu time spent up to now is    59279.2 secs

     total energy              =   -2057.79915467 Ry
     Harris-Foulkes estimate   =   -2057.79915571 Ry
     estimated scf accuracy    <       0.00003488 Ry

     total magnetization       =    15.00 Bohr mag/cell
     absolute magnetization    =    22.24 Bohr mag/cell

     iteration #100     ecut=    40.00 Ry     beta=0.70
     Davidson diagonalization with overlap
     ethr =  3.39E-09,  avg # of iterations =  2.0

     negative rho (up, down):  0.484E-02 0.174E-02

     total cpu time spent up to now is    59587.0 secs

     total energy              =   -2057.79914779 Ry
     Harris-Foulkes estimate   =   -2057.79916245 Ry
     estimated scf accuracy    <       0.00009150 Ry

     total magnetization       =    15.00 Bohr mag/cell
     absolute magnetization    =    22.24 Bohr mag/cell

     End of self-consistent calculation

     convergence NOT achieved after 100 iterations: stopping
 
     init_run     :    138.93s CPU    150.47s WALL (       1 calls)
     electrons    :  58017.44s CPU  58773.28s WALL (       3 calls)
     update_pot   :     49.54s CPU     50.46s WALL (       2 calls)
     forces       :    517.10s CPU    518.99s WALL (       2 calls)

     Called by init_run:
     wfcinit      :     77.27s CPU     88.25s WALL (       1 calls)
     potinit      :     11.41s CPU     11.59s WALL (       1 calls)

     Called by electrons:
     c_bands      :  37123.41s CPU  37627.62s WALL (     187 calls)
     sum_band     :  13412.22s CPU  13476.28s WALL (     187 calls)
     v_of_rho     :    631.82s CPU    655.66s WALL (     190 calls)
     newd         :   6674.50s CPU   6694.62s WALL (     190 calls)
     mix_rho      :    105.25s CPU    105.93s WALL (     187 calls)

     Called by c_bands:
     init_us_2    :     62.70s CPU     64.09s WALL (    1910 calls)
     cegterg      :  36390.76s CPU  36829.37s WALL (     935 calls)

     Called by *egterg:
     h_psi        :  18815.56s CPU  18934.75s WALL (    2581 calls)
     s_psi        :   2467.74s CPU   2474.03s WALL (    2606 calls)
     g_psi        :     69.74s CPU     69.75s WALL (    1641 calls)
     cdiaghg      :   4015.59s CPU   4024.14s WALL (    2566 calls)

     Called by h_psi:
     add_vuspsi   :   2451.92s CPU   2457.63s WALL (    2581 calls)
     vhpsi        :   2204.24s CPU   2212.62s WALL (    2581 calls)

     General routines
     calbec       :   5365.21s CPU   5381.77s WALL (   10047 calls)
     fft          :    651.56s CPU    669.71s WALL (    5902 calls)
     ffts         :     11.39s CPU     11.58s WALL (     754 calls)
     fftw         :  10748.96s CPU  10860.61s WALL ( 1655617 calls)
     interpolate  :     87.02s CPU     87.61s WALL (     754 calls)
     davcio       :      0.11s CPU     29.64s WALL (    1930 calls)
 
     Parallel routines
     fft_scatter  :   3542.40s CPU   3645.34s WALL ( 1662273 calls)
     Hubbard U routines
     new_ns       :    520.54s CPU    535.98s WALL (     187 calls)
     vhpsi        :   2204.24s CPU   2212.62s WALL (    2581 calls)
     force_hub    :    186.96s CPU    187.92s WALL (       2 calls)
 
     PWSCF        :    16h20m CPU       16h34m WALL

 
   This run was terminated on:  10:41:19   9Aug2014            

=------------------------------------------------------------------------------=
   JOB DONE.
=------------------------------------------------------------------------------=
1
1
1
1
1
1
1
1
1
1
1
1
1
1
1
1
