
     Program PWSCF v.5.0.2 (svn rev. 9656) starts on 17Apr2014 at  2:51:33 

     This program is part of the open-source Quantum ESPRESSO suite
     for quantum simulation of materials; please cite
         "P. Giannozzi et al., J. Phys.:Condens. Matter 21 395502 (2009);
          URL http://www.quantum-espresso.org", 
     in publications or presentations arising from this work. More details at
     http://www.quantum-espresso.org/quote.php

     Parallel version (MPI), running on    16 processors
     R & G space division:  proc/nbgrp/npool/nimage =      16

     Current dimensions of program PWSCF are:
     Max number of different atomic species (ntypx) = 10
     Max number of k-points (npk) =  40000
     Max angular momentum in pseudopotentials (lmaxx) =  3
     Reading input from pwscf.in
Warning: card &CELL ignored
Warning: card / ignored

     Subspace diagonalization in iterative solution of the eigenvalue problem:
     a serial algorithm will be used


     Parallelization info
     --------------------
     sticks:   dense  smooth     PW     G-vecs:    dense   smooth      PW
     Min         318     102     29                74912    13536    2029
     Max         319     103     30                74919    13571    2035
     Sum        5097    1635    467              1198649   216969   32535



     bravais-lattice index     =            0
     lattice parameter (alat)  =      10.9604  a.u.
     unit-cell volume          =    6350.6732 (a.u.)^3
     number of atoms/cell      =           32
     number of atomic types    =            3
     number of electrons       =       231.00 (up: 123.00, down: 108.00)
     number of Kohn-Sham states=          334
     kinetic-energy cutoff     =      40.0000  Ry
     charge density cutoff     =     500.0000  Ry
     convergence threshold     =      1.0E-06
     mixing beta               =       0.7000
     number of iterations used =            8  plain     mixing
     Exchange-correlation      = SLA  PW   PBE  PBE ( 1 4 3 4 0)
     EXX-fraction              =        0.00
     nstep                     =           50


     celldm(1)=  10.960412  celldm(2)=   0.000000  celldm(3)=   0.000000
     celldm(4)=   0.000000  celldm(5)=   0.000000  celldm(6)=   0.000000

     crystal axes: (cart. coord. in units of alat)
               a(1) = (   1.000000   0.000000   0.000000 )  
               a(2) = (   0.000000   1.067975   0.000000 )  
               a(3) = (   0.000000   0.000000   4.516251 )  

     reciprocal axes: (cart. coord. in units 2 pi/alat)
               b(1) = (  1.000000  0.000000  0.000000 )  
               b(2) = (  0.000000  0.936351  0.000000 )  
               b(3) = (  0.000000  0.000000  0.221423 )  


     PseudoPot. # 1 for O  read from file:
     /home/camp/zhonxu/pseudo/o_pbe_v1.01.uspp.F.UPF
     MD5 check sum: 2bcb18d16ea4b960afae9ec6d52f22d2
     Pseudo is Ultrasoft + core correction, Zval =  6.0
     Generated by new atomic code, or converted to UPF format
     Using radial grid of  737 points,  5 beta functions with: 
                l(1) =   0
                l(2) =   0
                l(3) =   1
                l(4) =   1
                l(5) =   2
     Q(r) pseudized with  8 coefficients,  rinner =    0.900   0.900   0.900
                                                       0.900   0.900

     PseudoPot. # 2 for Cr read from file:
     /home/camp/zhonxu/pseudo/cr_pbe_v1.uspp.F.UPF
     MD5 check sum: 68b6f918d1762dccfb11451fe85b0e0e
     Pseudo is Ultrasoft + core correction, Zval = 14.0
     Generated by new atomic code, or converted to UPF format
     Using radial grid of  857 points,  6 beta functions with: 
                l(1) =   0
                l(2) =   0
                l(3) =   1
                l(4) =   1
                l(5) =   2
                l(6) =   2
     Q(r) pseudized with  6 coefficients,  rinner =    1.000   1.000   1.000
                                                       1.000   1.000

     PseudoPot. # 3 for H  read from file:
     /home/camp/zhonxu/pseudo/h_pbe_v1.uspp.F.UPF
     MD5 check sum: 3408e3ff4ec8b0a4e358431e7e038a48
     Pseudo is Ultrasoft, Zval =  1.0
     Generated by new atomic code, or converted to UPF format
     Using radial grid of  615 points,  2 beta functions with: 
                l(1) =   0
                l(2) =   0
     Q(r) pseudized with  8 coefficients,  rinner =    0.700

     atomic species   valence    mass     pseudopotential
        O0             6.00    15.99940     O ( 1.00)
        Cr1           14.00    51.99600     Cr( 1.00)
        H2             1.00     1.00794     H ( 1.00)

     Starting magnetic structure 
     atomic species   magnetization
        O0           0.000
        Cr1          0.600
        H2           0.000

     No symmetry found



   Cartesian axes

     site n.     atom                  positions (alat units)
         1           O0  tau(   1) = (   0.0000000   0.0000000   1.7072783  )
         2           O0  tau(   2) = (   0.0000000   0.5339875   1.8068617  )
         3           Cr1 tau(   3) = (   0.2500000   0.5339875   2.0386808  )
         4           Cr1 tau(   4) = (   0.0000000   0.0000000   2.0275709  )
         5           O0  tau(   5) = (   0.2500000   0.8543801   2.0319968  )
         6           O0  tau(   6) = (   0.2500000   0.2135950   2.0327194  )
         7           O0  tau(   7) = (   0.0000000   0.5339875   2.2463381  )
         8           O0  tau(   8) = (   0.0000000   0.0000000   2.3629476  )
         9           Cr1 tau(   9) = (   0.2500000   0.0000000   2.5576884  )
        10           Cr1 tau(  10) = (   0.0000000   0.5339875   2.5508237  )
        11           O0  tau(  11) = (   0.2500000   0.7475825   2.5906119  )
        12           O0  tau(  12) = (   0.2500000   0.3203925   2.5906119  )
        13           O0  tau(  13) = (   0.0000000   0.0000000   2.7912689  )
        14           O0  tau(  14) = (   0.5000000   0.0000000   1.7073687  )
        15           O0  tau(  15) = (   0.5000000   0.5339875   1.8079456  )
        16           Cr1 tau(  16) = (   0.7500000   0.5339875   2.0392228  )
        17           Cr1 tau(  17) = (   0.5000000   0.0000000   2.0278418  )
        18           O0  tau(  18) = (   0.7500000   0.8543801   2.0322226  )
        19           O0  tau(  19) = (   0.7500000   0.2135950   2.0329904  )
        20           O0  tau(  20) = (   0.5000000   0.5339875   2.2545125  )
        21           O0  tau(  21) = (   0.5000000   0.0000000   2.3629928  )
        22           Cr1 tau(  22) = (   0.7500000   0.0000000   2.6359099  )
        23           Cr1 tau(  23) = (   0.5000000   0.5339875   2.6017218  )
        24           O0  tau(  24) = (   0.7500000   0.7475825   2.5939990  )
        25           O0  tau(  25) = (   0.7500000   0.3203925   2.5937281  )
        26           O0  tau(  26) = (   0.5000000   0.0000000   2.7881075  )
        27           H2  tau(  27) = (  -0.0006000   0.6813574   1.7205110  )
        28           H2  tau(  28) = (   0.4996600   0.6814429   1.7215045  )
        29           H2  tau(  29) = (   0.1566200   0.0338121   1.6479348  )
        30           H2  tau(  30) = (   0.6567100   0.0335237   1.6482058  )
        31           O0  tau(  31) = (   0.5144500   0.5336458   2.9143367  )
        32           H2  tau(  32) = (   0.3645600   0.5319477   2.9931001  )

     number of k points=    20  Methfessel-Paxton smearing, width (Ry)=  0.0100
                       cart. coord. in units 2pi/alat
        k(    1) = (   0.0000000   0.0000000   0.0000000), wk =   0.0625000
        k(    2) = (   0.0000000   0.2340879   0.0000000), wk =   0.1250000
        k(    3) = (   0.0000000  -0.4681757   0.0000000), wk =   0.0625000
        k(    4) = (   0.2500000   0.0000000   0.0000000), wk =   0.1250000
        k(    5) = (   0.2500000   0.2340879   0.0000000), wk =   0.1250000
        k(    6) = (   0.2500000  -0.4681757   0.0000000), wk =   0.1250000
        k(    7) = (  -0.5000000   0.0000000   0.0000000), wk =   0.0625000
        k(    8) = (  -0.5000000   0.2340879   0.0000000), wk =   0.1250000
        k(    9) = (  -0.5000000  -0.4681757   0.0000000), wk =   0.0625000
        k(   10) = (  -0.2500000   0.2340879   0.0000000), wk =   0.1250000
        k(   11) = (   0.0000000   0.0000000   0.0000000), wk =   0.0625000
        k(   12) = (   0.0000000   0.2340879   0.0000000), wk =   0.1250000
        k(   13) = (   0.0000000  -0.4681757   0.0000000), wk =   0.0625000
        k(   14) = (   0.2500000   0.0000000   0.0000000), wk =   0.1250000
        k(   15) = (   0.2500000   0.2340879   0.0000000), wk =   0.1250000
        k(   16) = (   0.2500000  -0.4681757   0.0000000), wk =   0.1250000
        k(   17) = (  -0.5000000   0.0000000   0.0000000), wk =   0.0625000
        k(   18) = (  -0.5000000   0.2340879   0.0000000), wk =   0.1250000
        k(   19) = (  -0.5000000  -0.4681757   0.0000000), wk =   0.0625000
        k(   20) = (  -0.2500000   0.2340879   0.0000000), wk =   0.1250000

     Dense  grid:  1198649 G-vectors     FFT dimensions: (  80,  90, 360)

     Smooth grid:   216969 G-vectors     FFT dimensions: (  45,  48, 200)

     Largest allocated arrays     est. size (Mb)     dimensions
        Kohn-Sham Wavefunctions         8.76 Mb     (   1719,  334)
        NL pseudopotentials            10.52 Mb     (   1719,  401)
        Each V/rho on FFT grid          5.05 Mb     ( 165600,   2)
        Each G-vector array             0.57 Mb     (  74919)
        G-vector shells                 0.28 Mb     (  36600)
     Largest temporary arrays     est. size (Mb)     dimensions
        Auxiliary wavefunctions        35.04 Mb     (   1719, 1336)
        Each subspace H/S matrix       27.24 Mb     (1336,1336)
        Each <psi_i|beta_j> matrix      2.04 Mb     (    401,  334)
        Arrays for rho mixing          20.21 Mb     ( 165600,   8)

     Check: negative/imaginary core charge=   -0.000012    0.000000

     Initial potential from superposition of free atoms
     Check: negative starting charge=(component1):   -0.001476
     Check: negative starting charge=(component2):   -0.000504

     starting charge  222.99983, renormalised to  231.00000

     negative rho (up, down):  0.153E-02 0.522E-03
     Starting wfc are  161 randomized atomic wfcs

     total cpu time spent up to now is      116.4 secs

     per-process dynamical memory:   251.6 Mb

     Self-consistent Calculation

     iteration #  1     ecut=    40.00 Ry     beta=0.70
     Davidson diagonalization with overlap
     ethr =  1.00E-02,  avg # of iterations =  5.3

     negative rho (up, down):  0.303E-02 0.117E-02

     total cpu time spent up to now is     1016.4 secs

     total energy              =   -2006.21410033 Ry
     Harris-Foulkes estimate   =   -2023.81087454 Ry
     estimated scf accuracy    <      30.99393270 Ry

     total magnetization       =    15.00 Bohr mag/cell
     absolute magnetization    =    27.44 Bohr mag/cell

     iteration #  2     ecut=    40.00 Ry     beta=0.70
     Davidson diagonalization with overlap
     ethr =  1.00E-02,  avg # of iterations =  5.3

     negative rho (up, down):  0.138E-01 0.778E-02

     total cpu time spent up to now is     1878.9 secs

     total energy              =   -1885.78078229 Ry
     Harris-Foulkes estimate   =   -2283.00757044 Ry
     estimated scf accuracy    <    4509.20961841 Ry

     total magnetization       =    15.00 Bohr mag/cell
     absolute magnetization    =    15.43 Bohr mag/cell

     iteration #  3     ecut=    40.00 Ry     beta=0.70
     Davidson diagonalization with overlap
     ethr =  1.00E-02,  avg # of iterations =  6.0

     negative rho (up, down):  0.907E-02 0.110E-01

     total cpu time spent up to now is     2782.2 secs

     total energy              =   -2016.35488756 Ry
     Harris-Foulkes estimate   =   -2032.91387628 Ry
     estimated scf accuracy    <      88.08928240 Ry

     total magnetization       =    15.00 Bohr mag/cell
     absolute magnetization    =    17.75 Bohr mag/cell

     iteration #  4     ecut=    40.00 Ry     beta=0.70
     Davidson diagonalization with overlap
     ethr =  1.00E-02,  avg # of iterations =  2.4

     negative rho (up, down):  0.526E-02 0.322E-02

     total cpu time spent up to now is     3124.1 secs

     total energy              =   -2024.23345982 Ry
     Harris-Foulkes estimate   =   -2028.46495928 Ry
     estimated scf accuracy    <      29.96547453 Ry

     total magnetization       =    15.00 Bohr mag/cell
     absolute magnetization    =    19.13 Bohr mag/cell

     iteration #  5     ecut=    40.00 Ry     beta=0.70
     Davidson diagonalization with overlap
     ethr =  1.00E-02,  avg # of iterations =  1.8

     negative rho (up, down):  0.121E-01 0.403E-02

     total cpu time spent up to now is     3457.1 secs

     total energy              =   -2023.98921976 Ry
     Harris-Foulkes estimate   =   -2029.68018126 Ry
     estimated scf accuracy    <      52.58567109 Ry

     total magnetization       =    15.00 Bohr mag/cell
     absolute magnetization    =    18.47 Bohr mag/cell

     iteration #  6     ecut=    40.00 Ry     beta=0.70
     Davidson diagonalization with overlap
     ethr =  1.00E-02,  avg # of iterations =  2.0

     negative rho (up, down):  0.101E-01 0.266E-02

     total cpu time spent up to now is     3790.6 secs

     total energy              =   -2026.02182083 Ry
     Harris-Foulkes estimate   =   -2027.65091509 Ry
     estimated scf accuracy    <       7.53122985 Ry

     total magnetization       =    15.00 Bohr mag/cell
     absolute magnetization    =    18.71 Bohr mag/cell

     iteration #  7     ecut=    40.00 Ry     beta=0.70
     Davidson diagonalization with overlap
     ethr =  3.26E-03,  avg # of iterations =  3.5

     negative rho (up, down):  0.122E-01 0.261E-02

     total cpu time spent up to now is     4175.7 secs

     total energy              =   -2025.95184518 Ry
     Harris-Foulkes estimate   =   -2028.04969602 Ry
     estimated scf accuracy    <      17.89403073 Ry

     total magnetization       =    15.00 Bohr mag/cell
     absolute magnetization    =    16.14 Bohr mag/cell

     iteration #  8     ecut=    40.00 Ry     beta=0.70
     Davidson diagonalization with overlap
     ethr =  3.26E-03,  avg # of iterations =  1.0

     negative rho (up, down):  0.864E-02 0.281E-02

     total cpu time spent up to now is     4493.5 secs

     total energy              =   -2026.65281009 Ry
     Harris-Foulkes estimate   =   -2027.37165547 Ry
     estimated scf accuracy    <       5.90817708 Ry

     total magnetization       =    15.00 Bohr mag/cell
     absolute magnetization    =    17.06 Bohr mag/cell

     iteration #  9     ecut=    40.00 Ry     beta=0.70
     Davidson diagonalization with overlap
     ethr =  2.56E-03,  avg # of iterations =  1.0

     negative rho (up, down):  0.107E-01 0.267E-02

     total cpu time spent up to now is     4817.4 secs

     total energy              =   -2026.84216314 Ry
     Harris-Foulkes estimate   =   -2027.20944776 Ry
     estimated scf accuracy    <       3.13902771 Ry

     total magnetization       =    15.00 Bohr mag/cell
     absolute magnetization    =    17.22 Bohr mag/cell

     iteration # 10     ecut=    40.00 Ry     beta=0.70
     Davidson diagonalization with overlap
     ethr =  1.36E-03,  avg # of iterations =  1.1

     negative rho (up, down):  0.859E-02 0.201E-02

     total cpu time spent up to now is     5130.5 secs

     total energy              =   -2027.01293606 Ry
     Harris-Foulkes estimate   =   -2027.13680833 Ry
     estimated scf accuracy    <       1.41656979 Ry

     total magnetization       =    15.00 Bohr mag/cell
     absolute magnetization    =    17.91 Bohr mag/cell

     iteration # 11     ecut=    40.00 Ry     beta=0.70
     Davidson diagonalization with overlap
     ethr =  6.13E-04,  avg # of iterations =  3.3

     negative rho (up, down):  0.739E-02 0.149E-02

     total cpu time spent up to now is     5488.3 secs

     total energy              =   -2027.03144730 Ry
     Harris-Foulkes estimate   =   -2027.13266329 Ry
     estimated scf accuracy    <       1.24175537 Ry

     total magnetization       =    15.00 Bohr mag/cell
     absolute magnetization    =    17.49 Bohr mag/cell

     iteration # 12     ecut=    40.00 Ry     beta=0.70
     Davidson diagonalization with overlap
     ethr =  5.38E-04,  avg # of iterations =  4.7

     negative rho (up, down):  0.977E-02 0.158E-02

     total cpu time spent up to now is     5910.2 secs

     total energy              =   -2027.00258283 Ry
     Harris-Foulkes estimate   =   -2027.18985298 Ry
     estimated scf accuracy    <       2.48904042 Ry

     total magnetization       =    15.00 Bohr mag/cell
     absolute magnetization    =    17.50 Bohr mag/cell

     iteration # 13     ecut=    40.00 Ry     beta=0.70
     Davidson diagonalization with overlap
     ethr =  5.38E-04,  avg # of iterations =  1.0

     negative rho (up, down):  0.647E-02 0.154E-02

     total cpu time spent up to now is     6219.6 secs

     total energy              =   -2027.06045001 Ry
     Harris-Foulkes estimate   =   -2027.10742542 Ry
     estimated scf accuracy    <       0.34687981 Ry

     total magnetization       =    15.00 Bohr mag/cell
     absolute magnetization    =    17.64 Bohr mag/cell

     iteration # 14     ecut=    40.00 Ry     beta=0.70
     Davidson diagonalization with overlap
     ethr =  1.50E-04,  avg # of iterations =  2.8

     negative rho (up, down):  0.679E-02 0.153E-02

     total cpu time spent up to now is     6575.9 secs

     total energy              =   -2027.02641367 Ry
     Harris-Foulkes estimate   =   -2027.13104790 Ry
     estimated scf accuracy    <       0.86645060 Ry

     total magnetization       =    15.00 Bohr mag/cell
     absolute magnetization    =    17.40 Bohr mag/cell

     iteration # 15     ecut=    40.00 Ry     beta=0.70
     Davidson diagonalization with overlap
     ethr =  1.50E-04,  avg # of iterations =  2.6

     negative rho (up, down):  0.508E-02 0.161E-02

     total cpu time spent up to now is     6928.4 secs

     total energy              =   -2027.03687946 Ry
     Harris-Foulkes estimate   =   -2027.14947987 Ry
     estimated scf accuracy    <       0.61984642 Ry

     total magnetization       =    15.00 Bohr mag/cell
     absolute magnetization    =    17.63 Bohr mag/cell

     iteration # 16     ecut=    40.00 Ry     beta=0.70
     Davidson diagonalization with overlap
     ethr =  1.50E-04,  avg # of iterations =  3.5

     negative rho (up, down):  0.721E-02 0.165E-02

     total cpu time spent up to now is     7306.6 secs

     total energy              =   -2027.01379453 Ry
     Harris-Foulkes estimate   =   -2027.16417680 Ry
     estimated scf accuracy    <       1.28495115 Ry

     total magnetization       =    15.00 Bohr mag/cell
     absolute magnetization    =    17.16 Bohr mag/cell

     iteration # 17     ecut=    40.00 Ry     beta=0.70
     Davidson diagonalization with overlap
     ethr =  1.50E-04,  avg # of iterations =  1.0

     negative rho (up, down):  0.542E-02 0.168E-02

     total cpu time spent up to now is     7620.4 secs

     total energy              =   -2027.08633074 Ry
     Harris-Foulkes estimate   =   -2027.11577338 Ry
     estimated scf accuracy    <       0.24227313 Ry

     total magnetization       =    15.00 Bohr mag/cell
     absolute magnetization    =    17.45 Bohr mag/cell

     iteration # 18     ecut=    40.00 Ry     beta=0.70
     Davidson diagonalization with overlap
     ethr =  1.05E-04,  avg # of iterations =  1.0

     negative rho (up, down):  0.506E-02 0.157E-02

     total cpu time spent up to now is     7931.2 secs

     total energy              =   -2027.09165332 Ry
     Harris-Foulkes estimate   =   -2027.10610539 Ry
     estimated scf accuracy    <       0.12213593 Ry

     total magnetization       =    15.00 Bohr mag/cell
     absolute magnetization    =    17.55 Bohr mag/cell

     iteration # 19     ecut=    40.00 Ry     beta=0.70
     Davidson diagonalization with overlap
     ethr =  5.29E-05,  avg # of iterations =  1.0

     negative rho (up, down):  0.528E-02 0.155E-02

     total cpu time spent up to now is     8239.3 secs

     total energy              =   -2027.07651067 Ry
     Harris-Foulkes estimate   =   -2027.11783989 Ry
     estimated scf accuracy    <       0.31555119 Ry

     total magnetization       =    15.00 Bohr mag/cell
     absolute magnetization    =    17.45 Bohr mag/cell

     iteration # 20     ecut=    40.00 Ry     beta=0.70
     Davidson diagonalization with overlap
     ethr =  5.29E-05,  avg # of iterations =  1.4

     negative rho (up, down):  0.499E-02 0.160E-02

     total cpu time spent up to now is     8561.1 secs

     total energy              =   -2027.08697429 Ry
     Harris-Foulkes estimate   =   -2027.11449485 Ry
     estimated scf accuracy    <       0.21181161 Ry

     total magnetization       =    15.00 Bohr mag/cell
     absolute magnetization    =    17.57 Bohr mag/cell

     iteration # 21     ecut=    40.00 Ry     beta=0.70
     Davidson diagonalization with overlap
     ethr =  5.29E-05,  avg # of iterations =  1.0

     negative rho (up, down):  0.470E-02 0.163E-02

     total cpu time spent up to now is     8877.1 secs

     total energy              =   -2027.09723286 Ry
     Harris-Foulkes estimate   =   -2027.10240983 Ry
     estimated scf accuracy    <       0.03014411 Ry

     total magnetization       =    15.00 Bohr mag/cell
     absolute magnetization    =    17.55 Bohr mag/cell

     iteration # 22     ecut=    40.00 Ry     beta=0.70
     Davidson diagonalization with overlap
     ethr =  1.30E-05,  avg # of iterations =  4.8

     negative rho (up, down):  0.554E-02 0.163E-02

     total cpu time spent up to now is     9298.7 secs

     total energy              =   -2027.08073390 Ry
     Harris-Foulkes estimate   =   -2027.11822304 Ry
     estimated scf accuracy    <       0.41758652 Ry

     total magnetization       =    15.00 Bohr mag/cell
     absolute magnetization    =    17.41 Bohr mag/cell

     iteration # 23     ecut=    40.00 Ry     beta=0.70
     Davidson diagonalization with overlap
     ethr =  1.30E-05,  avg # of iterations =  4.0

     negative rho (up, down):  0.465E-02 0.166E-02

     total cpu time spent up to now is     9707.8 secs

     total energy              =   -2027.09987030 Ry
     Harris-Foulkes estimate   =   -2027.10187041 Ry
     estimated scf accuracy    <       0.02251591 Ry

     total magnetization       =    15.00 Bohr mag/cell
     absolute magnetization    =    17.51 Bohr mag/cell

     iteration # 24     ecut=    40.00 Ry     beta=0.70
     Davidson diagonalization with overlap
     ethr =  9.75E-06,  avg # of iterations =  3.5

     negative rho (up, down):  0.530E-02 0.167E-02

     total cpu time spent up to now is    10098.6 secs

     total energy              =   -2027.09072303 Ry
     Harris-Foulkes estimate   =   -2027.11032431 Ry
     estimated scf accuracy    <       0.18529863 Ry

     total magnetization       =    15.00 Bohr mag/cell
     absolute magnetization    =    17.46 Bohr mag/cell

     iteration # 25     ecut=    40.00 Ry     beta=0.70
     Davidson diagonalization with overlap
     ethr =  9.75E-06,  avg # of iterations =  3.2

     negative rho (up, down):  0.462E-02 0.167E-02

     total cpu time spent up to now is    10476.4 secs

     total energy              =   -2027.09968581 Ry
     Harris-Foulkes estimate   =   -2027.10201338 Ry
     estimated scf accuracy    <       0.01695746 Ry

     total magnetization       =    15.00 Bohr mag/cell
     absolute magnetization    =    17.52 Bohr mag/cell

     iteration # 26     ecut=    40.00 Ry     beta=0.70
     Davidson diagonalization with overlap
     ethr =  7.34E-06,  avg # of iterations =  3.8

     negative rho (up, down):  0.526E-02 0.168E-02

     total cpu time spent up to now is    10872.5 secs

     total energy              =   -2027.09284129 Ry
     Harris-Foulkes estimate   =   -2027.10968127 Ry
     estimated scf accuracy    <       0.19098995 Ry

     total magnetization       =    15.00 Bohr mag/cell
     absolute magnetization    =    17.44 Bohr mag/cell

     iteration # 27     ecut=    40.00 Ry     beta=0.70
     Davidson diagonalization with overlap
     ethr =  7.34E-06,  avg # of iterations =  4.0

     negative rho (up, down):  0.468E-02 0.168E-02

     total cpu time spent up to now is    11274.6 secs

     total energy              =   -2027.09985100 Ry
     Harris-Foulkes estimate   =   -2027.10320634 Ry
     estimated scf accuracy    <       0.02240268 Ry

     total magnetization       =    15.00 Bohr mag/cell
     absolute magnetization    =    17.51 Bohr mag/cell

     iteration # 28     ecut=    40.00 Ry     beta=0.70
     Davidson diagonalization with overlap
     ethr =  7.34E-06,  avg # of iterations =  1.0

     negative rho (up, down):  0.464E-02 0.169E-02

     total cpu time spent up to now is    11589.4 secs

     total energy              =   -2027.10154249 Ry
     Harris-Foulkes estimate   =   -2027.10183311 Ry
     estimated scf accuracy    <       0.00441053 Ry

     total magnetization       =    15.00 Bohr mag/cell
     absolute magnetization    =    17.49 Bohr mag/cell

     iteration # 29     ecut=    40.00 Ry     beta=0.70
     Davidson diagonalization with overlap
     ethr =  1.91E-06,  avg # of iterations =  3.6

     negative rho (up, down):  0.469E-02 0.169E-02

     total cpu time spent up to now is    11969.8 secs

     total energy              =   -2027.10119880 Ry
     Harris-Foulkes estimate   =   -2027.10233068 Ry
     estimated scf accuracy    <       0.01006627 Ry

     total magnetization       =    15.00 Bohr mag/cell
     absolute magnetization    =    17.50 Bohr mag/cell

     iteration # 30     ecut=    40.00 Ry     beta=0.70
     Davidson diagonalization with overlap
     ethr =  1.91E-06,  avg # of iterations =  1.0

     negative rho (up, down):  0.467E-02 0.169E-02

     total cpu time spent up to now is    12283.8 secs

     total energy              =   -2027.10160576 Ry
     Harris-Foulkes estimate   =   -2027.10186907 Ry
     estimated scf accuracy    <       0.00311809 Ry

     total magnetization       =    15.00 Bohr mag/cell
     absolute magnetization    =    17.49 Bohr mag/cell

     iteration # 31     ecut=    40.00 Ry     beta=0.70
     Davidson diagonalization with overlap
     ethr =  1.35E-06,  avg # of iterations =  1.0

     negative rho (up, down):  0.466E-02 0.170E-02

     total cpu time spent up to now is    12597.6 secs

     total energy              =   -2027.10147415 Ry
     Harris-Foulkes estimate   =   -2027.10196932 Ry
     estimated scf accuracy    <       0.00414163 Ry

     total magnetization       =    15.00 Bohr mag/cell
     absolute magnetization    =    17.48 Bohr mag/cell

     iteration # 32     ecut=    40.00 Ry     beta=0.70
     Davidson diagonalization with overlap
     ethr =  1.35E-06,  avg # of iterations =  1.3

     negative rho (up, down):  0.466E-02 0.169E-02

     total cpu time spent up to now is    12913.7 secs

     total energy              =   -2027.10138807 Ry
     Harris-Foulkes estimate   =   -2027.10211959 Ry
     estimated scf accuracy    <       0.00380886 Ry

     total magnetization       =    15.00 Bohr mag/cell
     absolute magnetization    =    17.46 Bohr mag/cell

     iteration # 33     ecut=    40.00 Ry     beta=0.70
     Davidson diagonalization with overlap
     ethr =  1.35E-06,  avg # of iterations =  1.2

     negative rho (up, down):  0.469E-02 0.169E-02

     total cpu time spent up to now is    13227.0 secs

     total energy              =   -2027.10086986 Ry
     Harris-Foulkes estimate   =   -2027.10255529 Ry
     estimated scf accuracy    <       0.01393903 Ry

     total magnetization       =    15.00 Bohr mag/cell
     absolute magnetization    =    17.48 Bohr mag/cell

     iteration # 34     ecut=    40.00 Ry     beta=0.70
     Davidson diagonalization with overlap
     ethr =  1.35E-06,  avg # of iterations =  1.4

     negative rho (up, down):  0.468E-02 0.169E-02

     total cpu time spent up to now is    13545.2 secs

     total energy              =   -2027.10091978 Ry
     Harris-Foulkes estimate   =   -2027.10264309 Ry
     estimated scf accuracy    <       0.01490606 Ry

     total magnetization       =    15.00 Bohr mag/cell
     absolute magnetization    =    17.49 Bohr mag/cell

     iteration # 35     ecut=    40.00 Ry     beta=0.70
     Davidson diagonalization with overlap
     ethr =  1.35E-06,  avg # of iterations =  1.1

     negative rho (up, down):  0.465E-02 0.169E-02

     total cpu time spent up to now is    13856.2 secs

     total energy              =   -2027.10173526 Ry
     Harris-Foulkes estimate   =   -2027.10184685 Ry
     estimated scf accuracy    <       0.00074671 Ry

     total magnetization       =    15.00 Bohr mag/cell
     absolute magnetization    =    17.48 Bohr mag/cell

     iteration # 36     ecut=    40.00 Ry     beta=0.70
     Davidson diagonalization with overlap
     ethr =  3.23E-07,  avg # of iterations =  1.6

     negative rho (up, down):  0.468E-02 0.169E-02

     total cpu time spent up to now is    14180.4 secs

     total energy              =   -2027.10143226 Ry
     Harris-Foulkes estimate   =   -2027.10219584 Ry
     estimated scf accuracy    <       0.00699529 Ry

     total magnetization       =    15.00 Bohr mag/cell
     absolute magnetization    =    17.47 Bohr mag/cell

     iteration # 37     ecut=    40.00 Ry     beta=0.70
     Davidson diagonalization with overlap
     ethr =  3.23E-07,  avg # of iterations =  1.4

     negative rho (up, down):  0.465E-02 0.169E-02

     total cpu time spent up to now is    14504.5 secs

     total energy              =   -2027.10171117 Ry
     Harris-Foulkes estimate   =   -2027.10192645 Ry
     estimated scf accuracy    <       0.00213056 Ry

     total magnetization       =    15.00 Bohr mag/cell
     absolute magnetization    =    17.48 Bohr mag/cell

     iteration # 38     ecut=    40.00 Ry     beta=0.70
     Davidson diagonalization with overlap
     ethr =  3.23E-07,  avg # of iterations =  1.0

     negative rho (up, down):  0.465E-02 0.169E-02

     total cpu time spent up to now is    14812.0 secs

     total energy              =   -2027.10171625 Ry
     Harris-Foulkes estimate   =   -2027.10192114 Ry
     estimated scf accuracy    <       0.00172193 Ry

     total magnetization       =    15.00 Bohr mag/cell
     absolute magnetization    =    17.47 Bohr mag/cell

     iteration # 39     ecut=    40.00 Ry     beta=0.70
     Davidson diagonalization with overlap
     ethr =  3.23E-07,  avg # of iterations =  1.0

     negative rho (up, down):  0.465E-02 0.169E-02

     total cpu time spent up to now is    15119.6 secs

     total energy              =   -2027.10181349 Ry
     Harris-Foulkes estimate   =   -2027.10185210 Ry
     estimated scf accuracy    <       0.00048635 Ry

     total magnetization       =    15.00 Bohr mag/cell
     absolute magnetization    =    17.47 Bohr mag/cell

     iteration # 40     ecut=    40.00 Ry     beta=0.70
     Davidson diagonalization with overlap
     ethr =  2.11E-07,  avg # of iterations =  1.0

     negative rho (up, down):  0.465E-02 0.169E-02

     total cpu time spent up to now is    15427.1 secs

     total energy              =   -2027.10180894 Ry
     Harris-Foulkes estimate   =   -2027.10184294 Ry
     estimated scf accuracy    <       0.00028067 Ry

     total magnetization       =    15.00 Bohr mag/cell
     absolute magnetization    =    17.47 Bohr mag/cell

     iteration # 41     ecut=    40.00 Ry     beta=0.70
     Davidson diagonalization with overlap
     ethr =  1.22E-07,  avg # of iterations =  1.3

     negative rho (up, down):  0.465E-02 0.169E-02

     total cpu time spent up to now is    15740.3 secs

     total energy              =   -2027.10169970 Ry
     Harris-Foulkes estimate   =   -2027.10195560 Ry
     estimated scf accuracy    <       0.00215618 Ry

     total magnetization       =    15.00 Bohr mag/cell
     absolute magnetization    =    17.47 Bohr mag/cell

     iteration # 42     ecut=    40.00 Ry     beta=0.70
     Davidson diagonalization with overlap
     ethr =  1.22E-07,  avg # of iterations =  1.4

     negative rho (up, down):  0.465E-02 0.169E-02

     total cpu time spent up to now is    16057.3 secs

     total energy              =   -2027.10178080 Ry
     Harris-Foulkes estimate   =   -2027.10189706 Ry
     estimated scf accuracy    <       0.00108785 Ry

     total magnetization       =    15.00 Bohr mag/cell
     absolute magnetization    =    17.46 Bohr mag/cell

     iteration # 43     ecut=    40.00 Ry     beta=0.70
     Davidson diagonalization with overlap
     ethr =  1.22E-07,  avg # of iterations =  1.0

     negative rho (up, down):  0.465E-02 0.169E-02

     total cpu time spent up to now is    16364.6 secs

     total energy              =   -2027.10180787 Ry
     Harris-Foulkes estimate   =   -2027.10186977 Ry
     estimated scf accuracy    <       0.00047172 Ry

     total magnetization       =    15.00 Bohr mag/cell
     absolute magnetization    =    17.47 Bohr mag/cell

     iteration # 44     ecut=    40.00 Ry     beta=0.70
     Davidson diagonalization with overlap
     ethr =  1.22E-07,  avg # of iterations =  1.0

     negative rho (up, down):  0.465E-02 0.169E-02

     total cpu time spent up to now is    16670.8 secs

     total energy              =   -2027.10181591 Ry
     Harris-Foulkes estimate   =   -2027.10186947 Ry
     estimated scf accuracy    <       0.00048342 Ry

     total magnetization       =    15.00 Bohr mag/cell
     absolute magnetization    =    17.47 Bohr mag/cell

     iteration # 45     ecut=    40.00 Ry     beta=0.70
     Davidson diagonalization with overlap
     ethr =  1.22E-07,  avg # of iterations =  1.0

     negative rho (up, down):  0.465E-02 0.169E-02

     total cpu time spent up to now is    16978.4 secs

     total energy              =   -2027.10184399 Ry
     Harris-Foulkes estimate   =   -2027.10184436 Ry
     estimated scf accuracy    <       0.00004478 Ry

     total magnetization       =    15.00 Bohr mag/cell
     absolute magnetization    =    17.47 Bohr mag/cell

     iteration # 46     ecut=    40.00 Ry     beta=0.70
     Davidson diagonalization with overlap
     ethr =  1.94E-08,  avg # of iterations =  1.0

     negative rho (up, down):  0.465E-02 0.169E-02

     total cpu time spent up to now is    17284.6 secs

     total energy              =   -2027.10184175 Ry
     Harris-Foulkes estimate   =   -2027.10185243 Ry
     estimated scf accuracy    <       0.00007527 Ry

     total magnetization       =    15.00 Bohr mag/cell
     absolute magnetization    =    17.46 Bohr mag/cell

     iteration # 47     ecut=    40.00 Ry     beta=0.70
     Davidson diagonalization with overlap
     ethr =  1.94E-08,  avg # of iterations =  1.0

     negative rho (up, down):  0.465E-02 0.169E-02

     total cpu time spent up to now is    17591.2 secs

     total energy              =   -2027.10184711 Ry
     Harris-Foulkes estimate   =   -2027.10184898 Ry
     estimated scf accuracy    <       0.00003791 Ry

     total magnetization       =    15.00 Bohr mag/cell
     absolute magnetization    =    17.46 Bohr mag/cell

     iteration # 48     ecut=    40.00 Ry     beta=0.70
     Davidson diagonalization with overlap
     ethr =  1.64E-08,  avg # of iterations =  1.0

     negative rho (up, down):  0.465E-02 0.169E-02

     total cpu time spent up to now is    17897.4 secs

     total energy              =   -2027.10184220 Ry
     Harris-Foulkes estimate   =   -2027.10185012 Ry
     estimated scf accuracy    <       0.00002042 Ry

     total magnetization       =    15.00 Bohr mag/cell
     absolute magnetization    =    17.46 Bohr mag/cell

     iteration # 49     ecut=    40.00 Ry     beta=0.70
     Davidson diagonalization with overlap
     ethr =  8.84E-09,  avg # of iterations =  2.0

     negative rho (up, down):  0.465E-02 0.169E-02

     total cpu time spent up to now is    18231.6 secs

     total energy              =   -2027.10180626 Ry
     Harris-Foulkes estimate   =   -2027.10188678 Ry
     estimated scf accuracy    <       0.00075591 Ry

     total magnetization       =    15.00 Bohr mag/cell
     absolute magnetization    =    17.46 Bohr mag/cell

     iteration # 50     ecut=    40.00 Ry     beta=0.70
     Davidson diagonalization with overlap
     ethr =  8.84E-09,  avg # of iterations =  2.0

     negative rho (up, down):  0.465E-02 0.169E-02

     total cpu time spent up to now is    18566.0 secs

     total energy              =   -2027.10184436 Ry
     Harris-Foulkes estimate   =   -2027.10185155 Ry
     estimated scf accuracy    <       0.00006560 Ry

     total magnetization       =    15.00 Bohr mag/cell
     absolute magnetization    =    17.46 Bohr mag/cell

     iteration # 51     ecut=    40.00 Ry     beta=0.70
     Davidson diagonalization with overlap
     ethr =  8.84E-09,  avg # of iterations =  1.0

     negative rho (up, down):  0.465E-02 0.169E-02

     total cpu time spent up to now is    18872.8 secs

     total energy              =   -2027.10184783 Ry
     Harris-Foulkes estimate   =   -2027.10185232 Ry
     estimated scf accuracy    <       0.00004450 Ry

     total magnetization       =    15.00 Bohr mag/cell
     absolute magnetization    =    17.45 Bohr mag/cell

     iteration # 52     ecut=    40.00 Ry     beta=0.70
     Davidson diagonalization with overlap
     ethr =  8.84E-09,  avg # of iterations =  1.0

     negative rho (up, down):  0.465E-02 0.169E-02

     total cpu time spent up to now is    19179.1 secs

     total energy              =   -2027.10184922 Ry
     Harris-Foulkes estimate   =   -2027.10185085 Ry
     estimated scf accuracy    <       0.00001278 Ry

     total magnetization       =    15.00 Bohr mag/cell
     absolute magnetization    =    17.45 Bohr mag/cell

     iteration # 53     ecut=    40.00 Ry     beta=0.70
     Davidson diagonalization with overlap
     ethr =  5.53E-09,  avg # of iterations =  1.0

     negative rho (up, down):  0.465E-02 0.169E-02

     total cpu time spent up to now is    19485.6 secs

     total energy              =   -2027.10184911 Ry
     Harris-Foulkes estimate   =   -2027.10185097 Ry
     estimated scf accuracy    <       0.00001286 Ry

     total magnetization       =    15.00 Bohr mag/cell
     absolute magnetization    =    17.45 Bohr mag/cell

     iteration # 54     ecut=    40.00 Ry     beta=0.70
     Davidson diagonalization with overlap
     ethr =  5.53E-09,  avg # of iterations =  1.0

     negative rho (up, down):  0.465E-02 0.169E-02

     total cpu time spent up to now is    19792.4 secs

     total energy              =   -2027.10184835 Ry
     Harris-Foulkes estimate   =   -2027.10185081 Ry
     estimated scf accuracy    <       0.00001146 Ry

     total magnetization       =    15.00 Bohr mag/cell
     absolute magnetization    =    17.45 Bohr mag/cell

     iteration # 55     ecut=    40.00 Ry     beta=0.70
     Davidson diagonalization with overlap
     ethr =  4.96E-09,  avg # of iterations =  1.0

     negative rho (up, down):  0.465E-02 0.169E-02

     total cpu time spent up to now is    20099.5 secs

     total energy              =   -2027.10184323 Ry
     Harris-Foulkes estimate   =   -2027.10185632 Ry
     estimated scf accuracy    <       0.00015677 Ry

     total magnetization       =    15.00 Bohr mag/cell
     absolute magnetization    =    17.45 Bohr mag/cell

     iteration # 56     ecut=    40.00 Ry     beta=0.70
     Davidson diagonalization with overlap
     ethr =  4.96E-09,  avg # of iterations =  1.0

     negative rho (up, down):  0.465E-02 0.169E-02

     total cpu time spent up to now is    20407.7 secs

     total energy              =   -2027.10184978 Ry
     Harris-Foulkes estimate   =   -2027.10185024 Ry
     estimated scf accuracy    <       0.00000573 Ry

     total magnetization       =    15.00 Bohr mag/cell
     absolute magnetization    =    17.45 Bohr mag/cell

     iteration # 57     ecut=    40.00 Ry     beta=0.70
     Davidson diagonalization with overlap
     ethr =  2.48E-09,  avg # of iterations =  1.0

     negative rho (up, down):  0.465E-02 0.169E-02

     total cpu time spent up to now is    20714.8 secs

     total energy              =   -2027.10184999 Ry
     Harris-Foulkes estimate   =   -2027.10185019 Ry
     estimated scf accuracy    <       0.00000246 Ry

     total magnetization       =    15.00 Bohr mag/cell
     absolute magnetization    =    17.45 Bohr mag/cell

     iteration # 58     ecut=    40.00 Ry     beta=0.70
     Davidson diagonalization with overlap
     ethr =  1.06E-09,  avg # of iterations =  1.0

     negative rho (up, down):  0.465E-02 0.169E-02

     total cpu time spent up to now is    21021.8 secs

     total energy              =   -2027.10185002 Ry
     Harris-Foulkes estimate   =   -2027.10185030 Ry
     estimated scf accuracy    <       0.00000210 Ry

     total magnetization       =    15.00 Bohr mag/cell
     absolute magnetization    =    17.45 Bohr mag/cell

     iteration # 59     ecut=    40.00 Ry     beta=0.70
     Davidson diagonalization with overlap
     ethr =  9.08E-10,  avg # of iterations =  1.0

     negative rho (up, down):  0.465E-02 0.169E-02

     total cpu time spent up to now is    21328.9 secs

     total energy              =   -2027.10184941 Ry
     Harris-Foulkes estimate   =   -2027.10185089 Ry
     estimated scf accuracy    <       0.00001291 Ry

     total magnetization       =    15.00 Bohr mag/cell
     absolute magnetization    =    17.45 Bohr mag/cell

     iteration # 60     ecut=    40.00 Ry     beta=0.70
     Davidson diagonalization with overlap
     ethr =  9.08E-10,  avg # of iterations =  1.0

     negative rho (up, down):  0.465E-02 0.169E-02

     total cpu time spent up to now is    21635.9 secs

     total energy              =   -2027.10185010 Ry
     Harris-Foulkes estimate   =   -2027.10185030 Ry
     estimated scf accuracy    <       0.00000200 Ry

     total magnetization       =    15.00 Bohr mag/cell
     absolute magnetization    =    17.45 Bohr mag/cell

     iteration # 61     ecut=    40.00 Ry     beta=0.70
     Davidson diagonalization with overlap
     ethr =  8.67E-10,  avg # of iterations =  1.0

     negative rho (up, down):  0.465E-02 0.169E-02

     total cpu time spent up to now is    21950.7 secs

     total energy              =   -2027.10185015 Ry
     Harris-Foulkes estimate   =   -2027.10185027 Ry
     estimated scf accuracy    <       0.00000180 Ry

     total magnetization       =    15.00 Bohr mag/cell
     absolute magnetization    =    17.45 Bohr mag/cell

     iteration # 62     ecut=    40.00 Ry     beta=0.70
     Davidson diagonalization with overlap
     ethr =  7.80E-10,  avg # of iterations =  1.0

     negative rho (up, down):  0.465E-02 0.169E-02

     total cpu time spent up to now is    22266.1 secs

     total energy              =   -2027.10185016 Ry
     Harris-Foulkes estimate   =   -2027.10185029 Ry
     estimated scf accuracy    <       0.00000117 Ry

     total magnetization       =    15.00 Bohr mag/cell
     absolute magnetization    =    17.45 Bohr mag/cell

     iteration # 63     ecut=    40.00 Ry     beta=0.70
     Davidson diagonalization with overlap
     ethr =  5.05E-10,  avg # of iterations =  1.0

     negative rho (up, down):  0.465E-02 0.169E-02

     total cpu time spent up to now is    22580.6 secs

     total energy              =   -2027.10185014 Ry
     Harris-Foulkes estimate   =   -2027.10185035 Ry
     estimated scf accuracy    <       0.00000139 Ry

     total magnetization       =    15.00 Bohr mag/cell
     absolute magnetization    =    17.45 Bohr mag/cell

     iteration # 64     ecut=    40.00 Ry     beta=0.70
     Davidson diagonalization with overlap
     ethr =  5.05E-10,  avg # of iterations =  1.0

     negative rho (up, down):  0.465E-02 0.169E-02

     total cpu time spent up to now is    22894.4 secs

     total energy              =   -2027.10185015 Ry
     Harris-Foulkes estimate   =   -2027.10185036 Ry
     estimated scf accuracy    <       0.00000172 Ry

     total magnetization       =    15.00 Bohr mag/cell
     absolute magnetization    =    17.45 Bohr mag/cell

     iteration # 65     ecut=    40.00 Ry     beta=0.70
     Davidson diagonalization with overlap
     ethr =  5.05E-10,  avg # of iterations =  1.0

     negative rho (up, down):  0.465E-02 0.169E-02

     total cpu time spent up to now is    23207.4 secs

     total energy              =   -2027.10185005 Ry
     Harris-Foulkes estimate   =   -2027.10185046 Ry
     estimated scf accuracy    <       0.00000369 Ry

     total magnetization       =    15.00 Bohr mag/cell
     absolute magnetization    =    17.45 Bohr mag/cell

     iteration # 66     ecut=    40.00 Ry     beta=0.70
     Davidson diagonalization with overlap
     ethr =  5.05E-10,  avg # of iterations =  1.0

     negative rho (up, down):  0.465E-02 0.169E-02

     total cpu time spent up to now is    23520.4 secs

     total energy              =   -2027.10185014 Ry
     Harris-Foulkes estimate   =   -2027.10185038 Ry
     estimated scf accuracy    <       0.00000202 Ry

     total magnetization       =    15.00 Bohr mag/cell
     absolute magnetization    =    17.45 Bohr mag/cell

     iteration # 67     ecut=    40.00 Ry     beta=0.70
     Davidson diagonalization with overlap
     ethr =  5.05E-10,  avg # of iterations =  1.0

     negative rho (up, down):  0.465E-02 0.169E-02

     total cpu time spent up to now is    23833.6 secs

     total energy              =   -2027.10185020 Ry
     Harris-Foulkes estimate   =   -2027.10185036 Ry
     estimated scf accuracy    <       0.00000167 Ry

     total magnetization       =    15.00 Bohr mag/cell
     absolute magnetization    =    17.45 Bohr mag/cell

     iteration # 68     ecut=    40.00 Ry     beta=0.70
     Davidson diagonalization with overlap
     ethr =  5.05E-10,  avg # of iterations =  1.0

     negative rho (up, down):  0.465E-02 0.169E-02

     total cpu time spent up to now is    24146.8 secs

     End of self-consistent calculation

 ------ SPIN UP ------------


          k = 0.0000 0.0000 0.0000 ( 27003 PWs)   bands (ev):

   -75.4150 -75.1032 -74.9940 -74.9629 -74.9275 -74.9211 -74.9107 -74.9069
   -46.8158 -46.6937 -46.6839 -46.5928 -46.4149 -46.3897 -46.3395 -46.3163
   -46.3059 -46.3044 -46.3022 -46.2946 -46.2925 -46.2394 -46.2376 -46.2329
   -46.2165 -46.2113 -46.2016 -46.1979 -46.1915 -46.1903 -46.1318 -46.1048
   -21.3909 -20.9342 -20.6199 -20.4966 -20.4280 -20.0765 -19.9214 -19.8756
   -19.7855 -19.7588 -19.6321 -19.6148 -19.4958 -19.4585 -19.3357 -19.2982
   -19.2577 -19.1194 -19.0457  -9.2272  -8.9766  -8.8614  -8.7072  -8.5878
    -8.2164  -7.9656  -7.8950  -7.8326  -7.7789  -7.7331  -7.7263  -7.5990
    -7.4981  -7.2193  -7.0412  -7.0074  -6.9528  -6.9482  -6.8921  -6.8465
    -6.6025  -6.5168  -6.5067  -6.2247  -6.1745  -5.9125  -5.7709  -5.6921
    -5.4783  -5.3834  -5.3030  -5.2716  -5.1806  -4.9696  -4.9527  -4.8650
    -4.7749  -4.7587  -4.6305  -4.5420  -4.3925  -4.2987  -4.2513  -4.1217
    -4.0176  -3.9998  -3.9239  -3.9017  -3.7546  -3.6699  -3.6468  -3.6044
    -3.3871  -3.3212  -2.9629  -2.9395  -2.9007  -2.5780  -2.5449  -2.4831
    -2.3369  -2.1945  -2.1608  -2.1034  -2.0396  -2.0339  -1.9744  -1.8418
    -1.6993  -1.4907  -1.4539  -1.3855  -1.3381  -1.1041  -0.9967  -0.9569
    -0.9093  -0.6800  -0.5471  -0.3724  -0.2944   0.5366   0.6264   0.9790
     1.2805   1.2961   1.4871   1.5133   1.6095   1.7496   1.9534   2.0583
     2.1036   2.2283   2.3090   2.7379   3.2220   3.2927   3.7731   4.2544
     4.7860   5.5468   6.1196   6.3598   6.7473   6.8545   7.1310   7.2384
     7.2652   7.2896   7.5106   7.6158   7.6964   7.8629   8.0448   8.1252
     8.1776   8.2203   8.3183   8.4783   8.5580   8.6181   8.7473   8.8589
     8.9395   9.2231   9.2776   9.3433   9.4420   9.4866   9.5841   9.7079
     9.8759   9.9405  10.0480  10.0850  10.1692  10.3208  10.4986  10.5555
    10.6375  10.6870  10.9805  11.0800  11.2571  11.2970  11.3541  11.4180
    11.4474  11.4564  11.5199  11.7707  11.7864  11.8249  12.0352  12.0836
    12.1052  12.1350  12.1702  12.2692  12.3544  12.3759  12.4357  12.5187
    12.5643  12.6589  12.6996  12.7659  12.7749  12.9728  13.0050  13.0742
    13.0957  13.1154  13.1962  13.2298  13.3052  13.3237  13.4539  13.5535
    13.6750  13.7541  13.7824  13.8855  13.9558  13.9728  14.1603  14.2530
    14.2938  14.3324  14.4695  14.5413  14.5642  14.6822  14.7567  14.8743
    14.9339  15.0264  15.0549  15.1551  15.2306  15.2955  15.3449  15.5189
    15.5576  15.6060  15.7860  15.8654  16.1282  16.2022  16.2712  16.4016
    16.4078  16.4442  16.6150  16.8201  16.8851  16.9436  17.0034  17.0674
    17.1042  17.1807  17.3732  17.4667  17.5892  17.6996  17.7963  17.8443
    17.9113  17.9962  18.0483  18.1717  18.2878  18.3233  18.5118  18.5698
    18.6949  18.7451  18.8006  18.8345  18.9740  19.0580  19.1453  19.2254
    19.2688  19.3143  19.4335  19.4541  19.4743  19.6399  19.7080  19.7473
    19.8295  19.8987  19.9829  20.0346  20.0739  20.2073  20.2813  20.3304
    20.3972  20.4387  20.4896  20.6270  20.6979  20.7470  20.8970  20.9874
    21.0346  21.0596  21.1671  21.1833  21.2444  21.3292  21.3825  21.4780
    21.4994  21.5280  21.5659  21.6008  21.7261  21.7785

          k = 0.0000 0.2341 0.0000 ( 27088 PWs)   bands (ev):

   -75.4150 -75.1032 -74.9940 -74.9629 -74.9273 -74.9213 -74.9107 -74.9069
   -46.8159 -46.6937 -46.6837 -46.5927 -46.4176 -46.3829 -46.3433 -46.3159
   -46.3108 -46.3052 -46.3025 -46.2946 -46.2835 -46.2388 -46.2373 -46.2336
   -46.2167 -46.2156 -46.2016 -46.1982 -46.1929 -46.1881 -46.1315 -46.1051
   -21.3142 -20.8340 -20.6162 -20.5494 -20.4122 -20.1398 -19.9256 -19.8911
   -19.8768 -19.7898 -19.6483 -19.6056 -19.4543 -19.4419 -19.4070 -19.3307
   -19.2120 -19.1278 -19.0398  -9.1790  -8.7955  -8.6673  -8.5806  -8.5451
    -8.2723  -8.1748  -7.8836  -7.8490  -7.7584  -7.6380  -7.6069  -7.4724
    -7.3375  -7.2108  -7.0755  -6.9517  -6.8974  -6.8748  -6.7335  -6.6668
    -6.5803  -6.4665  -6.4121  -6.1821  -6.1483  -6.0808  -5.9837  -5.8585
    -5.7367  -5.6702  -5.4816  -5.3279  -5.1917  -5.1072  -4.9361  -4.8876
    -4.8209  -4.7260  -4.6844  -4.6248  -4.4751  -4.3950  -4.3692  -4.1997
    -4.1503  -4.0607  -4.0275  -3.9416  -3.7987  -3.7135  -3.6331  -3.5551
    -3.4925  -3.2388  -3.0536  -2.7473  -2.6477  -2.5365  -2.4037  -2.3381
    -2.2236  -2.1933  -2.1432  -2.0966  -2.0438  -2.0165  -1.9759  -1.9277
    -1.8694  -1.7992  -1.6096  -1.4128  -1.1684  -1.0633  -0.9465  -0.8420
    -0.8150  -0.6559  -0.5982  -0.5544  -0.1192   0.4385   0.5993   0.6138
     0.7936   1.2329   1.6293   1.7456   1.8815   1.9153   2.1252   2.1428
     2.2177   2.2821   2.4907   2.6064   3.4651   3.5161   4.0192   4.4744
     4.9938   5.3813   5.6234   5.8811   6.0837   6.3757   6.5525   7.0328
     7.0741   7.3066   7.3931   7.5140   7.7372   7.9752   8.2359   8.3231
     8.3377   8.4387   8.4930   8.6717   8.7795   8.8648   8.9512   9.1169
     9.1927   9.3355   9.4257   9.5114   9.6371   9.7212   9.8347  10.0173
    10.0425  10.0977  10.1357  10.2333  10.2649  10.2902  10.3307  10.4070
    10.4507  10.5876  10.6348  10.7678  10.8140  10.9044  11.0722  11.1974
    11.2653  11.3398  11.4554  11.5726  11.6269  11.6614  11.7263  11.7430
    11.8588  11.9751  12.1329  12.3167  12.3704  12.4525  12.5362  12.6289
    12.7415  12.8271  12.8568  12.9566  12.9985  13.1544  13.2541  13.3871
    13.4163  13.4467  13.5810  13.6594  13.7600  13.8437  13.9700  14.0474
    14.1011  14.1357  14.2188  14.2795  14.3007  14.3594  14.4521  14.4872
    14.5294  14.6024  14.6499  14.7045  14.7546  14.8125  14.9533  14.9925
    15.1076  15.1990  15.2458  15.3081  15.3666  15.4356  15.4991  15.5233
    15.6448  15.6906  15.7201  15.8047  15.8847  15.9530  16.0828  16.1167
    16.1711  16.2496  16.3946  16.4127  16.5399  16.6146  16.6839  16.8193
    16.8742  17.0262  17.1000  17.1641  17.2189  17.3121  17.3442  17.4748
    17.6020  17.6720  17.7151  17.9064  18.0869  18.1016  18.2255  18.3736
    18.4611  18.5378  18.5852  18.7207  18.7615  18.8501  18.9465  19.0521
    19.0994  19.1711  19.2221  19.2938  19.4573  19.5399  19.5711  19.6396
    19.8870  19.9295  19.9934  20.0261  20.1102  20.1679  20.2261  20.2803
    20.3535  20.3872  20.4123  20.4887  20.5398  20.6478  20.6939  20.7629
    20.7658  20.8177  20.9300  20.9835  21.0051  21.0948  21.1571  21.2168
    21.2695  21.3013  21.3726  21.4592  21.5664  21.6224

          k = 0.0000-0.4682 0.0000 ( 27136 PWs)   bands (ev):

   -75.4150 -75.1032 -74.9939 -74.9629 -74.9271 -74.9215 -74.9107 -74.9069
   -46.8159 -46.6937 -46.6835 -46.5927 -46.4194 -46.3756 -46.3485 -46.3209
   -46.3064 -46.3060 -46.3027 -46.2946 -46.2780 -46.2385 -46.2364 -46.2347
   -46.2209 -46.2164 -46.2016 -46.1985 -46.1934 -46.1868 -46.1312 -46.1055
   -21.2186 -20.6920 -20.6129 -20.6036 -20.3719 -20.3328 -19.9647 -19.9055
   -19.8413 -19.8181 -19.6625 -19.5905 -19.5745 -19.4177 -19.3929 -19.3232
   -19.1803 -19.1444 -19.0391  -9.1477  -8.8720  -8.5620  -8.4399  -8.2505
    -8.1795  -8.1479  -7.8481  -7.7987  -7.6421  -7.5955  -7.3890  -7.3252
    -7.2988  -7.2600  -7.1208  -6.8549  -6.8142  -6.7918  -6.6813  -6.5858
    -6.5662  -6.5171  -6.4211  -6.3048  -6.2709  -6.2120  -6.1864  -5.8807
    -5.8561  -5.7517  -5.6290  -5.5264  -5.2350  -5.2029  -5.1691  -5.0355
    -4.9399  -4.8486  -4.8021  -4.6864  -4.4904  -4.4362  -4.3638  -4.1912
    -4.1392  -4.0841  -4.0597  -3.9609  -3.7267  -3.6253  -3.5503  -3.3789
    -3.3202  -3.2862  -3.1261  -2.8561  -2.7478  -2.6634  -2.5313  -2.3125
    -2.2821  -2.2461  -2.1730  -2.1167  -2.0373  -2.0126  -1.9728  -1.8512
    -1.7361  -1.6026  -1.3582  -1.3052  -1.2620  -1.1418  -1.0751  -0.8877
    -0.8297  -0.7086  -0.6330  -0.3952   0.0077   0.0809   0.2175   0.5899
     1.0120   1.4276   1.7371   1.7466   1.7700   1.9600   2.1382   2.1584
     2.1929   2.2622   2.6722   2.8812   3.8020   4.0661   4.4265   4.6264
     4.7531   4.9162   5.1894   5.4282   5.7762   6.0669   6.4816   6.8606
     7.0803   7.2507   7.5260   7.6371   7.7675   7.8600   8.0526   8.2254
     8.3030   8.6166   8.7190   8.9593   9.0018   9.0533   9.1198   9.1565
     9.1924   9.1983   9.4409   9.5204   9.5294   9.6108   9.6500   9.6867
     9.8402   9.8983  10.0215  10.0602  10.1931  10.3122  10.3513  10.4587
    10.6958  10.7610  10.9240  10.9315  11.0035  11.0726  11.1602  11.1990
    11.3717  11.5323  11.5913  11.6210  11.6986  11.8167  12.0008  12.1555
    12.2236  12.2269  12.3835  12.4285  12.4688  12.5156  12.5859  12.7229
    12.8256  12.8769  12.9832  13.0369  13.1662  13.1910  13.2258  13.3302
    13.4197  13.4960  13.5201  13.6344  13.6702  13.7524  13.7839  13.8852
    14.1076  14.1572  14.1986  14.2466  14.3683  14.4550  14.5410  14.5982
    14.6348  14.6428  14.6903  14.7323  14.7941  14.9505  15.0435  15.0971
    15.2038  15.2371  15.2671  15.2903  15.3519  15.4614  15.5650  15.6241
    15.7691  15.8665  15.9341  16.0268  16.0537  16.0998  16.3338  16.4061
    16.4170  16.6172  16.6347  16.7598  16.7819  16.8478  16.8858  16.9423
    16.9956  17.0575  17.0752  17.0996  17.1403  17.4036  17.4604  17.5406
    17.5695  17.6347  17.7377  17.8295  17.9060  18.0054  18.0503  18.0747
    18.2287  18.2721  18.3181  18.4230  18.4412  18.4673  18.5231  18.5687
    18.6631  18.6972  18.7199  18.7818  18.9772  19.0374  19.0702  19.1238
    19.2083  19.2783  19.3590  19.3993  19.6505  19.6921  19.8510  19.9032
    20.0192  20.0947  20.1273  20.1936  20.2598  20.3529  20.3953  20.4021
    20.5659  20.7347  20.7438  20.8038  20.8387  20.8805  20.9522  21.0492
    21.0991  21.1370  21.1784  21.2479  21.2938  21.3209

          k = 0.2500 0.0000 0.0000 ( 27178 PWs)   bands (ev):

   -75.4150 -75.1030 -74.9942 -74.9629 -74.9257 -74.9191 -74.9125 -74.9089
   -46.8113 -46.6935 -46.6838 -46.5928 -46.3938 -46.3890 -46.3387 -46.3130
   -46.3059 -46.2982 -46.2956 -46.2829 -46.2799 -46.2534 -46.2423 -46.2352
   -46.2191 -46.2086 -46.2053 -46.2011 -46.1932 -46.1859 -46.1564 -46.1247
   -21.2728 -20.8283 -20.6936 -20.4839 -20.3987 -20.1328 -19.9873 -19.9110
   -19.8577 -19.7216 -19.6193 -19.6050 -19.4838 -19.4649 -19.3684 -19.3210
   -19.2421 -19.1420 -19.0635  -9.0849  -8.8305  -8.7226  -8.6914  -8.4284
    -8.1660  -8.0235  -7.9018  -7.8587  -7.8040  -7.7832  -7.6675  -7.5898
    -7.4636  -7.3358  -7.2648  -7.0581  -7.0226  -6.9471  -6.7906  -6.7104
    -6.6739  -6.4991  -6.3968  -6.0397  -5.9960  -5.8564  -5.6972  -5.6383
    -5.5122  -5.4485  -5.3589  -5.2784  -5.1941  -5.1202  -5.0636  -5.0493
    -4.9843  -4.8716  -4.6419  -4.5610  -4.4452  -4.3742  -4.2950  -4.2251
    -4.1668  -4.1264  -4.0800  -3.9678  -3.8757  -3.8213  -3.7492  -3.6168
    -3.3533  -3.2757  -3.0847  -2.8476  -2.6737  -2.5509  -2.3955  -2.3409
    -2.2107  -2.1689  -2.1018  -2.0571  -1.9522  -1.9051  -1.8821  -1.7437
    -1.7025  -1.4966  -1.4706  -1.3531  -1.2014  -1.1406  -0.9976  -0.9694
    -0.8927  -0.8076  -0.6108  -0.4587  -0.1993   0.5901   0.6839   1.0459
     1.2381   1.3095   1.4349   1.5171   1.5449   1.6483   1.8169   1.8787
     2.0170   2.0634   2.1918   2.6761   3.5393   3.5781   4.0625   4.5356
     5.0768   5.5940   5.7226   6.0172   6.2974   6.4115   6.7008   6.7635
     7.2017   7.3700   7.4855   7.5006   7.6048   7.8079   7.8981   7.9469
     8.0626   8.3197   8.4012   8.4880   8.7381   8.8486   8.9865   9.0930
     9.1857   9.3645   9.4090   9.5103   9.6122   9.7446   9.8680   9.9408
     9.9707  10.0705  10.0902  10.1560  10.2133  10.2441  10.3821  10.4672
    10.5945  10.6338  10.6704  10.7953  10.9251  10.9999  11.0887  11.2362
    11.3700  11.4023  11.4220  11.5723  11.6470  11.6924  11.7682  11.8145
    11.9786  12.0891  12.1815  12.3216  12.3750  12.5491  12.5715  12.6741
    12.7053  12.8345  12.8781  12.9752  13.0469  13.0936  13.2003  13.2398
    13.2913  13.4316  13.5273  13.5654  13.6809  13.7853  13.8813  14.0072
    14.1000  14.1923  14.2954  14.3676  14.4148  14.4400  14.5396  14.5722
    14.5840  14.6504  14.7033  14.7374  14.8490  14.9021  14.9612  15.1442
    15.2389  15.2851  15.3553  15.4219  15.5771  15.6546  15.6938  15.7252
    15.8380  15.8609  15.9929  16.0223  16.0929  16.2149  16.3245  16.4459
    16.4821  16.5700  16.6010  16.7179  16.8935  16.9252  17.0329  17.1246
    17.1638  17.2015  17.2251  17.3159  17.4437  17.4988  17.5960  17.6066
    17.6521  17.7354  17.8249  17.9076  18.0222  18.0646  18.1044  18.2110
    18.2962  18.3769  18.4982  18.6858  18.7163  18.8447  18.8874  18.9300
    18.9801  19.1157  19.2464  19.2778  19.4602  19.4974  19.6196  19.6577
    19.7013  19.7442  19.7737  19.8282  19.8784  19.9214  20.0608  20.1510
    20.1723  20.2338  20.3618  20.3996  20.4915  20.5261  20.5637  20.6659
    20.7701  20.8836  20.9295  21.0512  21.1166  21.1555  21.1870  21.2569
    21.2869  21.3098  21.3775  21.4424  21.4830  21.5304

          k = 0.2500 0.2341 0.0000 ( 27132 PWs)   bands (ev):

   -75.4150 -75.1030 -74.9942 -74.9630 -74.9255 -74.9192 -74.9125 -74.9090
   -46.8113 -46.6935 -46.6836 -46.5928 -46.3992 -46.3798 -46.3419 -46.3101
   -46.3073 -46.3019 -46.2981 -46.2816 -46.2740 -46.2530 -46.2423 -46.2353
   -46.2192 -46.2126 -46.2050 -46.2011 -46.1942 -46.1849 -46.1562 -46.1248
   -21.2063 -20.7414 -20.6809 -20.4941 -20.4027 -20.1345 -19.9886 -19.9032
   -19.8620 -19.8235 -19.6859 -19.6365 -19.4764 -19.4538 -19.4300 -19.3504
   -19.2077 -19.1399 -19.0570  -9.0545  -8.7117  -8.5173  -8.4119  -8.3921
    -8.1787  -7.9863  -7.8807  -7.8210  -7.8032  -7.7010  -7.6118  -7.5223
    -7.3436  -7.2906  -7.2278  -7.0410  -6.9781  -6.8931  -6.7941  -6.6615
    -6.5933  -6.5235  -6.3586  -6.0974  -6.0736  -5.9458  -5.7946  -5.7181
    -5.6253  -5.5514  -5.4860  -5.4248  -5.3533  -5.3278  -5.2217  -5.1604
    -5.1054  -4.9639  -4.7726  -4.6941  -4.6114  -4.4528  -4.3935  -4.3155
    -4.2000  -4.1516  -4.0557  -3.9416  -3.8130  -3.7559  -3.6727  -3.5372
    -3.3196  -3.2058  -3.1266  -2.8255  -2.5270  -2.4041  -2.3072  -2.2406
    -2.1870  -2.1046  -2.0188  -1.9954  -1.9765  -1.9385  -1.8532  -1.7924
    -1.7647  -1.6969  -1.5927  -1.3272  -1.1053  -1.0427  -0.9781  -0.9387
    -0.8840  -0.7431  -0.6985  -0.6133  -0.0479   0.5253   0.6367   0.7059
     0.8633   1.2266   1.4495   1.5061   1.7327   1.7508   1.8927   2.0079
     2.0942   2.2986   2.4641   2.6219   3.7428   3.8105   4.3029   4.7492
     5.2610   5.6309   5.7858   5.8693   6.0887   6.2692   6.3791   6.5330
     6.6994   6.8603   6.9913   7.2955   7.4217   7.6323   7.7636   7.9439
     8.0721   8.2520   8.3810   8.4666   8.6096   8.7741   8.9448   9.0334
     9.1369   9.2559   9.3974   9.4998   9.5984   9.6689   9.7809   9.9421
    10.0687  10.1242  10.2312  10.3892  10.4193  10.5388  10.6269  10.7016
    10.8868  10.9332  11.0105  11.1420  11.2228  11.3188  11.3840  11.5066
    11.5608  11.6406  11.7169  11.8425  11.9016  11.9904  12.0983  12.1210
    12.2545  12.3364  12.4746  12.5590  12.6115  12.6520  12.7501  12.8055
    12.8918  12.9108  12.9742  13.0164  13.0567  13.1695  13.2432  13.2693
    13.3465  13.5012  13.5585  13.6455  13.6657  13.7582  13.8117  13.9223
    13.9693  14.1568  14.1769  14.2623  14.3308  14.3933  14.5210  14.5590
    14.6742  14.7268  14.7767  14.8184  14.8596  14.9285  15.0705  15.1214
    15.1773  15.3545  15.3842  15.4210  15.5577  15.6901  15.7472  15.8285
    15.8628  15.9731  15.9938  16.0772  16.1505  16.1939  16.2942  16.3363
    16.4204  16.4976  16.5493  16.6364  16.7104  16.8129  16.8611  16.9471
    17.0301  17.0746  17.1152  17.2280  17.3275  17.4013  17.4417  17.4652
    17.5315  17.5728  17.5836  17.6521  17.7538  17.8462  17.9248  17.9944
    18.1084  18.1455  18.1755  18.2664  18.3464  18.4683  18.5099  18.6634
    18.7159  18.7872  18.8136  18.8648  18.8919  19.0086  19.0742  19.1555
    19.2337  19.3622  19.4029  19.4486  19.4994  19.5704  19.6272  19.6791
    19.7298  19.8473  19.8779  20.0395  20.1083  20.1713  20.2499  20.3647
    20.4208  20.4745  20.5252  20.6106  20.7265  20.7529  20.9143  20.9632
    21.0063  21.1313  21.1558  21.1866  21.3161  21.3538

          k = 0.2500-0.4682 0.0000 ( 27150 PWs)   bands (ev):

   -75.4150 -75.1030 -74.9942 -74.9630 -74.9254 -74.9193 -74.9125 -74.9090
   -46.8114 -46.6935 -46.6834 -46.5927 -46.4015 -46.3728 -46.3460 -46.3097
   -46.3085 -46.3030 -46.2980 -46.2821 -46.2685 -46.2526 -46.2423 -46.2354
   -46.2193 -46.2169 -46.2050 -46.2012 -46.1952 -46.1842 -46.1557 -46.1249
   -21.1276 -20.6826 -20.6009 -20.5248 -20.3684 -20.2511 -19.9634 -19.9611
   -19.8163 -19.7953 -19.7767 -19.6909 -19.5831 -19.4687 -19.4243 -19.3339
   -19.1848 -19.1422 -19.0550  -9.0285  -8.7501  -8.3567  -8.2159  -8.0902
    -8.0366  -8.0070  -7.8552  -7.7553  -7.6288  -7.5759  -7.5206  -7.3374
    -7.2589  -7.1975  -7.1309  -7.0966  -7.0554  -6.9994  -6.6863  -6.6149
    -6.5339  -6.4030  -6.3477  -6.2736  -6.1556  -6.1205  -6.0345  -5.9979
    -5.9217  -5.6955  -5.6178  -5.5818  -5.5044  -5.4760  -5.3519  -5.2528
    -5.1736  -5.0662  -4.9292  -4.7695  -4.6778  -4.5253  -4.4087  -4.3230
    -4.2580  -4.0978  -3.9922  -3.8915  -3.8070  -3.6022  -3.5582  -3.3972
    -3.1948  -3.1594  -3.0707  -2.8091  -2.6305  -2.5770  -2.4181  -2.3076
    -2.2637  -2.1607  -2.0353  -1.9816  -1.9037  -1.8671  -1.8208  -1.7042
    -1.6599  -1.4875  -1.3509  -1.2790  -1.1900  -1.1343  -0.9985  -0.9164
    -0.8666  -0.8299  -0.7491  -0.5248   0.0670   0.1800   0.3175   0.5701
     0.9936   1.3521   1.4214   1.5137   1.5311   1.8035   1.8743   2.1318
     2.2955   2.3431   2.6264   2.7755   4.0358   4.3358   4.7066   4.9019
     5.0255   5.1968   5.4545   5.7137   6.0171   6.1401   6.3503   6.5523
     6.7481   6.8712   7.0391   7.1834   7.2273   7.3563   7.4560   7.6686
     7.8119   7.9400   8.1188   8.3291   8.4843   8.5452   8.6635   8.7970
     9.0468   9.1478   9.3735   9.4110   9.5899   9.7979   9.9328  10.0067
    10.0607  10.2306  10.3820  10.5590  10.6291  10.8135  10.9334  11.0331
    11.2307  11.3378  11.4357  11.4880  11.6188  11.6776  11.7935  11.8380
    11.8901  11.9201  12.0180  12.0844  12.1056  12.1568  12.3751  12.5197
    12.5761  12.6369  12.7041  12.7168  12.8016  12.8691  12.9024  12.9444
    12.9892  13.0783  13.1267  13.1822  13.2203  13.3291  13.4190  13.4658
    13.5571  13.6627  13.6907  13.7470  13.8005  13.9196  14.0021  14.0190
    14.0572  14.0949  14.1353  14.1859  14.2455  14.3028  14.4470  14.5339
    14.6078  14.7499  14.7956  14.8795  14.9745  14.9825  15.0119  15.0630
    15.1178  15.1909  15.2329  15.3036  15.3145  15.3622  15.3850  15.4662
    15.4990  15.6029  15.6381  15.7927  15.8414  15.8484  15.9275  15.9833
    16.1539  16.2207  16.2680  16.3626  16.4618  16.5409  16.5949  16.6114
    16.7167  16.7840  16.8701  16.9620  17.0375  17.0981  17.2395  17.3524
    17.4457  17.5641  17.6322  17.7357  17.8176  17.9057  18.0337  18.0743
    18.1614  18.2179  18.2528  18.3142  18.3728  18.4119  18.4763  18.5041
    18.5611  18.6629  18.7061  18.7933  18.8800  18.9193  18.9545  19.0410
    19.1823  19.3064  19.3621  19.3988  19.4177  19.4577  19.5110  19.5362
    19.6574  19.6923  19.7383  19.7797  19.8806  19.8931  19.9580  19.9892
    20.1451  20.1804  20.3040  20.4452  20.5364  20.5919  20.6718  20.7225
    20.7713  20.7905  20.8457  20.8919  20.9531  21.0151

          k =-0.5000 0.0000 0.0000 ( 27158 PWs)   bands (ev):

   -75.4150 -75.1027 -74.9944 -74.9630 -74.9231 -74.9157 -74.9140 -74.9134
   -46.8067 -46.6932 -46.6837 -46.5928 -46.3884 -46.3600 -46.3379 -46.3128
   -46.3078 -46.3073 -46.3008 -46.2725 -46.2482 -46.2428 -46.2382 -46.2298
   -46.2280 -46.2173 -46.2129 -46.2020 -46.1991 -46.1975 -46.1659 -46.1598
   -21.0246 -20.9264 -20.5960 -20.5799 -20.2873 -20.2154 -20.1667 -19.9867
   -19.7531 -19.7136 -19.5993 -19.5557 -19.5315 -19.4669 -19.4042 -19.3803
   -19.2298 -19.1428 -19.0899  -8.8557  -8.7815  -8.4728  -8.4272  -8.3789
    -8.3517  -8.1058  -8.0004  -7.9266  -7.7739  -7.7645  -7.6970  -7.6755
    -7.4996  -7.3986  -7.3476  -7.0514  -6.8894  -6.7071  -6.6951  -6.6538
    -6.4440  -6.2680  -6.1786  -6.1354  -6.0646  -5.9929  -5.8810  -5.7647
    -5.7039  -5.6366  -5.5128  -5.3939  -5.1795  -5.1042  -5.0839  -5.0183
    -4.9611  -4.9241  -4.7168  -4.6762  -4.6405  -4.5128  -4.4645  -4.4157
    -4.3026  -4.2264  -4.0791  -3.9594  -3.8464  -3.7806  -3.5484  -3.4872
    -3.4358  -3.2739  -3.1774  -2.9511  -2.4553  -2.4498  -2.3431  -2.2455
    -2.2193  -2.1848  -2.1425  -1.9201  -1.7982  -1.7731  -1.7118  -1.6434
    -1.5926  -1.5589  -1.4911  -1.4561  -1.2401  -1.0869  -1.0591  -0.9194
    -0.8423  -0.7798  -0.6888  -0.6453  -0.1278   0.7342   0.8043   1.0014
     1.0730   1.2585   1.3964   1.5161   1.5323   1.5797   1.6733   1.6771
     1.7358   2.1167   2.3288   2.4659   4.0718   4.3752   4.3784   4.7459
     4.8883   5.0229   5.3309   5.5232   5.9018   6.1087   6.5401   6.7759
     7.0674   7.2763   7.5468   7.7264   7.8857   7.9530   8.1890   8.3045
     8.3085   8.4828   8.4992   8.6342   8.6997   8.7444   8.7611   8.7872
     8.8871   8.9213   9.1758   9.2598   9.3175   9.3375   9.5146   9.6671
     9.8277   9.9691  10.0910  10.1641  10.2416  10.3064  10.4384  10.5318
    10.5967  10.7843  10.8177  10.9496  11.0691  11.0763  11.1992  11.2704
    11.3057  11.3816  11.5488  11.6559  11.8115  11.9306  12.0788  12.1140
    12.2442  12.3114  12.4735  12.5364  12.6381  12.7652  12.7765  12.8293
    12.9677  13.0571  13.1278  13.2142  13.2871  13.3556  13.4975  13.5379
    13.6477  13.7008  13.7592  13.7815  13.8539  13.9482  13.9619  14.0359
    14.1667  14.2527  14.3125  14.4330  14.5256  14.6209  14.6695  14.7322
    14.7647  14.8502  14.9064  14.9393  15.0180  15.0419  15.0963  15.1582
    15.2444  15.2634  15.5523  15.6243  15.6746  15.7172  15.7466  15.8483
    15.8955  15.9465  16.1306  16.2870  16.4296  16.5744  16.5925  16.6368
    16.7151  16.7447  16.8326  16.9430  17.0314  17.0464  17.1756  17.2291
    17.2675  17.3984  17.4248  17.4975  17.5598  17.5755  17.6060  17.6217
    17.6890  17.7199  17.8013  17.8572  17.9233  17.9416  18.0516  18.1479
    18.1740  18.2773  18.3834  18.4534  18.5060  18.5487  18.6266  18.7247
    18.7634  18.9000  18.9474  18.9938  19.0141  19.0896  19.0973  19.1534
    19.1645  19.2337  19.3518  19.5264  19.5582  19.7727  19.8350  19.8900
    19.9277  20.0310  20.1344  20.2484  20.2996  20.3096  20.3725  20.4485
    20.4754  20.4895  20.5488  20.5682  20.6309  20.6547  20.6964  20.8179
    20.8394  20.9083  20.9307  20.9708  21.0546  21.0764

          k =-0.5000 0.2341 0.0000 ( 27132 PWs)   bands (ev):

   -75.4149 -75.1027 -74.9944 -74.9630 -74.9230 -74.9154 -74.9141 -74.9137
   -46.8067 -46.6932 -46.6835 -46.5928 -46.3872 -46.3582 -46.3402 -46.3124
   -46.3093 -46.3066 -46.2997 -46.2723 -46.2479 -46.2430 -46.2376 -46.2303
   -46.2279 -46.2171 -46.2126 -46.2033 -46.2004 -46.1979 -46.1656 -46.1595
   -20.9851 -20.8926 -20.5655 -20.4987 -20.2578 -20.1965 -20.1467 -20.0041
   -19.7846 -19.7429 -19.7198 -19.6880 -19.4995 -19.4798 -19.4645 -19.3841
   -19.2083 -19.1297 -19.0843  -8.8389  -8.7616  -8.2112  -8.1659  -8.1112
    -8.0800  -8.0512  -7.9678  -7.8620  -7.7887  -7.7162  -7.6435  -7.6310
    -7.4515  -7.3624  -7.2470  -7.0874  -6.8316  -6.7702  -6.6881  -6.5653
    -6.4931  -6.3832  -6.3246  -6.2649  -6.2254  -6.1165  -5.9503  -5.8749
    -5.8001  -5.7098  -5.4963  -5.4293  -5.3477  -5.2999  -5.2307  -5.1548
    -5.1110  -5.0761  -5.0327  -4.9417  -4.8467  -4.6254  -4.4579  -4.3105
    -4.2709  -4.1136  -4.0429  -3.8851  -3.8266  -3.7233  -3.6235  -3.4419
    -3.2771  -3.1888  -3.1078  -2.9752  -2.4844  -2.3109  -2.2528  -2.1806
    -2.1149  -2.0323  -1.9475  -1.9002  -1.8650  -1.8420  -1.7877  -1.6759
    -1.6154  -1.5547  -1.4193  -1.2855  -1.1690  -1.1311  -1.0798  -0.9802
    -0.8897  -0.8178  -0.7480  -0.7150   0.0024   0.6387   0.8346   0.8691
     1.0270   1.0781   1.1277   1.2595   1.3526   1.5375   1.7750   1.9393
     2.1771   2.2157   2.4801   2.5864   4.2084   4.5983   4.6055   4.9837
     5.1208   5.2558   5.5356   5.7403   6.0351   6.2156   6.3733   6.5217
     6.6471   6.8151   6.9797   7.0798   7.1518   7.2459   7.4750   7.6126
     7.6889   7.8501   8.1636   8.3015   8.4394   8.6130   8.7408   8.8733
     9.0270   9.2418   9.2773   9.4879   9.6515   9.8128   9.8569   9.9294
    10.2815  10.3687  10.4597  10.5173  10.5807  10.7192  10.8546  10.8832
    10.9542  10.9678  11.1559  11.2759  11.3819  11.4669  11.5294  11.6260
    11.6755  11.7669  11.8380  11.8969  12.1762  12.2563  12.3752  12.4087
    12.5464  12.5987  12.7012  12.7225  12.7795  12.8297  12.9559  13.0088
    13.0996  13.1696  13.3429  13.3766  13.4301  13.4992  13.6005  13.6980
    13.7355  13.8472  13.9473  13.9978  14.0306  14.0843  14.1484  14.2906
    14.3312  14.3656  14.4305  14.4846  14.5740  14.6057  14.6907  14.7280
    14.7814  14.8035  14.8419  14.9719  15.0506  15.1253  15.1904  15.2644
    15.3779  15.4095  15.5556  15.6249  15.6466  15.6706  15.7249  15.7778
    15.8380  15.9009  15.9204  15.9529  16.0412  16.0804  16.1043  16.1485
    16.2009  16.3002  16.3751  16.4436  16.5278  16.5778  16.6631  16.7110
    16.7907  16.8182  16.8622  16.9303  17.0674  17.0974  17.1520  17.1883
    17.2580  17.2718  17.3356  17.4184  17.4773  17.5441  17.6982  17.7147
    17.7768  17.8221  17.9224  17.9423  18.0431  18.1455  18.1740  18.2725
    18.3019  18.3905  18.4613  18.5552  18.7907  18.8326  18.9411  18.9926
    19.1113  19.1669  19.2469  19.3596  19.4382  19.4858  19.6157  19.6511
    19.7401  19.7937  19.8232  19.8612  19.9119  19.9307  19.9627  20.0230
    20.0493  20.0885  20.2040  20.2338  20.3282  20.5218  20.6079  20.6354
    20.7596  20.8133  20.8621  20.9452  21.0574  21.1403

          k =-0.5000-0.4682 0.0000 ( 27168 PWs)   bands (ev):

   -75.4149 -75.1027 -74.9944 -74.9630 -74.9230 -74.9149 -74.9142 -74.9141
   -46.8068 -46.6932 -46.6833 -46.5927 -46.3861 -46.3556 -46.3432 -46.3118
   -46.3115 -46.3055 -46.2986 -46.2720 -46.2476 -46.2434 -46.2370 -46.2312
   -46.2275 -46.2160 -46.2131 -46.2047 -46.2016 -46.1985 -46.1654 -46.1593
   -20.9419 -20.8576 -20.5390 -20.3346 -20.2521 -20.2328 -20.0452 -20.0321
   -19.9430 -19.8622 -19.7156 -19.6428 -19.6172 -19.5941 -19.4568 -19.3524
   -19.1910 -19.1215 -19.0826  -8.8219  -8.7423  -8.1477  -8.0433  -7.9778
    -7.8786  -7.7725  -7.6653  -7.6280  -7.6045  -7.5430  -7.4272  -7.3778
    -7.3552  -7.2338  -7.1774  -7.0343  -6.9867  -6.9503  -6.8636  -6.7972
    -6.7446  -6.6453  -6.5773  -6.3885  -6.2632  -6.0418  -5.9641  -5.9019
    -5.8514  -5.7903  -5.7075  -5.6191  -5.5763  -5.5477  -5.4610  -5.3613
    -5.2913  -5.2737  -5.1413  -5.0867  -4.9045  -4.5985  -4.3965  -4.2472
    -4.1747  -4.0437  -3.9781  -3.9238  -3.7475  -3.6977  -3.5665  -3.4578
    -3.3039  -3.0045  -2.8840  -2.8389  -2.4483  -2.3948  -2.3407  -2.2987
    -2.2692  -2.0803  -1.9472  -1.8523  -1.7939  -1.7552  -1.6161  -1.5930
    -1.5004  -1.4637  -1.3568  -1.2360  -1.1651  -1.0965  -1.0001  -0.9263
    -0.9121  -0.8944  -0.8253  -0.7215   0.1035   0.4114   0.5455   0.6998
     0.7331   0.9974   1.0121   1.3018   1.3282   1.7956   1.8049   1.9765
     2.4228   2.5031   2.5602   2.5714   4.3986   5.0539   5.0618   5.5078
     5.5095   5.6264   5.6707   5.7517   5.8361   5.9225   5.9855   6.0592
     6.2434   6.3980   6.5033   6.5923   6.7961   6.9843   7.1517   7.2765
     7.4864   7.7223   7.9307   8.1114   8.1936   8.4373   8.6495   8.8670
     8.9763   9.2073   9.2862   9.4008   9.4693   9.5957   9.8003   9.9789
    10.0252  10.3071  10.6632  10.7932  10.8750  11.0200  11.1051  11.1882
    11.2388  11.3415  11.3743  11.7596  12.0143  12.1589  12.3076  12.3263
    12.3652  12.5691  12.5831  12.6279  12.7056  12.8072  12.8322  12.9450
    13.0208  13.0421  13.1268  13.1899  13.3874  13.4456  13.4776  13.5082
    13.5360  13.6042  13.6265  13.6503  13.7016  13.7249  13.7549  13.8909
    13.9245  13.9366  13.9715  14.0167  14.0507  14.1715  14.1943  14.2572
    14.2797  14.3245  14.3958  14.4933  14.5456  14.5487  14.6632  14.6889
    14.7061  14.7122  14.7313  14.7531  14.8630  14.8690  14.9501  14.9819
    15.0648  15.1247  15.1463  15.1777  15.1996  15.2201  15.2970  15.3363
    15.3742  15.4876  15.4943  15.5769  15.6131  15.6391  15.6714  15.6960
    15.7804  15.8474  15.8985  15.9667  16.0513  16.1705  16.2219  16.3124
    16.4135  16.4750  16.5294  16.5443  16.6144  16.6911  16.7115  16.7648
    16.8312  16.8322  16.9100  16.9462  17.0807  17.1193  17.1869  17.2807
    17.3496  17.5788  17.6906  17.7665  17.7798  17.8253  17.8908  17.9404
    18.0192  18.0855  18.1204  18.3273  18.3420  18.4373  18.5560  18.5763
    18.7088  18.7311  18.8325  18.9366  19.0533  19.1227  19.1378  19.2744
    19.4899  19.8305  19.9032  19.9097  19.9984  20.0584  20.1079  20.2339
    20.2841  20.3113  20.5430  20.6067  20.6697  20.7626  20.9550  21.0110
    21.2301  21.2937  21.3814  21.4267  21.5035  21.5752

          k =-0.2500 0.2341 0.0000 ( 27132 PWs)   bands (ev):

   -75.4150 -75.1030 -74.9942 -74.9630 -74.9255 -74.9192 -74.9125 -74.9090
   -46.8113 -46.6935 -46.6836 -46.5928 -46.3992 -46.3798 -46.3419 -46.3100
   -46.3072 -46.3023 -46.2981 -46.2817 -46.2734 -46.2531 -46.2422 -46.2352
   -46.2190 -46.2129 -46.2051 -46.2012 -46.1944 -46.1850 -46.1560 -46.1248
   -21.2067 -20.7419 -20.6800 -20.4933 -20.4024 -20.1340 -19.9892 -19.9034
   -19.8609 -19.8234 -19.6924 -19.6376 -19.4657 -19.4579 -19.4310 -19.3502
   -19.2071 -19.1410 -19.0567  -9.0515  -8.7365  -8.5177  -8.4000  -8.3639
    -8.1665  -8.0039  -7.8826  -7.8734  -7.7848  -7.6867  -7.6350  -7.4994
    -7.3479  -7.2798  -7.2263  -7.0420  -6.9855  -6.9482  -6.7024  -6.6695
    -6.5661  -6.5094  -6.3666  -6.1460  -6.0431  -5.9591  -5.8020  -5.6721
    -5.6256  -5.5769  -5.5408  -5.4624  -5.3881  -5.2642  -5.2217  -5.1635
    -5.0786  -5.0146  -4.7622  -4.6831  -4.5857  -4.4258  -4.4021  -4.2685
    -4.2046  -4.1312  -4.0818  -3.9776  -3.8562  -3.7520  -3.6879  -3.5211
    -3.3283  -3.1995  -3.0690  -2.8189  -2.5356  -2.4349  -2.2863  -2.2471
    -2.1754  -2.1197  -2.0407  -2.0004  -1.9796  -1.9272  -1.8699  -1.7953
    -1.7411  -1.7035  -1.5562  -1.3314  -1.1297  -1.0423  -0.9767  -0.9372
    -0.8836  -0.7420  -0.6859  -0.6221  -0.0480   0.5262   0.6368   0.7029
     0.8613   1.2304   1.4509   1.5109   1.7300   1.7485   1.8879   2.0074
     2.1004   2.3005   2.4564   2.6264   3.7423   3.8086   4.3022   4.7493
     5.2641   5.6480   5.7996   5.8572   6.1126   6.2345   6.3972   6.5429
     6.6936   6.8441   6.9835   7.2733   7.4124   7.5799   7.8310   7.9485
     8.0483   8.2705   8.3626   8.4832   8.6078   8.7681   8.9270   9.0665
     9.1702   9.2672   9.3831   9.4827   9.5451   9.6984   9.7858   9.9457
    10.0774  10.1445  10.2405  10.3470  10.4488  10.5488  10.5824  10.7199
    10.8553  10.9509  11.0414  11.1241  11.2276  11.3011  11.3496  11.4955
    11.5645  11.6441  11.7657  11.8635  11.8983  11.9888  12.0801  12.1053
    12.2791  12.3215  12.4584  12.5429  12.6361  12.6580  12.7632  12.8263
    12.8871  12.9269  12.9637  13.0116  13.0881  13.1554  13.2487  13.3115
    13.3639  13.4574  13.5808  13.6373  13.7251  13.7667  13.8357  13.8844
    13.9654  14.0659  14.1795  14.2470  14.3195  14.4369  14.4872  14.5905
    14.6535  14.6897  14.7649  14.8186  14.8889  14.9783  15.0945  15.1161
    15.1548  15.3510  15.3670  15.4510  15.5171  15.5738  15.7388  15.8546
    15.8919  15.9768  16.0110  16.0769  16.1404  16.2021  16.3145  16.3699
    16.3930  16.4654  16.5610  16.6491  16.7338  16.8136  16.8454  16.8997
    17.0212  17.0595  17.1294  17.2468  17.2865  17.3699  17.4155  17.4405
    17.5019  17.5533  17.6292  17.6933  17.7929  17.8314  17.9227  18.0292
    18.0887  18.1278  18.2064  18.2782  18.3088  18.4462  18.5330  18.6316
    18.7052  18.7705  18.8251  18.8568  18.9293  19.0278  19.1169  19.1686
    19.2659  19.3106  19.4197  19.4570  19.5021  19.5711  19.6327  19.6944
    19.7265  19.8131  19.9315  20.0209  20.0960  20.1729  20.2566  20.3958
    20.4119  20.4673  20.5665  20.6685  20.7205  20.7641  20.8971  20.9365
    20.9997  21.1094  21.1673  21.2011  21.2783  21.3370

 ------ SPIN DOWN ----------


          k = 0.0000 0.0000 0.0000 ( 27003 PWs)   bands (ev):

   -74.3954 -72.7704 -72.7299 -72.6715 -72.6547 -72.5686 -72.5004 -72.4803
   -46.0419 -45.6808 -45.4840 -44.4744 -44.2918 -44.2824 -44.2659 -44.2441
   -44.1652 -44.1254 -44.0955 -44.0018 -43.9980 -43.9891 -43.9352 -43.8806
   -43.8685 -43.8547 -43.8539 -43.8123 -43.7341 -43.6888 -43.6836 -43.5470
   -21.3961 -20.9436 -20.5932 -20.5387 -20.4495 -20.1133 -19.9327 -19.8997
   -19.8496 -19.7925 -19.6768 -19.6281 -19.5595 -19.5031 -19.4100 -19.3847
   -19.3470 -19.2492 -19.1412  -8.9470  -8.5799  -8.5361  -8.4303  -8.3976
    -7.9819  -7.7368  -7.6231  -7.5599  -7.5120  -7.4657  -7.4520  -7.2930
    -7.2353  -6.9718  -6.7775  -6.7368  -6.6674  -6.5892  -6.5673  -6.4988
    -6.2901  -6.2795  -6.1683  -5.9811  -5.9359  -5.6623  -5.5251  -5.4808
    -5.3004  -5.2936  -5.1829  -5.0792  -4.9295  -4.8190  -4.7979  -4.7319
    -4.5749  -4.5020  -4.4427  -4.3339  -4.3229  -4.1339  -4.0342  -3.9551
    -3.9013  -3.8577  -3.8006  -3.7288  -3.5885  -3.5287  -3.4694  -3.3508
    -3.2871  -3.2214  -2.9660  -2.6365  -0.8755  -0.8448  -0.5370  -0.4723
    -0.3112  -0.2280  -0.1948  -0.1332  -0.0767  -0.0697   0.1267   0.2553
     0.2624   0.3171   0.4915   0.5877   0.6313   0.6610   0.7165   0.7707
     0.7976   0.8950   1.0285   1.0749   1.2986   1.3566   1.7697   2.1594
     2.2819   2.4747   2.5698   2.6160   2.7841   2.8397   2.8907   3.0412
     3.1457   3.1913   3.3030   3.3718   3.4112   3.8026   3.9144   4.3113
     4.8551   5.6222   6.2263   6.4302   6.8350   6.9250   7.2132   7.2842
[...]
    -0.0906  -0.0004   0.0264   0.1065   0.1220   0.1650   0.1831   0.2279
     0.3244   0.3517   0.3934   0.4467   0.4761   0.5518   0.5865   0.6209
     0.6307   0.7489   0.9551   1.0674   1.3103   1.4571   2.0088   2.1400
     2.2722   2.3705   2.5413   2.5704   2.6282   2.6746   2.8123   2.8365
     2.8381   3.1837   3.4324   3.5074   4.2141   4.4440   4.4477   4.7751
     4.9195   5.0621   5.3729   5.5605   5.9655   6.1548   6.6241   6.8311
     7.1665   7.3300   7.6309   7.7761   7.9294   8.0299   8.3092   8.3464
     8.3489   8.5159   8.5721   8.7109   8.7376   8.7713   8.8006   8.8294
     8.9172   8.9500   9.2045   9.2834   9.3595   9.3718   9.5655   9.7016
     9.8768  10.0086  10.1413  10.1936  10.2986  10.3678  10.5249  10.6247
    10.6787  10.8625  10.8963  11.0577  11.1590  11.2499  11.4345  11.4633
    11.5989  11.6729  11.7612  11.8169  11.9618  11.9908  12.1919  12.2944
    12.4417  12.5122  12.6602  12.7186  12.8705  12.8968  12.9756  13.0482
    13.1534  13.2961  13.3198  13.4223  13.4560  13.5282  13.6362  13.6693
    13.7993  13.8156  13.8560  13.8730  14.0243  14.1319  14.1664  14.2252
    14.3645  14.4508  14.5312  14.5883  14.7752  14.8045  14.8308  14.8974
    14.9999  15.0818  15.1399  15.2134  15.2253  15.3059  15.3646  15.4570
    15.4912  15.6015  15.7706  15.8455  15.9079  15.9766  16.1110  16.1314
    16.2830  16.3378  16.4576  16.5777  16.6284  16.7107  16.7831  16.8699
    16.8896  16.9849  17.0383  17.1937  17.2583  17.2845  17.3631  17.4231
    17.4689  17.5573  17.5993  17.6221  17.6377  17.6505  17.7242  17.7480
    17.7614  17.7967  17.9162  17.9731  17.9960  18.0241  18.1843  18.2339
    18.2433  18.3840  18.4483  18.5347  18.5592  18.6280  18.7027  18.8241
    18.8810  19.0040  19.1064  19.1261  19.1773  19.2361  19.2704  19.3411
    19.3751  19.4709  19.5611  19.6456  19.7320  19.8980  19.9268  19.9956
    20.0161  20.1748  20.2361  20.3401  20.3857  20.4178  20.4531  20.4978
    20.5277  20.5614  20.5972  20.6220  20.7018  20.7170  20.7425  20.9213
    20.9528  21.0274  21.1019  21.1272  21.1997  21.2185

          k =-0.5000 0.2341 0.0000 ( 27132 PWs)   bands (ev):

   -74.3976 -72.7697 -72.7290 -72.6651 -72.6583 -72.5688 -72.4960 -72.4830
   -46.0432 -45.6824 -45.4857 -44.4731 -44.2903 -44.2771 -44.2680 -44.2449
   -44.1647 -44.1144 -44.1001 -43.9988 -43.9967 -43.9915 -43.9372 -43.8558
   -43.8389 -43.8258 -43.8007 -43.7823 -43.7742 -43.7666 -43.6457 -43.6359
   -20.9917 -20.8655 -20.5814 -20.5295 -20.2966 -20.2165 -20.1583 -20.0496
   -19.8357 -19.7704 -19.7421 -19.7125 -19.5563 -19.5393 -19.5207 -19.4319
   -19.3408 -19.2504 -19.1769  -8.6256  -8.5764  -8.0040  -7.8763  -7.8250
    -7.7870  -7.7395  -7.6516  -7.5752  -7.4733  -7.3989  -7.3574  -7.3252
    -7.1893  -7.0466  -6.9307  -6.8922  -6.5997  -6.4752  -6.4365  -6.3067
    -6.2469  -6.1048  -6.0615  -5.9924  -5.9227  -5.8599  -5.6910  -5.6110
    -5.5045  -5.4207  -5.2495  -5.1670  -5.1380  -5.0822  -5.0250  -4.9511
    -4.8966  -4.8370  -4.7727  -4.6858  -4.6300  -4.3702  -4.1898  -4.0664
    -4.0380  -3.9078  -3.7836  -3.7453  -3.6416  -3.5721  -3.4590  -3.3437
    -3.2563  -3.0610  -3.0265  -2.9588  -0.8271  -0.5987  -0.4880  -0.2785
    -0.1146  -0.0961   0.0267   0.0856   0.1279   0.2042   0.2684   0.3403
     0.4043   0.4531   0.5057   0.5288   0.5580   0.6095   0.6269   0.6767
     0.7046   0.7557   0.9794   1.0309   1.3783   1.4657   1.9159   2.0804
     2.1837   2.3358   2.3669   2.3921   2.4346   2.5868   2.7720   2.9390
     3.0232   3.2792   3.5456   3.6174   4.3480   4.6639   4.6699   5.0132
     5.1500   5.2937   5.5791   5.7801   6.0946   6.2651   6.4231   6.5763
     6.6801   6.8754   7.0267   7.1164   7.1816   7.2821   7.5443   7.6518
     7.7365   7.9006   8.2156   8.3449   8.5218   8.7060   8.8196   8.9933
     9.0821   9.2808   9.3423   9.5291   9.7357   9.9047   9.9322  10.0147
    10.3715  10.4372  10.5426  10.5890  10.6500  10.7777  10.9517  10.9742
    11.0581  11.0997  11.2363  11.3744  11.4870  11.5636  11.6876  11.8123
    11.8551  11.8904  12.0160  12.0580  12.3156  12.4195  12.5427  12.5914
    12.7068  12.8122  12.8849  12.9242  12.9923  13.0982  13.1508  13.1970
    13.2807  13.3571  13.5006  13.5793  13.5951  13.6669  13.7843  13.8442
    13.9253  13.9734  14.0776  14.1074  14.1761  14.2983  14.3666  14.4289
    14.4909  14.5575  14.5997  14.6700  14.6992  14.7927  14.8789  14.9097
    14.9425  15.0641  15.0976  15.2942  15.3193  15.4026  15.4743  15.5170
    15.5822  15.6655  15.7308  15.8062  15.8391  15.8821  15.9420  15.9745
    16.0127  16.0940  16.1573  16.1968  16.2229  16.2477  16.2752  16.3820
    16.3968  16.4609  16.5356  16.6454  16.6803  16.7725  16.8076  16.8490
    16.8729  16.9301  17.0169  17.1053  17.1822  17.1955  17.2941  17.3602
    17.4018  17.4421  17.5439  17.6040  17.6995  17.7402  17.8415  17.8855
    17.9302  17.9791  18.0511  18.0846  18.1680  18.2918  18.3438  18.4324
    18.5083  18.5843  18.6409  18.7370  18.9089  18.9403  19.0853  19.1990
    19.2943  19.3788  19.4424  19.5222  19.5887  19.6205  19.7118  19.7904
    19.8540  19.8960  19.9243  19.9431  20.0009  20.0196  20.1007  20.1283
    20.1858  20.2426  20.3545  20.3965  20.4964  20.6322  20.6957  20.7529
    20.8942  20.9174  21.0238  21.0972  21.1682  21.3148

          k =-0.5000-0.4682 0.0000 ( 27168 PWs)   bands (ev):

   -74.3976 -72.7697 -72.7290 -72.6651 -72.6583 -72.5688 -72.4960 -72.4830
   -46.0432 -45.6824 -45.4856 -44.4726 -44.2903 -44.2771 -44.2680 -44.2449
   -44.1654 -44.1121 -44.0975 -43.9999 -43.9987 -43.9946 -43.9372 -43.8560
   -43.8389 -43.8258 -43.8006 -43.7817 -43.7737 -43.7664 -43.6456 -43.6358
   -20.9473 -20.8259 -20.5627 -20.3625 -20.2926 -20.2676 -20.0788 -20.0507
   -19.9666 -19.9042 -19.7643 -19.6785 -19.6430 -19.6269 -19.5271 -19.4011
   -19.3244 -19.2426 -19.1744  -8.6063  -8.5553  -7.9661  -7.8104  -7.7034
    -7.6434  -7.4543  -7.4122  -7.2959  -7.2651  -7.2394  -7.0964  -7.0401
    -6.9782  -6.9407  -6.8415  -6.7713  -6.7045  -6.6538  -6.6156  -6.4950
    -6.4540  -6.3988  -6.3068  -6.1456  -6.0326  -5.8507  -5.7776  -5.6805
    -5.6068  -5.5527  -5.4812  -5.4238  -5.3352  -5.2858  -5.2006  -5.0974
    -5.0187  -4.9401  -4.9017  -4.7504  -4.6848  -4.3510  -4.1145  -3.9770
    -3.9552  -3.8874  -3.7541  -3.6716  -3.6568  -3.5281  -3.4631  -3.3778
    -3.2455  -3.0245  -2.8902  -2.8801  -0.8645  -0.6527  -0.5329  -0.2621
    -0.1936  -0.1283   0.0087   0.0608   0.0939   0.1990   0.3201   0.4412
     0.4608   0.5517   0.5628   0.6190   0.6442   0.7288   0.8009   0.8471
     0.8754   0.9161   1.0036   1.0301   1.3246   1.5132   1.5393   1.9002
     1.9475   1.9787   2.1988   2.4075   2.4351   2.8466   2.8575   2.8864
     3.1787   3.5093   3.5334   3.5826   4.5490   5.1267   5.1337   5.5451
     5.5461   5.6838   5.6938   5.7681   5.8627   5.9606   6.0126   6.0840
     6.2861   6.4410   6.5327   6.6177   6.8689   7.0321   7.1925   7.3055
     7.5765   7.7659   7.9841   8.1395   8.2691   8.4884   8.7221   8.9258
     9.0772   9.3461   9.3879   9.5115   9.5818   9.6850   9.8634  10.0560
    10.0965  10.3645  10.7542  10.9254  11.0026  11.1703  11.2431  11.3465
    11.3922  11.4609  11.5363  11.9015  12.1319  12.2891  12.4890  12.5529
    12.6271  12.6991  12.7293  12.7760  12.9180  12.9858  13.0202  13.1406
    13.2495  13.2640  13.2984  13.4303  13.5829  13.6065  13.6363  13.6487
    13.6925  13.7004  13.7721  13.8087  13.8161  13.8564  13.8904  13.9880
    14.0280  14.0498  14.0908  14.1151  14.1339  14.3169  14.3678  14.4514
    14.5200  14.5286  14.6105  14.6520  14.6790  14.7466  14.7555  14.7845
    14.8012  14.8312  14.8483  14.8670  14.9806  15.0714  15.0984  15.1224
    15.1998  15.2383  15.2725  15.3167  15.3572  15.4234  15.4406  15.4685
    15.5156  15.5718  15.6530  15.6763  15.7514  15.7889  15.8151  15.8936
    15.9719  16.0837  16.1244  16.1438  16.2485  16.3444  16.3673  16.5340
    16.5639  16.6022  16.6598  16.7784  16.8287  16.9572  17.0051  17.0938
    17.1350  17.1790  17.2555  17.2714  17.3371  17.3759  17.4304  17.5194
    17.5859  17.7572  17.8752  17.9164  17.9573  18.0096  18.0229  18.0673
    18.1450  18.2101  18.2953  18.4944  18.5984  18.6773  18.7630  18.8897
    18.9100  18.9641  18.9930  19.0937  19.1635  19.2681  19.3149  19.4046
    19.5874  19.9161  19.9924  20.0230  20.0725  20.1993  20.2393  20.3433
    20.3934  20.4900  20.7330  20.8549  20.9013  20.9916  21.2145  21.2641
    21.3399  21.4428  21.5233  21.5471  21.6402  21.7119

          k =-0.2500 0.2341 0.0000 ( 27132 PWs)   bands (ev):

   -74.3976 -72.7697 -72.7292 -72.6683 -72.6552 -72.5686 -72.4979 -72.4810
   -46.0446 -45.6825 -45.4857 -44.4731 -44.2907 -44.2794 -44.2657 -44.2444
   -44.1651 -44.1171 -44.0981 -44.0032 -43.9980 -43.9872 -43.9360 -43.8560
   -43.8538 -43.8460 -43.8423 -43.8162 -43.7156 -43.7106 -43.7061 -43.5739
   -21.2066 -20.7527 -20.6466 -20.5508 -20.4141 -20.1689 -20.0296 -19.9439
   -19.8868 -19.8425 -19.7256 -19.6705 -19.5263 -19.5089 -19.4942 -19.3938
   -19.3337 -19.2650 -19.1533  -8.8052  -8.5341  -8.1824  -8.1507  -7.9974
    -7.9555  -7.7072  -7.6096  -7.5892  -7.4864  -7.3777  -7.3322  -7.2037
    -7.1131  -6.9740  -6.8992  -6.8175  -6.7262  -6.6503  -6.4502  -6.4059
    -6.2990  -6.2426  -6.0647  -5.9305  -5.7928  -5.7123  -5.5917  -5.4514
    -5.3817  -5.3328  -5.2973  -5.2538  -5.1771  -5.0313  -4.9896  -4.9480
    -4.8285  -4.7600  -4.5441  -4.4229  -4.3726  -4.2241  -4.1597  -4.0895
    -4.0009  -3.9622  -3.8990  -3.7937  -3.6721  -3.5459  -3.5087  -3.4652
    -3.1976  -3.1658  -3.0388  -2.7921  -0.8508  -0.6114  -0.5710  -0.2830
    -0.2509  -0.1305  -0.0578   0.0041   0.0320   0.1128   0.2085   0.2443
     0.3322   0.3979   0.4959   0.5432   0.5806   0.6312   0.6709   0.7556
     0.8096   0.8872   1.0413   1.0865   1.3327   1.3984   1.7455   1.9695
     2.0631   2.3791   2.5403   2.5920   2.6940   2.8141   2.9088   2.9833
     3.0688   3.2719   3.5308   3.6273   3.8827   3.9255   4.3398   4.7991
     5.3265   5.7023   5.8562   5.8960   6.1724   6.2792   6.4298   6.5798
     6.7609   6.9035   7.0300   7.3195   7.4555   7.6742   7.8844   8.0139
     8.1338   8.3265   8.3963   8.5227   8.6727   8.8088   8.9984   9.1484
     9.2714   9.3305   9.4806   9.5716   9.6662   9.8224   9.8682  10.0296
    10.1385  10.2463  10.3389  10.4587  10.5358  10.6163  10.7211  10.8364
    10.9374  11.0212  11.1364  11.2409  11.2783  11.4316  11.4905  11.6020
    11.6736  11.7563  11.9013  11.9941  12.0905  12.1508  12.1799  12.2762
    12.3538  12.4245  12.5880  12.6784  12.7267  12.8378  12.9173  12.9788
    13.0172  13.0906  13.1688  13.1975  13.2270  13.3261  13.3620  13.4571
    13.5388  13.6421  13.7304  13.8029  13.8881  13.9062  14.0267  14.0796
    14.1310  14.2335  14.3745  14.4936  14.5569  14.6093  14.6706  14.7821
    14.8530  14.8844  15.0013  15.0818  15.1060  15.2734  15.3741  15.4291
    15.5342  15.5977  15.6386  15.7265  15.7532  15.8027  15.8933  15.9992
    16.0102  16.1265  16.2280  16.2721  16.3157  16.4254  16.4921  16.5197
    16.6229  16.7218  16.7638  16.8425  16.8850  16.9645  17.0198  17.1313
    17.2215  17.2444  17.3134  17.4261  17.4571  17.5252  17.5690  17.6193
    17.7214  17.7499  17.7699  17.8561  17.9474  18.0543  18.1108  18.1707
    18.2401  18.3041  18.3584  18.4004  18.4442  18.6209  18.7293  18.7847
    18.8299  18.9026  18.9391  19.0134  19.0955  19.1355  19.2487  19.2980
    19.4018  19.4432  19.5156  19.5882  19.6361  19.6648  19.7426  19.8425
    19.8747  20.0021  20.1060  20.1836  20.2427  20.3377  20.3848  20.5130
    20.5901  20.7084  20.7807  20.8280  20.9039  20.9538  21.0426  21.1302
    21.1970  21.2337  21.3362  21.3949  21.4164  21.5224

     the spin up/dw Fermi energies are    -1.3898   -2.6044 ev

!    total energy              =   -2027.10186022 Ry
     Harris-Foulkes estimate   =   -2027.10186054 Ry
     estimated scf accuracy    <       0.00000040 Ry

     The total energy is the sum of the following terms:

     one-electron contribution =  -24254.12260734 Ry
     hartree contribution      =   12146.53305191 Ry
     xc contribution           =    -322.59242366 Ry
     ewald contribution        =   10403.07971992 Ry
     smearing contrib. (-TS)   =       0.00039895 Ry

     total magnetization       =    15.00 Bohr mag/cell
     absolute magnetization    =    17.45 Bohr mag/cell

     convergence has been achieved in  10 iterations

     Forces acting on atoms (Ry/au):


     negative rho (up, down):  0.465E-02 0.169E-02
     atom    1 type  1   force =    -0.00267882   -0.01236854   -0.00022657
     atom    2 type  1   force =    -0.00031216    0.00792372   -0.00029378
     atom    3 type  2   force =     0.04204882   -0.00446115    0.00009081
     atom    4 type  2   force =    -0.00485923    0.00798556    0.00002249
     atom    5 type  1   force =     0.00137402    0.00914469    0.00002571
     atom    6 type  1   force =    -0.00177607   -0.00658426   -0.00000169
     atom    7 type  1   force =     0.00220046   -0.00142587    0.00069354
     atom    8 type  1   force =    -0.00301309   -0.00111514    0.00004645
     atom    9 type  2   force =     0.00296891    0.00076024   -0.00028142
     atom   10 type  2   force =    -0.00323396    0.00000703    0.00057153
     atom   11 type  1   force =    -0.02392935   -0.03220596    0.00024177
     atom   12 type  1   force =    -0.02397662    0.03168803    0.00026914
     atom   13 type  1   force =    -0.04597206    0.00005608   -0.00059751
     atom   14 type  1   force =    -0.00419487   -0.01250254   -0.00019444
     atom   15 type  1   force =     0.00058152    0.00796533    0.00007470
     atom   16 type  2   force =    -0.04417780   -0.00369743    0.00008253
     atom   17 type  2   force =     0.00540667    0.00796721    0.00007786
     atom   18 type  1   force =     0.00460055    0.00914718   -0.00000517
     atom   19 type  1   force =     0.00144775   -0.00716110   -0.00000477
     atom   20 type  1   force =     0.00047542   -0.00158816   -0.00033059
     atom   21 type  1   force =     0.00145299   -0.00006763    0.00013801
     atom   22 type  2   force =     0.00252088    0.00013717   -0.00019990
     atom   23 type  2   force =    -0.00550483    0.00052792    0.00081903
     atom   24 type  1   force =     0.02622638   -0.01901967   -0.00056967
     atom   25 type  1   force =     0.02653571    0.01891729   -0.00059989
     atom   26 type  1   force =     0.04648290   -0.00009045   -0.00043785
     atom   27 type  3   force =     0.00001025    0.00026580    0.00005533
     atom   28 type  3   force =    -0.00000963    0.00005598    0.00011299
     atom   29 type  3   force =    -0.00001300   -0.00011452   -0.00039361
     atom   30 type  3   force =     0.00001284   -0.00005139   -0.00042725
     atom   31 type  1   force =     0.00015648   -0.00000902    0.00069855
     atom   32 type  3   force =    -0.00085107   -0.00008638    0.00054364

     Total force =     0.002298     Total SCF correction =     0.000866
     SCF correction compared to forces is large: reduce conv_thr to get better values

     bfgs converged in   2 scf cycles and   1 bfgs steps
     (criteria: energy < 0.10E-03, force < 0.10E-02)

     End of BFGS Geometry Optimization

     Final energy   =   -2027.1018602236 Ry
Begin final coordinates

ATOMIC_POSITIONS (crystal)
O0       0.000000000   0.000000000   0.378024148    0   0   1
O0       0.000000000   0.500000000   0.400071696    0   0   1
Cr1      0.250000000   0.500000000   0.451411761    0   0   1
Cr1      0.000000000   0.000000000   0.448954262    0   0   1
O0       0.250000000   0.800000000   0.449930109    0   0   1
O0       0.250000000   0.200000000   0.450089459    0   0   1
O0       0.000000000   0.500000000   0.497412412    0   0   1
O0       0.000000000   0.000000000   0.523212944    0   0   1
Cr1      0.250000000   0.000000000   0.566333658    0   0   1
Cr1      0.000000000   0.500000000   0.564829385    0   0   1
O0       0.250000000   0.700000000   0.573622538    0   0   1
O0       0.250000000   0.300000000   0.573623168    0   0   1
O0       0.000000000   0.000000000   0.618020514    0   0   1
O0       0.500000000   0.000000000   0.378039537    0   0   1
O0       0.500000000   0.500000000   0.400320248    0   0   1
Cr1      0.750000000   0.500000000   0.451531826    0   0   1
Cr1      0.500000000   0.000000000   0.449018841    0   0   1
O0       0.750000000   0.800000000   0.449979636    0   0   1
O0       0.750000000   0.200000000   0.450149672    0   0   1
O0       0.500000000   0.500000000   0.499194783    0   0   1
O0       0.500000000   0.000000000   0.523228839    0   0   1
Cr1      0.750000000   0.000000000   0.583673682    0   0   1
Cr1      0.500000000   0.500000000   0.576106653    0   0   1
O0       0.750000000   0.700000000   0.574352257    0   0   1
O0       0.750000000   0.300000000   0.574291642    0   0   1
O0       0.500000000   0.000000000   0.617320301    0   0   1
H2      -0.000598790   0.638025968   0.380958691
H2       0.499659218   0.638078093   0.381181110
H2       0.156650131   0.031657537   0.364877886
H2       0.656723964   0.031388510   0.364939058
O0       0.514393166   0.499679042   0.645316751
H2       0.364544946   0.498083659   0.662742532
End final coordinates



     init_run     :     88.16s CPU    115.97s WALL (       1 calls)
     electrons    :  21167.64s CPU  27567.31s WALL (       2 calls)
     update_pot   :      6.30s CPU      7.41s WALL (       1 calls)
     forces       :    113.64s CPU    118.25s WALL (       2 calls)

     Called by init_run:
     wfcinit      :     71.20s CPU     97.59s WALL (       1 calls)
     potinit      :      2.93s CPU      3.78s WALL (       1 calls)

     Called by electrons:
     c_bands      :  16788.77s CPU  21829.62s WALL (      78 calls)
     sum_band     :   3133.19s CPU   4284.26s WALL (      78 calls)
     v_of_rho     :     82.96s CPU    131.18s WALL (      80 calls)
     newd         :   1143.18s CPU   1240.53s WALL (      80 calls)
     mix_rho      :     16.22s CPU     27.35s WALL (      78 calls)

     Called by c_bands:
     init_us_2    :     23.02s CPU     23.23s WALL (    3180 calls)
     cegterg      :  16688.49s CPU  21728.10s WALL (    1560 calls)

     Called by *egterg:
     h_psi        :   8527.42s CPU  12967.03s WALL (    4438 calls)
     s_psi        :    655.76s CPU    656.10s WALL (    4438 calls)
     g_psi        :     14.25s CPU     14.28s WALL (    2858 calls)
     cdiaghg      :   4110.25s CPU   4231.15s WALL (    4398 calls)

     Called by h_psi:
     add_vuspsi   :    659.84s CPU    662.68s WALL (    4438 calls)

     General routines
     calbec       :   1049.68s CPU   1152.54s WALL (    6038 calls)
     fft          :    167.36s CPU    307.69s WALL (    2498 calls)
     ffts         :      2.35s CPU      4.45s WALL (     316 calls)
     fftw         :   7614.24s CPU  13006.36s WALL ( 2743308 calls)
     interpolate  :     17.26s CPU     30.89s WALL (     316 calls)

     Parallel routines
     fft_scatter  :   5544.61s CPU  11040.54s WALL ( 2746122 calls)

     PWSCF        :     5h56m CPU        7h43m WALL


   This run was terminated on:  10:35:19  17Apr2014            

=------------------------------------------------------------------------------=
   JOB DONE.
=------------------------------------------------------------------------------=
---------------------------------------
Running PBS batch system epilogue script
Job id: 335007.audhumbla.fysik.dtu.dk
Username: zhonxu
Groupname: campgst
Jobname: CrO2/Eads-2-layers/OH-relax-surf
Sessionid: 14852
Resources limits: neednodes=2:ppn=8:xeon8,nodes=2:ppn=8:xeon8,walltime=48:00:00
Resources used: cput=123:27:24,mem=8658480kb,vmem=12112788kb,walltime=07:43:47
Queuename: verylong
Accounting:
This job has allocated the following 16 nodes:
d044 d044 d044 d044 d044 d044 d044 d044 d040 d040 d040 d040 d040 d040 d040 d040
Finished epilogue job 335007.audhumbla.fysik.dtu.dk for zhonxu
