
     Program PWSCF v.5.0.2 (svn rev. 9656) starts on  4May2014 at 20:48: 2 

     This program is part of the open-source Quantum ESPRESSO suite
     for quantum simulation of materials; please cite
         "P. Giannozzi et al., J. Phys.:Condens. Matter 21 395502 (2009);
          URL http://www.quantum-espresso.org", 
     in publications or presentations arising from this work. More details at
     http://www.quantum-espresso.org/quote.php

     Parallel version (MPI), running on    16 processors
     K-points division:     npool     =       4
     R & G space division:  proc/nbgrp/npool/nimage =       4

     Current dimensions of program PWSCF are:
     Max number of different atomic species (ntypx) = 10
     Max number of k-points (npk) =  40000
     Max angular momentum in pseudopotentials (lmaxx) =  3
     Reading input from pwscf.in
Warning: card &CELL ignored
Warning: card / ignored

     Subspace diagonalization in iterative solution of the eigenvalue problem:
     a serial algorithm will be used


     Parallelization info
     --------------------
     sticks:   dense  smooth     PW     G-vecs:    dense   smooth      PW
     Min        1244     397    112               291872    52833    7934
     Max        1245     398    113               291883    52857    7939
     Sum        4979    1589    451              1167509   211387   31747



     bravais-lattice index     =            0
     lattice parameter (alat)  =      10.7336  a.u.
     unit-cell volume          =    6184.1966 (a.u.)^3
     number of atoms/cell      =           32
     number of atomic types    =            3
     number of electrons       =       239.00 (up: 131.00, down: 108.00)
     number of Kohn-Sham states=          346
     kinetic-energy cutoff     =      40.0000  Ry
     charge density cutoff     =     500.0000  Ry
     convergence threshold     =      1.0E-06
     mixing beta               =       0.7000
     number of iterations used =            8  plain     mixing
     Exchange-correlation      = SLA  PW   PBE  PBE ( 1 4 3 4 0)
     EXX-fraction              =        0.00
     nstep                     =           50


     celldm(1)=  10.733644  celldm(2)=   0.000000  celldm(3)=   0.000000
     celldm(4)=   0.000000  celldm(5)=   0.000000  celldm(6)=   0.000000

     crystal axes: (cart. coord. in units of alat)
               a(1) = (   1.000000   0.000000   0.000000 )  
               a(2) = (   0.000000   1.085558   0.000000 )  
               a(3) = (   0.000000   0.000000   4.606685 )  

     reciprocal axes: (cart. coord. in units 2 pi/alat)
               b(1) = (  1.000000  0.000000  0.000000 )  
               b(2) = (  0.000000  0.921185  0.000000 )  
               b(3) = (  0.000000  0.000000  0.217076 )  


     PseudoPot. # 1 for O  read from file:
     /home/camp/zhonxu/pseudo/o_pbe_v1.01.uspp.F.UPF
     MD5 check sum: 2bcb18d16ea4b960afae9ec6d52f22d2
     Pseudo is Ultrasoft + core correction, Zval =  6.0
     Generated by new atomic code, or converted to UPF format
     Using radial grid of  737 points,  5 beta functions with: 
                l(1) =   0
                l(2) =   0
                l(3) =   1
                l(4) =   1
                l(5) =   2
     Q(r) pseudized with  8 coefficients,  rinner =    0.900   0.900   0.900
                                                       0.900   0.900

     PseudoPot. # 2 for Mn read from file:
     /home/camp/zhonxu/pseudo/mn_pbe_v1.uspp.F.UPF
     MD5 check sum: 5fd7c7b5c956fd19902447332617373a
     Pseudo is Ultrasoft + core correction, Zval = 15.0
     Generated by new atomic code, or converted to UPF format
     Using radial grid of  859 points,  6 beta functions with: 
                l(1) =   0
                l(2) =   0
                l(3) =   1
                l(4) =   1
                l(5) =   2
                l(6) =   2
     Q(r) pseudized with  6 coefficients,  rinner =    1.150   1.150   1.150
                                                       1.150   1.150

     PseudoPot. # 3 for H  read from file:
     /home/camp/zhonxu/pseudo/h_pbe_v1.uspp.F.UPF
     MD5 check sum: 3408e3ff4ec8b0a4e358431e7e038a48
     Pseudo is Ultrasoft, Zval =  1.0
     Generated by new atomic code, or converted to UPF format
     Using radial grid of  615 points,  2 beta functions with: 
                l(1) =   0
                l(2) =   0
     Q(r) pseudized with  8 coefficients,  rinner =    0.700

     atomic species   valence    mass     pseudopotential
        O0             6.00    15.99940     O ( 1.00)
        Mn1           15.00    54.93800     Mn( 1.00)
        H2             1.00     1.00794     H ( 1.00)

     Starting magnetic structure 
     atomic species   magnetization
        O0           0.000
        Mn1          0.600
        H2           0.000


     Simplified LDA+U calculation (l_max = 2) with parameters (eV):
     atomic species    L          U    alpha       J0     beta
        Mn1            2     7.0000   0.0000   0.0000   0.0000



     No symmetry found



   Cartesian axes

     site n.     atom                  positions (alat units)
         1           O0  tau(   1) = (   0.0000000   0.0000000   1.7414191  )
         2           O0  tau(   2) = (   0.0000000   0.5427791   1.8381134  )
         3           Mn1 tau(   3) = (   0.2500000   0.5427791   2.0740217  )
         4           Mn1 tau(   4) = (   0.0000000   0.0000000   2.0686319  )
         5           O0  tau(   5) = (   0.2500000   0.8684466   2.0678488  )
         6           O0  tau(   6) = (   0.2500000   0.2171117   2.0737453  )
         7           O0  tau(   7) = (   0.0000000   0.5427791   2.2873573  )
         8           O0  tau(   8) = (   0.0000000   0.0000000   2.4132120  )
         9           Mn1 tau(   9) = (   0.2500000   0.0000000   2.6399991  )
        10           Mn1 tau(  10) = (   0.0000000   0.5427791   2.6085815  )
        11           O0  tau(  11) = (   0.2500000   0.7598908   2.6551551  )
        12           O0  tau(  12) = (   0.2500000   0.3256675   2.6556157  )
        13           O0  tau(  13) = (   0.0000000   0.0000000   2.8417258  )
        14           O0  tau(  14) = (   0.5000000   0.0000000   1.7428932  )
        15           O0  tau(  15) = (   0.5000000   0.5427791   1.8386662  )
        16           Mn1 tau(  16) = (   0.7500000   0.5427791   2.0740678  )
        17           Mn1 tau(  17) = (   0.5000000   0.0000000   2.0707510  )
        18           O0  tau(  18) = (   0.7500000   0.8684466   2.0677106  )
        19           O0  tau(  19) = (   0.7500000   0.2171117   2.0738835  )
        20           O0  tau(  20) = (   0.5000000   0.5427791   2.2871270  )
        21           O0  tau(  21) = (   0.5000000   0.0000000   2.4132120  )
        22           Mn1 tau(  22) = (   0.7500000   0.0000000   2.6413811  )
        23           Mn1 tau(  23) = (   0.5000000   0.5427791   2.6662572  )
        24           O0  tau(  24) = (   0.7500000   0.7598908   2.6473698  )
        25           O0  tau(  25) = (   0.7500000   0.3256675   2.6477844  )
        26           O0  tau(  26) = (   0.5000000   0.0000000   2.8412191  )
        27           H2  tau(  27) = (   0.0000400   0.7014118   1.7620570  )
        28           H2  tau(  28) = (   0.5000900   0.7016832   1.7629323  )
        29           H2  tau(  29) = (   0.1613600   0.0398291   1.6869220  )
        30           H2  tau(  30) = (   0.6610200   0.0399703   1.6876591  )
        31           O0  tau(  31) = (   0.5153900   0.5432351   2.9826904  )
        32           H2  tau(  32) = (   0.3575300   0.5430397   3.0540479  )

     number of k points=    20  Methfessel-Paxton smearing, width (Ry)=  0.0100
                       cart. coord. in units 2pi/alat
        k(    1) = (   0.0000000   0.0000000   0.0000000), wk =   0.0625000
        k(    2) = (   0.0000000   0.2302962   0.0000000), wk =   0.1250000
        k(    3) = (   0.0000000  -0.4605925   0.0000000), wk =   0.0625000
        k(    4) = (   0.2500000   0.0000000   0.0000000), wk =   0.1250000
        k(    5) = (   0.2500000   0.2302962   0.0000000), wk =   0.1250000
        k(    6) = (   0.2500000  -0.4605925   0.0000000), wk =   0.1250000
        k(    7) = (  -0.5000000   0.0000000   0.0000000), wk =   0.0625000
        k(    8) = (  -0.5000000   0.2302962   0.0000000), wk =   0.1250000
        k(    9) = (  -0.5000000  -0.4605925   0.0000000), wk =   0.0625000
        k(   10) = (  -0.2500000   0.2302962   0.0000000), wk =   0.1250000
        k(   11) = (   0.0000000   0.0000000   0.0000000), wk =   0.0625000
        k(   12) = (   0.0000000   0.2302962   0.0000000), wk =   0.1250000
        k(   13) = (   0.0000000  -0.4605925   0.0000000), wk =   0.0625000
        k(   14) = (   0.2500000   0.0000000   0.0000000), wk =   0.1250000
        k(   15) = (   0.2500000   0.2302962   0.0000000), wk =   0.1250000
        k(   16) = (   0.2500000  -0.4605925   0.0000000), wk =   0.1250000
        k(   17) = (  -0.5000000   0.0000000   0.0000000), wk =   0.0625000
        k(   18) = (  -0.5000000   0.2302962   0.0000000), wk =   0.1250000
        k(   19) = (  -0.5000000  -0.4605925   0.0000000), wk =   0.0625000
        k(   20) = (  -0.2500000   0.2302962   0.0000000), wk =   0.1250000

     Dense  grid:  1167509 G-vectors     FFT dimensions: (  80,  90, 360)

     Smooth grid:   211387 G-vectors     FFT dimensions: (  45,  48, 200)

     Largest allocated arrays     est. size (Mb)     dimensions
        Kohn-Sham Wavefunctions        35.06 Mb     (   6641,  346)
        Atomic wavefunctions           18.75 Mb     (   6641,  185)
        NL pseudopotentials            40.63 Mb     (   6641,  401)
        Each V/rho on FFT grid         19.78 Mb     ( 648000,   2)
        Each G-vector array             2.23 Mb     ( 291883)
        G-vector shells                 0.97 Mb     ( 127585)
     Largest temporary arrays     est. size (Mb)     dimensions
        Auxiliary wavefunctions       140.25 Mb     (   6641, 1384)
        Each subspace H/S matrix       29.23 Mb     (1384,1384)
        Each <psi_i|beta_j> matrix      2.12 Mb     (    401,  346)
        Arrays for rho mixing          79.10 Mb     ( 648000,   8)

     Check: negative/imaginary core charge=   -0.000022    0.000000

     Initial potential from superposition of free atoms
     Check: negative starting charge=(component1):   -0.000716
     Check: negative starting charge=(component2):   -0.000389

     starting charge  230.99986, renormalised to  239.00000

     negative rho (up, down):  0.741E-03 0.403E-03
     Number of +U iterations with fixed ns =  0
     Starting occupations:
 --- enter write_ns ---
 LDA+U parameters:
U( 2)     =  7.00000000
alpha( 2) =  0.00000000
atom    3   Tr[ns(na)] (up, down, total) =   5.00000  0.00000  5.00000
   spin  1
    eigenvalues: 
  1.000  1.000  1.000  1.000  1.000
    eigenvectors:
  1.000  0.000  0.000  0.000  0.000
  0.000  1.000  0.000  0.000  0.000
  0.000  0.000  1.000  0.000  0.000
  0.000  0.000  0.000  1.000  0.000
  0.000  0.000  0.000  0.000  1.000
    occupations:
  1.000  0.000  0.000  0.000  0.000
  0.000  1.000  0.000  0.000  0.000
  0.000  0.000  1.000  0.000  0.000
  0.000  0.000  0.000  1.000  0.000
  0.000  0.000  0.000  0.000  1.000
   spin  2
    eigenvalues: 
  0.000  0.000  0.000  0.000  0.000
    eigenvectors:
  1.000  0.000  0.000  0.000  0.000
  0.000  1.000  0.000  0.000  0.000
  0.000  0.000  1.000  0.000  0.000
  0.000  0.000  0.000  1.000  0.000
  0.000  0.000  0.000  0.000  1.000
    occupations:
  0.000  0.000  0.000  0.000  0.000
  0.000  0.000  0.000  0.000  0.000
  0.000  0.000  0.000  0.000  0.000
  0.000  0.000  0.000  0.000  0.000
  0.000  0.000  0.000  0.000  0.000
atomic mag. moment =     5.000000
atom    4   Tr[ns(na)] (up, down, total) =   5.00000  0.00000  5.00000
   spin  1
    eigenvalues: 
  1.000  1.000  1.000  1.000  1.000
    eigenvectors:
  1.000  0.000  0.000  0.000  0.000
  0.000  1.000  0.000  0.000  0.000
  0.000  0.000  1.000  0.000  0.000
  0.000  0.000  0.000  1.000  0.000
  0.000  0.000  0.000  0.000  1.000
    occupations:
  1.000  0.000  0.000  0.000  0.000
  0.000  1.000  0.000  0.000  0.000
  0.000  0.000  1.000  0.000  0.000
  0.000  0.000  0.000  1.000  0.000
  0.000  0.000  0.000  0.000  1.000
   spin  2
    eigenvalues: 
  0.000  0.000  0.000  0.000  0.000
    eigenvectors:
  1.000  0.000  0.000  0.000  0.000
  0.000  1.000  0.000  0.000  0.000
  0.000  0.000  1.000  0.000  0.000
  0.000  0.000  0.000  1.000  0.000
  0.000  0.000  0.000  0.000  1.000
    occupations:
  0.000  0.000  0.000  0.000  0.000
  0.000  0.000  0.000  0.000  0.000
  0.000  0.000  0.000  0.000  0.000
  0.000  0.000  0.000  0.000  0.000
  0.000  0.000  0.000  0.000  0.000
atomic mag. moment =     5.000000
atom    9   Tr[ns(na)] (up, down, total) =   5.00000  0.00000  5.00000
   spin  1
    eigenvalues: 
  1.000  1.000  1.000  1.000  1.000
    eigenvectors:
  1.000  0.000  0.000  0.000  0.000
  0.000  1.000  0.000  0.000  0.000
  0.000  0.000  1.000  0.000  0.000
  0.000  0.000  0.000  1.000  0.000
  0.000  0.000  0.000  0.000  1.000
    occupations:
  1.000  0.000  0.000  0.000  0.000
  0.000  1.000  0.000  0.000  0.000
  0.000  0.000  1.000  0.000  0.000
  0.000  0.000  0.000  1.000  0.000
  0.000  0.000  0.000  0.000  1.000
   spin  2
    eigenvalues: 
  0.000  0.000  0.000  0.000  0.000
    eigenvectors:
  1.000  0.000  0.000  0.000  0.000
  0.000  1.000  0.000  0.000  0.000
  0.000  0.000  1.000  0.000  0.000
  0.000  0.000  0.000  1.000  0.000
  0.000  0.000  0.000  0.000  1.000
    occupations:
  0.000  0.000  0.000  0.000  0.000
  0.000  0.000  0.000  0.000  0.000
  0.000  0.000  0.000  0.000  0.000
  0.000  0.000  0.000  0.000  0.000
  0.000  0.000  0.000  0.000  0.000
atomic mag. moment =     5.000000
atom   10   Tr[ns(na)] (up, down, total) =   5.00000  0.00000  5.00000
   spin  1
    eigenvalues: 
  1.000  1.000  1.000  1.000  1.000
    eigenvectors:
  1.000  0.000  0.000  0.000  0.000
  0.000  1.000  0.000  0.000  0.000
  0.000  0.000  1.000  0.000  0.000
  0.000  0.000  0.000  1.000  0.000
  0.000  0.000  0.000  0.000  1.000
    occupations:
  1.000  0.000  0.000  0.000  0.000
  0.000  1.000  0.000  0.000  0.000
  0.000  0.000  1.000  0.000  0.000
  0.000  0.000  0.000  1.000  0.000
  0.000  0.000  0.000  0.000  1.000
   spin  2
    eigenvalues: 
  0.000  0.000  0.000  0.000  0.000
    eigenvectors:
  1.000  0.000  0.000  0.000  0.000
  0.000  1.000  0.000  0.000  0.000
  0.000  0.000  1.000  0.000  0.000
  0.000  0.000  0.000  1.000  0.000
  0.000  0.000  0.000  0.000  1.000
    occupations:
  0.000  0.000  0.000  0.000  0.000
  0.000  0.000  0.000  0.000  0.000
  0.000  0.000  0.000  0.000  0.000
  0.000  0.000  0.000  0.000  0.000
  0.000  0.000  0.000  0.000  0.000
atomic mag. moment =     5.000000
atom   16   Tr[ns(na)] (up, down, total) =   5.00000  0.00000  5.00000
   spin  1
    eigenvalues: 
  1.000  1.000  1.000  1.000  1.000
    eigenvectors:
  1.000  0.000  0.000  0.000  0.000
  0.000  1.000  0.000  0.000  0.000
  0.000  0.000  1.000  0.000  0.000
  0.000  0.000  0.000  1.000  0.000
  0.000  0.000  0.000  0.000  1.000
    occupations:
  1.000  0.000  0.000  0.000  0.000
  0.000  1.000  0.000  0.000  0.000
  0.000  0.000  1.000  0.000  0.000
  0.000  0.000  0.000  1.000  0.000
  0.000  0.000  0.000  0.000  1.000
   spin  2
    eigenvalues: 
  0.000  0.000  0.000  0.000  0.000
    eigenvectors:
  1.000  0.000  0.000  0.000  0.000
  0.000  1.000  0.000  0.000  0.000
  0.000  0.000  1.000  0.000  0.000
  0.000  0.000  0.000  1.000  0.000
  0.000  0.000  0.000  0.000  1.000
    occupations:
  0.000  0.000  0.000  0.000  0.000
  0.000  0.000  0.000  0.000  0.000
  0.000  0.000  0.000  0.000  0.000
  0.000  0.000  0.000  0.000  0.000
  0.000  0.000  0.000  0.000  0.000
atomic mag. moment =     5.000000
atom   17   Tr[ns(na)] (up, down, total) =   5.00000  0.00000  5.00000
   spin  1
    eigenvalues: 
  1.000  1.000  1.000  1.000  1.000
    eigenvectors:
  1.000  0.000  0.000  0.000  0.000
  0.000  1.000  0.000  0.000  0.000
  0.000  0.000  1.000  0.000  0.000
  0.000  0.000  0.000  1.000  0.000
  0.000  0.000  0.000  0.000  1.000
    occupations:
  1.000  0.000  0.000  0.000  0.000
  0.000  1.000  0.000  0.000  0.000
  0.000  0.000  1.000  0.000  0.000
  0.000  0.000  0.000  1.000  0.000
  0.000  0.000  0.000  0.000  1.000
   spin  2
    eigenvalues: 
  0.000  0.000  0.000  0.000  0.000
    eigenvectors:
  1.000  0.000  0.000  0.000  0.000
  0.000  1.000  0.000  0.000  0.000
  0.000  0.000  1.000  0.000  0.000
  0.000  0.000  0.000  1.000  0.000
  0.000  0.000  0.000  0.000  1.000
    occupations:
  0.000  0.000  0.000  0.000  0.000
  0.000  0.000  0.000  0.000  0.000
  0.000  0.000  0.000  0.000  0.000
  0.000  0.000  0.000  0.000  0.000
  0.000  0.000  0.000  0.000  0.000
atomic mag. moment =     5.000000
atom   22   Tr[ns(na)] (up, down, total) =   5.00000  0.00000  5.00000
   spin  1
    eigenvalues: 
  1.000  1.000  1.000  1.000  1.000
    eigenvectors:
  1.000  0.000  0.000  0.000  0.000
  0.000  1.000  0.000  0.000  0.000
  0.000  0.000  1.000  0.000  0.000
  0.000  0.000  0.000  1.000  0.000
  0.000  0.000  0.000  0.000  1.000
    occupations:
  1.000  0.000  0.000  0.000  0.000
  0.000  1.000  0.000  0.000  0.000
  0.000  0.000  1.000  0.000  0.000
  0.000  0.000  0.000  1.000  0.000
  0.000  0.000  0.000  0.000  1.000
   spin  2
    eigenvalues: 
  0.000  0.000  0.000  0.000  0.000
    eigenvectors:
  1.000  0.000  0.000  0.000  0.000
  0.000  1.000  0.000  0.000  0.000
  0.000  0.000  1.000  0.000  0.000
  0.000  0.000  0.000  1.000  0.000
  0.000  0.000  0.000  0.000  1.000
    occupations:
  0.000  0.000  0.000  0.000  0.000
  0.000  0.000  0.000  0.000  0.000
  0.000  0.000  0.000  0.000  0.000
  0.000  0.000  0.000  0.000  0.000
  0.000  0.000  0.000  0.000  0.000
atomic mag. moment =     5.000000
atom   23   Tr[ns(na)] (up, down, total) =   5.00000  0.00000  5.00000
   spin  1
    eigenvalues: 
  1.000  1.000  1.000  1.000  1.000
    eigenvectors:
  1.000  0.000  0.000  0.000  0.000
  0.000  1.000  0.000  0.000  0.000
  0.000  0.000  1.000  0.000  0.000
  0.000  0.000  0.000  1.000  0.000
  0.000  0.000  0.000  0.000  1.000
    occupations:
  1.000  0.000  0.000  0.000  0.000
  0.000  1.000  0.000  0.000  0.000
  0.000  0.000  1.000  0.000  0.000
  0.000  0.000  0.000  1.000  0.000
  0.000  0.000  0.000  0.000  1.000
   spin  2
    eigenvalues: 
  0.000  0.000  0.000  0.000  0.000
    eigenvectors:
  1.000  0.000  0.000  0.000  0.000
  0.000  1.000  0.000  0.000  0.000
  0.000  0.000  1.000  0.000  0.000
  0.000  0.000  0.000  1.000  0.000
  0.000  0.000  0.000  0.000  1.000
    occupations:
  0.000  0.000  0.000  0.000  0.000
  0.000  0.000  0.000  0.000  0.000
  0.000  0.000  0.000  0.000  0.000
  0.000  0.000  0.000  0.000  0.000
  0.000  0.000  0.000  0.000  0.000
atomic mag. moment =     5.000000
N of occupied +U levels =  40.0000000
 --- exit write_ns ---
 Atomic wfc used for LDA+U Projector are NOT orthogonalized
     Starting wfc are  185 randomized atomic wfcs

     total cpu time spent up to now is      148.7 secs

     per-process dynamical memory:   468.4 Mb

     Self-consistent Calculation

     iteration #  1     ecut=    40.00 Ry     beta=0.70
     Davidson diagonalization with overlap
     ethr =  1.00E-02,  avg # of iterations =  5.5
 --- enter write_ns ---
 LDA+U parameters:
U( 2)     =  7.00000000
alpha( 2) =  0.00000000
atom    3   Tr[ns(na)] (up, down, total) =   4.50167  0.45305  4.95472
   spin  1
    eigenvalues: 
  0.750  0.795  0.981  0.987  0.989
    eigenvectors:
  0.235  0.000  0.137  0.627  0.000
  0.001  0.995  0.000  0.000  0.004
  0.000  0.000  0.825  0.174  0.001
  0.764  0.001  0.036  0.199  0.000
  0.000  0.004  0.002  0.000  0.994
    occupations:
  0.931  0.002  0.000 -0.100 -0.000
  0.002  0.796  0.000  0.000 -0.012
  0.000  0.000  0.982 -0.004 -0.000
 -0.100  0.000 -0.004  0.805 -0.001
 -0.000 -0.012 -0.000 -0.001  0.988
   spin  2
    eigenvalues: 
  0.044  0.047  0.048  0.151  0.163
    eigenvectors:
  0.519  0.241  0.052  0.001  0.187
  0.000  0.000  0.000  0.994  0.006
  0.357  0.456  0.187  0.000  0.000
  0.120  0.056  0.012  0.005  0.807
  0.004  0.246  0.749  0.001  0.000
    occupations:
  0.067 -0.000 -0.002  0.046  0.000
 -0.000  0.151  0.000 -0.001  0.002
 -0.002  0.000  0.046  0.001 -0.001
  0.046 -0.001  0.001  0.141 -0.000
  0.000  0.002 -0.001 -0.000  0.048
atomic mag. moment =     4.048624
atom    4   Tr[ns(na)] (up, down, total) =   4.42640  0.46148  4.88789
   spin  1
    eigenvalues: 
  0.702  0.803  0.964  0.970  0.988
    eigenvectors:
  0.000  0.991  0.005  0.001  0.003
  0.000  0.004  0.957  0.023  0.016
  0.000  0.000  0.022  0.975  0.003
  0.000  0.004  0.016  0.001  0.978
  1.000  0.000  0.000  0.000  0.000
    occupations:
  0.804  0.010  0.004  0.012 -0.000
  0.010  0.964  0.001 -0.004  0.002
  0.004  0.001  0.970  0.001  0.000
  0.012 -0.004  0.001  0.987 -0.000
 -0.000  0.002  0.000 -0.000  0.702
   spin  2
    eigenvalues: 
  0.044  0.048  0.053  0.154  0.162
    eigenvectors:
  0.009  0.000  0.000  0.000  0.990
  0.016  0.739  0.244  0.000  0.001
  0.006  0.237  0.756  0.000  0.000
  0.969  0.023  0.000  0.000  0.008
  0.000  0.000  0.000  1.000  0.000
    occupations:
  0.161  0.003  0.002 -0.011  0.000
  0.003  0.049 -0.002  0.000 -0.001
  0.002 -0.002  0.052  0.000  0.000
 -0.011  0.000  0.000  0.045  0.000
  0.000 -0.001  0.000  0.000  0.154
atomic mag. moment =     3.964922
atom    9   Tr[ns(na)] (up, down, total) =   4.57858  0.50861  5.08719
   spin  1
    eigenvalues: 
  0.787  0.796  0.994  0.997  1.005
    eigenvectors:
  0.104  0.045  0.851  0.000  0.000
  0.293  0.707  0.000  0.000  0.000
  0.000  0.000  0.000  0.032  0.967
  0.603  0.248  0.149  0.000  0.000
  0.000  0.000  0.000  0.967  0.032
    occupations:
  0.963  0.001 -0.000 -0.073  0.000
  0.001  0.793  0.000  0.004  0.000
 -0.000  0.000  1.004 -0.000  0.001
 -0.073  0.004 -0.000  0.820  0.000
  0.000  0.000  0.001  0.000  0.998
   spin  2
    eigenvalues: 
  0.051  0.057  0.059  0.170  0.171
    eigenvectors:
  0.000  0.857  0.000  0.138  0.005
  0.000  0.000  0.000  0.038  0.962
  1.000  0.000  0.000  0.000  0.000
  0.000  0.143  0.000  0.824  0.033
  0.000  0.000  1.000  0.000  0.000
    occupations:
  0.073  0.000  0.000  0.040 -0.000
  0.000  0.171  0.000 -0.000 -0.000
  0.000  0.000  0.051  0.000 -0.000
  0.040 -0.000  0.000  0.154  0.000
 -0.000 -0.000 -0.000  0.000  0.059
atomic mag. moment =     4.069971
atom   10   Tr[ns(na)] (up, down, total) =   4.91880  0.39294  5.31173
   spin  1
    eigenvalues: 
  0.928  0.986  0.998  1.001  1.005
    eigenvectors:
  0.000  0.829  0.169  0.000  0.001
  0.000  0.000  0.003  0.996  0.000
  0.000  0.001  0.001  0.000  0.998
  0.000  0.170  0.826  0.004  0.001
  1.000  0.000  0.000  0.000  0.000
    occupations:
  0.988 -0.000  0.001  0.005  0.000
 -0.000  1.001  0.000  0.000 -0.000
  0.001  0.000  1.005  0.000  0.002
  0.005  0.000  0.000  0.996 -0.000
  0.000 -0.000  0.002 -0.000  0.928
   spin  2
    eigenvalues: 
  0.042  0.044  0.049  0.109  0.149
    eigenvectors:
  0.019  0.000  0.000  0.981  0.000
  0.001  0.000  0.999  0.000  0.000
  0.000  1.000  0.000  0.000  0.000
  0.980  0.000  0.001  0.019  0.000
  0.000  0.000  0.000  0.000  1.000
    occupations:
  0.108  0.000 -0.000 -0.009 -0.000
  0.000  0.049 -0.000 -0.000  0.000
 -0.000 -0.000  0.044 -0.000 -0.002
 -0.009 -0.000 -0.000  0.044  0.000
 -0.000  0.000 -0.002  0.000  0.149
atomic mag. moment =     4.525859
atom   16   Tr[ns(na)] (up, down, total) =   4.50038  0.45279  4.95317
   spin  1
    eigenvalues: 
  0.750  0.794  0.981  0.987  0.989
    eigenvectors:
  0.235  0.000  0.138  0.623  0.003
  0.001  0.995  0.000  0.000  0.004
  0.000  0.000  0.820  0.168  0.012
  0.764  0.001  0.036  0.198  0.001
  0.000  0.004  0.005  0.011  0.980
    occupations:
  0.930 -0.002  0.000 -0.100  0.000
 -0.002  0.795 -0.000 -0.000 -0.012
  0.000 -0.000  0.982 -0.004 -0.001
 -0.100 -0.000 -0.004  0.805  0.000
  0.000 -0.012 -0.001  0.000  0.988
   spin  2
    eigenvalues: 
  0.044  0.047  0.048  0.150  0.163
    eigenvectors:
  0.523  0.244  0.046  0.001  0.187
  0.000  0.000  0.000  0.994  0.005
  0.353  0.478  0.169  0.000  0.000
  0.120  0.057  0.011  0.004  0.808
  0.004  0.222  0.774  0.001  0.000
    occupations:
  0.067  0.000 -0.002  0.046 -0.000
  0.000  0.150 -0.000  0.001  0.002
 -0.002 -0.000  0.046  0.001  0.000
  0.046  0.001  0.001  0.141  0.000
 -0.000  0.002  0.000  0.000  0.048
atomic mag. moment =     4.047594
atom   17   Tr[ns(na)] (up, down, total) =   4.42403  0.46154  4.88557
   spin  1
    eigenvalues: 
  0.701  0.800  0.964  0.971  0.987
    eigenvectors:
  0.000  0.992  0.004  0.001  0.003
  0.000  0.004  0.947  0.034  0.015
  0.000  0.000  0.032  0.964  0.003
  0.000  0.004  0.016  0.001  0.979
  1.000  0.000  0.000  0.000  0.000
    occupations:
  0.801  0.010  0.004  0.011  0.000
  0.010  0.964  0.001 -0.003  0.002
  0.004  0.001  0.971  0.001  0.000
  0.011 -0.003  0.001  0.986 -0.000
  0.000  0.002  0.000 -0.000  0.701
   spin  2
    eigenvalues: 
  0.044  0.048  0.053  0.154  0.163
    eigenvectors:
  0.009  0.000  0.000  0.000  0.991
  0.015  0.728  0.256  0.000  0.001
  0.006  0.250  0.744  0.000  0.000
  0.970  0.022  0.000  0.000  0.008
  0.000  0.000  0.000  1.000  0.000
    occupations:
  0.162  0.003  0.002 -0.011  0.000
  0.003  0.049 -0.002  0.000 -0.001
  0.002 -0.002  0.052  0.000  0.000
 -0.011  0.000  0.000  0.045  0.000
  0.000 -0.001  0.000  0.000  0.153
atomic mag. moment =     3.962491
atom   22   Tr[ns(na)] (up, down, total) =   4.57024  0.51053  5.08077
   spin  1
    eigenvalues: 
  0.782  0.793  0.994  0.997  1.005
    eigenvectors:
  0.147  0.001  0.852  0.000  0.000
  0.011  0.989  0.000  0.000  0.000
  0.000  0.000  0.000  0.039  0.961
  0.842  0.010  0.148  0.000  0.000
  0.000  0.000  0.000  0.961  0.039
    occupations:
  0.962  0.002 -0.000 -0.075  0.000
  0.002  0.793  0.000  0.000  0.000
 -0.000  0.000  1.004 -0.000 -0.001
 -0.075  0.000 -0.000  0.814 -0.000
  0.000  0.000 -0.001 -0.000  0.997
   spin  2
    eigenvalues: 
  0.051  0.057  0.060  0.171  0.172
    eigenvectors:
  0.000  0.857  0.000  0.128  0.015
  0.000  0.000  0.000  0.107  0.893
  1.000  0.000  0.000  0.000  0.000
  0.000  0.143  0.000  0.766  0.092
  0.000  0.000  1.000  0.000  0.000
    occupations:
  0.073 -0.000  0.000  0.040  0.000
 -0.000  0.171 -0.000  0.000 -0.000
  0.000 -0.000  0.051  0.000  0.000
  0.040  0.000  0.000  0.155 -0.000
  0.000 -0.000  0.000 -0.000  0.060
atomic mag. moment =     4.059711
atom   23   Tr[ns(na)] (up, down, total) =   4.67199  0.44575  5.11774
   spin  1
    eigenvalues: 
  0.809  0.859  0.996  1.003  1.005
    eigenvectors:
  0.997  0.000  0.003  0.001  0.000
  0.000  0.000  0.008  0.991  0.000
  0.000  0.000  0.000  0.000  1.000
  0.003  0.000  0.989  0.008  0.000
  0.000  1.000  0.000  0.000  0.000
    occupations:
  0.809 -0.004  0.001  0.010 -0.000
 -0.004  1.003  0.000 -0.000 -0.000
  0.001  0.000  1.005  0.000 -0.002
  0.010 -0.000  0.000  0.996 -0.000
 -0.000 -0.000 -0.002 -0.000  0.859
   spin  2
    eigenvalues: 
  0.043  0.048  0.050  0.152  0.153
    eigenvectors:
  0.010  0.000  0.000  0.990  0.000
  0.000  1.000  0.000  0.000  0.000
  0.000  0.000  1.000  0.000  0.000
  0.990  0.000  0.000  0.010  0.000
  0.000  0.000  0.000  0.000  1.000
    occupations:
  0.151 -0.002 -0.000 -0.011  0.000
 -0.002  0.048 -0.000  0.000  0.000
 -0.000 -0.000  0.050  0.000  0.001
 -0.011  0.000  0.000  0.044 -0.000
  0.000  0.000  0.001 -0.000  0.153
atomic mag. moment =     4.226236
N of occupied +U levels =  40.2787650
 --- exit write_ns ---

     negative rho (up, down):  0.936E-03 0.106E-02

     total cpu time spent up to now is      673.7 secs

     total energy              =   -2304.34954165 Ry
     Harris-Foulkes estimate   =   -2317.44159512 Ry
     estimated scf accuracy    <      24.13973476 Ry

     total magnetization       =    23.00 Bohr mag/cell
     absolute magnetization    =    42.81 Bohr mag/cell

     iteration #  2     ecut=    40.00 Ry     beta=0.70
     Davidson diagonalization with overlap
     ethr =  1.00E-02,  avg # of iterations =  5.0

     negative rho (up, down):  0.668E-02 0.333E-02

     total cpu time spent up to now is     1213.1 secs

     total energy              =   -2157.92201827 Ry
     Harris-Foulkes estimate   =   -2517.66583348 Ry
     estimated scf accuracy    <    5253.74015237 Ry

     total magnetization       =    23.00 Bohr mag/cell
     absolute magnetization    =    23.42 Bohr mag/cell

     iteration #  3     ecut=    40.00 Ry     beta=0.70
     Davidson diagonalization with overlap
     ethr =  1.00E-02,  avg # of iterations =  5.1

     negative rho (up, down):  0.459E-02 0.299E-02

     total cpu time spent up to now is     1716.8 secs

     total energy              =   -2314.77929055 Ry
     Harris-Foulkes estimate   =   -2322.98671510 Ry
     estimated scf accuracy    <      22.78536444 Ry

     total magnetization       =    23.00 Bohr mag/cell
     absolute magnetization    =    40.29 Bohr mag/cell

     iteration #  4     ecut=    40.00 Ry     beta=0.70
     Davidson diagonalization with overlap
     ethr =  9.53E-03,  avg # of iterations =  2.0

     negative rho (up, down):  0.528E-02 0.237E-02

     total cpu time spent up to now is     1981.9 secs

     total energy              =   -2316.04123135 Ry
     Harris-Foulkes estimate   =   -2322.06460375 Ry
     estimated scf accuracy    <      44.55776866 Ry

     total magnetization       =    23.00 Bohr mag/cell
     absolute magnetization    =    40.40 Bohr mag/cell

     iteration #  5     ecut=    40.00 Ry     beta=0.70
     Davidson diagonalization with overlap
     ethr =  9.53E-03,  avg # of iterations =  3.0

     negative rho (up, down):  0.337E-02 0.122E-02

     total cpu time spent up to now is     2264.0 secs

     total energy              =   -2319.08173132 Ry
     Harris-Foulkes estimate   =   -2320.30403278 Ry
     estimated scf accuracy    <       9.08630297 Ry

     total magnetization       =    23.00 Bohr mag/cell
     absolute magnetization    =    36.73 Bohr mag/cell

     iteration #  6     ecut=    40.00 Ry     beta=0.70
     Davidson diagonalization with overlap
     ethr =  3.80E-03,  avg # of iterations =  1.9

     negative rho (up, down):  0.225E-02 0.114E-02

     total cpu time spent up to now is     2527.4 secs

     total energy              =   -2319.06453067 Ry
     Harris-Foulkes estimate   =   -2320.34017605 Ry
     estimated scf accuracy    <       8.83037485 Ry

     total magnetization       =    23.00 Bohr mag/cell
     absolute magnetization    =    38.77 Bohr mag/cell

     iteration #  7     ecut=    40.00 Ry     beta=0.70
     Davidson diagonalization with overlap
     ethr =  3.69E-03,  avg # of iterations =  1.0

     negative rho (up, down):  0.237E-02 0.109E-02

     total cpu time spent up to now is     2788.5 secs

     total energy              =   -2319.52151421 Ry
     Harris-Foulkes estimate   =   -2319.83838450 Ry
     estimated scf accuracy    <       1.81209333 Ry

     total magnetization       =    23.00 Bohr mag/cell
     absolute magnetization    =    36.82 Bohr mag/cell

     iteration #  8     ecut=    40.00 Ry     beta=0.70
     Davidson diagonalization with overlap
     ethr =  7.58E-04,  avg # of iterations =  4.5

     negative rho (up, down):  0.206E-02 0.101E-02

     total cpu time spent up to now is     3081.8 secs

     total energy              =   -2319.60932322 Ry
     Harris-Foulkes estimate   =   -2319.72577764 Ry
     estimated scf accuracy    <       0.72192998 Ry

     total magnetization       =    23.00 Bohr mag/cell
     absolute magnetization    =    36.31 Bohr mag/cell

     iteration #  9     ecut=    40.00 Ry     beta=0.70
     Davidson diagonalization with overlap
     ethr =  3.02E-04,  avg # of iterations =  4.7

     negative rho (up, down):  0.151E-02 0.993E-03

     total cpu time spent up to now is     3366.8 secs

     total energy              =   -2319.62518477 Ry
     Harris-Foulkes estimate   =   -2319.68476760 Ry
     estimated scf accuracy    <       0.43436279 Ry

     total magnetization       =    23.00 Bohr mag/cell
     absolute magnetization    =    36.46 Bohr mag/cell

     iteration # 10     ecut=    40.00 Ry     beta=0.70
     Davidson diagonalization with overlap
     ethr =  1.82E-04,  avg # of iterations =  3.4

     negative rho (up, down):  0.130E-02 0.993E-03

     total cpu time spent up to now is     3649.1 secs

     total energy              =   -2319.62976450 Ry
     Harris-Foulkes estimate   =   -2319.67346457 Ry
     estimated scf accuracy    <       0.43028437 Ry

     total magnetization       =    23.00 Bohr mag/cell
     absolute magnetization    =    36.40 Bohr mag/cell

     iteration # 11     ecut=    40.00 Ry     beta=0.70
     Davidson diagonalization with overlap
     ethr =  1.80E-04,  avg # of iterations =  2.3

     negative rho (up, down):  0.222E-02 0.115E-02

     total cpu time spent up to now is     3916.7 secs

     total energy              =   -2319.56023388 Ry
     Harris-Foulkes estimate   =   -2319.65509541 Ry
     estimated scf accuracy    <       0.21324371 Ry

     total magnetization       =    23.00 Bohr mag/cell
     absolute magnetization    =    36.19 Bohr mag/cell

     iteration # 12     ecut=    40.00 Ry     beta=0.70
     Davidson diagonalization with overlap
     ethr =  8.92E-05,  avg # of iterations =  6.8

     negative rho (up, down):  0.182E-02 0.104E-02

     total cpu time spent up to now is     4279.7 secs

     total energy              =   -2319.54539276 Ry
     Harris-Foulkes estimate   =   -2319.70580084 Ry
     estimated scf accuracy    <       0.95995525 Ry

     total magnetization       =    23.00 Bohr mag/cell
     absolute magnetization    =    35.52 Bohr mag/cell

     iteration # 13     ecut=    40.00 Ry     beta=0.70
     Davidson diagonalization with overlap
     ethr =  8.92E-05,  avg # of iterations =  3.5

     negative rho (up, down):  0.134E-02 0.104E-02

     total cpu time spent up to now is     4568.7 secs

     total energy              =   -2319.59254166 Ry
     Harris-Foulkes estimate   =   -2319.62918078 Ry
     estimated scf accuracy    <       0.10551315 Ry

     total magnetization       =    23.00 Bohr mag/cell
     absolute magnetization    =    35.34 Bohr mag/cell

     iteration # 14     ecut=    40.00 Ry     beta=0.70
     Davidson diagonalization with overlap
     ethr =  4.41E-05,  avg # of iterations =  4.4

     negative rho (up, down):  0.171E-02 0.107E-02

     total cpu time spent up to now is     4859.4 secs

     total energy              =   -2319.55433480 Ry
     Harris-Foulkes estimate   =   -2319.68598970 Ry
     estimated scf accuracy    <       1.47823544 Ry

     total magnetization       =    23.00 Bohr mag/cell
     absolute magnetization    =    35.82 Bohr mag/cell

     iteration # 15     ecut=    40.00 Ry     beta=0.70
     Davidson diagonalization with overlap
     ethr =  4.41E-05,  avg # of iterations =  3.3

     negative rho (up, down):  0.129E-02 0.109E-02

     total cpu time spent up to now is     5141.9 secs

     total energy              =   -2319.61077749 Ry
     Harris-Foulkes estimate   =   -2319.62597729 Ry
     estimated scf accuracy    <       0.06881821 Ry

     total magnetization       =    23.00 Bohr mag/cell
     absolute magnetization    =    35.42 Bohr mag/cell

     iteration # 16     ecut=    40.00 Ry     beta=0.70
     Davidson diagonalization with overlap
     ethr =  2.88E-05,  avg # of iterations =  1.0

     negative rho (up, down):  0.124E-02 0.113E-02

     total cpu time spent up to now is     5401.1 secs

     total energy              =   -2319.61688642 Ry
     Harris-Foulkes estimate   =   -2319.61962321 Ry
     estimated scf accuracy    <       0.01848760 Ry

     total magnetization       =    23.00 Bohr mag/cell
     absolute magnetization    =    35.30 Bohr mag/cell

     iteration # 17     ecut=    40.00 Ry     beta=0.70
     Davidson diagonalization with overlap
     ethr =  7.74E-06,  avg # of iterations =  4.2

     negative rho (up, down):  0.124E-02 0.115E-02

     total cpu time spent up to now is     5687.8 secs

     total energy              =   -2319.61633350 Ry
     Harris-Foulkes estimate   =   -2319.62000405 Ry
     estimated scf accuracy    <       0.02750451 Ry

     total magnetization       =    23.00 Bohr mag/cell
     absolute magnetization    =    35.35 Bohr mag/cell

     iteration # 18     ecut=    40.00 Ry     beta=0.70
     Davidson diagonalization with overlap
     ethr =  7.74E-06,  avg # of iterations =  1.1

     negative rho (up, down):  0.165E-02 0.137E-02

     total cpu time spent up to now is     5946.1 secs

     total energy              =   -2319.61505552 Ry
     Harris-Foulkes estimate   =   -2319.62219051 Ry
     estimated scf accuracy    <       0.05964964 Ry

     total magnetization       =    23.00 Bohr mag/cell
     absolute magnetization    =    35.47 Bohr mag/cell

     iteration # 19     ecut=    40.00 Ry     beta=0.70
     Davidson diagonalization with overlap
     ethr =  7.74E-06,  avg # of iterations =  2.5

     negative rho (up, down):  0.126E-02 0.116E-02

     total cpu time spent up to now is     6224.3 secs

     total energy              =   -2319.61775880 Ry
     Harris-Foulkes estimate   =   -2319.61884516 Ry
     estimated scf accuracy    <       0.00403532 Ry

     total magnetization       =    23.00 Bohr mag/cell
     absolute magnetization    =    35.29 Bohr mag/cell

     iteration # 20     ecut=    40.00 Ry     beta=0.70
     Davidson diagonalization with overlap
     ethr =  1.69E-06,  avg # of iterations =  3.0

     negative rho (up, down):  0.156E-02 0.134E-02

     total cpu time spent up to now is     6503.3 secs

     total energy              =   -2319.61714488 Ry
     Harris-Foulkes estimate   =   -2319.62014052 Ry
     estimated scf accuracy    <       0.02450000 Ry

     total magnetization       =    23.00 Bohr mag/cell
     absolute magnetization    =    35.29 Bohr mag/cell

     iteration # 21     ecut=    40.00 Ry     beta=0.70
     Davidson diagonalization with overlap
     ethr =  1.69E-06,  avg # of iterations =  1.9

     negative rho (up, down):  0.166E-02 0.140E-02

     total cpu time spent up to now is     6767.6 secs

     total energy              =   -2319.61861220 Ry
     Harris-Foulkes estimate   =   -2319.61868001 Ry
     estimated scf accuracy    <       0.00037477 Ry

     total magnetization       =    23.00 Bohr mag/cell
     absolute magnetization    =    35.27 Bohr mag/cell

     iteration # 22     ecut=    40.00 Ry     beta=0.70
     Davidson diagonalization with overlap
     ethr =  1.57E-07,  avg # of iterations =  1.8

     negative rho (up, down):  0.167E-02 0.141E-02

     total cpu time spent up to now is     7031.0 secs

     total energy              =   -2319.61858152 Ry
     Harris-Foulkes estimate   =   -2319.61875474 Ry
     estimated scf accuracy    <       0.00087102 Ry

     total magnetization       =    23.00 Bohr mag/cell
     absolute magnetization    =    35.26 Bohr mag/cell

     iteration # 23     ecut=    40.00 Ry     beta=0.70
     Davidson diagonalization with overlap
     ethr =  1.57E-07,  avg # of iterations =  1.0

     negative rho (up, down):  0.174E-02 0.145E-02

     total cpu time spent up to now is     7292.3 secs

     total energy              =   -2319.61866432 Ry
     Harris-Foulkes estimate   =   -2319.61869369 Ry
     estimated scf accuracy    <       0.00026702 Ry

     total magnetization       =    23.00 Bohr mag/cell
     absolute magnetization    =    35.25 Bohr mag/cell

     iteration # 24     ecut=    40.00 Ry     beta=0.70
     Davidson diagonalization with overlap
     ethr =  1.12E-07,  avg # of iterations =  1.0

     negative rho (up, down):  0.175E-02 0.145E-02

     total cpu time spent up to now is     7559.6 secs

     total energy              =   -2319.61867208 Ry
     Harris-Foulkes estimate   =   -2319.61869038 Ry
     estimated scf accuracy    <       0.00006622 Ry

     total magnetization       =    23.00 Bohr mag/cell
     absolute magnetization    =    35.24 Bohr mag/cell

     iteration # 25     ecut=    40.00 Ry     beta=0.70
     Davidson diagonalization with overlap
     ethr =  2.77E-08,  avg # of iterations =  1.9

     negative rho (up, down):  0.172E-02 0.144E-02

     total cpu time spent up to now is     7821.2 secs

     total energy              =   -2319.61864949 Ry
     Harris-Foulkes estimate   =   -2319.61872356 Ry
     estimated scf accuracy    <       0.00039473 Ry

     total magnetization       =    23.00 Bohr mag/cell
     absolute magnetization    =    35.23 Bohr mag/cell

     iteration # 26     ecut=    40.00 Ry     beta=0.70
     Davidson diagonalization with overlap
     ethr =  2.77E-08,  avg # of iterations =  1.9

     negative rho (up, down):  0.174E-02 0.145E-02

     total cpu time spent up to now is     8090.9 secs

     total energy              =   -2319.61868030 Ry
     Harris-Foulkes estimate   =   -2319.61869988 Ry
     estimated scf accuracy    <       0.00011447 Ry

     total magnetization       =    23.00 Bohr mag/cell
     absolute magnetization    =    35.23 Bohr mag/cell

     iteration # 27     ecut=    40.00 Ry     beta=0.70
     Davidson diagonalization with overlap
     ethr =  2.77E-08,  avg # of iterations =  1.0

     negative rho (up, down):  0.175E-02 0.145E-02

     total cpu time spent up to now is     8352.3 secs

     total energy              =   -2319.61868320 Ry
     Harris-Foulkes estimate   =   -2319.61870189 Ry
     estimated scf accuracy    <       0.00026819 Ry

     total magnetization       =    23.00 Bohr mag/cell
     absolute magnetization    =    35.21 Bohr mag/cell

     iteration # 28     ecut=    40.00 Ry     beta=0.70
     Davidson diagonalization with overlap
     ethr =  2.77E-08,  avg # of iterations =  1.0

     negative rho (up, down):  0.174E-02 0.145E-02

     total cpu time spent up to now is     8613.5 secs

     total energy              =   -2319.61869019 Ry
     Harris-Foulkes estimate   =   -2319.61869713 Ry
     estimated scf accuracy    <       0.00005203 Ry

     total magnetization       =    23.00 Bohr mag/cell
     absolute magnetization    =    35.21 Bohr mag/cell

     iteration # 29     ecut=    40.00 Ry     beta=0.70
     Davidson diagonalization with overlap
     ethr =  2.18E-08,  avg # of iterations =  1.0

     negative rho (up, down):  0.174E-02 0.145E-02

     total cpu time spent up to now is     8873.5 secs

     total energy              =   -2319.61868781 Ry
     Harris-Foulkes estimate   =   -2319.61870047 Ry
     estimated scf accuracy    <       0.00014884 Ry

     total magnetization       =    23.00 Bohr mag/cell
     absolute magnetization    =    35.22 Bohr mag/cell

     iteration # 30     ecut=    40.00 Ry     beta=0.70
     Davidson diagonalization with overlap
     ethr =  2.18E-08,  avg # of iterations =  1.0

     negative rho (up, down):  0.174E-02 0.145E-02

     total cpu time spent up to now is     9139.6 secs

     total energy              =   -2319.61869287 Ry
     Harris-Foulkes estimate   =   -2319.61869717 Ry
     estimated scf accuracy    <       0.00002843 Ry

     total magnetization       =    23.00 Bohr mag/cell
     absolute magnetization    =    35.21 Bohr mag/cell

     iteration # 31     ecut=    40.00 Ry     beta=0.70
     Davidson diagonalization with overlap
     ethr =  1.19E-08,  avg # of iterations =  1.0

     negative rho (up, down):  0.174E-02 0.145E-02

     total cpu time spent up to now is     9401.2 secs

     total energy              =   -2319.61869233 Ry
     Harris-Foulkes estimate   =   -2319.61869922 Ry
     estimated scf accuracy    <       0.00004427 Ry

     total magnetization       =    23.00 Bohr mag/cell
     absolute magnetization    =    35.21 Bohr mag/cell

     iteration # 32     ecut=    40.00 Ry     beta=0.70
     Davidson diagonalization with overlap
     ethr =  1.19E-08,  avg # of iterations =  1.0

     negative rho (up, down):  0.174E-02 0.145E-02

     total cpu time spent up to now is     9668.8 secs

     total energy              =   -2319.61869507 Ry
     Harris-Foulkes estimate   =   -2319.61869797 Ry
     estimated scf accuracy    <       0.00001858 Ry

     total magnetization       =    23.00 Bohr mag/cell
     absolute magnetization    =    35.20 Bohr mag/cell

     iteration # 33     ecut=    40.00 Ry     beta=0.70
     Davidson diagonalization with overlap
     ethr =  7.77E-09,  avg # of iterations =  1.0

     negative rho (up, down):  0.174E-02 0.145E-02

     total cpu time spent up to now is     9934.2 secs

     total energy              =   -2319.61869546 Ry
     Harris-Foulkes estimate   =   -2319.61869810 Ry
     estimated scf accuracy    <       0.00001671 Ry

     total magnetization       =    23.00 Bohr mag/cell
     absolute magnetization    =    35.20 Bohr mag/cell

     iteration # 34     ecut=    40.00 Ry     beta=0.70
     Davidson diagonalization with overlap
     ethr =  6.99E-09,  avg # of iterations =  1.0

     negative rho (up, down):  0.174E-02 0.145E-02

     total cpu time spent up to now is    10203.9 secs

     total energy              =   -2319.61869731 Ry
     Harris-Foulkes estimate   =   -2319.61869734 Ry
     estimated scf accuracy    <       0.00000443 Ry

     total magnetization       =    23.00 Bohr mag/cell
     absolute magnetization    =    35.20 Bohr mag/cell

     iteration # 35     ecut=    40.00 Ry     beta=0.70
     Davidson diagonalization with overlap
     ethr =  1.85E-09,  avg # of iterations =  1.0

     negative rho (up, down):  0.174E-02 0.144E-02

     total cpu time spent up to now is    10470.5 secs

     total energy              =   -2319.61869749 Ry
     Harris-Foulkes estimate   =   -2319.61869833 Ry
     estimated scf accuracy    <       0.00000437 Ry

     total magnetization       =    23.00 Bohr mag/cell
     absolute magnetization    =    35.20 Bohr mag/cell

     iteration # 36     ecut=    40.00 Ry     beta=0.70
     Davidson diagonalization with overlap
     ethr =  1.83E-09,  avg # of iterations =  1.0

     negative rho (up, down):  0.174E-02 0.144E-02

     total cpu time spent up to now is    10730.0 secs

     total energy              =   -2319.61869739 Ry
     Harris-Foulkes estimate   =   -2319.61869855 Ry
     estimated scf accuracy    <       0.00000549 Ry

     total magnetization       =    23.00 Bohr mag/cell
     absolute magnetization    =    35.19 Bohr mag/cell

     iteration # 37     ecut=    40.00 Ry     beta=0.70
     Davidson diagonalization with overlap
     ethr =  1.83E-09,  avg # of iterations =  1.0

     negative rho (up, down):  0.174E-02 0.144E-02

     total cpu time spent up to now is    10987.4 secs

     total energy              =   -2319.61869681 Ry
     Harris-Foulkes estimate   =   -2319.61869874 Ry
     estimated scf accuracy    <       0.00002046 Ry

     total magnetization       =    23.00 Bohr mag/cell
     absolute magnetization    =    35.19 Bohr mag/cell

     iteration # 38     ecut=    40.00 Ry     beta=0.70
     Davidson diagonalization with overlap
     ethr =  1.83E-09,  avg # of iterations =  1.0

     negative rho (up, down):  0.174E-02 0.144E-02

     total cpu time spent up to now is    11250.0 secs

     total energy              =   -2319.61869767 Ry
     Harris-Foulkes estimate   =   -2319.61869850 Ry
     estimated scf accuracy    <       0.00001334 Ry

     total magnetization       =    23.00 Bohr mag/cell
     absolute magnetization    =    35.19 Bohr mag/cell

     iteration # 39     ecut=    40.00 Ry     beta=0.70
     Davidson diagonalization with overlap
     ethr =  1.83E-09,  avg # of iterations =  1.0

     negative rho (up, down):  0.174E-02 0.144E-02

     total cpu time spent up to now is    11514.5 secs

     total energy              =   -2319.61869797 Ry
     Harris-Foulkes estimate   =   -2319.61869855 Ry
     estimated scf accuracy    <       0.00000276 Ry

     total magnetization       =    23.00 Bohr mag/cell
     absolute magnetization    =    35.19 Bohr mag/cell

     iteration # 40     ecut=    40.00 Ry     beta=0.70
     Davidson diagonalization with overlap
     ethr =  1.15E-09,  avg # of iterations =  1.0

     negative rho (up, down):  0.174E-02 0.144E-02

     total cpu time spent up to now is    11775.4 secs

     total energy              =   -2319.61869798 Ry
     Harris-Foulkes estimate   =   -2319.61869873 Ry
     estimated scf accuracy    <       0.00000820 Ry

     total magnetization       =    23.00 Bohr mag/cell
     absolute magnetization    =    35.19 Bohr mag/cell

     iteration # 41     ecut=    40.00 Ry     beta=0.70
     Davidson diagonalization with overlap
     ethr =  1.15E-09,  avg # of iterations =  1.0

     negative rho (up, down):  0.174E-02 0.144E-02

     total cpu time spent up to now is    12038.8 secs

     total energy              =   -2319.61869834 Ry
     Harris-Foulkes estimate   =   -2319.61869861 Ry
     estimated scf accuracy    <       0.00000171 Ry

     total magnetization       =    23.00 Bohr mag/cell
     absolute magnetization    =    35.19 Bohr mag/cell

     iteration # 42     ecut=    40.00 Ry     beta=0.70
     Davidson diagonalization with overlap
     ethr =  7.14E-10,  avg # of iterations =  1.0

     negative rho (up, down):  0.174E-02 0.144E-02

     total cpu time spent up to now is    12300.9 secs

     total energy              =   -2319.61869832 Ry
     Harris-Foulkes estimate   =   -2319.61869865 Ry
     estimated scf accuracy    <       0.00000240 Ry

     total magnetization       =    23.00 Bohr mag/cell
     absolute magnetization    =    35.19 Bohr mag/cell

     iteration # 43     ecut=    40.00 Ry     beta=0.70
     Davidson diagonalization with overlap
     ethr =  7.14E-10,  avg # of iterations =  1.0

     negative rho (up, down):  0.174E-02 0.144E-02

     total cpu time spent up to now is    12562.0 secs

     total energy              =   -2319.61869820 Ry
     Harris-Foulkes estimate   =   -2319.61869867 Ry
     estimated scf accuracy    <       0.00000217 Ry

     total magnetization       =    23.00 Bohr mag/cell
     absolute magnetization    =    35.19 Bohr mag/cell

     iteration # 44     ecut=    40.00 Ry     beta=0.70
     Davidson diagonalization with overlap
     ethr =  7.14E-10,  avg # of iterations =  1.0

     negative rho (up, down):  0.174E-02 0.144E-02

     total cpu time spent up to now is    12818.8 secs

     total energy              =   -2319.61869842 Ry
     Harris-Foulkes estimate   =   -2319.61869856 Ry
     estimated scf accuracy    <       0.00000140 Ry

     total magnetization       =    23.00 Bohr mag/cell
     absolute magnetization    =    35.19 Bohr mag/cell

     iteration # 45     ecut=    40.00 Ry     beta=0.70
     Davidson diagonalization with overlap
     ethr =  5.85E-10,  avg # of iterations =  1.0

     negative rho (up, down):  0.174E-02 0.144E-02

     total cpu time spent up to now is    13077.5 secs

     End of self-consistent calculation
 --- enter write_ns ---
 LDA+U parameters:
U( 2)     =  7.00000000
alpha( 2) =  0.00000000
atom    3   Tr[ns(na)] (up, down, total) =   4.46254  0.90472  5.36726
   spin  1
    eigenvalues: 
  0.723  0.737  1.000  1.000  1.003
    eigenvectors:
  0.088  0.133  0.588  0.138  0.053
  0.602  0.398  0.000  0.001  0.000
  0.000  0.000  0.067  0.002  0.931
  0.310  0.469  0.171  0.039  0.011
  0.001  0.000  0.174  0.820  0.005
    occupations:
  0.941  0.003 -0.003 -0.111  0.000
  0.003  0.729 -0.001  0.006 -0.008
 -0.003 -0.001  1.002 -0.003  0.000
 -0.111  0.006 -0.003  0.791  0.001
  0.000 -0.008  0.000  0.001  1.000
   spin  2
    eigenvalues: 
  0.071  0.088  0.097  0.315  0.334
    eigenvectors:
  0.791  0.001  0.008  0.036  0.164
  0.000  0.001  0.000  0.833  0.166
  0.010  0.069  0.921  0.000  0.000
  0.199  0.000  0.001  0.130  0.669
  0.000  0.929  0.070  0.001  0.000
    occupations:
  0.123 -0.001 -0.002  0.104  0.000
 -0.001  0.318  0.000 -0.007  0.008
 -0.002  0.000  0.096  0.003 -0.002
  0.104 -0.007  0.003  0.279 -0.000
  0.000  0.008 -0.002 -0.000  0.089
atomic mag. moment =     3.557819
atom    4   Tr[ns(na)] (up, down, total) =   4.46275  0.90041  5.36315
   spin  1
    eigenvalues: 
  0.721  0.737  0.998  1.003  1.004
    eigenvectors:
  0.000  0.998  0.001  0.001  0.001
  0.000  0.001  0.000  0.067  0.932
  0.000  0.000  0.000  0.933  0.067
  0.000  0.001  0.999  0.000  0.000
  1.000  0.000  0.000  0.000  0.000
    occupations:
  0.737 -0.009 -0.004  0.007 -0.000
 -0.009  1.004 -0.000  0.000  0.001
 -0.004 -0.000  1.003  0.000  0.000
  0.007  0.000  0.000  0.997 -0.000
 -0.000  0.001  0.000 -0.000  0.721
   spin  2
    eigenvalues: 
  0.068  0.087  0.096  0.322  0.327
    eigenvectors:
  0.004  0.002  0.000  0.000  0.994
  0.002  0.816  0.180  0.000  0.002
  0.001  0.179  0.820  0.000  0.000
  0.993  0.003  0.000  0.000  0.004
  0.000  0.000  0.000  1.000  0.000
    occupations:
  0.326  0.010  0.004 -0.016  0.000
  0.010  0.089 -0.004  0.000 -0.003
  0.004 -0.004  0.094  0.000  0.000
 -0.016  0.000  0.000  0.069 -0.000
  0.000 -0.003  0.000 -0.000  0.322
atomic mag. moment =     3.562342
atom    9   Tr[ns(na)] (up, down, total) =   4.42141  0.98795  5.40936
   spin  1
    eigenvalues: 
  0.723  0.727  0.978  0.994  1.000
    eigenvectors:
  0.180  0.001  0.000  0.000  0.819
  0.004  0.996  0.000  0.000  0.000
  0.000  0.000  0.064  0.936  0.000
  0.816  0.003  0.000  0.000  0.181
  0.000  0.000  0.936  0.064  0.000
    occupations:
  0.950 -0.000 -0.000 -0.107  0.000
 -0.000  0.727  0.000  0.000 -0.000
 -0.000  0.000  0.993 -0.000  0.004
 -0.107  0.000 -0.000  0.773  0.000
  0.000 -0.000  0.004  0.000  0.979
   spin  2
    eigenvalues: 
  0.090  0.095  0.100  0.344  0.358
    eigenvectors:
  0.841  0.000  0.000  0.159  0.000
  0.000  0.000  0.000  0.001  0.999
  0.000  0.982  0.018  0.000  0.000
  0.159  0.000  0.000  0.841  0.000
  0.000  0.018  0.982  0.000  0.000
    occupations:
  0.131 -0.000  0.000  0.093  0.000
 -0.000  0.358 -0.000 -0.000 -0.000
  0.000 -0.000  0.095  0.000  0.001
  0.093 -0.000  0.000  0.303 -0.000
  0.000 -0.000  0.001 -0.000  0.100
atomic mag. moment =     3.433455
atom   10   Tr[ns(na)] (up, down, total) =   4.62374  0.69544  5.31918
   spin  1
    eigenvalues: 
  0.722  0.903  0.998  0.999  1.002
    eigenvectors:
  0.000  0.986  0.014  0.000  0.000
  0.000  0.000  0.084  0.916  0.000
  0.000  0.000  0.000  0.000  1.000
  0.000  0.013  0.902  0.084  0.000
  1.000  0.000  0.000  0.000  0.000
    occupations:
  0.904 -0.002  0.000  0.011  0.000
 -0.002  0.999 -0.000  0.000 -0.000
  0.000 -0.000  1.002 -0.000  0.002
  0.011  0.000 -0.000  0.997 -0.000
  0.000 -0.000  0.002 -0.000  0.722
   spin  2
    eigenvalues: 
  0.060  0.080  0.083  0.183  0.289
    eigenvectors:
  0.013  0.000  0.000  0.987  0.000
  0.000  0.000  1.000  0.000  0.000
  0.000  1.000  0.000  0.000  0.000
  0.987  0.000  0.000  0.013  0.000
  0.000  0.000  0.000  0.000  1.000
    occupations:
  0.182  0.001 -0.000 -0.014 -0.000
  0.001  0.083 -0.000 -0.000  0.000
 -0.000 -0.000  0.080 -0.000 -0.002
 -0.014 -0.000 -0.000  0.062  0.000
 -0.000  0.000 -0.002  0.000  0.289
atomic mag. moment =     3.928301
atom   16   Tr[ns(na)] (up, down, total) =   4.46289  0.90374  5.36663
   spin  1
    eigenvalues: 
  0.724  0.737  1.000  1.000  1.002
    eigenvectors:
  0.094  0.127  0.719  0.000  0.060
  0.571  0.428  0.000  0.001  0.000
  0.000  0.000  0.072  0.007  0.921
  0.334  0.445  0.208  0.000  0.013
  0.000  0.000  0.001  0.993  0.006
    occupations:
  0.941 -0.003 -0.002 -0.111  0.000
 -0.003  0.730  0.000 -0.006 -0.008
 -0.002  0.000  1.002 -0.003 -0.000
 -0.111 -0.006 -0.003  0.791  0.000
  0.000 -0.008 -0.000  0.000  1.000
   spin  2
    eigenvalues: 
  0.071  0.088  0.097  0.315  0.334
    eigenvectors:
  0.791  0.001  0.007  0.033  0.167
  0.000  0.001  0.000  0.845  0.153
  0.010  0.069  0.921  0.000  0.000
  0.199  0.000  0.001  0.120  0.679
  0.000  0.929  0.070  0.001  0.000
    occupations:
  0.123  0.001 -0.002  0.104 -0.000
  0.001  0.318 -0.000  0.007  0.008
 -0.002 -0.000  0.096  0.002  0.002
  0.104  0.007  0.002  0.279  0.000
 -0.000  0.008  0.002  0.000  0.088
atomic mag. moment =     3.559156
atom   17   Tr[ns(na)] (up, down, total) =   4.45898  0.90295  5.36193
   spin  1
    eigenvalues: 
  0.720  0.734  0.997  1.003  1.004
    eigenvectors:
  0.000  0.998  0.001  0.000  0.001
  0.000  0.001  0.000  0.058  0.940
  0.000  0.000  0.000  0.941  0.059
  0.000  0.001  0.999  0.000  0.000
  1.000  0.000  0.000  0.000  0.000
    occupations:
  0.735 -0.009 -0.004  0.006 -0.000
 -0.009  1.004 -0.000  0.000  0.001
 -0.004 -0.000  1.003  0.000 -0.000
  0.006  0.000  0.000  0.997 -0.000
 -0.000  0.001 -0.000 -0.000  0.720
   spin  2
    eigenvalues: 
  0.068  0.087  0.096  0.323  0.329
    eigenvectors:
  0.004  0.002  0.000  0.001  0.993
  0.002  0.800  0.196  0.000  0.002
  0.001  0.195  0.804  0.000  0.000
  0.993  0.003  0.000  0.000  0.004
  0.000  0.000  0.000  0.999  0.001
    occupations:
  0.328  0.010  0.004 -0.016 -0.000
  0.010  0.089 -0.003  0.000 -0.003
  0.004 -0.003  0.094  0.000  0.000
 -0.016  0.000  0.000  0.069 -0.000
 -0.000 -0.003  0.000 -0.000  0.323
atomic mag. moment =     3.556027
atom   22   Tr[ns(na)] (up, down, total) =   4.41857  0.99195  5.41052
   spin  1
    eigenvalues: 
  0.722  0.725  0.976  0.995  1.000
    eigenvectors:
  0.153  0.029  0.000  0.000  0.818
  0.162  0.838  0.000  0.000  0.000
  0.000  0.000  0.093  0.907  0.000
  0.685  0.133  0.000  0.000  0.182
  0.000  0.000  0.907  0.093  0.000
    occupations:
  0.949  0.001  0.000 -0.107 -0.000
  0.001  0.725  0.000  0.001 -0.000
  0.000  0.000  0.993 -0.000 -0.005
 -0.107  0.001 -0.000  0.773  0.000
 -0.000 -0.000 -0.005  0.000  0.978
   spin  2
    eigenvalues: 
  0.091  0.096  0.101  0.346  0.358
    eigenvectors:
  0.842  0.000  0.000  0.158  0.000
  0.000  0.000  0.000  0.001  0.999
  0.000  0.973  0.027  0.000  0.000
  0.158  0.000  0.000  0.841  0.001
  0.000  0.027  0.973  0.000  0.000
    occupations:
  0.131  0.000  0.000  0.093 -0.000
  0.000  0.358 -0.000  0.000 -0.000
  0.000 -0.000  0.096  0.000 -0.001
  0.093  0.000  0.000  0.306  0.000
 -0.000 -0.000 -0.001  0.000  0.101
atomic mag. moment =     3.426628
atom   23   Tr[ns(na)] (up, down, total) =   4.47834  0.87230  5.35064
   spin  1
    eigenvalues: 
  0.731  0.747  0.999  1.000  1.001
    eigenvectors:
  0.000  0.999  0.000  0.000  0.000
  0.000  0.000  0.059  0.939  0.001
  0.000  0.000  0.000  0.002  0.998
  0.000  0.000  0.940  0.059  0.000
  1.000  0.000  0.000  0.000  0.000
    occupations:
  0.747 -0.003  0.001  0.005 -0.000
 -0.003  1.000  0.000 -0.000 -0.000
  0.001  0.000  1.001 -0.000 -0.001
  0.005 -0.000 -0.000  0.999 -0.000
 -0.000 -0.000 -0.001 -0.000  0.731
   spin  2
    eigenvalues: 
  0.068  0.085  0.096  0.299  0.323
    eigenvectors:
  0.005  0.000  0.000  0.995  0.000
  0.000  1.000  0.000  0.000  0.000
  0.000  0.000  1.000  0.000  0.000
  0.995  0.000  0.000  0.005  0.000
  0.000  0.000  0.000  0.000  1.000
    occupations:
  0.298  0.003 -0.000 -0.016 -0.000
  0.003  0.085 -0.000 -0.000  0.000
 -0.000 -0.000  0.096  0.000  0.003
 -0.016 -0.000  0.000  0.069  0.000
 -0.000  0.000  0.003  0.000  0.323
atomic mag. moment =     3.606036
N of occupied +U levels =  42.9486748
 --- exit write_ns ---

 ------ SPIN UP ------------


          k = 0.0000 0.0000 0.0000 ( 26393 PWs)   bands (ev):

   -84.2842 -84.2736 -84.1397 -84.0717 -84.0463 -84.0333 -84.0260 -83.8138
   -53.0759 -52.9635 -52.9500 -52.9365 -52.9280 -52.9100 -52.8802 -52.8669
   -52.8195 -52.7987 -52.7944 -52.7627 -52.7565 -52.7423 -52.7339 -52.7222
   -52.6956 -52.6714 -52.6646 -52.6418 -52.6281 -52.5676 -52.4943 -52.4930
   -21.6821 -21.0793 -21.0628 -20.7829 -20.2358 -20.2225 -19.9753 -19.9447
   -19.8728 -19.8519 -19.7976 -19.7262 -19.5937 -19.4203 -19.3590 -19.3243
   -19.2695 -19.0332 -18.7581 -11.3138 -11.1541 -11.0593 -10.7463 -10.5181
   -10.4639 -10.2801 -10.2611 -10.2333  -9.7052  -9.4011  -9.3281  -9.2428
    -9.2120  -9.0898  -9.0689  -8.9629  -8.8411  -8.7982  -8.7711  -8.6855
    -8.6310  -8.5990  -8.5089  -8.4704  -8.4391  -8.3508  -8.2358  -8.2219
    -8.1667  -8.0136  -7.7866  -7.6773  -7.6305  -7.6124  -7.4226  -7.2379
    -7.2251  -7.1226  -7.0762  -7.0365  -6.5575  -6.3577  -6.3069  -6.2272
    -6.0593  -5.7806  -5.6940  -5.3928  -5.3198  -5.2612  -5.1874  -5.0930
    -5.0855  -4.9188  -4.7774  -4.7073  -4.5515  -4.3550  -4.2479  -4.1402
    -4.0128  -3.9468  -3.5393  -3.4345  -3.1830  -3.0989  -3.0479  -2.9673
    -2.9247  -2.8490  -2.7101  -2.7076  -2.6395  -2.5810  -2.5319  -2.4545
    -2.3278  -2.2153  -2.1246  -1.8915  -1.8159  -1.6943  -1.4206  -1.1343
    -0.8433  -0.7113  -0.6328  -0.5785  -0.2453  -0.0952  -0.0828   0.4049
     0.4470   0.5685   0.7505   0.8287   3.2154   3.3642   3.7713   4.2586
     4.7701   5.5262   6.1002   6.4245   6.8501   6.9430   7.1417   7.2876
     7.3996   7.4586   7.6072   7.6881   7.7617   7.9465   8.1643   8.2438
     8.2770   8.3802   8.4701   8.5224   8.5388   8.7565   8.8849   8.9454
     9.0253   9.2894   9.4072   9.4530   9.4581   9.5552   9.6590   9.7571
     9.8977   9.9898  10.1111  10.2961  10.3593  10.3868  10.6008  10.6212
    10.7268  10.8143  10.9203  11.0978  11.1329  11.1862  11.3121  11.4415
    11.5624  11.5940  11.6223  11.7632  11.9401  11.9814  12.0684  12.1984
    12.2737  12.2912  12.3277  12.3728  12.4276  12.5031  12.5801  12.6297
    12.6789  12.7017  12.7614  12.8373  12.9392  12.9914  13.1340  13.1995
    13.2436  13.2696  13.2995  13.3290  13.3952  13.4589  13.5382  13.7495
    13.7670  13.8122  13.8787  13.9541  14.0655  14.1105  14.1977  14.2521
    14.3405  14.3727  14.4095  14.5112  14.5464  14.6283  14.7569  14.8797
    14.9394  15.0127  15.1950  15.2115  15.2337  15.3232  15.3444  15.4002
    15.5478  15.6782  15.7844  15.8605  16.0079  16.1128  16.2357  16.3121
    16.3808  16.5087  16.5411  16.6991  16.7592  16.8038  16.9288  17.1117
    17.1649  17.2804  17.4486  17.4923  17.5644  17.7161  17.7270  17.8922
    17.9030  17.9569  17.9842  18.2393  18.3986  18.4390  18.5433  18.6575
    18.7387  18.7898  18.8457  18.9080  18.9628  19.1152  19.1745  19.2493
    19.4179  19.5006  19.5548  19.5747  19.6415  19.7211  19.7659  19.8953
    19.9259  19.9893  20.0284  20.0568  20.1429  20.2975  20.3267  20.3610
    20.5079  20.5479  20.6833  20.7549  20.8609  20.9778  21.0861  21.2147
    21.2272  21.3482  21.3810  21.4353  21.4933  21.5280  21.6134  21.6397
    21.7448  21.8136  21.9387  22.0784  22.1359  22.1882  22.2878  22.3425
    22.3631  22.3734  22.4454  22.4722  22.5720  22.6214  22.7191  22.7680
    22.8150  22.9038

          k = 0.0000 0.2303 0.0000 ( 26455 PWs)   bands (ev):

   -84.2842 -84.2736 -84.1397 -84.0717 -84.0463 -84.0333 -84.0260 -83.8138
   -53.0759 -52.9636 -52.9497 -52.9369 -52.9279 -52.9102 -52.8804 -52.8663
   -52.8198 -52.7987 -52.7927 -52.7632 -52.7574 -52.7424 -52.7340 -52.7223
   -52.6957 -52.6714 -52.6646 -52.6418 -52.6281 -52.5676 -52.4944 -52.4930
   -21.6225 -21.0644 -20.9563 -20.7546 -20.2515 -20.2346 -20.0951 -20.0132
   -19.9997 -19.9658 -19.6669 -19.5854 -19.5680 -19.5454 -19.3835 -19.3197
   -19.2714 -19.0336 -18.7535 -11.1424 -10.9815 -10.9435 -10.8965 -10.5848
   -10.5604 -10.3269 -10.2800 -10.2472  -9.5908  -9.3302  -9.1428  -9.0780
    -9.0662  -9.0154  -8.9500  -8.8824  -8.8250  -8.7725  -8.7272  -8.6924
    -8.6663  -8.6351  -8.5484  -8.5056  -8.4389  -8.3692  -8.2383  -8.2217
    -8.1738  -7.9918  -7.9668  -7.8549  -7.7834  -7.7032  -7.6574  -7.3578
    -7.2716  -7.1816  -6.7755  -6.6853  -6.5262  -6.3443  -6.2736  -6.2286
    -6.0404  -5.7924  -5.6798  -5.5912  -5.4897  -5.4408  -5.2600  -5.2290
    -5.0034  -4.9147  -4.8222  -4.5026  -4.4225  -4.3565  -4.1765  -4.0803
    -3.8524  -3.7862  -3.5766  -3.5265  -3.3037  -3.1569  -3.1240  -3.0814
    -3.0509  -2.9621  -2.8883  -2.7967  -2.6409  -2.5313  -2.4253  -2.4130
    -2.4019  -2.3655  -2.1623  -2.1491  -1.9281  -1.9198  -1.8966  -1.3825
    -1.0787  -0.9008  -0.3659  -0.1160  -0.1071   0.2770   0.3276   0.5317
     0.6058   0.6688   0.8033   0.8376   3.4850   3.5651   4.0217   4.4797
     4.9890   5.3937   5.6920   5.9221   6.1442   6.3771   6.6119   7.0446
     7.1316   7.3308   7.5523   7.5629   7.8927   8.0796   8.3375   8.3689
     8.5061   8.6157   8.6727   8.7567   8.8551   9.0027   9.0922   9.1437
     9.3095   9.5056   9.5908   9.6526   9.7286   9.8371   9.8906  10.0161
    10.0896  10.1699  10.2458  10.3015  10.3699  10.3884  10.4486  10.5538
    10.6260  10.6885  10.7239  10.8674  10.9187  10.9796  11.1212  11.2386
    11.2776  11.3365  11.4609  11.5285  11.5880  11.7438  11.7801  11.8349
    11.9363  12.0900  12.1625  12.3179  12.4894  12.5863  12.6825  12.7407
    12.7762  12.8900  12.9406  13.0082  13.0881  13.2811  13.3241  13.4189
    13.4921  13.5243  13.6060  13.7140  13.7662  13.8672  13.9550  14.0409
    14.1300  14.2309  14.3059  14.3851  14.4167  14.4389  14.5096  14.5360
    14.5831  14.6308  14.6587  14.7025  14.7593  14.8758  14.9277  15.0115
    15.0748  15.1339  15.2390  15.2969  15.3721  15.4133  15.4670  15.5279
    15.6253  15.6641  15.7714  15.8348  15.9205  15.9767  16.0545  16.2071
    16.2624  16.2995  16.3430  16.4162  16.5284  16.6366  16.7111  16.7876
    16.9445  16.9779  17.1285  17.2225  17.2815  17.4141  17.4851  17.5287
    17.6378  17.7084  17.8100  17.8913  17.9067  18.0861  18.2539  18.3908
    18.5604  18.7178  18.7407  18.8063  18.8605  18.9253  19.0546  19.0861
    19.1459  19.2457  19.2901  19.3308  19.4253  19.5479  19.6799  19.7355
    19.7709  20.0276  20.1089  20.2082  20.2582  20.2894  20.3494  20.4588
    20.4882  20.5171  20.5411  20.6078  20.6861  20.8190  20.8920  20.9395
    20.9525  21.0570  21.0947  21.1740  21.2338  21.2843  21.3372  21.3922
    21.4630  21.5855  21.6785  21.7381  21.8129  21.8857  21.9807  22.0054
    22.1280  22.2518  22.3824  22.4318  22.4713  22.5525  22.6098  22.6711
    22.7068  22.8120

          k = 0.0000-0.4606 0.0000 ( 26364 PWs)   bands (ev):

   -84.2841 -84.2736 -84.1398 -84.0717 -84.0462 -84.0333 -84.0260 -83.8138
   -53.0758 -52.9635 -52.9494 -52.9371 -52.9277 -52.9102 -52.8805 -52.8655
   -52.8199 -52.7986 -52.7907 -52.7637 -52.7585 -52.7422 -52.7341 -52.7222
   -52.6956 -52.6713 -52.6645 -52.6418 -52.6280 -52.5674 -52.4945 -52.4929
   -21.5576 -21.0607 -20.8203 -20.6481 -20.3834 -20.2421 -20.1801 -20.1271
   -20.0859 -19.9375 -19.7290 -19.6423 -19.4993 -19.4885 -19.4056 -19.2931
   -19.2885 -19.0340 -18.7516 -11.1361 -11.0821 -10.8086 -10.7014 -10.6006
   -10.5726 -10.3229 -10.3083  -9.9381  -9.6519  -9.3160  -9.1479  -9.1079
    -9.0933  -9.0502  -8.8519  -8.7379  -8.7159  -8.6811  -8.6616  -8.6047
    -8.5700  -8.5655  -8.5330  -8.5090  -8.4838  -8.4027  -8.2943  -8.2124
    -8.1902  -8.1194  -7.9980  -7.9458  -7.8983  -7.8011  -7.7196  -7.5138
    -7.3489  -7.2956  -6.6154  -6.3722  -6.3498  -6.3202  -6.2857  -6.1365
    -6.0691  -5.9939  -5.9198  -5.8295  -5.5624  -5.4792  -5.3523  -5.2586
    -5.0237  -4.8760  -4.6574  -4.4433  -4.3131  -4.2694  -4.0837  -3.9441
    -3.6816  -3.6449  -3.5350  -3.3914  -3.3830  -3.3543  -3.3384  -3.2287
    -3.1498  -3.1194  -2.9174  -2.8620  -2.7666  -2.7553  -2.6695  -2.5866
    -2.5678  -2.4268  -2.3162  -2.2654  -2.1717  -1.9869  -1.9079  -1.2202
    -1.0320  -0.4924  -0.2808  -0.1308   0.0950   0.1452   0.2122   0.4707
     0.6468   0.8432   1.0465   1.2945   3.8588   4.0653   4.4008   4.6863
     4.7687   4.9764   5.2031   5.4867   5.7844   6.1250   6.4867   6.9080
     7.1091   7.2724   7.6181   7.7312   7.9249   7.9825   8.0676   8.3066
     8.3697   8.7628   9.0407   9.0833   9.1161   9.2293   9.3087   9.3343
     9.3709   9.4034   9.4567   9.5719   9.6395   9.7006   9.7866   9.8601
     9.8817   9.9514  10.1054  10.2085  10.3376  10.3720  10.5002  10.6380
    10.6551  10.7655  10.9540  11.0018  11.0595  11.0960  11.1769  11.3334
    11.3873  11.5298  11.6764  11.6996  11.7800  11.8667  12.1685  12.2750
    12.3236  12.3978  12.4457  12.5379  12.5598  12.5979  12.6576  12.7563
    12.8793  12.9501  13.0591  13.0711  13.2309  13.2827  13.3118  13.3367
    13.4116  13.5067  13.5703  13.6251  13.6609  13.7702  13.8528  13.9703
    14.0310  14.1050  14.1588  14.2684  14.3056  14.3921  14.4198  14.4878
    14.5902  14.6845  14.7055  14.7814  14.8130  14.8527  14.8925  14.9509
    14.9907  15.1158  15.2197  15.2462  15.3069  15.3716  15.5014  15.6544
    15.7743  15.8554  15.9350  15.9956  16.1915  16.2318  16.3069  16.4845
    16.6232  16.6596  16.7617  16.8160  16.8637  16.9508  17.0299  17.1699
    17.1966  17.2321  17.2657  17.3423  17.3537  17.5849  17.6398  17.6561
    17.6828  17.7878  17.8280  17.8796  17.9228  17.9884  18.0234  18.1475
    18.2105  18.3428  18.4362  18.5119  18.5766  18.6185  18.6434  18.6650
    18.7078  18.7325  18.8228  18.8480  18.9318  19.0582  19.1017  19.1721
    19.2643  19.4526  19.4810  19.7633  19.8888  19.9206  20.0172  20.0941
    20.1540  20.1601  20.1667  20.2529  20.2727  20.3505  20.4770  20.6023
    20.6049  20.6909  20.8469  20.8826  20.9244  21.1207  21.1573  21.1690
    21.2507  21.3372  21.4335  21.4632  21.5500  21.6437  21.6493  21.8423
    21.9769  22.0297  22.2068  22.2247  22.3503  22.4290  22.5633  22.6830
    22.7503  22.8047

          k = 0.2500 0.0000 0.0000 ( 26392 PWs)   bands (ev):

   -84.2824 -84.2745 -84.1393 -84.0709 -84.0452 -84.0332 -84.0263 -83.8135
   -53.0598 -52.9800 -52.9482 -52.9387 -52.9257 -52.9130 -52.8759 -52.8510
   -52.8021 -52.7987 -52.7941 -52.7640 -52.7573 -52.7565 -52.7342 -52.7235
   -52.7141 -52.6698 -52.6640 -52.6440 -52.6282 -52.5731 -52.4944 -52.4929
   -21.5658 -21.1164 -20.9419 -20.6822 -20.3160 -20.2310 -20.0839 -20.0071
   -19.9141 -19.7553 -19.7495 -19.6751 -19.6117 -19.4720 -19.3924 -19.3541
   -19.2299 -19.1399 -18.8380 -11.0553 -10.9318 -10.8437 -10.6200 -10.3068
   -10.2791 -10.1361 -10.0910 -10.0549  -9.7445  -9.6318  -9.5297  -9.5091
    -9.4482  -9.2837  -9.2286  -9.0594  -8.9677  -8.8625  -8.8340  -8.7667
    -8.6887  -8.6420  -8.5255  -8.4718  -8.3931  -8.3651  -8.3268  -8.2848
    -8.2006  -7.9158  -7.7832  -7.7184  -7.6516  -7.5161  -7.4692  -7.3836
    -7.2951  -7.2475  -7.1960  -7.1333  -6.6863  -6.3883  -6.2813  -6.0785
    -5.9540  -5.8570  -5.7687  -5.4513  -5.2659  -5.0267  -4.9167  -4.8239
    -4.7665  -4.6873  -4.5992  -4.5592  -4.4873  -4.3781  -4.2562  -4.1907
    -3.9863  -3.8584  -3.6646  -3.5146  -3.2492  -3.2317  -3.0267  -2.9169
    -2.8959  -2.8570  -2.8108  -2.7539  -2.6667  -2.6408  -2.4859  -2.4154
    -2.3682  -2.2817  -2.2134  -2.1224  -1.9473  -1.5873  -1.2049  -1.1206
    -0.7550  -0.6363  -0.6031  -0.5525  -0.4908  -0.1910   0.0313   0.1212
     0.1510   0.3022   0.5189   0.7895   3.5377   3.6616   4.0746   4.5510
     5.0811   5.6539   5.7651   6.1878   6.3699   6.4625   6.7787   6.8641
     7.2728   7.4126   7.5427   7.6435   7.6942   7.8905   7.9673   8.0071
     8.1443   8.3824   8.4815   8.5554   8.7591   8.8750   9.0798   9.2022
     9.2834   9.4731   9.5419   9.6604   9.7104   9.8871   9.9519  10.0055
    10.1087  10.1535  10.1887  10.2395  10.3036  10.4139  10.4843  10.6037
    10.7391  10.7655  10.8324  10.9089  11.0329  11.0720  11.1603  11.2625
    11.3537  11.4550  11.4817  11.5245  11.5933  11.6703  11.7829  11.8852
    11.9338  12.1694  12.2987  12.3545  12.4518  12.5536  12.6340  12.7454
    12.7981  12.8537  12.9466  13.1061  13.1653  13.2563  13.2908  13.3712
    13.4151  13.4380  13.5204  13.7191  13.7899  13.8602  13.9466  14.0668
    14.0944  14.1488  14.2044  14.3457  14.4078  14.4505  14.5159  14.5975
    14.6295  14.7121  14.8092  14.8588  14.9337  15.0280  15.0727  15.1112
    15.2206  15.3037  15.4113  15.5403  15.5789  15.6999  15.7672  15.8052
    15.8814  15.9345  15.9868  16.0280  16.0834  16.1292  16.2126  16.3898
    16.5715  16.6359  16.6623  16.7146  16.7812  16.8780  17.0256  17.0738
    17.2069  17.2982  17.3652  17.5183  17.5747  17.6590  17.7009  17.8137
    17.8873  17.9476  17.9934  18.0926  18.1368  18.1669  18.2928  18.3279
    18.3580  18.5172  18.6184  18.7876  18.8993  18.9830  19.0018  19.0429
    19.1639  19.2520  19.3272  19.4477  19.5557  19.6573  19.7176  19.7768
    19.7985  19.8392  19.8898  19.9476  20.0039  20.0617  20.2519  20.3143
    20.3517  20.4113  20.4977  20.6002  20.6875  20.7341  20.7840  20.8651
    20.8950  20.9659  21.0237  21.1626  21.2608  21.3634  21.3855  21.5159
    21.5747  21.6146  21.6931  21.7422  21.7812  21.8200  21.8731  21.9307
    21.9906  22.0347  22.0668  22.0914  22.1666  22.2011  22.2379  22.2642
    22.3032  22.3783

          k = 0.2500 0.2303 0.0000 ( 26396 PWs)   bands (ev):

   -84.2824 -84.2746 -84.1393 -84.0709 -84.0451 -84.0332 -84.0263 -83.8135
   -53.0598 -52.9800 -52.9480 -52.9387 -52.9256 -52.9131 -52.8761 -52.8505
   -52.8028 -52.7987 -52.7920 -52.7645 -52.7573 -52.7570 -52.7344 -52.7235
   -52.7141 -52.6699 -52.6640 -52.6441 -52.6283 -52.5730 -52.4945 -52.4929
   -21.5175 -21.1120 -20.8318 -20.6363 -20.3111 -20.2360 -20.0963 -20.0442
   -19.9168 -19.9023 -19.8101 -19.6676 -19.5950 -19.5491 -19.4143 -19.3267
   -19.2359 -19.1411 -18.8343 -10.9130 -10.7764 -10.7166 -10.7011 -10.3828
   -10.3280 -10.1906 -10.1097 -10.0573  -9.6265  -9.4973  -9.4306  -9.3738
    -9.2986  -9.1820  -9.1390  -9.0465  -8.9483  -8.8386  -8.7829  -8.7238
    -8.7000  -8.6171  -8.5616  -8.5106  -8.4026  -8.3424  -8.3203  -8.2613
    -8.1510  -8.0849  -7.9916  -7.8681  -7.8153  -7.6887  -7.5613  -7.5168
    -7.3558  -7.2639  -7.1918  -7.0844  -6.5494  -6.3669  -6.1998  -5.9149
    -5.8805  -5.7410  -5.6929  -5.5576  -5.2727  -5.2363  -5.1813  -4.9957
    -4.8892  -4.6597  -4.5840  -4.4837  -4.3765  -4.3266  -4.2166  -4.1400
    -3.9635  -3.8304  -3.6567  -3.4734  -3.3035  -3.2370  -3.1459  -3.0507
    -2.9679  -2.9419  -2.8997  -2.7678  -2.6348  -2.5669  -2.5249  -2.4963
    -2.4152  -2.3492  -2.2082  -2.1503  -2.0002  -1.8617  -1.5515  -1.3185
    -1.0114  -0.8568  -0.5312  -0.4215  -0.1692  -0.1385   0.2225   0.3347
     0.3849   0.6178   0.7600   0.8044   3.7911   3.8472   4.3182   4.7666
     5.2748   5.6638   5.8526   5.9661   6.1906   6.3906   6.4647   6.6160
     6.7491   6.9282   7.0727   7.3656   7.5072   7.6716   7.8373   8.0549
     8.1781   8.3627   8.4827   8.5714   8.6939   8.8757   9.0790   9.1166
     9.2246   9.3662   9.4568   9.5293   9.7055   9.7727   9.8698   9.9875
    10.1251  10.1717  10.2749  10.4311  10.5328  10.6250  10.7006  10.8526
    11.0042  11.0759  11.1221  11.2252  11.2727  11.4078  11.4843  11.5341
    11.6059  11.7340  11.7818  11.8124  11.9691  12.0365  12.1290  12.2896
    12.3586  12.4586  12.4975  12.6109  12.6677  12.7610  12.8383  12.9217
    12.9599  12.9992  13.0384  13.1699  13.2397  13.2917  13.3895  13.4488
    13.4998  13.5354  13.6269  13.7182  13.7865  13.8257  13.8657  13.9960
    14.0188  14.0823  14.1853  14.2602  14.3364  14.3700  14.4351  14.5137
    14.5955  14.6582  14.7105  14.8143  14.8310  14.9442  15.0189  15.0657
    15.1447  15.3190  15.4003  15.4427  15.5377  15.6091  15.7854  15.8294
    15.9114  15.9903  16.0815  16.1162  16.1606  16.2750  16.3033  16.3513
    16.4149  16.5394  16.5723  16.7085  16.7559  16.8250  16.9509  17.0560
    17.0646  17.1576  17.1906  17.2706  17.2859  17.4230  17.4419  17.5494
    17.6417  17.7440  17.7960  17.9062  17.9522  18.0323  18.1691  18.2017
    18.2590  18.3661  18.3714  18.4405  18.5120  18.6055  18.7181  18.7768
    18.8750  18.9677  19.0085  19.0332  19.0988  19.1230  19.1849  19.3191
    19.3652  19.5124  19.5590  19.6558  19.6799  19.7680  19.8143  19.9503
    19.9653  20.0330  20.0737  20.1539  20.2250  20.3095  20.4158  20.4487
    20.5683  20.7410  20.8110  20.8697  20.8828  20.9010  21.0166  21.0713
    21.1944  21.2560  21.3163  21.4193  21.4701  21.5611  21.6375  21.6743
    21.7657  21.8510  21.9133  21.9914  22.0472  22.2216  22.2705  22.3691
    22.4169  22.5394

          k = 0.2500-0.4606 0.0000 ( 26462 PWs)   bands (ev):

   -84.2823 -84.2746 -84.1393 -84.0709 -84.0451 -84.0333 -84.0263 -83.8135
   -53.0599 -52.9800 -52.9477 -52.9390 -52.9255 -52.9132 -52.8763 -52.8501
   -52.8033 -52.7988 -52.7901 -52.7645 -52.7581 -52.7575 -52.7347 -52.7237
   -52.7141 -52.6699 -52.6640 -52.6441 -52.6283 -52.5730 -52.4947 -52.4930
   -21.4671 -21.1071 -20.6792 -20.5482 -20.3123 -20.2763 -20.1247 -20.0847
   -20.0786 -19.8708 -19.8518 -19.7776 -19.6476 -19.5077 -19.4184 -19.3057
   -19.2458 -19.1425 -18.8329 -10.8926 -10.8586 -10.5686 -10.4924 -10.4139
   -10.3923 -10.1339 -10.1202  -9.8598  -9.6500  -9.3377  -9.2193  -9.1623
    -9.1478  -9.0937  -8.9635  -8.9270  -8.9039  -8.8659  -8.8314  -8.7676
    -8.7268  -8.7094  -8.6648  -8.5762  -8.5316  -8.4911  -8.4372  -8.3395
    -8.2992  -8.2834  -8.2359  -8.0383  -7.7804  -7.6263  -7.5036  -7.4182
    -7.1923  -7.0768  -7.0637  -6.9765  -6.5312  -6.4922  -6.2990  -6.0336
    -5.9201  -5.8830  -5.7033  -5.6350  -5.5588  -5.4907  -5.1825  -5.0364
    -4.8095  -4.6094  -4.5358  -4.3244  -4.2689  -4.2008  -4.0861  -4.0748
    -3.9574  -3.7828  -3.6132  -3.3881  -3.3170  -3.3054  -3.1724  -3.1323
    -3.0852  -3.0120  -2.9958  -2.8139  -2.7343  -2.6670  -2.5594  -2.4497
    -2.4390  -2.4287  -2.3312  -2.2208  -2.1973  -2.0647  -1.9770  -1.1993
    -0.9540  -0.5853  -0.4768  -0.3843  -0.3696  -0.2788   0.3925   0.4087
     0.5082   0.7550   0.9404   1.2097   4.1078   4.3449   4.6939   4.9767
     5.0542   5.2678   5.4815   5.7815   6.0480   6.2098   6.4164   6.6685
     6.8366   6.9642   7.2171   7.2788   7.3338   7.4810   7.5385   7.7569
     7.9364   8.0614   8.1795   8.3563   8.5164   8.6397   8.7400   8.8785
     9.1503   9.2052   9.4642   9.5640   9.6307   9.8608   9.9005   9.9540
    10.0432  10.3022  10.5238  10.6331  10.7574  10.9621  11.0584  11.1831
    11.3191  11.3958  11.4187  11.6313  11.7420  11.8067  11.8896  11.9724
    11.9985  12.0582  12.1014  12.2000  12.2740  12.3409  12.4017  12.6285
    12.6831  12.7523  12.7920  12.8511  12.8864  12.9507  12.9799  13.0080
    13.0757  13.1293  13.1945  13.2395  13.3089  13.4402  13.4949  13.5508
    13.5772  13.6807  13.7355  13.7690  13.8346  13.8808  13.9327  14.0194
    14.0750  14.2070  14.2619  14.2795  14.3240  14.4567  14.5234  14.5732
    14.6546  14.7014  14.7229  14.8065  14.8732  14.9093  14.9773  15.0253
    15.0673  15.1431  15.1922  15.2287  15.2903  15.3578  15.4182  15.4682
    15.5594  15.6120  15.6473  15.7634  15.8378  15.8961  15.9393  16.0515
    16.1133  16.2519  16.3035  16.3642  16.4104  16.5211  16.6327  16.7131
    16.8166  16.9015  16.9358  17.0500  17.1093  17.1476  17.1918  17.4218
    17.5409  17.6864  17.7508  17.8841  17.9129  17.9943  18.0765  18.1197
    18.2782  18.3108  18.4044  18.4876  18.5329  18.5730  18.6567  18.7176
    18.8084  18.8729  18.9052  19.0177  19.0387  19.0772  19.1699  19.2093
    19.2496  19.4576  19.5646  19.6420  19.7009  19.7418  19.7736  19.7950
    19.8476  19.9394  20.0152  20.0479  20.1075  20.1270  20.1691  20.1887
    20.2429  20.3954  20.4881  20.6264  20.7294  20.8031  20.8738  20.9590
    20.9854  21.0413  21.1057  21.1327  21.1851  21.2145  21.3159  21.3340
    21.3774  21.4659  21.5214  21.6718  21.8362  21.9977  22.0525  22.2202
    22.3264  22.3762

          k =-0.5000 0.0000 0.0000 ( 26466 PWs)   bands (ev):

   -84.2796 -84.2765 -84.1389 -84.0702 -84.0440 -84.0332 -84.0267 -83.8132
   -53.0219 -53.0187 -52.9453 -52.9420 -52.9211 -52.9183 -52.8716 -52.8232
   -52.7988 -52.7939 -52.7897 -52.7651 -52.7599 -52.7565 -52.7525 -52.7345
   -52.7246 -52.6684 -52.6630 -52.6466 -52.6285 -52.5788 -52.4946 -52.4929
   -21.3141 -21.2996 -20.6543 -20.5956 -20.4362 -20.3822 -20.1809 -20.1351
[...]
     3.6887   3.7616   3.7831   3.8484   4.4570   4.4910   4.5000   4.9269
     5.0244   5.2154   5.4970   5.7251   6.0764   6.2900   6.7517   6.9858
     7.1331   7.3172   7.4134   7.5493   7.8597   8.1852   8.2298   8.4294
     8.4991   8.5063   8.5250   8.7590   8.8757   8.8933   8.9144   8.9401
     9.0543   9.1426   9.3373   9.4334   9.5345   9.5733   9.6447   9.7810
     9.8141   9.8856  10.1796  10.2002  10.3504  10.3633  10.4503  10.5016
    10.5546  10.6089  10.6770  10.7047  10.8398  11.0129  11.1948  11.3215
    11.3969  11.4799  11.5475  11.6223  11.9691  12.0283  12.1459  12.2876
    12.3333  12.3783  12.4991  12.6062  12.7605  12.8409  12.8978  12.9581
    13.0404  13.0563  13.1816  13.1952  13.2558  13.5210  13.5679  13.6900
    13.7743  13.8515  13.9271  13.9347  14.0420  14.1282  14.1639  14.1807
    14.2728  14.3292  14.3516  14.5463  14.6510  14.6787  14.7582  14.8766
    14.9613  14.9783  15.0359  15.1266  15.2052  15.2560  15.2867  15.3162
    15.3850  15.5199  15.6248  15.7144  15.9074  15.9569  15.9914  16.0231
    16.1409  16.2482  16.2694  16.4000  16.4347  16.6051  16.7346  16.8382
    16.8963  16.9425  17.0698  17.1113  17.1355  17.2465  17.2968  17.4323
    17.5475  17.6591  17.7075  17.8568  17.8958  18.0463  18.0680  18.1122
    18.1570  18.2249  18.2701  18.3076  18.3731  18.4234  18.4529  18.5688
    18.6609  18.7135  18.8010  18.8991  18.9262  19.0659  19.0842  19.1053
    19.1302  19.1731  19.1986  19.2526  19.3493  19.4162  19.4554  19.5238
    19.5756  19.6117  19.7673  19.9607  20.0566  20.1474  20.2061  20.2875
    20.3355  20.4087  20.4229  20.4928  20.5735  20.6397  20.6652  20.7000
    20.7425  20.7963  20.9045  20.9492  20.9725  20.9974  21.0300  21.0710
    21.0906  21.1460  21.2106  21.2566  21.2856  21.3621  21.4119  21.4397
    21.5357  21.6195  21.6352  21.6733  21.6972  21.7408  21.8144  21.8520
    21.8851  21.9183

          k =-0.5000 0.2303 0.0000 ( 26450 PWs)   bands (ev):

   -79.8524 -79.8472 -79.8351 -79.8321 -79.7185 -79.7141 -79.6780 -78.9158
   -48.7287 -48.7257 -48.6934 -48.6909 -48.6887 -48.6879 -48.6871 -48.6832
   -48.6640 -48.6621 -48.6367 -48.5735 -48.5680 -48.5645 -48.5608 -48.5466
   -48.5443 -48.5333 -48.3599 -48.3524 -48.3056 -47.9868 -47.8859 -47.4140
   -21.3702 -21.1827 -21.0134 -20.7900 -20.6144 -20.5905 -20.5255 -20.2158
   -20.1852 -20.0876 -20.0392 -19.9159 -19.9123 -19.8011 -19.7463 -19.6606
   -19.5290 -19.4432 -19.4058  -8.6802  -8.5542  -8.0475  -8.0078  -7.9705
    -7.9061  -7.5751  -7.4539  -7.4209  -7.2242  -7.0997  -7.0787  -6.9895
    -6.8808  -6.8118  -6.6365  -6.5793  -6.4379  -6.3615  -6.2138  -6.1915
    -6.0255  -5.9697  -5.8768  -5.8370  -5.7689  -5.7321  -5.6780  -5.6456
    -5.6119  -5.4865  -5.4177  -5.3233  -5.2889  -5.1880  -5.1537  -5.0955
    -4.9565  -4.8685  -4.8274  -4.7164  -4.6178  -4.4465  -4.4098  -4.2514
    -4.1606  -4.0749  -4.0532  -3.9157  -3.8341  -3.6582  -3.4965  -3.4550
    -3.3825  -3.2680  -2.9901  -2.9799   1.8616   1.8866   2.0532   2.0654
     2.1359   2.1450   2.2028   2.2093   2.2362   2.2780   2.3135   2.3579
     2.3907   2.4046   2.4429   2.4699   2.5894   2.5966   2.6130   2.6493
     2.7571   2.8078   2.8189   2.9084   3.0275   3.0529   3.0817   3.1085
     3.1236   3.1761   3.1899   3.2110   3.2879   3.3711   3.5457   3.5834
     3.6895   3.7338   3.7590   3.7924   4.5995   4.7217   4.7370   5.1708
     5.2599   5.4541   5.7103   5.9518   6.2199   6.3928   6.5348   6.6911
     6.8104   7.0894   7.1590   7.2634   7.3239   7.3767   7.4703   7.5974
     7.7399   7.8735   8.1226   8.3154   8.4276   8.5878   8.7289   8.9050
     9.1015   9.2070   9.2580   9.3908   9.6702   9.7389  10.0248  10.1029
    10.2845  10.3886  10.5719  10.5992  10.7006  10.7204  10.8653  10.9447
    11.0508  11.0985  11.2468  11.2837  11.4245  11.5381  11.5925  11.6888
    11.7495  11.7813  11.8503  11.9895  12.2083  12.2957  12.3179  12.3588
    12.4940  12.5746  12.7130  12.7969  12.8291  12.9103  13.0504  13.1550
    13.2223  13.3530  13.4054  13.4621  13.5633  13.6640  13.7199  13.7890
    13.8429  13.9610  14.0056  14.1450  14.1962  14.2581  14.4003  14.4373
    14.4524  14.4882  14.5565  14.5952  14.6679  14.7466  14.7879  14.8193
    14.9219  14.9658  15.0365  15.1234  15.2100  15.2190  15.2900  15.4498
    15.4718  15.5522  15.6233  15.6844  15.7305  15.8815  15.9302  15.9830
    16.0704  16.1168  16.2013  16.2849  16.3383  16.3609  16.3983  16.4777
    16.5203  16.5648  16.6120  16.7525  16.8238  16.9379  16.9483  17.0044
    17.0271  17.0948  17.1182  17.1711  17.2922  17.3682  17.4238  17.5055
    17.6061  17.6604  17.6899  17.7422  17.7791  17.8513  17.8939  17.9331
    18.0349  18.0984  18.2142  18.2433  18.2870  18.3248  18.4970  18.5510
    18.6321  18.7070  18.8614  18.9575  19.1271  19.2351  19.2682  19.3603
    19.4055  19.5342  19.6257  19.6700  19.7042  19.8667  19.9269  19.9735
    20.1130  20.1429  20.2577  20.3312  20.3523  20.3719  20.4185  20.4553
    20.4795  20.5116  20.5416  20.6011  20.6395  20.8546  20.9430  21.1082
    21.1307  21.2080  21.3382  21.3628  21.4278  21.5125  21.5837  21.6125
    21.6756  21.7531  21.8987  21.9303  21.9569  22.1310  22.2102  22.2271
    22.3001  22.3790

          k =-0.5000-0.4606 0.0000 ( 26416 PWs)   bands (ev):

   -79.8524 -79.8472 -79.8352 -79.8321 -79.7185 -79.7141 -79.6780 -78.9158
   -48.7287 -48.7258 -48.6936 -48.6909 -48.6886 -48.6877 -48.6873 -48.6832
   -48.6631 -48.6613 -48.6356 -48.5732 -48.5670 -48.5660 -48.5618 -48.5466
   -48.5443 -48.5339 -48.3598 -48.3524 -48.3056 -47.9867 -47.8860 -47.4140
   -21.3338 -21.1241 -20.8759 -20.7050 -20.6483 -20.5573 -20.5163 -20.4651
   -20.2818 -20.1757 -20.0793 -19.9526 -19.9415 -19.7682 -19.6924 -19.6376
   -19.5145 -19.4340 -19.3870  -8.6443  -8.5106  -7.8227  -7.6159  -7.6075
    -7.5673  -7.4530  -7.3653  -7.3313  -7.2319  -7.1656  -7.0485  -6.9461
    -6.8186  -6.7069  -6.6522  -6.5436  -6.4942  -6.3775  -6.3380  -6.3333
    -6.2967  -6.2763  -6.1218  -6.0204  -5.9838  -5.9341  -5.8212  -5.7955
    -5.6806  -5.5369  -5.4820  -5.4074  -5.2775  -5.2040  -5.1828  -5.1009
    -4.8936  -4.8310  -4.7478  -4.7099  -4.6733  -4.4948  -4.3991  -4.2954
    -4.2396  -4.0539  -4.0206  -3.9472  -3.8688  -3.6454  -3.5845  -3.4440
    -3.3746  -3.2066  -2.9608  -2.9483   2.0210   2.0320   2.1026   2.1687
     2.1872   2.2542   2.2681   2.2733   2.3178   2.3228   2.3381   2.4107
     2.4205   2.4259   2.4521   2.4795   2.5386   2.5731   2.6108   2.6252
     2.7438   2.7492   2.8085   2.8603   2.9342   2.9617   3.0242   3.0790
     3.1021   3.2185   3.2563   3.2782   3.3345   3.4031   3.4357   3.5122
     3.6158   3.6667   3.6998   3.7419   4.8075   5.2388   5.2634   5.5732
     5.5786   5.8655   5.8702   5.9339   5.9745   6.1220   6.1499   6.2505
     6.4204   6.6194   6.6826   6.7953   6.9962   7.1884   7.3353   7.4636
     7.7321   7.8265   7.9776   8.1420   8.1961   8.3195   8.3958   8.4819
     8.6939   8.8784   9.2516   9.3420   9.4175   9.5878   9.9928  10.1119
    10.3000  10.5352  10.6296  10.7312  10.8158  10.8776  11.2340  11.3380
    11.3967  11.4963  11.6024  11.8953  12.0128  12.2595  12.2968  12.3492
    12.4053  12.4656  12.5478  12.5599  12.6810  12.7187  12.8382  12.9201
    13.1402  13.1892  13.2185  13.3125  13.4201  13.4635  13.5386  13.5961
    13.6061  13.6324  13.7448  13.8160  13.8199  13.8385  13.8754  13.9029
    14.0007  14.0433  14.0481  14.0940  14.2074  14.2220  14.3120  14.3326
    14.3674  14.4454  14.4678  14.5550  14.7453  14.8334  14.8627  14.9262
    14.9576  14.9699  15.0453  15.0728  15.1123  15.1396  15.1675  15.2551
    15.2783  15.3011  15.3485  15.4695  15.4799  15.4975  15.5079  15.5966
    15.6507  15.7191  15.7673  15.8351  15.8596  15.8956  16.0237  16.0797
    16.0845  16.1116  16.1623  16.1766  16.2492  16.3704  16.4994  16.5384
    16.5409  16.5749  16.6590  16.7078  16.7719  16.8590  16.9455  16.9923
    17.0362  17.0709  17.1792  17.2065  17.2659  17.3388  17.3612  17.4451
    17.6836  17.7836  17.9651  18.1634  18.1757  18.1832  18.2261  18.2894
    18.3258  18.4238  18.4947  18.5437  18.7276  18.7718  18.8075  18.8231
    18.9506  19.1197  19.1779  19.3728  19.4425  19.4735  19.6177  19.7417
    19.9962  20.2534  20.2932  20.3966  20.4321  20.4822  20.5918  20.7184
    20.7496  20.7821  20.7954  20.8440  20.8551  20.9047  21.1478  21.3149
    21.4543  21.6037  21.7446  21.7912  21.8205  21.9067  21.9383  21.9877
    22.0585  22.1217  22.2144  22.2324  22.5142  22.6016  22.6827  22.7231
    22.7860  22.8268

          k =-0.2500 0.2303 0.0000 ( 26396 PWs)   bands (ev):

   -79.8541 -79.8448 -79.8375 -79.8291 -79.7208 -79.7111 -79.6777 -78.9154
   -48.7375 -48.7349 -48.7316 -48.7289 -48.7104 -48.6954 -48.6862 -48.6415
   -48.6402 -48.6382 -48.6101 -48.5794 -48.5717 -48.5618 -48.5543 -48.5538
   -48.5366 -48.5335 -48.3615 -48.3508 -48.3056 -47.9831 -47.8858 -47.4141
   -21.5355 -21.2036 -21.0264 -20.8235 -20.6616 -20.4518 -20.3132 -20.2982
   -20.1910 -20.0545 -20.0036 -19.9537 -19.8485 -19.8123 -19.7454 -19.6717
   -19.5538 -19.4347 -19.3845  -8.7997  -8.5435  -8.2094  -8.1320  -8.1074
    -7.9017  -7.7651  -7.6394  -7.3539  -7.2886  -7.1188  -7.0085  -6.9275
    -6.8325  -6.7599  -6.7397  -6.6195  -6.5262  -6.3884  -6.3031  -6.2088
    -6.0981  -6.0378  -5.9477  -5.8657  -5.7587  -5.6542  -5.5971  -5.5735
    -5.4815  -5.4064  -5.3356  -5.2325  -5.1445  -5.1198  -5.0018  -4.9363
    -4.8488  -4.7186  -4.6547  -4.5924  -4.5160  -4.3950  -4.3767  -4.3227
    -4.2060  -4.1285  -4.0226  -3.8944  -3.8416  -3.6508  -3.5850  -3.5063
    -3.3665  -3.1869  -3.1499  -2.8842   1.8668   1.9392   1.9683   1.9999
     2.0618   2.0924   2.1088   2.1545   2.1812   2.2306   2.3416   2.3566
     2.3831   2.4135   2.4383   2.5341   2.5539   2.6648   2.7075   2.7421
     2.7881   2.8542   2.8714   2.9102   2.9809   2.9984   3.0950   3.1230
     3.1471   3.2186   3.2943   3.3282   3.4138   3.4535   3.5179   3.6044
     3.6490   3.7292   3.7654   3.8663   3.9246   4.1353   4.4320   4.9095
     5.4391   5.7692   5.9727   6.0275   6.3018   6.4623   6.5672   6.6298
     6.7627   6.9385   7.1318   7.3668   7.5130   7.7113   7.9054   8.0170
     8.2820   8.4034   8.4973   8.5313   8.5825   8.6925   8.8956   9.0103
     9.2099   9.3085   9.4171   9.5287   9.6401   9.6894   9.9215   9.9952
    10.0617  10.2124  10.2888  10.3939  10.4894  10.7013  10.7344  10.8724
    10.9474  11.0547  11.0974  11.2091  11.2957  11.3663  11.4849  11.6138
    11.6897  11.7422  11.7962  11.8472  11.9548  12.0683  12.0966  12.2358
    12.3396  12.4547  12.5628  12.6433  12.6793  12.7973  12.8918  12.9458
    13.0112  13.1205  13.1440  13.1912  13.2398  13.3027  13.3784  13.4786
    13.5389  13.5862  13.6328  13.6684  13.7088  13.8292  13.8890  13.9547
    14.0490  14.1667  14.2094  14.2401  14.3248  14.3690  14.4282  14.5580
    14.6251  14.7042  14.8025  14.8957  14.9940  15.0083  15.1110  15.1838
    15.2773  15.3611  15.4642  15.5986  15.6751  15.8309  15.9191  15.9732
    16.0647  16.1813  16.2180  16.2748  16.3318  16.4060  16.4712  16.5669
    16.6356  16.6678  16.8135  16.8687  16.9559  17.0034  17.1000  17.1822
    17.2083  17.3015  17.4278  17.4578  17.5672  17.6102  17.6661  17.7913
    17.8530  17.9013  17.9911  18.0942  18.1450  18.2431  18.2742  18.3304
    18.4140  18.5023  18.5715  18.6241  18.6668  18.8215  18.8519  18.9145
    19.0506  19.0810  19.1312  19.2279  19.2838  19.3078  19.4126  19.4771
    19.6185  19.7190  19.7944  19.8940  19.9234  19.9862  20.0380  20.0987
    20.1452  20.2046  20.2248  20.3116  20.3899  20.4592  20.6015  20.6219
    20.7110  20.8522  20.9160  21.0364  21.0971  21.1304  21.1986  21.2346
    21.2886  21.3786  21.5394  21.5740  21.6240  21.7271  21.7762  21.7991
    21.8729  21.9681  22.0693  22.1274  22.2199  22.3058  22.3511  22.4098
    22.5153  22.6176

     the spin up/dw Fermi energies are    -2.3214   -0.3654 ev

!    total energy              =   -2319.70470094 Ry
     Harris-Foulkes estimate   =   -2319.70470094 Ry
     estimated scf accuracy    <          7.3E-09 Ry

     The total energy is the sum of the following terms:

     one-electron contribution =  -25775.88446135 Ry
     hartree contribution      =   12908.42787924 Ry
     xc contribution           =    -349.87738454 Ry
     ewald contribution        =   10895.67629837 Ry
     Hubbard energy            =       1.95246192 Ry
     smearing contrib. (-TS)   =       0.00050543 Ry

     total magnetization       =    23.00 Bohr mag/cell
     absolute magnetization    =    38.05 Bohr mag/cell

     convergence has been achieved in  18 iterations

     Forces acting on atoms (Ry/au):


     negative rho (up, down):  0.152E-02 0.140E-02
     atom    1 type  1   force =    -0.00342273   -0.01117029    0.00033979
     atom    2 type  1   force =     0.00087950    0.00502672   -0.00037662
     atom    3 type  2   force =     0.01284411    0.00292243    0.00032247
     atom    4 type  2   force =     0.00555140    0.01012109   -0.00023170
     atom    5 type  1   force =     0.00192208    0.00890033   -0.00049970
     atom    6 type  1   force =    -0.00006744   -0.01538516   -0.00030131
     atom    7 type  1   force =     0.00141628    0.00317445    0.00053493
     atom    8 type  1   force =     0.00021967   -0.00283384    0.00052400
     atom    9 type  2   force =     0.00995180    0.00008362   -0.00070242
     atom   10 type  2   force =     0.00083254   -0.00259806   -0.00021575
     atom   11 type  1   force =    -0.01800866   -0.01438566    0.00007844
     atom   12 type  1   force =    -0.01782523    0.01533042    0.00039163
     atom   13 type  1   force =    -0.00208502   -0.00074398    0.00009487
     atom   14 type  1   force =    -0.00407510   -0.01087940    0.00046504
     atom   15 type  1   force =     0.00038603    0.00407557    0.00010061
     atom   16 type  2   force =    -0.01515895    0.00335576    0.00027465
     atom   17 type  2   force =     0.00581120    0.01004691   -0.00029217
     atom   18 type  1   force =     0.00055026    0.00876601   -0.00040928
     atom   19 type  1   force =    -0.00314200   -0.01549949   -0.00025023
     atom   20 type  1   force =    -0.00070278    0.00417919    0.00006625
     atom   21 type  1   force =    -0.00283420   -0.00287908    0.00030588
     atom   22 type  2   force =    -0.00848893    0.00071269   -0.00062719
     atom   23 type  2   force =     0.00035430   -0.00104598    0.00057987
     atom   24 type  1   force =     0.01707553   -0.00921628   -0.00006419
     atom   25 type  1   force =     0.01785577    0.00985220    0.00011569
     atom   26 type  1   force =     0.00090793   -0.00071691    0.00018458
     atom   27 type  3   force =     0.00002108    0.00046247    0.00041769
     atom   28 type  3   force =     0.00001604    0.00017171    0.00052343
     atom   29 type  3   force =    -0.00026498   -0.00008270   -0.00036175
     atom   30 type  3   force =    -0.00031096   -0.00005755   -0.00036197
     atom   31 type  1   force =    -0.00039906    0.00030504   -0.00068428
     atom   32 type  3   force =     0.00019053    0.00000777    0.00005875

     Total force =     0.002327     Total SCF correction =     0.000477
     SCF correction compared to forces is large: reduce conv_thr to get better values

     bfgs converged in  23 scf cycles and  22 bfgs steps
     (criteria: energy < 0.10E-03, force < 0.10E-02)

     End of BFGS Geometry Optimization

     Final energy   =   -2319.7047009355 Ry
Begin final coordinates

ATOMIC_POSITIONS (crystal)
O0       0.000000000   0.000000000   0.371299135    0   0   1
O0       0.000000000   0.500000000   0.391980282    0   0   1
Mn1      0.250000000   0.500000000   0.445895160    0   0   1
Mn1      0.000000000   0.000000000   0.446122215    0   0   1
O0       0.250000000   0.800000000   0.444149372    0   0   1
O0       0.250000000   0.200000000   0.449181932    0   0   1
O0       0.000000000   0.500000000   0.493729947    0   0   1
O0       0.000000000   0.000000000   0.525337452    0   0   1
Mn1      0.250000000   0.000000000   0.574820442    0   0   1
Mn1      0.000000000   0.500000000   0.570452451    0   0   1
O0       0.250000000   0.700000000   0.585323751    0   0   1
O0       0.250000000   0.300000000   0.586015559    0   0   1
O0       0.000000000   0.000000000   0.624870111    0   0   1
O0       0.500000000   0.000000000   0.371162959    0   0   1
O0       0.500000000   0.500000000   0.392203850    0   0   1
Mn1      0.750000000   0.500000000   0.445944728    0   0   1
Mn1      0.500000000   0.000000000   0.445909736    0   0   1
O0       0.750000000   0.800000000   0.443857119    0   0   1
O0       0.750000000   0.200000000   0.448958027    0   0   1
O0       0.500000000   0.500000000   0.497641496    0   0   1
O0       0.500000000   0.000000000   0.525343795    0   0   1
Mn1      0.750000000   0.000000000   0.574601066    0   0   1
Mn1      0.500000000   0.500000000   0.579742681    0   0   1
O0       0.750000000   0.700000000   0.583172993    0   0   1
O0       0.750000000   0.300000000   0.584079266    0   0   1
O0       0.500000000   0.000000000   0.625613604    0   0   1
H2       0.000562544   0.648154302   0.376552663
H2       0.500741666   0.647230100   0.376476642
H2       0.161083322   0.045737277   0.361072441
H2       0.660768162   0.046870171   0.361001801
O0       0.516100258   0.503217436   0.656168819
H2       0.353030317   0.500220592   0.669198505
End final coordinates



     init_run     :    132.10s CPU    146.69s WALL (       1 calls)
     electrons    : 145202.48s CPU 152593.90s WALL (      23 calls)
     update_pot   :    391.42s CPU    408.40s WALL (      22 calls)
     forces       :   4994.45s CPU   5166.01s WALL (      23 calls)

     Called by init_run:
     wfcinit      :     54.71s CPU     58.54s WALL (       1 calls)
     potinit      :      7.82s CPU      8.37s WALL (       1 calls)

     Called by electrons:
     c_bands      :  78551.04s CPU  81927.54s WALL (     542 calls)
     sum_band     :  33406.35s CPU  35055.86s WALL (     542 calls)
     v_of_rho     :   1317.24s CPU   1503.97s WALL (     563 calls)
     newd         :  32491.97s CPU  33917.11s WALL (     563 calls)
     mix_rho      :    244.29s CPU    256.92s WALL (     542 calls)

     Called by c_bands:
     init_us_2    :    176.34s CPU    177.90s WALL (    5770 calls)
     cegterg      :  77490.38s CPU  80428.60s WALL (    2710 calls)

     Called by *egterg:
     h_psi        :  45066.94s CPU  46873.67s WALL (    7709 calls)
     s_psi        :   4256.37s CPU   4326.87s WALL (    7939 calls)
     g_psi        :     94.02s CPU     94.08s WALL (    4994 calls)
     cdiaghg      :   7807.34s CPU   7832.28s WALL (    7584 calls)

     Called by h_psi:
     add_vuspsi   :   4176.76s CPU   4254.75s WALL (    7709 calls)
     vhpsi        :   4243.97s CPU   4393.14s WALL (    7709 calls)

     General routines
     calbec       :  10182.86s CPU  10430.78s WALL (   54418 calls)
     fft          :   2019.35s CPU   2907.87s WALL (   17676 calls)
     ffts         :     18.04s CPU     20.76s WALL (    2210 calls)
     fftw         :  24583.44s CPU  26638.22s WALL ( 4932292 calls)
     interpolate  :    181.37s CPU    189.30s WALL (    2210 calls)
     davcio       :      0.34s CPU    110.11s WALL (    5885 calls)

     Parallel routines
     fft_scatter  :  11381.49s CPU  14277.15s WALL ( 4952178 calls)
     Hubbard U routines
     new_ns       :    986.44s CPU   1058.40s WALL (     542 calls)
     vhpsi        :   4243.97s CPU   4393.14s WALL (    7709 calls)
     force_hub    :   1254.96s CPU   1297.31s WALL (      23 calls)

     PWSCF        :     1d   18h16m CPU        1d   20h23m WALL


   This run was terminated on:  17:11:33   6May2014            

=------------------------------------------------------------------------------=
   JOB DONE.
=------------------------------------------------------------------------------=
