
     Program PWSCF v.5.0.2 (svn rev. 9656) starts on 14Feb2014 at 22:43: 0 

     This program is part of the open-source Quantum ESPRESSO suite
     for quantum simulation of materials; please cite
         "P. Giannozzi et al., J. Phys.:Condens. Matter 21 395502 (2009);
          URL http://www.quantum-espresso.org", 
     in publications or presentations arising from this work. More details at
     http://www.quantum-espresso.org/quote.php

     Parallel version (MPI), running on    16 processors
     R & G space division:  proc/nbgrp/npool/nimage =      16

     Current dimensions of program PWSCF are:
     Max number of different atomic species (ntypx) = 10
     Max number of k-points (npk) =  40000
     Max angular momentum in pseudopotentials (lmaxx) =  3
     Reading input from alpha_0.15/alpha_0.15.in
Warning: card &IONS ignored
Warning: card / ignored
Warning: card &CELL ignored
Warning: card / ignored

     Subspace diagonalization in iterative solution of the eigenvalue problem:
     a serial algorithm will be used


     Parallelization info
     --------------------
     sticks:   dense  smooth     PW     G-vecs:    dense   smooth      PW
     Min         674     216     60                34388     6218     932
     Max         675     217     61                34391     6245     935
     Sum       10797    3457    973               550249    99667   14947



     bravais-lattice index     =            0
     lattice parameter (alat)  =      16.4784  a.u.
     unit-cell volume          =    2914.5930 (a.u.)^3
     number of atoms/cell      =           48
     number of atomic types    =            3
     number of electrons       =       432.00
     number of Kohn-Sham states=          624
     kinetic-energy cutoff     =      40.0000  Ry
     charge density cutoff     =     500.0000  Ry
     convergence threshold     =      1.0E-06
     mixing beta               =       0.7000
     number of iterations used =            8  plain     mixing
     Exchange-correlation      = SLA  PW   PBE  PBE ( 1 4 3 4 0)
     EXX-fraction              =        0.00

     celldm(1)=  16.478412  celldm(2)=   0.000000  celldm(3)=   0.000000
     celldm(4)=   0.000000  celldm(5)=   0.000000  celldm(6)=   0.000000

     crystal axes: (cart. coord. in units of alat)
               a(1) = (   1.000000   0.000000   0.000000 )  
               a(2) = (   0.000000   1.000000   0.000000 )  
               a(3) = (   0.000000   0.000000   0.651376 )  

     reciprocal axes: (cart. coord. in units 2 pi/alat)
               b(1) = (  1.000000  0.000000  0.000000 )  
               b(2) = (  0.000000  1.000000  0.000000 )  
               b(3) = (  0.000000  0.000000  1.535211 )  


     PseudoPot. # 1 for Mn read from file:
     /home/camp/zhonxu/pseudo/mn_pbe_v1.uspp.F.UPF
     MD5 check sum: 5fd7c7b5c956fd19902447332617373a
     Pseudo is Ultrasoft + core correction, Zval = 15.0
     Generated by new atomic code, or converted to UPF format
     Using radial grid of  859 points,  6 beta functions with: 
                l(1) =   0
                l(2) =   0
                l(3) =   1
                l(4) =   1
                l(5) =   2
                l(6) =   2
     Q(r) pseudized with  6 coefficients,  rinner =    1.150   1.150   1.150
                                                       1.150   1.150

     PseudoPot. # 2 for Mn read from file:
     /home/camp/zhonxu/pseudo/mn_pbe_v1.uspp.F.UPF
     MD5 check sum: 5fd7c7b5c956fd19902447332617373a
     Pseudo is Ultrasoft + core correction, Zval = 15.0
     Generated by new atomic code, or converted to UPF format
     Using radial grid of  859 points,  6 beta functions with: 
                l(1) =   0
                l(2) =   0
                l(3) =   1
                l(4) =   1
                l(5) =   2
                l(6) =   2
     Q(r) pseudized with  6 coefficients,  rinner =    1.150   1.150   1.150
                                                       1.150   1.150

     PseudoPot. # 3 for O  read from file:
     /home/camp/zhonxu/pseudo/o_pbe_v1.01.uspp.F.UPF
     MD5 check sum: 2bcb18d16ea4b960afae9ec6d52f22d2
     Pseudo is Ultrasoft + core correction, Zval =  6.0
     Generated by new atomic code, or converted to UPF format
     Using radial grid of  737 points,  5 beta functions with: 
                l(1) =   0
                l(2) =   0
                l(3) =   1
                l(4) =   1
                l(5) =   2
     Q(r) pseudized with  8 coefficients,  rinner =    0.900   0.900   0.900
                                                       0.900   0.900

     atomic species   valence    mass     pseudopotential
        Mn0           15.00    54.93800     Mn( 1.00)
        Mn1           15.00    54.93800     Mn( 1.00)
        O2             6.00    15.99940     O ( 1.00)

     Starting magnetic structure 
     atomic species   magnetization
        Mn0          0.600
        Mn1          0.600
        O2           0.000


     Simplified LDA+U calculation (l_max = 2) with parameters (eV):
     atomic species    L          U    alpha       J0     beta
        Mn0            2     0.0000   0.1500   0.0000   0.0000
        Mn1            2     0.0000   0.0000   0.0000   0.0000
        O2             1     0.0000   0.0000   0.0000   0.0000



      8 Sym. Ops., with inversion, found



   Cartesian axes

     site n.     atom                  positions (alat units)
         1           Mn0 tau(   1) = (   0.0000000   0.0000000   0.0000000  )
         2           Mn1 tau(   2) = (   0.2500000   0.2500000   0.1628440  )
         3           Mn1 tau(   3) = (   0.0000000   0.0000000   0.3256881  )
         4           Mn1 tau(   4) = (   0.2500000   0.2500000   0.4885321  )
         5           Mn1 tau(   5) = (   0.0000000   0.5000000   0.0000000  )
         6           Mn1 tau(   6) = (   0.2500000   0.7500000   0.1628440  )
         7           Mn1 tau(   7) = (   0.0000000   0.5000000   0.3256881  )
         8           Mn1 tau(   8) = (   0.2500000   0.7500000   0.4885321  )
         9           Mn1 tau(   9) = (   0.5000000   0.0000000   0.0000000  )
        10           Mn1 tau(  10) = (   0.7500000   0.2500000   0.1628440  )
        11           Mn1 tau(  11) = (   0.5000000   0.0000000   0.3256881  )
        12           Mn1 tau(  12) = (   0.7500000   0.2500000   0.4885321  )
        13           Mn1 tau(  13) = (   0.5000000   0.5000000   0.0000000  )
        14           Mn1 tau(  14) = (   0.7500000   0.7500000   0.1628440  )
        15           Mn1 tau(  15) = (   0.5000000   0.5000000   0.3256881  )
        16           Mn1 tau(  16) = (   0.7500000   0.7500000   0.4885321  )
        17           O2  tau(  17) = (   0.1500000   0.1500000   0.0000000  )
        18           O2  tau(  18) = (  -0.1500000  -0.1500000   0.0000000  )
        19           O2  tau(  19) = (   0.4000000   0.1000000   0.1628440  )
        20           O2  tau(  20) = (   0.1000000   0.4000000   0.1628440  )
        21           O2  tau(  21) = (   0.1500000   0.1500000   0.3256881  )
        22           O2  tau(  22) = (  -0.1500000  -0.1500000   0.3256881  )
        23           O2  tau(  23) = (   0.4000000   0.1000000   0.4885321  )
        24           O2  tau(  24) = (   0.1000000   0.4000000   0.4885321  )
        25           O2  tau(  25) = (   0.1500000   0.6500000   0.0000000  )
        26           O2  tau(  26) = (  -0.1500000   0.3500000   0.0000000  )
        27           O2  tau(  27) = (   0.4000000   0.6000000   0.1628440  )
        28           O2  tau(  28) = (   0.1000000   0.9000000   0.1628440  )
        29           O2  tau(  29) = (   0.1500000   0.6500000   0.3256881  )
        30           O2  tau(  30) = (  -0.1500000   0.3500000   0.3256881  )
        31           O2  tau(  31) = (   0.4000000   0.6000000   0.4885321  )
        32           O2  tau(  32) = (   0.1000000   0.9000000   0.4885321  )
        33           O2  tau(  33) = (   0.6500000   0.1500000   0.0000000  )
        34           O2  tau(  34) = (   0.3500000  -0.1500000   0.0000000  )
        35           O2  tau(  35) = (   0.9000000   0.1000000   0.1628440  )
        36           O2  tau(  36) = (   0.6000000   0.4000000   0.1628440  )
        37           O2  tau(  37) = (   0.6500000   0.1500000   0.3256881  )
        38           O2  tau(  38) = (   0.3500000  -0.1500000   0.3256881  )
        39           O2  tau(  39) = (   0.9000000   0.1000000   0.4885321  )
        40           O2  tau(  40) = (   0.6000000   0.4000000   0.4885321  )
        41           O2  tau(  41) = (   0.6500000   0.6500000   0.0000000  )
        42           O2  tau(  42) = (   0.3500000   0.3500000   0.0000000  )
        43           O2  tau(  43) = (   0.9000000   0.6000000   0.1628440  )
        44           O2  tau(  44) = (   0.6000000   0.9000000   0.1628440  )
        45           O2  tau(  45) = (   0.6500000   0.6500000   0.3256881  )
        46           O2  tau(  46) = (   0.3500000   0.3500000   0.3256881  )
        47           O2  tau(  47) = (   0.9000000   0.6000000   0.4885321  )
        48           O2  tau(  48) = (   0.6000000   0.9000000   0.4885321  )

     number of k points=    42  Methfessel-Paxton smearing, width (Ry)=  0.0100
                       cart. coord. in units 2pi/alat
        k(    1) = (   0.0000000   0.0000000   0.0000000), wk =   0.0156250
        k(    2) = (   0.0000000   0.0000000   0.3838028), wk =   0.0312500
        k(    3) = (   0.0000000   0.0000000  -0.7676056), wk =   0.0156250
        k(    4) = (   0.0000000   0.2500000   0.0000000), wk =   0.0625000
        k(    5) = (   0.0000000   0.2500000   0.3838028), wk =   0.1250000
        k(    6) = (   0.0000000   0.2500000  -0.7676056), wk =   0.0625000
        k(    7) = (   0.0000000  -0.5000000   0.0000000), wk =   0.0312500
        k(    8) = (   0.0000000  -0.5000000   0.3838028), wk =   0.0625000
        k(    9) = (   0.0000000  -0.5000000  -0.7676056), wk =   0.0312500
        k(   10) = (   0.2500000   0.2500000   0.0000000), wk =   0.0312500
        k(   11) = (   0.2500000   0.2500000   0.3838028), wk =   0.0625000
        k(   12) = (   0.2500000   0.2500000  -0.7676056), wk =   0.0312500
        k(   13) = (   0.2500000  -0.5000000   0.0000000), wk =   0.0625000
        k(   14) = (   0.2500000  -0.5000000   0.3838028), wk =   0.1250000
        k(   15) = (   0.2500000  -0.5000000  -0.7676056), wk =   0.0625000
        k(   16) = (  -0.5000000  -0.5000000   0.0000000), wk =   0.0156250
        k(   17) = (  -0.5000000  -0.5000000   0.3838028), wk =   0.0312500
        k(   18) = (  -0.5000000  -0.5000000  -0.7676056), wk =   0.0156250
        k(   19) = (  -0.2500000   0.2500000   0.0000000), wk =   0.0312500
        k(   20) = (  -0.2500000   0.2500000  -0.3838028), wk =   0.0625000
        k(   21) = (  -0.2500000   0.2500000   0.7676056), wk =   0.0312500
        k(   22) = (   0.0000000   0.0000000   0.0000000), wk =   0.0156250
        k(   23) = (   0.0000000   0.0000000   0.3838028), wk =   0.0312500
        k(   24) = (   0.0000000   0.0000000  -0.7676056), wk =   0.0156250
        k(   25) = (   0.0000000   0.2500000   0.0000000), wk =   0.0625000
        k(   26) = (   0.0000000   0.2500000   0.3838028), wk =   0.1250000
        k(   27) = (   0.0000000   0.2500000  -0.7676056), wk =   0.0625000
        k(   28) = (   0.0000000  -0.5000000   0.0000000), wk =   0.0312500
        k(   29) = (   0.0000000  -0.5000000   0.3838028), wk =   0.0625000
        k(   30) = (   0.0000000  -0.5000000  -0.7676056), wk =   0.0312500
        k(   31) = (   0.2500000   0.2500000   0.0000000), wk =   0.0312500
        k(   32) = (   0.2500000   0.2500000   0.3838028), wk =   0.0625000
        k(   33) = (   0.2500000   0.2500000  -0.7676056), wk =   0.0312500
        k(   34) = (   0.2500000  -0.5000000   0.0000000), wk =   0.0625000
        k(   35) = (   0.2500000  -0.5000000   0.3838028), wk =   0.1250000
        k(   36) = (   0.2500000  -0.5000000  -0.7676056), wk =   0.0625000
        k(   37) = (  -0.5000000  -0.5000000   0.0000000), wk =   0.0156250
        k(   38) = (  -0.5000000  -0.5000000   0.3838028), wk =   0.0312500
        k(   39) = (  -0.5000000  -0.5000000  -0.7676056), wk =   0.0156250
        k(   40) = (  -0.2500000   0.2500000   0.0000000), wk =   0.0312500
        k(   41) = (  -0.2500000   0.2500000  -0.3838028), wk =   0.0625000
        k(   42) = (  -0.2500000   0.2500000   0.7676056), wk =   0.0312500

     Dense  grid:   550249 G-vectors     FFT dimensions: ( 120, 120,  80)

     Smooth grid:    99667 G-vectors     FFT dimensions: (  72,  72,  45)

     Largest allocated arrays     est. size (Mb)     dimensions
        Kohn-Sham Wavefunctions         7.48 Mb     (    786,  624)
        Atomic wavefunctions            4.03 Mb     (    786,  336)
        NL pseudopotentials             8.44 Mb     (    786,  704)
        Each V/rho on FFT grid          2.20 Mb     (  72000,   2)
        Each G-vector array             0.26 Mb     (  34390)
        G-vector shells                 0.10 Mb     (  12759)
     Largest temporary arrays     est. size (Mb)     dimensions
        Auxiliary wavefunctions        29.94 Mb     (    786, 2496)
        Each subspace H/S matrix       95.06 Mb     (2496,2496)
        Each <psi_i|beta_j> matrix      6.70 Mb     (    704,  624)
        Arrays for rho mixing           8.79 Mb     (  72000,   8)

     Check: negative/imaginary core charge=   -0.000063    0.000000

     The initial density is read from file :
     alpha_0.15/pwscf.save/charge-density.dat

     Number of +U iterations with fixed ns =  0
     Starting occupations:
 --- enter write_ns ---
 LDA+U parameters:
U( 1)     =  0.00000000
alpha( 1) =  0.15000000
U( 2)     =  0.00000000
alpha( 2) =  0.00000000
U( 3)     =  0.00000000
alpha( 3) =  0.00000000
atom    1   Tr[ns(na)] (up, down, total) =   4.10540  1.45237  5.55777
   spin  1
    eigenvalues: 
  0.554  0.571  0.986  0.988  1.006
    eigenvectors:
  0.000  0.247  0.753  0.000  0.000
  0.500  0.000  0.000  0.500  0.000
  0.500  0.000  0.000  0.500  0.000
  0.000  0.000  0.000  0.000  1.000
  0.000  0.753  0.247  0.000  0.000
    occupations:
  0.884 -0.000 -0.000 -0.000  0.179
 -0.000  0.771  0.217  0.000  0.000
 -0.000  0.217  0.771  0.000  0.000
 -0.000  0.000  0.000  1.006 -0.000
  0.179  0.000  0.000 -0.000  0.674
   spin  2
    eigenvalues: 
  0.152  0.225  0.248  0.406  0.422
    eigenvectors:
  0.730  0.000  0.000  0.270  0.000
  0.000  0.500  0.000  0.000  0.500
  0.000  0.500  0.000  0.000  0.500
  0.000  0.000  1.000  0.000  0.000
  0.270  0.000  0.000  0.730  0.000
    occupations:
  0.220 -0.000 -0.000  0.000 -0.113
 -0.000  0.323 -0.099  0.000  0.000
 -0.000 -0.099  0.323  0.000  0.000
  0.000  0.000  0.000  0.248 -0.000
 -0.113  0.000  0.000 -0.000  0.337
atomic mag. moment =     2.653026
atom    2   Tr[ns(na)] (up, down, total) =   4.10537  1.45234  5.55771
   spin  1
    eigenvalues: 
  0.554  0.571  0.986  0.988  1.006
    eigenvectors:
  0.000  0.247  0.753  0.000  0.000
  0.500  0.000  0.000  0.500  0.000
  0.500  0.000  0.000  0.500  0.000
  0.000  0.000  0.000  0.000  1.000
  0.000  0.753  0.247  0.000  0.000
    occupations:
  0.884 -0.000 -0.000  0.000 -0.179
 -0.000  0.771 -0.217 -0.000  0.000
 -0.000 -0.217  0.771  0.000  0.000
  0.000 -0.000  0.000  1.006 -0.000
 -0.179  0.000  0.000 -0.000  0.674
   spin  2
    eigenvalues: 
  0.152  0.225  0.248  0.406  0.422
    eigenvectors:
  0.730  0.000  0.000  0.270  0.000
  0.000  0.500  0.000  0.000  0.500
  0.000  0.500  0.000  0.000  0.500
  0.000  0.000  1.000  0.000  0.000
  0.270  0.000  0.000  0.730  0.000
    occupations:
  0.220  0.000  0.000 -0.000  0.113
  0.000  0.323  0.099  0.000 -0.000
  0.000  0.099  0.323 -0.000 -0.000
 -0.000  0.000 -0.000  0.248 -0.000
  0.113 -0.000 -0.000 -0.000  0.337
atomic mag. moment =     2.653029
atom    3   Tr[ns(na)] (up, down, total) =   4.10543  1.45242  5.55785
   spin  1
    eigenvalues: 
  0.554  0.571  0.986  0.988  1.006
    eigenvectors:
  0.000  0.247  0.753  0.000  0.000
  0.500  0.000  0.000  0.500  0.000
  0.500  0.000  0.000  0.500  0.000
  0.000  0.000  0.000  0.000  1.000
  0.000  0.753  0.247  0.000  0.000
    occupations:
  0.884 -0.000 -0.000 -0.000  0.179
 -0.000  0.771  0.217  0.000  0.000
 -0.000  0.217  0.771  0.000  0.000
 -0.000  0.000  0.000  1.006 -0.000
  0.179  0.000  0.000 -0.000  0.674
   spin  2
    eigenvalues: 
  0.152  0.225  0.248  0.406  0.422
    eigenvectors:
  0.730  0.000  0.000  0.270  0.000
  0.000  0.500  0.000  0.000  0.500
  0.000  0.500  0.000  0.000  0.500
  0.000  0.000  1.000  0.000  0.000
  0.270  0.000  0.000  0.730  0.000
    occupations:
  0.220 -0.000 -0.000  0.000 -0.113
 -0.000  0.323 -0.099  0.000  0.000
 -0.000 -0.099  0.323  0.000  0.000
  0.000  0.000  0.000  0.248 -0.000
 -0.113  0.000  0.000 -0.000  0.337
atomic mag. moment =     2.653008
atom    4   Tr[ns(na)] (up, down, total) =   4.10537  1.45234  5.55771
   spin  1
    eigenvalues: 
  0.554  0.571  0.986  0.988  1.006
    eigenvectors:
  0.000  0.247  0.753  0.000  0.000
  0.500  0.000  0.000  0.500  0.000
  0.500  0.000  0.000  0.500  0.000
  0.000  0.000  0.000  0.000  1.000
  0.000  0.753  0.247  0.000  0.000
    occupations:
  0.884  0.000  0.000  0.000 -0.179
  0.000  0.771 -0.217  0.000 -0.000
  0.000 -0.217  0.771 -0.000 -0.000
  0.000  0.000 -0.000  1.006 -0.000
 -0.179 -0.000 -0.000 -0.000  0.674
   spin  2
    eigenvalues: 
  0.152  0.225  0.248  0.406  0.422
    eigenvectors:
  0.730  0.000  0.000  0.270  0.000
  0.000  0.500  0.000  0.000  0.500
  0.000  0.500  0.000  0.000  0.500
  0.000  0.000  1.000  0.000  0.000
  0.270  0.000  0.000  0.730  0.000
    occupations:
  0.220 -0.000 -0.000 -0.000  0.113
 -0.000  0.323  0.099 -0.000  0.000
 -0.000  0.099  0.323  0.000  0.000
 -0.000 -0.000  0.000  0.248 -0.000
  0.113  0.000  0.000 -0.000  0.337
atomic mag. moment =     2.653029
atom    5   Tr[ns(na)] (up, down, total) =   4.10541  1.45241  5.55781
   spin  1
    eigenvalues: 
  0.554  0.571  0.986  0.988  1.006
    eigenvectors:
  0.000  0.247  0.753  0.000  0.000
  0.500  0.000  0.000  0.500  0.000
  0.500  0.000  0.000  0.500  0.000
  0.000  0.000  0.000  0.000  1.000
  0.000  0.753  0.247  0.000  0.000
    occupations:
  0.884 -0.000 -0.000  0.000  0.179
 -0.000  0.771  0.217  0.000  0.000
 -0.000  0.217  0.771  0.000  0.000
  0.000  0.000  0.000  1.006 -0.000
  0.179  0.000  0.000 -0.000  0.674
   spin  2
    eigenvalues: 
  0.152  0.225  0.248  0.406  0.422
    eigenvectors:
  0.730  0.000  0.000  0.270  0.000
  0.000  0.500  0.000  0.000  0.500
  0.000  0.500  0.000  0.000  0.500
  0.000  0.000  1.000  0.000  0.000
  0.270  0.000  0.000  0.730  0.000
    occupations:
  0.220 -0.000 -0.000 -0.000 -0.113
 -0.000  0.323 -0.099  0.000  0.000
 -0.000 -0.099  0.323  0.000  0.000
 -0.000  0.000  0.000  0.248 -0.000
 -0.113  0.000  0.000 -0.000  0.337
atomic mag. moment =     2.653002
atom    6   Tr[ns(na)] (up, down, total) =   4.10543  1.45244  5.55787
   spin  1
    eigenvalues: 
  0.554  0.571  0.986  0.988  1.006
    eigenvectors:
  0.000  0.247  0.753  0.000  0.000
  0.500  0.000  0.000  0.500  0.000
  0.500  0.000  0.000  0.500  0.000
  0.000  0.000  0.000  0.000  1.000
  0.000  0.753  0.247  0.000  0.000
    occupations:
  0.884 -0.000  0.000  0.000 -0.179
 -0.000  0.771 -0.217 -0.000 -0.000
  0.000 -0.217  0.771 -0.000  0.000
  0.000 -0.000 -0.000  1.006 -0.000
 -0.179 -0.000  0.000 -0.000  0.674
   spin  2
    eigenvalues: 
  0.152  0.225  0.248  0.406  0.422
    eigenvectors:
  0.730  0.000  0.000  0.270  0.000
  0.000  0.500  0.000  0.000  0.500
  0.000  0.500  0.000  0.000  0.500
  0.000  0.000  1.000  0.000  0.000
  0.270  0.000  0.000  0.730  0.000
    occupations:
  0.220  0.000 -0.000 -0.000  0.113
  0.000  0.323  0.099 -0.000  0.000
 -0.000  0.099  0.323 -0.000 -0.000
 -0.000 -0.000 -0.000  0.248 -0.000
  0.113  0.000 -0.000 -0.000  0.337
atomic mag. moment =     2.652988
atom    7   Tr[ns(na)] (up, down, total) =   4.10540  1.45239  5.55779
   spin  1
    eigenvalues: 
  0.554  0.571  0.986  0.988  1.006
    eigenvectors:
  0.000  0.247  0.753  0.000  0.000
  0.500  0.000  0.000  0.500  0.000
  0.500  0.000  0.000  0.500  0.000
  0.000  0.000  0.000  0.000  1.000
  0.000  0.753  0.247  0.000  0.000
    occupations:
  0.884 -0.000 -0.000  0.000  0.179
 -0.000  0.771  0.217  0.000  0.000
 -0.000  0.217  0.771  0.000  0.000
  0.000  0.000  0.000  1.006 -0.000
  0.179  0.000  0.000 -0.000  0.674
   spin  2
    eigenvalues: 
  0.152  0.225  0.248  0.406  0.422
    eigenvectors:
  0.730  0.000  0.000  0.270  0.000
  0.000  0.500  0.000  0.000  0.500
  0.000  0.500  0.000  0.000  0.500
  0.000  0.000  1.000  0.000  0.000
  0.270  0.000  0.000  0.730  0.000
    occupations:
  0.220 -0.000 -0.000 -0.000 -0.113
 -0.000  0.323 -0.099  0.000  0.000
 -0.000 -0.099  0.323  0.000  0.000
 -0.000  0.000  0.000  0.248 -0.000
 -0.113  0.000  0.000 -0.000  0.337
atomic mag. moment =     2.653007
atom    8   Tr[ns(na)] (up, down, total) =   4.10543  1.45244  5.55787
   spin  1
    eigenvalues: 
  0.554  0.571  0.986  0.988  1.006
    eigenvectors:
  0.000  0.247  0.753  0.000  0.000
  0.500  0.000  0.000  0.500  0.000
  0.500  0.000  0.000  0.500  0.000
  0.000  0.000  0.000  0.000  1.000
  0.000  0.753  0.247  0.000  0.000
    occupations:
  0.884  0.000 -0.000  0.000 -0.179
  0.000  0.771 -0.217  0.000  0.000
 -0.000 -0.217  0.771  0.000 -0.000
  0.000  0.000  0.000  1.006 -0.000
 -0.179  0.000 -0.000 -0.000  0.674
   spin  2
    eigenvalues: 
  0.152  0.225  0.248  0.406  0.422
    eigenvectors:
  0.730  0.000  0.000  0.270  0.000
  0.000  0.500  0.000  0.000  0.500
  0.000  0.500  0.000  0.000  0.500
  0.000  0.000  1.000  0.000  0.000
  0.270  0.000  0.000  0.730  0.000
    occupations:
  0.220 -0.000  0.000 -0.000  0.113
 -0.000  0.323  0.099  0.000 -0.000
  0.000  0.099  0.323  0.000  0.000
 -0.000  0.000  0.000  0.248 -0.000
  0.113 -0.000  0.000 -0.000  0.337
atomic mag. moment =     2.652988
atom    9   Tr[ns(na)] (up, down, total) =   4.10541  1.45241  5.55781
   spin  1
    eigenvalues: 
  0.554  0.571  0.986  0.988  1.006
    eigenvectors:
  0.000  0.247  0.753  0.000  0.000
  0.500  0.000  0.000  0.500  0.000
  0.500  0.000  0.000  0.500  0.000
  0.000  0.000  0.000  0.000  1.000
  0.000  0.753  0.247  0.000  0.000
    occupations:
  0.884 -0.000 -0.000 -0.000  0.179
 -0.000  0.771  0.217  0.000  0.000
 -0.000  0.217  0.771  0.000  0.000
 -0.000  0.000  0.000  1.006  0.000
  0.179  0.000  0.000  0.000  0.674
   spin  2
    eigenvalues: 
  0.152  0.225  0.248  0.406  0.422
    eigenvectors:
  0.730  0.000  0.000  0.270  0.000
  0.000  0.500  0.000  0.000  0.500
  0.000  0.500  0.000  0.000  0.500
  0.000  0.000  1.000  0.000  0.000
  0.270  0.000  0.000  0.730  0.000
    occupations:
  0.220 -0.000 -0.000  0.000 -0.113
 -0.000  0.323 -0.099  0.000  0.000
 -0.000 -0.099  0.323  0.000  0.000
  0.000  0.000  0.000  0.248  0.000
 -0.113  0.000  0.000  0.000  0.337
atomic mag. moment =     2.653002
atom   10   Tr[ns(na)] (up, down, total) =   4.10543  1.45244  5.55787
   spin  1
    eigenvalues: 
  0.554  0.571  0.986  0.988  1.006
    eigenvectors:
  0.000  0.247  0.753  0.000  0.000
  0.500  0.000  0.000  0.500  0.000
  0.500  0.000  0.000  0.500  0.000
  0.000  0.000  0.000  0.000  1.000
  0.000  0.753  0.247  0.000  0.000
    occupations:
  0.884  0.000 -0.000  0.000 -0.179
  0.000  0.771 -0.217  0.000  0.000
 -0.000 -0.217  0.771  0.000 -0.000
  0.000  0.000  0.000  1.006 -0.000
 -0.179  0.000 -0.000 -0.000  0.674
   spin  2
    eigenvalues: 
  0.152  0.225  0.248  0.406  0.422
    eigenvectors:
  0.730  0.000  0.000  0.270  0.000
  0.000  0.500  0.000  0.000  0.500
  0.000  0.500  0.000  0.000  0.500
  0.000  0.000  1.000  0.000  0.000
  0.270  0.000  0.000  0.730  0.000
    occupations:
  0.220 -0.000  0.000 -0.000  0.113
 -0.000  0.323  0.099  0.000 -0.000
  0.000  0.099  0.323  0.000  0.000
 -0.000  0.000  0.000  0.248 -0.000
  0.113 -0.000  0.000 -0.000  0.337
atomic mag. moment =     2.652988
atom   11   Tr[ns(na)] (up, down, total) =   4.10540  1.45239  5.55779
   spin  1
    eigenvalues: 
  0.554  0.571  0.986  0.988  1.006
    eigenvectors:
  0.000  0.247  0.753  0.000  0.000
  0.500  0.000  0.000  0.500  0.000
  0.500  0.000  0.000  0.500  0.000
  0.000  0.000  0.000  0.000  1.000
  0.000  0.753  0.247  0.000  0.000
    occupations:
  0.884 -0.000 -0.000 -0.000  0.179
 -0.000  0.771  0.217  0.000  0.000
 -0.000  0.217  0.771  0.000  0.000
 -0.000  0.000  0.000  1.006  0.000
  0.179  0.000  0.000  0.000  0.674
   spin  2
    eigenvalues: 
  0.152  0.225  0.248  0.406  0.422
    eigenvectors:
  0.730  0.000  0.000  0.270  0.000
  0.000  0.500  0.000  0.000  0.500
  0.000  0.500  0.000  0.000  0.500
  0.000  0.000  1.000  0.000  0.000
  0.270  0.000  0.000  0.730  0.000
    occupations:
  0.220 -0.000 -0.000  0.000 -0.113
 -0.000  0.323 -0.099  0.000  0.000
 -0.000 -0.099  0.323  0.000  0.000
  0.000  0.000  0.000  0.248  0.000
 -0.113  0.000  0.000  0.000  0.337
atomic mag. moment =     2.653007
atom   12   Tr[ns(na)] (up, down, total) =   4.10543  1.45244  5.55787
   spin  1
    eigenvalues: 
  0.554  0.571  0.986  0.988  1.006
    eigenvectors:
  0.000  0.247  0.753  0.000  0.000
  0.500  0.000  0.000  0.500  0.000
  0.500  0.000  0.000  0.500  0.000
  0.000  0.000  0.000  0.000  1.000
  0.000  0.753  0.247  0.000  0.000
    occupations:
  0.884 -0.000  0.000  0.000 -0.179
 -0.000  0.771 -0.217 -0.000 -0.000
  0.000 -0.217  0.771 -0.000  0.000
  0.000 -0.000 -0.000  1.006 -0.000
 -0.179 -0.000  0.000 -0.000  0.674
   spin  2
    eigenvalues: 
  0.152  0.225  0.248  0.406  0.422
    eigenvectors:
  0.730  0.000  0.000  0.270  0.000
  0.000  0.500  0.000  0.000  0.500
  0.000  0.500  0.000  0.000  0.500
  0.000  0.000  1.000  0.000  0.000
  0.270  0.000  0.000  0.730  0.000
    occupations:
  0.220  0.000 -0.000 -0.000  0.113
  0.000  0.323  0.099 -0.000  0.000
 -0.000  0.099  0.323 -0.000 -0.000
 -0.000 -0.000 -0.000  0.248 -0.000
  0.113  0.000 -0.000 -0.000  0.337
atomic mag. moment =     2.652988
atom   13   Tr[ns(na)] (up, down, total) =   4.10539  1.45238  5.55778
   spin  1
    eigenvalues: 
  0.554  0.571  0.986  0.988  1.006
    eigenvectors:
  0.000  0.247  0.753  0.000  0.000
  0.500  0.000  0.000  0.500  0.000
  0.500  0.000  0.000  0.500  0.000
  0.000  0.000  0.000  0.000  1.000
  0.000  0.753  0.247  0.000  0.000
    occupations:
  0.884 -0.000 -0.000 -0.000  0.179
 -0.000  0.771  0.217  0.000  0.000
 -0.000  0.217  0.771  0.000  0.000
 -0.000  0.000  0.000  1.006 -0.000
  0.179  0.000  0.000 -0.000  0.674
   spin  2
    eigenvalues: 
  0.152  0.225  0.248  0.406  0.422
    eigenvectors:
  0.730  0.000  0.000  0.270  0.000
  0.000  0.500  0.000  0.000  0.500
  0.000  0.500  0.000  0.000  0.500
  0.000  0.000  1.000  0.000  0.000
  0.270  0.000  0.000  0.730  0.000
    occupations:
  0.220 -0.000 -0.000  0.000 -0.113
 -0.000  0.323 -0.099  0.000  0.000
 -0.000 -0.099  0.323  0.000  0.000
  0.000  0.000  0.000  0.248 -0.000
 -0.113  0.000  0.000 -0.000  0.337
atomic mag. moment =     2.653010
atom   14   Tr[ns(na)] (up, down, total) =   4.10537  1.45234  5.55771
   spin  1
    eigenvalues: 
  0.554  0.571  0.986  0.988  1.006
    eigenvectors:
  0.000  0.247  0.753  0.000  0.000
  0.500  0.000  0.000  0.500  0.000
  0.500  0.000  0.000  0.500  0.000
  0.000  0.000  0.000  0.000  1.000
  0.000  0.753  0.247  0.000  0.000
    occupations:
  0.884  0.000  0.000  0.000 -0.179
  0.000  0.771 -0.217  0.000 -0.000
  0.000 -0.217  0.771 -0.000 -0.000
  0.000  0.000 -0.000  1.006 -0.000
 -0.179 -0.000 -0.000 -0.000  0.674
   spin  2
    eigenvalues: 
  0.152  0.225  0.248  0.406  0.422
    eigenvectors:
  0.730  0.000  0.000  0.270  0.000
  0.000  0.500  0.000  0.000  0.500
  0.000  0.500  0.000  0.000  0.500
  0.000  0.000  1.000  0.000  0.000
  0.270  0.000  0.000  0.730  0.000
    occupations:
  0.220 -0.000 -0.000 -0.000  0.113
 -0.000  0.323  0.099 -0.000  0.000
 -0.000  0.099  0.323  0.000  0.000
 -0.000 -0.000  0.000  0.248 -0.000
  0.113  0.000  0.000 -0.000  0.337
atomic mag. moment =     2.653029
atom   15   Tr[ns(na)] (up, down, total) =   4.10550  1.45253  5.55803
   spin  1
    eigenvalues: 
  0.554  0.571  0.986  0.988  1.006
    eigenvectors:
  0.000  0.247  0.753  0.000  0.000
  0.500  0.000  0.000  0.500  0.000
  0.500  0.000  0.000  0.500  0.000
  0.000  0.000  0.000  0.000  1.000
  0.000  0.753  0.247  0.000  0.000
    occupations:
  0.884 -0.000 -0.000 -0.000  0.179
 -0.000  0.771  0.217  0.000  0.000
 -0.000  0.217  0.771  0.000  0.000
 -0.000  0.000  0.000  1.006 -0.000
  0.179  0.000  0.000 -0.000  0.674
   spin  2
    eigenvalues: 
  0.152  0.225  0.248  0.406  0.422
    eigenvectors:
  0.730  0.000  0.000  0.270  0.000
  0.000  0.500  0.000  0.000  0.500
  0.000  0.500  0.000  0.000  0.500
  0.000  0.000  1.000  0.000  0.000
  0.270  0.000  0.000  0.730  0.000
    occupations:
  0.220 -0.000 -0.000  0.000 -0.113
 -0.000  0.323 -0.099  0.000  0.000
 -0.000 -0.099  0.323  0.000  0.000
  0.000  0.000  0.000  0.248 -0.000
 -0.113  0.000  0.000 -0.000  0.337
atomic mag. moment =     2.652962
atom   16   Tr[ns(na)] (up, down, total) =   4.10537  1.45234  5.55771
   spin  1
    eigenvalues: 
  0.554  0.571  0.986  0.988  1.006
    eigenvectors:
  0.000  0.247  0.753  0.000  0.000
  0.500  0.000  0.000  0.500  0.000
  0.500  0.000  0.000  0.500  0.000
  0.000  0.000  0.000  0.000  1.000
  0.000  0.753  0.247  0.000  0.000
    occupations:
  0.884 -0.000 -0.000  0.000 -0.179
 -0.000  0.771 -0.217 -0.000  0.000
 -0.000 -0.217  0.771  0.000  0.000
  0.000 -0.000  0.000  1.006 -0.000
 -0.179  0.000  0.000 -0.000  0.674
   spin  2
    eigenvalues: 
  0.152  0.225  0.248  0.406  0.422
    eigenvectors:
  0.730  0.000  0.000  0.270  0.000
  0.000  0.500  0.000  0.000  0.500
  0.000  0.500  0.000  0.000  0.500
  0.000  0.000  1.000  0.000  0.000
  0.270  0.000  0.000  0.730  0.000
    occupations:
  0.220  0.000  0.000 -0.000  0.113
  0.000  0.323  0.099  0.000 -0.000
  0.000  0.099  0.323 -0.000 -0.000
 -0.000  0.000 -0.000  0.248 -0.000
  0.113 -0.000 -0.000 -0.000  0.337
atomic mag. moment =     2.653029
atom   17   Tr[ns(na)] (up, down, total) =   2.69943  2.62429  5.32372
   spin  1
    eigenvalues: 
  0.848  0.858  0.994
    eigenvectors:
  0.000  1.000  0.000
  0.500  0.000  0.500
  0.500  0.000  0.500
    occupations:
  0.858 -0.000  0.000
 -0.000  0.921 -0.073
  0.000 -0.073  0.921
   spin  2
    eigenvalues: 
  0.869  0.873  0.883
    eigenvectors:
  0.000  0.000  1.000
  0.500  0.500  0.000
  0.500  0.500  0.000
    occupations:
  0.883 -0.000 -0.000
 -0.000  0.871  0.002
 -0.000  0.002  0.871
atomic mag. moment =     0.075137
atom   18   Tr[ns(na)] (up, down, total) =   2.69943  2.62429  5.32372
   spin  1
    eigenvalues: 
  0.848  0.858  0.994
    eigenvectors:
  0.000  1.000  0.000
  0.500  0.000  0.500
  0.500  0.000  0.500
    occupations:
  0.858 -0.000  0.000
 -0.000  0.921 -0.073
  0.000 -0.073  0.921
   spin  2
    eigenvalues: 
  0.869  0.873  0.883
    eigenvectors:
  0.000  0.000  1.000
  0.500  0.500  0.000
  0.500  0.500  0.000
    occupations:
  0.883 -0.000 -0.000
 -0.000  0.871  0.002
 -0.000  0.002  0.871
atomic mag. moment =     0.075137
atom   19   Tr[ns(na)] (up, down, total) =   2.69937  2.62422  5.32359
   spin  1
    eigenvalues: 
  0.848  0.858  0.994
    eigenvectors:
  0.000  1.000  0.000
  0.500  0.000  0.500
  0.500  0.000  0.500
    occupations:
  0.858 -0.000  0.000
 -0.000  0.921  0.073
  0.000  0.073  0.921
   spin  2
    eigenvalues: 
  0.869  0.873  0.883
    eigenvectors:
  0.000  0.000  1.000
  0.500  0.500  0.000
  0.500  0.500  0.000
    occupations:
  0.883 -0.000  0.000
 -0.000  0.871 -0.002
  0.000 -0.002  0.871
atomic mag. moment =     0.075153
atom   20   Tr[ns(na)] (up, down, total) =   2.69937  2.62422  5.32359
   spin  1
    eigenvalues: 
  0.848  0.858  0.994
    eigenvectors:
  0.000  1.000  0.000
  0.500  0.000  0.500
  0.500  0.000  0.500
    occupations:
  0.858  0.000 -0.000
  0.000  0.921  0.073
 -0.000  0.073  0.921
   spin  2
    eigenvalues: 
  0.869  0.873  0.883
    eigenvectors:
  0.000  0.000  1.000
  0.500  0.500  0.000
  0.500  0.500  0.000
    occupations:
  0.883  0.000 -0.000
  0.000  0.871 -0.002
 -0.000 -0.002  0.871
atomic mag. moment =     0.075153
atom   21   Tr[ns(na)] (up, down, total) =   2.69942  2.62428  5.32370
   spin  1
    eigenvalues: 
  0.848  0.858  0.994
    eigenvectors:
  0.000  1.000  0.000
  0.500  0.000  0.500
  0.500  0.000  0.500
    occupations:
  0.858 -0.000  0.000
 -0.000  0.921 -0.073
  0.000 -0.073  0.921
   spin  2
    eigenvalues: 
  0.869  0.873  0.883
    eigenvectors:
  0.000  0.000  1.000
  0.500  0.500  0.000
  0.500  0.500  0.000
    occupations:
  0.883 -0.000 -0.000
 -0.000  0.871  0.002
 -0.000  0.002  0.871
atomic mag. moment =     0.075141
atom   22   Tr[ns(na)] (up, down, total) =   2.69942  2.62428  5.32370
   spin  1
    eigenvalues: 
  0.848  0.858  0.994
    eigenvectors:
  0.000  1.000  0.000
  0.500  0.000  0.500
  0.500  0.000  0.500
    occupations:
  0.858 -0.000  0.000
 -0.000  0.921 -0.073
  0.000 -0.073  0.921
   spin  2
    eigenvalues: 
  0.869  0.873  0.883
    eigenvectors:
  0.000  0.000  1.000
  0.500  0.500  0.000
  0.500  0.500  0.000
    occupations:
  0.883 -0.000 -0.000
 -0.000  0.871  0.002
 -0.000  0.002  0.871
atomic mag. moment =     0.075141
atom   23   Tr[ns(na)] (up, down, total) =   2.69937  2.62422  5.32359
   spin  1
    eigenvalues: 
  0.848  0.858  0.994
    eigenvectors:
  0.000  1.000  0.000
  0.500  0.000  0.500
  0.500  0.000  0.500
    occupations:
  0.858  0.000 -0.000
  0.000  0.921  0.073
 -0.000  0.073  0.921
   spin  2
    eigenvalues: 
  0.869  0.873  0.883
    eigenvectors:
  0.000  0.000  1.000
  0.500  0.500  0.000
  0.500  0.500  0.000
    occupations:
  0.883  0.000 -0.000
  0.000  0.871 -0.002
 -0.000 -0.002  0.871
atomic mag. moment =     0.075153
atom   24   Tr[ns(na)] (up, down, total) =   2.69937  2.62422  5.32359
   spin  1
    eigenvalues: 
  0.848  0.858  0.994
    eigenvectors:
  0.000  1.000  0.000
  0.500  0.000  0.500
  0.500  0.000  0.500
    occupations:
  0.858 -0.000  0.000
 -0.000  0.921  0.073
  0.000  0.073  0.921
   spin  2
    eigenvalues: 
  0.869  0.873  0.883
    eigenvectors:
  0.000  0.000  1.000
  0.500  0.500  0.000
  0.500  0.500  0.000
    occupations:
  0.883 -0.000  0.000
 -0.000  0.871 -0.002
  0.000 -0.002  0.871
atomic mag. moment =     0.075153
atom   25   Tr[ns(na)] (up, down, total) =   2.69936  2.62420  5.32356
   spin  1
    eigenvalues: 
  0.848  0.858  0.994
    eigenvectors:
  0.000  1.000  0.000
  0.500  0.000  0.500
  0.500  0.000  0.500
    occupations:
  0.858 -0.000  0.000
 -0.000  0.921 -0.073
  0.000 -0.073  0.921
   spin  2
    eigenvalues: 
  0.869  0.873  0.883
    eigenvectors:
  0.000  0.000  1.000
  0.500  0.500  0.000
  0.500  0.500  0.000
    occupations:
  0.883 -0.000 -0.000
 -0.000  0.871  0.002
 -0.000  0.002  0.871
atomic mag. moment =     0.075163
atom   26   Tr[ns(na)] (up, down, total) =   2.69936  2.62420  5.32356
   spin  1
    eigenvalues: 
  0.848  0.858  0.994
    eigenvectors:
  0.000  1.000  0.000
  0.500  0.000  0.500
  0.500  0.000  0.500
    occupations:
  0.858 -0.000  0.000
 -0.000  0.921 -0.073
  0.000 -0.073  0.921
   spin  2
    eigenvalues: 
  0.869  0.873  0.883
    eigenvectors:
  0.000  0.000  1.000
  0.500  0.500  0.000
  0.500  0.500  0.000
    occupations:
  0.883 -0.000 -0.000
 -0.000  0.871  0.002
 -0.000  0.002  0.871
atomic mag. moment =     0.075163
atom   27   Tr[ns(na)] (up, down, total) =   2.69938  2.62422  5.32360
   spin  1
    eigenvalues: 
  0.848  0.858  0.994
    eigenvectors:
  0.000  1.000  0.000
  0.500  0.000  0.500
  0.500  0.000  0.500
    occupations:
  0.858  0.000 -0.000
  0.000  0.921  0.073
 -0.000  0.073  0.921
   spin  2
    eigenvalues: 
  0.869  0.873  0.883
    eigenvectors:
  0.000  0.000  1.000
  0.500  0.500  0.000
  0.500  0.500  0.000
    occupations:
  0.883  0.000 -0.000
  0.000  0.871 -0.002
 -0.000 -0.002  0.871
atomic mag. moment =     0.075159
atom   28   Tr[ns(na)] (up, down, total) =   2.69940  2.62425  5.32366
   spin  1
    eigenvalues: 
  0.848  0.858  0.994
    eigenvectors:
  0.000  1.000  0.000
  0.500  0.000  0.500
  0.500  0.000  0.500
    occupations:
  0.858 -0.000  0.000
 -0.000  0.921  0.073
  0.000  0.073  0.921
   spin  2
    eigenvalues: 
  0.869  0.873  0.883
    eigenvectors:
  0.000  0.000  1.000
  0.500  0.500  0.000
  0.500  0.500  0.000
    occupations:
  0.883 -0.000  0.000
 -0.000  0.871 -0.002
  0.000 -0.002  0.871
atomic mag. moment =     0.075149
atom   29   Tr[ns(na)] (up, down, total) =   2.69936  2.62420  5.32357
   spin  1
    eigenvalues: 
  0.848  0.858  0.994
    eigenvectors:
  0.000  1.000  0.000
  0.500  0.000  0.500
  0.500  0.000  0.500
    occupations:
  0.858 -0.000  0.000
 -0.000  0.921 -0.073
  0.000 -0.073  0.921
   spin  2
    eigenvalues: 
  0.869  0.873  0.883
    eigenvectors:
  0.000  0.000  1.000
  0.500  0.500  0.000
  0.500  0.500  0.000
    occupations:
  0.883 -0.000 -0.000
 -0.000  0.871  0.002
 -0.000  0.002  0.871
atomic mag. moment =     0.075160
atom   30   Tr[ns(na)] (up, down, total) =   2.69936  2.62420  5.32357
   spin  1
    eigenvalues: 
  0.848  0.858  0.994
    eigenvectors:
  0.000  1.000  0.000
  0.500  0.000  0.500
  0.500  0.000  0.500
    occupations:
  0.858 -0.000  0.000
 -0.000  0.921 -0.073
  0.000 -0.073  0.921
   spin  2
    eigenvalues: 
  0.869  0.873  0.883
    eigenvectors:
  0.000  0.000  1.000
  0.500  0.500  0.000
  0.500  0.500  0.000
    occupations:
  0.883 -0.000 -0.000
 -0.000  0.871  0.002
 -0.000  0.002  0.871
atomic mag. moment =     0.075160
atom   31   Tr[ns(na)] (up, down, total) =   2.69938  2.62422  5.32360
   spin  1
    eigenvalues: 
  0.848  0.858  0.994
    eigenvectors:
  0.000  1.000  0.000
  0.500  0.000  0.500
  0.500  0.000  0.500
    occupations:
  0.858 -0.000  0.000
 -0.000  0.921  0.073
  0.000  0.073  0.921
   spin  2
    eigenvalues: 
  0.869  0.873  0.883
    eigenvectors:
  0.000  0.000  1.000
  0.500  0.500  0.000
  0.500  0.500  0.000
    occupations:
  0.883 -0.000  0.000
 -0.000  0.871 -0.002
  0.000 -0.002  0.871
atomic mag. moment =     0.075159
atom   32   Tr[ns(na)] (up, down, total) =   2.69940  2.62425  5.32366
   spin  1
    eigenvalues: 
  0.848  0.858  0.994
    eigenvectors:
  0.000  1.000  0.000
  0.500  0.000  0.500
  0.500  0.000  0.500
    occupations:
  0.858  0.000 -0.000
  0.000  0.921  0.073
 -0.000  0.073  0.921
   spin  2
    eigenvalues: 
  0.869  0.873  0.883
    eigenvectors:
  0.000  0.000  1.000
  0.500  0.500  0.000
  0.500  0.500  0.000
    occupations:
  0.883  0.000 -0.000
  0.000  0.871 -0.002
 -0.000 -0.002  0.871
atomic mag. moment =     0.075149
atom   33   Tr[ns(na)] (up, down, total) =   2.69936  2.62420  5.32356
   spin  1
    eigenvalues: 
  0.848  0.858  0.994
    eigenvectors:
  0.000  1.000  0.000
  0.500  0.000  0.500
  0.500  0.000  0.500
    occupations:
  0.858 -0.000  0.000
 -0.000  0.921 -0.073
  0.000 -0.073  0.921
   spin  2
    eigenvalues: 
  0.869  0.873  0.883
    eigenvectors:
  0.000  0.000  1.000
  0.500  0.500  0.000
  0.500  0.500  0.000
    occupations:
  0.883 -0.000 -0.000
 -0.000  0.871  0.002
 -0.000  0.002  0.871
atomic mag. moment =     0.075163
atom   34   Tr[ns(na)] (up, down, total) =   2.69936  2.62420  5.32356
   spin  1
    eigenvalues: 
  0.848  0.858  0.994
    eigenvectors:
  0.000  1.000  0.000
  0.500  0.000  0.500
  0.500  0.000  0.500
    occupations:
  0.858 -0.000  0.000
 -0.000  0.921 -0.073
  0.000 -0.073  0.921
   spin  2
    eigenvalues: 
  0.869  0.873  0.883
    eigenvectors:
  0.000  0.000  1.000
  0.500  0.500  0.000
  0.500  0.500  0.000
    occupations:
  0.883 -0.000 -0.000
 -0.000  0.871  0.002
 -0.000  0.002  0.871
atomic mag. moment =     0.075163
atom   35   Tr[ns(na)] (up, down, total) =   2.69940  2.62425  5.32366
   spin  1
    eigenvalues: 
  0.848  0.858  0.994
    eigenvectors:
  0.000  1.000  0.000
  0.500  0.000  0.500
  0.500  0.000  0.500
    occupations:
  0.858  0.000 -0.000
  0.000  0.921  0.073
 -0.000  0.073  0.921
   spin  2
    eigenvalues: 
  0.869  0.873  0.883
    eigenvectors:
  0.000  0.000  1.000
  0.500  0.500  0.000
  0.500  0.500  0.000
    occupations:
  0.883  0.000 -0.000
  0.000  0.871 -0.002
 -0.000 -0.002  0.871
atomic mag. moment =     0.075149
atom   36   Tr[ns(na)] (up, down, total) =   2.69938  2.62422  5.32360
   spin  1
    eigenvalues: 
  0.848  0.858  0.994
    eigenvectors:
  0.000  1.000  0.000
  0.500  0.000  0.500
  0.500  0.000  0.500
    occupations:
  0.858 -0.000  0.000
 -0.000  0.921  0.073
  0.000  0.073  0.921
   spin  2
    eigenvalues: 
  0.869  0.873  0.883
    eigenvectors:
  0.000  0.000  1.000
  0.500  0.500  0.000
  0.500  0.500  0.000
    occupations:
  0.883 -0.000  0.000
 -0.000  0.871 -0.002
  0.000 -0.002  0.871
atomic mag. moment =     0.075159
atom   37   Tr[ns(na)] (up, down, total) =   2.69936  2.62420  5.32357
   spin  1
    eigenvalues: 
  0.848  0.858  0.994
    eigenvectors:
  0.000  1.000  0.000
  0.500  0.000  0.500
  0.500  0.000  0.500
    occupations:
  0.858 -0.000  0.000
 -0.000  0.921 -0.073
  0.000 -0.073  0.921
   spin  2
    eigenvalues: 
  0.869  0.873  0.883
    eigenvectors:
  0.000  0.000  1.000
  0.500  0.500  0.000
  0.500  0.500  0.000
    occupations:
  0.883 -0.000 -0.000
 -0.000  0.871  0.002
 -0.000  0.002  0.871
atomic mag. moment =     0.075160
atom   38   Tr[ns(na)] (up, down, total) =   2.69936  2.62420  5.32357
   spin  1
    eigenvalues: 
  0.848  0.858  0.994
    eigenvectors:
  0.000  1.000  0.000
  0.500  0.000  0.500
  0.500  0.000  0.500
    occupations:
  0.858 -0.000  0.000
 -0.000  0.921 -0.073
  0.000 -0.073  0.921
   spin  2
    eigenvalues: 
  0.869  0.873  0.883
    eigenvectors:
  0.000  0.000  1.000
  0.500  0.500  0.000
  0.500  0.500  0.000
    occupations:
  0.883 -0.000 -0.000
 -0.000  0.871  0.002
 -0.000  0.002  0.871
atomic mag. moment =     0.075160
atom   39   Tr[ns(na)] (up, down, total) =   2.69940  2.62425  5.32366
   spin  1
    eigenvalues: 
  0.848  0.858  0.994
    eigenvectors:
  0.000  1.000  0.000
  0.500  0.000  0.500
  0.500  0.000  0.500
    occupations:
  0.858 -0.000  0.000
 -0.000  0.921  0.073
  0.000  0.073  0.921
   spin  2
    eigenvalues: 
  0.869  0.873  0.883
    eigenvectors:
  0.000  0.000  1.000
  0.500  0.500  0.000
  0.500  0.500  0.000
    occupations:
  0.883 -0.000  0.000
 -0.000  0.871 -0.002
  0.000 -0.002  0.871
atomic mag. moment =     0.075149
atom   40   Tr[ns(na)] (up, down, total) =   2.69938  2.62422  5.32360
   spin  1
    eigenvalues: 
  0.848  0.858  0.994
    eigenvectors:
  0.000  1.000  0.000
  0.500  0.000  0.500
  0.500  0.000  0.500
    occupations:
  0.858  0.000 -0.000
  0.000  0.921  0.073
 -0.000  0.073  0.921
   spin  2
    eigenvalues: 
  0.869  0.873  0.883
    eigenvectors:
  0.000  0.000  1.000
  0.500  0.500  0.000
  0.500  0.500  0.000
    occupations:
  0.883  0.000 -0.000
  0.000  0.871 -0.002
 -0.000 -0.002  0.871
atomic mag. moment =     0.075159
atom   41   Tr[ns(na)] (up, down, total) =   2.69938  2.62423  5.32360
   spin  1
    eigenvalues: 
  0.848  0.858  0.994
    eigenvectors:
  0.000  1.000  0.000
  0.500  0.000  0.500
  0.500  0.000  0.500
    occupations:
  0.858 -0.000  0.000
 -0.000  0.921 -0.073
  0.000 -0.073  0.921
   spin  2
    eigenvalues: 
  0.869  0.873  0.883
    eigenvectors:
  0.000  0.000  1.000
  0.500  0.500  0.000
  0.500  0.500  0.000
    occupations:
  0.883 -0.000 -0.000
 -0.000  0.871  0.002
 -0.000  0.002  0.871
atomic mag. moment =     0.075148
atom   42   Tr[ns(na)] (up, down, total) =   2.69938  2.62423  5.32360
   spin  1
    eigenvalues: 
  0.848  0.858  0.994
    eigenvectors:
  0.000  1.000  0.000
  0.500  0.000  0.500
  0.500  0.000  0.500
    occupations:
  0.858 -0.000  0.000
 -0.000  0.921 -0.073
  0.000 -0.073  0.921
   spin  2
    eigenvalues: 
  0.869  0.873  0.883
    eigenvectors:
  0.000  0.000  1.000
  0.500  0.500  0.000
  0.500  0.500  0.000
    occupations:
  0.883 -0.000 -0.000
 -0.000  0.871  0.002
 -0.000  0.002  0.871
atomic mag. moment =     0.075148
atom   43   Tr[ns(na)] (up, down, total) =   2.69937  2.62422  5.32359
   spin  1
    eigenvalues: 
  0.848  0.858  0.994
    eigenvectors:
  0.000  1.000  0.000
  0.500  0.000  0.500
  0.500  0.000  0.500
    occupations:
  0.858 -0.000  0.000
 -0.000  0.921  0.073
  0.000  0.073  0.921
   spin  2
    eigenvalues: 
  0.869  0.873  0.883
    eigenvectors:
  0.000  0.000  1.000
  0.500  0.500  0.000
  0.500  0.500  0.000
    occupations:
  0.883 -0.000  0.000
 -0.000  0.871 -0.002
  0.000 -0.002  0.871
atomic mag. moment =     0.075153
atom   44   Tr[ns(na)] (up, down, total) =   2.69937  2.62422  5.32359
   spin  1
    eigenvalues: 
  0.848  0.858  0.994
    eigenvectors:
  0.000  1.000  0.000
  0.500  0.000  0.500
  0.500  0.000  0.500
    occupations:
  0.858  0.000 -0.000
  0.000  0.921  0.073
 -0.000  0.073  0.921
   spin  2
    eigenvalues: 
  0.869  0.873  0.883
    eigenvectors:
  0.000  0.000  1.000
  0.500  0.500  0.000
  0.500  0.500  0.000
    occupations:
  0.883  0.000 -0.000
  0.000  0.871 -0.002
 -0.000 -0.002  0.871
atomic mag. moment =     0.075153
atom   45   Tr[ns(na)] (up, down, total) =   2.69937  2.62421  5.32357
   spin  1
    eigenvalues: 
  0.848  0.858  0.994
    eigenvectors:
  0.000  1.000  0.000
  0.500  0.000  0.500
  0.500  0.000  0.500
    occupations:
  0.858 -0.000  0.000
 -0.000  0.921 -0.073
  0.000 -0.073  0.921
   spin  2
    eigenvalues: 
  0.869  0.873  0.883
    eigenvectors:
  0.000  0.000  1.000
  0.500  0.500  0.000
  0.500  0.500  0.000
    occupations:
  0.883 -0.000 -0.000
 -0.000  0.871  0.002
 -0.000  0.002  0.871
atomic mag. moment =     0.075156
atom   46   Tr[ns(na)] (up, down, total) =   2.69937  2.62421  5.32357
   spin  1
    eigenvalues: 
  0.848  0.858  0.994
    eigenvectors:
  0.000  1.000  0.000
  0.500  0.000  0.500
  0.500  0.000  0.500
    occupations:
  0.858 -0.000  0.000
 -0.000  0.921 -0.073
  0.000 -0.073  0.921
   spin  2
    eigenvalues: 
  0.869  0.873  0.883
    eigenvectors:
  0.000  0.000  1.000
  0.500  0.500  0.000
  0.500  0.500  0.000
    occupations:
  0.883 -0.000 -0.000
 -0.000  0.871  0.002
 -0.000  0.002  0.871
atomic mag. moment =     0.075156
atom   47   Tr[ns(na)] (up, down, total) =   2.69937  2.62422  5.32359
   spin  1
    eigenvalues: 
  0.848  0.858  0.994
    eigenvectors:
  0.000  1.000  0.000
  0.500  0.000  0.500
  0.500  0.000  0.500
    occupations:
  0.858  0.000 -0.000
  0.000  0.921  0.073
 -0.000  0.073  0.921
   spin  2
    eigenvalues: 
  0.869  0.873  0.883
    eigenvectors:
  0.000  0.000  1.000
  0.500  0.500  0.000
  0.500  0.500  0.000
    occupations:
  0.883  0.000 -0.000
  0.000  0.871 -0.002
 -0.000 -0.002  0.871
atomic mag. moment =     0.075153
atom   48   Tr[ns(na)] (up, down, total) =   2.69937  2.62422  5.32359
   spin  1
    eigenvalues: 
  0.848  0.858  0.994
    eigenvectors:
  0.000  1.000  0.000
  0.500  0.000  0.500
  0.500  0.000  0.500
    occupations:
  0.858 -0.000  0.000
 -0.000  0.921  0.073
  0.000  0.073  0.921
   spin  2
    eigenvalues: 
  0.869  0.873  0.883
    eigenvectors:
  0.000  0.000  1.000
  0.500  0.500  0.000
  0.500  0.500  0.000
    occupations:
  0.883 -0.000  0.000
 -0.000  0.871 -0.002
  0.000 -0.002  0.871
atomic mag. moment =     0.075153
N of occupied +U levels = 259.2803966
 --- exit write_ns ---
 Atomic wfc used for LDA+U Projector are NOT orthogonalized
     Starting wfc from file

     total cpu time spent up to now is       89.2 secs

     per-process dynamical memory:    88.4 Mb

     Self-consistent Calculation

     iteration #  1     ecut=    40.00 Ry     beta=0.70
     Davidson diagonalization with overlap
     ethr =  8.71E-10,  avg # of iterations =  8.0
 --- enter write_ns ---
 LDA+U parameters:
U( 1)     =  0.00000000
alpha( 1) =  0.15000000
U( 2)     =  0.00000000
alpha( 2) =  0.00000000
U( 3)     =  0.00000000
alpha( 3) =  0.00000000
atom    1   Tr[ns(na)] (up, down, total) =   4.08127  1.40700  5.48826
   spin  1
    eigenvalues: 
  0.544  0.561  0.985  0.986  1.005
    eigenvectors:
  0.000  0.246  0.754  0.000  0.000
  0.500  0.000  0.000  0.500  0.000
  0.500  0.000  0.000  0.500  0.000
  0.000  0.000  0.000  0.000  1.000
  0.000  0.754  0.246  0.000  0.000
    occupations:
  0.880 -0.000 -0.000 -0.000  0.182
 -0.000  0.765  0.221  0.000  0.000
 -0.000  0.221  0.765  0.000  0.000
 -0.000  0.000  0.000  1.005 -0.000
  0.182  0.000  0.000 -0.000  0.665
   spin  2
    eigenvalues: 
  0.145  0.214  0.236  0.398  0.414
    eigenvectors:
  0.727  0.000  0.000  0.273  0.000
  0.000  0.500  0.000  0.000  0.500
  0.000  0.500  0.000  0.000  0.500
  0.000  0.000  1.000  0.000  0.000
  0.273  0.000  0.000  0.727  0.000
    occupations:
  0.214 -0.000 -0.000  0.000 -0.113
 -0.000  0.314 -0.100  0.000  0.000
 -0.000 -0.100  0.314  0.000  0.000
  0.000  0.000  0.000  0.236 -0.000
 -0.113  0.000  0.000 -0.000  0.329
atomic mag. moment =     2.674269
atom    2   Tr[ns(na)] (up, down, total) =   4.10613  1.45297  5.55910
   spin  1
    eigenvalues: 
  0.554  0.572  0.986  0.988  1.006
    eigenvectors:
  0.000  0.247  0.753  0.000  0.000
  0.500  0.000  0.000  0.500  0.000
  0.500  0.000  0.000  0.500  0.000
  0.000  0.000  0.000  0.000  1.000
  0.000  0.753  0.247  0.000  0.000
    occupations:
  0.884  0.000  0.000  0.000 -0.179
  0.000  0.771 -0.217  0.000 -0.000
  0.000 -0.217  0.771 -0.000 -0.000
  0.000  0.000 -0.000  1.006 -0.000
 -0.179 -0.000 -0.000 -0.000  0.674
   spin  2
    eigenvalues: 
  0.152  0.225  0.248  0.406  0.422
    eigenvectors:
  0.730  0.000  0.000  0.270  0.000
  0.000  0.500  0.000  0.000  0.500
  0.000  0.500  0.000  0.000  0.500
  0.000  0.000  1.000  0.000  0.000
  0.270  0.000  0.000  0.730  0.000
    occupations:
  0.220 -0.000 -0.000 -0.000  0.113
 -0.000  0.324  0.099 -0.000  0.000
 -0.000  0.099  0.324  0.000  0.000
 -0.000 -0.000  0.000  0.248 -0.000
  0.113  0.000  0.000 -0.000  0.338
atomic mag. moment =     2.653166
atom    3   Tr[ns(na)] (up, down, total) =   4.10606  1.45237  5.55844
   spin  1
    eigenvalues: 
  0.554  0.572  0.986  0.988  1.006
    eigenvectors:
  0.000  0.247  0.753  0.000  0.000
  0.500  0.000  0.000  0.500  0.000
  0.500  0.000  0.000  0.500  0.000
  0.000  0.000  0.000  0.000  1.000
  0.000  0.753  0.247  0.000  0.000
    occupations:
  0.884 -0.000 -0.000 -0.000  0.179
 -0.000  0.771  0.217  0.000  0.000
 -0.000  0.217  0.771  0.000  0.000
 -0.000  0.000  0.000  1.006 -0.000
  0.179  0.000  0.000 -0.000  0.674
   spin  2
    eigenvalues: 
  0.151  0.225  0.248  0.406  0.422
    eigenvectors:
  0.729  0.000  0.000  0.271  0.000
  0.000  0.500  0.000  0.000  0.500
  0.000  0.500  0.000  0.000  0.500
  0.000  0.000  1.000  0.000  0.000
  0.271  0.000  0.000  0.729  0.000
    occupations:
  0.220 -0.000 -0.000  0.000 -0.113
 -0.000  0.324 -0.099  0.000  0.000
 -0.000 -0.099  0.324  0.000  0.000
  0.000  0.000  0.000  0.248 -0.000
 -0.113  0.000  0.000 -0.000  0.337
atomic mag. moment =     2.653690
atom    4   Tr[ns(na)] (up, down, total) =   4.10613  1.45297  5.55910
   spin  1
    eigenvalues: 
  0.554  0.572  0.986  0.988  1.006
    eigenvectors:
  0.000  0.247  0.753  0.000  0.000
  0.500  0.000  0.000  0.500  0.000
  0.500  0.000  0.000  0.500  0.000
  0.000  0.000  0.000  0.000  1.000
  0.000  0.753  0.247  0.000  0.000
    occupations:
  0.884 -0.000 -0.000  0.000 -0.179
 -0.000  0.771 -0.217 -0.000  0.000
 -0.000 -0.217  0.771  0.000  0.000
  0.000 -0.000  0.000  1.006 -0.000
 -0.179  0.000  0.000 -0.000  0.674
   spin  2
    eigenvalues: 
  0.152  0.225  0.248  0.406  0.422
    eigenvectors:
  0.730  0.000  0.000  0.270  0.000
  0.000  0.500  0.000  0.000  0.500
  0.000  0.500  0.000  0.000  0.500
  0.000  0.000  1.000  0.000  0.000
  0.270  0.000  0.000  0.730  0.000
    occupations:
  0.220  0.000  0.000 -0.000  0.113
  0.000  0.324  0.099  0.000 -0.000
  0.000  0.099  0.324 -0.000 -0.000
 -0.000  0.000 -0.000  0.248 -0.000
  0.113 -0.000 -0.000 -0.000  0.338
atomic mag. moment =     2.653166
atom    5   Tr[ns(na)] (up, down, total) =   4.10572  1.45284  5.55856
   spin  1
    eigenvalues: 
  0.554  0.571  0.986  0.988  1.006
    eigenvectors:
  0.000  0.247  0.753  0.000  0.000
  0.500  0.000  0.000  0.500  0.000
  0.500  0.000  0.000  0.500  0.000
  0.000  0.000  0.000  0.000  1.000
  0.000  0.753  0.247  0.000  0.000
    occupations:
  0.884 -0.000 -0.000 -0.000  0.179
 -0.000  0.771  0.217  0.000  0.000
 -0.000  0.217  0.771  0.000  0.000
 -0.000  0.000  0.000  1.006  0.000
  0.179  0.000  0.000  0.000  0.674
   spin  2
    eigenvalues: 
  0.152  0.225  0.248  0.406  0.422
    eigenvectors:
  0.730  0.000  0.000  0.270  0.000
  0.000  0.500  0.000  0.000  0.500
  0.000  0.500  0.000  0.000  0.500
  0.000  0.000  1.000  0.000  0.000
  0.270  0.000  0.000  0.730  0.000
    occupations:
  0.221 -0.000 -0.000  0.000 -0.113
 -0.000  0.323 -0.099  0.000  0.000
 -0.000 -0.099  0.323  0.000  0.000
  0.000  0.000  0.000  0.248  0.000
 -0.113  0.000  0.000  0.000  0.338
atomic mag. moment =     2.652883
atom    6   Tr[ns(na)] (up, down, total) =   4.10568  1.45226  5.55795
   spin  1
    eigenvalues: 
  0.554  0.571  0.986  0.989  1.006
    eigenvectors:
  0.000  0.247  0.753  0.000  0.000
  0.500  0.000  0.000  0.500  0.000
  0.500  0.000  0.000  0.500  0.000
  0.000  0.000  0.000  0.000  1.000
  0.000  0.753  0.247  0.000  0.000
    occupations:
  0.884  0.000 -0.000  0.000 -0.179
  0.000  0.771 -0.217  0.000  0.000
 -0.000 -0.217  0.771  0.000 -0.000
  0.000  0.000  0.000  1.006 -0.000
 -0.179  0.000 -0.000 -0.000  0.674
   spin  2
    eigenvalues: 
  0.152  0.225  0.248  0.406  0.422
    eigenvectors:
  0.730  0.000  0.000  0.270  0.000
  0.000  0.500  0.000  0.000  0.500
  0.000  0.500  0.000  0.000  0.500
  0.000  0.000  1.000  0.000  0.000
  0.270  0.000  0.000  0.730  0.000
    occupations:
  0.220 -0.000  0.000 -0.000  0.113
 -0.000  0.323  0.099  0.000 -0.000
  0.000  0.099  0.323  0.000  0.000
 -0.000  0.000  0.000  0.248 -0.000
  0.113 -0.000  0.000 -0.000  0.337
atomic mag. moment =     2.653420
atom    7   Tr[ns(na)] (up, down, total) =   4.10580  1.45297  5.55877
   spin  1
    eigenvalues: 
  0.554  0.571  0.986  0.988  1.006
    eigenvectors:
  0.000  0.247  0.753  0.000  0.000
  0.500  0.000  0.000  0.500  0.000
  0.500  0.000  0.000  0.500  0.000
  0.000  0.000  0.000  0.000  1.000
  0.000  0.753  0.247  0.000  0.000
    occupations:
  0.884 -0.000 -0.000  0.000  0.179
 -0.000  0.771  0.217  0.000  0.000
 -0.000  0.217  0.771  0.000  0.000
  0.000  0.000  0.000  1.006 -0.000
  0.179  0.000  0.000 -0.000  0.674
   spin  2
    eigenvalues: 
  0.152  0.225  0.248  0.406  0.422
    eigenvectors:
  0.730  0.000  0.000  0.270  0.000
  0.000  0.500  0.000  0.000  0.500
  0.000  0.500  0.000  0.000  0.500
  0.000  0.000  1.000  0.000  0.000
  0.270  0.000  0.000  0.730  0.000
    occupations:
  0.221 -0.000 -0.000 -0.000 -0.113
 -0.000  0.324 -0.099  0.000  0.000
 -0.000 -0.099  0.323  0.000  0.000
 -0.000  0.000  0.000  0.248  0.000
 -0.113  0.000  0.000  0.000  0.338
atomic mag. moment =     2.652830
atom    8   Tr[ns(na)] (up, down, total) =   4.10568  1.45226  5.55795
   spin  1
    eigenvalues: 
  0.554  0.571  0.986  0.989  1.006
    eigenvectors:
  0.000  0.247  0.753  0.000  0.000
  0.500  0.000  0.000  0.500  0.000
  0.500  0.000  0.000  0.500  0.000
  0.000  0.000  0.000  0.000  1.000
  0.000  0.753  0.247  0.000  0.000
    occupations:
  0.884 -0.000  0.000  0.000 -0.179
 -0.000  0.771 -0.217 -0.000 -0.000
  0.000 -0.217  0.771 -0.000  0.000
  0.000 -0.000 -0.000  1.006 -0.000
 -0.179 -0.000  0.000 -0.000  0.674
   spin  2
    eigenvalues: 
  0.152  0.225  0.248  0.406  0.422
    eigenvectors:
  0.730  0.000  0.000  0.270  0.000
  0.000  0.500  0.000  0.000  0.500
  0.000  0.500  0.000  0.000  0.500
  0.000  0.000  1.000  0.000  0.000
  0.270  0.000  0.000  0.730  0.000
    occupations:
  0.220  0.000 -0.000 -0.000  0.113
  0.000  0.323  0.099 -0.000  0.000
 -0.000  0.099  0.323 -0.000 -0.000
 -0.000 -0.000 -0.000  0.248 -0.000
  0.113  0.000 -0.000 -0.000  0.337
atomic mag. moment =     2.653420
atom    9   Tr[ns(na)] (up, down, total) =   4.10572  1.45284  5.55856
   spin  1
    eigenvalues: 
  0.554  0.571  0.986  0.988  1.006
    eigenvectors:
  0.000  0.247  0.753  0.000  0.000
  0.500  0.000  0.000  0.500  0.000
  0.500  0.000  0.000  0.500  0.000
  0.000  0.000  0.000  0.000  1.000
  0.000  0.753  0.247  0.000  0.000
    occupations:
  0.884 -0.000 -0.000  0.000  0.179
 -0.000  0.771  0.217  0.000  0.000
 -0.000  0.217  0.771  0.000  0.000
  0.000  0.000  0.000  1.006 -0.000
  0.179  0.000  0.000 -0.000  0.674
   spin  2
    eigenvalues: 
  0.152  0.225  0.248  0.406  0.422
    eigenvectors:
  0.730  0.000  0.000  0.270  0.000
  0.000  0.500  0.000  0.000  0.500
  0.000  0.500  0.000  0.000  0.500
  0.000  0.000  1.000  0.000  0.000
  0.270  0.000  0.000  0.730  0.000
    occupations:
  0.221 -0.000 -0.000 -0.000 -0.113
 -0.000  0.323 -0.099  0.000  0.000
 -0.000 -0.099  0.323  0.000  0.000
 -0.000  0.000  0.000  0.248 -0.000
 -0.113  0.000  0.000 -0.000  0.338
atomic mag. moment =     2.652883
atom   10   Tr[ns(na)] (up, down, total) =   4.10568  1.45226  5.55795
   spin  1
    eigenvalues: 
  0.554  0.571  0.986  0.989  1.006
    eigenvectors:
  0.000  0.247  0.753  0.000  0.000
  0.500  0.000  0.000  0.500  0.000
  0.500  0.000  0.000  0.500  0.000
  0.000  0.000  0.000  0.000  1.000
  0.000  0.753  0.247  0.000  0.000
    occupations:
  0.884 -0.000  0.000  0.000 -0.179
 -0.000  0.771 -0.217 -0.000 -0.000
  0.000 -0.217  0.771 -0.000  0.000
  0.000 -0.000 -0.000  1.006 -0.000
 -0.179 -0.000  0.000 -0.000  0.674
   spin  2
    eigenvalues: 
  0.152  0.225  0.248  0.406  0.422
    eigenvectors:
  0.730  0.000  0.000  0.270  0.000
  0.000  0.500  0.000  0.000  0.500
  0.000  0.500  0.000  0.000  0.500
  0.000  0.000  1.000  0.000  0.000
  0.270  0.000  0.000  0.730  0.000
    occupations:
  0.220  0.000 -0.000 -0.000  0.113
  0.000  0.323  0.099 -0.000  0.000
 -0.000  0.099  0.323 -0.000 -0.000
 -0.000 -0.000 -0.000  0.248 -0.000
  0.113  0.000 -0.000 -0.000  0.337
atomic mag. moment =     2.653420
atom   11   Tr[ns(na)] (up, down, total) =   4.10580  1.45297  5.55877
   spin  1
    eigenvalues: 
  0.554  0.571  0.986  0.988  1.006
    eigenvectors:
  0.000  0.247  0.753  0.000  0.000
  0.500  0.000  0.000  0.500  0.000
  0.500  0.000  0.000  0.500  0.000
  0.000  0.000  0.000  0.000  1.000
  0.000  0.753  0.247  0.000  0.000
    occupations:
  0.884 -0.000 -0.000 -0.000  0.179
 -0.000  0.771  0.217  0.000  0.000
 -0.000  0.217  0.771  0.000  0.000
 -0.000  0.000  0.000  1.006  0.000
  0.179  0.000  0.000  0.000  0.674
   spin  2
    eigenvalues: 
  0.152  0.225  0.248  0.406  0.422
    eigenvectors:
  0.730  0.000  0.000  0.270  0.000
  0.000  0.500  0.000  0.000  0.500
  0.000  0.500  0.000  0.000  0.500
  0.000  0.000  1.000  0.000  0.000
  0.270  0.000  0.000  0.730  0.000
    occupations:
  0.221 -0.000 -0.000  0.000 -0.113
 -0.000  0.323 -0.099  0.000  0.000
 -0.000 -0.099  0.324  0.000  0.000
  0.000  0.000  0.000  0.248 -0.000
 -0.113  0.000  0.000 -0.000  0.338
atomic mag. moment =     2.652830
atom   12   Tr[ns(na)] (up, down, total) =   4.10568  1.45226  5.55795
   spin  1
    eigenvalues: 
  0.554  0.571  0.986  0.989  1.006
    eigenvectors:
  0.000  0.247  0.753  0.000  0.000
  0.500  0.000  0.000  0.500  0.000
  0.500  0.000  0.000  0.500  0.000
  0.000  0.000  0.000  0.000  1.000
  0.000  0.753  0.247  0.000  0.000
    occupations:
  0.884  0.000 -0.000  0.000 -0.179
  0.000  0.771 -0.217  0.000  0.000
 -0.000 -0.217  0.771  0.000 -0.000
  0.000  0.000  0.000  1.006 -0.000
 -0.179  0.000 -0.000 -0.000  0.674
   spin  2
    eigenvalues: 
  0.152  0.225  0.248  0.406  0.422
    eigenvectors:
  0.730  0.000  0.000  0.270  0.000
  0.000  0.500  0.000  0.000  0.500
  0.000  0.500  0.000  0.000  0.500
  0.000  0.000  1.000  0.000  0.000
  0.270  0.000  0.000  0.730  0.000
    occupations:
  0.220 -0.000  0.000 -0.000  0.113
 -0.000  0.323  0.099  0.000 -0.000
  0.000  0.099  0.323  0.000  0.000
 -0.000  0.000  0.000  0.248 -0.000
  0.113 -0.000  0.000 -0.000  0.337
atomic mag. moment =     2.653420
atom   13   Tr[ns(na)] (up, down, total) =   4.10557  1.45214  5.55771
   spin  1
    eigenvalues: 
  0.554  0.571  0.986  0.988  1.006
    eigenvectors:
  0.000  0.247  0.753  0.000  0.000
  0.500  0.000  0.000  0.500  0.000
  0.500  0.000  0.000  0.500  0.000
  0.000  0.000  0.000  0.000  1.000
  0.000  0.753  0.247  0.000  0.000
    occupations:
  0.884 -0.000 -0.000 -0.000  0.179
 -0.000  0.771  0.217  0.000  0.000
 -0.000  0.217  0.771  0.000  0.000
 -0.000  0.000  0.000  1.006 -0.000
  0.179  0.000  0.000 -0.000  0.674
   spin  2
    eigenvalues: 
  0.151  0.225  0.248  0.406  0.422
    eigenvectors:
  0.730  0.000  0.000  0.270  0.000
  0.000  0.500  0.000  0.000  0.500
  0.000  0.500  0.000  0.000  0.500
  0.000  0.000  1.000  0.000  0.000
  0.270  0.000  0.000  0.730  0.000
    occupations:
  0.220 -0.000 -0.000  0.000 -0.113
 -0.000  0.323 -0.099  0.000  0.000
 -0.000 -0.099  0.323  0.000  0.000
  0.000  0.000  0.000  0.248 -0.000
 -0.113  0.000  0.000 -0.000  0.337
atomic mag. moment =     2.653424
atom   14   Tr[ns(na)] (up, down, total) =   4.10613  1.45297  5.55910
   spin  1
    eigenvalues: 
  0.554  0.572  0.986  0.988  1.006
    eigenvectors:
  0.000  0.247  0.753  0.000  0.000
  0.500  0.000  0.000  0.500  0.000
  0.500  0.000  0.000  0.500  0.000
  0.000  0.000  0.000  0.000  1.000
  0.000  0.753  0.247  0.000  0.000
    occupations:
  0.884 -0.000 -0.000  0.000 -0.179
 -0.000  0.771 -0.217 -0.000  0.000
 -0.000 -0.217  0.771  0.000  0.000
  0.000 -0.000  0.000  1.006 -0.000
 -0.179  0.000  0.000 -0.000  0.674
   spin  2
    eigenvalues: 
  0.152  0.225  0.248  0.406  0.422
    eigenvectors:
  0.730  0.000  0.000  0.270  0.000
  0.000  0.500  0.000  0.000  0.500
  0.000  0.500  0.000  0.000  0.500
  0.000  0.000  1.000  0.000  0.000
  0.270  0.000  0.000  0.730  0.000
    occupations:
  0.220  0.000  0.000 -0.000  0.113
  0.000  0.324  0.099  0.000 -0.000
  0.000  0.099  0.324 -0.000 -0.000
 -0.000  0.000 -0.000  0.248 -0.000
  0.113 -0.000 -0.000 -0.000  0.338
atomic mag. moment =     2.653166
atom   15   Tr[ns(na)] (up, down, total) =   4.10455  1.45104  5.55559
   spin  1
    eigenvalues: 
  0.554  0.571  0.986  0.988  1.005
    eigenvectors:
  0.000  0.247  0.753  0.000  0.000
  0.500  0.000  0.000  0.500  0.000
  0.500  0.000  0.000  0.500  0.000
  0.000  0.000  0.000  0.000  1.000
  0.000  0.753  0.247  0.000  0.000
    occupations:
  0.883 -0.000 -0.000 -0.000  0.179
 -0.000  0.771  0.217  0.000  0.000
 -0.000  0.217  0.771  0.000  0.000
 -0.000  0.000  0.000  1.005 -0.000
  0.179  0.000  0.000 -0.000  0.674
   spin  2
    eigenvalues: 
  0.151  0.224  0.248  0.406  0.422
    eigenvectors:
  0.730  0.000  0.000  0.270  0.000
  0.000  0.500  0.000  0.000  0.500
  0.000  0.500  0.000  0.000  0.500
  0.000  0.000  1.000  0.000  0.000
  0.270  0.000  0.000  0.730  0.000
    occupations:
  0.220 -0.000 -0.000  0.000 -0.113
 -0.000  0.323 -0.099  0.000  0.000
 -0.000 -0.099  0.323  0.000  0.000
  0.000  0.000  0.000  0.248 -0.000
 -0.113  0.000  0.000 -0.000  0.337
atomic mag. moment =     2.653516
atom   16   Tr[ns(na)] (up, down, total) =   4.10613  1.45297  5.55910
   spin  1
    eigenvalues: 
  0.554  0.572  0.986  0.988  1.006
    eigenvectors:
  0.000  0.247  0.753  0.000  0.000
  0.500  0.000  0.000  0.500  0.000
  0.500  0.000  0.000  0.500  0.000
  0.000  0.000  0.000  0.000  1.000
  0.000  0.753  0.247  0.000  0.000
    occupations:
  0.884  0.000  0.000  0.000 -0.179
  0.000  0.771 -0.217  0.000 -0.000
  0.000 -0.217  0.771 -0.000 -0.000
  0.000  0.000 -0.000  1.006 -0.000
 -0.179 -0.000 -0.000 -0.000  0.674
   spin  2
    eigenvalues: 
  0.152  0.225  0.248  0.406  0.422
    eigenvectors:
  0.730  0.000  0.000  0.270  0.000
  0.000  0.500  0.000  0.000  0.500
  0.000  0.500  0.000  0.000  0.500
  0.000  0.000  1.000  0.000  0.000
  0.270  0.000  0.000  0.730  0.000
    occupations:
  0.220 -0.000 -0.000 -0.000  0.113
 -0.000  0.324  0.099 -0.000  0.000
 -0.000  0.099  0.324  0.000  0.000
 -0.000 -0.000  0.000  0.248 -0.000
  0.113  0.000  0.000 -0.000  0.338
atomic mag. moment =     2.653166
atom   17   Tr[ns(na)] (up, down, total) =   2.70063  2.62779  5.32842
   spin  1
    eigenvalues: 
  0.850  0.857  0.994
    eigenvectors:
  0.000  1.000  0.000
  0.500  0.000  0.500
  0.500  0.000  0.500
    occupations:
  0.857 -0.000  0.000
 -0.000  0.922 -0.072
  0.000 -0.072  0.922
   spin  2
    eigenvalues: 
  0.871  0.874  0.883
    eigenvectors:
  0.000  0.000  1.000
  0.500  0.500  0.000
  0.500  0.500  0.000
    occupations:
  0.883 -0.000 -0.000
 -0.000  0.872  0.002
 -0.000  0.002  0.872
atomic mag. moment =     0.072840
atom   18   Tr[ns(na)] (up, down, total) =   2.70063  2.62779  5.32842
   spin  1
    eigenvalues: 
  0.850  0.857  0.994
    eigenvectors:
  0.000  1.000  0.000
  0.500  0.000  0.500
  0.500  0.000  0.500
    occupations:
  0.857 -0.000  0.000
 -0.000  0.922 -0.072
  0.000 -0.072  0.922
   spin  2
    eigenvalues: 
  0.871  0.874  0.883
    eigenvectors:
  0.000  0.000  1.000
  0.500  0.500  0.000
  0.500  0.500  0.000
    occupations:
  0.883 -0.000 -0.000
 -0.000  0.872  0.002
 -0.000  0.002  0.872
atomic mag. moment =     0.072840
atom   19   Tr[ns(na)] (up, down, total) =   2.69959  2.62438  5.32396
   spin  1
    eigenvalues: 
  0.848  0.858  0.994
    eigenvectors:
  0.000  1.000  0.000
  0.500  0.000  0.500
  0.500  0.000  0.500
    occupations:
  0.858  0.000 -0.000
  0.000  0.921  0.073
 -0.000  0.073  0.921
   spin  2
    eigenvalues: 
  0.869  0.873  0.883
    eigenvectors:
  0.000  0.000  1.000
  0.499  0.501  0.000
  0.501  0.499  0.000
    occupations:
  0.883 -0.000 -0.000
 -0.000  0.871 -0.002
 -0.000 -0.002  0.871
atomic mag. moment =     0.075211
atom   20   Tr[ns(na)] (up, down, total) =   2.69959  2.62438  5.32396
   spin  1
    eigenvalues: 
  0.848  0.858  0.994
    eigenvectors:
  0.000  1.000  0.000
  0.500  0.000  0.500
  0.500  0.000  0.500
    occupations:
  0.858 -0.000  0.000
 -0.000  0.921  0.073
  0.000  0.073  0.921
   spin  2
    eigenvalues: 
  0.869  0.873  0.883
    eigenvectors:
  0.000  0.000  1.000
  0.501  0.499  0.000
  0.499  0.501  0.000
    occupations:
  0.883 -0.000 -0.000
 -0.000  0.871 -0.002
 -0.000 -0.002  0.871
atomic mag. moment =     0.075211
atom   21   Tr[ns(na)] (up, down, total) =   2.69944  2.62428  5.32372
   spin  1
    eigenvalues: 
  0.848  0.857  0.994
    eigenvectors:
  0.000  1.000  0.000
  0.500  0.000  0.500
  0.500  0.000  0.500
    occupations:
  0.857 -0.000  0.000
 -0.000  0.921 -0.073
  0.000 -0.073  0.921
   spin  2
    eigenvalues: 
  0.869  0.873  0.883
    eigenvectors:
  0.000  0.000  1.000
  0.500  0.500  0.000
  0.500  0.500  0.000
    occupations:
  0.883 -0.000 -0.000
 -0.000  0.871  0.002
 -0.000  0.002  0.871
atomic mag. moment =     0.075163
atom   22   Tr[ns(na)] (up, down, total) =   2.69944  2.62428  5.32372
   spin  1
    eigenvalues: 
  0.848  0.857  0.994
    eigenvectors:
  0.000  1.000  0.000
  0.500  0.000  0.500
  0.500  0.000  0.500
    occupations:
  0.857 -0.000  0.000
 -0.000  0.921 -0.073
  0.000 -0.073  0.921
   spin  2
    eigenvalues: 
  0.869  0.873  0.883
    eigenvectors:
  0.000  0.000  1.000
  0.500  0.500  0.000
  0.500  0.500  0.000
    occupations:
  0.883 -0.000 -0.000
 -0.000  0.871  0.002
 -0.000  0.002  0.871
atomic mag. moment =     0.075163
atom   23   Tr[ns(na)] (up, down, total) =   2.69959  2.62438  5.32396
   spin  1
    eigenvalues: 
  0.848  0.858  0.994
    eigenvectors:
  0.000  1.000  0.000
  0.500  0.000  0.500
  0.500  0.000  0.500
    occupations:
  0.858 -0.000  0.000
 -0.000  0.921  0.073
  0.000  0.073  0.921
   spin  2
    eigenvalues: 
  0.869  0.873  0.883
    eigenvectors:
  0.000  0.000  1.000
  0.499  0.501  0.000
  0.501  0.499  0.000
    occupations:
  0.883  0.000  0.000
  0.000  0.871 -0.002
  0.000 -0.002  0.871
atomic mag. moment =     0.075211
atom   24   Tr[ns(na)] (up, down, total) =   2.69959  2.62438  5.32396
   spin  1
    eigenvalues: 
  0.848  0.858  0.994
    eigenvectors:
  0.000  1.000  0.000
  0.500  0.000  0.500
  0.500  0.000  0.500
    occupations:
  0.858  0.000 -0.000
  0.000  0.921  0.073
 -0.000  0.073  0.921
   spin  2
    eigenvalues: 
  0.869  0.873  0.883
    eigenvectors:
  0.000  0.000  1.000
  0.501  0.499  0.000
  0.499  0.501  0.000
    occupations:
  0.883  0.000  0.000
  0.000  0.871 -0.002
  0.000 -0.002  0.871
atomic mag. moment =     0.075211
atom   25   Tr[ns(na)] (up, down, total) =   2.69974  2.62452  5.32427
   spin  1
    eigenvalues: 
  0.848  0.858  0.994
    eigenvectors:
  0.000  1.000  0.000
  0.500  0.000  0.500
  0.500  0.000  0.500
    occupations:
  0.858 -0.000  0.000
 -0.000  0.921 -0.073
  0.000 -0.073  0.921
   spin  2
    eigenvalues: 
  0.869  0.873  0.883
    eigenvectors:
  0.000  0.000  1.000
  0.496  0.504  0.000
  0.504  0.496  0.000
    occupations:
  0.883 -0.000 -0.000
 -0.000  0.871  0.002
 -0.000  0.002  0.871
atomic mag. moment =     0.075219
atom   26   Tr[ns(na)] (up, down, total) =   2.69974  2.62452  5.32427
   spin  1
    eigenvalues: 
  0.848  0.858  0.994
    eigenvectors:
  0.000  1.000  0.000
  0.500  0.000  0.500
  0.500  0.000  0.500
    occupations:
  0.858 -0.000  0.000
 -0.000  0.921 -0.073
  0.000 -0.073  0.921
   spin  2
    eigenvalues: 
  0.869  0.873  0.883
    eigenvectors:
  0.000  0.000  1.000
  0.496  0.504  0.000
  0.504  0.496  0.000
    occupations:
  0.883 -0.000 -0.000
 -0.000  0.871  0.002
 -0.000  0.002  0.871
atomic mag. moment =     0.075219
atom   27   Tr[ns(na)] (up, down, total) =   2.69947  2.62451  5.32398
   spin  1
    eigenvalues: 
  0.848  0.858  0.994
    eigenvectors:
  0.000  1.000  0.000
  0.500  0.000  0.500
  0.500  0.000  0.500
    occupations:
  0.858  0.000 -0.000
  0.000  0.921  0.073
 -0.000  0.073  0.921
   spin  2
    eigenvalues: 
  0.869  0.873  0.883
    eigenvectors:
  0.000  0.000  1.000
  0.500  0.500  0.000
  0.500  0.500  0.000
    occupations:
  0.883 -0.000  0.000
 -0.000  0.871 -0.002
  0.000 -0.002  0.871
atomic mag. moment =     0.074965
atom   28   Tr[ns(na)] (up, down, total) =   2.70144  2.62899  5.33042
   spin  1
    eigenvalues: 
  0.848  0.859  0.994
    eigenvectors:
  0.010  0.990  0.000
  0.495  0.005  0.500
  0.495  0.005  0.500
    occupations:
  0.859 -0.001  0.001
 -0.001  0.921  0.073
  0.001  0.073  0.921
   spin  2
    eigenvalues: 
  0.871  0.874  0.884
    eigenvectors:
  0.000  0.001  0.999
  0.500  0.499  0.001
  0.500  0.499  0.001
    occupations:
  0.884 -0.000  0.000
 -0.000  0.872 -0.001
  0.000 -0.001  0.872
atomic mag. moment =     0.072451
atom   29   Tr[ns(na)] (up, down, total) =   2.69968  2.62467  5.32435
   spin  1
    eigenvalues: 
  0.848  0.858  0.994
    eigenvectors:
  0.000  1.000  0.000
  0.500  0.000  0.500
  0.500  0.000  0.500
    occupations:
  0.858 -0.000  0.000
 -0.000  0.921 -0.073
  0.000 -0.073  0.921
   spin  2
    eigenvalues: 
  0.869  0.873  0.883
    eigenvectors:
  0.000  0.000  1.000
  0.509  0.491  0.000
  0.491  0.509  0.000
    occupations:
  0.883 -0.000 -0.000
 -0.000  0.871  0.002
 -0.000  0.002  0.871
atomic mag. moment =     0.075007
atom   30   Tr[ns(na)] (up, down, total) =   2.69968  2.62467  5.32435
   spin  1
    eigenvalues: 
  0.848  0.858  0.994
    eigenvectors:
  0.000  1.000  0.000
  0.500  0.000  0.500
  0.500  0.000  0.500
    occupations:
  0.858 -0.000  0.000
 -0.000  0.921 -0.073
  0.000 -0.073  0.921
   spin  2
    eigenvalues: 
  0.869  0.873  0.883
    eigenvectors:
  0.000  0.000  1.000
  0.509  0.491  0.000
  0.491  0.509  0.000
    occupations:
  0.883 -0.000 -0.000
 -0.000  0.871  0.002
 -0.000  0.002  0.871
atomic mag. moment =     0.075007
atom   31   Tr[ns(na)] (up, down, total) =   2.69947  2.62451  5.32398
   spin  1
    eigenvalues: 
  0.848  0.858  0.994
    eigenvectors:
  0.000  1.000  0.000
  0.500  0.000  0.500
  0.500  0.000  0.500
    occupations:
  0.858 -0.000  0.000
 -0.000  0.921  0.073
  0.000  0.073  0.921
   spin  2
    eigenvalues: 
  0.869  0.873  0.883
    eigenvectors:
  0.000  0.000  1.000
  0.500  0.500  0.000
  0.500  0.500  0.000
    occupations:
  0.883  0.000 -0.000
  0.000  0.871 -0.002
 -0.000 -0.002  0.871
atomic mag. moment =     0.074965
atom   32   Tr[ns(na)] (up, down, total) =   2.70144  2.62899  5.33042
   spin  1
    eigenvalues: 
  0.848  0.859  0.994
    eigenvectors:
  0.010  0.990  0.000
  0.495  0.005  0.500
  0.495  0.005  0.500
    occupations:
  0.859  0.001 -0.001
  0.001  0.921  0.073
 -0.001  0.073  0.921
   spin  2
    eigenvalues: 
  0.871  0.874  0.884
    eigenvectors:
  0.000  0.001  0.999
  0.500  0.499  0.001
  0.500  0.499  0.001
    occupations:
  0.884  0.000 -0.000
  0.000  0.872 -0.001
 -0.000 -0.001  0.872
atomic mag. moment =     0.072451
atom   33   Tr[ns(na)] (up, down, total) =   2.69974  2.62452  5.32427
   spin  1
    eigenvalues: 
  0.848  0.858  0.994
    eigenvectors:
  0.000  1.000  0.000
  0.500  0.000  0.500
  0.500  0.000  0.500
    occupations:
  0.858 -0.000  0.000
 -0.000  0.921 -0.073
  0.000 -0.073  0.921
   spin  2
    eigenvalues: 
  0.869  0.873  0.883
    eigenvectors:
  0.000  0.000  1.000
  0.504  0.496  0.000
  0.496  0.504  0.000
    occupations:
  0.883 -0.000 -0.000
 -0.000  0.871  0.002
 -0.000  0.002  0.871
atomic mag. moment =     0.075219
atom   34   Tr[ns(na)] (up, down, total) =   2.69974  2.62452  5.32427
   spin  1
    eigenvalues: 
  0.848  0.858  0.994
    eigenvectors:
  0.000  1.000  0.000
  0.500  0.000  0.500
  0.500  0.000  0.500
    occupations:
  0.858 -0.000  0.000
 -0.000  0.921 -0.073
  0.000 -0.073  0.921
   spin  2
    eigenvalues: 
  0.869  0.873  0.883
    eigenvectors:
  0.000  0.000  1.000
  0.504  0.496  0.000
  0.496  0.504  0.000
    occupations:
  0.883 -0.000 -0.000
 -0.000  0.871  0.002
 -0.000  0.002  0.871
atomic mag. moment =     0.075219
atom   35   Tr[ns(na)] (up, down, total) =   2.70144  2.62899  5.33042
   spin  1
    eigenvalues: 
  0.848  0.859  0.994
    eigenvectors:
  0.010  0.990  0.000
  0.495  0.005  0.500
  0.495  0.005  0.500
    occupations:
  0.859  0.001 -0.001
  0.001  0.921  0.073
 -0.001  0.073  0.921
   spin  2
    eigenvalues: 
  0.871  0.874  0.884
    eigenvectors:
  0.000  0.001  0.999
  0.500  0.499  0.001
  0.500  0.499  0.001
    occupations:
  0.884  0.000 -0.000
  0.000  0.872 -0.001
 -0.000 -0.001  0.872
atomic mag. moment =     0.072451
atom   36   Tr[ns(na)] (up, down, total) =   2.69947  2.62451  5.32398
   spin  1
    eigenvalues: 
  0.848  0.858  0.994
    eigenvectors:
  0.000  1.000  0.000
  0.500  0.000  0.500
  0.500  0.000  0.500
    occupations:
  0.858 -0.000  0.000
 -0.000  0.921  0.073
  0.000  0.073  0.921
   spin  2
    eigenvalues: 
  0.869  0.873  0.883
    eigenvectors:
  0.000  0.000  1.000
  0.500  0.500  0.000
  0.500  0.500  0.000
    occupations:
  0.883  0.000 -0.000
  0.000  0.871 -0.002
 -0.000 -0.002  0.871
atomic mag. moment =     0.074965
atom   37   Tr[ns(na)] (up, down, total) =   2.69968  2.62467  5.32435
   spin  1
    eigenvalues: 
  0.848  0.858  0.994
    eigenvectors:
  0.000  1.000  0.000
  0.500  0.000  0.500
  0.500  0.000  0.500
    occupations:
  0.858 -0.000  0.000
 -0.000  0.921 -0.073
  0.000 -0.073  0.921
   spin  2
    eigenvalues: 
  0.869  0.873  0.883
    eigenvectors:
  0.000  0.000  1.000
  0.491  0.509  0.000
  0.509  0.491  0.000
    occupations:
  0.883 -0.000 -0.000
 -0.000  0.871  0.002
 -0.000  0.002  0.871
atomic mag. moment =     0.075007
atom   38   Tr[ns(na)] (up, down, total) =   2.69968  2.62467  5.32435
   spin  1
    eigenvalues: 
  0.848  0.858  0.994
    eigenvectors:
  0.000  1.000  0.000
  0.500  0.000  0.500
  0.500  0.000  0.500
    occupations:
  0.858 -0.000  0.000
 -0.000  0.921 -0.073
  0.000 -0.073  0.921
   spin  2
    eigenvalues: 
  0.869  0.873  0.883
    eigenvectors:
  0.000  0.000  1.000
  0.491  0.509  0.000
  0.509  0.491  0.000
    occupations:
  0.883 -0.000 -0.000
 -0.000  0.871  0.002
 -0.000  0.002  0.871
atomic mag. moment =     0.075007
atom   39   Tr[ns(na)] (up, down, total) =   2.70144  2.62899  5.33042
   spin  1
    eigenvalues: 
  0.848  0.859  0.994
    eigenvectors:
  0.010  0.990  0.000
  0.495  0.005  0.500
  0.495  0.005  0.500
    occupations:
  0.859 -0.001  0.001
 -0.001  0.921  0.073
  0.001  0.073  0.921
   spin  2
    eigenvalues: 
  0.871  0.874  0.884
    eigenvectors:
  0.000  0.001  0.999
  0.500  0.499  0.001
  0.500  0.499  0.001
    occupations:
  0.884 -0.000  0.000
 -0.000  0.872 -0.001
  0.000 -0.001  0.872
atomic mag. moment =     0.072451
atom   40   Tr[ns(na)] (up, down, total) =   2.69947  2.62451  5.32398
   spin  1
    eigenvalues: 
  0.848  0.858  0.994
    eigenvectors:
  0.000  1.000  0.000
  0.500  0.000  0.500
  0.500  0.000  0.500
    occupations:
  0.858  0.000 -0.000
  0.000  0.921  0.073
 -0.000  0.073  0.921
   spin  2
    eigenvalues: 
  0.869  0.873  0.883
    eigenvectors:
  0.000  0.000  1.000
  0.500  0.500  0.000
  0.500  0.500  0.000
    occupations:
  0.883 -0.000  0.000
 -0.000  0.871 -0.002
  0.000 -0.002  0.871
atomic mag. moment =     0.074965
atom   41   Tr[ns(na)] (up, down, total) =   2.69962  2.62443  5.32405
   spin  1
    eigenvalues: 
  0.848  0.858  0.994
    eigenvectors:
  0.000  1.000  0.000
  0.500  0.000  0.500
  0.500  0.000  0.500
    occupations:
  0.858 -0.000  0.000
 -0.000  0.921 -0.073
  0.000 -0.073  0.921
   spin  2
    eigenvalues: 
  0.869  0.873  0.883
    eigenvectors:
  0.000  0.000  1.000
  0.500  0.500  0.000
  0.500  0.500  0.000
    occupations:
  0.883 -0.000 -0.000
 -0.000  0.871  0.002
 -0.000  0.002  0.871
atomic mag. moment =     0.075196
atom   42   Tr[ns(na)] (up, down, total) =   2.69962  2.62443  5.32405
   spin  1
    eigenvalues: 
  0.848  0.858  0.994
    eigenvectors:
  0.000  1.000  0.000
  0.500  0.000  0.500
  0.500  0.000  0.500
    occupations:
  0.858 -0.000  0.000
 -0.000  0.921 -0.073
  0.000 -0.073  0.921
   spin  2
    eigenvalues: 
  0.869  0.873  0.883
    eigenvectors:
  0.000  0.000  1.000
  0.500  0.500  0.000
  0.500  0.500  0.000
    occupations:
  0.883 -0.000 -0.000
 -0.000  0.871  0.002
 -0.000  0.002  0.871
atomic mag. moment =     0.075196
atom   43   Tr[ns(na)] (up, down, total) =   2.69959  2.62438  5.32396
   spin  1
    eigenvalues: 
  0.848  0.858  0.994
    eigenvectors:
  0.000  1.000  0.000
  0.500  0.000  0.500
  0.500  0.000  0.500
    occupations:
  0.858  0.000 -0.000
  0.000  0.921  0.073
 -0.000  0.073  0.921
   spin  2
    eigenvalues: 
  0.869  0.873  0.883
    eigenvectors:
  0.000  0.000  1.000
  0.501  0.499  0.000
  0.499  0.501  0.000
    occupations:
  0.883  0.000  0.000
  0.000  0.871 -0.002
  0.000 -0.002  0.871
atomic mag. moment =     0.075211
atom   44   Tr[ns(na)] (up, down, total) =   2.69959  2.62438  5.32396
   spin  1
    eigenvalues: 
  0.848  0.858  0.994
    eigenvectors:
  0.000  1.000  0.000
  0.500  0.000  0.500
  0.500  0.000  0.500
    occupations:
  0.858 -0.000  0.000
 -0.000  0.921  0.073
  0.000  0.073  0.921
   spin  2
    eigenvalues: 
  0.869  0.873  0.883
    eigenvectors:
  0.000  0.000  1.000
  0.499  0.501  0.000
  0.501  0.499  0.000
    occupations:
  0.883  0.000  0.000
  0.000  0.871 -0.002
  0.000 -0.002  0.871
atomic mag. moment =     0.075211
atom   45   Tr[ns(na)] (up, down, total) =   2.69961  2.62461  5.32422
   spin  1
    eigenvalues: 
  0.848  0.858  0.994
    eigenvectors:
  0.000  1.000  0.000
  0.500  0.000  0.500
  0.500  0.000  0.500
    occupations:
  0.858 -0.000  0.000
[...]
    -6.6927  -6.6764  -6.6443  -6.6440  -6.6363  -6.6352  -6.5970  -6.5876
    -6.5803  -6.5649  -6.4899  -6.4893  -6.4663  -6.4653  -6.4393  -6.4380
     3.7781   4.0901   4.3114   4.3133   4.3905   4.5091   4.6600   4.6626
     4.6786   4.7669   4.8350   4.8363   4.8380   4.8387   5.0667   5.0849
     5.0861   5.2343   5.2641   5.3407   5.3422   5.3900   5.6962   5.6981
     5.7446   5.8738   5.9263   5.9266   6.1204   6.1623   6.1733   6.1787
     6.1915   6.1972   6.2285   6.2377   6.2381   6.2684   6.2711   6.5987
     6.6000   6.6159   6.6426   6.6454   6.8099   6.9633   6.9933   6.9940
     7.0000   7.0370   7.0391   7.1332   7.1342   7.1700   7.1708   7.2183
     7.3446   7.3452   7.3969   7.8461   7.9749   8.1249   8.1268   8.1531
     8.2318   8.2332   8.4096   8.4103   8.4340   8.4916   8.6955   8.6984
     8.7333   8.7388   8.7432   8.7590   8.7613   8.8205   8.9829   9.0635
     9.1484   9.3335   9.3339   9.4088   9.5561   9.5571   9.6393   9.6849
     9.7178   9.7355   9.7361   9.9365   9.9924  10.3080  10.3081  10.8965
    11.4555  11.4807  11.7613  11.7670  11.8242  11.8255  11.8345  11.9062
    11.9204  11.9426  11.9539  12.0442  12.0470  12.1125  12.1144  12.2434
    12.2435  12.2558  12.2677  12.3032  12.4450  12.5583  12.5652  12.5670
    12.5738  12.5740  12.5755  12.5849  12.5894  12.5931  12.6220  12.6284
    12.8240  12.8369  12.9741  12.9769  13.2754  13.4207  13.4566  13.4582
    13.4639  13.5808  13.5809  13.6210  13.6225  13.7011  13.7074  13.7465
    13.8087  13.8094  13.8619  14.0164  14.0318  14.0455  14.0456  14.6926
    14.6930  14.7200  14.7302  14.8145  14.8207  15.0619  15.0625  15.1735
    15.2981  15.3050  15.3074  15.3089  15.3451  15.4992  15.5115  15.6177
    15.8522  15.8531  15.8662  15.9052  15.9065  16.2003  16.2024  16.6557
    20.1199  21.4428  21.4449  22.4927  22.7874  22.7893  22.9753  23.0822
    23.3630  23.4206  23.8399  23.8938  23.8948  23.9611  23.9625  24.0978
    24.1306  24.3795  24.3818  24.4161  24.9712  25.1728  25.3392  25.3422
    25.5869  25.5877  25.6679  25.9224  26.3584  26.3598  26.5237  26.5586
    26.7879  26.7952  26.9570  26.9576  26.9813  27.0151  27.2012  27.3494
    27.3837  27.3866  27.4243  27.7434  27.7508  27.7536  27.9813  27.9837
    28.2308  28.3359  28.3359  28.3402  28.4848  28.4861  28.4977  28.6295
    28.6311  28.7337  28.8186  29.0509  29.0530  29.2715  29.3436  29.3436
    29.5405  29.5831  29.5851  29.6199  29.7180  29.7190  29.8144  29.8320
    30.2471  30.2495  30.4648  30.4680  30.6208  30.6845  31.1347  31.2769
    31.3217  31.3235  31.4701  31.5350  31.5625  31.7679  32.0917  32.5734
    32.5751  32.7668  32.7699  32.9060  32.9065  33.2734  33.3481  33.6790
    33.7850  33.7994  33.8008  33.8832  33.9952  34.1406  34.1455  34.4757
    34.4763  34.5149  34.6913  34.6922  34.7743  34.7752  34.9608  34.9632
    35.0853  35.3094  35.3125  35.3128  35.3594  36.1493  36.1717  36.5996
    36.8985  37.2080  37.2231  37.2470  37.2493  37.3703  37.6156  37.9078
    37.9712  38.0157  38.1359  38.1377  38.2957  38.2982  38.7101  38.7126
    38.7911  38.8228  38.8232  39.0027  39.0034  39.0851  39.1050  39.5990
    39.7558  39.8727  40.3271  40.4818  40.4854  40.5833  40.5857  40.6136
    40.8540  40.9763  41.0909  41.0924  41.1547  41.1589  41.2152  41.2181
    41.3297  41.3310  41.4303  41.6610  41.6845  42.1975  42.3695  42.6168
    42.6185  42.7958  42.8875  42.9919  42.9922  43.3163  43.3868  43.4410
    43.4615  43.6458  43.6487  43.6577  44.1467  44.1526  44.2807  44.3828
    44.5700  44.7093  44.7112  44.7123  44.9474  44.9495  44.9894  45.1619
    45.2036  45.2054  45.2175  45.2265  45.2290  45.2359  45.2363  45.2580
    45.2735  45.2903  45.4467  45.4484  45.5217  45.6219  45.6240  45.8955
    45.8982  45.9155  46.2539  46.3310  46.4674  46.6721  46.8677  47.2265
    47.2906  47.4650  47.4656  47.5999  47.6033  47.6329  47.7656  47.7675
    47.7724  47.7929  47.7980  47.8638  48.1083  48.3128  48.4118  48.4141
    48.4944  48.6221  48.7847  48.9194  48.9200  48.9693  48.9716  49.5223
    49.7096  49.9957  50.0779  50.0818  50.1404  50.3110  50.4131  50.4175
    50.4448  50.6048  50.6080  50.9866  50.9872  51.1604  51.1618  51.2165
    51.2354  51.2496  51.3238  51.3244  51.3368  51.4974  51.5537  51.7425
    51.9396  52.0791  52.0882  52.0900  52.1218  52.4776  52.5435  52.6323
    52.6611  52.6941  52.6952  52.8011  52.8017  52.9191  52.9229  53.1546
    53.2845  53.3072  53.3074  53.5428  53.5477  53.7088  53.7090  53.7341
    53.8547  53.8563  53.9406  54.2033  54.2034  54.4180  54.5364  54.5896
    54.7343  54.7637  54.7643  54.7807  54.8558  54.9940  54.9940  55.0065
    55.0178  55.0708  55.0734  55.1124  55.1526  55.4316  55.4334  55.4635
    55.7323  55.7350  55.7521  55.7586  55.8184  55.9353  55.9441  55.9463
    56.0934  56.2868  56.3656  56.4710  56.5050  56.5090  56.5301  56.6175
    56.6191  56.8104  56.8610  56.8624  57.0645  57.2161  57.2947  57.2956
    57.4468  57.4791  57.4798  57.5770  57.5780  57.6524  57.7840  57.7858
    57.8845  57.9673  58.0484  58.1326  58.4328  58.4336  58.4344  58.5560

          k =-0.2500 0.2500-0.3838 ( 12442 PWs)   bands (ev):

   -67.6028 -67.4775 -67.4767 -67.4766 -67.4763 -67.4758 -67.4753 -67.4748
   -67.4724 -67.4684 -67.4680 -67.4679 -67.4679 -67.4677 -67.4671 -67.4670
   -36.5073 -36.4169 -36.4163 -36.4159 -36.4152 -36.4149 -36.4145 -36.4134
   -36.3602 -36.3465 -36.3168 -36.3161 -36.3137 -36.3125 -36.3122 -36.3110
   -36.3092 -36.3075 -36.2479 -36.2454 -36.2449 -36.2442 -36.2439 -36.2415
   -36.2411 -36.2340 -36.2251 -36.2246 -36.2243 -36.2234 -36.2233 -36.2233
   -36.2231 -36.1892 -36.1880 -36.1875 -36.1866 -36.1864 -36.1862 -36.1834
   -36.1824 -36.1815 -36.1814 -36.1812 -36.1811 -36.1811 -36.1810 -36.1804
    -8.4364  -7.9934  -7.9921  -7.7254  -7.4724  -7.4064  -7.2992  -7.2987
    -7.2248  -7.2237  -7.0633  -6.8902  -6.8692  -6.8682  -6.7916  -6.6833
    -6.6774  -6.6626  -6.6315  -6.6315  -6.6097  -6.5980  -6.5966  -6.5895
    -6.5795  -6.5646  -6.5091  -6.5091  -6.4874  -6.4865  -6.4657  -6.4588
     3.9589   4.2164   4.4595   4.4608   4.5242   4.6334   4.8114   4.8711
     4.8892   4.8912   4.9198   4.9983   5.0004   5.0399   5.0656   5.1683
     5.1703   5.1924   5.1930   5.2793   5.3321   5.4691   5.5915   5.5922
     5.6413   5.6556   5.7329   5.7351   5.7556   5.8917   5.8923   5.8979
     5.9006   5.9793   6.0671   6.1720   6.2799   6.3912   6.6140   6.6230
     6.6253   6.6739   6.6741   6.9427   6.9427   7.0138   7.0148   7.0840
     7.1433   7.3247   7.3371   7.3379   7.3412   7.3702   7.4549   7.4557
     7.5353   7.5467   7.5479   7.5719   7.5881   7.6678   7.7331   7.8161
     7.8713   7.8727   8.1213   8.1610   8.2259   8.2272   8.5644   8.6649
     8.6661   8.6927   8.6936   8.7013   8.8253   8.8337   8.8487   8.8932
     9.0212   9.2881   9.2895   9.4404   9.4628   9.5000   9.6473   9.6958
     9.7350   9.7356   9.8938   9.8940   9.9061  10.2337  10.2337  10.7329
    11.7154  11.7364  11.7411  11.7750  11.9116  12.0239  12.0270  12.0659
    12.0702  12.0948  12.1305  12.1556  12.2043  12.2051  12.2742  12.2773
    12.3142  12.3369  12.3383  12.3427  12.3966  12.4612  12.5195  12.5211
    12.5239  12.5532  12.6989  12.7054  12.7074  12.7217  12.7255  12.7464
    12.7983  12.9899  12.9922  13.0997  13.1287  13.3467  13.3683  13.3955
    13.3970  13.5461  13.5475  13.5701  13.5706  13.5742  13.6247  13.7328
    13.7332  13.9417  13.9667  13.9907  14.1216  14.1386  14.1387  14.5733
    14.5738  14.7326  14.7497  14.8008  14.8108  14.8116  14.8645  15.0138
    15.0360  15.1672  15.1686  15.2015  15.2799  15.2872  15.4917  15.6973
    15.7133  15.7143  15.7899  15.9648  15.9662  16.1416  16.1436  16.5052
    20.5634  21.8197  21.8216  22.7591  22.9612  23.2116  23.2133  23.3936
    23.4191  23.4195  23.5924  23.6781  23.6879  23.9703  24.4705  24.4714
    24.5045  24.5287  24.5299  25.2583  25.3602  25.5287  25.7639  25.7666
    25.8049  25.8497  25.8507  26.0797  26.1445  26.6362  26.6372  26.7084
    26.7488  26.8180  26.8440  27.0269  27.0369  27.0376  27.1484  27.2143
    27.2143  27.3485  27.3501  27.4078  27.4105  27.8162  27.8166  27.8230
    28.1193  28.2665  28.2673  28.3237  28.3630  28.3664  28.4846  28.5064
    28.9251  28.9264  28.9915  29.0231  29.1570  29.1601  29.2092  29.2102
    29.3733  29.3765  29.4438  29.6714  29.6844  29.6848  29.7798  29.9260
    30.0269  30.0288  30.3070  30.3326  30.3705  30.3720  30.6972  30.8723
    30.9127  30.9157  30.9687  31.2019  31.2023  31.2908  31.2962  31.4503
    31.5359  32.0027  32.0078  32.3628  32.8538  32.8539  33.2463  33.3607
    33.5631  33.5643  33.6049  33.6071  33.6160  33.9939  34.2222  34.3163
    34.7633  34.9265  35.1253  35.1264  35.2294  35.2314  35.2450  35.3045
    35.6256  36.1607  36.1612  36.1811  36.4723  36.4729  36.6358  36.6681
    36.7899  37.0107  37.7408  37.7739  37.7767  37.8842  37.8848  37.9049
    37.9842  37.9844  38.1148  38.3103  38.3553  38.3558  38.4176  38.5027
    38.5867  38.5881  38.8628  38.8639  39.0482  39.2236  39.2555  39.2568
    39.6283  39.6304  39.8091  39.9677  40.0620  40.2278  40.5013  40.7606
    40.7623  40.8453  40.8472  41.0747  41.0758  41.3508  41.5724  41.5736
    41.5840  41.5851  41.7967  41.7973  41.8203  42.0143  42.1497  42.1499
    42.1521  42.1786  42.3097  42.4754  42.5734  42.5736  42.8481  42.8490
    42.8493  43.0021  43.0057  43.0070  43.1753  43.3240  43.5345  43.7163
    44.3426  44.3555  44.3555  44.5000  44.5622  44.5634  44.6950  45.3097
    45.3495  45.4527  45.4533  45.5169  45.6911  45.8098  45.9094  45.9406
    46.1165  46.3201  46.3223  46.3440  46.6278  46.6290  46.8067  46.8088
    46.8143  46.8162  46.9388  47.2104  47.3246  47.3333  47.3624  47.3716
    47.3749  47.4578  47.4639  47.6642  47.7827  47.7827  47.7896  48.1948
    48.2929  48.2949  48.3365  48.3391  48.3680  48.5170  48.6742  48.7614
    48.7627  49.0333  49.1629  49.4208  49.4216  49.4762  49.7254  49.7263
    50.0135  50.0471  50.0506  50.2585  50.5006  50.5036  50.6322  50.6328
    50.6551  50.6579  50.9445  51.0589  51.1330  51.2216  51.2237  51.3212
    51.4598  51.6342  51.6348  51.7569  51.7613  51.8649  51.8671  51.9620
    52.0377  52.0400  52.0873  52.1176  52.2106  52.2130  52.2478  52.3863
    52.3972  52.3988  52.4853  52.5109  52.5132  52.6710  52.7203  52.7208
    52.7999  52.8909  53.0059  53.2318  53.4059  53.4060  53.4099  53.4251
    53.4256  53.4641  53.5176  53.7604  53.8694  53.8711  53.8842  53.9246
    53.9516  54.0294  54.0311  54.0874  54.1833  54.5842  54.7055  54.7653
    54.7936  54.7964  54.8332  54.8378  54.9143  54.9145  54.9933  54.9946
    55.0168  55.0335  55.5529  55.5533  55.6605  55.6716  55.6771  55.6793
    55.7066  55.7334  55.7434  55.7943  55.7956  55.8057  56.0424  56.0461
    56.4314  56.4324  56.5573  56.7396  56.7677  56.8666  56.8696  56.9813
    57.0243  57.0246  57.3181  57.3187  57.3987  57.5447  57.5461  57.5725
    57.7668  57.8675  57.8694  57.8711  58.2051  58.3393  58.3411  58.4040

          k =-0.2500 0.2500 0.7676 ( 12434 PWs)   bands (ev):

   -67.6027 -67.4733 -67.4730 -67.4727 -67.4724 -67.4723 -67.4723 -67.4722
   -67.4721 -67.4719 -67.4718 -67.4717 -67.4713 -67.4711 -67.4708 -67.4707
   -36.4891 -36.3682 -36.3673 -36.3669 -36.3661 -36.3656 -36.3652 -36.3650
   -36.3642 -36.3641 -36.3632 -36.3632 -36.3627 -36.3623 -36.3603 -36.3602
   -36.3571 -36.3123 -36.2376 -36.2368 -36.2362 -36.2352 -36.2351 -36.2346
   -36.2340 -36.2337 -36.2336 -36.2336 -36.2335 -36.2323 -36.2323 -36.2320
   -36.2319 -36.1859 -36.1852 -36.1850 -36.1848 -36.1838 -36.1838 -36.1837
   -36.1835 -36.1835 -36.1835 -36.1833 -36.1832 -36.1821 -36.1812 -36.1811
    -8.0212  -8.0199  -7.6471  -7.6455  -7.6453  -7.6446  -7.4159  -7.4149
    -7.1475  -7.1468  -7.0731  -7.0726  -7.0714  -7.0712  -6.6678  -6.6669
    -6.6431  -6.6413  -6.6190  -6.6174  -6.5632  -6.5623  -6.5623  -6.5618
    -6.5420  -6.5412  -6.5406  -6.5402  -6.5398  -6.5382  -6.5114  -6.5097
     4.4146   4.4148   4.4986   4.4989   4.7877   4.7895   4.7896   4.7904
     4.8074   4.8093   5.1154   5.1191   5.1968   5.1992   5.2858   5.2891
     5.3257   5.3273   5.3294   5.3302   5.4191   5.4197   5.4203   5.4228
     5.4996   5.5012   5.6608   5.6613   5.6615   5.6656   5.7621   5.7644
     6.2353   6.2368   6.2371   6.2398   6.3094   6.3104   6.3806   6.3823
     6.7130   6.7137   6.7138   6.7144   6.8207   6.8218   7.0446   7.0453
     7.0457   7.0470   7.1313   7.1322   7.2531   7.2536   7.5196   7.5197
     7.5201   7.5201   7.7553   7.7572   7.8017   7.8036   7.8037   7.8055
     7.8120   7.8120   7.8727   7.8728   8.1160   8.1179   8.2388   8.2404
     8.7399   8.7406   8.7416   8.7420   8.7428   8.7451   8.8977   8.9005
     9.0986   9.1006   9.2293   9.2294   9.5173   9.5180   9.5186   9.5194
     9.5865   9.5874  10.0749  10.0756  10.0762  10.0762  10.3524  10.3527
    11.8432  11.8447  11.9923  11.9928  11.9932  11.9975  12.1041  12.1055
    12.1383  12.1390  12.2468  12.2514  12.3520  12.3526  12.3547  12.3568
    12.3941  12.3999  12.4750  12.4755  12.4772  12.4828  12.5076  12.5160
    12.5406  12.5413  12.7438  12.7446  12.8062  12.8068  12.8075  12.8088
    13.0094  13.0118  13.1811  13.1848  13.2135  13.2138  13.2144  13.2156
    13.2917  13.2925  13.4485  13.4486  13.4486  13.4525  13.7118  13.7131
    13.9977  13.9985  13.9986  13.9986  14.2537  14.2538  14.4309  14.4313
    14.4316  14.4318  14.4435  14.4437  14.6579  14.6580  14.9025  14.9025
    14.9232  14.9232  15.1633  15.1637  15.3820  15.3824  15.3832  15.3833
    15.6380  15.6382  16.0414  16.0432  16.0439  16.0440  16.0807  16.0811
    21.6476  21.6494  22.6276  22.6295  22.6301  22.6307  23.2190  23.2202
    24.0313  24.0337  24.0404  24.0431  24.0431  24.0437  24.9703  24.9711
    24.9882  24.9920  25.2964  25.2988  25.6868  25.6874  25.6884  25.6893
    25.9862  25.9883  26.2935  26.2963  26.6404  26.6442  26.6444  26.6444
    26.8768  26.8794  26.9017  26.9036  26.9056  26.9064  26.9234  26.9253
    27.0499  27.0502  27.3464  27.3490  27.3491  27.3501  27.7444  27.7471
    28.3538  28.3548  28.4632  28.4632  28.4670  28.4670  28.8190  28.8195
    28.8628  28.8673  28.8674  28.8686  28.9583  28.9592  29.0583  29.0605
    29.1467  29.1490  29.3374  29.3388  29.3395  29.3399  29.5928  29.5952
    29.6002  29.6017  29.9935  29.9963  29.9965  29.9977  30.5231  30.5239
    30.7129  30.7179  30.8524  30.8558  30.8565  30.8587  31.5524  31.5527
    31.8038  31.8087  31.8092  31.8093  32.1474  32.1528  32.7550  32.7572
    33.1594  33.1595  33.1610  33.1629  33.6908  33.6949  33.7900  33.7922
    35.4325  35.4343  35.6401  35.6403  35.6413  35.6433  35.9679  35.9681
    36.0946  36.0963  36.1944  36.1961  37.0121  37.0131  37.3916  37.3919
    37.3923  37.3927  37.6420  37.6440  37.6507  37.6529  38.0237  38.0274
    38.0276  38.0279  38.4587  38.4600  38.4601  38.4602  38.5673  38.5705
    38.6548  38.6563  38.6579  38.6589  38.8967  38.8971  38.9192  38.9216
    39.6871  39.6893  40.0046  40.0053  40.0063  40.0074  40.4184  40.4188
    40.4220  40.4221  40.4898  40.4903  41.0392  41.0405  41.1659  41.1671
    41.1679  41.1696  41.3722  41.3724  41.5714  41.5715  41.8631  41.8632
    41.8768  41.8771  42.7085  42.7090  42.7096  42.7101  43.1236  43.1246
    43.2011  43.2020  43.2023  43.2026  43.4116  43.4128  44.1312  44.1312
    44.6248  44.6250  44.6255  44.6268  44.7847  44.7851  45.0781  45.0795
    45.3278  45.3289  45.3690  45.3693  45.4514  45.4532  45.4533  45.4534
    45.7240  45.7244  46.4055  46.4057  46.4060  46.4067  46.8018  46.8041
    47.3931  47.3967  47.3967  47.3974  47.4309  47.4338  47.7204  47.7230
    47.8322  47.8332  48.2103  48.2110  48.4714  48.4731  48.9644  48.9675
    48.9687  48.9691  49.2137  49.2138  49.2193  49.2198  49.2215  49.2226
    49.2582  49.2600  49.5080  49.5084  49.5114  49.5115  49.6225  49.6232
    50.0663  50.0678  50.2377  50.2377  50.7244  50.7261  50.7262  50.7265
    51.1666  51.1675  51.1693  51.1703  51.2534  51.2555  51.3723  51.3728
    51.5962  51.5962  51.6341  51.6348  51.9640  51.9655  51.9668  51.9678
    52.1862  52.1862  52.1873  52.1889  52.1895  52.1903  52.2854  52.2854
    52.3872  52.3913  52.3913  52.3913  52.5213  52.5220  52.7144  52.7171
    52.7176  52.7177  52.8209  52.8229  52.8962  52.8966  53.0177  53.0204
    53.3206  53.3207  53.3569  53.3600  53.3605  53.3608  53.5955  53.5977
    53.6867  53.6871  53.7399  53.7410  53.8538  53.8573  53.8590  53.8597
    53.8690  53.8691  54.3700  54.3706  54.3707  54.3714  54.5522  54.5552
    55.0025  55.0038  55.1718  55.1736  55.1748  55.1749  55.4115  55.4136
    55.4139  55.4146  55.5748  55.5775  55.7918  55.7939  56.0202  56.0214
    56.7310  56.7311  57.0648  57.0663  57.1110  57.1130  57.1142  57.1153
    57.2630  57.2644  57.3109  57.3117  57.3128  57.3135  57.4172  57.4194
    57.5131  57.5132  57.6052  57.6066  58.2269  58.2291  58.2291  58.2307

     the Fermi energy is    11.3906 ev

!    total energy              =   -4439.59434310 Ry
     Harris-Foulkes estimate   =   -4439.59434337 Ry
     estimated scf accuracy    <       0.00000030 Ry

     The total energy is the sum of the following terms:

     one-electron contribution =   -2118.22014205 Ry
     hartree contribution      =    1287.95143554 Ry
     xc contribution           =    -649.32863345 Ry
     ewald contribution        =   -2960.06000834 Ry
     Hubbard energy            =       0.06106672 Ry
     smearing contrib. (-TS)   =       0.00193849 Ry

     total magnetization       =    47.98 Bohr mag/cell
     absolute magnetization    =    49.34 Bohr mag/cell

     convergence has been achieved in   9 iterations

     Writing output data file pwscf.save

     init_run     :     33.40s CPU     37.95s WALL (       1 calls)
     electrons    :  13750.46s CPU  15818.19s WALL (       1 calls)

     Called by init_run:
     wfcinit      :     16.85s CPU     20.19s WALL (       1 calls)
     potinit      :      1.08s CPU      1.79s WALL (       1 calls)

     Called by electrons:
     c_bands      :  13060.15s CPU  14761.47s WALL (       9 calls)
     sum_band     :    574.99s CPU    921.47s WALL (       9 calls)
     v_of_rho     :      4.64s CPU      7.03s WALL (      10 calls)
     newd         :    122.11s CPU    135.58s WALL (      10 calls)
     mix_rho      :      0.72s CPU      1.22s WALL (       9 calls)

     Called by c_bands:
     init_us_2    :      4.58s CPU      4.83s WALL (     798 calls)
     cegterg      :  13043.80s CPU  14664.61s WALL (     378 calls)

     Called by *egterg:
     h_psi        :   2187.52s CPU   3236.23s WALL (    1311 calls)
     s_psi        :    231.82s CPU    232.11s WALL (    1353 calls)
     g_psi        :      2.79s CPU      2.79s WALL (     933 calls)
     cdiaghg      :   9120.59s CPU   9252.61s WALL (    1269 calls)

     Called by h_psi:
     add_vuspsi   :    226.29s CPU    227.40s WALL (    1311 calls)
     vhpsi        :    456.89s CPU    597.79s WALL (    1311 calls)

     General routines
     calbec       :    757.20s CPU   1025.48s WALL (    3420 calls)
     fft          :      6.18s CPU     11.34s WALL (     298 calls)
     ffts         :      0.14s CPU      0.27s WALL (      38 calls)
     fftw         :   1389.47s CPU   2429.89s WALL ( 1251572 calls)
     interpolate  :      0.86s CPU      1.59s WALL (      38 calls)
     davcio       :      1.61s CPU    154.39s WALL (    2352 calls)

     Parallel routines
     fft_scatter  :    897.77s CPU   1915.10s WALL ( 1251908 calls)
     Hubbard U routines
     new_ns       :    100.07s CPU    222.94s WALL (       9 calls)
     vhpsi        :    456.89s CPU    597.79s WALL (    1311 calls)

     PWSCF        :     3h50m CPU        4h25m WALL


   This run was terminated on:   3: 8:10  15Feb2014            

=------------------------------------------------------------------------------=
   JOB DONE.
=------------------------------------------------------------------------------=
