ScientificPython/2.8-dl160g6-numpy-1.7.1-1(15):ERROR:151: Module 'ScientificPython/2.8-dl160g6-numpy-1.7.1-1' depends on one of the module(s) 'numpy/1.7.1-dl160g6-gfortran-internal-1'
ScientificPython/2.8-dl160g6-numpy-1.7.1-1(15):ERROR:102: Tcl command execution failed: prereq numpy/1.7.1-dl160g6-gfortran-internal-1


     Program PWSCF v.5.0.2 (svn rev. 9656) starts on  5Jun2014 at 22: 9:52 

     This program is part of the open-source Quantum ESPRESSO suite
     for quantum simulation of materials; please cite
         "P. Giannozzi et al., J. Phys.:Condens. Matter 21 395502 (2009);
          URL http://www.quantum-espresso.org", 
     in publications or presentations arising from this work. More details at
     http://www.quantum-espresso.org/quote.php

     Parallel version (MPI), running on    16 processors
     K-points division:     npool     =       4
     R & G space division:  proc/nbgrp/npool/nimage =       4

     Current dimensions of program PWSCF are:
     Max number of different atomic species (ntypx) = 10
     Max number of k-points (npk) =  40000
     Max angular momentum in pseudopotentials (lmaxx) =  3
     Reading input from pwscf.in
Warning: card &CELL ignored
Warning: card / ignored

     Subspace diagonalization in iterative solution of the eigenvalue problem:
     a serial algorithm will be used


     Parallelization info
     --------------------
     sticks:   dense  smooth     PW     G-vecs:    dense   smooth      PW
     Min        1333     428    119               322637    58444    8739
     Max        1334     429    120               322642    58462    8748
     Sum        5335    1713    477              1290557   233813   34969



     bravais-lattice index     =            0
     lattice parameter (alat)  =      10.1289  a.u.
     unit-cell volume          =    6836.7721 (a.u.)^3
     number of atoms/cell      =           33
     number of atomic types    =            3
     number of electrons       =       245.00
     number of Kohn-Sham states=          367
     kinetic-energy cutoff     =      40.0000  Ry
     charge density cutoff     =     500.0000  Ry
     convergence threshold     =      1.0E-06
     mixing beta               =       0.7000
     number of iterations used =            8  plain     mixing
     Exchange-correlation      = SLA  PW   PBE  PBE ( 1 4 3 4 0)
     EXX-fraction              =        0.00
     nstep                     =           50


     celldm(1)=  10.128932  celldm(2)=   0.000000  celldm(3)=   0.000000
     celldm(4)=   0.000000  celldm(5)=   0.000000  celldm(6)=   0.000000

     crystal axes: (cart. coord. in units of alat)
               a(1) = (   1.000000   0.000000   0.000000 )  
               a(2) = (   0.000000   1.306037   0.000000 )  
               a(3) = (   0.000000   0.000000   5.037380 )  

     reciprocal axes: (cart. coord. in units 2 pi/alat)
               b(1) = (  1.000000  0.000000  0.000000 )  
               b(2) = (  0.000000  0.765675  0.000000 )  
               b(3) = (  0.000000  0.000000  0.198516 )  


     PseudoPot. # 1 for O  read from file:
     /home/camp/zhonxu/pseudo/o_pbe_v1.01.uspp.F.UPF
     MD5 check sum: 2bcb18d16ea4b960afae9ec6d52f22d2
     Pseudo is Ultrasoft + core correction, Zval =  6.0
     Generated by new atomic code, or converted to UPF format
     Using radial grid of  737 points,  5 beta functions with: 
                l(1) =   0
                l(2) =   0
                l(3) =   1
                l(4) =   1
                l(5) =   2
     Q(r) pseudized with  8 coefficients,  rinner =    0.900   0.900   0.900
                                                       0.900   0.900

     PseudoPot. # 2 for Re read from file:
     /home/camp/zhonxu/pseudo/re_pbe_v1.uspp.F.UPF
     MD5 check sum: 6f5a5dcaf9c96c20d0ffdde0de57afc6
     Pseudo is Ultrasoft + core correction, Zval = 15.0
     Generated by new atomic code, or converted to UPF format
     Using radial grid of  981 points,  8 beta functions with: 
                l(1) =   0
                l(2) =   0
                l(3) =   1
                l(4) =   1
                l(5) =   2
                l(6) =   2
                l(7) =   3
                l(8) =   3
     Q(r) pseudized with  8 coefficients,  rinner =    1.000   1.000   1.000
                                                       1.000   1.000   1.000
                                                       1.000

     PseudoPot. # 3 for H  read from file:
     /home/camp/zhonxu/pseudo/h_pbe_v1.uspp.F.UPF
     MD5 check sum: 3408e3ff4ec8b0a4e358431e7e038a48
     Pseudo is Ultrasoft, Zval =  1.0
     Generated by new atomic code, or converted to UPF format
     Using radial grid of  615 points,  2 beta functions with: 
                l(1) =   0
                l(2) =   0
     Q(r) pseudized with  8 coefficients,  rinner =    0.700

     atomic species   valence    mass     pseudopotential
        O0             6.00    15.99940     O ( 1.00)
        Re1           15.00   186.20700     Re( 1.00)
        H2             1.00     1.00794     H ( 1.00)


     Simplified LDA+U calculation (l_max = 2) with parameters (eV):
     atomic species    L          U    alpha       J0     beta
        Re1            2     8.0000   0.0000   0.0000   0.0000



     No symmetry found



   Cartesian axes

     site n.     atom                  positions (alat units)
         1           O0  tau(   1) = (   0.0000000   0.0000000   1.8701273  )
         2           O0  tau(   2) = (   0.0000000   0.6530184   1.9208538  )
         3           Re1 tau(   3) = (   0.2500000   0.6530184   2.2239025  )
         4           Re1 tau(   4) = (   0.0000000   0.0000000   2.2307534  )
         5           O0  tau(   5) = (   0.2500000   1.0187087   2.2238018  )
         6           O0  tau(   6) = (   0.2500000   0.2873281   2.2265220  )
         7           O0  tau(   7) = (   0.0000000   0.6530184   2.5050387  )
         8           O0  tau(   8) = (   0.0000000   0.0000000   2.5809017  )
         9           Re1 tau(   9) = (   0.2500000   0.0000000   2.8966950  )
        10           Re1 tau(  10) = (   0.0000000   0.6530184   2.8568494  )
        11           O0  tau(  11) = (   0.2500000   0.9403465   2.8911035  )
        12           O0  tau(  12) = (   0.2500000   0.3656903   2.8618867  )
        13           O0  tau(  13) = (   0.0000000   0.0000000   3.1508812  )
        14           O0  tau(  14) = (   0.5000000   0.0000000   1.8706815  )
        15           O0  tau(  15) = (   0.5000000   0.6530184   1.9247325  )
        16           Re1 tau(  16) = (   0.7500000   0.6530184   2.2232477  )
        17           Re1 tau(  17) = (   0.5000000   0.0000000   2.2309549  )
        18           O0  tau(  18) = (   0.7500000   1.0187087   2.2248597  )
        19           O0  tau(  19) = (   0.7500000   0.2873281   2.2267235  )
        20           O0  tau(  20) = (   0.5000000   0.6530184   2.5021171  )
        21           O0  tau(  21) = (   0.5000000   0.0000000   2.5832189  )
        22           Re1 tau(  22) = (   0.7500000   0.0000000   2.8847564  )
        23           Re1 tau(  23) = (   0.5000000   0.6530184   2.8933704  )
        24           O0  tau(  24) = (   0.7500000   0.9403465   2.8855120  )
        25           O0  tau(  25) = (   0.7500000   0.3656903   2.8820866  )
        26           O0  tau(  26) = (   0.5000000   0.0000000   3.1533495  )
        27           H2  tau(  27) = (  -0.0003700   0.8101477   1.8245894  )
        28           H2  tau(  28) = (   0.4987700   0.8128120   1.8324477  )
        29           H2  tau(  29) = (   0.1720100   0.0292422   1.8065556  )
        30           H2  tau(  30) = (   0.6727600   0.0292030   1.8078150  )
        31           O0  tau(  31) = (   0.4350100   0.6439806   3.2401940  )
        32           O0  tau(  32) = (   0.5695500   0.4944655   3.4145377  )
        33           H2  tau(  33) = (   0.5050600   0.5292061   3.5842974  )

     number of k points=    10  Methfessel-Paxton smearing, width (Ry)=  0.0100
                       cart. coord. in units 2pi/alat
        k(    1) = (   0.0000000   0.0000000   0.0000000), wk =   0.1250000
        k(    2) = (   0.0000000   0.1914188   0.0000000), wk =   0.2500000
        k(    3) = (   0.0000000  -0.3828376   0.0000000), wk =   0.1250000
        k(    4) = (   0.2500000   0.0000000   0.0000000), wk =   0.2500000
        k(    5) = (   0.2500000   0.1914188   0.0000000), wk =   0.2500000
        k(    6) = (   0.2500000  -0.3828376   0.0000000), wk =   0.2500000
        k(    7) = (  -0.5000000   0.0000000   0.0000000), wk =   0.1250000
        k(    8) = (  -0.5000000   0.1914188   0.0000000), wk =   0.2500000
        k(    9) = (  -0.5000000  -0.3828376   0.0000000), wk =   0.1250000
        k(   10) = (  -0.2500000   0.1914188   0.0000000), wk =   0.2500000

     Dense  grid:  1290557 G-vectors     FFT dimensions: (  75,  96, 375)

     Smooth grid:   233813 G-vectors     FFT dimensions: (  45,  54, 216)

     Largest allocated arrays     est. size (Mb)     dimensions
        Kohn-Sham Wavefunctions        41.24 Mb     (   7365,  367)
        Atomic wavefunctions           21.24 Mb     (   7365,  189)
        NL pseudopotentials            59.11 Mb     (   7365,  526)
        Each V/rho on FFT grid         10.33 Mb     ( 676800)
        Each G-vector array             2.46 Mb     ( 322642)
        G-vector shells                 1.07 Mb     ( 139625)
     Largest temporary arrays     est. size (Mb)     dimensions
        Auxiliary wavefunctions       164.98 Mb     (   7365, 1468)
        Each subspace H/S matrix       32.88 Mb     (1468,1468)
        Each <psi_i|beta_j> matrix      2.95 Mb     (    526,  367)
        Arrays for rho mixing          82.62 Mb     ( 676800,   8)

     Check: negative/imaginary core charge=   -0.000003    0.000000

     Initial potential from superposition of free atoms
     Check: negative starting charge=   -0.236733

     starting charge  240.99957, renormalised to  245.00000

     negative rho (up, down):  0.241E+00 0.000E+00
     Number of +U iterations with fixed ns =  0
     Starting occupations:
 --- enter write_ns ---
 LDA+U parameters:
U( 2)     =  8.00000000
alpha( 2) =  0.00000000
atom    3   Tr[ns(na)] =   5.00000
    eigenvalues: 
  0.500  0.500  0.500  0.500  0.500
    eigenvectors:
  1.000  0.000  0.000  0.000  0.000
  0.000  1.000  0.000  0.000  0.000
  0.000  0.000  1.000  0.000  0.000
  0.000  0.000  0.000  1.000  0.000
  0.000  0.000  0.000  0.000  1.000
    occupations:
  0.500  0.000  0.000  0.000  0.000
  0.000  0.500  0.000  0.000  0.000
  0.000  0.000  0.500  0.000  0.000
  0.000  0.000  0.000  0.500  0.000
  0.000  0.000  0.000  0.000  0.500
atom    4   Tr[ns(na)] =   5.00000
    eigenvalues: 
  0.500  0.500  0.500  0.500  0.500
    eigenvectors:
  1.000  0.000  0.000  0.000  0.000
  0.000  1.000  0.000  0.000  0.000
  0.000  0.000  1.000  0.000  0.000
  0.000  0.000  0.000  1.000  0.000
  0.000  0.000  0.000  0.000  1.000
    occupations:
  0.500  0.000  0.000  0.000  0.000
  0.000  0.500  0.000  0.000  0.000
  0.000  0.000  0.500  0.000  0.000
  0.000  0.000  0.000  0.500  0.000
  0.000  0.000  0.000  0.000  0.500
atom    9   Tr[ns(na)] =   5.00000
    eigenvalues: 
  0.500  0.500  0.500  0.500  0.500
    eigenvectors:
  1.000  0.000  0.000  0.000  0.000
  0.000  1.000  0.000  0.000  0.000
  0.000  0.000  1.000  0.000  0.000
  0.000  0.000  0.000  1.000  0.000
  0.000  0.000  0.000  0.000  1.000
    occupations:
  0.500  0.000  0.000  0.000  0.000
  0.000  0.500  0.000  0.000  0.000
  0.000  0.000  0.500  0.000  0.000
  0.000  0.000  0.000  0.500  0.000
  0.000  0.000  0.000  0.000  0.500
atom   10   Tr[ns(na)] =   5.00000
    eigenvalues: 
  0.500  0.500  0.500  0.500  0.500
    eigenvectors:
  1.000  0.000  0.000  0.000  0.000
  0.000  1.000  0.000  0.000  0.000
  0.000  0.000  1.000  0.000  0.000
  0.000  0.000  0.000  1.000  0.000
  0.000  0.000  0.000  0.000  1.000
    occupations:
  0.500  0.000  0.000  0.000  0.000
  0.000  0.500  0.000  0.000  0.000
  0.000  0.000  0.500  0.000  0.000
  0.000  0.000  0.000  0.500  0.000
  0.000  0.000  0.000  0.000  0.500
atom   16   Tr[ns(na)] =   5.00000
    eigenvalues: 
  0.500  0.500  0.500  0.500  0.500
    eigenvectors:
  1.000  0.000  0.000  0.000  0.000
  0.000  1.000  0.000  0.000  0.000
  0.000  0.000  1.000  0.000  0.000
  0.000  0.000  0.000  1.000  0.000
  0.000  0.000  0.000  0.000  1.000
    occupations:
  0.500  0.000  0.000  0.000  0.000
  0.000  0.500  0.000  0.000  0.000
  0.000  0.000  0.500  0.000  0.000
  0.000  0.000  0.000  0.500  0.000
  0.000  0.000  0.000  0.000  0.500
atom   17   Tr[ns(na)] =   5.00000
    eigenvalues: 
  0.500  0.500  0.500  0.500  0.500
    eigenvectors:
  1.000  0.000  0.000  0.000  0.000
  0.000  1.000  0.000  0.000  0.000
  0.000  0.000  1.000  0.000  0.000
  0.000  0.000  0.000  1.000  0.000
  0.000  0.000  0.000  0.000  1.000
    occupations:
  0.500  0.000  0.000  0.000  0.000
  0.000  0.500  0.000  0.000  0.000
  0.000  0.000  0.500  0.000  0.000
  0.000  0.000  0.000  0.500  0.000
  0.000  0.000  0.000  0.000  0.500
atom   22   Tr[ns(na)] =   5.00000
    eigenvalues: 
  0.500  0.500  0.500  0.500  0.500
    eigenvectors:
  1.000  0.000  0.000  0.000  0.000
  0.000  1.000  0.000  0.000  0.000
  0.000  0.000  1.000  0.000  0.000
  0.000  0.000  0.000  1.000  0.000
  0.000  0.000  0.000  0.000  1.000
    occupations:
  0.500  0.000  0.000  0.000  0.000
  0.000  0.500  0.000  0.000  0.000
  0.000  0.000  0.500  0.000  0.000
  0.000  0.000  0.000  0.500  0.000
  0.000  0.000  0.000  0.000  0.500
atom   23   Tr[ns(na)] =   5.00000
    eigenvalues: 
  0.500  0.500  0.500  0.500  0.500
    eigenvectors:
  1.000  0.000  0.000  0.000  0.000
  0.000  1.000  0.000  0.000  0.000
  0.000  0.000  1.000  0.000  0.000
  0.000  0.000  0.000  1.000  0.000
  0.000  0.000  0.000  0.000  1.000
    occupations:
  0.500  0.000  0.000  0.000  0.000
  0.000  0.500  0.000  0.000  0.000
  0.000  0.000  0.500  0.000  0.000
  0.000  0.000  0.000  0.500  0.000
  0.000  0.000  0.000  0.000  0.500
N of occupied +U levels =  40.0000000
 --- exit write_ns ---
 Atomic wfc used for LDA+U Projector are NOT orthogonalized
     Starting wfc are  189 randomized atomic wfcs

     total cpu time spent up to now is      176.4 secs

     per-process dynamical memory:   415.9 Mb

     Self-consistent Calculation

     iteration #  1     ecut=    40.00 Ry     beta=0.70
     Davidson diagonalization with overlap
     ethr =  1.00E-02,  avg # of iterations =  5.9
 --- enter write_ns ---
 LDA+U parameters:
U( 2)     =  8.00000000
alpha( 2) =  0.00000000
atom    3   Tr[ns(na)] =   5.58270
    eigenvalues: 
  0.435  0.466  0.498  0.668  0.723
    eigenvectors:
  0.004  0.001  0.456  0.000  0.538
  0.008  0.990  0.001  0.000  0.000
  0.987  0.009  0.002  0.001  0.002
  0.000  0.000  0.541  0.000  0.459
  0.001  0.000  0.000  0.998  0.001
    occupations:
  0.619 -0.005  0.011 -0.112  0.001
 -0.005  0.466  0.003  0.003 -0.003
  0.011  0.003  0.436 -0.006 -0.006
 -0.112  0.003 -0.006  0.601 -0.001
  0.001 -0.003 -0.006 -0.001  0.668
atom    4   Tr[ns(na)] =   5.46378
    eigenvalues: 
  0.398  0.463  0.530  0.608  0.734
    eigenvectors:
  0.000  0.000  0.947  0.001  0.052
  0.000  0.000  0.001  0.998  0.000
  1.000  0.000  0.000  0.000  0.000
  0.000  0.000  0.052  0.000  0.948
  0.000  1.000  0.000  0.000  0.000
    occupations:
  0.541  0.003  0.001 -0.045  0.000
  0.003  0.608  0.004  0.000  0.001
  0.001  0.004  0.398  0.001  0.001
 -0.045  0.000  0.001  0.723 -0.000
  0.000  0.001  0.001 -0.000  0.463
atom    9   Tr[ns(na)] =   5.85596
    eigenvalues: 
  0.503  0.507  0.517  0.684  0.717
    eigenvectors:
  0.035  0.347  0.001  0.002  0.615
  0.001  0.004  0.995  0.000  0.000
  0.899  0.101  0.000  0.000  0.000
  0.065  0.548  0.004  0.000  0.383
  0.000  0.000  0.000  0.998  0.002
    occupations:
  0.636  0.002 -0.001 -0.102  0.000
  0.002  0.517 -0.000 -0.001  0.000
 -0.001 -0.000  0.503  0.002 -0.002
 -0.102 -0.001  0.002  0.587  0.003
  0.000  0.000 -0.002  0.003  0.684
atom   10   Tr[ns(na)] =   6.28206
    eigenvalues: 
  0.419  0.466  0.731  0.747  0.778
    eigenvectors:
  0.980  0.000  0.005  0.014  0.002
  0.001  0.001  0.005  0.006  0.987
  0.000  0.000  0.803  0.186  0.010
  0.019  0.000  0.186  0.794  0.001
  0.000  0.999  0.000  0.000  0.001
    occupations:
  0.425  0.013 -0.002 -0.044  0.001
  0.013  0.777  0.004  0.001  0.008
 -0.002  0.004  0.734 -0.007 -0.005
 -0.044  0.001 -0.007  0.738  0.000
  0.001  0.008 -0.005  0.000  0.467
atom   16   Tr[ns(na)] =   5.58795
    eigenvalues: 
  0.434  0.466  0.498  0.671  0.725
    eigenvectors:
  0.003  0.002  0.453  0.000  0.542
  0.006  0.992  0.001  0.001  0.000
  0.990  0.006  0.002  0.001  0.001
  0.000  0.000  0.543  0.000  0.456
  0.001  0.001  0.000  0.997  0.001
    occupations:
  0.621  0.004  0.010 -0.113 -0.002
  0.004  0.466  0.003 -0.002 -0.007
  0.010  0.003  0.435 -0.005  0.007
 -0.113 -0.002 -0.005  0.602  0.000
 -0.002 -0.007  0.007  0.000  0.671
atom   17   Tr[ns(na)] =   5.38974
    eigenvalues: 
  0.390  0.462  0.529  0.585  0.729
    eigenvectors:
  0.000  0.000  0.947  0.001  0.052
  0.000  0.000  0.002  0.998  0.000
  1.000  0.000  0.000  0.000  0.000
  0.000  0.000  0.052  0.000  0.948
  0.000  1.000  0.000  0.000  0.000
    occupations:
  0.539  0.002  0.001 -0.044  0.000
  0.002  0.584  0.002 -0.000  0.000
  0.001  0.002  0.390  0.001  0.000
 -0.044 -0.000  0.001  0.719 -0.000
  0.000  0.000  0.000 -0.000  0.462
atom   22   Tr[ns(na)] =   5.99971
    eigenvalues: 
  0.507  0.508  0.530  0.715  0.739
    eigenvectors:
  0.041  0.338  0.000  0.001  0.620
  0.898  0.102  0.000  0.000  0.000
  0.000  0.000  0.999  0.001  0.000
  0.061  0.560  0.000  0.000  0.379
  0.000  0.000  0.001  0.998  0.001
    occupations:
  0.652 -0.002  0.001 -0.112 -0.000
 -0.002  0.507  0.000  0.001  0.000
  0.001  0.000  0.530 -0.000  0.007
 -0.112  0.001 -0.000  0.596  0.001
 -0.000  0.000  0.007  0.001  0.715
atom   23   Tr[ns(na)] =   5.95061
    eigenvalues: 
  0.465  0.502  0.513  0.731  0.763
    eigenvectors:
  0.000  0.164  0.797  0.039  0.000
  0.009  0.207  0.039  0.003  0.743
  0.031  0.597  0.116  0.001  0.256
  0.000  0.001  0.040  0.958  0.001
  0.960  0.031  0.009  0.000  0.000
    occupations:
  0.520  0.003  0.005 -0.042  0.002
  0.003  0.697 -0.113 -0.004  0.002
  0.005 -0.113  0.569 -0.009  0.008
 -0.042 -0.004 -0.009  0.722 -0.001
  0.002  0.002  0.008 -0.001  0.467
N of occupied +U levels =  46.1125127
 --- exit write_ns ---

     negative rho (up, down):  0.285E+00 0.000E+00

     total cpu time spent up to now is      629.1 secs

     total energy              =   -2198.77992133 Ry
     Harris-Foulkes estimate   =   -2204.24787379 Ry
     estimated scf accuracy    <       7.47551251 Ry

     iteration #  2     ecut=    40.00 Ry     beta=0.70
     Davidson diagonalization with overlap
     ethr =  3.05E-03,  avg # of iterations =  4.8

     negative rho (up, down):  0.277E+00 0.000E+00

     total cpu time spent up to now is      954.7 secs

     total energy              =   -2169.67418418 Ry
     Harris-Foulkes estimate   =   -2228.48957049 Ry
     estimated scf accuracy    <     721.94060501 Ry

     iteration #  3     ecut=    40.00 Ry     beta=0.70
     Davidson diagonalization with overlap
     ethr =  3.05E-03,  avg # of iterations =  4.7

     negative rho (up, down):  0.231E+00 0.000E+00

     total cpu time spent up to now is     1305.4 secs

     total energy              =   -2191.71316065 Ry
     Harris-Foulkes estimate   =   -2212.97547838 Ry
     estimated scf accuracy    <     287.16519478 Ry

     iteration #  4     ecut=    40.00 Ry     beta=0.70
     Davidson diagonalization with overlap
     ethr =  3.05E-03,  avg # of iterations =  3.6

     negative rho (up, down):  0.229E+00 0.000E+00

     total cpu time spent up to now is     1586.7 secs

     total energy              =   -2203.17474938 Ry
     Harris-Foulkes estimate   =   -2203.85074547 Ry
     estimated scf accuracy    <       3.11197194 Ry

     iteration #  5     ecut=    40.00 Ry     beta=0.70
     Davidson diagonalization with overlap
     ethr =  1.27E-03,  avg # of iterations =  2.0

     negative rho (up, down):  0.230E+00 0.000E+00

     total cpu time spent up to now is     1833.8 secs

     total energy              =   -2203.40792020 Ry
     Harris-Foulkes estimate   =   -2203.57626750 Ry
     estimated scf accuracy    <       0.85435446 Ry

     iteration #  6     ecut=    40.00 Ry     beta=0.70
     Davidson diagonalization with overlap
     ethr =  3.49E-04,  avg # of iterations =  2.9

     negative rho (up, down):  0.231E+00 0.000E+00

     total cpu time spent up to now is     2089.3 secs

     total energy              =   -2203.42304739 Ry
     Harris-Foulkes estimate   =   -2203.58123503 Ry
     estimated scf accuracy    <       1.16174549 Ry

     iteration #  7     ecut=    40.00 Ry     beta=0.70
     Davidson diagonalization with overlap
     ethr =  3.49E-04,  avg # of iterations =  3.0

     negative rho (up, down):  0.232E+00 0.000E+00

     total cpu time spent up to now is     2341.4 secs

     total energy              =   -2203.49600563 Ry
     Harris-Foulkes estimate   =   -2203.53546715 Ry
     estimated scf accuracy    <       0.23962102 Ry

     iteration #  8     ecut=    40.00 Ry     beta=0.70
     Davidson diagonalization with overlap
     ethr =  9.78E-05,  avg # of iterations =  5.4

     negative rho (up, down):  0.232E+00 0.000E+00

     total cpu time spent up to now is     2618.7 secs

     total energy              =   -2203.51311299 Ry
     Harris-Foulkes estimate   =   -2203.55340586 Ry
     estimated scf accuracy    <       0.24949483 Ry

     iteration #  9     ecut=    40.00 Ry     beta=0.70
     Davidson diagonalization with overlap
     ethr =  9.78E-05,  avg # of iterations =  2.8

     negative rho (up, down):  0.232E+00 0.000E+00

     total cpu time spent up to now is     2873.1 secs

     total energy              =   -2203.54090563 Ry
     Harris-Foulkes estimate   =   -2203.55542586 Ry
     estimated scf accuracy    <       0.10691739 Ry

     iteration # 10     ecut=    40.00 Ry     beta=0.70
     Davidson diagonalization with overlap
     ethr =  4.36E-05,  avg # of iterations =  5.6

     negative rho (up, down):  0.234E+00 0.000E+00

     total cpu time spent up to now is     3155.8 secs

     total energy              =   -2203.55542349 Ry
     Harris-Foulkes estimate   =   -2203.55773194 Ry
     estimated scf accuracy    <       0.05489744 Ry

     iteration # 11     ecut=    40.00 Ry     beta=0.70
     Davidson diagonalization with overlap
     ethr =  2.24E-05,  avg # of iterations =  2.5

     negative rho (up, down):  0.234E+00 0.000E+00

     total cpu time spent up to now is     3403.5 secs

     total energy              =   -2203.56603418 Ry
     Harris-Foulkes estimate   =   -2203.56566819 Ry
     estimated scf accuracy    <       0.04857416 Ry

     iteration # 12     ecut=    40.00 Ry     beta=0.70
     Davidson diagonalization with overlap
     ethr =  1.98E-05,  avg # of iterations =  1.0

     negative rho (up, down):  0.235E+00 0.000E+00

     total cpu time spent up to now is     3642.9 secs

     total energy              =   -2203.57394022 Ry
     Harris-Foulkes estimate   =   -2203.57398175 Ry
     estimated scf accuracy    <       0.02809614 Ry

     iteration # 13     ecut=    40.00 Ry     beta=0.70
     Davidson diagonalization with overlap
     ethr =  1.15E-05,  avg # of iterations =  3.6

     negative rho (up, down):  0.235E+00 0.000E+00

     total cpu time spent up to now is     3908.5 secs

     total energy              =   -2203.57264941 Ry
     Harris-Foulkes estimate   =   -2203.57771474 Ry
     estimated scf accuracy    <       0.04389373 Ry

     iteration # 14     ecut=    40.00 Ry     beta=0.70
     Davidson diagonalization with overlap
     ethr =  1.15E-05,  avg # of iterations =  4.1

     negative rho (up, down):  0.235E+00 0.000E+00

     total cpu time spent up to now is     4184.5 secs

     total energy              =   -2203.57503578 Ry
     Harris-Foulkes estimate   =   -2203.57935445 Ry
     estimated scf accuracy    <       0.06441360 Ry

     iteration # 15     ecut=    40.00 Ry     beta=0.70
     Davidson diagonalization with overlap
     ethr =  1.15E-05,  avg # of iterations =  4.6

     negative rho (up, down):  0.235E+00 0.000E+00

     total cpu time spent up to now is     4449.5 secs

     total energy              =   -2203.57721947 Ry
     Harris-Foulkes estimate   =   -2203.58208281 Ry
     estimated scf accuracy    <       0.02659475 Ry

     iteration # 16     ecut=    40.00 Ry     beta=0.70
     Davidson diagonalization with overlap
     ethr =  1.09E-05,  avg # of iterations =  3.6

     negative rho (up, down):  0.235E+00 0.000E+00

     total cpu time spent up to now is     4704.2 secs

     total energy              =   -2203.58245363 Ry
     Harris-Foulkes estimate   =   -2203.58325998 Ry
     estimated scf accuracy    <       0.00542043 Ry

     iteration # 17     ecut=    40.00 Ry     beta=0.70
     Davidson diagonalization with overlap
     ethr =  2.21E-06,  avg # of iterations =  5.7

     negative rho (up, down):  0.235E+00 0.000E+00

     total cpu time spent up to now is     4983.5 secs

     total energy              =   -2203.58271335 Ry
     Harris-Foulkes estimate   =   -2203.58558021 Ry
     estimated scf accuracy    <       0.01703233 Ry

     iteration # 18     ecut=    40.00 Ry     beta=0.70
     Davidson diagonalization with overlap
     ethr =  2.21E-06,  avg # of iterations =  2.6

     negative rho (up, down):  0.235E+00 0.000E+00

     total cpu time spent up to now is     5235.9 secs

     total energy              =   -2203.58439849 Ry
     Harris-Foulkes estimate   =   -2203.58469004 Ry
     estimated scf accuracy    <       0.00297237 Ry

     iteration # 19     ecut=    40.00 Ry     beta=0.70
     Davidson diagonalization with overlap
     ethr =  1.21E-06,  avg # of iterations =  1.0

     negative rho (up, down):  0.235E+00 0.000E+00

     total cpu time spent up to now is     5479.7 secs

     total energy              =   -2203.58482227 Ry
     Harris-Foulkes estimate   =   -2203.58521393 Ry
     estimated scf accuracy    <       0.00261078 Ry

     iteration # 20     ecut=    40.00 Ry     beta=0.70
     Davidson diagonalization with overlap
     ethr =  1.07E-06,  avg # of iterations =  1.0

     negative rho (up, down):  0.235E+00 0.000E+00

     total cpu time spent up to now is     5719.9 secs

     total energy              =   -2203.58525846 Ry
     Harris-Foulkes estimate   =   -2203.58536764 Ry
     estimated scf accuracy    <       0.00079032 Ry

     iteration # 21     ecut=    40.00 Ry     beta=0.70
     Davidson diagonalization with overlap
     ethr =  3.23E-07,  avg # of iterations =  1.0

     negative rho (up, down):  0.235E+00 0.000E+00

     total cpu time spent up to now is     5961.6 secs

     total energy              =   -2203.58533560 Ry
     Harris-Foulkes estimate   =   -2203.58540045 Ry
     estimated scf accuracy    <       0.00043196 Ry

     iteration # 22     ecut=    40.00 Ry     beta=0.70
     Davidson diagonalization with overlap
     ethr =  1.76E-07,  avg # of iterations =  1.0

     negative rho (up, down):  0.235E+00 0.000E+00

     total cpu time spent up to now is     6201.6 secs

     total energy              =   -2203.58538882 Ry
     Harris-Foulkes estimate   =   -2203.58541104 Ry
     estimated scf accuracy    <       0.00040544 Ry

     iteration # 23     ecut=    40.00 Ry     beta=0.70
     Davidson diagonalization with overlap
     ethr =  1.65E-07,  avg # of iterations =  1.1

     negative rho (up, down):  0.235E+00 0.000E+00

     total cpu time spent up to now is     6450.4 secs

     total energy              =   -2203.58540183 Ry
     Harris-Foulkes estimate   =   -2203.58547205 Ry
     estimated scf accuracy    <       0.00032444 Ry

     iteration # 24     ecut=    40.00 Ry     beta=0.70
     Davidson diagonalization with overlap
     ethr =  1.32E-07,  avg # of iterations =  1.9

     negative rho (up, down):  0.235E+00 0.000E+00

     total cpu time spent up to now is     6701.6 secs

     total energy              =   -2203.58543091 Ry
     Harris-Foulkes estimate   =   -2203.58553508 Ry
     estimated scf accuracy    <       0.00064834 Ry

     iteration # 25     ecut=    40.00 Ry     beta=0.70
     Davidson diagonalization with overlap
     ethr =  1.32E-07,  avg # of iterations =  1.0

     negative rho (up, down):  0.235E+00 0.000E+00

     total cpu time spent up to now is     6953.8 secs

     total energy              =   -2203.58551029 Ry
     Harris-Foulkes estimate   =   -2203.58550290 Ry
     estimated scf accuracy    <       0.00014999 Ry

     iteration # 26     ecut=    40.00 Ry     beta=0.70
     Davidson diagonalization with overlap
     ethr =  6.12E-08,  avg # of iterations =  1.0

     negative rho (up, down):  0.235E+00 0.000E+00

     total cpu time spent up to now is     7198.6 secs

     total energy              =   -2203.58553106 Ry
     Harris-Foulkes estimate   =   -2203.58554615 Ry
     estimated scf accuracy    <       0.00008670 Ry

     iteration # 27     ecut=    40.00 Ry     beta=0.70
     Davidson diagonalization with overlap
     ethr =  3.54E-08,  avg # of iterations =  1.0

     negative rho (up, down):  0.235E+00 0.000E+00

     total cpu time spent up to now is     7442.4 secs

     total energy              =   -2203.58557986 Ry
     Harris-Foulkes estimate   =   -2203.58557717 Ry
     estimated scf accuracy    <       0.00002961 Ry

     iteration # 28     ecut=    40.00 Ry     beta=0.70
     Davidson diagonalization with overlap
     ethr =  1.21E-08,  avg # of iterations =  1.0

     negative rho (up, down):  0.235E+00 0.000E+00

     total cpu time spent up to now is     7682.3 secs

     total energy              =   -2203.58558928 Ry
     Harris-Foulkes estimate   =   -2203.58559200 Ry
     estimated scf accuracy    <       0.00003032 Ry

     iteration # 29     ecut=    40.00 Ry     beta=0.70
     Davidson diagonalization with overlap
     ethr =  1.21E-08,  avg # of iterations =  1.0

     negative rho (up, down):  0.235E+00 0.000E+00

     total cpu time spent up to now is     7919.0 secs

     total energy              =   -2203.58559372 Ry
     Harris-Foulkes estimate   =   -2203.58559651 Ry
     estimated scf accuracy    <       0.00002779 Ry

     iteration # 30     ecut=    40.00 Ry     beta=0.70
     Davidson diagonalization with overlap
     ethr =  1.13E-08,  avg # of iterations =  1.0

     negative rho (up, down):  0.235E+00 0.000E+00

     total cpu time spent up to now is     8155.9 secs

     total energy              =   -2203.58560414 Ry
     Harris-Foulkes estimate   =   -2203.58560310 Ry
     estimated scf accuracy    <       0.00001420 Ry

     iteration # 31     ecut=    40.00 Ry     beta=0.70
     Davidson diagonalization with overlap
     ethr =  5.79E-09,  avg # of iterations =  1.0

     negative rho (up, down):  0.235E+00 0.000E+00

     total cpu time spent up to now is     8391.6 secs

     total energy              =   -2203.58560518 Ry
     Harris-Foulkes estimate   =   -2203.58561011 Ry
     estimated scf accuracy    <       0.00001440 Ry

     iteration # 32     ecut=    40.00 Ry     beta=0.70
     Davidson diagonalization with overlap
     ethr =  5.79E-09,  avg # of iterations =  2.0

     negative rho (up, down):  0.235E+00 0.000E+00

     total cpu time spent up to now is     8639.0 secs

     total energy              =   -2203.58561242 Ry
     Harris-Foulkes estimate   =   -2203.58561612 Ry
     estimated scf accuracy    <       0.00001212 Ry

     iteration # 33     ecut=    40.00 Ry     beta=0.70
     Davidson diagonalization with overlap
     ethr =  4.95E-09,  avg # of iterations =  2.0

     negative rho (up, down):  0.235E+00 0.000E+00

     total cpu time spent up to now is     8885.5 secs

     total energy              =   -2203.58561883 Ry
     Harris-Foulkes estimate   =   -2203.58561913 Ry
     estimated scf accuracy    <       0.00000807 Ry

     iteration # 34     ecut=    40.00 Ry     beta=0.70
     Davidson diagonalization with overlap
     ethr =  3.29E-09,  avg # of iterations =  1.0

     negative rho (up, down):  0.235E+00 0.000E+00

     total cpu time spent up to now is     9126.8 secs

     total energy              =   -2203.58561870 Ry
     Harris-Foulkes estimate   =   -2203.58561987 Ry
     estimated scf accuracy    <       0.00000368 Ry

     iteration # 35     ecut=    40.00 Ry     beta=0.70
     Davidson diagonalization with overlap
     ethr =  1.50E-09,  avg # of iterations =  2.0

     negative rho (up, down):  0.235E+00 0.000E+00

     total cpu time spent up to now is     9375.6 secs

     total energy              =   -2203.58561500 Ry
     Harris-Foulkes estimate   =   -2203.58562238 Ry
     estimated scf accuracy    <       0.00003905 Ry

     iteration # 36     ecut=    40.00 Ry     beta=0.70
     Davidson diagonalization with overlap
     ethr =  1.50E-09,  avg # of iterations =  2.0

     negative rho (up, down):  0.235E+00 0.000E+00

     total cpu time spent up to now is     9622.2 secs

     total energy              =   -2203.58562060 Ry
     Harris-Foulkes estimate   =   -2203.58562168 Ry
     estimated scf accuracy    <       0.00000459 Ry

     iteration # 37     ecut=    40.00 Ry     beta=0.70
     Davidson diagonalization with overlap
     ethr =  1.50E-09,  avg # of iterations =  1.0

     negative rho (up, down):  0.235E+00 0.000E+00

     total cpu time spent up to now is     9861.5 secs

     total energy              =   -2203.58562138 Ry
     Harris-Foulkes estimate   =   -2203.58562126 Ry
     estimated scf accuracy    <       0.00000113 Ry

     iteration # 38     ecut=    40.00 Ry     beta=0.70
     Davidson diagonalization with overlap
     ethr =  4.60E-10,  avg # of iterations =  1.0

     negative rho (up, down):  0.235E+00 0.000E+00

     total cpu time spent up to now is    10103.8 secs

     End of self-consistent calculation
 --- enter write_ns ---
 LDA+U parameters:
U( 2)     =  8.00000000
alpha( 2) =  0.00000000
atom    3   Tr[ns(na)] =   6.51326
    eigenvalues: 
  0.373  0.547  0.581  0.800  0.955
    eigenvectors:
  0.005  0.011  0.240  0.744  0.000
  0.000  0.966  0.033  0.000  0.000
  0.976  0.000  0.000  0.006  0.018
  0.001  0.021  0.728  0.250  0.000
  0.017  0.000  0.000  0.000  0.982
    occupations:
  0.742 -0.008  0.029 -0.094 -0.004
 -0.008  0.549  0.000 -0.003 -0.008
  0.029  0.000  0.386 -0.014  0.076
 -0.094 -0.003 -0.014  0.635  0.002
 -0.004 -0.008  0.076  0.002  0.945
atom    4   Tr[ns(na)] =   6.61243
    eigenvalues: 
  0.504  0.585  0.631  0.775  0.812
    eigenvectors:
  0.000  0.000  0.997  0.000  0.002
  0.002  0.000  0.000  0.995  0.003
  0.998  0.000  0.000  0.002  0.000
  0.000  0.000  0.002  0.003  0.995
  0.000  1.000  0.000  0.000  0.000
    occupations:
  0.631  0.003  0.001 -0.009  0.001
  0.003  0.774  0.011 -0.002 -0.000
  0.001  0.011  0.505  0.001  0.000
 -0.009 -0.002  0.001  0.811 -0.000
  0.001 -0.000  0.000 -0.000  0.585
atom    9   Tr[ns(na)] =   6.59583
    eigenvalues: 
  0.493  0.590  0.616  0.711  0.887
    eigenvectors:
  0.000  0.107  0.000  0.892  0.001
  0.000  0.004  0.996  0.000  0.000
  0.993  0.003  0.000  0.000  0.004
  0.002  0.886  0.004  0.107  0.000
  0.004  0.000  0.000  0.001  0.995
    occupations:
  0.698  0.001 -0.001 -0.038  0.005
  0.001  0.616  0.001  0.001 -0.000
 -0.001  0.001  0.495 -0.005 -0.024
 -0.038  0.001 -0.005  0.603 -0.005
  0.005 -0.000 -0.024 -0.005  0.886
atom   10   Tr[ns(na)] =   6.39123
    eigenvalues: 
  0.363  0.475  0.571  0.816  0.971
    eigenvectors:
  0.010  0.983  0.001  0.005  0.000
  0.002  0.000  0.001  0.000  0.997
  0.986  0.011  0.000  0.001  0.002
  0.002  0.005  0.000  0.993  0.000
  0.000  0.001  0.998  0.000  0.001
    occupations:
  0.476  0.005 -0.010  0.026  0.003
  0.005  0.969  0.025 -0.000  0.011
 -0.010  0.025  0.366  0.015  0.004
  0.026 -0.000  0.015  0.813 -0.004
  0.003  0.011  0.004 -0.004  0.571
atom   16   Tr[ns(na)] =   6.51679
    eigenvalues: 
  0.376  0.547  0.581  0.799  0.955
    eigenvectors:
  0.007  0.011  0.237  0.744  0.000
  0.001  0.967  0.031  0.000  0.001
  0.977  0.000  0.001  0.007  0.015
  0.000  0.020  0.731  0.248  0.000
  0.014  0.001  0.000  0.000  0.984
    occupations:
  0.741  0.007  0.033 -0.094  0.003
  0.007  0.548  0.006  0.003 -0.012
  0.033  0.006  0.388 -0.014 -0.069
 -0.094  0.003 -0.014  0.634 -0.001
  0.003 -0.012 -0.069 -0.001  0.946
atom   17   Tr[ns(na)] =   6.61252
    eigenvalues: 
  0.507  0.583  0.627  0.780  0.808
    eigenvectors:
  0.000  0.000  0.997  0.000  0.002
  0.002  0.000  0.001  0.994  0.004
  0.998  0.000  0.000  0.002  0.000
  0.000  0.000  0.002  0.004  0.994
  0.000  1.000  0.000  0.000  0.000
    occupations:
  0.628  0.004  0.001 -0.008  0.001
  0.004  0.779  0.011 -0.002 -0.000
  0.001  0.011  0.508  0.001 -0.000
 -0.008 -0.002  0.001  0.808  0.000
  0.001 -0.000 -0.000  0.000  0.583
atom   22   Tr[ns(na)] =   6.61299
    eigenvalues: 
  0.447  0.585  0.589  0.798  0.888
    eigenvectors:
  0.000  0.064  0.139  0.793  0.004
  0.000  0.687  0.313  0.000  0.000
  0.993  0.000  0.000  0.000  0.007
  0.000  0.249  0.548  0.201  0.001
  0.007  0.000  0.000  0.005  0.988
    occupations:
  0.756 -0.001 -0.001 -0.085  0.005
 -0.001  0.586  0.001 -0.002  0.001
 -0.001  0.001  0.450  0.001  0.036
 -0.085 -0.002  0.001  0.630 -0.004
  0.005  0.001  0.036 -0.004  0.885
atom   23   Tr[ns(na)] =   6.57331
    eigenvalues: 
  0.423  0.554  0.573  0.785  0.951
    eigenvectors:
  0.011  0.221  0.767  0.000  0.001
  0.190  0.003  0.002  0.000  0.804
  0.795  0.007  0.003  0.000  0.194
  0.000  0.000  0.000  0.999  0.000
  0.003  0.769  0.228  0.000  0.000
    occupations:
  0.567 -0.001  0.017 -0.000 -0.009
 -0.001  0.849 -0.208 -0.004  0.004
  0.017 -0.208  0.527  0.001  0.005
 -0.000 -0.004  0.001  0.785  0.003
 -0.009  0.004  0.005  0.003  0.558
N of occupied +U levels =  52.4283498
 --- exit write_ns ---

          k = 0.0000 0.0000 0.0000 ( 29221 PWs)   bands (ev):

   -80.5781 -80.5069 -80.2334 -80.0488 -80.0214 -79.9943 -79.7407 -79.6966
   -42.6409 -42.6032 -42.5958 -42.5326 -42.4473 -42.4449 -42.4294 -42.3566
   -42.2722 -42.1807 -42.1166 -42.0112 -42.0005 -41.9265 -41.8995 -41.8646
   -41.8528 -41.7479 -41.7178 -41.7017 -41.6149 -41.0279 -40.9828 -40.9323
   -22.4748 -20.5484 -20.2790 -20.0436 -20.0138 -19.8991 -19.6037 -19.3982
   -19.3754 -19.2285 -18.9335 -18.8424 -18.7852 -18.6845 -18.6574 -18.6266
   -18.4020 -17.9103 -17.6275 -16.3627  -9.8113  -9.6317  -9.5011  -9.4343
    -9.2897  -9.0106  -8.6845  -8.2839  -8.0868  -8.0175  -7.9460  -7.7801
    -7.7084  -7.1915  -7.0868  -6.6740  -6.6541  -6.5738  -6.5628  -6.4886
    -6.3715  -6.2536  -6.2134  -5.8751  -5.5906  -5.4326  -5.4213  -5.1177
    -5.0320  -4.9806  -4.9078  -4.8468  -4.6552  -4.5958  -4.5098  -4.2943
    -4.2812  -4.1861  -4.0920  -4.0398  -4.0026  -3.9308  -3.9023  -3.6473
    -3.5732  -3.5576  -3.4837  -3.3900  -3.2580  -3.1123  -3.0633  -2.9389
    -2.8822  -2.7821  -2.7218  -2.6449  -2.5359  -2.4607  -2.3582  -2.1768
    -1.9489  -1.1394  -1.0671  -0.9229  -0.6574  -0.6236  -0.3999  -0.2269
    -0.1998   0.2306   0.8488   1.0551   1.4869   1.5161   1.7432   1.8100
     2.1983   2.4189   2.6476   2.8763   2.9726   3.0954   3.4289   3.5141
     3.6068   3.7997   4.0173   4.3611   4.5491   4.6527   4.6841   4.8013
     4.9953   5.1120   5.2280   5.2864   5.4338   5.4525   5.5567   5.5801
     5.6516   5.9105   6.0944   6.2451   6.4507   6.7423   6.9274   7.0772
     7.4604   7.5032   7.6805   7.8213   7.9316   7.9738   8.0701   8.2950
     8.3967   8.5191   8.5852   8.8913   9.0799   9.2644   9.2789   9.4143
     9.4365   9.5330   9.6759   9.7840   9.7992   9.8864   9.9089  10.0209
    10.0522  10.1243  10.2501  10.2707  10.3536  10.4648  10.6116  10.7320
    10.8072  10.8842  11.0536  11.0648  11.1829  11.3404  11.4586  11.5284
    11.6501  11.7138  11.8659  11.9208  11.9944  12.0947  12.1572  12.2733
    12.4147  12.5131  12.5825  12.6018  12.7032  12.7270  12.8502  12.9313
    12.9752  12.9898  13.0964  13.1352  13.1599  13.1890  13.2138  13.2746
    13.3803  13.5060  13.5852  13.6250  13.7288  13.8728  13.8764  13.9230
    14.0475  14.0848  14.0958  14.1555  14.2120  14.2709  14.3877  14.4005
    14.4282  14.5561  14.6584  14.6936  14.7127  14.7889  14.9814  15.1024
    15.1149  15.1389  15.2709  15.3291  15.4293  15.5052  15.5777  15.7971
    15.8894  15.9314  16.1001  16.1330  16.1890  16.2004  16.2297  16.2981
    16.4332  16.4965  16.5930  16.6402  16.7678  16.7931  16.8234  16.9683
    17.0219  17.0598  17.0997  17.1714  17.2845  17.2992  17.3524  17.4099
    17.5312  17.5524  17.7120  17.7536  17.9646  18.1046  18.2575  18.3145
    18.3852  18.4648  18.5685  18.6083  18.7162  18.7708  18.8467  18.9479
    18.9845  19.0664  19.1905  19.2533  19.4518  19.5018  19.5944  19.6812
    19.7641  19.9364  19.9786  20.0943  20.1096  20.1623  20.1886  20.3014
    20.3206  20.3334  20.4005  20.4424  20.5744  20.5805  20.6324  20.7102
    20.7833  20.8207  20.9480  21.0329  21.0988  21.2283  21.2653  21.3786
    21.5922  21.6339  21.6380  21.6919  21.7699  21.8150  21.8789  21.9776
    22.0248  22.0767  22.1324  22.1616  22.1966  22.2100  22.2573  22.2628
    22.3259  22.3809  22.4535  22.4934  22.5297  22.6009  22.6821  22.7254
    22.8246  22.9213  22.9541  22.9764  23.0199  23.1266  23.1517  23.2264
    23.2485  23.3605  23.3902  23.4108  23.4802  23.5015  23.6116

          k = 0.0000 0.1914 0.0000 ( 29141 PWs)   bands (ev):

   -80.5779 -80.5075 -80.2335 -80.0480 -80.0210 -79.9944 -79.7404 -79.6969
   -42.6408 -42.6031 -42.5952 -42.5325 -42.4457 -42.4441 -42.4293 -42.3565
   -42.2721 -42.1807 -42.1162 -42.0142 -41.9998 -41.9256 -41.9006 -41.8645
   -41.8522 -41.7485 -41.7178 -41.7012 -41.6148 -41.0278 -40.9828 -40.9324
   -22.4747 -20.5111 -20.2688 -20.0189 -19.8901 -19.7700 -19.6039 -19.5361
   -19.4132 -19.3659 -19.2398 -18.8627 -18.8140 -18.6913 -18.6417 -18.4422
   -18.2412 -17.9072 -17.6264 -16.3620  -9.9540  -9.6192  -9.4681  -9.4231
    -9.3189  -9.1291  -8.7813  -8.2816  -8.0775  -8.0092  -7.9054  -7.7915
    -7.5526  -7.2348  -7.1761  -6.9279  -6.6509  -6.5938  -6.5159  -6.4759
    -6.1898  -5.9319  -5.8033  -5.6437  -5.6222  -5.4127  -5.2524  -5.1197
    -5.1060  -5.0805  -4.9767  -4.9587  -4.9183  -4.8130  -4.5758  -4.3864
    -4.2419  -4.1389  -4.0607  -3.9677  -3.8850  -3.7323  -3.7185  -3.5975
    -3.5576  -3.5114  -3.3897  -3.2754  -3.2348  -3.1931  -3.0668  -3.0418
    -2.9901  -2.9028  -2.8550  -2.7289  -2.6479  -2.5397  -2.4148  -2.2505
    -2.0271  -1.4251  -1.3361  -1.1011  -0.8093  -0.6587  -0.2688   0.0426
     0.0756   0.4245   0.8603   1.1913   1.4793   1.6586   1.8833   2.0016
     2.2147   2.4986   2.6179   2.8415   3.0976   3.1739   3.3616   3.4839
     3.6625   3.9816   4.0813   4.1961   4.3749   4.5955   4.6917   4.7134
     4.7348   4.8151   4.8857   5.0832   5.1521   5.3379   5.5643   5.6028
     5.6648   5.9344   6.2648   6.4724   6.6551   6.7748   6.9921   7.0812
     7.1496   7.2356   7.3872   7.6673   8.0096   8.1520   8.2317   8.3171
     8.5715   8.6268   8.7623   8.9481   9.2193   9.3066   9.3943   9.5528
     9.6397   9.7295   9.8152   9.9480   9.9677  10.0769  10.2009  10.2303
    10.2839  10.3277  10.4005  10.4504  10.5549  10.6197  10.7225  10.8606
    10.9309  11.0420  11.1409  11.2050  11.2666  11.3473  11.3981  11.4657
    11.5295  11.6140  11.7085  11.7392  11.8280  11.9155  11.9924  12.0169
    12.2157  12.2283  12.2836  12.3316  12.4600  12.5000  12.6581  12.7793
    12.8898  12.9276  12.9473  12.9866  13.0698  13.2084  13.2938  13.4162
    13.4873  13.5125  13.5901  13.6172  13.8046  13.8458  13.9551  14.0275
    14.0574  14.1381  14.1686  14.2438  14.3103  14.3602  14.4294  14.4795
    14.5954  14.6286  14.6773  14.7511  14.7708  14.8612  14.8875  14.9240
    15.0584  15.0909  15.1338  15.2081  15.3796  15.3990  15.4813  15.6254
    15.6619  15.7158  15.7383  15.7874  15.8960  15.9428  16.0254  16.1790
    16.2569  16.3109  16.3933  16.5230  16.6174  16.7116  16.7287  16.9037
    16.9430  17.0829  17.2205  17.3569  17.4167  17.4763  17.5252  17.6850
    17.7260  17.7911  17.9412  17.9777  18.1385  18.2134  18.3092  18.4119
    18.4885  18.5980  18.6940  18.7877  18.8184  18.9115  18.9782  19.0520
    19.1259  19.1700  19.2610  19.3257  19.3485  19.4150  19.4465  19.4969
    19.5760  19.6230  19.7249  19.8010  19.8642  19.9008  19.9866  20.0368
    20.1020  20.1460  20.2223  20.2674  20.2805  20.3496  20.4323  20.4879
    20.5682  20.6858  20.7656  20.8421  20.8608  20.8945  21.0068  21.0667
    21.1319  21.2072  21.3094  21.4163  21.5058  21.5982  21.6212  21.7200
    21.7844  21.9224  21.9699  22.0258  22.1261  22.1814  22.1997  22.3069
    22.3594  22.3901  22.4465  22.4824  22.5840  22.6177  22.7114  22.8443
    22.9615  23.0121  23.0444  23.1331  23.1866  23.2786  23.3473  23.4124
    23.4680  23.5466  23.5975  23.7147  23.7750  23.8203  23.9101

          k = 0.0000-0.3828 0.0000 ( 29262 PWs)   bands (ev):

   -80.5777 -80.5081 -80.2336 -80.0471 -80.0206 -79.9946 -79.7401 -79.6971
   -42.6407 -42.6030 -42.5947 -42.5326 -42.4443 -42.4434 -42.4291 -42.3565
   -42.2722 -42.1807 -42.1159 -42.0173 -41.9992 -41.9248 -41.9019 -41.8645
   -41.8515 -41.7493 -41.7179 -41.7007 -41.6148 -41.0278 -40.9828 -40.9324
   -22.4747 -20.4824 -20.2609 -20.0144 -19.7079 -19.6073 -19.5968 -19.5748
   -19.4623 -19.4389 -19.2322 -19.1611 -19.0509 -18.8138 -18.6547 -18.2083
   -18.0269 -17.9035 -17.6253 -16.3612 -10.2509  -9.6541  -9.6040  -9.4484
    -9.1870  -8.8521  -8.3702  -8.3133  -8.2935  -8.0811  -7.9815  -7.9272
    -7.8585  -7.1660  -7.0774  -6.7061  -6.6921  -6.6433  -6.4656  -6.4093
    -6.3341  -5.8577  -5.7124  -5.6712  -5.2776  -5.2181  -5.1468  -5.0669
    -5.0013  -4.9652  -4.9399  -4.8908  -4.8617  -4.7217  -4.6840  -4.5120
    -4.4864  -4.2736  -4.0801  -3.9960  -3.9227  -3.8661  -3.8304  -3.6491
    -3.5873  -3.5198  -3.4743  -3.4052  -3.3617  -3.1175  -3.0491  -2.9405
    -2.8989  -2.8546  -2.7067  -2.6663  -2.5999  -2.5328  -2.3328  -2.2749
    -2.2100  -1.7404  -1.6386  -1.2812  -1.0718  -0.6854  -0.2495  -0.0752
     0.6410   0.8727   0.9427   1.4629   1.5745   1.6696   1.9270   2.1331
     2.2096   2.3250   2.7345   2.9805   3.0212   3.1177   3.2628   3.3688
     3.4373   3.6863   3.8502   4.2007   4.3444   4.4476   4.6827   4.7764
     4.8099   4.8633   5.0575   5.2762   5.3799   5.4713   5.5481   5.5714
     5.6221   5.8152   5.8750   6.1258   6.3359   6.7068   6.9465   7.1096
     7.2527   7.4628   7.6413   7.6554   7.7607   7.9275   8.0449   8.3020
     8.5253   8.7226   8.8169   9.0069   9.1228   9.2209   9.5217   9.7984
     9.9018  10.0123  10.1808  10.2771  10.3218  10.4990  10.5390  10.5449
    10.6319  10.6507  10.7010  10.7158  10.7601  10.8585  10.8687  10.9142
    11.0063  11.1867  11.2196  11.2367  11.3224  11.3409  11.4408  11.4897
    11.5192  11.6268  11.6870  11.7333  11.7791  11.8388  11.8921  11.9426
    12.0238  12.1199  12.2171  12.2554  12.3300  12.3498  12.4177  12.4518
    12.5402  12.6319  12.6459  12.6787  12.7372  12.9149  13.0226  13.0554
    13.1488  13.2409  13.3950  13.4743  13.5506  13.6192  13.6770  13.7561
    13.7995  13.8832  14.0405  14.1742  14.2469  14.3567  14.3634  14.4092
    14.4852  14.5627  14.6076  14.7021  14.7638  14.8718  14.9849  15.1460
    15.1684  15.2737  15.3589  15.4185  15.5115  15.6015  15.7249  15.8712
    15.9108  16.1035  16.1232  16.1324  16.3252  16.4710  16.5520  16.5682
    16.6086  16.6614  16.7233  16.7646  16.8117  16.8561  16.8942  16.9181
    16.9684  16.9941  17.1317  17.1692  17.3506  17.3843  17.4177  17.4767
    17.5023  17.5824  17.6252  17.6780  17.7636  17.9110  18.0166  18.0257
    18.1112  18.1991  18.2483  18.3532  18.4628  18.4932  18.5002  18.5827
    18.6155  18.7113  18.7192  18.8127  18.9217  19.1383  19.2688  19.3850
    19.4166  19.4989  19.5385  19.6327  19.6684  19.7545  19.8480  19.8745
    19.9633  20.0260  20.0868  20.1534  20.2326  20.3299  20.3978  20.5183
    20.6084  20.8096  20.8797  20.9385  21.0114  21.0821  21.1275  21.2415
    21.3197  21.3440  21.4019  21.4961  21.5540  21.6418  21.7224  21.7907
    21.9574  22.0127  22.0811  22.1873  22.3207  22.3793  22.4614  22.5261
    22.5516  22.6139  22.6756  22.8166  22.8715  22.9379  22.9785  23.0354
    23.1008  23.1749  23.2415  23.4022  23.4553  23.5347  23.5502  23.5775
    23.6553  23.6898  23.7403  23.8279  23.8696  23.9467  23.9582

          k = 0.2500 0.0000 0.0000 ( 29190 PWs)   bands (ev):

   -80.5580 -80.4985 -80.2215 -80.0289 -80.0078 -79.9890 -79.7339 -79.6872
   -42.6350 -42.5806 -42.5465 -42.5092 -42.4604 -42.4397 -42.4099 -42.3592
   -42.2933 -42.1673 -42.0753 -42.0051 -41.9440 -41.9285 -41.8972 -41.8779
   -41.8595 -41.7590 -41.7523 -41.6874 -41.6162 -41.1696 -41.1399 -41.0493
   -22.4760 -20.4102 -20.1584 -20.0185 -19.8658 -19.7730 -19.6660 -19.4226
   -19.2782 -19.1526 -19.0205 -18.9199 -18.8735 -18.8231 -18.7267 -18.7129
   -18.4906 -17.9440 -17.7334 -16.3618  -9.2394  -9.2052  -9.1120  -9.0272
    -8.7894  -8.5899  -8.3199  -8.0735  -8.0021  -7.8210  -7.6767  -7.5284
    -7.3473  -7.1916  -7.0357  -6.8350  -6.7551  -6.6220  -6.5627  -6.4866
    -6.3186  -6.1901  -6.1748  -6.0603  -5.8893  -5.7601  -5.6882  -5.4284
    -5.3579  -5.1109  -5.0301  -5.0011  -4.8298  -4.6329  -4.5570  -4.5041
    -4.4016  -4.2876  -4.1686  -4.0943  -4.0205  -3.9219  -3.8701  -3.7917
    -3.6404  -3.5798  -3.5328  -3.4151  -3.3807  -3.1549  -3.0389  -2.9263
    -2.8114  -2.7581  -2.6827  -2.5697  -2.5500  -2.4045  -2.2779  -2.0826
    -1.9220  -1.0864  -1.0373  -0.9614  -0.8122  -0.7019  -0.4915  -0.4080
    -0.1169   0.1165   0.6376   1.0620   1.0824   1.3043   1.4447   1.6206
     1.6765   1.9557   2.0020   2.1378   2.4100   2.5389   2.7894   3.4754
     3.7318   3.9945   4.2543   4.5940   4.6892   4.7491   4.8865   4.9082
     5.0508   5.1873   5.2540   5.2982   5.3405   5.4801   5.6066   5.6711
     5.8419   5.9492   6.0558   6.5472   6.5854   6.8179   6.9885   7.1784
     7.3161   7.4502   7.6278   7.7706   7.9306   7.9991   8.1078   8.1314
     8.2976   8.4097   8.4984   8.6576   8.6858   8.8574   9.0431   9.1671
     9.2776   9.3554   9.4694   9.6499   9.7630   9.9121   9.9208  10.0496
    10.1017  10.1631  10.2498  10.3496  10.3754  10.4752  10.5762  10.6533
    10.7204  10.8229  10.8850  10.9220  11.0775  11.1228  11.1318  11.2271
    11.3452  11.4476  11.5606  11.6467  11.7430  11.9290  11.9691  12.0995
    12.1916  12.3049  12.3495  12.4556  12.6212  12.7863  12.9110  12.9512
    13.0279  13.1646  13.1990  13.2887  13.3609  13.4254  13.6133  13.6678
    13.7038  13.8541  13.9183  13.9767  14.1418  14.2678  14.2939  14.3458
    14.4955  14.5445  14.6070  14.6941  14.7983  14.8696  14.9130  15.0489
    15.1052  15.1829  15.2479  15.3263  15.3931  15.4677  15.5391  15.5732
    15.7413  15.7936  15.8910  15.9459  16.0092  16.0737  16.1233  16.1701
    16.2113  16.2719  16.4038  16.4115  16.4573  16.5629  16.6443  16.7713
    16.8015  16.8713  16.9270  16.9745  17.0738  17.1261  17.2258  17.2894
    17.3120  17.3599  17.3865  17.4383  17.5698  17.6458  17.6834  17.7934
    17.8891  17.9748  18.0067  18.0732  18.1440  18.2000  18.3006  18.4082
    18.4614  18.5880  18.6137  18.6875  18.7539  18.8352  18.8936  18.9395
    19.0696  19.1102  19.2039  19.2746  19.3745  19.4252  19.5215  19.5541
    19.6313  19.6690  19.7504  19.8179  19.8789  19.9100  19.9493  19.9585
    20.0735  20.1022  20.1384  20.2336  20.3355  20.3787  20.4304  20.4575
    20.5239  20.6219  20.6409  20.6920  20.7326  20.7793  20.8094  20.8689
    20.9443  21.0017  21.0649  21.1238  21.1660  21.2417  21.3592  21.3959
    21.4864  21.6002  21.7171  21.8475  21.8779  21.9406  22.0343  22.0678
    22.1927  22.2177  22.2666  22.3106  22.3962  22.4188  22.4647  22.5089
    22.6161  22.6569  22.7164  22.7931  22.8608  22.9659  23.0242  23.1070
    23.1619  23.2247  23.3191  23.3559  23.4106  23.4871  23.5330

          k = 0.2500 0.1914 0.0000 ( 29229 PWs)   bands (ev):

   -80.5580 -80.4991 -80.2216 -80.0282 -80.0074 -79.9890 -79.7336 -79.6874
   -42.6349 -42.5794 -42.5465 -42.5085 -42.4592 -42.4385 -42.4099 -42.3591
   -42.2933 -42.1673 -42.0748 -42.0079 -41.9439 -41.9279 -41.8984 -41.8779
   -41.8593 -41.7582 -41.7518 -41.6887 -41.6164 -41.1694 -41.1398 -41.0492
   -22.4761 -20.3839 -20.1509 -20.0166 -19.7439 -19.6702 -19.6609 -19.4877
   -19.3958 -19.2927 -19.1921 -18.9180 -18.8853 -18.7771 -18.6917 -18.6325
   -18.4137 -17.9427 -17.7330 -16.3610  -9.4333  -9.1392  -9.0480  -8.9115
    -8.7866  -8.6546  -8.3480  -8.0839  -8.0145  -7.8837  -7.7187  -7.6877
    -7.5225  -7.2559  -6.9990  -6.8707  -6.7430  -6.5822  -6.5044  -6.4085
    -6.3163  -6.1762  -6.1006  -5.8159  -5.7210  -5.4616  -5.4287  -5.2342
    -5.1776  -5.1402  -5.0129  -4.8937  -4.7769  -4.7502  -4.6698  -4.5802
    -4.5256  -4.4002  -4.3756  -4.3357  -4.1385  -4.0834  -3.9457  -3.7716
    -3.6878  -3.6127  -3.5595  -3.4645  -3.3033  -3.2143  -3.1111  -2.9683
    -2.9296  -2.8488  -2.6686  -2.5675  -2.5316  -2.2395  -2.1015  -1.9836
    -1.7977  -1.4698  -1.1630  -1.0173  -0.8406  -0.7540  -0.3735  -0.2639
    -0.0071   0.2498   0.6222   1.2191   1.3432   1.3785   1.5887   1.6363
     1.8682   1.9491   2.0860   2.2346   2.4044   2.5408   2.6805   3.2342
     3.8810   4.0028   4.1130   4.2792   4.3839   4.6354   4.7019   4.8351
     4.9158   4.9802   5.1506   5.2704   5.3592   5.4338   5.5239   5.8536
     6.1027   6.2091   6.3340   6.5747   6.7186   6.7479   6.8219   6.9813
     7.0880   7.3335   7.4458   7.5363   7.7299   7.8217   8.0180   8.1553
     8.4177   8.5093   8.6486   8.7383   8.8985   8.9818   9.0385   9.1787
     9.2963   9.4275   9.5509   9.5624   9.7684   9.7977   9.8921   9.9837
    10.0678  10.1637  10.2333  10.3426  10.4506  10.5482  10.6864  10.7602
    10.8633  10.9558  11.0021  11.0746  11.2060  11.2805  11.4618  11.5258
    11.6269  11.7264  11.8230  11.9024  12.0437  12.1657  12.2382  12.3672
    12.4738  12.5520  12.6384  12.6773  12.7800  12.8558  12.9162  13.0319
    13.0668  13.1870  13.2850  13.3146  13.4314  13.5921  13.6393  13.7479
    13.7770  13.8360  13.9418  14.0211  14.0736  14.1638  14.2137  14.2887
    14.3396  14.3939  14.4452  14.4950  14.5654  14.6089  14.6366  14.7577
    14.8006  14.8473  14.9649  15.0199  15.0950  15.1633  15.2496  15.2912
    15.3275  15.4201  15.5178  15.5556  15.6275  15.6666  15.8372  15.8777
    15.9816  16.0880  16.1842  16.2543  16.3551  16.4486  16.4892  16.5237
    16.6315  16.6769  16.7856  16.8991  16.9408  16.9996  17.0533  17.1871
    17.2365  17.3140  17.3927  17.5076  17.5343  17.5929  17.6418  17.7102
    17.7781  17.8611  17.8993  18.0276  18.1082  18.1576  18.2937  18.3787
    18.4300  18.5110  18.5648  18.6308  18.7342  18.7947  18.8160  18.8461
    18.9643  19.0307  19.1545  19.1913  19.3444  19.3734  19.4106  19.4783
    19.5708  19.6776  19.7283  19.7631  19.8650  19.9790  20.0525  20.1527
    20.2472  20.3503  20.3898  20.4888  20.5547  20.6125  20.6603  20.7214
    20.7720  20.8013  20.9205  20.9300  20.9993  21.0733  21.1271  21.1791
    21.2447  21.2832  21.3828  21.4353  21.5282  21.5826  21.6550  21.7323
    21.7702  21.8276  21.8825  21.9407  21.9940  22.0690  22.1246  22.1907
    22.2519  22.2715  22.3187  22.3902  22.4549  22.5037  22.5671  22.5998
    22.6311  22.6990  22.7412  22.7999  22.8861  22.9332  23.0062  23.0444
    23.1187  23.1553  23.2287  23.2579  23.2918  23.3863  23.4131

          k = 0.2500-0.3828 0.0000 ( 29202 PWs)   bands (ev):

   -80.5580 -80.4996 -80.2218 -80.0275 -80.0070 -79.9890 -79.7333 -79.6877
   -42.6348 -42.5781 -42.5464 -42.5085 -42.4574 -42.4374 -42.4099 -42.3591
   -42.2933 -42.1672 -42.0728 -42.0108 -41.9439 -41.9278 -41.9004 -41.8777
   -41.8591 -41.7604 -41.7513 -41.6874 -41.6161 -41.1692 -41.1397 -41.0494
   -22.4761 -20.3626 -20.1454 -20.0154 -19.6653 -19.6498 -19.5380 -19.4245
   -19.4112 -19.3573 -19.2692 -19.1033 -19.0470 -18.8840 -18.7374 -18.4537
   -18.2457 -17.9408 -17.7338 -16.3602  -9.6152  -9.0941  -9.0817  -8.9948
    -8.7297  -8.3042  -8.2684  -8.1223  -8.0597  -8.0178  -7.7636  -7.7176
    -7.5710  -7.2652  -7.1188  -7.0237  -6.9980  -6.7703  -6.5274  -6.3250
    -6.1516  -5.9040  -5.7596  -5.5930  -5.4961  -5.4392  -5.2415  -5.1664
    -5.0246  -4.9922  -4.9518  -4.8948  -4.8364  -4.7943  -4.7595  -4.6735
    -4.5307  -4.4778  -4.4417  -4.3320  -4.2677  -4.1884  -4.1329  -4.0191
    -3.7614  -3.6414  -3.5583  -3.5202  -3.4077  -3.1799  -3.0649  -2.9187
    -2.8624  -2.8392  -2.6182  -2.6037  -2.4542  -2.3062  -2.2357  -1.9356
    -1.8192  -1.6133  -1.5138  -1.1357  -0.9728  -0.7413  -0.3004  -0.0936
     0.3007   0.5811   0.6979   1.4937   1.5792   1.6117   1.6833   1.8215
     1.9278   2.0063   2.1765   2.2881   2.3857   2.4266   2.7173   2.9861
     3.2355   3.5892   3.8585   4.0396   4.1339   4.3304   4.7383   4.8174
     5.0264   5.0736   5.3530   5.4320   5.5171   5.6363   5.7991   5.8656
     5.9652   6.0981   6.2036   6.4286   6.6374   6.7207   6.8017   7.0421
     7.1081   7.3194   7.3996   7.5664   7.7837   7.9199   7.9422   8.1244
     8.1971   8.3518   8.4381   8.6448   8.6913   8.8384   8.9164   9.1337
     9.2080   9.3195   9.4392   9.5926   9.6861   9.8467  10.0277  10.0738
    10.3347  10.4498  10.5881  10.6157  10.6572  10.8407  10.9363  10.9933
    11.0404  11.1892  11.3225  11.4132  11.5854  11.6270  11.6921  11.7952
    11.8730  11.9294  12.0201  12.1002  12.1790  12.2384  12.3591  12.4129
    12.5135  12.5507  12.6546  12.6940  12.7255  12.8408  12.9377  13.0437
    13.1498  13.2478  13.3060  13.3396  13.3757  13.5143  13.5575  13.6626
    13.7129  13.8269  13.8792  13.9441  14.0338  14.0870  14.1637  14.2189
    14.2584  14.3680  14.4415  14.4572  14.5072  14.5377  14.5837  14.6191
    14.6633  14.7241  14.7690  14.7955  14.8875  14.9242  14.9787  15.0302
    15.1545  15.2968  15.3698  15.4039  15.4701  15.5417  15.6065  15.6408
    15.6796  15.7358  15.8792  15.9385  15.9868  16.1755  16.2143  16.3581
    16.4079  16.5152  16.5341  16.6327  16.6628  16.8212  16.9100  16.9864
    17.0305  17.1325  17.1854  17.2986  17.3842  17.4537  17.5548  17.6786
    17.7633  17.7916  17.8562  17.9297  18.0061  18.1256  18.2402  18.2910
    18.4106  18.4844  18.5265  18.5770  18.6749  18.8705  18.9051  18.9677
    19.1284  19.1538  19.2258  19.3805  19.4822  19.5924  19.6348  19.7124
    19.7596  19.8062  19.8371  19.9031  19.9914  20.0339  20.0973  20.1316
    20.1825  20.2579  20.3223  20.4002  20.5407  20.5945  20.6630  20.7398
    20.8137  20.8811  20.9164  21.0128  21.1195  21.1650  21.1907  21.2748
    21.3015  21.4248  21.4566  21.4967  21.5630  21.6091  21.6811  21.7331
    21.7658  21.8116  21.8725  21.9648  22.0264  22.0950  22.1151  22.1989
    22.2833  22.3208  22.3968  22.4134  22.4525  22.5086  22.6456  22.6937
    22.7197  22.8061  22.8328  22.9232  22.9914  23.0684  23.1330  23.1488
    23.2514  23.3023  23.3793  23.4322  23.5142  23.5616  23.6649

          k =-0.5000 0.0000 0.0000 ( 29180 PWs)   bands (ev):

   -80.5370 -80.4911 -80.2096 -80.0048 -79.9942 -79.9878 -79.7271 -79.6777
   -42.6261 -42.5634 -42.5502 -42.5094 -42.4348 -42.3823 -42.3543 -42.3301
   -42.2342 -42.1980 -42.1548 -42.0326 -41.9889 -41.9718 -41.9060 -41.8936
   -41.7696 -41.7439 -41.6684 -41.5990 -41.4798 -41.4676 -41.3696 -41.1936
   -22.4774 -20.1782 -20.0881 -19.9159 -19.8643 -19.6499 -19.4629 -19.4315
   -19.3474 -19.2386 -19.0493 -19.0265 -18.9401 -18.9320 -18.8074 -18.6866
   -18.6720 -17.9961 -17.8307 -16.3609  -8.6217  -8.4506  -8.3926  -8.2646
    -8.2457  -7.9311  -7.9140  -7.8798  -7.7970  -7.6603  -7.6045  -7.4666
    -7.4112  -7.3446  -7.2838  -7.2620  -7.2492  -6.6929  -6.3197  -6.2337
    -6.1285  -6.0638  -6.0013  -5.9432  -5.8632  -5.8536  -5.8133  -5.5872
    -5.3344  -5.2856  -5.2339  -5.1956  -5.1531  -5.0480  -4.9087  -4.8780
    -4.7073  -4.6008  -4.4811  -4.4238  -4.3426  -4.2166  -4.1493  -3.9683
    -3.7602  -3.5908  -3.5376  -3.2446  -3.1834  -3.0237  -2.9085  -2.8688
    -2.8460  -2.6827  -2.6410  -2.4545  -2.3804  -2.1234  -1.4052  -1.3851
    -1.2593  -1.1565  -1.0603  -0.9895  -0.8604  -0.8050  -0.7452  -0.6801
    -0.5922  -0.4258  -0.1911  -0.1182   0.1187   0.5277   0.7623   1.0562
     1.3189   1.7001   1.9678   2.3777   2.4857   2.5264   3.0083   3.1226
     3.9281   4.2550   4.3485   4.6868   4.7964   4.9251   4.9543   5.1436
     5.2039   5.2902   5.3278   5.4125   5.4375   5.5601   5.6421   5.7237
     5.9881   6.0170   6.1934   6.3211   6.4059   6.6019   6.8488   7.0712
     7.1185   7.2928   7.5479   7.6942   7.8749   7.9890   8.1374   8.2552
     8.6166   8.6172   8.6417   8.8476   8.9293   8.9627   9.0474   9.0618
     9.0760   9.1901   9.2226   9.3517   9.4025   9.5419   9.6096   9.6730
     9.7807   9.9012   9.9774  10.1033  10.2500  10.3649  10.5031  10.5703
    10.6007  10.6640  10.7284  10.7592  10.8252  10.9358  11.0134  11.1281
    11.1984  11.2766  11.6363  11.6698  11.7768  11.9267  11.9885  12.0806
    12.1296  12.2335  12.3054  12.3780  12.4934  12.6259  12.9163  13.0893
    13.2532  13.3767  13.4199  13.5224  13.5751  13.6886  13.8569  13.9299
    13.9497  13.9945  14.1926  14.2619  14.4632  14.8104  14.9348  14.9825
    15.0469  15.1157  15.2552  15.2832  15.3044  15.4624  15.4695  15.5683
    15.5772  15.5829  15.7018  15.8366  15.8962  15.9907  16.0487  16.1091
    16.1677  16.2165  16.2867  16.4466  16.4574  16.5612  16.6364  16.6412
    16.7074  16.7472  16.7780  16.8742  16.9402  17.0248  17.0831  17.1411
    17.2025  17.2946  17.3979  17.4638  17.4763  17.5388  17.6461  17.7084
    17.7537  17.7844  17.8093  17.8439  17.9088  18.0711  18.0829  18.1466
    18.2012  18.2527  18.2708  18.3407  18.3662  18.4739  18.5290  18.5922
    18.6103  18.6518  18.7072  18.8260  18.8667  18.9186  18.9617  19.0500
    19.1203  19.1529  19.2019  19.2946  19.3160  19.3391  19.3598  19.3837
    19.4488  19.4960  19.5381  19.5666  19.6039  19.6212  19.6675  19.6869
    19.7274  19.8152  19.8634  19.8819  19.9119  19.9617  20.0306  20.0826
    20.1539  20.1722  20.2544  20.2640  20.3491  20.3794  20.5458  20.6005
    20.7230  20.8149  20.8554  20.9240  20.9362  20.9550  21.0403  21.0901
    21.1504  21.1601  21.2396  21.2780  21.3834  21.3927  21.4427  21.4739
    21.5222  21.6159  21.6682  21.6992  21.7981  21.9001  21.9800  22.0912
    22.1563  22.3171  22.3760  22.4390  22.4734  22.4814  22.5191  22.6443
    22.7053  22.8542  22.9017  22.9492  22.9946  23.0973  23.1279

          k =-0.5000 0.1914 0.0000 ( 29244 PWs)   bands (ev):

   -80.5373 -80.4914 -80.2098 -80.0045 -79.9938 -79.9875 -79.7267 -79.6780
   -42.6260 -42.5634 -42.5482 -42.5074 -42.4333 -42.3823 -42.3543 -42.3302
   -42.2343 -42.1981 -42.1548 -42.0297 -41.9905 -41.9733 -41.9061 -41.8962
   -41.7716 -41.7434 -41.6683 -41.5987 -41.4795 -41.4674 -41.3693 -41.1936
   -22.4774 -20.1728 -20.0813 -19.9102 -19.8621 -19.6420 -19.4617 -19.4151
   -19.3308 -19.2508 -19.0511 -19.0288 -18.9529 -18.9444 -18.8463 -18.6827
   -18.6665 -17.9958 -17.8309 -16.3601  -8.6204  -8.4689  -8.4120  -8.2292
    -8.2119  -7.9717  -7.9541  -7.8670  -7.7804  -7.7391  -7.6019  -7.5682
    -7.3607  -7.3251  -7.2743  -7.2229  -7.1908  -6.7034  -6.2930  -6.2179
    -6.1665  -6.0472  -6.0150  -5.9708  -5.8633  -5.7348  -5.6696  -5.6189
    -5.4039  -5.3643  -5.3009  -5.2235  -5.1131  -5.0161  -4.8835  -4.8045
    -4.6584  -4.5637  -4.4708  -4.4043  -4.3300  -4.2782  -4.2152  -3.9992
    -3.7886  -3.6267  -3.6045  -3.2680  -3.1872  -3.1299  -2.9887  -2.9009
    -2.8534  -2.7033  -2.6250  -2.5320  -2.4573  -2.1600  -1.5988  -1.5301
    -1.2844  -1.1022  -1.0132  -0.9079  -0.7778  -0.6690  -0.6163  -0.4953
    -0.4217  -0.3413  -0.1604   0.1564   0.3034   0.4792   0.7267   1.2930
     1.4485   1.8302   2.0824   2.2787   2.4110   2.5353   2.8471   3.0130
     3.8952   4.0576   4.1060   4.2756   4.4040   4.5148   4.6465   4.9101
     4.9558   5.2927   5.5604   5.7035   5.7183   5.7716   5.9726   6.1158
     6.1402   6.2369   6.2813   6.4000   6.4708   6.7046   6.9146   7.0413
     7.1244   7.2160   7.2970   7.4409   7.6458   7.6713   7.8112   7.8644
     7.9911   8.1806   8.2643   8.3513   8.4984   8.5963   8.8265   8.9538
     9.1235   9.3543   9.4551   9.6004   9.6397   9.7231   9.8272   9.8655
    10.0405  10.1377  10.3127  10.4560  10.6285  10.7453  10.7882  10.8208
    10.8789  10.9408  10.9717  11.0941  11.1507  11.2109  11.3049  11.3757
    11.4385  11.4957  11.7691  11.8491  11.9297  12.1071  12.1444  12.1884
    12.3403  12.3945  12.4484  12.5211  12.7349  12.8857  12.9752  13.0202
    13.2699  13.3177  13.4495  13.5678  13.6757  13.7943  13.8926  13.9824
    14.0198  14.2256  14.3494  14.4063  14.4923  14.6878  14.8053  14.9190
    14.9572  14.9822  15.0645  15.0972  15.1708  15.2621  15.3083  15.3210
    15.3673  15.4030  15.4551  15.5077  15.5775  15.6197  15.7123  15.7484
    15.8968  15.9368  15.9810  16.0837  16.1563  16.2211  16.3281  16.3842
    16.4193  16.5368  16.5671  16.6175  16.6534  16.6986  16.7577  16.8186
    16.8814  16.9268  17.0557  17.0741  17.1397  17.2155  17.2554  17.2765
    17.3720  17.4385  17.4988  17.5360  17.6401  17.7955  17.8301  17.8763
    17.9411  17.9902  18.0301  18.0770  18.1000  18.1570  18.2471  18.2595
    18.2877  18.3591  18.3949  18.5099  18.5522  18.6069  18.6706  18.7414
    18.8454  18.9001  19.0873  19.1380  19.1918  19.2813  19.3409  19.4146
    19.4728  19.5438  19.6310  19.7475  19.8684  19.8815  19.9374  19.9776
    20.0546  20.1204  20.2549  20.2912  20.3505  20.4246  20.4532  20.5533
    20.6912  20.7431  20.8455  20.9103  20.9348  20.9571  21.0219  21.0443
    21.1210  21.2047  21.2252  21.2622  21.3247  21.3709  21.4671  21.5105
    21.5780  21.6221  21.6544  21.7202  21.7798  21.8172  21.8424  21.8662
    21.9138  21.9752  22.0389  22.0862  22.1569  22.2595  22.3083  22.3757
    22.4423  22.5131  22.5410  22.6232  22.6495  22.7219  22.7808  22.8257
    22.8986  22.9272  23.0160  23.0413  23.0793  23.1724  23.2638

          k =-0.5000-0.3828 0.0000 ( 29192 PWs)   bands (ev):

   -80.5376 -80.4917 -80.2101 -80.0042 -79.9935 -79.9872 -79.7264 -79.6782
   -42.6260 -42.5634 -42.5462 -42.5054 -42.4318 -42.3822 -42.3543 -42.3302
   -42.2343 -42.1982 -42.1547 -42.0268 -41.9920 -41.9748 -41.9061 -41.8987
   -41.7735 -41.7430 -41.6681 -41.5985 -41.4792 -41.4670 -41.3690 -41.1936
   -22.4774 -20.1675 -20.0744 -19.9042 -19.8598 -19.6333 -19.4600 -19.3938
   -19.3225 -19.2561 -19.0535 -19.0318 -18.9669 -18.9556 -18.8845 -18.6852
   -18.6591 -17.9956 -17.8310 -16.3593  -8.6185  -8.4577  -8.4068  -8.1870
    -8.1769  -7.9818  -7.9779  -7.8605  -7.7247  -7.6646  -7.6340  -7.5901
    -7.4380  -7.4084  -7.3415  -7.2128  -7.1931  -6.7391  -6.4936  -6.4288
    -6.3154  -6.0172  -5.8722  -5.8659  -5.7583  -5.6426  -5.5667  -5.5084
    -5.4237  -5.4139  -5.2554  -5.1806  -5.0333  -4.9171  -4.7957  -4.7638
    -4.5641  -4.5418  -4.4417  -4.4125  -4.3409  -4.1938  -4.1013  -3.9210
    -3.7820  -3.7380  -3.6575  -3.6193  -3.5137  -3.1392  -3.0845  -2.9882
    -2.9137  -2.7893  -2.7637  -2.3920  -2.3575  -2.1863  -1.8439  -1.7052
    -1.5726  -1.2762  -1.0766  -0.8413  -0.8065  -0.6497  -0.5116  -0.2597
    -0.1787   0.1352   0.2024   0.4232   0.6513   0.7216   0.7443   1.6439
     1.6693   1.8387   2.0679   2.3130   2.4642   2.4966   2.5694   2.8744
     3.3137   3.3583   3.5826   3.7892   4.0932   4.5315   4.6691   4.9491
     4.9879   5.4140   5.6576   5.8329   5.9314   5.9952   6.1724   6.3139
     6.4883   6.4944   6.6414   6.6997   6.7451   6.7652   6.7931   6.8144
     6.9028   6.9469   7.0983   7.1728   7.2059   7.3629   7.5048   7.6302
     7.7324   7.9729   8.0789   8.2865   8.3952   8.7145   8.7466   8.8383
     9.0346   9.1311   9.1557   9.3048   9.6062   9.7315   9.7943   9.9813
    10.2226  10.2921  10.3763  10.5062  10.7031  10.8163  11.0256  11.1035
    11.3643  11.3893  11.4937  11.5382  11.6194  11.7256  11.7283  11.7819
    11.8043  12.0800  12.1616  12.3526  12.3689  12.5578  12.5979  12.6784
    12.8115  12.8303  12.8530  12.9420  12.9866  13.0277  13.0709  13.1310
    13.1792  13.2458  13.3154  13.4455  13.5670  13.5948  13.6908  13.7277
    13.8025  13.8938  13.9299  13.9561  14.1153  14.2170  14.2727  14.3458
    14.4329  14.4801  14.6870  14.7219  14.7932  14.9733  15.0378  15.1000
    15.1658  15.1980  15.2762  15.3032  15.3728  15.4692  15.5551  15.5808
    15.6330  15.7315  15.7668  15.8560  16.0465  16.0830  16.1019  16.2556
    16.3285  16.3916  16.4738  16.5057  16.5316  16.6730  16.7258  16.7516
    16.8217  16.8899  16.9407  17.0147  17.0570  17.0917  17.1298  17.2647
    17.2659  17.3106  17.3667  17.4507  17.5544  17.5964  17.6448  17.6984
    17.7494  17.7845  17.8057  17.8680  18.0933  18.1152  18.2538  18.2801
    18.2884  18.3790  18.3920  18.4306  18.4694  18.5294  18.5855  18.5931
    18.6462  18.6838  18.7782  18.7931  18.8816  18.9802  19.0085  19.1079
    19.1951  19.3387  19.3872  19.5590  19.6929  19.7664  19.8270  19.8676
    19.9762  20.0564  20.1610  20.1917  20.2454  20.3401  20.4960  20.6745
    20.7555  20.8174  20.8537  20.8910  21.0071  21.0833  21.2121  21.2740
    21.3576  21.3862  21.5234  21.5598  21.6470  21.6980  21.8395  21.9048
    22.0776  22.1059  22.1357  22.2599  22.3214  22.3924  22.4129  22.5108
    22.5260  22.5861  22.6296  22.7157  22.7676  22.8115  22.8604  22.9601
    23.0074  23.0318  23.0730  23.1575  23.2059  23.2966  23.3149  23.3307
    23.3946  23.4315  23.4834  23.5767  23.5974  23.6041  23.6381

          k =-0.2500 0.1914 0.0000 ( 29229 PWs)   bands (ev):

   -80.5580 -80.4991 -80.2216 -80.0282 -80.0074 -79.9890 -79.7336 -79.6874
   -42.6349 -42.5794 -42.5465 -42.5091 -42.4586 -42.4386 -42.4099 -42.3591
   -42.2933 -42.1673 -42.0733 -42.0080 -41.9439 -41.9283 -41.8992 -41.8778
   -41.8594 -41.7611 -41.7519 -41.6862 -41.6159 -41.1694 -41.1398 -41.0495
   -22.4761 -20.3842 -20.1511 -20.0165 -19.7422 -19.6764 -19.6517 -19.4948
   -19.3906 -19.2840 -19.2092 -18.9193 -18.8850 -18.7601 -18.6999 -18.6321
   -18.4162 -17.9418 -17.7337 -16.3610  -9.4401  -9.1262  -9.0500  -8.9042
    -8.7608  -8.6612  -8.3738  -8.0745  -8.0195  -7.9035  -7.7192  -7.6816
    -7.5319  -7.2618  -6.9929  -6.8614  -6.7674  -6.5448  -6.4870  -6.4272
    -6.2551  -6.2142  -6.1247  -5.8068  -5.6732  -5.4902  -5.4608  -5.2977
    -5.2165  -5.1035  -5.0049  -4.8800  -4.7627  -4.7395  -4.6725  -4.6163
    -4.4712  -4.4168  -4.3543  -4.3060  -4.1802  -4.1148  -3.9685  -3.7848
    -3.6507  -3.5945  -3.5458  -3.4709  -3.4009  -3.2354  -3.0567  -2.9328
    -2.8672  -2.7739  -2.6178  -2.5753  -2.5054  -2.3268  -2.1162  -1.9939
    -1.8208  -1.5159  -1.1625  -1.0124  -0.8103  -0.7322  -0.3638  -0.2423
    -0.0638   0.1844   0.6015   1.2432   1.3369   1.4161   1.5599   1.7477
     1.9019   1.9501   2.0638   2.2410   2.3620   2.4903   2.6335   3.2948
     3.8826   3.9994   4.0924   4.2975   4.3748   4.5805   4.7276   4.7963
     4.9364   4.9678   5.1733   5.2791   5.3932   5.4490   5.5420   5.8453
     6.0998   6.2040   6.3438   6.5541   6.6729   6.7837   6.8268   7.0198
     7.0695   7.3203   7.4860   7.5559   7.6458   7.7889   8.0213   8.1331
     8.4221   8.5285   8.6179   8.7395   8.9227   8.9926   9.1068   9.1468
     9.3458   9.4162   9.5208   9.6303   9.8064   9.8268   9.8838   9.9884
    10.0672  10.1835  10.2334  10.3601  10.3938  10.5318  10.6846  10.7596
    10.8204  10.9448  11.0277  11.0559  11.1906  11.2343  11.5062  11.5471
    11.6170  11.7194  11.7833  11.8591  12.0272  12.1550  12.2681  12.3149
    12.4597  12.5749  12.6426  12.6932  12.7468  12.8484  12.9026  13.0243
    13.0801  13.2161  13.2795  13.3177  13.3895  13.5782  13.6641  13.7215
    13.7880  13.8895  13.9348  14.0401  14.0603  14.1345  14.2009  14.3205
    14.3380  14.4021  14.4404  14.5237  14.5407  14.6189  14.6491  14.7254
    14.8189  14.9266  14.9479  15.0359  15.0772  15.1565  15.2238  15.2884
    15.3790  15.4396  15.5021  15.5589  15.6164  15.7266  15.8351  15.9129
    16.0634  16.1024  16.1639  16.2969  16.3679  16.4236  16.4874  16.5526
    16.5977  16.7357  16.8216  16.8838  16.9123  16.9728  17.0438  17.1811
    17.2571  17.3033  17.3956  17.4586  17.5190  17.5896  17.6515  17.7353
    17.7762  17.8300  17.8935  18.0221  18.0670  18.1848  18.2780  18.3852
    18.4202  18.4868  18.5049  18.5891  18.7227  18.7660  18.7887  18.8938
    18.9308  19.0063  19.1155  19.1659  19.3313  19.3532  19.4025  19.5035
    19.6015  19.6573  19.7216  19.8002  19.8186  19.9988  20.0733  20.1121
    20.2772  20.3443  20.4273  20.4997  20.5321  20.5947  20.6790  20.7092
    20.7879  20.8429  20.9007  20.9316  20.9805  21.0521  21.1268  21.1910
    21.2268  21.3260  21.3711  21.4215  21.4793  21.5374  21.6944  21.7349
    21.7749  21.8401  21.9148  21.9336  21.9906  22.0707  22.1049  22.2134
    22.2498  22.3018  22.3674  22.4140  22.4648  22.5105  22.5621  22.6385
    22.6701  22.7217  22.7547  22.8079  22.8623  22.9688  23.0053  23.0436
    23.1157  23.1664  23.1868  23.2387  23.2926  23.3658  23.4038

     the Fermi energy is     0.4902 ev

!    total energy              =   -2203.58562154 Ry
     Harris-Foulkes estimate   =   -2203.58562178 Ry
     estimated scf accuracy    <       0.00000083 Ry

     The total energy is the sum of the following terms:

     one-electron contribution =  -24664.29656826 Ry
     hartree contribution      =   12358.24083219 Ry
     xc contribution           =    -602.39274816 Ry
     ewald contribution        =   10700.24923529 Ry
     Hubbard energy            =       4.61309513 Ry
     smearing contrib. (-TS)   =       0.00053228 Ry

     convergence has been achieved in  38 iterations

     Forces acting on atoms (Ry/au):


     negative rho (up, down):  0.235E+00 0.000E+00
     atom    1 type  1   force =    -0.00927086   -0.00449412    0.00919025
     atom    2 type  1   force =     0.00020128    0.00572136    0.01520827
     atom    3 type  2   force =     0.02823153    0.00624230   -0.00246144
     atom    4 type  2   force =    -0.00475550    0.00423881    0.01095592
     atom    5 type  1   force =     0.00119394    0.02476010   -0.00477969
     atom    6 type  1   force =     0.00115975   -0.02551079   -0.00758070
     atom    7 type  1   force =    -0.00389315    0.00239237    0.00127559
     atom    8 type  1   force =     0.01112600   -0.00516933    0.02170179
     atom    9 type  2   force =     0.00312119   -0.01447045    0.01901919
     atom   10 type  2   force =    -0.00050416   -0.00696002   -0.00374857
     atom   11 type  1   force =    -0.02320750    0.00715833   -0.01602139
     atom   12 type  1   force =     0.00012290    0.01854124    0.00013994
     atom   13 type  1   force =     0.01191175    0.00350708   -0.00216467
     atom   14 type  1   force =    -0.00691490   -0.00437015    0.00422563
     atom   15 type  1   force =    -0.00022538    0.00622979   -0.00445197
     atom   16 type  2   force =    -0.02655957   -0.00050084   -0.00204874
     atom   17 type  2   force =     0.00350531    0.00537947    0.00403550
     atom   18 type  1   force =     0.00050957    0.02428479   -0.00535537
     atom   19 type  1   force =     0.00020860   -0.02714686   -0.00739265
     atom   20 type  1   force =     0.00114232    0.00011217    0.00782939
     atom   21 type  1   force =    -0.00639077   -0.00598208    0.01556838
     atom   22 type  2   force =    -0.00474812    0.03156774   -0.00092412
     atom   23 type  2   force =     0.00911278    0.00174734    0.00389667
     atom   24 type  1   force =    -0.00810820   -0.04090552   -0.01100185
     atom   25 type  1   force =     0.02072238   -0.00880134   -0.00517388
     atom   26 type  1   force =    -0.01495170   -0.00011840   -0.01478452
     atom   27 type  3   force =     0.00010172   -0.00491921    0.00604899
     atom   28 type  3   force =     0.00017628   -0.00573669    0.00694391
     atom   29 type  3   force =     0.00915372    0.00142539   -0.01384678
     atom   30 type  3   force =     0.00438675    0.00092514   -0.01268354
     atom   31 type  1   force =    -0.04504690    0.03034239   -0.00775905
     atom   32 type  1   force =     0.06678190   -0.03898482    0.01810318
     atom   33 type  3   force =    -0.01829296    0.01949481   -0.02196367

     Total force =     0.116510     Total SCF correction =     0.003292


     entering subroutine stress ...


     negative rho (up, down):  0.235E+00 0.000E+00
          total   stress  (Ry/bohr**3)                   (kbar)     P=   -7.15
  -0.00000669  -0.00003518   0.00000634         -0.98     -5.17      0.93
  -0.00003518  -0.00005300   0.00000762         -5.17     -7.80      1.12
   0.00000634   0.00000762  -0.00008618          0.93      1.12    -12.68


     BFGS Geometry Optimization

     number of scf cycles    =   1
     number of bfgs steps    =   0

     energy   new            =   -2203.5856215364 Ry

     new trust radius        =       0.0794189137 bohr
     new conv_thr            =       0.0000010000 Ry


ATOMIC_POSITIONS (crystal)
O0       0.000000000   0.000000000   0.371430119    0   0   1
O0       0.000000000   0.500000000   0.381618065    0   0   1
Re1      0.250000000   0.500000000   0.441431758    0   0   1
Re1      0.000000000   0.000000000   0.443054724    0   0   1
O0       0.250000000   0.780000000   0.441366323    0   0   1
O0       0.250000000   0.220000000   0.441851427    0   0   1
O0       0.000000000   0.500000000   0.497315000    0   0   1
O0       0.000000000   0.000000000   0.512775331    0   0   1
Re1      0.250000000   0.000000000   0.575412755    0   0   1
Re1      0.000000000   0.500000000   0.567056532    0   0   1
O0       0.250000000   0.720000000   0.573615998    0   0   1
O0       0.250000000   0.280000000   0.568132743    0   0   1
O0       0.000000000   0.000000000   0.625457575    0   0   1
O0       0.500000000   0.000000000   0.371442818    0   0   1
O0       0.500000000   0.500000000   0.382002746    0   0   1
Re1      0.750000000   0.500000000   0.441309847    0   0   1
Re1      0.500000000   0.000000000   0.442959091    0   0   1
O0       0.750000000   0.780000000   0.441565041    0   0   1
O0       0.750000000   0.220000000   0.441895112    0   0   1
O0       0.500000000   0.500000000   0.496863447    0   0   1
O0       0.500000000   0.000000000   0.513115123    0   0   1
Re1      0.750000000   0.000000000   0.572651888    0   0   1
Re1      0.500000000   0.500000000   0.574456370    0   0   1
O0       0.750000000   0.720000000   0.572604376    0   0   1
O0       0.750000000   0.280000000   0.572038598    0   0   1
O0       0.500000000   0.000000000   0.625700240    0   0   1
H2      -0.000359958   0.619938143   0.362328554
H2       0.498787403   0.621916347   0.363906093
H2       0.172913720   0.022497749   0.358358618
H2       0.673193091   0.022429934   0.358631417
O0       0.430562651   0.495373669   0.643077931
O0       0.576143183   0.375653025   0.678194802
H2       0.503253989   0.406673669   0.711109536


     Check: negative starting charge=   -0.236733
     NEW-OLD atomic charge density approx. for the potential

     Check: negative/imaginary core charge=   -0.000003    0.000000
     Check: negative starting charge=   -0.236961

     negative rho (up, down):  0.235E+00 0.000E+00
 Atomic wfc used for LDA+U Projector are NOT orthogonalized

     total cpu time spent up to now is    11434.6 secs

     per-process dynamical memory:   407.7 Mb

     Self-consistent Calculation

     iteration #  1     ecut=    40.00 Ry     beta=0.70
     Davidson diagonalization with overlap
     ethr =  1.00E-06,  avg # of iterations =  5.4
 --- enter write_ns ---
 LDA+U parameters:
U( 2)     =  8.00000000
alpha( 2) =  0.00000000
[...]
    20.6935  20.7283  20.8207  20.8606  20.8952  20.9304  20.9854  21.0382
    21.1509  21.2180  21.2612  21.3222  21.3862  21.4110  21.4880  21.5389
    21.5914  21.7043  21.7374  21.7705  21.8484  21.8545  21.9056  21.9284
    21.9631  21.9761  22.0420  22.1289  22.2237  22.3108  22.3530  22.3822
    22.4380  22.4691  22.5627  22.6010  22.6651  22.7145  22.7778  22.8349
    22.9166  22.9338  23.0029  23.0789  23.1304  23.1645  23.2539

          k =-0.5000-0.3828 0.0000 ( 29192 PWs)   bands (ev):

   -80.7254 -80.6742 -80.4611 -80.3681 -80.1670 -80.1577 -80.0218 -79.9568
   -42.8002 -42.7214 -42.7196 -42.7189 -42.7120 -42.5835 -42.5151 -42.5135
   -42.4985 -42.4190 -42.3395 -42.3199 -42.2501 -42.1924 -42.1527 -42.1518
   -42.0920 -42.0451 -42.0030 -41.8437 -41.6434 -41.6274 -41.5815 -41.5504
   -21.5721 -20.2911 -20.2504 -19.9574 -19.8809 -19.7868 -19.6145 -19.5578
   -19.5317 -19.4991 -19.1568 -19.1305 -19.1137 -19.0934 -19.0818 -18.9715
   -18.8507 -18.3011 -18.1951 -16.9744  -8.6695  -8.5358  -8.3630  -8.2513
    -8.2053  -8.1358  -8.1170  -8.0205  -7.9391  -7.8795  -7.7905  -7.7088
    -7.6840  -7.6155  -7.5458  -7.3694  -7.2895  -6.8375  -6.6260  -6.5619
    -6.5578  -6.2643  -6.0793  -6.0411  -5.9941  -5.7788  -5.7449  -5.7251
    -5.6371  -5.5938  -5.3856  -5.2763  -5.2063  -4.9998  -4.9654  -4.8318
    -4.7296  -4.6823  -4.6134  -4.5842  -4.4084  -4.3789  -4.2111  -4.0878
    -3.9846  -3.9033  -3.8899  -3.8201  -3.8008  -3.3717  -3.2518  -3.1170
    -3.1025  -2.9826  -2.9518  -2.5866  -2.5043  -2.4700  -1.9905  -1.9337
    -1.8546  -1.5538  -1.4440  -1.3037  -0.9983  -0.9017  -0.7426  -0.6690
    -0.3647  -0.0380   0.0348   0.1731   0.3994   0.4902   0.6341   1.4561
     1.5511   1.7024   2.0029   2.0874   2.2764   2.3583   2.4055   2.5415
     2.9905   3.1716   3.2106   3.3421   3.5543   4.1501   4.3697   4.6802
     4.7312   5.1272   5.4537   5.6195   5.7796   5.9284   5.9872   6.1874
     6.2710   6.3550   6.4516   6.4966   6.6542   6.8059   6.8148   6.9253
     6.9634   7.0501   7.2230   7.2422   7.3173   7.5063   7.5663   7.6533
     7.7233   8.0514   8.1395   8.2147   8.3020   8.7079   8.7604   8.9036
     8.9794   9.0364   9.0781   9.1475   9.4738   9.7023   9.7864  10.0434
    10.1493  10.2147  10.2436  10.2815  10.6523  10.6701  10.9078  11.1807
    11.2464  11.3187  11.3523  11.4771  11.5514  11.5784  11.6477  11.6920
    11.7595  11.9813  12.1102  12.2008  12.3063  12.4799  12.6995  12.7194
    12.8165  12.8307  12.9621  13.0073  13.0422  13.1320  13.1556  13.1709
    13.2674  13.2927  13.3471  13.4419  13.5505  13.6163  13.6899  13.7722
    13.8948  13.9044  13.9568  14.0884  14.1285  14.1747  14.3145  14.3311
    14.4485  14.5034  14.7138  14.7606  14.8748  14.9042  14.9739  15.0199
    15.1376  15.1666  15.1781  15.2419  15.3761  15.4632  15.5745  15.6055
    15.6198  15.6876  15.8288  15.8597  15.9977  16.0607  16.1372  16.1898
    16.2567  16.3323  16.4264  16.4540  16.5241  16.6500  16.6910  16.7796
    16.8104  16.8481  16.8773  16.9469  16.9845  17.0715  17.1512  17.2756
    17.3366  17.3444  17.3509  17.4024  17.4818  17.5631  17.6514  17.7101
    17.7234  17.7974  17.8197  17.8794  18.0469  18.1123  18.2334  18.2837
    18.3087  18.3277  18.3382  18.4024  18.4380  18.4761  18.5599  18.5918
    18.6681  18.6995  18.7224  18.7639  18.7889  18.9072  18.9961  19.0182
    19.1431  19.2141  19.3871  19.5258  19.5558  19.6366  19.7738  19.8311
    19.8536  20.0701  20.1230  20.1345  20.2343  20.3151  20.4449  20.4750
    20.6603  20.7363  20.8258  20.8560  20.9952  21.0854  21.2286  21.2943
    21.3212  21.3583  21.4453  21.5532  21.6226  21.6658  21.9119  21.9195
    22.0350  22.0863  22.1358  22.1666  22.2723  22.3128  22.4023  22.4488
    22.4886  22.5367  22.6027  22.6216  22.6763  22.7848  22.8897  22.9003
    22.9863  23.0298  23.0635  23.1564  23.2261  23.2357  23.2703  23.3419
    23.3763  23.4792  23.5020  23.5552  23.6010  23.6586  23.7084

          k =-0.2500 0.1914 0.0000 ( 29229 PWs)   bands (ev):

   -80.7450 -80.6821 -80.4727 -80.3825 -80.1935 -80.1571 -80.0311 -79.9636
   -42.8068 -42.7688 -42.7181 -42.7070 -42.6807 -42.6491 -42.5865 -42.5469
   -42.5205 -42.4563 -42.3219 -42.2754 -42.2416 -42.1757 -42.1140 -42.1101
   -42.0390 -42.0387 -42.0219 -41.9785 -41.9159 -41.3983 -41.3664 -41.3006
   -21.5725 -20.5336 -20.2023 -20.1551 -19.8845 -19.8755 -19.7167 -19.6497
   -19.5650 -19.4817 -19.3750 -19.0760 -18.9887 -18.9780 -18.8592 -18.7850
   -18.6852 -18.2394 -18.0641 -16.9688  -9.5944  -9.1904  -9.0942  -9.0575
    -9.0150  -8.8174  -8.5154  -8.2462  -8.0714  -7.9598  -7.8779  -7.7860
    -7.6128  -7.3682  -7.1247  -7.0025  -6.8675  -6.7732  -6.7084  -6.5849
    -6.4981  -6.3582  -6.2764  -6.0332  -5.9139  -5.7252  -5.5419  -5.4962
    -5.3799  -5.2911  -5.2009  -5.0126  -4.9285  -4.8982  -4.8495  -4.7639
    -4.6895  -4.5812  -4.5174  -4.4414  -4.3018  -4.2238  -4.0886  -3.9539
    -3.7934  -3.7486  -3.6790  -3.6418  -3.5901  -3.3567  -3.2711  -3.1574
    -3.1009  -3.0182  -2.8078  -2.7242  -2.6742  -2.6049  -2.2761  -2.2038
    -2.1096  -1.7036  -1.5205  -1.3518  -1.2622  -0.9439  -0.7827  -0.4428
    -0.3492  -0.0007   0.3905   1.0871   1.1768   1.2368   1.4351   1.5101
     1.6040   1.7403   1.8956   2.1106   2.2991   2.3903   2.4891   2.9033
     3.1339   3.7338   3.8857   4.0622   4.1198   4.3405   4.4478   4.6020
     4.7086   4.7511   4.9984   5.0284   5.2103   5.3225   5.4233   5.8100
     5.9384   6.1077   6.2017   6.4879   6.5647   6.6736   6.8093   6.9025
     7.0566   7.2273   7.4055   7.5878   7.7138   7.8454   8.0446   8.0973
     8.3718   8.4713   8.6191   8.6625   8.8651   8.8834   9.1211   9.2152
     9.2539   9.4048   9.5351   9.5951   9.7534   9.8562   9.9613  10.0047
    10.0869  10.1446  10.2262  10.3247  10.3987  10.4900  10.5818  10.6785
    10.8045  10.9046  10.9444  11.0248  11.1225  11.2718  11.4331  11.4964
    11.5940  11.6785  11.7550  11.8667  11.9506  12.0748  12.1937  12.2765
    12.4421  12.5515  12.6240  12.6907  12.7621  12.8514  12.9247  13.0084
    13.0546  13.1397  13.2186  13.2736  13.4283  13.6062  13.6373  13.7206
    13.7831  13.8511  13.9134  13.9873  14.0253  14.0966  14.1399  14.2822
    14.3342  14.3771  14.4142  14.4961  14.5559  14.6268  14.6798  14.8328
    14.8865  14.9221  14.9812  15.0418  15.0580  15.1237  15.2053  15.2252
    15.3464  15.3913  15.4710  15.5113  15.6524  15.7286  15.7684  15.8723
    15.9962  16.1036  16.1999  16.2269  16.3191  16.4038  16.4835  16.5385
    16.5741  16.7094  16.7923  16.8282  16.9184  17.0389  17.1001  17.1506
    17.2289  17.3372  17.3814  17.4784  17.5286  17.5891  17.6431  17.7633
    17.8178  17.8812  17.9629  18.0354  18.1180  18.1573  18.2424  18.2923
    18.3732  18.4326  18.5230  18.5824  18.6536  18.6904  18.7920  18.8219
    18.8737  18.9811  19.0754  19.1853  19.2689  19.2878  19.3602  19.4639
    19.5549  19.6254  19.6837  19.7797  19.8495  19.9277  20.0179  20.1558
    20.2821  20.3181  20.4041  20.4794  20.5277  20.5909  20.6507  20.6937
    20.7947  20.8515  20.9334  20.9644  21.0090  21.0432  21.0921  21.1551
    21.1798  21.2817  21.3672  21.4000  21.4452  21.5374  21.5871  21.6970
    21.7690  21.8275  21.8755  21.9384  22.0100  22.0567  22.1421  22.1652
    22.2720  22.3134  22.3438  22.4198  22.4560  22.4829  22.6071  22.6456
    22.6738  22.6998  22.7685  22.8310  22.9060  22.9656  22.9993  23.0704
    23.1338  23.1758  23.2027  23.2702  23.2975  23.3517  23.4223

     the Fermi energy is     0.2491 ev

!    total energy              =   -2203.63822895 Ry
     Harris-Foulkes estimate   =   -2203.63822901 Ry
     estimated scf accuracy    <       0.00000015 Ry

     The total energy is the sum of the following terms:

     one-electron contribution =  -24747.43891328 Ry
     hartree contribution      =   12398.03745673 Ry
     xc contribution           =    -602.25818209 Ry
     ewald contribution        =   10743.41638775 Ry
     Hubbard energy            =       4.60446292 Ry
     smearing contrib. (-TS)   =       0.00055901 Ry

     convergence has been achieved in  25 iterations

     Forces acting on atoms (Ry/au):


     negative rho (up, down):  0.236E+00 0.000E+00
     atom    1 type  1   force =    -0.00431578   -0.00482438    0.00712346
     atom    2 type  1   force =    -0.00132389    0.00670222    0.01549140
     atom    3 type  2   force =     0.02749559    0.00405680   -0.00131334
     atom    4 type  2   force =     0.00253262    0.00493771    0.00186958
     atom    5 type  1   force =     0.00125718    0.02243371   -0.00303100
     atom    6 type  1   force =     0.00073306   -0.02442141   -0.00171125
     atom    7 type  1   force =     0.01177317   -0.00800192    0.00217585
     atom    8 type  1   force =     0.01721164    0.00427235   -0.00012987
     atom    9 type  2   force =    -0.00982043    0.00288339   -0.00071120
     atom   10 type  2   force =    -0.04096642    0.00378239    0.00620468
     atom   11 type  1   force =     0.00004343   -0.00105657    0.01274179
     atom   12 type  1   force =    -0.01074313   -0.00447977   -0.00537889
     atom   13 type  1   force =     0.01364728   -0.00411837   -0.00665077
     atom   14 type  1   force =    -0.00326961   -0.00473640    0.00266484
     atom   15 type  1   force =     0.00109181   -0.00517999   -0.00478655
     atom   16 type  2   force =    -0.02922763    0.00517034   -0.00127372
     atom   17 type  2   force =     0.00157435    0.00560134    0.00049879
     atom   18 type  1   force =     0.00128660    0.02388145   -0.00304933
     atom   19 type  1   force =     0.00045816   -0.02478420   -0.00102765
     atom   20 type  1   force =    -0.00608326   -0.00767815   -0.00561943
     atom   21 type  1   force =    -0.00903679    0.00376548    0.00570629
     atom   22 type  2   force =     0.00137502   -0.01229056   -0.00015533
     atom   23 type  2   force =     0.01858292    0.00491035   -0.01043172
     atom   24 type  1   force =     0.00529246   -0.00562807    0.00926879
     atom   25 type  1   force =     0.00202536    0.02291678   -0.00470708
     atom   26 type  1   force =    -0.01365031   -0.00323436    0.00100065
     atom   27 type  3   force =     0.00010284   -0.00582218    0.00848319
     atom   28 type  3   force =     0.00002181    0.00386117    0.00320728
     atom   29 type  3   force =    -0.00088476   -0.00004012    0.00254794
     atom   30 type  3   force =     0.00036256   -0.00016856    0.00205067
     atom   31 type  1   force =     0.00852659    0.00929042   -0.02172982
     atom   32 type  1   force =     0.01040405   -0.00406177   -0.01682092
     atom   33 type  3   force =     0.00352351   -0.00793912    0.00749268

     Total force =     0.047168     Total SCF correction =     0.001074


     entering subroutine stress ...


     negative rho (up, down):  0.236E+00 0.000E+00
          total   stress  (Ry/bohr**3)                   (kbar)     P=  -10.38
  -0.00002825   0.00000812   0.00001611         -4.16      1.20      2.37
   0.00000812  -0.00006981  -0.00000313          1.20    -10.27     -0.46
   0.00001611  -0.00000313  -0.00011371          2.37     -0.46    -16.73


     number of scf cycles    =  27
     number of bfgs steps    =  25

     energy   old            =   -2203.6339958950 Ry
     energy   new            =   -2203.6382289495 Ry

     CASE: energy  _new < energy  _old

     new trust radius        =       0.8000000000 bohr
     new conv_thr            =       0.0000002173 Ry


ATOMIC_POSITIONS (crystal)
O0       0.000000000   0.000000000   0.371987328    0   0   1
O0       0.000000000   0.500000000   0.383078015    0   0   1
Re1      0.250000000   0.500000000   0.443805067    0   0   1
Re1      0.000000000   0.000000000   0.443910025    0   0   1
O0       0.250000000   0.780000000   0.443112212    0   0   1
O0       0.250000000   0.220000000   0.442830129    0   0   1
O0       0.000000000   0.500000000   0.499623333    0   0   1
O0       0.000000000   0.000000000   0.514227253    0   0   1
Re1      0.250000000   0.000000000   0.578971562    0   0   1
Re1      0.000000000   0.500000000   0.570156730    0   0   1
O0       0.250000000   0.720000000   0.570487202    0   0   1
O0       0.250000000   0.280000000   0.575948638    0   0   1
O0       0.000000000   0.000000000   0.627920748    0   0   1
O0       0.500000000   0.000000000   0.372433914    0   0   1
O0       0.500000000   0.500000000   0.385193691    0   0   1
Re1      0.750000000   0.500000000   0.443849102    0   0   1
Re1      0.500000000   0.000000000   0.443934464    0   0   1
O0       0.750000000   0.780000000   0.443289128    0   0   1
O0       0.750000000   0.220000000   0.442820214    0   0   1
O0       0.500000000   0.500000000   0.499787874    0   0   1
O0       0.500000000   0.000000000   0.513609211    0   0   1
Re1      0.750000000   0.000000000   0.572521070    0   0   1
Re1      0.500000000   0.500000000   0.577473515    0   0   1
O0       0.750000000   0.720000000   0.569676278    0   0   1
O0       0.750000000   0.280000000   0.574403120    0   0   1
O0       0.500000000   0.000000000   0.627731560    0   0   1
H2      -0.000961292   0.619221908   0.363354027
H2       0.499643795   0.614959498   0.364203004
H2       0.167746025   0.019920787   0.356529065
H2       0.666479210   0.020775219   0.356573841
O0       0.514721464   0.502610294   0.646751094
O0       0.794951787   0.557149907   0.663181329
H2       0.840091385   0.431858587   0.681356259


     Check: negative starting charge=   -0.237044
     NEW-OLD atomic charge density approx. for the potential

     Check: negative/imaginary core charge=   -0.000003    0.000000
     Check: negative starting charge=   -0.237111

     negative rho (up, down):  0.264E+00 0.000E+00
 Atomic wfc used for LDA+U Projector are NOT orthogonalized

     total cpu time spent up to now is   171732.2 secs

     per-process dynamical memory:   407.7 Mb

     Self-consistent Calculation

     iteration #  1     ecut=    40.00 Ry     beta=0.70
     Davidson diagonalization with overlap
     ethr =  1.00E-06,  avg # of iterations =  7.1
 --- enter write_ns ---
 LDA+U parameters:
U( 2)     =  8.00000000
alpha( 2) =  0.00000000
atom    3   Tr[ns(na)] =   6.49661
    eigenvalues: 
  0.367  0.550  0.581  0.800  0.950
    eigenvectors:
  0.007  0.004  0.244  0.745  0.000
  0.000  0.986  0.013  0.000  0.001
  0.983  0.000  0.001  0.006  0.010
  0.000  0.009  0.742  0.249  0.000
  0.010  0.001  0.000  0.000  0.989
    occupations:
  0.743 -0.004  0.033 -0.094 -0.003
 -0.004  0.551 -0.003 -0.002 -0.011
  0.033 -0.003  0.376 -0.013  0.058
 -0.094 -0.002 -0.013  0.635  0.001
 -0.003 -0.011  0.058  0.001  0.944
atom    4   Tr[ns(na)] =   6.58241
    eigenvalues: 
  0.480  0.584  0.624  0.795  0.808
    eigenvectors:
  0.000  0.000  0.998  0.000  0.001
  0.000  0.000  0.000  0.998  0.002
  1.000  0.000  0.000  0.000  0.000
  0.000  0.000  0.001  0.002  0.997
  0.000  1.000  0.000  0.000  0.000
    occupations:
  0.624  0.003  0.001 -0.006  0.000
  0.003  0.795  0.006 -0.000 -0.001
  0.001  0.006  0.480  0.001  0.000
 -0.006 -0.000  0.001  0.808 -0.000
  0.000 -0.001  0.000 -0.000  0.584
atom    9   Tr[ns(na)] =   6.58365
    eigenvalues: 
  0.503  0.594  0.627  0.692  0.876
    eigenvectors:
  0.000  0.093  0.000  0.906  0.000
  0.000  0.000  1.000  0.000  0.000
  0.999  0.001  0.000  0.000  0.001
  0.001  0.906  0.000  0.093  0.000
  0.001  0.000  0.000  0.000  0.999
    occupations:
  0.683 -0.001  0.001 -0.029  0.003
 -0.001  0.627  0.000  0.000 -0.000
  0.001  0.000  0.503  0.002 -0.009
 -0.029  0.000  0.002  0.603 -0.003
  0.003 -0.000 -0.009 -0.003  0.876
atom   10   Tr[ns(na)] =   6.40988
    eigenvalues: 
  0.341  0.505  0.572  0.815  0.972
    eigenvectors:
  0.001  0.991  0.000  0.005  0.004
  0.000  0.004  0.001  0.000  0.995
  0.999  0.000  0.000  0.001  0.000
  0.001  0.005  0.000  0.994  0.000
  0.000  0.000  0.999  0.000  0.001
    occupations:
  0.508 -0.029 -0.004  0.021  0.001
 -0.029  0.969 -0.001  0.002 -0.014
 -0.004 -0.001  0.342 -0.013 -0.002
  0.021  0.002 -0.013  0.813  0.001
  0.001 -0.014 -0.002  0.001  0.572
atom   16   Tr[ns(na)] =   6.49744
    eigenvalues: 
  0.375  0.544  0.580  0.799  0.951
    eigenvectors:
  0.006  0.004  0.250  0.740  0.000
  0.000  0.987  0.012  0.000  0.001
  0.982  0.000  0.001  0.006  0.012
  0.000  0.008  0.738  0.254  0.000
  0.011  0.001  0.000  0.000  0.988
    occupations:
  0.741  0.004  0.031 -0.095  0.003
  0.004  0.545  0.002  0.002 -0.011
  0.031  0.002  0.384 -0.013 -0.061
 -0.095  0.002 -0.013  0.635 -0.001
  0.003 -0.011 -0.061 -0.001  0.944
atom   17   Tr[ns(na)] =   6.59343
    eigenvalues: 
  0.502  0.585  0.629  0.766  0.813
    eigenvectors:
  0.000  0.000  0.997  0.000  0.002
  0.001  0.000  0.000  0.998  0.000
  0.999  0.000  0.000  0.001  0.000
  0.000  0.000  0.002  0.000  0.998
  0.000  1.000  0.000  0.000  0.000
    occupations:
  0.630  0.003  0.001 -0.009  0.001
  0.003  0.766  0.009 -0.001 -0.001
  0.001  0.009  0.503  0.001  0.000
 -0.009 -0.001  0.001  0.813 -0.000
  0.001 -0.001  0.000 -0.000  0.585
atom   22   Tr[ns(na)] =   6.60659
    eigenvalues: 
  0.421  0.573  0.586  0.833  0.892
    eigenvectors:
  0.000  0.002  0.225  0.772  0.001
  0.000  0.994  0.006  0.000  0.000
  0.999  0.000  0.000  0.000  0.001
  0.000  0.004  0.769  0.227  0.000
  0.001  0.000  0.000  0.001  0.998
    occupations:
  0.777  0.002  0.001 -0.104  0.001
  0.002  0.573  0.001 -0.000 -0.001
  0.001  0.001  0.421  0.002  0.014
 -0.104 -0.000  0.002  0.642 -0.002
  0.001 -0.001  0.014 -0.002  0.891
atom   23   Tr[ns(na)] =   6.51388
    eigenvalues: 
  0.391  0.558  0.586  0.790  0.932
    eigenvectors:
  0.000  0.009  0.982  0.001  0.007
  0.015  0.002  0.007  0.000  0.977
  0.985  0.000  0.000  0.000  0.015
  0.000  0.000  0.001  0.998  0.000
  0.000  0.989  0.010  0.000  0.001
    occupations:
  0.589  0.029  0.004  0.007  0.002
  0.029  0.921  0.065 -0.002 -0.013
  0.004  0.065  0.399 -0.009 -0.001
  0.007 -0.002 -0.009  0.789 -0.001
  0.002 -0.013 -0.001 -0.001  0.558
N of occupied +U levels =  52.2838846
 --- exit write_ns ---

     negative rho (up, down):  0.238E+00 0.000E+00

     total cpu time spent up to now is   172190.7 secs

     total energy              =   -2203.61442319 Ry
     Harris-Foulkes estimate   =   -2203.64451367 Ry
     estimated scf accuracy    <       0.07651481 Ry

     iteration #  2     ecut=    40.00 Ry     beta=0.70
     Davidson diagonalization with overlap
     ethr =  3.12E-05,  avg # of iterations =  4.4

     negative rho (up, down):  0.239E+00 0.000E+00

     total cpu time spent up to now is   172481.3 secs

     total energy              =   -2203.50439190 Ry
     Harris-Foulkes estimate   =   -2203.70182467 Ry
     estimated scf accuracy    <       1.35531063 Ry

     iteration #  3     ecut=    40.00 Ry     beta=0.70
     Davidson diagonalization with overlap
     ethr =  3.12E-05,  avg # of iterations =  5.1

     negative rho (up, down):  0.238E+00 0.000E+00

     total cpu time spent up to now is   172773.8 secs

     total energy              =   -2203.58024242 Ry
     Harris-Foulkes estimate   =   -2203.68407690 Ry
     estimated scf accuracy    <       0.93228022 Ry

     iteration #  4     ecut=    40.00 Ry     beta=0.70
     Davidson diagonalization with overlap
=>> PBS: job killed: walltime 172816 exceeded limit 172800
mpirun: killing job...

---------------------------------------
Running PBS batch system epilogue script
Job id: 381427.audhumbla.fysik.dtu.dk
Username: zhonxu
Groupname: campgst
Jobname: ReO2/Eads-2-layers/OOH-U-8.0
Sessionid: 8478
Resources limits: neednodes=2:ppn=8:xeon8,nodes=2:ppn=8:xeon8,walltime=48:00:00
Resources used: cput=767:35:07,mem=18012408kb,vmem=21720340kb,walltime=48:00:17
Queuename: verylong
Accounting:
This job has allocated the following 16 nodes:
d041 d041 d041 d041 d041 d041 d041 d041 d030 d030 d030 d030 d030 d030 d030 d030
Finished epilogue job 381427.audhumbla.fysik.dtu.dk for zhonxu
