
     Program PWSCF v.5.0.2 (svn rev. 9656) starts on 10Feb2014 at 23:22:16 

     This program is part of the open-source Quantum ESPRESSO suite
     for quantum simulation of materials; please cite
         "P. Giannozzi et al., J. Phys.:Condens. Matter 21 395502 (2009);
          URL http://www.quantum-espresso.org", 
     in publications or presentations arising from this work. More details at
     http://www.quantum-espresso.org/quote.php

     Parallel version (MPI), running on    16 processors
     R & G space division:  proc/nbgrp/npool/nimage =      16

     Current dimensions of program PWSCF are:
     Max number of different atomic species (ntypx) = 10
     Max number of k-points (npk) =  40000
     Max angular momentum in pseudopotentials (lmaxx) =  3
     Reading input from alpha_0/alpha_0.in
Warning: card &IONS ignored
Warning: card / ignored
Warning: card &CELL ignored
Warning: card / ignored

     Subspace diagonalization in iterative solution of the eigenvalue problem:
     a serial algorithm will be used


     Parallelization info
     --------------------
     sticks:   dense  smooth     PW     G-vecs:    dense   smooth      PW
     Min         870     279     77                42600     7699    1147
     Max         871     280     78                42601     7714    1150
     Sum       13925    4469   1245               681605   123309   18371



     bravais-lattice index     =            0
     lattice parameter (alat)  =      18.7083  a.u.
     unit-cell volume          =    3611.2673 (a.u.)^3
     number of atoms/cell      =           48
     number of atomic types    =            3
     number of electrons       =       416.00
     number of Kohn-Sham states=          624
     kinetic-energy cutoff     =      40.0000  Ry
     charge density cutoff     =     500.0000  Ry
     convergence threshold     =      1.0E-06
     mixing beta               =       0.7000
     number of iterations used =            8  plain     mixing
     Exchange-correlation      = SLA  PW   PBE  PBE ( 1 4 3 4 0)
     EXX-fraction              =        0.00

     celldm(1)=  18.708289  celldm(2)=   0.000000  celldm(3)=   0.000000
     celldm(4)=   0.000000  celldm(5)=   0.000000  celldm(6)=   0.000000

     crystal axes: (cart. coord. in units of alat)
               a(1) = (   1.000000   0.000000   0.000000 )  
               a(2) = (   0.000000   1.000000   0.000000 )  
               a(3) = (   0.000000   0.000000   0.551515 )  

     reciprocal axes: (cart. coord. in units 2 pi/alat)
               b(1) = (  1.000000  0.000000  0.000000 )  
               b(2) = (  0.000000  1.000000  0.000000 )  
               b(3) = (  0.000000  0.000000  1.813187 )  


     PseudoPot. # 1 for Mo read from file:
     /home/camp/zhonxu/pseudo/mo_pbe_v1.uspp.F.UPF
     MD5 check sum: 30c4dcd161f5d35cd49bb5239c51a633
     Pseudo is Ultrasoft + core correction, Zval = 14.0
     Generated by new atomic code, or converted to UPF format
     Using radial grid of  889 points,  6 beta functions with: 
                l(1) =   0
                l(2) =   0
                l(3) =   1
                l(4) =   1
                l(5) =   2
                l(6) =   2
     Q(r) pseudized with  6 coefficients,  rinner =    1.000   1.000   1.000
                                                       1.000   1.000

     PseudoPot. # 2 for O  read from file:
     /home/camp/zhonxu/pseudo/o_pbe_v1.01.uspp.F.UPF
     MD5 check sum: 2bcb18d16ea4b960afae9ec6d52f22d2
     Pseudo is Ultrasoft + core correction, Zval =  6.0
     Generated by new atomic code, or converted to UPF format
     Using radial grid of  737 points,  5 beta functions with: 
                l(1) =   0
                l(2) =   0
                l(3) =   1
                l(4) =   1
                l(5) =   2
     Q(r) pseudized with  8 coefficients,  rinner =    0.900   0.900   0.900
                                                       0.900   0.900

     PseudoPot. # 3 for O  read from file:
     /home/camp/zhonxu/pseudo/o_pbe_v1.01.uspp.F.UPF
     MD5 check sum: 2bcb18d16ea4b960afae9ec6d52f22d2
     Pseudo is Ultrasoft + core correction, Zval =  6.0
     Generated by new atomic code, or converted to UPF format
     Using radial grid of  737 points,  5 beta functions with: 
                l(1) =   0
                l(2) =   0
                l(3) =   1
                l(4) =   1
                l(5) =   2
     Q(r) pseudized with  8 coefficients,  rinner =    0.900   0.900   0.900
                                                       0.900   0.900

     atomic species   valence    mass     pseudopotential
        Mo0           14.00    95.94000     Mo( 1.00)
        O1             6.00    15.99940     O ( 1.00)
        O2             6.00    15.99940     O ( 1.00)

     Starting magnetic structure 
     atomic species   magnetization
        Mo0          0.000
        O1           0.000
        O2           0.000


     Simplified LDA+U calculation (l_max = 2) with parameters (eV):
     atomic species    L          U    alpha       J0     beta
        Mo0            2     0.0000   0.0000   0.0000   0.0000
        O1             1     0.0000   0.0000   0.0000   0.0000
        O2             1     0.0000   0.0000   0.0000   0.0000



      4 Sym. Ops. (no inversion) found



   Cartesian axes

     site n.     atom                  positions (alat units)
         1           Mo0 tau(   1) = (  -0.1400000  -0.1400000   0.0000000  )
         2           Mo0 tau(   2) = (   0.1100000   0.1100000   0.1378788  )
         3           Mo0 tau(   3) = (  -0.1400000  -0.1400000   0.2757576  )
         4           Mo0 tau(   4) = (   0.1100000   0.1100000   0.4136364  )
         5           Mo0 tau(   5) = (  -0.1400000   0.3600000   0.0000000  )
         6           Mo0 tau(   6) = (   0.1100000   0.6100000   0.1378788  )
         7           Mo0 tau(   7) = (  -0.1400000   0.3600000   0.2757576  )
         8           Mo0 tau(   8) = (   0.1100000   0.6100000   0.4136364  )
         9           Mo0 tau(   9) = (   0.3600000  -0.1400000   0.0000000  )
        10           Mo0 tau(  10) = (   0.6100000   0.1100000   0.1378788  )
        11           Mo0 tau(  11) = (   0.3600000  -0.1400000   0.2757576  )
        12           Mo0 tau(  12) = (   0.6100000   0.1100000   0.4136364  )
        13           Mo0 tau(  13) = (   0.3600000   0.3600000   0.0000000  )
        14           Mo0 tau(  14) = (   0.6100000   0.6100000   0.1378788  )
        15           Mo0 tau(  15) = (   0.3600000   0.3600000   0.2757576  )
        16           Mo0 tau(  16) = (   0.6100000   0.6100000   0.4136364  )
        17           O1  tau(  17) = (   0.0000000   0.0000000   0.0000000  )
        18           O2  tau(  18) = (  -0.2800000  -0.2800000   0.0000000  )
        19           O2  tau(  19) = (   0.2500000  -0.0300000   0.1378788  )
        20           O2  tau(  20) = (  -0.0300000   0.2500000   0.1378788  )
        21           O2  tau(  21) = (   0.0000000   0.0000000   0.2757576  )
        22           O2  tau(  22) = (  -0.2800000  -0.2800000   0.2757576  )
        23           O2  tau(  23) = (   0.2500000  -0.0300000   0.4136364  )
        24           O2  tau(  24) = (  -0.0300000   0.2500000   0.4136364  )
        25           O2  tau(  25) = (   0.0000000   0.5000000   0.0000000  )
        26           O2  tau(  26) = (  -0.2800000   0.2200000   0.0000000  )
        27           O2  tau(  27) = (   0.2500000   0.4700000   0.1378788  )
        28           O2  tau(  28) = (  -0.0300000   0.7500000   0.1378788  )
        29           O2  tau(  29) = (   0.0000000   0.5000000   0.2757576  )
        30           O2  tau(  30) = (  -0.2800000   0.2200000   0.2757576  )
        31           O2  tau(  31) = (   0.2500000   0.4700000   0.4136364  )
        32           O2  tau(  32) = (  -0.0300000   0.7500000   0.4136364  )
        33           O2  tau(  33) = (   0.5000000   0.0000000   0.0000000  )
        34           O2  tau(  34) = (   0.2200000  -0.2800000   0.0000000  )
        35           O2  tau(  35) = (   0.7500000  -0.0300000   0.1378788  )
        36           O2  tau(  36) = (   0.4700000   0.2500000   0.1378788  )
        37           O2  tau(  37) = (   0.5000000   0.0000000   0.2757576  )
        38           O2  tau(  38) = (   0.2200000  -0.2800000   0.2757576  )
        39           O2  tau(  39) = (   0.7500000  -0.0300000   0.4136364  )
        40           O2  tau(  40) = (   0.4700000   0.2500000   0.4136364  )
        41           O2  tau(  41) = (   0.5000000   0.5000000   0.0000000  )
        42           O2  tau(  42) = (   0.2200000   0.2200000   0.0000000  )
        43           O2  tau(  43) = (   0.7500000   0.4700000   0.1378788  )
        44           O2  tau(  44) = (   0.4700000   0.7500000   0.1378788  )
        45           O2  tau(  45) = (   0.5000000   0.5000000   0.2757576  )
        46           O2  tau(  46) = (   0.2200000   0.2200000   0.2757576  )
        47           O2  tau(  47) = (   0.7500000   0.4700000   0.4136364  )
        48           O2  tau(  48) = (   0.4700000   0.7500000   0.4136364  )

     number of k points=    42  Methfessel-Paxton smearing, width (Ry)=  0.0100
                       cart. coord. in units 2pi/alat
        k(    1) = (   0.0000000   0.0000000   0.0000000), wk =   0.0156250
        k(    2) = (   0.0000000   0.0000000   0.4532967), wk =   0.0312500
        k(    3) = (   0.0000000   0.0000000  -0.9065934), wk =   0.0156250
        k(    4) = (   0.0000000   0.2500000   0.0000000), wk =   0.0625000
        k(    5) = (   0.0000000   0.2500000   0.4532967), wk =   0.1250000
        k(    6) = (   0.0000000   0.2500000  -0.9065934), wk =   0.0625000
        k(    7) = (   0.0000000  -0.5000000   0.0000000), wk =   0.0312500
        k(    8) = (   0.0000000  -0.5000000   0.4532967), wk =   0.0625000
        k(    9) = (   0.0000000  -0.5000000  -0.9065934), wk =   0.0312500
        k(   10) = (   0.2500000   0.2500000   0.0000000), wk =   0.0312500
        k(   11) = (   0.2500000   0.2500000   0.4532967), wk =   0.0625000
        k(   12) = (   0.2500000   0.2500000  -0.9065934), wk =   0.0312500
        k(   13) = (   0.2500000  -0.5000000   0.0000000), wk =   0.0625000
        k(   14) = (   0.2500000  -0.5000000   0.4532967), wk =   0.1250000
        k(   15) = (   0.2500000  -0.5000000  -0.9065934), wk =   0.0625000
        k(   16) = (  -0.5000000  -0.5000000   0.0000000), wk =   0.0156250
        k(   17) = (  -0.5000000  -0.5000000   0.4532967), wk =   0.0312500
        k(   18) = (  -0.5000000  -0.5000000  -0.9065934), wk =   0.0156250
        k(   19) = (   0.2500000  -0.2500000   0.0000000), wk =   0.0312500
        k(   20) = (   0.2500000  -0.2500000   0.4532967), wk =   0.0625000
        k(   21) = (   0.2500000  -0.2500000  -0.9065934), wk =   0.0312500
        k(   22) = (   0.0000000   0.0000000   0.0000000), wk =   0.0156250
        k(   23) = (   0.0000000   0.0000000   0.4532967), wk =   0.0312500
        k(   24) = (   0.0000000   0.0000000  -0.9065934), wk =   0.0156250
        k(   25) = (   0.0000000   0.2500000   0.0000000), wk =   0.0625000
        k(   26) = (   0.0000000   0.2500000   0.4532967), wk =   0.1250000
        k(   27) = (   0.0000000   0.2500000  -0.9065934), wk =   0.0625000
        k(   28) = (   0.0000000  -0.5000000   0.0000000), wk =   0.0312500
        k(   29) = (   0.0000000  -0.5000000   0.4532967), wk =   0.0625000
        k(   30) = (   0.0000000  -0.5000000  -0.9065934), wk =   0.0312500
        k(   31) = (   0.2500000   0.2500000   0.0000000), wk =   0.0312500
        k(   32) = (   0.2500000   0.2500000   0.4532967), wk =   0.0625000
        k(   33) = (   0.2500000   0.2500000  -0.9065934), wk =   0.0312500
        k(   34) = (   0.2500000  -0.5000000   0.0000000), wk =   0.0625000
        k(   35) = (   0.2500000  -0.5000000   0.4532967), wk =   0.1250000
        k(   36) = (   0.2500000  -0.5000000  -0.9065934), wk =   0.0625000
        k(   37) = (  -0.5000000  -0.5000000   0.0000000), wk =   0.0156250
        k(   38) = (  -0.5000000  -0.5000000   0.4532967), wk =   0.0312500
        k(   39) = (  -0.5000000  -0.5000000  -0.9065934), wk =   0.0156250
        k(   40) = (   0.2500000  -0.2500000   0.0000000), wk =   0.0312500
        k(   41) = (   0.2500000  -0.2500000   0.4532967), wk =   0.0625000
        k(   42) = (   0.2500000  -0.2500000  -0.9065934), wk =   0.0312500

     Dense  grid:   681605 G-vectors     FFT dimensions: ( 135, 135,  75)

     Smooth grid:   123309 G-vectors     FFT dimensions: (  75,  75,  45)

     Largest allocated arrays     est. size (Mb)     dimensions
        Kohn-Sham Wavefunctions         9.29 Mb     (    976,  624)
        Atomic wavefunctions            5.00 Mb     (    976,  336)
        NL pseudopotentials            10.48 Mb     (    976,  704)
        Each V/rho on FFT grid          2.78 Mb     (  91125,   2)
        Each G-vector array             0.33 Mb     (  42601)
        G-vector shells                 0.12 Mb     (  15656)
     Largest temporary arrays     est. size (Mb)     dimensions
        Auxiliary wavefunctions        37.17 Mb     (    976, 2496)
        Each subspace H/S matrix       95.06 Mb     (2496,2496)
        Each <psi_i|beta_j> matrix      6.70 Mb     (    704,  624)
        Arrays for rho mixing          11.12 Mb     (  91125,   8)

     Check: negative/imaginary core charge=   -0.000007    0.000000

     The initial density is read from file :
     alpha_0/pwscf.save/charge-density.dat

     Number of +U iterations with fixed ns =  0
     Starting occupations:
 --- enter write_ns ---
 LDA+U parameters:
U( 1)     =  0.00000000
alpha( 1) =  0.00000000
U( 2)     =  0.00000000
alpha( 2) =  0.00000000
U( 3)     =  0.00000000
alpha( 3) =  0.00000000
atom    1   Tr[ns(na)] (up, down, total) =   2.90963  2.90963  5.81926
   spin  1
    eigenvalues: 
  0.525  0.526  0.569  0.579  0.710
    eigenvectors:
  0.000  0.000  0.186  0.000  0.814
  0.500  0.000  0.000  0.500  0.000
  0.500  0.000  0.000  0.500  0.000
  0.000  1.000  0.000  0.000  0.000
  0.000  0.000  0.814  0.000  0.186
    occupations:
  0.684 -0.000 -0.000 -0.000  0.055
 -0.000  0.552  0.027  0.000  0.000
 -0.000  0.027  0.552  0.000  0.000
 -0.000  0.000  0.000  0.526 -0.000
  0.055  0.000  0.000 -0.000  0.596
   spin  2
    eigenvalues: 
  0.525  0.526  0.569  0.579  0.710
    eigenvectors:
  0.000  0.000  0.186  0.000  0.814
  0.500  0.000  0.000  0.500  0.000
  0.500  0.000  0.000  0.500  0.000
  0.000  1.000  0.000  0.000  0.000
  0.000  0.000  0.814  0.000  0.186
    occupations:
  0.684 -0.000 -0.000 -0.000  0.055
 -0.000  0.552  0.027  0.000  0.000
 -0.000  0.027  0.552  0.000  0.000
 -0.000  0.000  0.000  0.526 -0.000
  0.055  0.000  0.000 -0.000  0.596
atomic mag. moment =    -0.000002
atom    2   Tr[ns(na)] (up, down, total) =   2.90956  2.90956  5.81912
   spin  1
    eigenvalues: 
  0.525  0.526  0.569  0.579  0.710
    eigenvectors:
  0.000  0.000  0.186  0.000  0.814
  0.500  0.000  0.000  0.500  0.000
  0.500  0.000  0.000  0.500  0.000
  0.000  1.000  0.000  0.000  0.000
  0.000  0.000  0.814  0.000  0.186
    occupations:
  0.684 -0.000 -0.000 -0.000 -0.055
 -0.000  0.552 -0.027  0.000  0.000
 -0.000 -0.027  0.552 -0.000  0.000
 -0.000  0.000 -0.000  0.526 -0.000
 -0.055  0.000  0.000 -0.000  0.595
   spin  2
    eigenvalues: 
  0.525  0.526  0.569  0.579  0.710
    eigenvectors:
  0.000  0.000  0.186  0.000  0.814
  0.500  0.000  0.000  0.500  0.000
  0.500  0.000  0.000  0.500  0.000
  0.000  1.000  0.000  0.000  0.000
  0.000  0.000  0.814  0.000  0.186
    occupations:
  0.684 -0.000 -0.000 -0.000 -0.055
 -0.000  0.552 -0.027  0.000  0.000
 -0.000 -0.027  0.552 -0.000  0.000
 -0.000  0.000 -0.000  0.526 -0.000
 -0.055  0.000  0.000 -0.000  0.595
atomic mag. moment =     0.000000
atom    3   Tr[ns(na)] (up, down, total) =   2.90949  2.90949  5.81898
   spin  1
    eigenvalues: 
  0.525  0.526  0.569  0.578  0.710
    eigenvectors:
  0.000  0.000  0.187  0.000  0.813
  0.500  0.000  0.000  0.500  0.000
  0.500  0.000  0.000  0.500  0.000
  0.000  1.000  0.000  0.000  0.000
  0.000  0.000  0.813  0.000  0.187
    occupations:
  0.684 -0.000 -0.000 -0.000  0.055
 -0.000  0.552  0.027  0.000  0.000
 -0.000  0.027  0.552  0.000  0.000
 -0.000  0.000  0.000  0.526 -0.000
  0.055  0.000  0.000 -0.000  0.595
   spin  2
    eigenvalues: 
  0.525  0.526  0.569  0.579  0.710
    eigenvectors:
  0.000  0.000  0.187  0.000  0.813
  0.500  0.000  0.000  0.500  0.000
  0.500  0.000  0.000  0.500  0.000
  0.000  1.000  0.000  0.000  0.000
  0.000  0.000  0.813  0.000  0.187
    occupations:
  0.684 -0.000 -0.000 -0.000  0.055
 -0.000  0.552  0.027  0.000  0.000
 -0.000  0.027  0.552  0.000  0.000
 -0.000  0.000  0.000  0.526 -0.000
  0.055  0.000  0.000 -0.000  0.595
atomic mag. moment =    -0.000004
atom    4   Tr[ns(na)] (up, down, total) =   2.90956  2.90956  5.81912
   spin  1
    eigenvalues: 
  0.525  0.526  0.569  0.579  0.710
    eigenvectors:
  0.000  0.000  0.186  0.000  0.814
  0.500  0.000  0.000  0.500  0.000
  0.500  0.000  0.000  0.500  0.000
  0.000  1.000  0.000  0.000  0.000
  0.000  0.000  0.814  0.000  0.186
    occupations:
  0.684  0.000  0.000 -0.000 -0.055
  0.000  0.552 -0.027 -0.000 -0.000
  0.000 -0.027  0.552  0.000 -0.000
 -0.000 -0.000  0.000  0.526 -0.000
 -0.055 -0.000 -0.000 -0.000  0.595
   spin  2
    eigenvalues: 
  0.525  0.526  0.569  0.579  0.710
    eigenvectors:
  0.000  0.000  0.186  0.000  0.814
  0.500  0.000  0.000  0.500  0.000
  0.500  0.000  0.000  0.500  0.000
  0.000  1.000  0.000  0.000  0.000
  0.000  0.000  0.814  0.000  0.186
    occupations:
  0.684  0.000  0.000 -0.000 -0.055
  0.000  0.552 -0.027 -0.000 -0.000
  0.000 -0.027  0.552  0.000 -0.000
 -0.000 -0.000  0.000  0.526 -0.000
 -0.055 -0.000 -0.000 -0.000  0.595
atomic mag. moment =     0.000000
atom    5   Tr[ns(na)] (up, down, total) =   2.90952  2.90953  5.81905
   spin  1
    eigenvalues: 
  0.525  0.526  0.569  0.579  0.710
    eigenvectors:
  0.000  0.000  0.186  0.000  0.814
  0.500  0.000  0.000  0.500  0.000
  0.500  0.000  0.000  0.500  0.000
  0.000  1.000  0.000  0.000  0.000
  0.000  0.000  0.814  0.000  0.186
    occupations:
  0.684 -0.000 -0.000 -0.000  0.055
 -0.000  0.552  0.027  0.000  0.000
 -0.000  0.027  0.552  0.000  0.000
 -0.000  0.000  0.000  0.526 -0.000
  0.055  0.000  0.000 -0.000  0.595
   spin  2
    eigenvalues: 
  0.525  0.526  0.569  0.579  0.710
    eigenvectors:
  0.000  0.000  0.186  0.000  0.814
  0.500  0.000  0.000  0.500  0.000
  0.500  0.000  0.000  0.500  0.000
  0.000  1.000  0.000  0.000  0.000
  0.000  0.000  0.814  0.000  0.186
    occupations:
  0.684 -0.000 -0.000 -0.000  0.055
 -0.000  0.552  0.027  0.000  0.000
 -0.000  0.027  0.552  0.000  0.000
 -0.000  0.000  0.000  0.526 -0.000
  0.055  0.000  0.000 -0.000  0.595
atomic mag. moment =    -0.000003
atom    6   Tr[ns(na)] (up, down, total) =   2.90959  2.90959  5.81918
   spin  1
    eigenvalues: 
  0.525  0.526  0.569  0.579  0.710
    eigenvectors:
  0.000  0.000  0.187  0.000  0.813
  0.500  0.000  0.000  0.500  0.000
  0.500  0.000  0.000  0.500  0.000
  0.000  1.000  0.000  0.000  0.000
  0.000  0.000  0.813  0.000  0.187
    occupations:
  0.684  0.000 -0.000  0.000 -0.055
  0.000  0.552 -0.027  0.000 -0.000
 -0.000 -0.027  0.552  0.000  0.000
  0.000  0.000  0.000  0.526 -0.000
 -0.055 -0.000  0.000 -0.000  0.596
   spin  2
    eigenvalues: 
  0.525  0.526  0.569  0.579  0.710
    eigenvectors:
  0.000  0.000  0.187  0.000  0.813
  0.500  0.000  0.000  0.500  0.000
  0.500  0.000  0.000  0.500  0.000
  0.000  1.000  0.000  0.000  0.000
  0.000  0.000  0.813  0.000  0.187
    occupations:
  0.684  0.000 -0.000  0.000 -0.055
  0.000  0.552 -0.027  0.000 -0.000
 -0.000 -0.027  0.552  0.000  0.000
  0.000  0.000  0.000  0.526 -0.000
 -0.055 -0.000  0.000 -0.000  0.596
atomic mag. moment =     0.000002
atom    7   Tr[ns(na)] (up, down, total) =   2.90954  2.90953  5.81907
   spin  1
    eigenvalues: 
  0.525  0.526  0.569  0.579  0.710
    eigenvectors:
  0.000  0.000  0.187  0.000  0.813
  0.500  0.000  0.000  0.500  0.000
  0.500  0.000  0.000  0.500  0.000
  0.000  1.000  0.000  0.000  0.000
  0.000  0.000  0.813  0.000  0.187
    occupations:
  0.684 -0.000 -0.000 -0.000  0.055
 -0.000  0.552  0.027  0.000  0.000
 -0.000  0.027  0.552  0.000  0.000
 -0.000  0.000  0.000  0.526 -0.000
  0.055  0.000  0.000 -0.000  0.595
   spin  2
    eigenvalues: 
  0.525  0.526  0.569  0.579  0.710
    eigenvectors:
  0.000  0.000  0.187  0.000  0.813
  0.500  0.000  0.000  0.500  0.000
  0.500  0.000  0.000  0.500  0.000
  0.000  1.000  0.000  0.000  0.000
  0.000  0.000  0.813  0.000  0.187
    occupations:
  0.684 -0.000 -0.000 -0.000  0.055
 -0.000  0.552  0.027  0.000  0.000
 -0.000  0.027  0.552  0.000  0.000
 -0.000  0.000  0.000  0.526 -0.000
  0.055  0.000  0.000 -0.000  0.595
atomic mag. moment =     0.000002
atom    8   Tr[ns(na)] (up, down, total) =   2.90959  2.90959  5.81918
   spin  1
    eigenvalues: 
  0.525  0.526  0.569  0.579  0.710
    eigenvectors:
  0.000  0.000  0.187  0.000  0.813
  0.500  0.000  0.000  0.500  0.000
  0.500  0.000  0.000  0.500  0.000
  0.000  1.000  0.000  0.000  0.000
  0.000  0.000  0.813  0.000  0.187
    occupations:
  0.684 -0.000  0.000  0.000 -0.055
 -0.000  0.552 -0.027 -0.000  0.000
  0.000 -0.027  0.552 -0.000 -0.000
  0.000 -0.000 -0.000  0.526 -0.000
 -0.055  0.000 -0.000 -0.000  0.596
   spin  2
    eigenvalues: 
  0.525  0.526  0.569  0.579  0.710
    eigenvectors:
  0.000  0.000  0.187  0.000  0.813
  0.500  0.000  0.000  0.500  0.000
  0.500  0.000  0.000  0.500  0.000
  0.000  1.000  0.000  0.000  0.000
  0.000  0.000  0.813  0.000  0.187
    occupations:
  0.684 -0.000  0.000  0.000 -0.055
 -0.000  0.552 -0.027 -0.000  0.000
  0.000 -0.027  0.552 -0.000 -0.000
  0.000 -0.000 -0.000  0.526 -0.000
 -0.055  0.000 -0.000 -0.000  0.596
atomic mag. moment =     0.000002
atom    9   Tr[ns(na)] (up, down, total) =   2.90952  2.90953  5.81905
   spin  1
    eigenvalues: 
  0.525  0.526  0.569  0.579  0.710
    eigenvectors:
  0.000  0.000  0.186  0.000  0.814
  0.500  0.000  0.000  0.500  0.000
  0.500  0.000  0.000  0.500  0.000
  0.000  1.000  0.000  0.000  0.000
  0.000  0.000  0.814  0.000  0.186
    occupations:
  0.684 -0.000 -0.000  0.000  0.055
 -0.000  0.552  0.027  0.000  0.000
 -0.000  0.027  0.552  0.000  0.000
  0.000  0.000  0.000  0.526  0.000
  0.055  0.000  0.000  0.000  0.595
   spin  2
    eigenvalues: 
  0.525  0.526  0.569  0.579  0.710
    eigenvectors:
  0.000  0.000  0.186  0.000  0.814
  0.500  0.000  0.000  0.500  0.000
  0.500  0.000  0.000  0.500  0.000
  0.000  1.000  0.000  0.000  0.000
  0.000  0.000  0.814  0.000  0.186
    occupations:
  0.684 -0.000 -0.000  0.000  0.055
 -0.000  0.552  0.027  0.000  0.000
 -0.000  0.027  0.552  0.000  0.000
  0.000  0.000  0.000  0.526  0.000
  0.055  0.000  0.000  0.000  0.595
atomic mag. moment =    -0.000003
atom   10   Tr[ns(na)] (up, down, total) =   2.90959  2.90959  5.81918
   spin  1
    eigenvalues: 
  0.525  0.526  0.569  0.579  0.710
    eigenvectors:
  0.000  0.000  0.187  0.000  0.813
  0.500  0.000  0.000  0.500  0.000
  0.500  0.000  0.000  0.500  0.000
  0.000  1.000  0.000  0.000  0.000
  0.000  0.000  0.813  0.000  0.187
    occupations:
  0.684 -0.000  0.000 -0.000 -0.055
 -0.000  0.552 -0.027 -0.000  0.000
  0.000 -0.027  0.552 -0.000 -0.000
 -0.000 -0.000 -0.000  0.526  0.000
 -0.055  0.000 -0.000  0.000  0.596
   spin  2
    eigenvalues: 
  0.525  0.526  0.569  0.579  0.710
    eigenvectors:
  0.000  0.000  0.187  0.000  0.813
  0.500  0.000  0.000  0.500  0.000
  0.500  0.000  0.000  0.500  0.000
  0.000  1.000  0.000  0.000  0.000
  0.000  0.000  0.813  0.000  0.187
    occupations:
  0.684 -0.000  0.000 -0.000 -0.055
 -0.000  0.552 -0.027 -0.000  0.000
  0.000 -0.027  0.552 -0.000 -0.000
 -0.000 -0.000 -0.000  0.526  0.000
 -0.055  0.000 -0.000  0.000  0.596
atomic mag. moment =     0.000002
atom   11   Tr[ns(na)] (up, down, total) =   2.90954  2.90953  5.81907
   spin  1
    eigenvalues: 
  0.525  0.526  0.569  0.579  0.710
    eigenvectors:
  0.000  0.000  0.187  0.000  0.813
  0.500  0.000  0.000  0.500  0.000
  0.500  0.000  0.000  0.500  0.000
  0.000  1.000  0.000  0.000  0.000
  0.000  0.000  0.813  0.000  0.187
    occupations:
  0.684 -0.000 -0.000  0.000  0.055
 -0.000  0.552  0.027  0.000  0.000
 -0.000  0.027  0.552  0.000  0.000
  0.000  0.000  0.000  0.526  0.000
  0.055  0.000  0.000  0.000  0.595
   spin  2
    eigenvalues: 
  0.525  0.526  0.569  0.579  0.710
    eigenvectors:
  0.000  0.000  0.187  0.000  0.813
  0.500  0.000  0.000  0.500  0.000
  0.500  0.000  0.000  0.500  0.000
  0.000  1.000  0.000  0.000  0.000
  0.000  0.000  0.813  0.000  0.187
    occupations:
  0.684 -0.000 -0.000  0.000  0.055
 -0.000  0.552  0.027  0.000  0.000
 -0.000  0.027  0.552  0.000  0.000
  0.000  0.000  0.000  0.526  0.000
  0.055  0.000  0.000  0.000  0.595
atomic mag. moment =     0.000002
atom   12   Tr[ns(na)] (up, down, total) =   2.90959  2.90959  5.81918
   spin  1
    eigenvalues: 
  0.525  0.526  0.569  0.579  0.710
    eigenvectors:
  0.000  0.000  0.187  0.000  0.813
  0.500  0.000  0.000  0.500  0.000
  0.500  0.000  0.000  0.500  0.000
  0.000  1.000  0.000  0.000  0.000
  0.000  0.000  0.813  0.000  0.187
    occupations:
  0.684  0.000 -0.000 -0.000 -0.055
  0.000  0.552 -0.027  0.000 -0.000
 -0.000 -0.027  0.552  0.000  0.000
 -0.000  0.000  0.000  0.526  0.000
 -0.055 -0.000  0.000  0.000  0.596
   spin  2
    eigenvalues: 
  0.525  0.526  0.569  0.579  0.710
    eigenvectors:
  0.000  0.000  0.187  0.000  0.813
  0.500  0.000  0.000  0.500  0.000
  0.500  0.000  0.000  0.500  0.000
  0.000  1.000  0.000  0.000  0.000
  0.000  0.000  0.813  0.000  0.187
    occupations:
  0.684  0.000 -0.000 -0.000 -0.055
  0.000  0.552 -0.027  0.000 -0.000
 -0.000 -0.027  0.552  0.000  0.000
 -0.000  0.000  0.000  0.526  0.000
 -0.055 -0.000  0.000  0.000  0.596
atomic mag. moment =     0.000002
atom   13   Tr[ns(na)] (up, down, total) =   2.90967  2.90967  5.81934
   spin  1
    eigenvalues: 
  0.525  0.526  0.569  0.579  0.710
    eigenvectors:
  0.000  0.000  0.186  0.000  0.814
  0.500  0.000  0.000  0.500  0.000
  0.500  0.000  0.000  0.500  0.000
  0.000  1.000  0.000  0.000  0.000
  0.000  0.000  0.814  0.000  0.186
    occupations:
  0.684 -0.000 -0.000 -0.000  0.055
 -0.000  0.552  0.027  0.000  0.000
 -0.000  0.027  0.552  0.000  0.000
 -0.000  0.000  0.000  0.526 -0.000
  0.055  0.000  0.000 -0.000  0.596
   spin  2
    eigenvalues: 
  0.525  0.526  0.569  0.579  0.710
    eigenvectors:
  0.000  0.000  0.186  0.000  0.814
  0.500  0.000  0.000  0.500  0.000
  0.500  0.000  0.000  0.500  0.000
  0.000  1.000  0.000  0.000  0.000
  0.000  0.000  0.814  0.000  0.186
    occupations:
  0.684 -0.000 -0.000 -0.000  0.055
 -0.000  0.552  0.027  0.000  0.000
 -0.000  0.027  0.552  0.000  0.000
 -0.000  0.000  0.000  0.526 -0.000
  0.055  0.000  0.000 -0.000  0.596
atomic mag. moment =    -0.000004
atom   14   Tr[ns(na)] (up, down, total) =   2.90963  2.90963  5.81925
   spin  1
    eigenvalues: 
  0.525  0.526  0.569  0.579  0.710
    eigenvectors:
  0.000  0.000  0.187  0.000  0.813
  0.500  0.000  0.000  0.500  0.000
  0.500  0.000  0.000  0.500  0.000
  0.000  1.000  0.000  0.000  0.000
  0.000  0.000  0.813  0.000  0.187
    occupations:
  0.684 -0.000 -0.000 -0.000 -0.055
 -0.000  0.552 -0.027 -0.000  0.000
 -0.000 -0.027  0.552  0.000  0.000
 -0.000 -0.000  0.000  0.526 -0.000
 -0.055  0.000  0.000 -0.000  0.596
   spin  2
    eigenvalues: 
  0.525  0.526  0.569  0.579  0.710
    eigenvectors:
  0.000  0.000  0.187  0.000  0.813
  0.500  0.000  0.000  0.500  0.000
  0.500  0.000  0.000  0.500  0.000
  0.000  1.000  0.000  0.000  0.000
  0.000  0.000  0.813  0.000  0.187
    occupations:
  0.684 -0.000 -0.000 -0.000 -0.055
 -0.000  0.552 -0.027 -0.000  0.000
 -0.000 -0.027  0.552  0.000  0.000
 -0.000 -0.000  0.000  0.526 -0.000
 -0.055  0.000  0.000 -0.000  0.596
atomic mag. moment =     0.000001
atom   15   Tr[ns(na)] (up, down, total) =   2.90946  2.90946  5.81892
   spin  1
    eigenvalues: 
  0.525  0.526  0.569  0.578  0.710
    eigenvectors:
  0.000  0.000  0.186  0.000  0.814
  0.500  0.000  0.000  0.500  0.000
  0.500  0.000  0.000  0.500  0.000
  0.000  1.000  0.000  0.000  0.000
  0.000  0.000  0.814  0.000  0.186
    occupations:
  0.684 -0.000 -0.000 -0.000  0.055
 -0.000  0.552  0.027  0.000  0.000
 -0.000  0.027  0.552  0.000  0.000
 -0.000  0.000  0.000  0.526 -0.000
  0.055  0.000  0.000 -0.000  0.595
   spin  2
    eigenvalues: 
  0.525  0.526  0.569  0.578  0.710
    eigenvectors:
  0.000  0.000  0.186  0.000  0.814
  0.500  0.000  0.000  0.500  0.000
  0.500  0.000  0.000  0.500  0.000
  0.000  1.000  0.000  0.000  0.000
  0.000  0.000  0.814  0.000  0.186
    occupations:
  0.684 -0.000 -0.000 -0.000  0.055
 -0.000  0.552  0.027  0.000  0.000
 -0.000  0.027  0.552  0.000  0.000
 -0.000  0.000  0.000  0.526 -0.000
  0.055  0.000  0.000 -0.000  0.595
atomic mag. moment =    -0.000000
atom   16   Tr[ns(na)] (up, down, total) =   2.90963  2.90963  5.81925
   spin  1
    eigenvalues: 
  0.525  0.526  0.569  0.579  0.710
    eigenvectors:
  0.000  0.000  0.187  0.000  0.813
  0.500  0.000  0.000  0.500  0.000
  0.500  0.000  0.000  0.500  0.000
  0.000  1.000  0.000  0.000  0.000
  0.000  0.000  0.813  0.000  0.187
    occupations:
  0.684  0.000  0.000 -0.000 -0.055
  0.000  0.552 -0.027  0.000 -0.000
  0.000 -0.027  0.552 -0.000 -0.000
 -0.000  0.000 -0.000  0.526 -0.000
 -0.055 -0.000 -0.000 -0.000  0.596
   spin  2
    eigenvalues: 
  0.525  0.526  0.569  0.579  0.710
    eigenvectors:
  0.000  0.000  0.187  0.000  0.813
  0.500  0.000  0.000  0.500  0.000
  0.500  0.000  0.000  0.500  0.000
  0.000  1.000  0.000  0.000  0.000
  0.000  0.000  0.813  0.000  0.187
    occupations:
  0.684  0.000  0.000 -0.000 -0.055
  0.000  0.552 -0.027  0.000 -0.000
  0.000 -0.027  0.552 -0.000 -0.000
 -0.000  0.000 -0.000  0.526 -0.000
 -0.055 -0.000 -0.000 -0.000  0.596
atomic mag. moment =     0.000001
atom   17   Tr[ns(na)] (up, down, total) =   2.70505  2.70505  5.41010
   spin  1
    eigenvalues: 
  0.900  0.902  0.903
    eigenvectors:
  0.000  0.000  1.000
  0.500  0.500  0.000
  0.500  0.500  0.000
    occupations:
  0.903 -0.000 -0.000
 -0.000  0.901  0.001
 -0.000  0.001  0.901
   spin  2
    eigenvalues: 
  0.900  0.902  0.903
    eigenvectors:
  0.000  0.000  1.000
  0.500  0.500  0.000
  0.500  0.500  0.000
    occupations:
  0.903 -0.000 -0.000
 -0.000  0.901  0.001
 -0.000  0.001  0.901
atomic mag. moment =     0.000000
atom   18   Tr[ns(na)] (up, down, total) =   2.70507  2.70507  5.41013
   spin  1
    eigenvalues: 
  0.900  0.902  0.903
    eigenvectors:
  0.000  0.000  1.000
  0.500  0.500  0.000
  0.500  0.500  0.000
    occupations:
  0.903 -0.000 -0.000
 -0.000  0.901  0.001
 -0.000  0.001  0.901
   spin  2
    eigenvalues: 
  0.900  0.902  0.903
    eigenvectors:
  0.000  0.000  1.000
  0.500  0.500  0.000
  0.500  0.500  0.000
    occupations:
  0.903 -0.000 -0.000
 -0.000  0.901  0.001
 -0.000  0.001  0.901
atomic mag. moment =     0.000000
atom   19   Tr[ns(na)] (up, down, total) =   2.70510  2.70510  5.41019
   spin  1
    eigenvalues: 
  0.900  0.902  0.903
    eigenvectors:
  0.000  0.000  1.000
  0.500  0.500  0.000
  0.500  0.500  0.000
    occupations:
  0.903  0.000 -0.000
  0.000  0.901 -0.001
 -0.000 -0.001  0.901
   spin  2
    eigenvalues: 
  0.900  0.902  0.903
    eigenvectors:
  0.000  0.000  1.000
  0.500  0.500  0.000
  0.500  0.500  0.000
    occupations:
  0.903  0.000 -0.000
  0.000  0.901 -0.001
 -0.000 -0.001  0.901
atomic mag. moment =    -0.000000
atom   20   Tr[ns(na)] (up, down, total) =   2.70510  2.70510  5.41019
   spin  1
    eigenvalues: 
  0.900  0.902  0.903
    eigenvectors:
  0.000  0.000  1.000
  0.500  0.500  0.000
  0.500  0.500  0.000
    occupations:
  0.903 -0.000  0.000
 -0.000  0.901 -0.001
  0.000 -0.001  0.901
   spin  2
    eigenvalues: 
  0.900  0.902  0.903
    eigenvectors:
  0.000  0.000  1.000
  0.500  0.500  0.000
  0.500  0.500  0.000
    occupations:
  0.903 -0.000  0.000
 -0.000  0.901 -0.001
  0.000 -0.001  0.901
atomic mag. moment =    -0.000000
atom   21   Tr[ns(na)] (up, down, total) =   2.70508  2.70508  5.41015
   spin  1
    eigenvalues: 
  0.900  0.902  0.903
    eigenvectors:
  0.000  0.000  1.000
  0.500  0.500  0.000
  0.500  0.500  0.000
    occupations:
  0.903 -0.000 -0.000
 -0.000  0.901  0.001
 -0.000  0.001  0.901
   spin  2
    eigenvalues: 
  0.900  0.902  0.903
    eigenvectors:
  0.000  0.000  1.000
  0.500  0.500  0.000
  0.500  0.500  0.000
    occupations:
  0.903 -0.000 -0.000
 -0.000  0.901  0.001
 -0.000  0.001  0.901
atomic mag. moment =     0.000000
atom   22   Tr[ns(na)] (up, down, total) =   2.70511  2.70511  5.41023
   spin  1
    eigenvalues: 
  0.900  0.902  0.903
    eigenvectors:
  0.000  0.000  1.000
  0.500  0.500  0.000
  0.500  0.500  0.000
    occupations:
  0.903 -0.000 -0.000
 -0.000  0.901  0.001
 -0.000  0.001  0.901
   spin  2
    eigenvalues: 
  0.900  0.902  0.903
    eigenvectors:
  0.000  0.000  1.000
  0.500  0.500  0.000
  0.500  0.500  0.000
    occupations:
  0.903 -0.000 -0.000
 -0.000  0.901  0.001
 -0.000  0.001  0.901
atomic mag. moment =     0.000000
atom   23   Tr[ns(na)] (up, down, total) =   2.70510  2.70510  5.41019
   spin  1
    eigenvalues: 
  0.900  0.902  0.903
    eigenvectors:
  0.000  0.000  1.000
  0.500  0.500  0.000
  0.500  0.500  0.000
    occupations:
  0.903 -0.000  0.000
 -0.000  0.901 -0.001
  0.000 -0.001  0.901
   spin  2
    eigenvalues: 
  0.900  0.902  0.903
    eigenvectors:
  0.000  0.000  1.000
  0.500  0.500  0.000
  0.500  0.500  0.000
    occupations:
  0.903 -0.000  0.000
 -0.000  0.901 -0.001
  0.000 -0.001  0.901
atomic mag. moment =    -0.000000
atom   24   Tr[ns(na)] (up, down, total) =   2.70510  2.70510  5.41019
   spin  1
    eigenvalues: 
  0.900  0.902  0.903
    eigenvectors:
  0.000  0.000  1.000
  0.500  0.500  0.000
  0.500  0.500  0.000
    occupations:
  0.903  0.000 -0.000
  0.000  0.901 -0.001
 -0.000 -0.001  0.901
   spin  2
    eigenvalues: 
  0.900  0.902  0.903
    eigenvectors:
  0.000  0.000  1.000
  0.500  0.500  0.000
  0.500  0.500  0.000
    occupations:
  0.903  0.000 -0.000
  0.000  0.901 -0.001
 -0.000 -0.001  0.901
atomic mag. moment =    -0.000000
atom   25   Tr[ns(na)] (up, down, total) =   2.70508  2.70508  5.41015
   spin  1
    eigenvalues: 
  0.900  0.902  0.903
    eigenvectors:
  0.000  0.000  1.000
  0.500  0.500  0.000
  0.500  0.500  0.000
    occupations:
  0.903 -0.000 -0.000
 -0.000  0.901  0.001
 -0.000  0.001  0.901
   spin  2
    eigenvalues: 
  0.900  0.902  0.903
    eigenvectors:
  0.000  0.000  1.000
  0.500  0.500  0.000
  0.500  0.500  0.000
    occupations:
  0.903 -0.000 -0.000
 -0.000  0.901  0.001
 -0.000  0.001  0.901
atomic mag. moment =     0.000000
atom   26   Tr[ns(na)] (up, down, total) =   2.70507  2.70507  5.41014
   spin  1
    eigenvalues: 
  0.900  0.902  0.903
    eigenvectors:
  0.000  0.000  1.000
  0.500  0.500  0.000
  0.500  0.500  0.000
    occupations:
  0.903 -0.000 -0.000
 -0.000  0.901  0.001
 -0.000  0.001  0.901
   spin  2
    eigenvalues: 
  0.900  0.902  0.903
    eigenvectors:
  0.000  0.000  1.000
  0.500  0.500  0.000
  0.500  0.500  0.000
    occupations:
  0.903 -0.000 -0.000
 -0.000  0.901  0.001
 -0.000  0.001  0.901
atomic mag. moment =     0.000000
atom   27   Tr[ns(na)] (up, down, total) =   2.70510  2.70510  5.41020
   spin  1
    eigenvalues: 
  0.900  0.902  0.903
    eigenvectors:
  0.000  0.000  1.000
  0.500  0.500  0.000
  0.500  0.500  0.000
    occupations:
  0.903 -0.000  0.000
 -0.000  0.901 -0.001
  0.000 -0.001  0.901
   spin  2
    eigenvalues: 
  0.900  0.902  0.903
    eigenvectors:
  0.000  0.000  1.000
  0.500  0.500  0.000
  0.500  0.500  0.000
    occupations:
  0.903 -0.000  0.000
 -0.000  0.901 -0.001
  0.000 -0.001  0.901
atomic mag. moment =    -0.000000
atom   28   Tr[ns(na)] (up, down, total) =   2.70508  2.70508  5.41016
   spin  1
    eigenvalues: 
  0.900  0.902  0.903
    eigenvectors:
  0.000  0.000  1.000
  0.500  0.500  0.000
  0.500  0.500  0.000
    occupations:
  0.903  0.000 -0.000
  0.000  0.901 -0.001
 -0.000 -0.001  0.901
   spin  2
    eigenvalues: 
  0.900  0.902  0.903
    eigenvectors:
  0.000  0.000  1.000
  0.500  0.500  0.000
  0.500  0.500  0.000
    occupations:
  0.903  0.000 -0.000
  0.000  0.901 -0.001
 -0.000 -0.001  0.901
atomic mag. moment =    -0.000000
atom   29   Tr[ns(na)] (up, down, total) =   2.70511  2.70511  5.41022
   spin  1
    eigenvalues: 
  0.900  0.902  0.903
    eigenvectors:
  0.000  0.000  1.000
  0.500  0.500  0.000
  0.500  0.500  0.000
    occupations:
  0.903 -0.000 -0.000
 -0.000  0.901  0.001
 -0.000  0.001  0.901
   spin  2
    eigenvalues: 
  0.900  0.902  0.903
    eigenvectors:
  0.000  0.000  1.000
  0.500  0.500  0.000
  0.500  0.500  0.000
    occupations:
  0.903 -0.000 -0.000
 -0.000  0.901  0.001
 -0.000  0.001  0.901
atomic mag. moment =    -0.000000
atom   30   Tr[ns(na)] (up, down, total) =   2.70511  2.70511  5.41021
   spin  1
    eigenvalues: 
  0.900  0.902  0.903
    eigenvectors:
  0.000  0.000  1.000
  0.500  0.500  0.000
  0.500  0.500  0.000
    occupations:
  0.903 -0.000 -0.000
 -0.000  0.901  0.001
 -0.000  0.001  0.901
   spin  2
    eigenvalues: 
  0.900  0.902  0.903
    eigenvectors:
  0.000  0.000  1.000
  0.500  0.500  0.000
  0.500  0.500  0.000
    occupations:
  0.903 -0.000 -0.000
 -0.000  0.901  0.001
 -0.000  0.001  0.901
atomic mag. moment =    -0.000000
atom   31   Tr[ns(na)] (up, down, total) =   2.70510  2.70510  5.41020
   spin  1
    eigenvalues: 
  0.900  0.902  0.903
    eigenvectors:
  0.000  0.000  1.000
  0.500  0.500  0.000
  0.500  0.500  0.000
    occupations:
  0.903  0.000 -0.000
  0.000  0.901 -0.001
 -0.000 -0.001  0.901
   spin  2
    eigenvalues: 
  0.900  0.902  0.903
    eigenvectors:
  0.000  0.000  1.000
  0.500  0.500  0.000
  0.500  0.500  0.000
    occupations:
  0.903  0.000 -0.000
  0.000  0.901 -0.001
 -0.000 -0.001  0.901
atomic mag. moment =    -0.000000
atom   32   Tr[ns(na)] (up, down, total) =   2.70508  2.70508  5.41016
   spin  1
    eigenvalues: 
  0.900  0.902  0.903
    eigenvectors:
  0.000  0.000  1.000
  0.500  0.500  0.000
  0.500  0.500  0.000
    occupations:
  0.903 -0.000  0.000
 -0.000  0.901 -0.001
  0.000 -0.001  0.901
   spin  2
    eigenvalues: 
  0.900  0.902  0.903
    eigenvectors:
  0.000  0.000  1.000
  0.500  0.500  0.000
  0.500  0.500  0.000
    occupations:
  0.903 -0.000  0.000
 -0.000  0.901 -0.001
  0.000 -0.001  0.901
atomic mag. moment =    -0.000000
atom   33   Tr[ns(na)] (up, down, total) =   2.70508  2.70508  5.41015
   spin  1
    eigenvalues: 
  0.900  0.902  0.903
    eigenvectors:
  0.000  0.000  1.000
  0.500  0.500  0.000
  0.500  0.500  0.000
    occupations:
  0.903 -0.000 -0.000
 -0.000  0.901  0.001
 -0.000  0.001  0.901
   spin  2
    eigenvalues: 
  0.900  0.902  0.903
    eigenvectors:
  0.000  0.000  1.000
  0.500  0.500  0.000
  0.500  0.500  0.000
    occupations:
  0.903 -0.000 -0.000
 -0.000  0.901  0.001
 -0.000  0.001  0.901
atomic mag. moment =     0.000000
atom   34   Tr[ns(na)] (up, down, total) =   2.70507  2.70507  5.41014
   spin  1
    eigenvalues: 
  0.900  0.902  0.903
    eigenvectors:
  0.000  0.000  1.000
  0.500  0.500  0.000
  0.500  0.500  0.000
    occupations:
  0.903 -0.000 -0.000
 -0.000  0.901  0.001
 -0.000  0.001  0.901
   spin  2
    eigenvalues: 
  0.900  0.902  0.903
    eigenvectors:
  0.000  0.000  1.000
  0.500  0.500  0.000
  0.500  0.500  0.000
    occupations:
  0.903 -0.000 -0.000
 -0.000  0.901  0.001
 -0.000  0.001  0.901
atomic mag. moment =     0.000000
atom   35   Tr[ns(na)] (up, down, total) =   2.70508  2.70508  5.41016
   spin  1
    eigenvalues: 
  0.900  0.902  0.903
    eigenvectors:
  0.000  0.000  1.000
  0.500  0.500  0.000
  0.500  0.500  0.000
    occupations:
  0.903 -0.000  0.000
 -0.000  0.901 -0.001
  0.000 -0.001  0.901
   spin  2
    eigenvalues: 
  0.900  0.902  0.903
    eigenvectors:
  0.000  0.000  1.000
  0.500  0.500  0.000
  0.500  0.500  0.000
    occupations:
  0.903 -0.000  0.000
 -0.000  0.901 -0.001
  0.000 -0.001  0.901
atomic mag. moment =    -0.000000
atom   36   Tr[ns(na)] (up, down, total) =   2.70510  2.70510  5.41020
   spin  1
    eigenvalues: 
  0.900  0.902  0.903
    eigenvectors:
  0.000  0.000  1.000
  0.500  0.500  0.000
  0.500  0.500  0.000
    occupations:
  0.903  0.000 -0.000
  0.000  0.901 -0.001
 -0.000 -0.001  0.901
   spin  2
    eigenvalues: 
  0.900  0.902  0.903
    eigenvectors:
  0.000  0.000  1.000
  0.500  0.500  0.000
  0.500  0.500  0.000
    occupations:
  0.903  0.000 -0.000
  0.000  0.901 -0.001
 -0.000 -0.001  0.901
atomic mag. moment =    -0.000000
atom   37   Tr[ns(na)] (up, down, total) =   2.70511  2.70511  5.41022
   spin  1
    eigenvalues: 
  0.900  0.902  0.903
    eigenvectors:
  0.000  0.000  1.000
  0.500  0.500  0.000
  0.500  0.500  0.000
    occupations:
  0.903 -0.000 -0.000
 -0.000  0.901  0.001
 -0.000  0.001  0.901
   spin  2
    eigenvalues: 
  0.900  0.902  0.903
    eigenvectors:
  0.000  0.000  1.000
  0.500  0.500  0.000
  0.500  0.500  0.000
    occupations:
  0.903 -0.000 -0.000
 -0.000  0.901  0.001
 -0.000  0.001  0.901
atomic mag. moment =    -0.000000
atom   38   Tr[ns(na)] (up, down, total) =   2.70511  2.70511  5.41021
   spin  1
    eigenvalues: 
  0.900  0.902  0.903
    eigenvectors:
  0.000  0.000  1.000
  0.500  0.500  0.000
  0.500  0.500  0.000
    occupations:
  0.903 -0.000 -0.000
 -0.000  0.901  0.001
 -0.000  0.001  0.901
   spin  2
    eigenvalues: 
  0.900  0.902  0.903
    eigenvectors:
  0.000  0.000  1.000
  0.500  0.500  0.000
  0.500  0.500  0.000
    occupations:
  0.903 -0.000 -0.000
 -0.000  0.901  0.001
 -0.000  0.001  0.901
atomic mag. moment =    -0.000000
atom   39   Tr[ns(na)] (up, down, total) =   2.70508  2.70508  5.41016
   spin  1
    eigenvalues: 
  0.900  0.902  0.903
    eigenvectors:
  0.000  0.000  1.000
  0.500  0.500  0.000
  0.500  0.500  0.000
    occupations:
  0.903  0.000 -0.000
  0.000  0.901 -0.001
 -0.000 -0.001  0.901
   spin  2
    eigenvalues: 
  0.900  0.902  0.903
    eigenvectors:
  0.000  0.000  1.000
  0.500  0.500  0.000
  0.500  0.500  0.000
    occupations:
  0.903  0.000 -0.000
  0.000  0.901 -0.001
 -0.000 -0.001  0.901
atomic mag. moment =    -0.000000
atom   40   Tr[ns(na)] (up, down, total) =   2.70510  2.70510  5.41020
   spin  1
    eigenvalues: 
  0.900  0.902  0.903
    eigenvectors:
  0.000  0.000  1.000
  0.500  0.500  0.000
  0.500  0.500  0.000
    occupations:
  0.903 -0.000  0.000
 -0.000  0.901 -0.001
  0.000 -0.001  0.901
   spin  2
    eigenvalues: 
  0.900  0.902  0.903
    eigenvectors:
  0.000  0.000  1.000
  0.500  0.500  0.000
  0.500  0.500  0.000
    occupations:
  0.903 -0.000  0.000
 -0.000  0.901 -0.001
  0.000 -0.001  0.901
atomic mag. moment =    -0.000000
atom   41   Tr[ns(na)] (up, down, total) =   2.70504  2.70504  5.41008
   spin  1
    eigenvalues: 
  0.900  0.902  0.903
    eigenvectors:
  0.000  0.000  1.000
  0.500  0.500  0.000
  0.500  0.500  0.000
    occupations:
  0.903 -0.000 -0.000
 -0.000  0.901  0.001
 -0.000  0.001  0.901
   spin  2
    eigenvalues: 
  0.900  0.902  0.903
    eigenvectors:
  0.000  0.000  1.000
  0.500  0.500  0.000
  0.500  0.500  0.000
    occupations:
  0.903 -0.000 -0.000
 -0.000  0.901  0.001
 -0.000  0.001  0.901
atomic mag. moment =     0.000000
atom   42   Tr[ns(na)] (up, down, total) =   2.70514  2.70514  5.41029
   spin  1
    eigenvalues: 
  0.900  0.902  0.903
    eigenvectors:
  0.000  0.000  1.000
  0.500  0.500  0.000
  0.500  0.500  0.000
    occupations:
  0.903 -0.000 -0.000
 -0.000  0.901  0.001
 -0.000  0.001  0.901
   spin  2
    eigenvalues: 
  0.900  0.902  0.903
    eigenvectors:
  0.000  0.000  1.000
  0.500  0.500  0.000
  0.500  0.500  0.000
    occupations:
  0.903 -0.000 -0.000
 -0.000  0.901  0.001
 -0.000  0.001  0.901
atomic mag. moment =     0.000000
atom   43   Tr[ns(na)] (up, down, total) =   2.70508  2.70508  5.41016
   spin  1
    eigenvalues: 
  0.900  0.902  0.903
    eigenvectors:
  0.000  0.000  1.000
  0.500  0.500  0.000
  0.500  0.500  0.000
    occupations:
  0.903  0.000 -0.000
  0.000  0.901 -0.001
 -0.000 -0.001  0.901
   spin  2
    eigenvalues: 
  0.900  0.902  0.903
    eigenvectors:
  0.000  0.000  1.000
  0.500  0.500  0.000
  0.500  0.500  0.000
    occupations:
  0.903  0.000 -0.000
  0.000  0.901 -0.001
 -0.000 -0.001  0.901
atomic mag. moment =    -0.000000
atom   44   Tr[ns(na)] (up, down, total) =   2.70508  2.70508  5.41016
   spin  1
    eigenvalues: 
  0.900  0.902  0.903
    eigenvectors:
  0.000  0.000  1.000
  0.500  0.500  0.000
  0.500  0.500  0.000
    occupations:
  0.903 -0.000  0.000
 -0.000  0.901 -0.001
  0.000 -0.001  0.901
   spin  2
    eigenvalues: 
  0.900  0.902  0.903
    eigenvectors:
  0.000  0.000  1.000
  0.500  0.500  0.000
  0.500  0.500  0.000
    occupations:
  0.903 -0.000  0.000
 -0.000  0.901 -0.001
  0.000 -0.001  0.901
atomic mag. moment =    -0.000000
atom   45   Tr[ns(na)] (up, down, total) =   2.70507  2.70507  5.41015
   spin  1
    eigenvalues: 
  0.900  0.902  0.903
    eigenvectors:
  0.000  0.000  1.000
  0.500  0.500  0.000
  0.500  0.500  0.000
    occupations:
  0.903 -0.000 -0.000
 -0.000  0.901  0.001
 -0.000  0.001  0.901
   spin  2
    eigenvalues: 
  0.900  0.902  0.903
    eigenvectors:
  0.000  0.000  1.000
  0.500  0.500  0.000
  0.500  0.500  0.000
    occupations:
  0.903 -0.000 -0.000
 -0.000  0.901  0.001
 -0.000  0.001  0.901
atomic mag. moment =     0.000000
atom   46   Tr[ns(na)] (up, down, total) =   2.70517  2.70517  5.41034
   spin  1
    eigenvalues: 
  0.900  0.902  0.903
    eigenvectors:
  0.000  0.000  1.000
  0.500  0.500  0.000
  0.500  0.500  0.000
    occupations:
  0.903 -0.000 -0.000
 -0.000  0.901  0.001
 -0.000  0.001  0.901
   spin  2
    eigenvalues: 
  0.900  0.902  0.903
    eigenvectors:
  0.000  0.000  1.000
  0.500  0.500  0.000
  0.500  0.500  0.000
    occupations:
  0.903 -0.000 -0.000
 -0.000  0.901  0.001
 -0.000  0.001  0.901
atomic mag. moment =     0.000000
atom   47   Tr[ns(na)] (up, down, total) =   2.70508  2.70508  5.41016
   spin  1
    eigenvalues: 
  0.900  0.902  0.903
    eigenvectors:
  0.000  0.000  1.000
  0.500  0.500  0.000
  0.500  0.500  0.000
    occupations:
  0.903 -0.000  0.000
 -0.000  0.901 -0.001
  0.000 -0.001  0.901
   spin  2
    eigenvalues: 
  0.900  0.902  0.903
    eigenvectors:
  0.000  0.000  1.000
  0.500  0.500  0.000
  0.500  0.500  0.000
    occupations:
  0.903 -0.000  0.000
 -0.000  0.901 -0.001
  0.000 -0.001  0.901
atomic mag. moment =    -0.000000
atom   48   Tr[ns(na)] (up, down, total) =   2.70508  2.70508  5.41016
   spin  1
    eigenvalues: 
  0.900  0.902  0.903
    eigenvectors:
  0.000  0.000  1.000
  0.500  0.500  0.000
  0.500  0.500  0.000
    occupations:
  0.903  0.000 -0.000
  0.000  0.901 -0.001
 -0.000 -0.001  0.901
   spin  2
    eigenvalues: 
  0.900  0.902  0.903
    eigenvectors:
  0.000  0.000  1.000
  0.500  0.500  0.000
  0.500  0.500  0.000
    occupations:
  0.903  0.000 -0.000
  0.000  0.901 -0.001
 -0.000 -0.001  0.901
atomic mag. moment =    -0.000000
N of occupied +U levels = 266.2319728
 --- exit write_ns ---
 Atomic wfc used for LDA+U Projector are NOT orthogonalized
     Starting wfc from file

     total cpu time spent up to now is       84.6 secs

     per-process dynamical memory:   102.0 Mb

     Self-consistent Calculation

     iteration #  1     ecut=    40.00 Ry     beta=0.70
     Davidson diagonalization with overlap
     ethr =  6.58E-09,  avg # of iterations =  6.0
 --- enter write_ns ---
 LDA+U parameters:
U( 1)     =  0.00000000
alpha( 1) =  0.00000000
U( 2)     =  0.00000000
alpha( 2) =  0.00000000
U( 3)     =  0.00000000
alpha( 3) =  0.00000000
atom    1   Tr[ns(na)] (up, down, total) =   2.90944  2.90944  5.81888
   spin  1
    eigenvalues: 
  0.525  0.526  0.569  0.579  0.710
    eigenvectors:
  0.000  0.000  0.186  0.000  0.814
  0.500  0.000  0.000  0.500  0.000
  0.500  0.000  0.000  0.500  0.000
  0.000  1.000  0.000  0.000  0.000
  0.000  0.000  0.814  0.000  0.186
    occupations:
  0.684 -0.000 -0.000 -0.000  0.055
 -0.000  0.552  0.027  0.000  0.000
 -0.000  0.027  0.552  0.000  0.000
 -0.000  0.000  0.000  0.526 -0.000
  0.055  0.000  0.000 -0.000  0.595
   spin  2
    eigenvalues: 
  0.525  0.526  0.569  0.579  0.710
    eigenvectors:
  0.000  0.000  0.186  0.000  0.814
  0.500  0.000  0.000  0.500  0.000
  0.500  0.000  0.000  0.500  0.000
  0.000  1.000  0.000  0.000  0.000
  0.000  0.000  0.814  0.000  0.186
    occupations:
  0.684 -0.000 -0.000 -0.000  0.055
 -0.000  0.552  0.027  0.000  0.000
 -0.000  0.027  0.552  0.000  0.000
 -0.000  0.000  0.000  0.526 -0.000
  0.055  0.000  0.000 -0.000  0.595
atomic mag. moment =    -0.000001
atom    2   Tr[ns(na)] (up, down, total) =   2.90921  2.90921  5.81843
   spin  1
    eigenvalues: 
  0.525  0.526  0.569  0.578  0.710
    eigenvectors:
  0.000  0.000  0.187  0.000  0.813
  0.500  0.000  0.000  0.500  0.000
  0.500  0.000  0.000  0.500  0.000
  0.000  1.000  0.000  0.000  0.000
  0.000  0.000  0.813  0.000  0.187
    occupations:
  0.684  0.000  0.000 -0.000 -0.055
  0.000  0.552 -0.026 -0.000 -0.000
  0.000 -0.026  0.552  0.000 -0.000
 -0.000 -0.000  0.000  0.526 -0.000
 -0.055 -0.000 -0.000 -0.000  0.595
   spin  2
    eigenvalues: 
  0.525  0.526  0.569  0.578  0.710
    eigenvectors:
  0.000  0.000  0.187  0.000  0.813
  0.500  0.000  0.000  0.500  0.000
  0.500  0.000  0.000  0.500  0.000
  0.000  1.000  0.000  0.000  0.000
  0.000  0.000  0.813  0.000  0.187
    occupations:
  0.684  0.000  0.000 -0.000 -0.055
  0.000  0.552 -0.026 -0.000 -0.000
  0.000 -0.026  0.552  0.000 -0.000
 -0.000 -0.000  0.000  0.526 -0.000
 -0.055 -0.000 -0.000 -0.000  0.595
atomic mag. moment =     0.000000
atom    3   Tr[ns(na)] (up, down, total) =   2.91085  2.91086  5.82171
   spin  1
    eigenvalues: 
  0.525  0.526  0.569  0.579  0.711
    eigenvectors:
  0.000  0.000  0.186  0.000  0.814
  0.500  0.000  0.000  0.500  0.000
  0.500  0.000  0.000  0.500  0.000
  0.000  1.000  0.000  0.000  0.000
  0.000  0.000  0.814  0.000  0.186
    occupations:
  0.684 -0.000 -0.000 -0.000  0.055
 -0.000  0.552  0.027  0.000  0.000
 -0.000  0.027  0.552  0.000  0.000
 -0.000  0.000  0.000  0.526 -0.000
  0.055  0.000  0.000 -0.000  0.596
   spin  2
    eigenvalues: 
  0.525  0.526  0.569  0.579  0.711
    eigenvectors:
  0.000  0.000  0.186  0.000  0.814
  0.500  0.000  0.000  0.500  0.000
  0.500  0.000  0.000  0.500  0.000
  0.000  1.000  0.000  0.000  0.000
  0.000  0.000  0.814  0.000  0.186
    occupations:
  0.684 -0.000 -0.000 -0.000  0.055
 -0.000  0.552  0.027  0.000  0.000
 -0.000  0.027  0.552  0.000  0.000
 -0.000  0.000  0.000  0.526 -0.000
  0.055  0.000  0.000 -0.000  0.596
atomic mag. moment =    -0.000003
atom    4   Tr[ns(na)] (up, down, total) =   2.90921  2.90921  5.81843
   spin  1
    eigenvalues: 
  0.525  0.526  0.569  0.578  0.710
    eigenvectors:
  0.000  0.000  0.187  0.000  0.813
  0.500  0.000  0.000  0.500  0.000
  0.500  0.000  0.000  0.500  0.000
  0.000  1.000  0.000  0.000  0.000
  0.000  0.000  0.813  0.000  0.187
    occupations:
  0.684 -0.000 -0.000 -0.000 -0.055
 -0.000  0.552 -0.026  0.000  0.000
 -0.000 -0.026  0.552 -0.000  0.000
 -0.000  0.000 -0.000  0.526 -0.000
 -0.055  0.000  0.000 -0.000  0.595
   spin  2
    eigenvalues: 
  0.525  0.526  0.569  0.578  0.710
    eigenvectors:
  0.000  0.000  0.187  0.000  0.813
  0.500  0.000  0.000  0.500  0.000
  0.500  0.000  0.000  0.500  0.000
  0.000  1.000  0.000  0.000  0.000
  0.000  0.000  0.813  0.000  0.187
    occupations:
  0.684 -0.000 -0.000 -0.000 -0.055
 -0.000  0.552 -0.026  0.000  0.000
 -0.000 -0.026  0.552 -0.000  0.000
 -0.000  0.000 -0.000  0.526 -0.000
 -0.055  0.000  0.000 -0.000  0.595
atomic mag. moment =     0.000000
atom    5   Tr[ns(na)] (up, down, total) =   2.91041  2.91041  5.82082
   spin  1
    eigenvalues: 
  0.525  0.526  0.569  0.579  0.711
    eigenvectors:
  0.000  0.000  0.186  0.000  0.814
  0.500  0.000  0.000  0.500  0.000
  0.500  0.000  0.000  0.500  0.000
  0.000  1.000  0.000  0.000  0.000
  0.000  0.000  0.814  0.000  0.186
    occupations:
  0.684 -0.000 -0.000 -0.000  0.055
 -0.000  0.552  0.027  0.000  0.000
 -0.000  0.027  0.552  0.000  0.000
 -0.000  0.000  0.000  0.526  0.000
  0.055  0.000  0.000  0.000  0.596
   spin  2
    eigenvalues: 
  0.525  0.526  0.569  0.579  0.711
    eigenvectors:
  0.000  0.000  0.186  0.000  0.814
  0.500  0.000  0.000  0.500  0.000
  0.500  0.000  0.000  0.500  0.000
  0.000  1.000  0.000  0.000  0.000
  0.000  0.000  0.814  0.000  0.186
    occupations:
  0.684 -0.000 -0.000 -0.000  0.055
 -0.000  0.552  0.027  0.000  0.000
 -0.000  0.027  0.552  0.000  0.000
 -0.000  0.000  0.000  0.526  0.000
  0.055  0.000  0.000  0.000  0.596
atomic mag. moment =    -0.000003
atom    6   Tr[ns(na)] (up, down, total) =   2.90933  2.90933  5.81866
   spin  1
    eigenvalues: 
  0.525  0.526  0.569  0.578  0.710
    eigenvectors:
  0.000  0.000  0.187  0.000  0.813
  0.500  0.000  0.000  0.500  0.000
  0.500  0.000  0.000  0.500  0.000
  0.000  1.000  0.000  0.000  0.000
  0.000  0.000  0.813  0.000  0.187
    occupations:
  0.684 -0.000  0.000 -0.000 -0.055
 -0.000  0.552 -0.027  0.000  0.000
  0.000 -0.027  0.552 -0.000 -0.000
 -0.000  0.000 -0.000  0.526  0.000
 -0.055  0.000 -0.000  0.000  0.595
   spin  2
    eigenvalues: 
  0.525  0.526  0.569  0.578  0.710
    eigenvectors:
  0.000  0.000  0.187  0.000  0.813
  0.500  0.000  0.000  0.500  0.000
  0.500  0.000  0.000  0.500  0.000
  0.000  1.000  0.000  0.000  0.000
  0.000  0.000  0.813  0.000  0.187
    occupations:
  0.684 -0.000  0.000 -0.000 -0.055
 -0.000  0.552 -0.027  0.000  0.000
  0.000 -0.027  0.552 -0.000 -0.000
 -0.000  0.000 -0.000  0.526  0.000
 -0.055  0.000 -0.000  0.000  0.595
atomic mag. moment =     0.000001
atom    7   Tr[ns(na)] (up, down, total) =   2.91002  2.91002  5.82004
   spin  1
    eigenvalues: 
  0.525  0.526  0.569  0.579  0.710
    eigenvectors:
  0.000  0.000  0.186  0.000  0.814
  0.500  0.000  0.000  0.500  0.000
  0.500  0.000  0.000  0.500  0.000
  0.000  1.000  0.000  0.000  0.000
  0.000  0.000  0.814  0.000  0.186
    occupations:
  0.684 -0.000 -0.000  0.000  0.055
 -0.000  0.552  0.027  0.000  0.000
 -0.000  0.027  0.552  0.000  0.000
  0.000  0.000  0.000  0.526  0.000
  0.055  0.000  0.000  0.000  0.596
   spin  2
    eigenvalues: 
  0.525  0.526  0.569  0.579  0.710
    eigenvectors:
  0.000  0.000  0.186  0.000  0.814
  0.500  0.000  0.000  0.500  0.000
  0.500  0.000  0.000  0.500  0.000
  0.000  1.000  0.000  0.000  0.000
  0.000  0.000  0.814  0.000  0.186
    occupations:
  0.684 -0.000 -0.000  0.000  0.055
 -0.000  0.552  0.027  0.000  0.000
 -0.000  0.027  0.552  0.000  0.000
  0.000  0.000  0.000  0.526  0.000
  0.055  0.000  0.000  0.000  0.596
atomic mag. moment =     0.000002
atom    8   Tr[ns(na)] (up, down, total) =   2.90933  2.90933  5.81866
   spin  1
    eigenvalues: 
  0.525  0.526  0.569  0.578  0.710
    eigenvectors:
  0.000  0.000  0.187  0.000  0.813
  0.500  0.000  0.000  0.500  0.000
  0.500  0.000  0.000  0.500  0.000
  0.000  1.000  0.000  0.000  0.000
  0.000  0.000  0.813  0.000  0.187
    occupations:
  0.684  0.000 -0.000 -0.000 -0.055
  0.000  0.552 -0.027 -0.000 -0.000
 -0.000 -0.027  0.552  0.000  0.000
 -0.000 -0.000  0.000  0.526  0.000
 -0.055 -0.000  0.000  0.000  0.595
   spin  2
    eigenvalues: 
  0.525  0.526  0.569  0.578  0.710
    eigenvectors:
  0.000  0.000  0.187  0.000  0.813
  0.500  0.000  0.000  0.500  0.000
  0.500  0.000  0.000  0.500  0.000
  0.000  1.000  0.000  0.000  0.000
  0.000  0.000  0.813  0.000  0.187
    occupations:
  0.684  0.000 -0.000 -0.000 -0.055
  0.000  0.552 -0.027 -0.000 -0.000
 -0.000 -0.027  0.552  0.000  0.000
 -0.000 -0.000  0.000  0.526  0.000
 -0.055 -0.000  0.000  0.000  0.595
atomic mag. moment =     0.000001
atom    9   Tr[ns(na)] (up, down, total) =   2.91041  2.91041  5.82082
   spin  1
    eigenvalues: 
  0.525  0.526  0.569  0.579  0.711
    eigenvectors:
  0.000  0.000  0.186  0.000  0.814
  0.500  0.000  0.000  0.500  0.000
  0.500  0.000  0.000  0.500  0.000
  0.000  1.000  0.000  0.000  0.000
  0.000  0.000  0.814  0.000  0.186
    occupations:
  0.684 -0.000 -0.000  0.000  0.055
 -0.000  0.552  0.027  0.000  0.000
 -0.000  0.027  0.552  0.000  0.000
  0.000  0.000  0.000  0.526 -0.000
  0.055  0.000  0.000 -0.000  0.596
   spin  2
    eigenvalues: 
  0.525  0.526  0.569  0.579  0.711
    eigenvectors:
  0.000  0.000  0.186  0.000  0.814
  0.500  0.000  0.000  0.500  0.000
  0.500  0.000  0.000  0.500  0.000
  0.000  1.000  0.000  0.000  0.000
  0.000  0.000  0.814  0.000  0.186
    occupations:
  0.684 -0.000 -0.000  0.000  0.055
 -0.000  0.552  0.027  0.000  0.000
 -0.000  0.027  0.552  0.000  0.000
  0.000  0.000  0.000  0.526 -0.000
  0.055  0.000  0.000 -0.000  0.596
atomic mag. moment =    -0.000003
atom   10   Tr[ns(na)] (up, down, total) =   2.90933  2.90933  5.81866
   spin  1
    eigenvalues: 
  0.525  0.526  0.569  0.578  0.710
    eigenvectors:
  0.000  0.000  0.187  0.000  0.813
  0.500  0.000  0.000  0.500  0.000
  0.500  0.000  0.000  0.500  0.000
  0.000  1.000  0.000  0.000  0.000
  0.000  0.000  0.813  0.000  0.187
    occupations:
  0.684  0.000 -0.000  0.000 -0.055
  0.000  0.552 -0.027  0.000 -0.000
 -0.000 -0.027  0.552 -0.000  0.000
  0.000  0.000 -0.000  0.526 -0.000
 -0.055 -0.000  0.000 -0.000  0.595
   spin  2
    eigenvalues: 
  0.525  0.526  0.569  0.578  0.710
    eigenvectors:
  0.000  0.000  0.187  0.000  0.813
  0.500  0.000  0.000  0.500  0.000
  0.500  0.000  0.000  0.500  0.000
  0.000  1.000  0.000  0.000  0.000
  0.000  0.000  0.813  0.000  0.187
    occupations:
  0.684  0.000 -0.000  0.000 -0.055
  0.000  0.552 -0.027  0.000 -0.000
 -0.000 -0.027  0.552 -0.000  0.000
  0.000  0.000 -0.000  0.526 -0.000
 -0.055 -0.000  0.000 -0.000  0.595
atomic mag. moment =     0.000001
atom   11   Tr[ns(na)] (up, down, total) =   2.91002  2.91002  5.82004
   spin  1
    eigenvalues: 
  0.525  0.526  0.569  0.579  0.710
    eigenvectors:
  0.000  0.000  0.186  0.000  0.814
  0.500  0.000  0.000  0.500  0.000
  0.500  0.000  0.000  0.500  0.000
  0.000  1.000  0.000  0.000  0.000
  0.000  0.000  0.814  0.000  0.186
    occupations:
  0.684 -0.000 -0.000 -0.000  0.055
 -0.000  0.552  0.027  0.000  0.000
 -0.000  0.027  0.552  0.000  0.000
 -0.000  0.000  0.000  0.526 -0.000
  0.055  0.000  0.000 -0.000  0.596
   spin  2
    eigenvalues: 
  0.525  0.526  0.569  0.579  0.710
    eigenvectors:
  0.000  0.000  0.186  0.000  0.814
  0.500  0.000  0.000  0.500  0.000
  0.500  0.000  0.000  0.500  0.000
  0.000  1.000  0.000  0.000  0.000
  0.000  0.000  0.814  0.000  0.186
    occupations:
  0.684 -0.000 -0.000 -0.000  0.055
 -0.000  0.552  0.027  0.000  0.000
 -0.000  0.027  0.552  0.000  0.000
 -0.000  0.000  0.000  0.526 -0.000
  0.055  0.000  0.000 -0.000  0.596
atomic mag. moment =     0.000002
atom   12   Tr[ns(na)] (up, down, total) =   2.90933  2.90933  5.81866
   spin  1
    eigenvalues: 
  0.525  0.526  0.569  0.578  0.710
    eigenvectors:
  0.000  0.000  0.187  0.000  0.813
  0.500  0.000  0.000  0.500  0.000
  0.500  0.000  0.000  0.500  0.000
  0.000  1.000  0.000  0.000  0.000
  0.000  0.000  0.813  0.000  0.187
    occupations:
  0.684 -0.000  0.000  0.000 -0.055
 -0.000  0.552 -0.027 -0.000  0.000
  0.000 -0.027  0.552  0.000 -0.000
  0.000 -0.000  0.000  0.526 -0.000
 -0.055  0.000 -0.000 -0.000  0.595
   spin  2
    eigenvalues: 
  0.525  0.526  0.569  0.578  0.710
    eigenvectors:
  0.000  0.000  0.187  0.000  0.813
  0.500  0.000  0.000  0.500  0.000
  0.500  0.000  0.000  0.500  0.000
  0.000  1.000  0.000  0.000  0.000
  0.000  0.000  0.813  0.000  0.187
    occupations:
  0.684 -0.000  0.000  0.000 -0.055
 -0.000  0.552 -0.027 -0.000  0.000
  0.000 -0.027  0.552  0.000 -0.000
  0.000 -0.000  0.000  0.526 -0.000
 -0.055  0.000 -0.000 -0.000  0.595
atomic mag. moment =     0.000001
atom   13   Tr[ns(na)] (up, down, total) =   2.90779  2.90779  5.81558
   spin  1
    eigenvalues: 
  0.525  0.526  0.569  0.578  0.710
    eigenvectors:
  0.000  0.000  0.187  0.000  0.813
  0.500  0.000  0.000  0.500  0.000
  0.500  0.000  0.000  0.500  0.000
  0.000  1.000  0.000  0.000  0.000
  0.000  0.000  0.813  0.000  0.187
    occupations:
  0.683 -0.000 -0.000 -0.000  0.055
 -0.000  0.552  0.026  0.000  0.000
 -0.000  0.026  0.552  0.000  0.000
 -0.000  0.000  0.000  0.526 -0.000
  0.055  0.000  0.000 -0.000  0.595
   spin  2
    eigenvalues: 
  0.525  0.526  0.569  0.578  0.710
    eigenvectors:
  0.000  0.000  0.187  0.000  0.813
  0.500  0.000  0.000  0.500  0.000
  0.500  0.000  0.000  0.500  0.000
  0.000  1.000  0.000  0.000  0.000
  0.000  0.000  0.813  0.000  0.187
    occupations:
  0.683 -0.000 -0.000 -0.000  0.055
 -0.000  0.552  0.026  0.000  0.000
 -0.000  0.026  0.552  0.000  0.000
 -0.000  0.000  0.000  0.526 -0.000
  0.055  0.000  0.000 -0.000  0.595
atomic mag. moment =    -0.000003
atom   14   Tr[ns(na)] (up, down, total) =   2.90917  2.90917  5.81834
   spin  1
    eigenvalues: 
  0.525  0.526  0.569  0.578  0.710
    eigenvectors:
  0.000  0.000  0.186  0.000  0.814
  0.500  0.000  0.000  0.500  0.000
  0.500  0.000  0.000  0.500  0.000
  0.000  1.000  0.000  0.000  0.000
  0.000  0.000  0.814  0.000  0.186
    occupations:
  0.684 -0.000 -0.000 -0.000 -0.055
 -0.000  0.552 -0.027  0.000 -0.000
 -0.000 -0.027  0.552 -0.000 -0.000
 -0.000  0.000 -0.000  0.526 -0.000
 -0.055 -0.000 -0.000 -0.000  0.595
   spin  2
    eigenvalues: 
  0.525  0.526  0.569  0.578  0.710
    eigenvectors:
  0.000  0.000  0.186  0.000  0.814
  0.500  0.000  0.000  0.500  0.000
  0.500  0.000  0.000  0.500  0.000
  0.000  1.000  0.000  0.000  0.000
  0.000  0.000  0.814  0.000  0.186
    occupations:
  0.684 -0.000 -0.000 -0.000 -0.055
 -0.000  0.552 -0.027  0.000 -0.000
 -0.000 -0.027  0.552 -0.000 -0.000
 -0.000  0.000 -0.000  0.526 -0.000
 -0.055 -0.000 -0.000 -0.000  0.595
atomic mag. moment =     0.000001
atom   15   Tr[ns(na)] (up, down, total) =   2.91012  2.91012  5.82024
   spin  1
    eigenvalues: 
  0.525  0.526  0.569  0.579  0.710
    eigenvectors:
  0.000  0.000  0.186  0.000  0.814
  0.500  0.000  0.000  0.500  0.000
  0.500  0.000  0.000  0.500  0.000
  0.000  1.000  0.000  0.000  0.000
  0.000  0.000  0.814  0.000  0.186
    occupations:
  0.684 -0.000 -0.000 -0.000  0.055
 -0.000  0.552  0.027  0.000  0.000
 -0.000  0.027  0.552  0.000  0.000
 -0.000  0.000  0.000  0.526 -0.000
  0.055  0.000  0.000 -0.000  0.596
   spin  2
    eigenvalues: 
  0.525  0.526  0.569  0.579  0.710
    eigenvectors:
  0.000  0.000  0.186  0.000  0.814
  0.500  0.000  0.000  0.500  0.000
  0.500  0.000  0.000  0.500  0.000
  0.000  1.000  0.000  0.000  0.000
  0.000  0.000  0.814  0.000  0.186
    occupations:
  0.684 -0.000 -0.000 -0.000  0.055
 -0.000  0.552  0.027  0.000  0.000
 -0.000  0.027  0.552  0.000  0.000
 -0.000  0.000  0.000  0.526 -0.000
  0.055  0.000  0.000 -0.000  0.596
atomic mag. moment =     0.000000
atom   16   Tr[ns(na)] (up, down, total) =   2.90917  2.90917  5.81834
   spin  1
    eigenvalues: 
  0.525  0.526  0.569  0.578  0.710
    eigenvectors:
  0.000  0.000  0.186  0.000  0.814
  0.500  0.000  0.000  0.500  0.000
  0.500  0.000  0.000  0.500  0.000
  0.000  1.000  0.000  0.000  0.000
  0.000  0.000  0.814  0.000  0.186
    occupations:
  0.684  0.000  0.000 -0.000 -0.055
  0.000  0.552 -0.027 -0.000  0.000
  0.000 -0.027  0.552  0.000  0.000
 -0.000 -0.000  0.000  0.526 -0.000
 -0.055  0.000  0.000 -0.000  0.595
   spin  2
    eigenvalues: 
  0.525  0.526  0.569  0.578  0.710
    eigenvectors:
  0.000  0.000  0.186  0.000  0.814
  0.500  0.000  0.000  0.500  0.000
  0.500  0.000  0.000  0.500  0.000
  0.000  1.000  0.000  0.000  0.000
  0.000  0.000  0.814  0.000  0.186
    occupations:
  0.684  0.000  0.000 -0.000 -0.055
  0.000  0.552 -0.027 -0.000  0.000
  0.000 -0.027  0.552  0.000  0.000
 -0.000 -0.000  0.000  0.526 -0.000
 -0.055  0.000  0.000 -0.000  0.595
atomic mag. moment =     0.000001
atom   17   Tr[ns(na)] (up, down, total) =   2.70528  2.70528  5.41056
   spin  1
    eigenvalues: 
  0.900  0.902  0.903
    eigenvectors:
  0.000  0.000  1.000
  0.500  0.500  0.000
  0.500  0.500  0.000
    occupations:
  0.903 -0.000 -0.000
 -0.000  0.901  0.001
 -0.000  0.001  0.901
   spin  2
    eigenvalues: 
  0.900  0.902  0.903
    eigenvectors:
  0.000  0.000  1.000
  0.500  0.500  0.000
  0.500  0.500  0.000
    occupations:
  0.903 -0.000 -0.000
 -0.000  0.901  0.001
 -0.000  0.001  0.901
atomic mag. moment =     0.000000
atom   18   Tr[ns(na)] (up, down, total) =   2.70517  2.70517  5.41034
   spin  1
    eigenvalues: 
  0.900  0.902  0.903
    eigenvectors:
  0.000  0.000  1.000
  0.500  0.500  0.000
  0.500  0.500  0.000
    occupations:
  0.903 -0.000 -0.000
 -0.000  0.901  0.001
 -0.000  0.001  0.901
   spin  2
    eigenvalues: 
  0.900  0.902  0.903
    eigenvectors:
  0.000  0.000  1.000
  0.500  0.500  0.000
  0.500  0.500  0.000
    occupations:
  0.903 -0.000 -0.000
 -0.000  0.901  0.001
 -0.000  0.001  0.901
atomic mag. moment =     0.000000
atom   19   Tr[ns(na)] (up, down, total) =   2.70509  2.70509  5.41017
   spin  1
    eigenvalues: 
  0.900  0.902  0.903
    eigenvectors:
  0.000  0.000  1.000
  0.500  0.500  0.000
  0.500  0.500  0.000
    occupations:
  0.903 -0.000  0.000
 -0.000  0.901 -0.001
  0.000 -0.001  0.901
   spin  2
    eigenvalues: 
  0.900  0.902  0.903
    eigenvectors:
  0.000  0.000  1.000
  0.500  0.500  0.000
  0.500  0.500  0.000
    occupations:
  0.903 -0.000  0.000
 -0.000  0.901 -0.001
  0.000 -0.001  0.901
atomic mag. moment =    -0.000000
atom   20   Tr[ns(na)] (up, down, total) =   2.70509  2.70509  5.41017
   spin  1
    eigenvalues: 
  0.900  0.902  0.903
    eigenvectors:
  0.000  0.000  1.000
  0.500  0.500  0.000
  0.500  0.500  0.000
    occupations:
  0.903  0.000 -0.000
  0.000  0.901 -0.001
 -0.000 -0.001  0.901
   spin  2
    eigenvalues: 
  0.900  0.902  0.903
    eigenvectors:
  0.000  0.000  1.000
  0.500  0.500  0.000
  0.500  0.500  0.000
    occupations:
  0.903  0.000 -0.000
  0.000  0.901 -0.001
 -0.000 -0.001  0.901
atomic mag. moment =    -0.000000
atom   21   Tr[ns(na)] (up, down, total) =   2.70517  2.70517  5.41034
   spin  1
    eigenvalues: 
  0.900  0.902  0.903
    eigenvectors:
  0.000  0.000  1.000
  0.500  0.500  0.000
  0.500  0.500  0.000
    occupations:
  0.903 -0.000 -0.000
 -0.000  0.901  0.001
 -0.000  0.001  0.901
   spin  2
    eigenvalues: 
  0.900  0.902  0.903
    eigenvectors:
  0.000  0.000  1.000
  0.500  0.500  0.000
  0.500  0.500  0.000
    occupations:
  0.903 -0.000 -0.000
 -0.000  0.901  0.001
 -0.000  0.001  0.901
atomic mag. moment =     0.000000
atom   22   Tr[ns(na)] (up, down, total) =   2.70498  2.70498  5.40996
   spin  1
    eigenvalues: 
  0.900  0.902  0.903
    eigenvectors:
  0.000  0.000  1.000
  0.500  0.500  0.000
  0.500  0.500  0.000
    occupations:
  0.903 -0.000 -0.000
 -0.000  0.901  0.001
 -0.000  0.001  0.901
   spin  2
    eigenvalues: 
  0.900  0.902  0.903
    eigenvectors:
  0.000  0.000  1.000
  0.500  0.500  0.000
  0.500  0.500  0.000
    occupations:
  0.903 -0.000 -0.000
 -0.000  0.901  0.001
 -0.000  0.001  0.901
atomic mag. moment =     0.000000
atom   23   Tr[ns(na)] (up, down, total) =   2.70509  2.70509  5.41017
   spin  1
    eigenvalues: 
  0.900  0.902  0.903
    eigenvectors:
  0.000  0.000  1.000
  0.500  0.500  0.000
  0.500  0.500  0.000
    occupations:
  0.903  0.000 -0.000
  0.000  0.901 -0.001
 -0.000 -0.001  0.901
   spin  2
    eigenvalues: 
  0.900  0.902  0.903
    eigenvectors:
  0.000  0.000  1.000
  0.500  0.500  0.000
  0.500  0.500  0.000
    occupations:
  0.903  0.000 -0.000
  0.000  0.901 -0.001
 -0.000 -0.001  0.901
atomic mag. moment =    -0.000000
atom   24   Tr[ns(na)] (up, down, total) =   2.70509  2.70509  5.41017
   spin  1
    eigenvalues: 
  0.900  0.902  0.903
    eigenvectors:
  0.000  0.000  1.000
  0.500  0.500  0.000
  0.500  0.500  0.000
    occupations:
  0.903 -0.000  0.000
 -0.000  0.901 -0.001
  0.000 -0.001  0.901
   spin  2
    eigenvalues: 
  0.900  0.902  0.903
    eigenvectors:
  0.000  0.000  1.000
  0.500  0.500  0.000
  0.500  0.500  0.000
    occupations:
  0.903 -0.000  0.000
 -0.000  0.901 -0.001
  0.000 -0.001  0.901
atomic mag. moment =    -0.000000
atom   25   Tr[ns(na)] (up, down, total) =   2.70512  2.70512  5.41025
   spin  1
    eigenvalues: 
  0.900  0.902  0.903
    eigenvectors:
  0.000  0.000  1.000
  0.500  0.500  0.000
  0.500  0.500  0.000
    occupations:
  0.903 -0.000 -0.000
 -0.000  0.901  0.001
 -0.000  0.001  0.901
   spin  2
    eigenvalues: 
  0.900  0.902  0.903
    eigenvectors:
  0.000  0.000  1.000
  0.500  0.500  0.000
  0.500  0.500  0.000
    occupations:
  0.903 -0.000 -0.000
 -0.000  0.901  0.001
 -0.000  0.001  0.901
atomic mag. moment =     0.000000
atom   26   Tr[ns(na)] (up, down, total) =   2.70517  2.70517  5.41034
   spin  1
    eigenvalues: 
  0.900  0.902  0.903
    eigenvectors:
  0.000  0.000  1.000
  0.500  0.500  0.000
  0.500  0.500  0.000
    occupations:
  0.903 -0.000 -0.000
 -0.000  0.901  0.001
 -0.000  0.001  0.901
   spin  2
    eigenvalues: 
  0.900  0.902  0.903
    eigenvectors:
  0.000  0.000  1.000
  0.500  0.500  0.000
  0.500  0.500  0.000
    occupations:
  0.903 -0.000 -0.000
 -0.000  0.901  0.001
 -0.000  0.001  0.901
atomic mag. moment =     0.000000
atom   27   Tr[ns(na)] (up, down, total) =   2.70500  2.70500  5.41001
   spin  1
    eigenvalues: 
  0.900  0.902  0.903
    eigenvectors:
  0.000  0.000  1.000
  0.500  0.500  0.000
  0.500  0.500  0.000
    occupations:
  0.903  0.000 -0.000
  0.000  0.901 -0.001
 -0.000 -0.001  0.901
   spin  2
    eigenvalues: 
  0.900  0.902  0.903
    eigenvectors:
  0.000  0.000  1.000
  0.500  0.500  0.000
  0.500  0.500  0.000
    occupations:
  0.903  0.000 -0.000
  0.000  0.901 -0.001
 -0.000 -0.001  0.901
atomic mag. moment =    -0.000000
atom   28   Tr[ns(na)] (up, down, total) =   2.70516  2.70516  5.41032
   spin  1
    eigenvalues: 
  0.900  0.902  0.903
    eigenvectors:
  0.000  0.000  1.000
  0.500  0.500  0.000
  0.500  0.500  0.000
    occupations:
  0.903 -0.000  0.000
 -0.000  0.901 -0.001
  0.000 -0.001  0.901
   spin  2
    eigenvalues: 
  0.900  0.902  0.903
    eigenvectors:
  0.000  0.000  1.000
  0.500  0.500  0.000
  0.500  0.500  0.000
    occupations:
  0.903 -0.000  0.000
 -0.000  0.901 -0.001
  0.000 -0.001  0.901
atomic mag. moment =    -0.000000
atom   29   Tr[ns(na)] (up, down, total) =   2.70500  2.70500  5.40999
   spin  1
    eigenvalues: 
  0.900  0.902  0.903
    eigenvectors:
  0.000  0.000  1.000
  0.500  0.500  0.000
  0.500  0.500  0.000
    occupations:
  0.903 -0.000 -0.000
 -0.000  0.901  0.001
 -0.000  0.001  0.901
   spin  2
    eigenvalues: 
  0.900  0.902  0.903
    eigenvectors:
  0.000  0.000  1.000
  0.500  0.500  0.000
  0.500  0.500  0.000
    occupations:
  0.903 -0.000 -0.000
 -0.000  0.901  0.001
 -0.000  0.001  0.901
atomic mag. moment =    -0.000000
atom   30   Tr[ns(na)] (up, down, total) =   2.70504  2.70504  5.41007
   spin  1
    eigenvalues: 
  0.900  0.902  0.903
    eigenvectors:
  0.000  0.000  1.000
  0.500  0.500  0.000
  0.500  0.500  0.000
    occupations:
  0.903 -0.000 -0.000
 -0.000  0.901  0.001
 -0.000  0.001  0.901
   spin  2
    eigenvalues: 
  0.900  0.902  0.903
    eigenvectors:
  0.000  0.000  1.000
  0.500  0.500  0.000
  0.500  0.500  0.000
    occupations:
  0.903 -0.000 -0.000
 -0.000  0.901  0.001
 -0.000  0.001  0.901
atomic mag. moment =    -0.000000
atom   31   Tr[ns(na)] (up, down, total) =   2.70500  2.70500  5.41001
   spin  1
    eigenvalues: 
  0.900  0.902  0.903
    eigenvectors:
  0.000  0.000  1.000
  0.500  0.500  0.000
  0.500  0.500  0.000
    occupations:
  0.903 -0.000  0.000
 -0.000  0.901 -0.001
  0.000 -0.001  0.901
   spin  2
    eigenvalues: 
  0.900  0.902  0.903
    eigenvectors:
  0.000  0.000  1.000
  0.500  0.500  0.000
  0.500  0.500  0.000
    occupations:
  0.903 -0.000  0.000
 -0.000  0.901 -0.001
  0.000 -0.001  0.901
atomic mag. moment =    -0.000000
atom   32   Tr[ns(na)] (up, down, total) =   2.70516  2.70516  5.41032
   spin  1
    eigenvalues: 
  0.900  0.902  0.903
    eigenvectors:
  0.000  0.000  1.000
  0.500  0.500  0.000
  0.500  0.500  0.000
    occupations:
  0.903  0.000 -0.000
  0.000  0.901 -0.001
 -0.000 -0.001  0.901
   spin  2
    eigenvalues: 
  0.900  0.902  0.903
    eigenvectors:
  0.000  0.000  1.000
  0.500  0.500  0.000
  0.500  0.500  0.000
    occupations:
  0.903  0.000 -0.000
  0.000  0.901 -0.001
 -0.000 -0.001  0.901
atomic mag. moment =    -0.000000
atom   33   Tr[ns(na)] (up, down, total) =   2.70512  2.70512  5.41025
   spin  1
    eigenvalues: 
  0.900  0.902  0.903
    eigenvectors:
  0.000  0.000  1.000
  0.500  0.500  0.000
  0.500  0.500  0.000
    occupations:
  0.903 -0.000 -0.000
 -0.000  0.901  0.001
 -0.000  0.001  0.901
   spin  2
    eigenvalues: 
  0.900  0.902  0.903
    eigenvectors:
  0.000  0.000  1.000
  0.500  0.500  0.000
  0.500  0.500  0.000
    occupations:
  0.903 -0.000 -0.000
 -0.000  0.901  0.001
 -0.000  0.001  0.901
atomic mag. moment =     0.000000
atom   34   Tr[ns(na)] (up, down, total) =   2.70517  2.70517  5.41034
   spin  1
    eigenvalues: 
  0.900  0.902  0.903
    eigenvectors:
  0.000  0.000  1.000
  0.500  0.500  0.000
  0.500  0.500  0.000
    occupations:
  0.903 -0.000 -0.000
 -0.000  0.901  0.001
 -0.000  0.001  0.901
   spin  2
    eigenvalues: 
  0.900  0.902  0.903
    eigenvectors:
  0.000  0.000  1.000
  0.500  0.500  0.000
  0.500  0.500  0.000
    occupations:
  0.903 -0.000 -0.000
 -0.000  0.901  0.001
 -0.000  0.001  0.901
atomic mag. moment =     0.000000
atom   35   Tr[ns(na)] (up, down, total) =   2.70516  2.70516  5.41032
   spin  1
    eigenvalues: 
  0.900  0.902  0.903
    eigenvectors:
  0.000  0.000  1.000
  0.500  0.500  0.000
  0.500  0.500  0.000
    occupations:
  0.903  0.000 -0.000
  0.000  0.901 -0.001
 -0.000 -0.001  0.901
   spin  2
    eigenvalues: 
  0.900  0.902  0.903
    eigenvectors:
  0.000  0.000  1.000
  0.500  0.500  0.000
  0.500  0.500  0.000
    occupations:
  0.903  0.000 -0.000
  0.000  0.901 -0.001
 -0.000 -0.001  0.901
atomic mag. moment =    -0.000000
atom   36   Tr[ns(na)] (up, down, total) =   2.70500  2.70500  5.41001
   spin  1
    eigenvalues: 
  0.900  0.902  0.903
    eigenvectors:
  0.000  0.000  1.000
  0.500  0.500  0.000
  0.500  0.500  0.000
    occupations:
  0.903 -0.000  0.000
 -0.000  0.901 -0.001
  0.000 -0.001  0.901
   spin  2
    eigenvalues: 
  0.900  0.902  0.903
    eigenvectors:
  0.000  0.000  1.000
  0.500  0.500  0.000
  0.500  0.500  0.000
    occupations:
  0.903 -0.000  0.000
 -0.000  0.901 -0.001
  0.000 -0.001  0.901
atomic mag. moment =    -0.000000
atom   37   Tr[ns(na)] (up, down, total) =   2.70500  2.70500  5.40999
   spin  1
    eigenvalues: 
  0.900  0.902  0.903
    eigenvectors:
  0.000  0.000  1.000
  0.500  0.500  0.000
  0.500  0.500  0.000
    occupations:
  0.903 -0.000 -0.000
 -0.000  0.901  0.001
 -0.000  0.001  0.901
   spin  2
    eigenvalues: 
  0.900  0.902  0.903
    eigenvectors:
  0.000  0.000  1.000
  0.500  0.500  0.000
  0.500  0.500  0.000
    occupations:
  0.903 -0.000 -0.000
 -0.000  0.901  0.001
 -0.000  0.001  0.901
atomic mag. moment =    -0.000000
atom   38   Tr[ns(na)] (up, down, total) =   2.70504  2.70504  5.41007
   spin  1
    eigenvalues: 
  0.900  0.902  0.903
    eigenvectors:
  0.000  0.000  1.000
  0.500  0.500  0.000
  0.500  0.500  0.000
    occupations:
  0.903 -0.000 -0.000
 -0.000  0.901  0.001
 -0.000  0.001  0.901
   spin  2
    eigenvalues: 
  0.900  0.902  0.903
    eigenvectors:
  0.000  0.000  1.000
  0.500  0.500  0.000
  0.500  0.500  0.000
    occupations:
  0.903 -0.000 -0.000
 -0.000  0.901  0.001
 -0.000  0.001  0.901
atomic mag. moment =    -0.000000
atom   39   Tr[ns(na)] (up, down, total) =   2.70516  2.70516  5.41032
   spin  1
    eigenvalues: 
  0.900  0.902  0.903
    eigenvectors:
  0.000  0.000  1.000
  0.500  0.500  0.000
  0.500  0.500  0.000
    occupations:
  0.903 -0.000  0.000
 -0.000  0.901 -0.001
  0.000 -0.001  0.901
   spin  2
    eigenvalues: 
  0.900  0.902  0.903
    eigenvectors:
  0.000  0.000  1.000
  0.500  0.500  0.000
  0.500  0.500  0.000
    occupations:
  0.903 -0.000  0.000
 -0.000  0.901 -0.001
  0.000 -0.001  0.901
atomic mag. moment =    -0.000000
atom   40   Tr[ns(na)] (up, down, total) =   2.70500  2.70500  5.41001
   spin  1
    eigenvalues: 
  0.900  0.902  0.903
    eigenvectors:
  0.000  0.000  1.000
  0.500  0.500  0.000
  0.500  0.500  0.000
    occupations:
  0.903  0.000 -0.000
  0.000  0.901 -0.001
 -0.000 -0.001  0.901
   spin  2
    eigenvalues: 
  0.900  0.902  0.903
    eigenvectors:
  0.000  0.000  1.000
  0.500  0.500  0.000
  0.500  0.500  0.000
    occupations:
  0.903  0.000 -0.000
  0.000  0.901 -0.001
 -0.000 -0.001  0.901
atomic mag. moment =    -0.000000
atom   41   Tr[ns(na)] (up, down, total) =   2.70529  2.70529  5.41057
   spin  1
    eigenvalues: 
  0.900  0.902  0.903
    eigenvectors:
  0.000  0.000  1.000
  0.500  0.500  0.000
  0.500  0.500  0.000
    occupations:
  0.903 -0.000 -0.000
 -0.000  0.901  0.001
 -0.000  0.001  0.901
   spin  2
    eigenvalues: 
  0.900  0.902  0.903
    eigenvectors:
  0.000  0.000  1.000
  0.500  0.500  0.000
  0.500  0.500  0.000
    occupations:
  0.903 -0.000 -0.000
 -0.000  0.901  0.001
 -0.000  0.001  0.901
atomic mag. moment =     0.000000
atom   42   Tr[ns(na)] (up, down, total) =   2.70481  2.70481  5.40962
   spin  1
    eigenvalues: 
  0.900  0.902  0.903
    eigenvectors:
  0.000  0.000  1.000
  0.500  0.500  0.000
  0.500  0.500  0.000
    occupations:
  0.903 -0.000 -0.000
 -0.000  0.901  0.001
 -0.000  0.001  0.901
   spin  2
    eigenvalues: 
  0.900  0.902  0.903
    eigenvectors:
  0.000  0.000  1.000
  0.500  0.500  0.000
  0.500  0.500  0.000
    occupations:
  0.903 -0.000 -0.000
 -0.000  0.901  0.001
 -0.000  0.001  0.901
atomic mag. moment =     0.000000
atom   43   Tr[ns(na)] (up, down, total) =   2.70516  2.70516  5.41032
   spin  1
    eigenvalues: 
  0.900  0.902  0.903
    eigenvectors:
  0.000  0.000  1.000
  0.500  0.500  0.000
  0.500  0.500  0.000
    occupations:
  0.903 -0.000  0.000
 -0.000  0.901 -0.001
  0.000 -0.001  0.901
   spin  2
    eigenvalues: 
  0.900  0.902  0.903
    eigenvectors:
  0.000  0.000  1.000
  0.500  0.500  0.000
  0.500  0.500  0.000
    occupations:
  0.903 -0.000  0.000
 -0.000  0.901 -0.001
  0.000 -0.001  0.901
atomic mag. moment =    -0.000000
atom   44   Tr[ns(na)] (up, down, total) =   2.70516  2.70516  5.41032
   spin  1
    eigenvalues: 
  0.900  0.902  0.903
    eigenvectors:
  0.000  0.000  1.000
  0.500  0.500  0.000
  0.500  0.500  0.000
    occupations:
  0.903  0.000 -0.000
  0.000  0.901 -0.001
 -0.000 -0.001  0.901
   spin  2
    eigenvalues: 
  0.900  0.902  0.903
    eigenvectors:
  0.000  0.000  1.000
  0.500  0.500  0.000
  0.500  0.500  0.000
    occupations:
  0.903  0.000 -0.000
  0.000  0.901 -0.001
 -0.000 -0.001  0.901
atomic mag. moment =    -0.000000
atom   45   Tr[ns(na)] (up, down, total) =   2.70516  2.70516  5.41032
   spin  1
    eigenvalues: 
  0.900  0.902  0.903
    eigenvectors:
  0.000  0.000  1.000
  0.500  0.500  0.000
  0.500  0.500  0.000
    occupations:
  0.903 -0.000 -0.000
 -0.000  0.901  0.001
 -0.000  0.001  0.901
[...]
    -6.0547  -6.0202  -5.8417  -5.8270  -5.8008  -5.7880  -5.7879  -5.7787
    -5.6510  -5.5978  -5.4975  -5.4915  -5.4915  -5.4840  -5.3046  -5.3046
     4.7086   4.7399   5.1355   5.1355   5.1377   5.1378   5.1392   5.2470
     5.2665   5.2665   5.4719   5.4852   5.5049   5.5284   5.5284   5.5983
     5.6075   5.6202   5.6203   5.9464   5.9464   5.9828   6.1698   6.1898
     6.3601   6.3836   6.3837   6.5179   6.5512   6.6263   6.6264   6.7723
     6.7977   6.9923   6.9924   7.0263   7.0874   7.3958   7.3959   7.4960
     7.5059   7.5059   7.5948   7.7164   7.8373   7.8652   7.8827   7.9279
     7.9437   7.9437   7.9613   8.0279   8.0588   8.0588   8.0662   8.0748
     8.0748   8.1279   8.2609   8.2610   8.4318   8.5830   8.5831   8.6510
     8.6517   8.6517   8.6518   8.7353   8.9371   8.9746   8.9747   9.0979
     9.1550   9.3729   9.3729   9.3799   9.4072   9.4584   9.4794   9.4794
     9.5385   9.5459   9.5460   9.5612   9.5613   9.5894   9.7626   9.7842
     9.8256   9.8257   9.8894  10.0565  10.1477  10.1479  10.2126  10.5566
    10.5789  10.6578  11.0397  11.0705  11.0706  11.0984  11.3686  11.3686
    12.0872  12.0872  12.2326  12.2326  12.4681  12.8259  12.8833  12.9162
    13.2378  13.5668  13.7028  13.7269  13.8251  13.9299  13.9299  14.1123
    14.1214  14.1214  14.1355  14.1430  14.1549  14.1549  14.3989  14.4888
    14.4888  14.5764  14.5847  14.5848  15.0018  15.0361  15.0362  15.8014
    15.8660  15.8661  16.0307  16.0898  16.1105  16.1669  16.2031  16.2031
    16.2216  16.3115  16.3116  16.4299  16.6784  16.7680  16.7680  16.8941
    16.8941  16.9351  16.9351  17.0764  17.2573  17.2642  17.2642  17.2691
    17.5535  17.5635  17.5996  17.7410  17.9177  17.9644  18.1174  18.1174
    18.1851  18.2991  19.0210  19.3521  19.3521  19.3569  19.8190  19.8190
    19.9498  20.1769  20.1770  21.0800  21.4887  21.4888  21.8643  22.1403
    22.2675  22.3948  22.6584  22.6585  22.9096  22.9125  22.9125  22.9215
    23.0700  23.0758  23.1894  23.1895  23.2791  23.3267  23.8288  24.2884
    24.2885  24.5000  24.5001  24.5266  24.5266  24.7513  24.9696  25.0434
    25.2181  25.2895  25.2895  25.4157  25.5533  25.7245  25.7246  25.9661
    25.9662  26.0342  26.0343  26.2123  26.2688  26.3871  26.4044  26.4122
    27.2511  27.2511  27.7379  28.0183  28.0183  28.0387  28.0579  28.2024
    28.2024  28.2239  28.3255  28.3745  28.5097  28.5239  28.5239  28.5376
    28.7415  28.8318  28.8552  28.8553  28.9483  29.0405  29.0406  29.1508
    29.3431  29.5357  30.2754  30.3730  30.3730  30.5679  30.5679  30.5734
    30.5734  30.6064  30.6064  31.0143  31.4032  31.4423  31.7232  31.7919
    31.9449  31.9503  31.9503  32.0045  32.0320  32.0320  32.1309  32.3266
    32.4073  32.4446  32.5036  32.6195  32.6501  32.6501  32.8177  33.2677
    33.3703  33.4481  33.4482  33.7368  33.7368  33.7430  33.7430  33.9996
    34.1027  34.1027  34.2059  34.2902  34.4412  34.4412  34.5832  35.0859
    35.1154  35.1154  35.1252  35.1653  35.2424  35.2425  35.4249  35.5343
    35.6545  35.6545  35.7687  35.8335  35.8506  35.8597  35.9387  36.1604
    36.2576  36.2842  36.2843  36.3200  36.6733  36.6789  36.6789  36.7753
    36.7753  36.8344  37.1572  37.2133  37.2133  37.7598  38.2654  38.2655
    38.3022  38.3191  38.3191  38.3201  38.4467  38.5205  38.5205  38.7742
    38.8051  38.8977  38.8977  38.9307  39.2770  39.3927  39.3927  39.3942
    39.4633  39.7886  39.8049  39.9295  39.9295  40.0317  40.0317  40.2257
    40.3858  40.5567  40.5567  40.7146  41.0815  41.0816  41.1183  41.1997
    41.1997  41.2064  41.2065  41.3061  41.4734  41.4895  41.4895  41.5575
    41.6229  42.2292  42.2955  42.3370  42.3636  42.4365  42.7347  42.8205
    42.8205  42.8506  42.8681  42.9223  42.9223  43.0341  43.0342  43.1807
    43.2255  43.2255  43.3588  43.4420  43.4639  43.5957  43.6238  43.6640
    43.6640  43.7752  43.7753  43.8926  43.9742  43.9742  44.0083  44.0137
    44.1284  44.1284  44.2414  44.2667  44.4527  44.5322  44.5323  44.7690
    44.7690  44.8377  44.8377  44.8933  44.9150  44.9219  44.9258  44.9496
    45.0453  45.0454  45.3128  45.3129  45.4314  45.4492  45.4865  45.6974
    45.7176  45.7437  45.8565  45.8756  45.9535  45.9535  45.9546  45.9858
    46.0160  46.1293  46.1294  46.2062  46.2391  46.2630  46.2630  46.4037
    46.4422  46.5218  46.5219  46.5494  46.6413  46.6413  46.7666  46.7666
    46.8651  46.8651  46.9356  47.2066  47.2116  47.2116  47.2199  47.2531
    47.2567  47.3924  47.4065  47.4065  47.4888  47.5611  47.7689  47.8389
    47.9051  47.9051  47.9114  47.9354  47.9354  47.9895  48.2936  48.3423
    48.3424  48.6751  48.8292  48.8352  48.8352  48.8533  48.9886  48.9886
    49.3955  49.3956  49.4213  49.5232  49.5490  49.6461  49.7701  49.8107
    49.8231  49.8232  49.9594  50.0187  50.0187  50.2130  50.2200  50.2463
    50.2463  50.2578  50.2578  50.3828  50.3828  50.4395  50.4395  50.6934
    50.9218  50.9218  50.9290  50.9291  51.0139  51.0709  51.3926  51.5549
    51.5549  51.6004  51.6405  51.7983  51.9187  51.9966  51.9966  52.0695
    52.0695  52.1493  52.1606  52.2151  52.2151  52.2398  52.4110  52.5131

          k = 0.2500-0.2500 0.4533 ( 15434 PWs)   bands (ev):

   -49.3336 -49.3314 -49.3313 -49.3304 -49.3291 -49.3282 -49.3281 -49.3259
   -49.2488 -49.2479 -49.2478 -49.2474 -49.2468 -49.2465 -49.2465 -49.2455
   -23.7689 -23.7688 -23.7657 -23.7641 -23.7640 -23.7638 -23.7598 -23.7583
   -23.6334 -23.6291 -23.6225 -23.6202 -23.6202 -23.6180 -23.6076 -23.6075
   -23.5352 -23.5340 -23.5289 -23.5283 -23.5283 -23.5277 -23.5219 -23.5218
   -23.3964 -23.3964 -23.3841 -23.3827 -23.3826 -23.3810 -23.3717 -23.3690
   -23.2484 -23.2483 -23.2467 -23.2466 -23.2466 -23.2466 -23.2453 -23.2452
   -23.0367 -23.0307 -23.0307 -23.0289 -23.0258 -23.0231 -23.0230 -23.0182
    -6.9608  -6.6793  -6.6651  -6.6650  -6.5127  -6.4299  -6.4298  -6.3250
    -6.3082  -6.2971  -6.2929  -6.2929  -6.2086  -6.2084  -6.1041  -6.1039
    -5.9901  -5.9894  -5.9534  -5.9523  -5.8498  -5.8124  -5.8123  -5.8046
    -5.7038  -5.6535  -5.6232  -5.6231  -5.6154  -5.5960  -5.4547  -5.4547
     4.9785   5.0332   5.1853   5.1854   5.3604   5.3604   5.3669   5.4325
     5.4326   5.4326   5.4333   5.4853   5.7253   5.7253   5.7981   5.9070
     5.9074   6.0126   6.0482   6.0482   6.0966   6.0966   6.1184   6.2490
     6.2538   6.2782   6.2782   6.4924   6.4925   6.6197   6.7645   6.7888
     6.8625   6.8858   6.9943   6.9944   6.9981   6.9982   7.0369   7.1791
     7.2221   7.2740   7.4409   7.5547   7.6312   7.6312   7.6910   7.7768
     7.7769   8.0063   8.0063   8.0814   8.1203   8.2622   8.3354   8.3354
     8.3616   8.4037   8.4038   8.4986   8.5748   8.5749   8.5935   8.6085
     8.6086   8.6274   8.6275   8.6980   8.7180   8.8074   8.8276   8.8277
     8.9142   9.0216   9.0618   9.0618   9.1197   9.1215   9.2033   9.2610
     9.2897   9.3912   9.4438   9.4439   9.4545   9.6284   9.6581   9.6902
     9.6903   9.7418   9.8945   9.8946   9.9693  10.1645  10.1646  10.5902
    11.2895  11.3358  11.6758  11.6758  11.6814  11.7278  11.9030  11.9030
    12.1646  12.1646  12.5604  12.5604  12.6511  12.6947  12.7031  12.8960
    13.2542  13.4517  13.5216  13.5216  13.6818  13.8161  13.8181  13.8282
    13.8411  14.0526  14.0526  14.1481  14.1482  14.2308  14.3533  14.3533
    14.5133  14.5576  14.5576  14.7173  14.7367  14.8487  14.8670  14.9578
    14.9655  14.9656  15.0131  15.0146  15.0147  15.3013  15.3013  15.6790
    15.9836  15.9836  16.4005  16.4649  16.4649  16.6295  16.7007  16.7696
    16.7696  16.9502  16.9502  16.9568  17.1332  17.4470  17.4507  17.4744
    17.4877  17.4877  17.7302  17.7399  17.7865  17.9581  18.2596  18.4797
    18.4797  18.7975  18.8927  18.8927  19.0462  19.3729  19.6619  19.6620
    19.9813  20.6011  20.6012  21.3999  21.7921  21.9492  21.9493  22.1742
    22.2302  22.2303  22.3464  22.8828  22.8961  23.1128  23.3369  23.3370
    23.3571  23.5335  23.7014  23.8431  23.8431  23.9845  24.3954  24.5427
    24.5427  24.8271  24.8272  24.9030  24.9031  24.9165  25.3059  25.5702
    25.5745  25.6272  25.6273  25.6952  25.7634  26.0202  26.0203  26.1657
    26.3486  26.3487  26.5168  26.5168  26.6507  26.6664  26.7495  26.9100
    27.4268  27.5170  27.5171  27.6624  27.7425  27.7426  27.9837  28.0036
    28.0931  28.0932  28.4763  28.6079  28.6079  28.6196  28.6379  28.7739
    28.9710  28.9827  29.0250  29.0966  29.0966  29.1041  29.3343  29.4991
    29.4991  29.5472  29.5472  29.8665  29.8777  30.1006  30.1006  30.1647
    30.1647  30.2258  30.8393  30.8394  30.9345  30.9345  31.3083  31.6400
    31.7656  31.7734  31.7735  31.8209  32.0307  32.0310  32.0660  32.0660
    32.4288  32.5971  32.6548  32.9055  32.9568  33.0354  33.0354  33.0565
    33.0565  33.0699  33.2204  33.5723  33.6588  33.7494  33.7494  34.0838
    34.0838  34.1550  34.1550  34.5820  34.5820  34.5927  34.5927  34.6025
    34.8938  35.0781  35.2661  35.3859  35.3859  35.4745  35.5868  35.7438
    35.8254  35.8255  35.9425  35.9891  35.9906  35.9906  36.0490  36.0490
    36.1379  36.1944  36.2484  36.4739  36.6065  36.6915  36.6916  36.7191
    36.8810  37.1049  37.1462  37.7586  37.8120  37.8120  37.8288  37.8956
    37.8956  38.0048  38.0048  38.0515  38.2053  38.4719  38.4719  38.6504
    38.7054  38.7054  38.8854  38.9625  39.0561  39.1811  39.1811  39.2731
    39.2732  39.2827  39.3502  39.6128  39.7146  40.1639  40.2521  40.3288
    40.3288  40.5088  40.6049  40.7310  40.8632  40.8632  40.8940  41.0766
    41.1397  41.1397  41.1642  41.1858  41.1858  41.2949  41.3989  41.3990
    41.6302  41.7099  41.7100  41.8702  42.0107  42.0429  42.2413  42.2413
    42.4681  42.4681  42.6193  42.6193  42.6339  42.6634  42.8482  42.8482
    42.9550  43.0148  43.0895  43.2193  43.2193  43.2215  43.2352  43.5432
    43.6106  43.6459  43.7337  43.7382  43.7382  43.8447  43.8447  43.9711
    43.9759  44.1350  44.1350  44.1533  44.1573  44.1573  44.2896  44.2896
    44.3202  44.5821  44.5821  44.6841  44.7091  44.8314  45.0778  45.1239
    45.1542  45.3531  45.3531  45.4602  45.5555  45.6180  45.6507  45.7597
    45.9803  46.0071  46.0071  46.2931  46.3113  46.4427  46.4427  46.4473
    46.4497  46.4497  46.6634  46.6635  46.7055  46.7056  46.7224  46.8302
    46.8302  46.8831  46.8905  46.8989  47.0105  47.0105  47.0137  47.2033
    47.2287  47.3589  47.3753  47.3753  47.4735  47.4735  47.4755  47.5245
    47.5307  47.6439  47.7075  47.7609  47.8113  47.8113  47.8818  47.8818
    47.8984  47.9752  48.0101  48.0493  48.1204  48.1204  48.1458  48.2843
    48.3120  48.3187  48.3187  48.4917  48.4917  48.5042  48.7811  48.7811
    48.8091  48.9227  48.9228  48.9235  49.1749  49.1818  49.1818  49.2854
    49.4003  49.5597  49.5597  49.7593  50.0480  50.0878  50.0946  50.0946
    50.1020  50.1020  50.4846  50.6547  50.6547  50.7979  50.7997  50.7997
    50.8597  51.0233  51.0234  51.0399  51.1684  51.1684  51.4509  51.5985
    51.7500  51.7925  51.7925  51.8092  51.8529  51.8558  51.8559  51.9796
    52.0782  52.0835  52.1588  52.2207  52.5401  52.5401  52.5563  52.5563

          k = 0.2500-0.2500-0.9066 ( 15408 PWs)   bands (ev):

   -49.2916 -49.2916 -49.2899 -49.2899 -49.2899 -49.2898 -49.2891 -49.2891
   -49.2881 -49.2881 -49.2875 -49.2874 -49.2874 -49.2874 -49.2857 -49.2857
   -23.5836 -23.5836 -23.5809 -23.5809 -23.5809 -23.5809 -23.5796 -23.5796
   -23.5796 -23.5796 -23.5782 -23.5782 -23.5765 -23.5764 -23.5764 -23.5763
   -23.4068 -23.4068 -23.4036 -23.4036 -23.4015 -23.4014 -23.4014 -23.4013
   -23.3977 -23.3977 -23.3948 -23.3948 -23.3947 -23.3947 -23.3947 -23.3947
   -23.3208 -23.3208 -23.3208 -23.3208 -23.3153 -23.3153 -23.3146 -23.3145
   -23.3145 -23.3144 -23.3139 -23.3139 -23.3100 -23.3100 -23.3087 -23.3087
    -6.5842  -6.5841  -6.4335  -6.4335  -6.4335  -6.4334  -6.3531  -6.3530
    -6.2716  -6.2716  -6.2424  -6.2423  -6.2423  -6.2422  -6.1230  -6.1229
    -5.8404  -5.8403  -5.8328  -5.8328  -5.8125  -5.8125  -5.8125  -5.8125
    -5.8054  -5.8053  -5.8052  -5.8052  -5.7969  -5.7967  -5.7892  -5.7892
     5.4449   5.4449   5.4671   5.4671   5.4671   5.4672   5.5344   5.5344
     5.5344   5.5344   5.5377   5.5377   5.6960   5.6961   5.7569   5.7570
     6.1451   6.1451   6.1551   6.1551   6.4380   6.4380   6.4380   6.4380
     6.5161   6.5161   6.5912   6.5912   6.6919   6.6919   6.7053   6.7053
     6.7054   6.7054   7.1556   7.1556   7.1556   7.1556   7.3362   7.3362
     7.3362   7.3363   7.3480   7.3480   7.4617   7.4617   7.5826   7.5826
     7.5826   7.5826   7.6978   7.6978   7.8345   7.8346   7.8485   7.8486
     8.3315   8.3315   8.3315   8.3315   8.4365   8.4366   8.4818   8.4818
     8.5489   8.5490   8.5970   8.5970   8.5970   8.5970   8.5994   8.5994
     8.7058   8.7058   8.8744   8.8744   8.8744   8.8744   9.1337   9.1337
     9.3270   9.3271   9.5558   9.5558   9.6389   9.6389   9.6390   9.6390
     9.8688   9.8688  10.1168  10.1168  10.1169  10.1170  10.3642  10.3642
    12.5141  12.5141  12.5276  12.5276  12.5277  12.5277  12.7031  12.7031
    12.7925  12.7925  12.7925  12.7925  12.7931  12.7931  12.8644  12.8644
    12.9283  12.9283  13.0342  13.0342  13.2299  13.2299  13.2299  13.2299
    13.5327  13.5327  13.5946  13.5946  13.7589  13.7589  13.8059  13.8059
    13.8059  13.8059  14.2522  14.2522  14.3278  14.3278  14.3278  14.3278
    14.5200  14.5200  14.8286  14.8286  14.8286  14.8286  15.2933  15.2933
    16.0382  16.0382  16.0382  16.0382  16.5920  16.5920  16.7032  16.7032
    16.7406  16.7406  16.7406  16.7406  17.3726  17.3726  17.4519  17.4519
    17.4972  17.4972  17.9922  17.9922  18.2194  18.2194  18.2194  18.2194
    18.5460  18.5460  19.1378  19.1378  19.1378  19.1378  19.6136  19.6136
    20.4031  20.4031  21.4509  21.4509  21.4510  21.4510  21.9739  21.9739
    22.6418  22.6418  22.7907  22.7907  22.7908  22.7908  23.7401  23.7401
    24.1162  24.1162  24.1591  24.1591  24.7076  24.7076  24.7798  24.7798
    24.7798  24.7799  25.1769  25.1770  25.1770  25.1770  25.7904  25.7904
    26.0499  26.0499  26.2760  26.2760  26.4834  26.4834  26.4834  26.4834
    27.1317  27.1317  27.2291  27.2292  27.3097  27.3098  27.3098  27.3098
    27.5031  27.5031  27.5031  27.5032  27.6946  27.6946  27.6947  27.6947
    27.8596  27.8597  27.8656  27.8656  27.9059  27.9059  28.3574  28.3574
    28.4266  28.4266  28.4266  28.4266  28.8431  28.8431  29.2884  29.2884
    29.6685  29.6685  30.0978  30.0978  30.0978  30.0978  30.1296  30.1296
    30.2467  30.2468  30.4217  30.4217  30.8247  30.8247  31.2940  31.2940
    31.2940  31.2940  31.5177  31.5177  31.5177  31.5177  32.4004  32.4004
    32.4004  32.4004  32.4276  32.4277  32.7186  32.7186  32.8274  32.8274
    33.4961  33.4961  33.8887  33.8887  34.0480  34.0480  34.0480  34.0480
    34.6875  34.6875  35.0296  35.0296  35.0296  35.0296  35.2192  35.2192
    35.2346  35.2346  35.2346  35.2346  35.4795  35.4795  35.4795  35.4795
    35.4839  35.4839  35.9588  35.9588  36.2093  36.2093  36.3124  36.3124
    36.5623  36.5623  36.5624  36.5624  36.8241  36.8241  36.8770  36.8771
    37.3335  37.3335  37.3963  37.3964  37.6834  37.6834  37.7389  37.7390
    37.7621  37.7621  37.7621  37.7621  37.9148  37.9148  37.9148  37.9148
    37.9967  37.9968  38.5124  38.5124  38.8017  38.8017  38.8017  38.8017
    38.9289  38.9289  39.3542  39.3542  39.3542  39.3542  39.8690  39.8690
    40.2277  40.2277  40.2897  40.2897  40.4462  40.4462  40.4463  40.4463
    40.7390  40.7390  41.4103  41.4104  41.4104  41.4104  41.5570  41.5570
    41.5590  41.5590  41.8645  41.8645  41.8645  41.8645  42.1763  42.1763
    42.2122  42.2122  42.2122  42.2122  42.2390  42.2390  42.3414  42.3414
    42.6062  42.6062  42.6062  42.6062  42.8532  42.8532  43.1732  43.1732
    43.5636  43.5636  43.7714  43.7714  43.8159  43.8159  43.8159  43.8159
    44.0073  44.0073  44.5890  44.5890  44.6744  44.6744  44.6744  44.6744
    44.7879  44.7879  44.9711  44.9711  44.9712  44.9712  45.2831  45.2831
    45.6119  45.6119  45.6217  45.6217  45.6663  45.6663  45.8516  45.8516
    45.8516  45.8516  46.1625  46.1625  46.2700  46.2700  46.2700  46.2700
    46.4978  46.4979  46.7308  46.7309  46.7713  46.7713  46.8415  46.8415
    46.8415  46.8415  46.9009  46.9009  46.9115  46.9115  46.9116  46.9116
    47.0600  47.0600  47.3956  47.3957  47.4493  47.4493  47.4861  47.4861
    47.5627  47.5627  47.5627  47.5627  47.7201  47.7201  47.8546  47.8546
    47.8546  47.8547  48.0622  48.0622  48.0622  48.0622  48.1230  48.1230
    48.3237  48.3238  48.3238  48.3238  48.4793  48.4794  48.8755  48.8755
    48.9345  48.9345  48.9345  48.9345  49.4595  49.4595  49.7948  49.7948
    49.7948  49.7948  49.9266  49.9266  50.0031  50.0031  50.1203  50.1203
    50.1204  50.1204  50.4443  50.4443  50.5560  50.5560  50.5772  50.5772
    50.7638  50.7638  50.9150  50.9150  50.9150  50.9150  51.2852  51.2852
    51.4076  51.4076  51.4076  51.4076  51.7605  51.7605  51.8334  51.8334
    52.2037  52.2037  52.2037  52.2037  52.3712  52.3712  52.6440  52.6440

     the Fermi energy is    12.9471 ev

!    total energy              =   -3262.60218384 Ry
     Harris-Foulkes estimate   =   -3262.60218397 Ry
     estimated scf accuracy    <       0.00000014 Ry

     The total energy is the sum of the following terms:

     one-electron contribution =    -920.60129223 Ry
     hartree contribution      =     690.16969788 Ry
     xc contribution           =    -539.17478776 Ry
     ewald contribution        =   -2492.99511507 Ry
     Hubbard energy            =       0.00000000 Ry
     smearing contrib. (-TS)   =      -0.00068666 Ry

     total magnetization       =    -0.00 Bohr mag/cell
     absolute magnetization    =     0.00 Bohr mag/cell

     convergence has been achieved in   6 iterations

     Writing output data file pwscf.save

     init_run     :     54.64s CPU     84.20s WALL (       1 calls)
     electrons    :   9698.96s CPU  11665.57s WALL (       1 calls)

     Called by init_run:
     wfcinit      :     38.03s CPU     65.73s WALL (       1 calls)
     potinit      :      1.42s CPU      2.39s WALL (       1 calls)

     Called by electrons:
     c_bands      :   8974.50s CPU  10570.85s WALL (       6 calls)
     sum_band     :    613.37s CPU    976.70s WALL (       6 calls)
     v_of_rho     :      4.61s CPU      6.85s WALL (       7 calls)
     newd         :    117.81s CPU    119.60s WALL (       7 calls)
     mix_rho      :      0.71s CPU      1.14s WALL (       6 calls)

     Called by c_bands:
     init_us_2    :      4.20s CPU      4.44s WALL (     546 calls)
     cegterg      :   8960.97s CPU  10454.82s WALL (     252 calls)

     Called by *egterg:
     h_psi        :   2245.92s CPU   3293.91s WALL (     752 calls)
     s_psi        :    197.71s CPU    198.21s WALL (     794 calls)
     g_psi        :      2.62s CPU      2.64s WALL (     500 calls)
     cdiaghg      :   5209.79s CPU   5283.23s WALL (     710 calls)

     Called by h_psi:
     add_vuspsi   :    191.06s CPU    191.39s WALL (     752 calls)
     vhpsi        :    474.29s CPU    599.04s WALL (     752 calls)

     General routines
     calbec       :    635.65s CPU    862.27s WALL (    2050 calls)
     fft          :      6.71s CPU     12.15s WALL (     205 calls)
     ffts         :      0.12s CPU      0.24s WALL (      26 calls)
     fftw         :   1392.05s CPU   2489.16s WALL (  839016 calls)
     interpolate  :      0.88s CPU      1.59s WALL (      26 calls)
     davcio       :      1.34s CPU    197.74s WALL (    1596 calls)

     Parallel routines
     fft_scatter  :   1036.85s CPU   2132.82s WALL (  839247 calls)
     Hubbard U routines
     new_ns       :     73.32s CPU    195.35s WALL (       6 calls)
     vhpsi        :    474.29s CPU    599.04s WALL (     752 calls)

     PWSCF        :     2h42m CPU        3h15m WALL


   This run was terminated on:   2:38: 9  11Feb2014            

=------------------------------------------------------------------------------=
   JOB DONE.
=------------------------------------------------------------------------------=
