
     Program PWSCF v.5.0.2 (svn rev. 9656) starts on 10Feb2014 at 18:41:52 

     This program is part of the open-source Quantum ESPRESSO suite
     for quantum simulation of materials; please cite
         "P. Giannozzi et al., J. Phys.:Condens. Matter 21 395502 (2009);
          URL http://www.quantum-espresso.org", 
     in publications or presentations arising from this work. More details at
     http://www.quantum-espresso.org/quote.php

     Parallel version (MPI), running on    16 processors
     R & G space division:  proc/nbgrp/npool/nimage =      16

     Current dimensions of program PWSCF are:
     Max number of different atomic species (ntypx) = 10
     Max number of k-points (npk) =  40000
     Max angular momentum in pseudopotentials (lmaxx) =  3
     Reading input from alpha_-0.07/alpha_-0.07.in
Warning: card &IONS ignored
Warning: card / ignored
Warning: card &CELL ignored
Warning: card / ignored

     Subspace diagonalization in iterative solution of the eigenvalue problem:
     a serial algorithm will be used


     Parallelization info
     --------------------
     sticks:   dense  smooth     PW     G-vecs:    dense   smooth      PW
     Min         870     279     77                42600     7699    1147
     Max         871     280     78                42601     7714    1150
     Sum       13925    4469   1245               681605   123309   18371



     bravais-lattice index     =            0
     lattice parameter (alat)  =      18.7083  a.u.
     unit-cell volume          =    3611.2673 (a.u.)^3
     number of atoms/cell      =           48
     number of atomic types    =            3
     number of electrons       =       416.00
     number of Kohn-Sham states=          624
     kinetic-energy cutoff     =      40.0000  Ry
     charge density cutoff     =     500.0000  Ry
     convergence threshold     =      1.0E-06
     mixing beta               =       0.7000
     number of iterations used =            8  plain     mixing
     Exchange-correlation      = SLA  PW   PBE  PBE ( 1 4 3 4 0)
     EXX-fraction              =        0.00

     celldm(1)=  18.708289  celldm(2)=   0.000000  celldm(3)=   0.000000
     celldm(4)=   0.000000  celldm(5)=   0.000000  celldm(6)=   0.000000

     crystal axes: (cart. coord. in units of alat)
               a(1) = (   1.000000   0.000000   0.000000 )  
               a(2) = (   0.000000   1.000000   0.000000 )  
               a(3) = (   0.000000   0.000000   0.551515 )  

     reciprocal axes: (cart. coord. in units 2 pi/alat)
               b(1) = (  1.000000  0.000000  0.000000 )  
               b(2) = (  0.000000  1.000000  0.000000 )  
               b(3) = (  0.000000  0.000000  1.813187 )  


     PseudoPot. # 1 for Mo read from file:
     /home/camp/zhonxu/pseudo/mo_pbe_v1.uspp.F.UPF
     MD5 check sum: 30c4dcd161f5d35cd49bb5239c51a633
     Pseudo is Ultrasoft + core correction, Zval = 14.0
     Generated by new atomic code, or converted to UPF format
     Using radial grid of  889 points,  6 beta functions with: 
                l(1) =   0
                l(2) =   0
                l(3) =   1
                l(4) =   1
                l(5) =   2
                l(6) =   2
     Q(r) pseudized with  6 coefficients,  rinner =    1.000   1.000   1.000
                                                       1.000   1.000

     PseudoPot. # 2 for O  read from file:
     /home/camp/zhonxu/pseudo/o_pbe_v1.01.uspp.F.UPF
     MD5 check sum: 2bcb18d16ea4b960afae9ec6d52f22d2
     Pseudo is Ultrasoft + core correction, Zval =  6.0
     Generated by new atomic code, or converted to UPF format
     Using radial grid of  737 points,  5 beta functions with: 
                l(1) =   0
                l(2) =   0
                l(3) =   1
                l(4) =   1
                l(5) =   2
     Q(r) pseudized with  8 coefficients,  rinner =    0.900   0.900   0.900
                                                       0.900   0.900

     PseudoPot. # 3 for O  read from file:
     /home/camp/zhonxu/pseudo/o_pbe_v1.01.uspp.F.UPF
     MD5 check sum: 2bcb18d16ea4b960afae9ec6d52f22d2
     Pseudo is Ultrasoft + core correction, Zval =  6.0
     Generated by new atomic code, or converted to UPF format
     Using radial grid of  737 points,  5 beta functions with: 
                l(1) =   0
                l(2) =   0
                l(3) =   1
                l(4) =   1
                l(5) =   2
     Q(r) pseudized with  8 coefficients,  rinner =    0.900   0.900   0.900
                                                       0.900   0.900

     atomic species   valence    mass     pseudopotential
        Mo0           14.00    95.94000     Mo( 1.00)
        O1             6.00    15.99940     O ( 1.00)
        O2             6.00    15.99940     O ( 1.00)

     Starting magnetic structure 
     atomic species   magnetization
        Mo0          0.000
        O1           0.000
        O2           0.000


     Simplified LDA+U calculation (l_max = 2) with parameters (eV):
     atomic species    L          U    alpha       J0     beta
        Mo0            2     0.0000   0.0000   0.0000   0.0000
        O1             1     0.0000  -0.0700   0.0000   0.0000
        O2             1     0.0000   0.0000   0.0000   0.0000



      4 Sym. Ops. (no inversion) found



   Cartesian axes

     site n.     atom                  positions (alat units)
         1           Mo0 tau(   1) = (  -0.1400000  -0.1400000   0.0000000  )
         2           Mo0 tau(   2) = (   0.1100000   0.1100000   0.1378788  )
         3           Mo0 tau(   3) = (  -0.1400000  -0.1400000   0.2757576  )
         4           Mo0 tau(   4) = (   0.1100000   0.1100000   0.4136364  )
         5           Mo0 tau(   5) = (  -0.1400000   0.3600000   0.0000000  )
         6           Mo0 tau(   6) = (   0.1100000   0.6100000   0.1378788  )
         7           Mo0 tau(   7) = (  -0.1400000   0.3600000   0.2757576  )
         8           Mo0 tau(   8) = (   0.1100000   0.6100000   0.4136364  )
         9           Mo0 tau(   9) = (   0.3600000  -0.1400000   0.0000000  )
        10           Mo0 tau(  10) = (   0.6100000   0.1100000   0.1378788  )
        11           Mo0 tau(  11) = (   0.3600000  -0.1400000   0.2757576  )
        12           Mo0 tau(  12) = (   0.6100000   0.1100000   0.4136364  )
        13           Mo0 tau(  13) = (   0.3600000   0.3600000   0.0000000  )
        14           Mo0 tau(  14) = (   0.6100000   0.6100000   0.1378788  )
        15           Mo0 tau(  15) = (   0.3600000   0.3600000   0.2757576  )
        16           Mo0 tau(  16) = (   0.6100000   0.6100000   0.4136364  )
        17           O1  tau(  17) = (   0.0000000   0.0000000   0.0000000  )
        18           O2  tau(  18) = (  -0.2800000  -0.2800000   0.0000000  )
        19           O2  tau(  19) = (   0.2500000  -0.0300000   0.1378788  )
        20           O2  tau(  20) = (  -0.0300000   0.2500000   0.1378788  )
        21           O2  tau(  21) = (   0.0000000   0.0000000   0.2757576  )
        22           O2  tau(  22) = (  -0.2800000  -0.2800000   0.2757576  )
        23           O2  tau(  23) = (   0.2500000  -0.0300000   0.4136364  )
        24           O2  tau(  24) = (  -0.0300000   0.2500000   0.4136364  )
        25           O2  tau(  25) = (   0.0000000   0.5000000   0.0000000  )
        26           O2  tau(  26) = (  -0.2800000   0.2200000   0.0000000  )
        27           O2  tau(  27) = (   0.2500000   0.4700000   0.1378788  )
        28           O2  tau(  28) = (  -0.0300000   0.7500000   0.1378788  )
        29           O2  tau(  29) = (   0.0000000   0.5000000   0.2757576  )
        30           O2  tau(  30) = (  -0.2800000   0.2200000   0.2757576  )
        31           O2  tau(  31) = (   0.2500000   0.4700000   0.4136364  )
        32           O2  tau(  32) = (  -0.0300000   0.7500000   0.4136364  )
        33           O2  tau(  33) = (   0.5000000   0.0000000   0.0000000  )
        34           O2  tau(  34) = (   0.2200000  -0.2800000   0.0000000  )
        35           O2  tau(  35) = (   0.7500000  -0.0300000   0.1378788  )
        36           O2  tau(  36) = (   0.4700000   0.2500000   0.1378788  )
        37           O2  tau(  37) = (   0.5000000   0.0000000   0.2757576  )
        38           O2  tau(  38) = (   0.2200000  -0.2800000   0.2757576  )
        39           O2  tau(  39) = (   0.7500000  -0.0300000   0.4136364  )
        40           O2  tau(  40) = (   0.4700000   0.2500000   0.4136364  )
        41           O2  tau(  41) = (   0.5000000   0.5000000   0.0000000  )
        42           O2  tau(  42) = (   0.2200000   0.2200000   0.0000000  )
        43           O2  tau(  43) = (   0.7500000   0.4700000   0.1378788  )
        44           O2  tau(  44) = (   0.4700000   0.7500000   0.1378788  )
        45           O2  tau(  45) = (   0.5000000   0.5000000   0.2757576  )
        46           O2  tau(  46) = (   0.2200000   0.2200000   0.2757576  )
        47           O2  tau(  47) = (   0.7500000   0.4700000   0.4136364  )
        48           O2  tau(  48) = (   0.4700000   0.7500000   0.4136364  )

     number of k points=    42  Methfessel-Paxton smearing, width (Ry)=  0.0100
                       cart. coord. in units 2pi/alat
        k(    1) = (   0.0000000   0.0000000   0.0000000), wk =   0.0156250
        k(    2) = (   0.0000000   0.0000000   0.4532967), wk =   0.0312500
        k(    3) = (   0.0000000   0.0000000  -0.9065934), wk =   0.0156250
        k(    4) = (   0.0000000   0.2500000   0.0000000), wk =   0.0625000
        k(    5) = (   0.0000000   0.2500000   0.4532967), wk =   0.1250000
        k(    6) = (   0.0000000   0.2500000  -0.9065934), wk =   0.0625000
        k(    7) = (   0.0000000  -0.5000000   0.0000000), wk =   0.0312500
        k(    8) = (   0.0000000  -0.5000000   0.4532967), wk =   0.0625000
        k(    9) = (   0.0000000  -0.5000000  -0.9065934), wk =   0.0312500
        k(   10) = (   0.2500000   0.2500000   0.0000000), wk =   0.0312500
        k(   11) = (   0.2500000   0.2500000   0.4532967), wk =   0.0625000
        k(   12) = (   0.2500000   0.2500000  -0.9065934), wk =   0.0312500
        k(   13) = (   0.2500000  -0.5000000   0.0000000), wk =   0.0625000
        k(   14) = (   0.2500000  -0.5000000   0.4532967), wk =   0.1250000
        k(   15) = (   0.2500000  -0.5000000  -0.9065934), wk =   0.0625000
        k(   16) = (  -0.5000000  -0.5000000   0.0000000), wk =   0.0156250
        k(   17) = (  -0.5000000  -0.5000000   0.4532967), wk =   0.0312500
        k(   18) = (  -0.5000000  -0.5000000  -0.9065934), wk =   0.0156250
        k(   19) = (   0.2500000  -0.2500000   0.0000000), wk =   0.0312500
        k(   20) = (   0.2500000  -0.2500000   0.4532967), wk =   0.0625000
        k(   21) = (   0.2500000  -0.2500000  -0.9065934), wk =   0.0312500
        k(   22) = (   0.0000000   0.0000000   0.0000000), wk =   0.0156250
        k(   23) = (   0.0000000   0.0000000   0.4532967), wk =   0.0312500
        k(   24) = (   0.0000000   0.0000000  -0.9065934), wk =   0.0156250
        k(   25) = (   0.0000000   0.2500000   0.0000000), wk =   0.0625000
        k(   26) = (   0.0000000   0.2500000   0.4532967), wk =   0.1250000
        k(   27) = (   0.0000000   0.2500000  -0.9065934), wk =   0.0625000
        k(   28) = (   0.0000000  -0.5000000   0.0000000), wk =   0.0312500
        k(   29) = (   0.0000000  -0.5000000   0.4532967), wk =   0.0625000
        k(   30) = (   0.0000000  -0.5000000  -0.9065934), wk =   0.0312500
        k(   31) = (   0.2500000   0.2500000   0.0000000), wk =   0.0312500
        k(   32) = (   0.2500000   0.2500000   0.4532967), wk =   0.0625000
        k(   33) = (   0.2500000   0.2500000  -0.9065934), wk =   0.0312500
        k(   34) = (   0.2500000  -0.5000000   0.0000000), wk =   0.0625000
        k(   35) = (   0.2500000  -0.5000000   0.4532967), wk =   0.1250000
        k(   36) = (   0.2500000  -0.5000000  -0.9065934), wk =   0.0625000
        k(   37) = (  -0.5000000  -0.5000000   0.0000000), wk =   0.0156250
        k(   38) = (  -0.5000000  -0.5000000   0.4532967), wk =   0.0312500
        k(   39) = (  -0.5000000  -0.5000000  -0.9065934), wk =   0.0156250
        k(   40) = (   0.2500000  -0.2500000   0.0000000), wk =   0.0312500
        k(   41) = (   0.2500000  -0.2500000   0.4532967), wk =   0.0625000
        k(   42) = (   0.2500000  -0.2500000  -0.9065934), wk =   0.0312500

     Dense  grid:   681605 G-vectors     FFT dimensions: ( 135, 135,  75)

     Smooth grid:   123309 G-vectors     FFT dimensions: (  75,  75,  45)

     Largest allocated arrays     est. size (Mb)     dimensions
        Kohn-Sham Wavefunctions         9.29 Mb     (    976,  624)
        Atomic wavefunctions            5.00 Mb     (    976,  336)
        NL pseudopotentials            10.48 Mb     (    976,  704)
        Each V/rho on FFT grid          2.78 Mb     (  91125,   2)
        Each G-vector array             0.33 Mb     (  42601)
        G-vector shells                 0.12 Mb     (  15656)
     Largest temporary arrays     est. size (Mb)     dimensions
        Auxiliary wavefunctions        37.17 Mb     (    976, 2496)
        Each subspace H/S matrix       95.06 Mb     (2496,2496)
        Each <psi_i|beta_j> matrix      6.70 Mb     (    704,  624)
        Arrays for rho mixing          11.12 Mb     (  91125,   8)

     Check: negative/imaginary core charge=   -0.000007    0.000000

     The initial density is read from file :
     alpha_-0.07/pwscf.save/charge-density.dat

     Number of +U iterations with fixed ns =  0
     Starting occupations:
 --- enter write_ns ---
 LDA+U parameters:
U( 1)     =  0.00000000
alpha( 1) =  0.00000000
U( 2)     =  0.00000000
alpha( 2) = -0.07000000
U( 3)     =  0.00000000
alpha( 3) =  0.00000000
atom    1   Tr[ns(na)] (up, down, total) =   2.90963  2.90963  5.81926
   spin  1
    eigenvalues: 
  0.525  0.526  0.569  0.579  0.710
    eigenvectors:
  0.000  0.000  0.186  0.000  0.814
  0.500  0.000  0.000  0.500  0.000
  0.500  0.000  0.000  0.500  0.000
  0.000  1.000  0.000  0.000  0.000
  0.000  0.000  0.814  0.000  0.186
    occupations:
  0.684 -0.000 -0.000 -0.000  0.055
 -0.000  0.552  0.027  0.000  0.000
 -0.000  0.027  0.552  0.000  0.000
 -0.000  0.000  0.000  0.526 -0.000
  0.055  0.000  0.000 -0.000  0.596
   spin  2
    eigenvalues: 
  0.525  0.526  0.569  0.579  0.710
    eigenvectors:
  0.000  0.000  0.186  0.000  0.814
  0.500  0.000  0.000  0.500  0.000
  0.500  0.000  0.000  0.500  0.000
  0.000  1.000  0.000  0.000  0.000
  0.000  0.000  0.814  0.000  0.186
    occupations:
  0.684 -0.000 -0.000 -0.000  0.055
 -0.000  0.552  0.027  0.000  0.000
 -0.000  0.027  0.552  0.000  0.000
 -0.000  0.000  0.000  0.526 -0.000
  0.055  0.000  0.000 -0.000  0.596
atomic mag. moment =    -0.000002
atom    2   Tr[ns(na)] (up, down, total) =   2.90956  2.90956  5.81912
   spin  1
    eigenvalues: 
  0.525  0.526  0.569  0.579  0.710
    eigenvectors:
  0.000  0.000  0.186  0.000  0.814
  0.500  0.000  0.000  0.500  0.000
  0.500  0.000  0.000  0.500  0.000
  0.000  1.000  0.000  0.000  0.000
  0.000  0.000  0.814  0.000  0.186
    occupations:
  0.684 -0.000 -0.000 -0.000 -0.055
 -0.000  0.552 -0.027  0.000  0.000
 -0.000 -0.027  0.552 -0.000  0.000
 -0.000  0.000 -0.000  0.526 -0.000
 -0.055  0.000  0.000 -0.000  0.595
   spin  2
    eigenvalues: 
  0.525  0.526  0.569  0.579  0.710
    eigenvectors:
  0.000  0.000  0.186  0.000  0.814
  0.500  0.000  0.000  0.500  0.000
  0.500  0.000  0.000  0.500  0.000
  0.000  1.000  0.000  0.000  0.000
  0.000  0.000  0.814  0.000  0.186
    occupations:
  0.684 -0.000 -0.000 -0.000 -0.055
 -0.000  0.552 -0.027  0.000  0.000
 -0.000 -0.027  0.552 -0.000  0.000
 -0.000  0.000 -0.000  0.526 -0.000
 -0.055  0.000  0.000 -0.000  0.595
atomic mag. moment =     0.000000
atom    3   Tr[ns(na)] (up, down, total) =   2.90949  2.90949  5.81898
   spin  1
    eigenvalues: 
  0.525  0.526  0.569  0.578  0.710
    eigenvectors:
  0.000  0.000  0.187  0.000  0.813
  0.500  0.000  0.000  0.500  0.000
  0.500  0.000  0.000  0.500  0.000
  0.000  1.000  0.000  0.000  0.000
  0.000  0.000  0.813  0.000  0.187
    occupations:
  0.684 -0.000 -0.000 -0.000  0.055
 -0.000  0.552  0.027  0.000  0.000
 -0.000  0.027  0.552  0.000  0.000
 -0.000  0.000  0.000  0.526 -0.000
  0.055  0.000  0.000 -0.000  0.595
   spin  2
    eigenvalues: 
  0.525  0.526  0.569  0.579  0.710
    eigenvectors:
  0.000  0.000  0.187  0.000  0.813
  0.500  0.000  0.000  0.500  0.000
  0.500  0.000  0.000  0.500  0.000
  0.000  1.000  0.000  0.000  0.000
  0.000  0.000  0.813  0.000  0.187
    occupations:
  0.684 -0.000 -0.000 -0.000  0.055
 -0.000  0.552  0.027  0.000  0.000
 -0.000  0.027  0.552  0.000  0.000
 -0.000  0.000  0.000  0.526 -0.000
  0.055  0.000  0.000 -0.000  0.595
atomic mag. moment =    -0.000004
atom    4   Tr[ns(na)] (up, down, total) =   2.90956  2.90956  5.81912
   spin  1
    eigenvalues: 
  0.525  0.526  0.569  0.579  0.710
    eigenvectors:
  0.000  0.000  0.186  0.000  0.814
  0.500  0.000  0.000  0.500  0.000
  0.500  0.000  0.000  0.500  0.000
  0.000  1.000  0.000  0.000  0.000
  0.000  0.000  0.814  0.000  0.186
    occupations:
  0.684  0.000  0.000 -0.000 -0.055
  0.000  0.552 -0.027 -0.000 -0.000
  0.000 -0.027  0.552  0.000 -0.000
 -0.000 -0.000  0.000  0.526 -0.000
 -0.055 -0.000 -0.000 -0.000  0.595
   spin  2
    eigenvalues: 
  0.525  0.526  0.569  0.579  0.710
    eigenvectors:
  0.000  0.000  0.186  0.000  0.814
  0.500  0.000  0.000  0.500  0.000
  0.500  0.000  0.000  0.500  0.000
  0.000  1.000  0.000  0.000  0.000
  0.000  0.000  0.814  0.000  0.186
    occupations:
  0.684  0.000  0.000 -0.000 -0.055
  0.000  0.552 -0.027 -0.000 -0.000
  0.000 -0.027  0.552  0.000 -0.000
 -0.000 -0.000  0.000  0.526 -0.000
 -0.055 -0.000 -0.000 -0.000  0.595
atomic mag. moment =     0.000000
atom    5   Tr[ns(na)] (up, down, total) =   2.90952  2.90953  5.81905
   spin  1
    eigenvalues: 
  0.525  0.526  0.569  0.579  0.710
    eigenvectors:
  0.000  0.000  0.186  0.000  0.814
  0.500  0.000  0.000  0.500  0.000
  0.500  0.000  0.000  0.500  0.000
  0.000  1.000  0.000  0.000  0.000
  0.000  0.000  0.814  0.000  0.186
    occupations:
  0.684 -0.000 -0.000 -0.000  0.055
 -0.000  0.552  0.027  0.000  0.000
 -0.000  0.027  0.552  0.000  0.000
 -0.000  0.000  0.000  0.526 -0.000
  0.055  0.000  0.000 -0.000  0.595
   spin  2
    eigenvalues: 
  0.525  0.526  0.569  0.579  0.710
    eigenvectors:
  0.000  0.000  0.186  0.000  0.814
  0.500  0.000  0.000  0.500  0.000
  0.500  0.000  0.000  0.500  0.000
  0.000  1.000  0.000  0.000  0.000
  0.000  0.000  0.814  0.000  0.186
    occupations:
  0.684 -0.000 -0.000 -0.000  0.055
 -0.000  0.552  0.027  0.000  0.000
 -0.000  0.027  0.552  0.000  0.000
 -0.000  0.000  0.000  0.526 -0.000
  0.055  0.000  0.000 -0.000  0.595
atomic mag. moment =    -0.000003
atom    6   Tr[ns(na)] (up, down, total) =   2.90959  2.90959  5.81918
   spin  1
    eigenvalues: 
  0.525  0.526  0.569  0.579  0.710
    eigenvectors:
  0.000  0.000  0.187  0.000  0.813
  0.500  0.000  0.000  0.500  0.000
  0.500  0.000  0.000  0.500  0.000
  0.000  1.000  0.000  0.000  0.000
  0.000  0.000  0.813  0.000  0.187
    occupations:
  0.684  0.000 -0.000  0.000 -0.055
  0.000  0.552 -0.027  0.000 -0.000
 -0.000 -0.027  0.552  0.000  0.000
  0.000  0.000  0.000  0.526 -0.000
 -0.055 -0.000  0.000 -0.000  0.596
   spin  2
    eigenvalues: 
  0.525  0.526  0.569  0.579  0.710
    eigenvectors:
  0.000  0.000  0.187  0.000  0.813
  0.500  0.000  0.000  0.500  0.000
  0.500  0.000  0.000  0.500  0.000
  0.000  1.000  0.000  0.000  0.000
  0.000  0.000  0.813  0.000  0.187
    occupations:
  0.684  0.000 -0.000  0.000 -0.055
  0.000  0.552 -0.027  0.000 -0.000
 -0.000 -0.027  0.552  0.000  0.000
  0.000  0.000  0.000  0.526 -0.000
 -0.055 -0.000  0.000 -0.000  0.596
atomic mag. moment =     0.000002
atom    7   Tr[ns(na)] (up, down, total) =   2.90954  2.90953  5.81907
   spin  1
    eigenvalues: 
  0.525  0.526  0.569  0.579  0.710
    eigenvectors:
  0.000  0.000  0.187  0.000  0.813
  0.500  0.000  0.000  0.500  0.000
  0.500  0.000  0.000  0.500  0.000
  0.000  1.000  0.000  0.000  0.000
  0.000  0.000  0.813  0.000  0.187
    occupations:
  0.684 -0.000 -0.000 -0.000  0.055
 -0.000  0.552  0.027  0.000  0.000
 -0.000  0.027  0.552  0.000  0.000
 -0.000  0.000  0.000  0.526 -0.000
  0.055  0.000  0.000 -0.000  0.595
   spin  2
    eigenvalues: 
  0.525  0.526  0.569  0.579  0.710
    eigenvectors:
  0.000  0.000  0.187  0.000  0.813
  0.500  0.000  0.000  0.500  0.000
  0.500  0.000  0.000  0.500  0.000
  0.000  1.000  0.000  0.000  0.000
  0.000  0.000  0.813  0.000  0.187
    occupations:
  0.684 -0.000 -0.000 -0.000  0.055
 -0.000  0.552  0.027  0.000  0.000
 -0.000  0.027  0.552  0.000  0.000
 -0.000  0.000  0.000  0.526 -0.000
  0.055  0.000  0.000 -0.000  0.595
atomic mag. moment =     0.000002
atom    8   Tr[ns(na)] (up, down, total) =   2.90959  2.90959  5.81918
   spin  1
    eigenvalues: 
  0.525  0.526  0.569  0.579  0.710
    eigenvectors:
  0.000  0.000  0.187  0.000  0.813
  0.500  0.000  0.000  0.500  0.000
  0.500  0.000  0.000  0.500  0.000
  0.000  1.000  0.000  0.000  0.000
  0.000  0.000  0.813  0.000  0.187
    occupations:
  0.684 -0.000  0.000  0.000 -0.055
 -0.000  0.552 -0.027 -0.000  0.000
  0.000 -0.027  0.552 -0.000 -0.000
  0.000 -0.000 -0.000  0.526 -0.000
 -0.055  0.000 -0.000 -0.000  0.596
   spin  2
    eigenvalues: 
  0.525  0.526  0.569  0.579  0.710
    eigenvectors:
  0.000  0.000  0.187  0.000  0.813
  0.500  0.000  0.000  0.500  0.000
  0.500  0.000  0.000  0.500  0.000
  0.000  1.000  0.000  0.000  0.000
  0.000  0.000  0.813  0.000  0.187
    occupations:
  0.684 -0.000  0.000  0.000 -0.055
 -0.000  0.552 -0.027 -0.000  0.000
  0.000 -0.027  0.552 -0.000 -0.000
  0.000 -0.000 -0.000  0.526 -0.000
 -0.055  0.000 -0.000 -0.000  0.596
atomic mag. moment =     0.000002
atom    9   Tr[ns(na)] (up, down, total) =   2.90952  2.90953  5.81905
   spin  1
    eigenvalues: 
  0.525  0.526  0.569  0.579  0.710
    eigenvectors:
  0.000  0.000  0.186  0.000  0.814
  0.500  0.000  0.000  0.500  0.000
  0.500  0.000  0.000  0.500  0.000
  0.000  1.000  0.000  0.000  0.000
  0.000  0.000  0.814  0.000  0.186
    occupations:
  0.684 -0.000 -0.000  0.000  0.055
 -0.000  0.552  0.027  0.000  0.000
 -0.000  0.027  0.552  0.000  0.000
  0.000  0.000  0.000  0.526  0.000
  0.055  0.000  0.000  0.000  0.595
   spin  2
    eigenvalues: 
  0.525  0.526  0.569  0.579  0.710
    eigenvectors:
  0.000  0.000  0.186  0.000  0.814
  0.500  0.000  0.000  0.500  0.000
  0.500  0.000  0.000  0.500  0.000
  0.000  1.000  0.000  0.000  0.000
  0.000  0.000  0.814  0.000  0.186
    occupations:
  0.684 -0.000 -0.000  0.000  0.055
 -0.000  0.552  0.027  0.000  0.000
 -0.000  0.027  0.552  0.000  0.000
  0.000  0.000  0.000  0.526  0.000
  0.055  0.000  0.000  0.000  0.595
atomic mag. moment =    -0.000003
atom   10   Tr[ns(na)] (up, down, total) =   2.90959  2.90959  5.81918
   spin  1
    eigenvalues: 
  0.525  0.526  0.569  0.579  0.710
    eigenvectors:
  0.000  0.000  0.187  0.000  0.813
  0.500  0.000  0.000  0.500  0.000
  0.500  0.000  0.000  0.500  0.000
  0.000  1.000  0.000  0.000  0.000
  0.000  0.000  0.813  0.000  0.187
    occupations:
  0.684 -0.000  0.000 -0.000 -0.055
 -0.000  0.552 -0.027 -0.000  0.000
  0.000 -0.027  0.552 -0.000 -0.000
 -0.000 -0.000 -0.000  0.526  0.000
 -0.055  0.000 -0.000  0.000  0.596
   spin  2
    eigenvalues: 
  0.525  0.526  0.569  0.579  0.710
    eigenvectors:
  0.000  0.000  0.187  0.000  0.813
  0.500  0.000  0.000  0.500  0.000
  0.500  0.000  0.000  0.500  0.000
  0.000  1.000  0.000  0.000  0.000
  0.000  0.000  0.813  0.000  0.187
    occupations:
  0.684 -0.000  0.000 -0.000 -0.055
 -0.000  0.552 -0.027 -0.000  0.000
  0.000 -0.027  0.552 -0.000 -0.000
 -0.000 -0.000 -0.000  0.526  0.000
 -0.055  0.000 -0.000  0.000  0.596
atomic mag. moment =     0.000002
atom   11   Tr[ns(na)] (up, down, total) =   2.90954  2.90953  5.81907
   spin  1
    eigenvalues: 
  0.525  0.526  0.569  0.579  0.710
    eigenvectors:
  0.000  0.000  0.187  0.000  0.813
  0.500  0.000  0.000  0.500  0.000
  0.500  0.000  0.000  0.500  0.000
  0.000  1.000  0.000  0.000  0.000
  0.000  0.000  0.813  0.000  0.187
    occupations:
  0.684 -0.000 -0.000  0.000  0.055
 -0.000  0.552  0.027  0.000  0.000
 -0.000  0.027  0.552  0.000  0.000
  0.000  0.000  0.000  0.526  0.000
  0.055  0.000  0.000  0.000  0.595
   spin  2
    eigenvalues: 
  0.525  0.526  0.569  0.579  0.710
    eigenvectors:
  0.000  0.000  0.187  0.000  0.813
  0.500  0.000  0.000  0.500  0.000
  0.500  0.000  0.000  0.500  0.000
  0.000  1.000  0.000  0.000  0.000
  0.000  0.000  0.813  0.000  0.187
    occupations:
  0.684 -0.000 -0.000  0.000  0.055
 -0.000  0.552  0.027  0.000  0.000
 -0.000  0.027  0.552  0.000  0.000
  0.000  0.000  0.000  0.526  0.000
  0.055  0.000  0.000  0.000  0.595
atomic mag. moment =     0.000002
atom   12   Tr[ns(na)] (up, down, total) =   2.90959  2.90959  5.81918
   spin  1
    eigenvalues: 
  0.525  0.526  0.569  0.579  0.710
    eigenvectors:
  0.000  0.000  0.187  0.000  0.813
  0.500  0.000  0.000  0.500  0.000
  0.500  0.000  0.000  0.500  0.000
  0.000  1.000  0.000  0.000  0.000
  0.000  0.000  0.813  0.000  0.187
    occupations:
  0.684  0.000 -0.000 -0.000 -0.055
  0.000  0.552 -0.027  0.000 -0.000
 -0.000 -0.027  0.552  0.000  0.000
 -0.000  0.000  0.000  0.526  0.000
 -0.055 -0.000  0.000  0.000  0.596
   spin  2
    eigenvalues: 
  0.525  0.526  0.569  0.579  0.710
    eigenvectors:
  0.000  0.000  0.187  0.000  0.813
  0.500  0.000  0.000  0.500  0.000
  0.500  0.000  0.000  0.500  0.000
  0.000  1.000  0.000  0.000  0.000
  0.000  0.000  0.813  0.000  0.187
    occupations:
  0.684  0.000 -0.000 -0.000 -0.055
  0.000  0.552 -0.027  0.000 -0.000
 -0.000 -0.027  0.552  0.000  0.000
 -0.000  0.000  0.000  0.526  0.000
 -0.055 -0.000  0.000  0.000  0.596
atomic mag. moment =     0.000002
atom   13   Tr[ns(na)] (up, down, total) =   2.90967  2.90967  5.81934
   spin  1
    eigenvalues: 
  0.525  0.526  0.569  0.579  0.710
    eigenvectors:
  0.000  0.000  0.186  0.000  0.814
  0.500  0.000  0.000  0.500  0.000
  0.500  0.000  0.000  0.500  0.000
  0.000  1.000  0.000  0.000  0.000
  0.000  0.000  0.814  0.000  0.186
    occupations:
  0.684 -0.000 -0.000 -0.000  0.055
 -0.000  0.552  0.027  0.000  0.000
 -0.000  0.027  0.552  0.000  0.000
 -0.000  0.000  0.000  0.526 -0.000
  0.055  0.000  0.000 -0.000  0.596
   spin  2
    eigenvalues: 
  0.525  0.526  0.569  0.579  0.710
    eigenvectors:
  0.000  0.000  0.186  0.000  0.814
  0.500  0.000  0.000  0.500  0.000
  0.500  0.000  0.000  0.500  0.000
  0.000  1.000  0.000  0.000  0.000
  0.000  0.000  0.814  0.000  0.186
    occupations:
  0.684 -0.000 -0.000 -0.000  0.055
 -0.000  0.552  0.027  0.000  0.000
 -0.000  0.027  0.552  0.000  0.000
 -0.000  0.000  0.000  0.526 -0.000
  0.055  0.000  0.000 -0.000  0.596
atomic mag. moment =    -0.000004
atom   14   Tr[ns(na)] (up, down, total) =   2.90963  2.90963  5.81925
   spin  1
    eigenvalues: 
  0.525  0.526  0.569  0.579  0.710
    eigenvectors:
  0.000  0.000  0.187  0.000  0.813
  0.500  0.000  0.000  0.500  0.000
  0.500  0.000  0.000  0.500  0.000
  0.000  1.000  0.000  0.000  0.000
  0.000  0.000  0.813  0.000  0.187
    occupations:
  0.684 -0.000 -0.000 -0.000 -0.055
 -0.000  0.552 -0.027 -0.000  0.000
 -0.000 -0.027  0.552  0.000  0.000
 -0.000 -0.000  0.000  0.526 -0.000
 -0.055  0.000  0.000 -0.000  0.596
   spin  2
    eigenvalues: 
  0.525  0.526  0.569  0.579  0.710
    eigenvectors:
  0.000  0.000  0.187  0.000  0.813
  0.500  0.000  0.000  0.500  0.000
  0.500  0.000  0.000  0.500  0.000
  0.000  1.000  0.000  0.000  0.000
  0.000  0.000  0.813  0.000  0.187
    occupations:
  0.684 -0.000 -0.000 -0.000 -0.055
 -0.000  0.552 -0.027 -0.000  0.000
 -0.000 -0.027  0.552  0.000  0.000
 -0.000 -0.000  0.000  0.526 -0.000
 -0.055  0.000  0.000 -0.000  0.596
atomic mag. moment =     0.000001
atom   15   Tr[ns(na)] (up, down, total) =   2.90946  2.90946  5.81892
   spin  1
    eigenvalues: 
  0.525  0.526  0.569  0.578  0.710
    eigenvectors:
  0.000  0.000  0.186  0.000  0.814
  0.500  0.000  0.000  0.500  0.000
  0.500  0.000  0.000  0.500  0.000
  0.000  1.000  0.000  0.000  0.000
  0.000  0.000  0.814  0.000  0.186
    occupations:
  0.684 -0.000 -0.000 -0.000  0.055
 -0.000  0.552  0.027  0.000  0.000
 -0.000  0.027  0.552  0.000  0.000
 -0.000  0.000  0.000  0.526 -0.000
  0.055  0.000  0.000 -0.000  0.595
   spin  2
    eigenvalues: 
  0.525  0.526  0.569  0.578  0.710
    eigenvectors:
  0.000  0.000  0.186  0.000  0.814
  0.500  0.000  0.000  0.500  0.000
  0.500  0.000  0.000  0.500  0.000
  0.000  1.000  0.000  0.000  0.000
  0.000  0.000  0.814  0.000  0.186
    occupations:
  0.684 -0.000 -0.000 -0.000  0.055
 -0.000  0.552  0.027  0.000  0.000
 -0.000  0.027  0.552  0.000  0.000
 -0.000  0.000  0.000  0.526 -0.000
  0.055  0.000  0.000 -0.000  0.595
atomic mag. moment =    -0.000000
atom   16   Tr[ns(na)] (up, down, total) =   2.90963  2.90963  5.81925
   spin  1
    eigenvalues: 
  0.525  0.526  0.569  0.579  0.710
    eigenvectors:
  0.000  0.000  0.187  0.000  0.813
  0.500  0.000  0.000  0.500  0.000
  0.500  0.000  0.000  0.500  0.000
  0.000  1.000  0.000  0.000  0.000
  0.000  0.000  0.813  0.000  0.187
    occupations:
  0.684  0.000  0.000 -0.000 -0.055
  0.000  0.552 -0.027  0.000 -0.000
  0.000 -0.027  0.552 -0.000 -0.000
 -0.000  0.000 -0.000  0.526 -0.000
 -0.055 -0.000 -0.000 -0.000  0.596
   spin  2
    eigenvalues: 
  0.525  0.526  0.569  0.579  0.710
    eigenvectors:
  0.000  0.000  0.187  0.000  0.813
  0.500  0.000  0.000  0.500  0.000
  0.500  0.000  0.000  0.500  0.000
  0.000  1.000  0.000  0.000  0.000
  0.000  0.000  0.813  0.000  0.187
    occupations:
  0.684  0.000  0.000 -0.000 -0.055
  0.000  0.552 -0.027  0.000 -0.000
  0.000 -0.027  0.552 -0.000 -0.000
 -0.000  0.000 -0.000  0.526 -0.000
 -0.055 -0.000 -0.000 -0.000  0.596
atomic mag. moment =     0.000001
atom   17   Tr[ns(na)] (up, down, total) =   2.70505  2.70505  5.41010
   spin  1
    eigenvalues: 
  0.900  0.902  0.903
    eigenvectors:
  0.000  0.000  1.000
  0.500  0.500  0.000
  0.500  0.500  0.000
    occupations:
  0.903 -0.000 -0.000
 -0.000  0.901  0.001
 -0.000  0.001  0.901
   spin  2
    eigenvalues: 
  0.900  0.902  0.903
    eigenvectors:
  0.000  0.000  1.000
  0.500  0.500  0.000
  0.500  0.500  0.000
    occupations:
  0.903 -0.000 -0.000
 -0.000  0.901  0.001
 -0.000  0.001  0.901
atomic mag. moment =     0.000000
atom   18   Tr[ns(na)] (up, down, total) =   2.70507  2.70507  5.41013
   spin  1
    eigenvalues: 
  0.900  0.902  0.903
    eigenvectors:
  0.000  0.000  1.000
  0.500  0.500  0.000
  0.500  0.500  0.000
    occupations:
  0.903 -0.000 -0.000
 -0.000  0.901  0.001
 -0.000  0.001  0.901
   spin  2
    eigenvalues: 
  0.900  0.902  0.903
    eigenvectors:
  0.000  0.000  1.000
  0.500  0.500  0.000
  0.500  0.500  0.000
    occupations:
  0.903 -0.000 -0.000
 -0.000  0.901  0.001
 -0.000  0.001  0.901
atomic mag. moment =     0.000000
atom   19   Tr[ns(na)] (up, down, total) =   2.70510  2.70510  5.41019
   spin  1
    eigenvalues: 
  0.900  0.902  0.903
    eigenvectors:
  0.000  0.000  1.000
  0.500  0.500  0.000
  0.500  0.500  0.000
    occupations:
  0.903  0.000 -0.000
  0.000  0.901 -0.001
 -0.000 -0.001  0.901
   spin  2
    eigenvalues: 
  0.900  0.902  0.903
    eigenvectors:
  0.000  0.000  1.000
  0.500  0.500  0.000
  0.500  0.500  0.000
    occupations:
  0.903  0.000 -0.000
  0.000  0.901 -0.001
 -0.000 -0.001  0.901
atomic mag. moment =    -0.000000
atom   20   Tr[ns(na)] (up, down, total) =   2.70510  2.70510  5.41019
   spin  1
    eigenvalues: 
  0.900  0.902  0.903
    eigenvectors:
  0.000  0.000  1.000
  0.500  0.500  0.000
  0.500  0.500  0.000
    occupations:
  0.903 -0.000  0.000
 -0.000  0.901 -0.001
  0.000 -0.001  0.901
   spin  2
    eigenvalues: 
  0.900  0.902  0.903
    eigenvectors:
  0.000  0.000  1.000
  0.500  0.500  0.000
  0.500  0.500  0.000
    occupations:
  0.903 -0.000  0.000
 -0.000  0.901 -0.001
  0.000 -0.001  0.901
atomic mag. moment =    -0.000000
atom   21   Tr[ns(na)] (up, down, total) =   2.70508  2.70508  5.41015
   spin  1
    eigenvalues: 
  0.900  0.902  0.903
    eigenvectors:
  0.000  0.000  1.000
  0.500  0.500  0.000
  0.500  0.500  0.000
    occupations:
  0.903 -0.000 -0.000
 -0.000  0.901  0.001
 -0.000  0.001  0.901
   spin  2
    eigenvalues: 
  0.900  0.902  0.903
    eigenvectors:
  0.000  0.000  1.000
  0.500  0.500  0.000
  0.500  0.500  0.000
    occupations:
  0.903 -0.000 -0.000
 -0.000  0.901  0.001
 -0.000  0.001  0.901
atomic mag. moment =     0.000000
atom   22   Tr[ns(na)] (up, down, total) =   2.70511  2.70511  5.41023
   spin  1
    eigenvalues: 
  0.900  0.902  0.903
    eigenvectors:
  0.000  0.000  1.000
  0.500  0.500  0.000
  0.500  0.500  0.000
    occupations:
  0.903 -0.000 -0.000
 -0.000  0.901  0.001
 -0.000  0.001  0.901
   spin  2
    eigenvalues: 
  0.900  0.902  0.903
    eigenvectors:
  0.000  0.000  1.000
  0.500  0.500  0.000
  0.500  0.500  0.000
    occupations:
  0.903 -0.000 -0.000
 -0.000  0.901  0.001
 -0.000  0.001  0.901
atomic mag. moment =     0.000000
atom   23   Tr[ns(na)] (up, down, total) =   2.70510  2.70510  5.41019
   spin  1
    eigenvalues: 
  0.900  0.902  0.903
    eigenvectors:
  0.000  0.000  1.000
  0.500  0.500  0.000
  0.500  0.500  0.000
    occupations:
  0.903 -0.000  0.000
 -0.000  0.901 -0.001
  0.000 -0.001  0.901
   spin  2
    eigenvalues: 
  0.900  0.902  0.903
    eigenvectors:
  0.000  0.000  1.000
  0.500  0.500  0.000
  0.500  0.500  0.000
    occupations:
  0.903 -0.000  0.000
 -0.000  0.901 -0.001
  0.000 -0.001  0.901
atomic mag. moment =    -0.000000
atom   24   Tr[ns(na)] (up, down, total) =   2.70510  2.70510  5.41019
   spin  1
    eigenvalues: 
  0.900  0.902  0.903
    eigenvectors:
  0.000  0.000  1.000
  0.500  0.500  0.000
  0.500  0.500  0.000
    occupations:
  0.903  0.000 -0.000
  0.000  0.901 -0.001
 -0.000 -0.001  0.901
   spin  2
    eigenvalues: 
  0.900  0.902  0.903
    eigenvectors:
  0.000  0.000  1.000
  0.500  0.500  0.000
  0.500  0.500  0.000
    occupations:
  0.903  0.000 -0.000
  0.000  0.901 -0.001
 -0.000 -0.001  0.901
atomic mag. moment =    -0.000000
atom   25   Tr[ns(na)] (up, down, total) =   2.70508  2.70508  5.41015
   spin  1
    eigenvalues: 
  0.900  0.902  0.903
    eigenvectors:
  0.000  0.000  1.000
  0.500  0.500  0.000
  0.500  0.500  0.000
    occupations:
  0.903 -0.000 -0.000
 -0.000  0.901  0.001
 -0.000  0.001  0.901
   spin  2
    eigenvalues: 
  0.900  0.902  0.903
    eigenvectors:
  0.000  0.000  1.000
  0.500  0.500  0.000
  0.500  0.500  0.000
    occupations:
  0.903 -0.000 -0.000
 -0.000  0.901  0.001
 -0.000  0.001  0.901
atomic mag. moment =     0.000000
atom   26   Tr[ns(na)] (up, down, total) =   2.70507  2.70507  5.41014
   spin  1
    eigenvalues: 
  0.900  0.902  0.903
    eigenvectors:
  0.000  0.000  1.000
  0.500  0.500  0.000
  0.500  0.500  0.000
    occupations:
  0.903 -0.000 -0.000
 -0.000  0.901  0.001
 -0.000  0.001  0.901
   spin  2
    eigenvalues: 
  0.900  0.902  0.903
    eigenvectors:
  0.000  0.000  1.000
  0.500  0.500  0.000
  0.500  0.500  0.000
    occupations:
  0.903 -0.000 -0.000
 -0.000  0.901  0.001
 -0.000  0.001  0.901
atomic mag. moment =     0.000000
atom   27   Tr[ns(na)] (up, down, total) =   2.70510  2.70510  5.41020
   spin  1
    eigenvalues: 
  0.900  0.902  0.903
    eigenvectors:
  0.000  0.000  1.000
  0.500  0.500  0.000
  0.500  0.500  0.000
    occupations:
  0.903 -0.000  0.000
 -0.000  0.901 -0.001
  0.000 -0.001  0.901
   spin  2
    eigenvalues: 
  0.900  0.902  0.903
    eigenvectors:
  0.000  0.000  1.000
  0.500  0.500  0.000
  0.500  0.500  0.000
    occupations:
  0.903 -0.000  0.000
 -0.000  0.901 -0.001
  0.000 -0.001  0.901
atomic mag. moment =    -0.000000
atom   28   Tr[ns(na)] (up, down, total) =   2.70508  2.70508  5.41016
   spin  1
    eigenvalues: 
  0.900  0.902  0.903
    eigenvectors:
  0.000  0.000  1.000
  0.500  0.500  0.000
  0.500  0.500  0.000
    occupations:
  0.903  0.000 -0.000
  0.000  0.901 -0.001
 -0.000 -0.001  0.901
   spin  2
    eigenvalues: 
  0.900  0.902  0.903
    eigenvectors:
  0.000  0.000  1.000
  0.500  0.500  0.000
  0.500  0.500  0.000
    occupations:
  0.903  0.000 -0.000
  0.000  0.901 -0.001
 -0.000 -0.001  0.901
atomic mag. moment =    -0.000000
atom   29   Tr[ns(na)] (up, down, total) =   2.70511  2.70511  5.41022
   spin  1
    eigenvalues: 
  0.900  0.902  0.903
    eigenvectors:
  0.000  0.000  1.000
  0.500  0.500  0.000
  0.500  0.500  0.000
    occupations:
  0.903 -0.000 -0.000
 -0.000  0.901  0.001
 -0.000  0.001  0.901
   spin  2
    eigenvalues: 
  0.900  0.902  0.903
    eigenvectors:
  0.000  0.000  1.000
  0.500  0.500  0.000
  0.500  0.500  0.000
    occupations:
  0.903 -0.000 -0.000
 -0.000  0.901  0.001
 -0.000  0.001  0.901
atomic mag. moment =    -0.000000
atom   30   Tr[ns(na)] (up, down, total) =   2.70511  2.70511  5.41021
   spin  1
    eigenvalues: 
  0.900  0.902  0.903
    eigenvectors:
  0.000  0.000  1.000
  0.500  0.500  0.000
  0.500  0.500  0.000
    occupations:
  0.903 -0.000 -0.000
 -0.000  0.901  0.001
 -0.000  0.001  0.901
   spin  2
    eigenvalues: 
  0.900  0.902  0.903
    eigenvectors:
  0.000  0.000  1.000
  0.500  0.500  0.000
  0.500  0.500  0.000
    occupations:
  0.903 -0.000 -0.000
 -0.000  0.901  0.001
 -0.000  0.001  0.901
atomic mag. moment =    -0.000000
atom   31   Tr[ns(na)] (up, down, total) =   2.70510  2.70510  5.41020
   spin  1
    eigenvalues: 
  0.900  0.902  0.903
    eigenvectors:
  0.000  0.000  1.000
  0.500  0.500  0.000
  0.500  0.500  0.000
    occupations:
  0.903  0.000 -0.000
  0.000  0.901 -0.001
 -0.000 -0.001  0.901
   spin  2
    eigenvalues: 
  0.900  0.902  0.903
    eigenvectors:
  0.000  0.000  1.000
  0.500  0.500  0.000
  0.500  0.500  0.000
    occupations:
  0.903  0.000 -0.000
  0.000  0.901 -0.001
 -0.000 -0.001  0.901
atomic mag. moment =    -0.000000
atom   32   Tr[ns(na)] (up, down, total) =   2.70508  2.70508  5.41016
   spin  1
    eigenvalues: 
  0.900  0.902  0.903
    eigenvectors:
  0.000  0.000  1.000
  0.500  0.500  0.000
  0.500  0.500  0.000
    occupations:
  0.903 -0.000  0.000
 -0.000  0.901 -0.001
  0.000 -0.001  0.901
   spin  2
    eigenvalues: 
  0.900  0.902  0.903
    eigenvectors:
  0.000  0.000  1.000
  0.500  0.500  0.000
  0.500  0.500  0.000
    occupations:
  0.903 -0.000  0.000
 -0.000  0.901 -0.001
  0.000 -0.001  0.901
atomic mag. moment =    -0.000000
atom   33   Tr[ns(na)] (up, down, total) =   2.70508  2.70508  5.41015
   spin  1
    eigenvalues: 
  0.900  0.902  0.903
    eigenvectors:
  0.000  0.000  1.000
  0.500  0.500  0.000
  0.500  0.500  0.000
    occupations:
  0.903 -0.000 -0.000
 -0.000  0.901  0.001
 -0.000  0.001  0.901
   spin  2
    eigenvalues: 
  0.900  0.902  0.903
    eigenvectors:
  0.000  0.000  1.000
  0.500  0.500  0.000
  0.500  0.500  0.000
    occupations:
  0.903 -0.000 -0.000
 -0.000  0.901  0.001
 -0.000  0.001  0.901
atomic mag. moment =     0.000000
atom   34   Tr[ns(na)] (up, down, total) =   2.70507  2.70507  5.41014
   spin  1
    eigenvalues: 
  0.900  0.902  0.903
    eigenvectors:
  0.000  0.000  1.000
  0.500  0.500  0.000
  0.500  0.500  0.000
    occupations:
  0.903 -0.000 -0.000
 -0.000  0.901  0.001
 -0.000  0.001  0.901
   spin  2
    eigenvalues: 
  0.900  0.902  0.903
    eigenvectors:
  0.000  0.000  1.000
  0.500  0.500  0.000
  0.500  0.500  0.000
    occupations:
  0.903 -0.000 -0.000
 -0.000  0.901  0.001
 -0.000  0.001  0.901
atomic mag. moment =     0.000000
atom   35   Tr[ns(na)] (up, down, total) =   2.70508  2.70508  5.41016
   spin  1
    eigenvalues: 
  0.900  0.902  0.903
    eigenvectors:
  0.000  0.000  1.000
  0.500  0.500  0.000
  0.500  0.500  0.000
    occupations:
  0.903 -0.000  0.000
 -0.000  0.901 -0.001
  0.000 -0.001  0.901
   spin  2
    eigenvalues: 
  0.900  0.902  0.903
    eigenvectors:
  0.000  0.000  1.000
  0.500  0.500  0.000
  0.500  0.500  0.000
    occupations:
  0.903 -0.000  0.000
 -0.000  0.901 -0.001
  0.000 -0.001  0.901
atomic mag. moment =    -0.000000
atom   36   Tr[ns(na)] (up, down, total) =   2.70510  2.70510  5.41020
   spin  1
    eigenvalues: 
  0.900  0.902  0.903
    eigenvectors:
  0.000  0.000  1.000
  0.500  0.500  0.000
  0.500  0.500  0.000
    occupations:
  0.903  0.000 -0.000
  0.000  0.901 -0.001
 -0.000 -0.001  0.901
   spin  2
    eigenvalues: 
  0.900  0.902  0.903
    eigenvectors:
  0.000  0.000  1.000
  0.500  0.500  0.000
  0.500  0.500  0.000
    occupations:
  0.903  0.000 -0.000
  0.000  0.901 -0.001
 -0.000 -0.001  0.901
atomic mag. moment =    -0.000000
atom   37   Tr[ns(na)] (up, down, total) =   2.70511  2.70511  5.41022
   spin  1
    eigenvalues: 
  0.900  0.902  0.903
    eigenvectors:
  0.000  0.000  1.000
  0.500  0.500  0.000
  0.500  0.500  0.000
    occupations:
  0.903 -0.000 -0.000
 -0.000  0.901  0.001
 -0.000  0.001  0.901
   spin  2
    eigenvalues: 
  0.900  0.902  0.903
    eigenvectors:
  0.000  0.000  1.000
  0.500  0.500  0.000
  0.500  0.500  0.000
    occupations:
  0.903 -0.000 -0.000
 -0.000  0.901  0.001
 -0.000  0.001  0.901
atomic mag. moment =    -0.000000
atom   38   Tr[ns(na)] (up, down, total) =   2.70511  2.70511  5.41021
   spin  1
    eigenvalues: 
  0.900  0.902  0.903
    eigenvectors:
  0.000  0.000  1.000
  0.500  0.500  0.000
  0.500  0.500  0.000
    occupations:
  0.903 -0.000 -0.000
 -0.000  0.901  0.001
 -0.000  0.001  0.901
   spin  2
    eigenvalues: 
  0.900  0.902  0.903
    eigenvectors:
  0.000  0.000  1.000
  0.500  0.500  0.000
  0.500  0.500  0.000
    occupations:
  0.903 -0.000 -0.000
 -0.000  0.901  0.001
 -0.000  0.001  0.901
atomic mag. moment =    -0.000000
atom   39   Tr[ns(na)] (up, down, total) =   2.70508  2.70508  5.41016
   spin  1
    eigenvalues: 
  0.900  0.902  0.903
    eigenvectors:
  0.000  0.000  1.000
  0.500  0.500  0.000
  0.500  0.500  0.000
    occupations:
  0.903  0.000 -0.000
  0.000  0.901 -0.001
 -0.000 -0.001  0.901
   spin  2
    eigenvalues: 
  0.900  0.902  0.903
    eigenvectors:
  0.000  0.000  1.000
  0.500  0.500  0.000
  0.500  0.500  0.000
    occupations:
  0.903  0.000 -0.000
  0.000  0.901 -0.001
 -0.000 -0.001  0.901
atomic mag. moment =    -0.000000
atom   40   Tr[ns(na)] (up, down, total) =   2.70510  2.70510  5.41020
   spin  1
    eigenvalues: 
  0.900  0.902  0.903
    eigenvectors:
  0.000  0.000  1.000
  0.500  0.500  0.000
  0.500  0.500  0.000
    occupations:
  0.903 -0.000  0.000
 -0.000  0.901 -0.001
  0.000 -0.001  0.901
   spin  2
    eigenvalues: 
  0.900  0.902  0.903
    eigenvectors:
  0.000  0.000  1.000
  0.500  0.500  0.000
  0.500  0.500  0.000
    occupations:
  0.903 -0.000  0.000
 -0.000  0.901 -0.001
  0.000 -0.001  0.901
atomic mag. moment =    -0.000000
atom   41   Tr[ns(na)] (up, down, total) =   2.70504  2.70504  5.41008
   spin  1
    eigenvalues: 
  0.900  0.902  0.903
    eigenvectors:
  0.000  0.000  1.000
  0.500  0.500  0.000
  0.500  0.500  0.000
    occupations:
  0.903 -0.000 -0.000
 -0.000  0.901  0.001
 -0.000  0.001  0.901
   spin  2
    eigenvalues: 
  0.900  0.902  0.903
    eigenvectors:
  0.000  0.000  1.000
  0.500  0.500  0.000
  0.500  0.500  0.000
    occupations:
  0.903 -0.000 -0.000
 -0.000  0.901  0.001
 -0.000  0.001  0.901
atomic mag. moment =     0.000000
atom   42   Tr[ns(na)] (up, down, total) =   2.70514  2.70514  5.41029
   spin  1
    eigenvalues: 
  0.900  0.902  0.903
    eigenvectors:
  0.000  0.000  1.000
  0.500  0.500  0.000
  0.500  0.500  0.000
    occupations:
  0.903 -0.000 -0.000
 -0.000  0.901  0.001
 -0.000  0.001  0.901
   spin  2
    eigenvalues: 
  0.900  0.902  0.903
    eigenvectors:
  0.000  0.000  1.000
  0.500  0.500  0.000
  0.500  0.500  0.000
    occupations:
  0.903 -0.000 -0.000
 -0.000  0.901  0.001
 -0.000  0.001  0.901
atomic mag. moment =     0.000000
atom   43   Tr[ns(na)] (up, down, total) =   2.70508  2.70508  5.41016
   spin  1
    eigenvalues: 
  0.900  0.902  0.903
    eigenvectors:
  0.000  0.000  1.000
  0.500  0.500  0.000
  0.500  0.500  0.000
    occupations:
  0.903  0.000 -0.000
  0.000  0.901 -0.001
 -0.000 -0.001  0.901
   spin  2
    eigenvalues: 
  0.900  0.902  0.903
    eigenvectors:
  0.000  0.000  1.000
  0.500  0.500  0.000
  0.500  0.500  0.000
    occupations:
  0.903  0.000 -0.000
  0.000  0.901 -0.001
 -0.000 -0.001  0.901
atomic mag. moment =    -0.000000
atom   44   Tr[ns(na)] (up, down, total) =   2.70508  2.70508  5.41016
   spin  1
    eigenvalues: 
  0.900  0.902  0.903
    eigenvectors:
  0.000  0.000  1.000
  0.500  0.500  0.000
  0.500  0.500  0.000
    occupations:
  0.903 -0.000  0.000
 -0.000  0.901 -0.001
  0.000 -0.001  0.901
   spin  2
    eigenvalues: 
  0.900  0.902  0.903
    eigenvectors:
  0.000  0.000  1.000
  0.500  0.500  0.000
  0.500  0.500  0.000
    occupations:
  0.903 -0.000  0.000
 -0.000  0.901 -0.001
  0.000 -0.001  0.901
atomic mag. moment =    -0.000000
atom   45   Tr[ns(na)] (up, down, total) =   2.70507  2.70507  5.41015
   spin  1
    eigenvalues: 
  0.900  0.902  0.903
    eigenvectors:
  0.000  0.000  1.000
  0.500  0.500  0.000
  0.500  0.500  0.000
    occupations:
  0.903 -0.000 -0.000
 -0.000  0.901  0.001
 -0.000  0.001  0.901
   spin  2
    eigenvalues: 
  0.900  0.902  0.903
    eigenvectors:
  0.000  0.000  1.000
  0.500  0.500  0.000
  0.500  0.500  0.000
    occupations:
  0.903 -0.000 -0.000
 -0.000  0.901  0.001
 -0.000  0.001  0.901
atomic mag. moment =     0.000000
atom   46   Tr[ns(na)] (up, down, total) =   2.70517  2.70517  5.41034
   spin  1
    eigenvalues: 
  0.900  0.902  0.903
    eigenvectors:
  0.000  0.000  1.000
  0.500  0.500  0.000
  0.500  0.500  0.000
    occupations:
  0.903 -0.000 -0.000
 -0.000  0.901  0.001
 -0.000  0.001  0.901
   spin  2
    eigenvalues: 
  0.900  0.902  0.903
    eigenvectors:
  0.000  0.000  1.000
  0.500  0.500  0.000
  0.500  0.500  0.000
    occupations:
  0.903 -0.000 -0.000
 -0.000  0.901  0.001
 -0.000  0.001  0.901
atomic mag. moment =     0.000000
atom   47   Tr[ns(na)] (up, down, total) =   2.70508  2.70508  5.41016
   spin  1
    eigenvalues: 
  0.900  0.902  0.903
    eigenvectors:
  0.000  0.000  1.000
  0.500  0.500  0.000
  0.500  0.500  0.000
    occupations:
  0.903 -0.000  0.000
 -0.000  0.901 -0.001
  0.000 -0.001  0.901
   spin  2
    eigenvalues: 
  0.900  0.902  0.903
    eigenvectors:
  0.000  0.000  1.000
  0.500  0.500  0.000
  0.500  0.500  0.000
    occupations:
  0.903 -0.000  0.000
 -0.000  0.901 -0.001
  0.000 -0.001  0.901
atomic mag. moment =    -0.000000
atom   48   Tr[ns(na)] (up, down, total) =   2.70508  2.70508  5.41016
   spin  1
    eigenvalues: 
  0.900  0.902  0.903
    eigenvectors:
  0.000  0.000  1.000
  0.500  0.500  0.000
  0.500  0.500  0.000
    occupations:
  0.903  0.000 -0.000
  0.000  0.901 -0.001
 -0.000 -0.001  0.901
   spin  2
    eigenvalues: 
  0.900  0.902  0.903
    eigenvectors:
  0.000  0.000  1.000
  0.500  0.500  0.000
  0.500  0.500  0.000
    occupations:
  0.903  0.000 -0.000
  0.000  0.901 -0.001
 -0.000 -0.001  0.901
atomic mag. moment =    -0.000000
N of occupied +U levels = 266.2319728
 --- exit write_ns ---
 Atomic wfc used for LDA+U Projector are NOT orthogonalized
     Starting wfc from file

     total cpu time spent up to now is       81.0 secs

     per-process dynamical memory:   101.6 Mb

     Self-consistent Calculation

     iteration #  1     ecut=    40.00 Ry     beta=0.70
     Davidson diagonalization with overlap
     ethr =  6.58E-09,  avg # of iterations =  6.0
 --- enter write_ns ---
 LDA+U parameters:
U( 1)     =  0.00000000
alpha( 1) =  0.00000000
U( 2)     =  0.00000000
alpha( 2) = -0.07000000
U( 3)     =  0.00000000
alpha( 3) =  0.00000000
atom    1   Tr[ns(na)] (up, down, total) =   2.90772  2.90772  5.81544
   spin  1
    eigenvalues: 
  0.525  0.525  0.569  0.578  0.710
    eigenvectors:
  0.000  0.000  0.187  0.000  0.813
  0.000  0.500  0.000  0.500  0.000
  0.000  0.500  0.000  0.500  0.000
  1.000  0.000  0.000  0.000  0.000
  0.000  0.000  0.813  0.000  0.187
    occupations:
  0.684 -0.000 -0.000 -0.000  0.055
 -0.000  0.552  0.026  0.000  0.000
 -0.000  0.026  0.552  0.000  0.000
 -0.000  0.000  0.000  0.525 -0.000
  0.055  0.000  0.000 -0.000  0.595
   spin  2
    eigenvalues: 
  0.525  0.525  0.569  0.578  0.710
    eigenvectors:
  0.000  0.000  0.187  0.000  0.813
  0.000  0.500  0.000  0.500  0.000
  0.000  0.500  0.000  0.500  0.000
  1.000  0.000  0.000  0.000  0.000
  0.000  0.000  0.813  0.000  0.187
    occupations:
  0.684 -0.000 -0.000 -0.000  0.055
 -0.000  0.552  0.026  0.000  0.000
 -0.000  0.026  0.552  0.000  0.000
 -0.000  0.000  0.000  0.525 -0.000
  0.055  0.000  0.000 -0.000  0.595
atomic mag. moment =    -0.000001
atom    2   Tr[ns(na)] (up, down, total) =   2.90847  2.90847  5.81693
   spin  1
    eigenvalues: 
  0.525  0.526  0.569  0.578  0.710
    eigenvectors:
  0.000  0.000  0.186  0.000  0.814
  0.500  0.000  0.000  0.500  0.000
  0.500  0.000  0.000  0.500  0.000
  0.000  1.000  0.000  0.000  0.000
  0.000  0.000  0.814  0.000  0.186
    occupations:
  0.684 -0.000 -0.000 -0.000 -0.055
 -0.000  0.552 -0.027  0.000  0.000
 -0.000 -0.027  0.552 -0.000  0.000
 -0.000  0.000 -0.000  0.526 -0.000
 -0.055  0.000  0.000 -0.000  0.595
   spin  2
    eigenvalues: 
  0.525  0.526  0.569  0.578  0.710
    eigenvectors:
  0.000  0.000  0.186  0.000  0.814
  0.500  0.000  0.000  0.500  0.000
  0.500  0.000  0.000  0.500  0.000
  0.000  1.000  0.000  0.000  0.000
  0.000  0.000  0.814  0.000  0.186
    occupations:
  0.684 -0.000 -0.000 -0.000 -0.055
 -0.000  0.552 -0.027  0.000  0.000
 -0.000 -0.027  0.552 -0.000  0.000
 -0.000  0.000 -0.000  0.526 -0.000
 -0.055  0.000  0.000 -0.000  0.595
atomic mag. moment =     0.000000
atom    3   Tr[ns(na)] (up, down, total) =   2.91068  2.91068  5.82136
   spin  1
    eigenvalues: 
  0.525  0.526  0.569  0.579  0.711
    eigenvectors:
  0.000  0.000  0.186  0.000  0.814
  0.500  0.000  0.000  0.500  0.000
  0.500  0.000  0.000  0.500  0.000
  0.000  1.000  0.000  0.000  0.000
  0.000  0.000  0.814  0.000  0.186
    occupations:
  0.684 -0.000 -0.000 -0.000  0.055
 -0.000  0.552  0.027  0.000  0.000
 -0.000  0.027  0.552  0.000  0.000
 -0.000  0.000  0.000  0.526 -0.000
  0.055  0.000  0.000 -0.000  0.596
   spin  2
    eigenvalues: 
  0.525  0.526  0.569  0.579  0.711
    eigenvectors:
  0.000  0.000  0.186  0.000  0.814
  0.500  0.000  0.000  0.500  0.000
  0.500  0.000  0.000  0.500  0.000
  0.000  1.000  0.000  0.000  0.000
  0.000  0.000  0.814  0.000  0.186
    occupations:
  0.684 -0.000 -0.000 -0.000  0.055
 -0.000  0.552  0.027  0.000  0.000
 -0.000  0.027  0.552  0.000  0.000
 -0.000  0.000  0.000  0.526 -0.000
  0.055  0.000  0.000 -0.000  0.596
atomic mag. moment =    -0.000003
atom    4   Tr[ns(na)] (up, down, total) =   2.90847  2.90847  5.81693
   spin  1
    eigenvalues: 
  0.525  0.526  0.569  0.578  0.710
    eigenvectors:
  0.000  0.000  0.186  0.000  0.814
  0.500  0.000  0.000  0.500  0.000
  0.500  0.000  0.000  0.500  0.000
  0.000  1.000  0.000  0.000  0.000
  0.000  0.000  0.814  0.000  0.186
    occupations:
  0.684  0.000  0.000 -0.000 -0.055
  0.000  0.552 -0.027 -0.000 -0.000
  0.000 -0.027  0.552  0.000 -0.000
 -0.000 -0.000  0.000  0.526 -0.000
 -0.055 -0.000 -0.000 -0.000  0.595
   spin  2
    eigenvalues: 
  0.525  0.526  0.569  0.578  0.710
    eigenvectors:
  0.000  0.000  0.186  0.000  0.814
  0.500  0.000  0.000  0.500  0.000
  0.500  0.000  0.000  0.500  0.000
  0.000  1.000  0.000  0.000  0.000
  0.000  0.000  0.814  0.000  0.186
    occupations:
  0.684  0.000  0.000 -0.000 -0.055
  0.000  0.552 -0.027 -0.000 -0.000
  0.000 -0.027  0.552  0.000 -0.000
 -0.000 -0.000  0.000  0.526 -0.000
 -0.055 -0.000 -0.000 -0.000  0.595
atomic mag. moment =     0.000000
atom    5   Tr[ns(na)] (up, down, total) =   2.91030  2.91031  5.82061
   spin  1
    eigenvalues: 
  0.525  0.526  0.569  0.579  0.711
    eigenvectors:
  0.000  0.000  0.187  0.000  0.813
  0.500  0.000  0.000  0.500  0.000
  0.500  0.000  0.000  0.500  0.000
  0.000  1.000  0.000  0.000  0.000
  0.000  0.000  0.813  0.000  0.187
    occupations:
  0.684 -0.000 -0.000  0.000  0.055
 -0.000  0.552  0.027  0.000  0.000
 -0.000  0.027  0.552  0.000  0.000
  0.000  0.000  0.000  0.526  0.000
  0.055  0.000  0.000  0.000  0.596
   spin  2
    eigenvalues: 
  0.525  0.526  0.569  0.579  0.711
    eigenvectors:
  0.000  0.000  0.187  0.000  0.813
  0.500  0.000  0.000  0.500  0.000
  0.500  0.000  0.000  0.500  0.000
  0.000  1.000  0.000  0.000  0.000
  0.000  0.000  0.813  0.000  0.187
    occupations:
  0.684 -0.000 -0.000  0.000  0.055
 -0.000  0.552  0.027  0.000  0.000
 -0.000  0.027  0.552  0.000  0.000
  0.000  0.000  0.000  0.526  0.000
  0.055  0.000  0.000  0.000  0.596
atomic mag. moment =    -0.000003
atom    6   Tr[ns(na)] (up, down, total) =   2.90918  2.90918  5.81836
   spin  1
    eigenvalues: 
  0.525  0.526  0.569  0.578  0.710
    eigenvectors:
  0.000  0.000  0.187  0.000  0.813
  0.500  0.000  0.000  0.500  0.000
  0.500  0.000  0.000  0.500  0.000
  0.000  1.000  0.000  0.000  0.000
  0.000  0.000  0.813  0.000  0.187
    occupations:
  0.684 -0.000  0.000 -0.000 -0.055
 -0.000  0.552 -0.026  0.000  0.000
  0.000 -0.026  0.552 -0.000 -0.000
 -0.000  0.000 -0.000  0.526  0.000
 -0.055  0.000 -0.000  0.000  0.595
   spin  2
    eigenvalues: 
  0.525  0.526  0.569  0.578  0.710
    eigenvectors:
  0.000  0.000  0.187  0.000  0.813
  0.500  0.000  0.000  0.500  0.000
  0.500  0.000  0.000  0.500  0.000
  0.000  1.000  0.000  0.000  0.000
  0.000  0.000  0.813  0.000  0.187
    occupations:
  0.684 -0.000  0.000 -0.000 -0.055
 -0.000  0.552 -0.026  0.000  0.000
  0.000 -0.026  0.552 -0.000 -0.000
 -0.000  0.000 -0.000  0.526  0.000
 -0.055  0.000 -0.000  0.000  0.595
atomic mag. moment =     0.000001
atom    7   Tr[ns(na)] (up, down, total) =   2.90995  2.90995  5.81990
   spin  1
    eigenvalues: 
  0.525  0.526  0.569  0.579  0.710
    eigenvectors:
  0.000  0.000  0.186  0.000  0.814
  0.500  0.000  0.000  0.500  0.000
  0.500  0.000  0.000  0.500  0.000
  0.000  1.000  0.000  0.000  0.000
  0.000  0.000  0.814  0.000  0.186
    occupations:
  0.684 -0.000 -0.000 -0.000  0.055
 -0.000  0.552  0.027  0.000  0.000
 -0.000  0.027  0.552  0.000  0.000
 -0.000  0.000  0.000  0.526 -0.000
  0.055  0.000  0.000 -0.000  0.596
   spin  2
    eigenvalues: 
  0.525  0.526  0.569  0.579  0.710
    eigenvectors:
  0.000  0.000  0.186  0.000  0.814
  0.500  0.000  0.000  0.500  0.000
  0.500  0.000  0.000  0.500  0.000
  0.000  1.000  0.000  0.000  0.000
  0.000  0.000  0.814  0.000  0.186
    occupations:
  0.684 -0.000 -0.000 -0.000  0.055
 -0.000  0.552  0.027  0.000  0.000
 -0.000  0.027  0.552  0.000  0.000
 -0.000  0.000  0.000  0.526 -0.000
  0.055  0.000  0.000 -0.000  0.596
atomic mag. moment =     0.000002
atom    8   Tr[ns(na)] (up, down, total) =   2.90918  2.90918  5.81836
   spin  1
    eigenvalues: 
  0.525  0.526  0.569  0.578  0.710
    eigenvectors:
  0.000  0.000  0.187  0.000  0.813
  0.500  0.000  0.000  0.500  0.000
  0.500  0.000  0.000  0.500  0.000
  0.000  1.000  0.000  0.000  0.000
  0.000  0.000  0.813  0.000  0.187
    occupations:
  0.684  0.000 -0.000 -0.000 -0.055
  0.000  0.552 -0.026 -0.000 -0.000
 -0.000 -0.026  0.552  0.000  0.000
 -0.000 -0.000  0.000  0.526  0.000
 -0.055 -0.000  0.000  0.000  0.595
   spin  2
    eigenvalues: 
  0.525  0.526  0.569  0.578  0.710
    eigenvectors:
  0.000  0.000  0.187  0.000  0.813
  0.500  0.000  0.000  0.500  0.000
  0.500  0.000  0.000  0.500  0.000
  0.000  1.000  0.000  0.000  0.000
  0.000  0.000  0.813  0.000  0.187
    occupations:
  0.684  0.000 -0.000 -0.000 -0.055
  0.000  0.552 -0.026 -0.000 -0.000
 -0.000 -0.026  0.552  0.000  0.000
 -0.000 -0.000  0.000  0.526  0.000
 -0.055 -0.000  0.000  0.000  0.595
atomic mag. moment =     0.000001
atom    9   Tr[ns(na)] (up, down, total) =   2.91030  2.91031  5.82061
   spin  1
    eigenvalues: 
  0.525  0.526  0.569  0.579  0.711
    eigenvectors:
  0.000  0.000  0.187  0.000  0.813
  0.500  0.000  0.000  0.500  0.000
  0.500  0.000  0.000  0.500  0.000
  0.000  1.000  0.000  0.000  0.000
  0.000  0.000  0.813  0.000  0.187
    occupations:
  0.684 -0.000 -0.000 -0.000  0.055
 -0.000  0.552  0.027  0.000  0.000
 -0.000  0.027  0.552  0.000  0.000
 -0.000  0.000  0.000  0.526 -0.000
  0.055  0.000  0.000 -0.000  0.596
   spin  2
    eigenvalues: 
  0.525  0.526  0.569  0.579  0.711
    eigenvectors:
  0.000  0.000  0.187  0.000  0.813
  0.500  0.000  0.000  0.500  0.000
  0.500  0.000  0.000  0.500  0.000
  0.000  1.000  0.000  0.000  0.000
  0.000  0.000  0.813  0.000  0.187
    occupations:
  0.684 -0.000 -0.000 -0.000  0.055
 -0.000  0.552  0.027  0.000  0.000
 -0.000  0.027  0.552  0.000  0.000
 -0.000  0.000  0.000  0.526 -0.000
  0.055  0.000  0.000 -0.000  0.596
atomic mag. moment =    -0.000003
atom   10   Tr[ns(na)] (up, down, total) =   2.90918  2.90918  5.81836
   spin  1
    eigenvalues: 
  0.525  0.526  0.569  0.578  0.710
    eigenvectors:
  0.000  0.000  0.187  0.000  0.813
  0.500  0.000  0.000  0.500  0.000
  0.500  0.000  0.000  0.500  0.000
  0.000  1.000  0.000  0.000  0.000
  0.000  0.000  0.813  0.000  0.187
    occupations:
  0.684  0.000 -0.000  0.000 -0.055
  0.000  0.552 -0.026  0.000 -0.000
 -0.000 -0.026  0.552 -0.000  0.000
  0.000  0.000 -0.000  0.526 -0.000
 -0.055 -0.000  0.000 -0.000  0.595
   spin  2
    eigenvalues: 
  0.525  0.526  0.569  0.578  0.710
    eigenvectors:
  0.000  0.000  0.187  0.000  0.813
  0.500  0.000  0.000  0.500  0.000
  0.500  0.000  0.000  0.500  0.000
  0.000  1.000  0.000  0.000  0.000
  0.000  0.000  0.813  0.000  0.187
    occupations:
  0.684  0.000 -0.000  0.000 -0.055
  0.000  0.552 -0.026  0.000 -0.000
 -0.000 -0.026  0.552 -0.000  0.000
  0.000  0.000 -0.000  0.526 -0.000
 -0.055 -0.000  0.000 -0.000  0.595
atomic mag. moment =     0.000001
atom   11   Tr[ns(na)] (up, down, total) =   2.90995  2.90995  5.81990
   spin  1
    eigenvalues: 
  0.525  0.526  0.569  0.579  0.710
    eigenvectors:
  0.000  0.000  0.186  0.000  0.814
  0.500  0.000  0.000  0.500  0.000
  0.500  0.000  0.000  0.500  0.000
  0.000  1.000  0.000  0.000  0.000
  0.000  0.000  0.814  0.000  0.186
    occupations:
  0.684 -0.000 -0.000  0.000  0.055
 -0.000  0.552  0.027  0.000  0.000
 -0.000  0.027  0.552  0.000  0.000
  0.000  0.000  0.000  0.526  0.000
  0.055  0.000  0.000  0.000  0.596
   spin  2
    eigenvalues: 
  0.525  0.526  0.569  0.579  0.710
    eigenvectors:
  0.000  0.000  0.186  0.000  0.814
  0.500  0.000  0.000  0.500  0.000
  0.500  0.000  0.000  0.500  0.000
  0.000  1.000  0.000  0.000  0.000
  0.000  0.000  0.814  0.000  0.186
    occupations:
  0.684 -0.000 -0.000  0.000  0.055
 -0.000  0.552  0.027  0.000  0.000
 -0.000  0.027  0.552  0.000  0.000
  0.000  0.000  0.000  0.526  0.000
  0.055  0.000  0.000  0.000  0.596
atomic mag. moment =     0.000002
atom   12   Tr[ns(na)] (up, down, total) =   2.90918  2.90918  5.81836
   spin  1
    eigenvalues: 
  0.525  0.526  0.569  0.578  0.710
    eigenvectors:
  0.000  0.000  0.187  0.000  0.813
  0.500  0.000  0.000  0.500  0.000
  0.500  0.000  0.000  0.500  0.000
  0.000  1.000  0.000  0.000  0.000
  0.000  0.000  0.813  0.000  0.187
    occupations:
  0.684 -0.000  0.000  0.000 -0.055
 -0.000  0.552 -0.026 -0.000  0.000
  0.000 -0.026  0.552  0.000 -0.000
  0.000 -0.000  0.000  0.526 -0.000
 -0.055  0.000 -0.000 -0.000  0.595
   spin  2
    eigenvalues: 
  0.525  0.526  0.569  0.578  0.710
    eigenvectors:
  0.000  0.000  0.187  0.000  0.813
  0.500  0.000  0.000  0.500  0.000
  0.500  0.000  0.000  0.500  0.000
  0.000  1.000  0.000  0.000  0.000
  0.000  0.000  0.813  0.000  0.187
    occupations:
  0.684 -0.000  0.000  0.000 -0.055
 -0.000  0.552 -0.026 -0.000  0.000
  0.000 -0.026  0.552  0.000 -0.000
  0.000 -0.000  0.000  0.526 -0.000
 -0.055  0.000 -0.000 -0.000  0.595
atomic mag. moment =     0.000001
atom   13   Tr[ns(na)] (up, down, total) =   2.90753  2.90753  5.81506
   spin  1
    eigenvalues: 
  0.525  0.526  0.569  0.578  0.709
    eigenvectors:
  0.000  0.000  0.187  0.000  0.813
  0.500  0.000  0.000  0.500  0.000
  0.500  0.000  0.000  0.500  0.000
  0.000  1.000  0.000  0.000  0.000
  0.000  0.000  0.813  0.000  0.187
    occupations:
  0.683 -0.000 -0.000 -0.000  0.055
 -0.000  0.552  0.026  0.000  0.000
 -0.000  0.026  0.552  0.000  0.000
 -0.000  0.000  0.000  0.526 -0.000
  0.055  0.000  0.000 -0.000  0.595
   spin  2
    eigenvalues: 
  0.525  0.526  0.569  0.578  0.709
    eigenvectors:
  0.000  0.000  0.187  0.000  0.813
  0.500  0.000  0.000  0.500  0.000
  0.500  0.000  0.000  0.500  0.000
  0.000  1.000  0.000  0.000  0.000
  0.000  0.000  0.813  0.000  0.187
    occupations:
  0.683 -0.000 -0.000 -0.000  0.055
 -0.000  0.552  0.026  0.000  0.000
 -0.000  0.026  0.552  0.000  0.000
 -0.000  0.000  0.000  0.526 -0.000
  0.055  0.000  0.000 -0.000  0.595
atomic mag. moment =    -0.000003
atom   14   Tr[ns(na)] (up, down, total) =   2.90913  2.90913  5.81826
   spin  1
    eigenvalues: 
  0.525  0.526  0.569  0.578  0.710
    eigenvectors:
  0.000  0.000  0.187  0.000  0.813
  0.500  0.000  0.000  0.500  0.000
  0.500  0.000  0.000  0.500  0.000
  0.000  1.000  0.000  0.000  0.000
  0.000  0.000  0.813  0.000  0.187
    occupations:
  0.684 -0.000 -0.000 -0.000 -0.055
 -0.000  0.552 -0.027  0.000  0.000
 -0.000 -0.027  0.552 -0.000  0.000
 -0.000  0.000 -0.000  0.526 -0.000
 -0.055  0.000  0.000 -0.000  0.595
   spin  2
    eigenvalues: 
  0.525  0.526  0.569  0.578  0.710
    eigenvectors:
  0.000  0.000  0.187  0.000  0.813
  0.500  0.000  0.000  0.500  0.000
  0.500  0.000  0.000  0.500  0.000
  0.000  1.000  0.000  0.000  0.000
  0.000  0.000  0.813  0.000  0.187
    occupations:
  0.684 -0.000 -0.000 -0.000 -0.055
 -0.000  0.552 -0.027  0.000  0.000
 -0.000 -0.027  0.552 -0.000  0.000
 -0.000  0.000 -0.000  0.526 -0.000
 -0.055  0.000  0.000 -0.000  0.595
atomic mag. moment =     0.000001
atom   15   Tr[ns(na)] (up, down, total) =   2.91002  2.91002  5.82005
   spin  1
    eigenvalues: 
  0.525  0.526  0.569  0.579  0.710
    eigenvectors:
  0.000  0.000  0.187  0.000  0.813
  0.500  0.000  0.000  0.500  0.000
  0.500  0.000  0.000  0.500  0.000
  0.000  1.000  0.000  0.000  0.000
  0.000  0.000  0.813  0.000  0.187
    occupations:
  0.684 -0.000 -0.000 -0.000  0.055
 -0.000  0.552  0.027  0.000  0.000
 -0.000  0.027  0.552  0.000  0.000
 -0.000  0.000  0.000  0.526 -0.000
  0.055  0.000  0.000 -0.000  0.596
   spin  2
    eigenvalues: 
  0.525  0.526  0.569  0.579  0.710
    eigenvectors:
  0.000  0.000  0.187  0.000  0.813
  0.500  0.000  0.000  0.500  0.000
  0.500  0.000  0.000  0.500  0.000
  0.000  1.000  0.000  0.000  0.000
  0.000  0.000  0.813  0.000  0.187
    occupations:
  0.684 -0.000 -0.000 -0.000  0.055
 -0.000  0.552  0.027  0.000  0.000
 -0.000  0.027  0.552  0.000  0.000
 -0.000  0.000  0.000  0.526 -0.000
  0.055  0.000  0.000 -0.000  0.596
atomic mag. moment =     0.000000
atom   16   Tr[ns(na)] (up, down, total) =   2.90913  2.90913  5.81826
   spin  1
    eigenvalues: 
  0.525  0.526  0.569  0.578  0.710
    eigenvectors:
  0.000  0.000  0.187  0.000  0.813
  0.500  0.000  0.000  0.500  0.000
  0.500  0.000  0.000  0.500  0.000
  0.000  1.000  0.000  0.000  0.000
  0.000  0.000  0.813  0.000  0.187
    occupations:
  0.684  0.000  0.000 -0.000 -0.055
  0.000  0.552 -0.027 -0.000 -0.000
  0.000 -0.027  0.552  0.000 -0.000
 -0.000 -0.000  0.000  0.526 -0.000
 -0.055 -0.000 -0.000 -0.000  0.595
   spin  2
    eigenvalues: 
  0.525  0.526  0.569  0.578  0.710
    eigenvectors:
  0.000  0.000  0.187  0.000  0.813
  0.500  0.000  0.000  0.500  0.000
  0.500  0.000  0.000  0.500  0.000
  0.000  1.000  0.000  0.000  0.000
  0.000  0.000  0.813  0.000  0.187
    occupations:
  0.684  0.000  0.000 -0.000 -0.055
  0.000  0.552 -0.027 -0.000 -0.000
  0.000 -0.027  0.552  0.000 -0.000
 -0.000 -0.000  0.000  0.526 -0.000
 -0.055 -0.000 -0.000 -0.000  0.595
atomic mag. moment =     0.000001
atom   17   Tr[ns(na)] (up, down, total) =   2.71015  2.71015  5.42031
   spin  1
    eigenvalues: 
  0.903  0.903  0.905
    eigenvectors:
  0.000  0.000  1.000
  0.500  0.500  0.000
  0.500  0.500  0.000
    occupations:
  0.905 -0.000 -0.000
 -0.000  0.903  0.000
 -0.000  0.000  0.903
   spin  2
    eigenvalues: 
  0.903  0.903  0.905
    eigenvectors:
  0.000  0.000  1.000
  0.500  0.500  0.000
  0.500  0.500  0.000
    occupations:
  0.905 -0.000 -0.000
 -0.000  0.903  0.000
 -0.000  0.000  0.903
atomic mag. moment =     0.000000
atom   18   Tr[ns(na)] (up, down, total) =   2.70507  2.70507  5.41013
   spin  1
    eigenvalues: 
  0.900  0.902  0.903
    eigenvectors:
  0.000  0.000  1.000
  0.500  0.500  0.000
  0.500  0.500  0.000
    occupations:
  0.903 -0.000 -0.000
 -0.000  0.901  0.001
 -0.000  0.001  0.901
   spin  2
    eigenvalues: 
  0.900  0.902  0.903
    eigenvectors:
  0.000  0.000  1.000
  0.500  0.500  0.000
  0.500  0.500  0.000
    occupations:
  0.903 -0.000 -0.000
 -0.000  0.901  0.001
 -0.000  0.001  0.901
atomic mag. moment =     0.000000
atom   19   Tr[ns(na)] (up, down, total) =   2.70505  2.70505  5.41010
   spin  1
    eigenvalues: 
  0.900  0.902  0.903
    eigenvectors:
  0.000  0.000  1.000
  0.499  0.501  0.000
  0.501  0.499  0.000
    occupations:
  0.903  0.000  0.000
  0.000  0.901 -0.001
  0.000 -0.001  0.901
   spin  2
    eigenvalues: 
  0.900  0.902  0.903
    eigenvectors:
  0.000  0.000  1.000
  0.499  0.501  0.000
  0.501  0.499  0.000
    occupations:
  0.903  0.000  0.000
  0.000  0.901 -0.001
  0.000 -0.001  0.901
atomic mag. moment =    -0.000000
atom   20   Tr[ns(na)] (up, down, total) =   2.70505  2.70505  5.41010
   spin  1
    eigenvalues: 
  0.900  0.902  0.903
    eigenvectors:
  0.000  0.000  1.000
  0.501  0.499  0.000
  0.499  0.501  0.000
    occupations:
  0.903  0.000  0.000
  0.000  0.901 -0.001
  0.000 -0.001  0.901
   spin  2
    eigenvalues: 
  0.900  0.902  0.903
    eigenvectors:
  0.000  0.000  1.000
  0.501  0.499  0.000
  0.499  0.501  0.000
    occupations:
  0.903  0.000  0.000
  0.000  0.901 -0.001
  0.000 -0.001  0.901
atomic mag. moment =    -0.000000
atom   21   Tr[ns(na)] (up, down, total) =   2.70513  2.70513  5.41026
   spin  1
    eigenvalues: 
  0.900  0.902  0.903
    eigenvectors:
  0.000  0.000  1.000
  0.500  0.500  0.000
  0.500  0.500  0.000
    occupations:
  0.903 -0.000 -0.000
 -0.000  0.901  0.001
 -0.000  0.001  0.901
   spin  2
    eigenvalues: 
  0.900  0.902  0.903
    eigenvectors:
  0.000  0.000  1.000
  0.500  0.500  0.000
  0.500  0.500  0.000
    occupations:
  0.903 -0.000 -0.000
 -0.000  0.901  0.001
 -0.000  0.001  0.901
atomic mag. moment =     0.000000
atom   22   Tr[ns(na)] (up, down, total) =   2.70494  2.70494  5.40987
   spin  1
    eigenvalues: 
  0.900  0.902  0.903
    eigenvectors:
  0.000  0.000  1.000
  0.500  0.500  0.000
  0.500  0.500  0.000
    occupations:
  0.903 -0.000 -0.000
 -0.000  0.901  0.001
 -0.000  0.001  0.901
   spin  2
    eigenvalues: 
  0.900  0.902  0.903
    eigenvectors:
  0.000  0.000  1.000
  0.500  0.500  0.000
  0.500  0.500  0.000
    occupations:
  0.903 -0.000 -0.000
 -0.000  0.901  0.001
 -0.000  0.001  0.901
atomic mag. moment =     0.000000
atom   23   Tr[ns(na)] (up, down, total) =   2.70505  2.70505  5.41010
   spin  1
    eigenvalues: 
  0.900  0.902  0.903
    eigenvectors:
  0.000  0.000  1.000
  0.499  0.501  0.000
  0.501  0.499  0.000
    occupations:
  0.903 -0.000 -0.000
 -0.000  0.901 -0.001
 -0.000 -0.001  0.901
   spin  2
    eigenvalues: 
  0.900  0.902  0.903
    eigenvectors:
  0.000  0.000  1.000
  0.499  0.501  0.000
  0.501  0.499  0.000
    occupations:
  0.903 -0.000 -0.000
 -0.000  0.901 -0.001
 -0.000 -0.001  0.901
atomic mag. moment =    -0.000000
atom   24   Tr[ns(na)] (up, down, total) =   2.70505  2.70505  5.41010
   spin  1
    eigenvalues: 
  0.900  0.902  0.903
    eigenvectors:
  0.000  0.000  1.000
  0.501  0.499  0.000
  0.499  0.501  0.000
    occupations:
  0.903 -0.000 -0.000
 -0.000  0.901 -0.001
 -0.000 -0.001  0.901
   spin  2
    eigenvalues: 
  0.900  0.902  0.903
    eigenvectors:
  0.000  0.000  1.000
  0.501  0.499  0.000
  0.499  0.501  0.000
    occupations:
  0.903 -0.000 -0.000
 -0.000  0.901 -0.001
 -0.000 -0.001  0.901
atomic mag. moment =    -0.000000
atom   25   Tr[ns(na)] (up, down, total) =   2.70511  2.70511  5.41022
   spin  1
    eigenvalues: 
  0.900  0.902  0.903
    eigenvectors:
  0.000  0.000  1.000
  0.500  0.500  0.000
  0.500  0.500  0.000
    occupations:
  0.903 -0.000 -0.000
 -0.000  0.901  0.001
 -0.000  0.001  0.901
   spin  2
    eigenvalues: 
  0.900  0.902  0.903
    eigenvectors:
  0.000  0.000  1.000
  0.500  0.500  0.000
  0.500  0.500  0.000
    occupations:
  0.903 -0.000 -0.000
 -0.000  0.901  0.001
 -0.000  0.001  0.901
atomic mag. moment =     0.000000
atom   26   Tr[ns(na)] (up, down, total) =   2.70514  2.70514  5.41028
   spin  1
    eigenvalues: 
  0.900  0.902  0.903
    eigenvectors:
  0.000  0.000  1.000
  0.501  0.499  0.000
  0.499  0.501  0.000
    occupations:
  0.903 -0.000 -0.000
 -0.000  0.901  0.001
 -0.000  0.001  0.901
   spin  2
    eigenvalues: 
  0.900  0.902  0.903
    eigenvectors:
  0.000  0.000  1.000
  0.501  0.499  0.000
  0.499  0.501  0.000
    occupations:
  0.903 -0.000 -0.000
 -0.000  0.901  0.001
 -0.000  0.001  0.901
atomic mag. moment =     0.000000
atom   27   Tr[ns(na)] (up, down, total) =   2.70499  2.70499  5.40998
   spin  1
    eigenvalues: 
  0.900  0.902  0.903
    eigenvectors:
  0.000  0.000  1.000
  0.500  0.500  0.000
  0.500  0.500  0.000
    occupations:
  0.903  0.000 -0.000
  0.000  0.901 -0.001
 -0.000 -0.001  0.901
   spin  2
    eigenvalues: 
  0.900  0.902  0.903
    eigenvectors:
  0.000  0.000  1.000
  0.500  0.500  0.000
  0.500  0.500  0.000
    occupations:
  0.903  0.000 -0.000
  0.000  0.901 -0.001
 -0.000 -0.001  0.901
atomic mag. moment =    -0.000000
atom   28   Tr[ns(na)] (up, down, total) =   2.70512  2.70512  5.41025
   spin  1
    eigenvalues: 
  0.900  0.902  0.903
    eigenvectors:
  0.000  0.000  1.000
  0.500  0.500  0.000
  0.500  0.500  0.000
    occupations:
  0.903 -0.000  0.000
 -0.000  0.901 -0.001
  0.000 -0.001  0.901
   spin  2
    eigenvalues: 
  0.900  0.902  0.903
    eigenvectors:
  0.000  0.000  1.000
  0.500  0.500  0.000
  0.500  0.500  0.000
    occupations:
  0.903 -0.000  0.000
 -0.000  0.901 -0.001
  0.000 -0.001  0.901
atomic mag. moment =    -0.000000
atom   29   Tr[ns(na)] (up, down, total) =   2.70497  2.70497  5.40995
   spin  1
    eigenvalues: 
  0.900  0.902  0.903
    eigenvectors:
  0.000  0.000  1.000
  0.499  0.501  0.000
  0.501  0.499  0.000
    occupations:
  0.903 -0.000 -0.000
 -0.000  0.901  0.001
 -0.000  0.001  0.901
   spin  2
    eigenvalues: 
  0.900  0.902  0.903
    eigenvectors:
  0.000  0.000  1.000
  0.499  0.501  0.000
  0.501  0.499  0.000
    occupations:
  0.903 -0.000 -0.000
 -0.000  0.901  0.001
 -0.000  0.001  0.901
atomic mag. moment =    -0.000000
atom   30   Tr[ns(na)] (up, down, total) =   2.70501  2.70501  5.41003
   spin  1
    eigenvalues: 
  0.900  0.902  0.903
    eigenvectors:
  0.000  0.000  1.000
  0.500  0.500  0.000
  0.500  0.500  0.000
    occupations:
  0.903 -0.000 -0.000
 -0.000  0.901  0.001
 -0.000  0.001  0.901
   spin  2
    eigenvalues: 
  0.900  0.902  0.903
    eigenvectors:
  0.000  0.000  1.000
  0.500  0.500  0.000
  0.500  0.500  0.000
    occupations:
  0.903 -0.000 -0.000
 -0.000  0.901  0.001
 -0.000  0.001  0.901
atomic mag. moment =    -0.000000
atom   31   Tr[ns(na)] (up, down, total) =   2.70499  2.70499  5.40998
   spin  1
    eigenvalues: 
  0.900  0.902  0.903
    eigenvectors:
  0.000  0.000  1.000
  0.500  0.500  0.000
  0.500  0.500  0.000
    occupations:
  0.903 -0.000  0.000
 -0.000  0.901 -0.001
  0.000 -0.001  0.901
   spin  2
    eigenvalues: 
  0.900  0.902  0.903
    eigenvectors:
  0.000  0.000  1.000
  0.500  0.500  0.000
  0.500  0.500  0.000
    occupations:
  0.903 -0.000  0.000
 -0.000  0.901 -0.001
  0.000 -0.001  0.901
atomic mag. moment =    -0.000000
atom   32   Tr[ns(na)] (up, down, total) =   2.70512  2.70512  5.41025
   spin  1
    eigenvalues: 
  0.900  0.902  0.903
    eigenvectors:
  0.000  0.000  1.000
  0.500  0.500  0.000
  0.500  0.500  0.000
    occupations:
  0.903  0.000 -0.000
  0.000  0.901 -0.001
 -0.000 -0.001  0.901
   spin  2
    eigenvalues: 
  0.900  0.902  0.903
    eigenvectors:
  0.000  0.000  1.000
  0.500  0.500  0.000
  0.500  0.500  0.000
    occupations:
  0.903  0.000 -0.000
  0.000  0.901 -0.001
 -0.000 -0.001  0.901
atomic mag. moment =    -0.000000
atom   33   Tr[ns(na)] (up, down, total) =   2.70511  2.70511  5.41022
   spin  1
    eigenvalues: 
  0.900  0.902  0.903
    eigenvectors:
  0.000  0.000  1.000
  0.500  0.500  0.000
  0.500  0.500  0.000
    occupations:
  0.903 -0.000 -0.000
 -0.000  0.901  0.001
 -0.000  0.001  0.901
   spin  2
    eigenvalues: 
  0.900  0.902  0.903
    eigenvectors:
  0.000  0.000  1.000
  0.500  0.500  0.000
  0.500  0.500  0.000
    occupations:
  0.903 -0.000 -0.000
 -0.000  0.901  0.001
 -0.000  0.001  0.901
atomic mag. moment =     0.000000
atom   34   Tr[ns(na)] (up, down, total) =   2.70514  2.70514  5.41028
   spin  1
    eigenvalues: 
  0.900  0.902  0.903
    eigenvectors:
  0.000  0.000  1.000
  0.499  0.501  0.000
  0.501  0.499  0.000
    occupations:
  0.903 -0.000 -0.000
 -0.000  0.901  0.001
 -0.000  0.001  0.901
   spin  2
    eigenvalues: 
  0.900  0.902  0.903
    eigenvectors:
  0.000  0.000  1.000
  0.499  0.501  0.000
  0.501  0.499  0.000
    occupations:
  0.903 -0.000 -0.000
 -0.000  0.901  0.001
 -0.000  0.001  0.901
atomic mag. moment =     0.000000
atom   35   Tr[ns(na)] (up, down, total) =   2.70512  2.70512  5.41025
   spin  1
    eigenvalues: 
  0.900  0.902  0.903
    eigenvectors:
  0.000  0.000  1.000
  0.500  0.500  0.000
  0.500  0.500  0.000
    occupations:
  0.903  0.000 -0.000
  0.000  0.901 -0.001
 -0.000 -0.001  0.901
   spin  2
    eigenvalues: 
  0.900  0.902  0.903
    eigenvectors:
  0.000  0.000  1.000
  0.500  0.500  0.000
  0.500  0.500  0.000
    occupations:
  0.903  0.000 -0.000
  0.000  0.901 -0.001
 -0.000 -0.001  0.901
atomic mag. moment =    -0.000000
atom   36   Tr[ns(na)] (up, down, total) =   2.70499  2.70499  5.40998
   spin  1
    eigenvalues: 
  0.900  0.902  0.903
    eigenvectors:
  0.000  0.000  1.000
  0.500  0.500  0.000
  0.500  0.500  0.000
    occupations:
  0.903 -0.000  0.000
 -0.000  0.901 -0.001
  0.000 -0.001  0.901
   spin  2
    eigenvalues: 
  0.900  0.902  0.903
    eigenvectors:
  0.000  0.000  1.000
  0.500  0.500  0.000
  0.500  0.500  0.000
    occupations:
  0.903 -0.000  0.000
 -0.000  0.901 -0.001
  0.000 -0.001  0.901
atomic mag. moment =    -0.000000
atom   37   Tr[ns(na)] (up, down, total) =   2.70497  2.70497  5.40995
   spin  1
    eigenvalues: 
  0.900  0.902  0.903
    eigenvectors:
  0.000  0.000  1.000
  0.501  0.499  0.000
  0.499  0.501  0.000
    occupations:
  0.903 -0.000 -0.000
 -0.000  0.901  0.001
 -0.000  0.001  0.901
   spin  2
    eigenvalues: 
  0.900  0.902  0.903
    eigenvectors:
  0.000  0.000  1.000
  0.501  0.499  0.000
  0.499  0.501  0.000
    occupations:
  0.903 -0.000 -0.000
 -0.000  0.901  0.001
 -0.000  0.001  0.901
atomic mag. moment =    -0.000000
atom   38   Tr[ns(na)] (up, down, total) =   2.70501  2.70501  5.41003
   spin  1
    eigenvalues: 
  0.900  0.902  0.903
    eigenvectors:
  0.000  0.000  1.000
  0.500  0.500  0.000
  0.500  0.500  0.000
    occupations:
  0.903 -0.000 -0.000
 -0.000  0.901  0.001
 -0.000  0.001  0.901
   spin  2
    eigenvalues: 
  0.900  0.902  0.903
    eigenvectors:
  0.000  0.000  1.000
  0.500  0.500  0.000
  0.500  0.500  0.000
    occupations:
  0.903 -0.000 -0.000
 -0.000  0.901  0.001
 -0.000  0.001  0.901
atomic mag. moment =    -0.000000
atom   39   Tr[ns(na)] (up, down, total) =   2.70512  2.70512  5.41025
   spin  1
    eigenvalues: 
  0.900  0.902  0.903
    eigenvectors:
  0.000  0.000  1.000
  0.500  0.500  0.000
  0.500  0.500  0.000
    occupations:
  0.903 -0.000  0.000
 -0.000  0.901 -0.001
  0.000 -0.001  0.901
   spin  2
    eigenvalues: 
  0.900  0.902  0.903
    eigenvectors:
  0.000  0.000  1.000
  0.500  0.500  0.000
  0.500  0.500  0.000
    occupations:
  0.903 -0.000  0.000
 -0.000  0.901 -0.001
  0.000 -0.001  0.901
atomic mag. moment =    -0.000000
atom   40   Tr[ns(na)] (up, down, total) =   2.70499  2.70499  5.40998
   spin  1
    eigenvalues: 
  0.900  0.902  0.903
    eigenvectors:
  0.000  0.000  1.000
  0.500  0.500  0.000
  0.500  0.500  0.000
    occupations:
  0.903  0.000 -0.000
  0.000  0.901 -0.001
 -0.000 -0.001  0.901
   spin  2
    eigenvalues: 
  0.900  0.902  0.903
    eigenvectors:
  0.000  0.000  1.000
  0.500  0.500  0.000
  0.500  0.500  0.000
    occupations:
  0.903  0.000 -0.000
  0.000  0.901 -0.001
 -0.000 -0.001  0.901
atomic mag. moment =    -0.000000
atom   41   Tr[ns(na)] (up, down, total) =   2.70528  2.70528  5.41056
   spin  1
    eigenvalues: 
  0.900  0.902  0.903
    eigenvectors:
  0.000  0.000  1.000
  0.500  0.500  0.000
  0.500  0.500  0.000
    occupations:
  0.903 -0.000 -0.000
 -0.000  0.901  0.001
 -0.000  0.001  0.901
   spin  2
    eigenvalues: 
  0.900  0.902  0.903
    eigenvectors:
  0.000  0.000  1.000
  0.500  0.500  0.000
  0.500  0.500  0.000
    occupations:
  0.903 -0.000 -0.000
 -0.000  0.901  0.001
 -0.000  0.001  0.901
atomic mag. moment =     0.000000
atom   42   Tr[ns(na)] (up, down, total) =   2.70480  2.70480  5.40960
   spin  1
    eigenvalues: 
  0.900  0.902  0.903
    eigenvectors:
  0.000  0.000  1.000
  0.500  0.500  0.000
  0.500  0.500  0.000
    occupations:
  0.903 -0.000 -0.000
 -0.000  0.901  0.001
 -0.000  0.001  0.901
   spin  2
    eigenvalues: 
  0.900  0.902  0.903
    eigenvectors:
  0.000  0.000  1.000
  0.500  0.500  0.000
  0.500  0.500  0.000
    occupations:
  0.903 -0.000 -0.000
 -0.000  0.901  0.001
 -0.000  0.001  0.901
atomic mag. moment =     0.000000
atom   43   Tr[ns(na)] (up, down, total) =   2.70515  2.70515  5.41029
   spin  1
    eigenvalues: 
  0.900  0.902  0.903
    eigenvectors:
  0.000  0.000  1.000
  0.499  0.501  0.000
  0.501  0.499  0.000
    occupations:
  0.903 -0.000  0.000
 -0.000  0.901 -0.001
  0.000 -0.001  0.901
   spin  2
    eigenvalues: 
  0.900  0.902  0.903
    eigenvectors:
  0.000  0.000  1.000
  0.499  0.501  0.000
  0.501  0.499  0.000
    occupations:
  0.903 -0.000  0.000
 -0.000  0.901 -0.001
  0.000 -0.001  0.901
atomic mag. moment =    -0.000000
atom   44   Tr[ns(na)] (up, down, total) =   2.70515  2.70515  5.41029
   spin  1
    eigenvalues: 
  0.900  0.902  0.903
    eigenvectors:
  0.000  0.000  1.000
  0.501  0.499  0.000
  0.499  0.501  0.000
    occupations:
  0.903  0.000 -0.000
  0.000  0.901 -0.001
 -0.000 -0.001  0.901
   spin  2
    eigenvalues: 
  0.900  0.902  0.903
    eigenvectors:
  0.000  0.000  1.000
  0.501  0.499  0.000
  0.499  0.501  0.000
    occupations:
  0.903  0.000 -0.000
  0.000  0.901 -0.001
 -0.000 -0.001  0.901
atomic mag. moment =    -0.000000
atom   45   Tr[ns(na)] (up, down, total) =   2.70517  2.70517  5.41033
   spin  1
    eigenvalues: 
  0.900  0.902  0.903
    eigenvectors:
  0.000  0.000  1.000
  0.500  0.500  0.000
  0.500  0.500  0.000
    occupations:
  0.903 -0.000 -0.000
 -0.000  0.901  0.001
[...]
    -6.0534  -6.0187  -5.8404  -5.8276  -5.7993  -5.7885  -5.7883  -5.7793
    -5.6496  -5.5963  -5.4980  -5.4921  -5.4920  -5.4845  -5.3051  -5.3010
     4.7059   4.7370   5.1336   5.1349   5.1350   5.1371   5.1386   5.2459
     5.2614   5.2660   5.4708   5.4842   5.5040   5.5270   5.5275   5.5977
     5.6053   5.6191   5.6197   5.9420   5.9457   5.9803   6.1661   6.1873
     6.3578   6.3801   6.3830   6.5152   6.5490   6.6219   6.6256   6.7700
     6.7956   6.9907   6.9918   7.0244   7.0863   7.3934   7.3952   7.4949
     7.5016   7.5053   7.5939   7.7155   7.8352   7.8632   7.8820   7.9274
     7.9430   7.9432   7.9607   8.0274   8.0554   8.0583   8.0642   8.0736
     8.0742   8.1273   8.2589   8.2604   8.4291   8.5822   8.5827   8.6463
     8.6503   8.6506   8.6512   8.7322   8.9346   8.9718   8.9740   9.0972
     9.1531   9.3719   9.3725   9.3789   9.4047   9.4574   9.4761   9.4788
     9.5374   9.5414   9.5454   9.5598   9.5607   9.5884   9.7611   9.7837
     9.8249   9.8251   9.8885  10.0544  10.1452  10.1472  10.2109  10.5561
    10.5784  10.6566  11.0390  11.0698  11.0699  11.0977  11.3677  11.3680
    12.0866  12.0867  12.2320  12.2321  12.4674  12.8251  12.8827  12.9155
    13.2370  13.5660  13.7021  13.7263  13.8242  13.9289  13.9294  14.1117
    14.1208  14.1208  14.1350  14.1425  14.1544  14.1544  14.3984  14.4877
    14.4882  14.5758  14.5839  14.5841  15.0010  15.0354  15.0356  15.8006
    15.8654  15.8658  16.0302  16.0892  16.1101  16.1661  16.2025  16.2025
    16.2208  16.3108  16.3109  16.4292  16.6776  16.7672  16.7673  16.8934
    16.8935  16.9342  16.9346  17.0761  17.2566  17.2634  17.2636  17.2683
    17.5528  17.5628  17.5987  17.7403  17.9173  17.9640  18.1167  18.1173
    18.1850  18.2984  19.0203  19.3514  19.3514  19.3563  19.8182  19.8184
    19.9493  20.1765  20.1777  21.0803  21.4883  21.4896  21.8645  22.1405
    22.2674  22.3948  22.6580  22.6590  22.9095  22.9122  22.9129  22.9217
    23.0701  23.0759  23.1891  23.1899  23.2791  23.3266  23.8289  24.2879
    24.2891  24.4997  24.5006  24.5263  24.5269  24.7514  24.9695  25.0436
    25.2184  25.2895  25.2896  25.4158  25.5531  25.7242  25.7250  25.9656
    25.9672  26.0338  26.0349  26.2124  26.2688  26.3874  26.4046  26.4124
    27.2509  27.2516  27.7378  28.0180  28.0184  28.0388  28.0577  28.2021
    28.2030  28.2243  28.3255  28.3743  28.5099  28.5238  28.5239  28.5374
    28.7416  28.8318  28.8548  28.8554  28.9483  29.0403  29.0410  29.1507
    29.3429  29.5356  30.2756  30.3726  30.3733  30.5675  30.5679  30.5732
    30.5735  30.6063  30.6067  31.0141  31.4030  31.4425  31.7231  31.7921
    31.9447  31.9500  31.9503  32.0044  32.0315  32.0322  32.1308  32.3267
    32.4072  32.4446  32.5034  32.6194  32.6500  32.6502  32.8177  33.2676
    33.3706  33.4476  33.4488  33.7364  33.7368  33.7427  33.7432  33.9996
    34.1026  34.1031  34.2058  34.2901  34.4410  34.4412  34.5833  35.0861
    35.1149  35.1157  35.1252  35.1651  35.2419  35.2430  35.4248  35.5343
    35.6542  35.6546  35.7688  35.8335  35.8507  35.8595  35.9386  36.1602
    36.2577  36.2837  36.2853  36.3202  36.6734  36.6788  36.6789  36.7752
    36.7754  36.8345  37.1570  37.2130  37.2136  37.7597  38.2651  38.2656
    38.3023  38.3190  38.3191  38.3199  38.4467  38.5202  38.5206  38.7742
    38.8052  38.8976  38.8979  38.9309  39.2769  39.3923  39.3933  39.3940
    39.4634  39.7887  39.8051  39.9293  39.9299  40.0314  40.0319  40.2253
    40.3857  40.5563  40.5571  40.7147  41.0812  41.0817  41.1183  41.1994
    41.1999  41.2060  41.2066  41.3062  41.4735  41.4894  41.4896  41.5574
    41.6228  42.2293  42.2953  42.3369  42.3637  42.4365  42.7344  42.8201
    42.8212  42.8506  42.8680  42.9219  42.9223  43.0337  43.0348  43.1805
    43.2250  43.2260  43.3589  43.4420  43.4640  43.5954  43.6238  43.6640
    43.6641  43.7748  43.7757  43.8926  43.9739  43.9745  44.0081  44.0136
    44.1280  44.1289  44.2414  44.2669  44.4523  44.5319  44.5323  44.7688
    44.7690  44.8375  44.8376  44.8933  44.9152  44.9222  44.9256  44.9496
    45.0450  45.0456  45.3123  45.3132  45.4315  45.4494  45.4863  45.6977
    45.7174  45.7437  45.8565  45.8758  45.9531  45.9532  45.9545  45.9861
    46.0156  46.1290  46.1299  46.2058  46.2388  46.2628  46.2637  46.4037
    46.4425  46.5215  46.5224  46.5492  46.6409  46.6411  46.7665  46.7666
    46.8649  46.8657  46.9355  47.2064  47.2113  47.2115  47.2197  47.2529
    47.2566  47.3925  47.4062  47.4065  47.4884  47.5610  47.7689  47.8391
    47.9046  47.9054  47.9116  47.9351  47.9356  47.9894  48.2935  48.3420
    48.3429  48.6748  48.8293  48.8350  48.8353  48.8534  48.9882  48.9885
    49.3953  49.3958  49.4211  49.5231  49.5490  49.6461  49.7703  49.8104
    49.8228  49.8234  49.9594  50.0185  50.0188  50.2131  50.2201  50.2462
    50.2465  50.2576  50.2583  50.3828  50.3831  50.4393  50.4398  50.6932
    50.9216  50.9217  50.9286  50.9291  51.0140  51.0711  51.3925  51.5546
    51.5550  51.6004  51.6407  51.7981  51.9185  51.9965  51.9969  52.0690
    52.0693  52.1491  52.1606  52.2147  52.2155  52.2394  52.4110  52.5129

          k = 0.2500-0.2500 0.4533 ( 15434 PWs)   bands (ev):

   -49.3346 -49.3329 -49.3323 -49.3312 -49.3304 -49.3291 -49.3290 -49.3269
   -49.2500 -49.2493 -49.2488 -49.2482 -49.2479 -49.2473 -49.2473 -49.2464
   -23.7698 -23.7695 -23.7667 -23.7652 -23.7648 -23.7646 -23.7607 -23.7591
   -23.6344 -23.6301 -23.6234 -23.6211 -23.6208 -23.6187 -23.6090 -23.6083
   -23.5364 -23.5350 -23.5298 -23.5291 -23.5289 -23.5283 -23.5234 -23.5226
   -23.3974 -23.3969 -23.3852 -23.3838 -23.3834 -23.3819 -23.3727 -23.3699
   -23.2497 -23.2489 -23.2483 -23.2474 -23.2473 -23.2473 -23.2463 -23.2458
   -23.0376 -23.0316 -23.0316 -23.0298 -23.0266 -23.0239 -23.0239 -23.0190
    -6.9603  -6.6782  -6.6657  -6.6647  -6.5133  -6.4304  -6.4269  -6.3254
    -6.3080  -6.2976  -6.2935  -6.2933  -6.2093  -6.2055  -6.1047  -6.1015
    -5.9905  -5.9869  -5.9537  -5.9489  -5.8504  -5.8129  -5.8127  -5.8051
    -5.7024  -5.6520  -5.6237  -5.6235  -5.6159  -5.5964  -5.4553  -5.4513
     4.9761   5.0302   5.1809   5.1847   5.3598   5.3598   5.3664   5.4315
     5.4317   5.4320   5.4327   5.4840   5.7206   5.7246   5.7960   5.9043
     5.9064   6.0116   6.0466   6.0476   6.0918   6.0960   6.1159   6.2457
     6.2516   6.2748   6.2772   6.4893   6.4916   6.6169   6.7619   6.7868
     6.8616   6.8850   6.9929   6.9937   6.9968   6.9974   7.0346   7.1780
     7.2203   7.2721   7.4388   7.5537   7.6282   7.6304   7.6888   7.7743
     7.7762   8.0038   8.0053   8.0807   8.1198   8.2616   8.3328   8.3347
     8.3601   8.4005   8.4031   8.4976   8.5716   8.5739   8.5912   8.6062
     8.6078   8.6266   8.6268   8.6971   8.7164   8.8064   8.8248   8.8269
     8.9136   9.0193   9.0608   9.0612   9.1173   9.1198   9.2013   9.2593
     9.2886   9.3900   9.4417   9.4432   9.4536   9.6267   9.6569   9.6885
     9.6897   9.7402   9.8921   9.8940   9.9681  10.1622  10.1640  10.5890
    11.2889  11.3351  11.6751  11.6752  11.6806  11.7271  11.9022  11.9025
    12.1640  12.1641  12.5597  12.5598  12.6504  12.6941  12.7026  12.8953
    13.2535  13.4510  13.5209  13.5210  13.6811  13.8153  13.8173  13.8276
    13.8405  14.0518  14.0520  14.1475  14.1476  14.2303  14.3524  14.3526
    14.5127  14.5567  14.5570  14.7167  14.7360  14.8481  14.8662  14.9571
    14.9648  14.9649  15.0123  15.0139  15.0141  15.3007  15.3007  15.6783
    15.9830  15.9835  16.4000  16.4643  16.4643  16.6288  16.7000  16.7688
    16.7689  16.9494  16.9496  16.9561  17.1325  17.4463  17.4503  17.4738
    17.4868  17.4871  17.7295  17.7394  17.7860  17.9573  18.2589  18.4790
    18.4795  18.7974  18.8919  18.8922  19.0456  19.3722  19.6612  19.6614
    19.9809  20.6006  20.6018  21.4001  21.7922  21.9487  21.9501  22.1744
    22.2298  22.2310  22.3465  22.8830  22.8964  23.1127  23.3366  23.3375
    23.3571  23.5334  23.7013  23.8427  23.8437  23.9846  24.3954  24.5425
    24.5430  24.8270  24.8274  24.9027  24.9033  24.9167  25.3061  25.5702
    25.5746  25.6271  25.6274  25.6951  25.7633  26.0197  26.0208  26.1657
    26.3483  26.3493  26.5163  26.5174  26.6508  26.6667  26.7497  26.9102
    27.4267  27.5168  27.5175  27.6628  27.7424  27.7428  27.9836  28.0035
    28.0929  28.0936  28.4763  28.6077  28.6082  28.6197  28.6379  28.7737
    28.9712  28.9828  29.0250  29.0965  29.0967  29.1040  29.3343  29.4989
    29.4992  29.5469  29.5477  29.8667  29.8778  30.1004  30.1008  30.1643
    30.1648  30.2257  30.8392  30.8395  30.9343  30.9344  31.3083  31.6398
    31.7654  31.7732  31.7735  31.8209  32.0305  32.0309  32.0659  32.0660
    32.4290  32.5969  32.6547  32.9054  32.9567  33.0351  33.0353  33.0564
    33.0566  33.0698  33.2204  33.5721  33.6590  33.7491  33.7494  34.0836
    34.0839  34.1547  34.1551  34.5817  34.5822  34.5927  34.5930  34.6023
    34.8939  35.0779  35.2661  35.3857  35.3861  35.4743  35.5869  35.7436
    35.8251  35.8260  35.9427  35.9892  35.9905  35.9907  36.0486  36.0495
    36.1378  36.1945  36.2483  36.4740  36.6064  36.6915  36.6917  36.7189
    36.8811  37.1048  37.1462  37.7587  37.8119  37.8121  37.8287  37.8955
    37.8956  38.0045  38.0049  38.0515  38.2052  38.4717  38.4721  38.6504
    38.7051  38.7055  38.8853  38.9626  39.0562  39.1810  39.1813  39.2729
    39.2736  39.2825  39.3500  39.6128  39.7147  40.1639  40.2523  40.3287
    40.3288  40.5089  40.6047  40.7307  40.8628  40.8636  40.8938  41.0766
    41.1396  41.1398  41.1639  41.1856  41.1859  41.2949  41.3987  41.3989
    41.6302  41.7096  41.7101  41.8702  42.0106  42.0429  42.2412  42.2414
    42.4678  42.4683  42.6192  42.6193  42.6341  42.6635  42.8481  42.8484
    42.9548  43.0148  43.0895  43.2190  43.2197  43.2215  43.2351  43.5431
    43.6107  43.6458  43.7337  43.7380  43.7383  43.8443  43.8449  43.9710
    43.9758  44.1349  44.1351  44.1533  44.1573  44.1575  44.2893  44.2894
    44.3200  44.5821  44.5822  44.6840  44.7093  44.8315  45.0777  45.1239
    45.1543  45.3531  45.3532  45.4602  45.5556  45.6180  45.6507  45.7596
    45.9802  46.0068  46.0071  46.2930  46.3111  46.4426  46.4426  46.4470
    46.4492  46.4499  46.6631  46.6637  46.7054  46.7058  46.7222  46.8298
    46.8304  46.8832  46.8906  46.8990  47.0101  47.0108  47.0139  47.2033
    47.2284  47.3586  47.3749  47.3752  47.4733  47.4738  47.4752  47.5246
    47.5305  47.6437  47.7075  47.7609  47.8109  47.8116  47.8817  47.8817
    47.8985  47.9751  48.0102  48.0492  48.1203  48.1205  48.1458  48.2845
    48.3121  48.3184  48.3188  48.4915  48.4918  48.5042  48.7808  48.7815
    48.8090  48.9225  48.9233  48.9234  49.1749  49.1815  49.1821  49.2853
    49.4003  49.5595  49.5596  49.7592  50.0478  50.0879  50.0943  50.0950
    50.1018  50.1023  50.4846  50.6544  50.6548  50.7979  50.7995  50.7998
    50.8597  51.0231  51.0236  51.0397  51.1681  51.1685  51.4508  51.5983
    51.7499  51.7922  51.7924  51.8091  51.8530  51.8556  51.8563  51.9793
    52.0783  52.0837  52.1586  52.2203  52.5399  52.5405  52.5562  52.5562

          k = 0.2500-0.2500-0.9066 ( 15408 PWs)   bands (ev):

   -49.2930 -49.2926 -49.2921 -49.2910 -49.2909 -49.2905 -49.2900 -49.2899
   -49.2895 -49.2889 -49.2884 -49.2883 -49.2883 -49.2881 -49.2867 -49.2864
   -23.5852 -23.5844 -23.5822 -23.5818 -23.5817 -23.5817 -23.5805 -23.5804
   -23.5802 -23.5802 -23.5789 -23.5789 -23.5781 -23.5772 -23.5772 -23.5771
   -23.4078 -23.4077 -23.4045 -23.4044 -23.4029 -23.4022 -23.4022 -23.4021
   -23.3987 -23.3984 -23.3962 -23.3957 -23.3956 -23.3954 -23.3954 -23.3953
   -23.3221 -23.3218 -23.3214 -23.3214 -23.3171 -23.3160 -23.3157 -23.3152
   -23.3152 -23.3152 -23.3148 -23.3146 -23.3109 -23.3109 -23.3095 -23.3094
    -6.5849  -6.5829  -6.4341  -6.4341  -6.4340  -6.4310  -6.3537  -6.3511
    -6.2721  -6.2712  -6.2429  -6.2429  -6.2428  -6.2382  -6.1235  -6.1217
    -5.8409  -5.8380  -5.8333  -5.8332  -5.8130  -5.8130  -5.8130  -5.8129
    -5.8060  -5.8059  -5.8058  -5.8019  -5.7974  -5.7906  -5.7897  -5.7878
     5.4431   5.4442   5.4600   5.4656   5.4665   5.4665   5.5334   5.5335
     5.5337   5.5338   5.5370   5.5370   5.6907   5.6954   5.7533   5.7564
     6.1418   6.1432   6.1525   6.1535   6.4338   6.4370   6.4374   6.4375
     6.5144   6.5153   6.5881   6.5899   6.6907   6.6908   6.7011   6.7034
     6.7046   6.7048   7.1523   7.1528   7.1550   7.1551   7.3323   7.3350
     7.3350   7.3357   7.3472   7.3472   7.4607   7.4611   7.5803   7.5810
     7.5814   7.5820   7.6947   7.6973   7.8296   7.8340   7.8452   7.8480
     8.3278   8.3284   8.3310   8.3310   8.4351   8.4359   8.4804   8.4811
     8.5469   8.5475   8.5930   8.5947   8.5964   8.5965   8.5977   8.5983
     8.7051   8.7051   8.8724   8.8724   8.8735   8.8739   9.1324   9.1331
     9.3235   9.3264   9.5529   9.5553   9.6368   9.6377   9.6383   9.6384
     9.8675   9.8676  10.1128  10.1163  10.1163  10.1163  10.3622  10.3637
    12.5135  12.5136  12.5268  12.5270  12.5271  12.5272  12.7024  12.7028
    12.7919  12.7919  12.7920  12.7920  12.7925  12.7926  12.8637  12.8639
    12.9275  12.9277  13.0335  13.0336  13.2290  13.2292  13.2293  13.2293
    13.5320  13.5321  13.5939  13.5940  13.7582  13.7582  13.8050  13.8052
    13.8053  13.8053  14.2514  14.2516  14.3269  14.3271  14.3272  14.3272
    14.5192  14.5195  14.8275  14.8280  14.8280  14.8280  15.2924  15.2927
    16.0374  16.0376  16.0376  16.0385  16.5912  16.5914  16.7024  16.7026
    16.7397  16.7399  16.7399  16.7400  17.3719  17.3720  17.4512  17.4515
    17.4965  17.4967  17.9916  17.9916  18.2185  18.2187  18.2188  18.2189
    18.5453  18.5454  19.1369  19.1372  19.1374  19.1374  19.6129  19.6130
    20.4030  20.4035  21.4503  21.4506  21.4512  21.4522  21.9737  21.9745
    22.6415  22.6424  22.7902  22.7903  22.7910  22.7924  23.7397  23.7405
    24.1160  24.1165  24.1590  24.1597  24.7072  24.7078  24.7792  24.7797
    24.7801  24.7808  25.1765  25.1766  25.1771  25.1776  25.7901  25.7907
    26.0496  26.0501  26.2760  26.2765  26.4830  26.4831  26.4832  26.4840
    27.1320  27.1320  27.2290  27.2292  27.3092  27.3094  27.3103  27.3106
    27.5027  27.5029  27.5035  27.5036  27.6941  27.6944  27.6950  27.6952
    27.8597  27.8598  27.8653  27.8658  27.9059  27.9061  28.3571  28.3574
    28.4261  28.4266  28.4267  28.4271  28.8428  28.8434  29.2884  29.2887
    29.6685  29.6686  30.0976  30.0976  30.0978  30.0979  30.1295  30.1296
    30.2466  30.2469  30.4214  30.4217  30.8244  30.8250  31.2937  31.2937
    31.2940  31.2942  31.5174  31.5174  31.5176  31.5180  32.4001  32.4003
    32.4003  32.4005  32.4275  32.4277  32.7182  32.7187  32.8271  32.8273
    33.4959  33.4967  33.8884  33.8885  34.0477  34.0477  34.0478  34.0483
    34.6872  34.6877  35.0293  35.0295  35.0296  35.0298  35.2193  35.2193
    35.2342  35.2345  35.2348  35.2353  35.4792  35.4793  35.4794  35.4798
    35.4835  35.4838  35.9586  35.9589  36.2092  36.2093  36.3123  36.3127
    36.5619  36.5620  36.5625  36.5628  36.8237  36.8240  36.8768  36.8772
    37.3331  37.3334  37.3960  37.3969  37.6832  37.6836  37.7388  37.7389
    37.7617  37.7618  37.7621  37.7624  37.9146  37.9147  37.9148  37.9150
    37.9964  37.9969  38.5121  38.5123  38.8012  38.8016  38.8016  38.8016
    38.9287  38.9293  39.3538  39.3539  39.3542  39.3543  39.8688  39.8694
    40.2274  40.2281  40.2897  40.2898  40.4459  40.4461  40.4463  40.4464
    40.7388  40.7390  41.4099  41.4102  41.4107  41.4107  41.5570  41.5570
    41.5587  41.5589  41.8642  41.8643  41.8645  41.8657  42.1761  42.1761
    42.2118  42.2119  42.2119  42.2122  42.2386  42.2387  42.3415  42.3416
    42.6059  42.6060  42.6062  42.6066  42.8531  42.8534  43.1730  43.1732
    43.5634  43.5635  43.7714  43.7715  43.8155  43.8157  43.8160  43.8161
    44.0073  44.0074  44.5889  44.5890  44.6743  44.6743  44.6745  44.6746
    44.7878  44.7879  44.9708  44.9709  44.9714  44.9715  45.2830  45.2831
    45.6117  45.6118  45.6216  45.6221  45.6663  45.6665  45.8512  45.8513
    45.8514  45.8517  46.1621  46.1622  46.2697  46.2699  46.2702  46.2703
    46.4978  46.4978  46.7307  46.7312  46.7711  46.7716  46.8411  46.8413
    46.8416  46.8419  46.9009  46.9009  46.9111  46.9111  46.9114  46.9123
    47.0598  47.0599  47.3955  47.3961  47.4493  47.4495  47.4858  47.4859
    47.5623  47.5624  47.5624  47.5633  47.7198  47.7198  47.8541  47.8545
    47.8547  47.8556  48.0619  48.0621  48.0623  48.0624  48.1228  48.1230
    48.3235  48.3236  48.3240  48.3241  48.4791  48.4799  48.8753  48.8756
    48.9342  48.9344  48.9347  48.9349  49.4593  49.4598  49.7946  49.7946
    49.7947  49.7949  49.9264  49.9265  50.0028  50.0031  50.1200  50.1201
    50.1205  50.1209  50.4443  50.4444  50.5559  50.5561  50.5772  50.5774
    50.7637  50.7637  50.9147  50.9148  50.9152  50.9152  51.2850  51.2853
    51.4073  51.4073  51.4075  51.4083  51.7602  51.7610  51.8332  51.8333
    52.2036  52.2036  52.2039  52.2041  52.3709  52.3712  52.6441  52.6442

     the Fermi energy is    12.9464 ev

!    total energy              =   -3262.63002875 Ry
     Harris-Foulkes estimate   =   -3262.63002885 Ry
     estimated scf accuracy    <       0.00000011 Ry

     The total energy is the sum of the following terms:

     one-electron contribution =    -920.59808602 Ry
     hartree contribution      =     690.16710871 Ry
     xc contribution           =    -539.17539587 Ry
     ewald contribution        =   -2492.99511507 Ry
     Hubbard energy            =      -0.02785480 Ry
     smearing contrib. (-TS)   =      -0.00068570 Ry

     total magnetization       =    -0.00 Bohr mag/cell
     absolute magnetization    =     0.00 Bohr mag/cell

     convergence has been achieved in  10 iterations

     Writing output data file pwscf.save

     init_run     :     54.07s CPU     80.48s WALL (       1 calls)
     electrons    :  13481.77s CPU  16501.99s WALL (       1 calls)

     Called by init_run:
     wfcinit      :     36.34s CPU     61.10s WALL (       1 calls)
     potinit      :      1.31s CPU      2.26s WALL (       1 calls)

     Called by electrons:
     c_bands      :  12345.36s CPU  14787.21s WALL (      10 calls)
     sum_band     :    966.57s CPU   1532.92s WALL (      10 calls)
     v_of_rho     :      7.18s CPU     10.65s WALL (      11 calls)
     newd         :    173.83s CPU    177.08s WALL (      11 calls)
     mix_rho      :      1.16s CPU      1.93s WALL (      10 calls)

     Called by c_bands:
     init_us_2    :      6.36s CPU      6.94s WALL (     882 calls)
     cegterg      :  12323.09s CPU  14672.14s WALL (     420 calls)

     Called by *egterg:
     h_psi        :   3463.39s CPU   5106.58s WALL (    1107 calls)
     s_psi        :    311.40s CPU    312.47s WALL (    1149 calls)
     g_psi        :      4.18s CPU      4.19s WALL (     687 calls)
     cdiaghg      :   6506.58s CPU   6619.22s WALL (    1065 calls)

     Called by h_psi:
     add_vuspsi   :    303.24s CPU    303.92s WALL (    1107 calls)
     vhpsi        :    699.55s CPU    852.90s WALL (    1107 calls)

     General routines
     calbec       :    973.56s CPU   1296.26s WALL (    3096 calls)
     fft          :     16.48s CPU     30.34s WALL (     329 calls)
     ffts         :      0.18s CPU      0.36s WALL (      42 calls)
     fftw         :   2244.67s CPU   4021.55s WALL ( 1365536 calls)
     interpolate  :      1.31s CPU      2.45s WALL (      42 calls)
     davcio       :      2.04s CPU    200.00s WALL (    2604 calls)

     Parallel routines
     fft_scatter  :   1669.73s CPU   3443.98s WALL ( 1365907 calls)
     Hubbard U routines
     new_ns       :    131.93s CPU    299.77s WALL (      10 calls)
     vhpsi        :    699.55s CPU    852.90s WALL (    1107 calls)

     PWSCF        :     3h45m CPU        4h36m WALL


   This run was terminated on:  23:18:17  10Feb2014            

=------------------------------------------------------------------------------=
   JOB DONE.
=------------------------------------------------------------------------------=
