
     Program PWSCF v.5.0.2 (svn rev. 9656) starts on 11Feb2014 at  2:42: 5 

     This program is part of the open-source Quantum ESPRESSO suite
     for quantum simulation of materials; please cite
         "P. Giannozzi et al., J. Phys.:Condens. Matter 21 395502 (2009);
          URL http://www.quantum-espresso.org", 
     in publications or presentations arising from this work. More details at
     http://www.quantum-espresso.org/quote.php

     Parallel version (MPI), running on    16 processors
     R & G space division:  proc/nbgrp/npool/nimage =      16

     Current dimensions of program PWSCF are:
     Max number of different atomic species (ntypx) = 10
     Max number of k-points (npk) =  40000
     Max angular momentum in pseudopotentials (lmaxx) =  3
     Reading input from alpha_0.07/alpha_0.07.in
Warning: card &IONS ignored
Warning: card / ignored
Warning: card &CELL ignored
Warning: card / ignored

     Subspace diagonalization in iterative solution of the eigenvalue problem:
     a serial algorithm will be used


     Parallelization info
     --------------------
     sticks:   dense  smooth     PW     G-vecs:    dense   smooth      PW
     Min         870     279     77                42600     7699    1147
     Max         871     280     78                42601     7714    1150
     Sum       13925    4469   1245               681605   123309   18371



     bravais-lattice index     =            0
     lattice parameter (alat)  =      18.7083  a.u.
     unit-cell volume          =    3611.2673 (a.u.)^3
     number of atoms/cell      =           48
     number of atomic types    =            3
     number of electrons       =       416.00
     number of Kohn-Sham states=          624
     kinetic-energy cutoff     =      40.0000  Ry
     charge density cutoff     =     500.0000  Ry
     convergence threshold     =      1.0E-06
     mixing beta               =       0.7000
     number of iterations used =            8  plain     mixing
     Exchange-correlation      = SLA  PW   PBE  PBE ( 1 4 3 4 0)
     EXX-fraction              =        0.00

     celldm(1)=  18.708289  celldm(2)=   0.000000  celldm(3)=   0.000000
     celldm(4)=   0.000000  celldm(5)=   0.000000  celldm(6)=   0.000000

     crystal axes: (cart. coord. in units of alat)
               a(1) = (   1.000000   0.000000   0.000000 )  
               a(2) = (   0.000000   1.000000   0.000000 )  
               a(3) = (   0.000000   0.000000   0.551515 )  

     reciprocal axes: (cart. coord. in units 2 pi/alat)
               b(1) = (  1.000000  0.000000  0.000000 )  
               b(2) = (  0.000000  1.000000  0.000000 )  
               b(3) = (  0.000000  0.000000  1.813187 )  


     PseudoPot. # 1 for Mo read from file:
     /home/camp/zhonxu/pseudo/mo_pbe_v1.uspp.F.UPF
     MD5 check sum: 30c4dcd161f5d35cd49bb5239c51a633
     Pseudo is Ultrasoft + core correction, Zval = 14.0
     Generated by new atomic code, or converted to UPF format
     Using radial grid of  889 points,  6 beta functions with: 
                l(1) =   0
                l(2) =   0
                l(3) =   1
                l(4) =   1
                l(5) =   2
                l(6) =   2
     Q(r) pseudized with  6 coefficients,  rinner =    1.000   1.000   1.000
                                                       1.000   1.000

     PseudoPot. # 2 for O  read from file:
     /home/camp/zhonxu/pseudo/o_pbe_v1.01.uspp.F.UPF
     MD5 check sum: 2bcb18d16ea4b960afae9ec6d52f22d2
     Pseudo is Ultrasoft + core correction, Zval =  6.0
     Generated by new atomic code, or converted to UPF format
     Using radial grid of  737 points,  5 beta functions with: 
                l(1) =   0
                l(2) =   0
                l(3) =   1
                l(4) =   1
                l(5) =   2
     Q(r) pseudized with  8 coefficients,  rinner =    0.900   0.900   0.900
                                                       0.900   0.900

     PseudoPot. # 3 for O  read from file:
     /home/camp/zhonxu/pseudo/o_pbe_v1.01.uspp.F.UPF
     MD5 check sum: 2bcb18d16ea4b960afae9ec6d52f22d2
     Pseudo is Ultrasoft + core correction, Zval =  6.0
     Generated by new atomic code, or converted to UPF format
     Using radial grid of  737 points,  5 beta functions with: 
                l(1) =   0
                l(2) =   0
                l(3) =   1
                l(4) =   1
                l(5) =   2
     Q(r) pseudized with  8 coefficients,  rinner =    0.900   0.900   0.900
                                                       0.900   0.900

     atomic species   valence    mass     pseudopotential
        Mo0           14.00    95.94000     Mo( 1.00)
        O1             6.00    15.99940     O ( 1.00)
        O2             6.00    15.99940     O ( 1.00)

     Starting magnetic structure 
     atomic species   magnetization
        Mo0          0.000
        O1           0.000
        O2           0.000


     Simplified LDA+U calculation (l_max = 2) with parameters (eV):
     atomic species    L          U    alpha       J0     beta
        Mo0            2     0.0000   0.0000   0.0000   0.0000
        O1             1     0.0000   0.0700   0.0000   0.0000
        O2             1     0.0000   0.0000   0.0000   0.0000



      4 Sym. Ops. (no inversion) found



   Cartesian axes

     site n.     atom                  positions (alat units)
         1           Mo0 tau(   1) = (  -0.1400000  -0.1400000   0.0000000  )
         2           Mo0 tau(   2) = (   0.1100000   0.1100000   0.1378788  )
         3           Mo0 tau(   3) = (  -0.1400000  -0.1400000   0.2757576  )
         4           Mo0 tau(   4) = (   0.1100000   0.1100000   0.4136364  )
         5           Mo0 tau(   5) = (  -0.1400000   0.3600000   0.0000000  )
         6           Mo0 tau(   6) = (   0.1100000   0.6100000   0.1378788  )
         7           Mo0 tau(   7) = (  -0.1400000   0.3600000   0.2757576  )
         8           Mo0 tau(   8) = (   0.1100000   0.6100000   0.4136364  )
         9           Mo0 tau(   9) = (   0.3600000  -0.1400000   0.0000000  )
        10           Mo0 tau(  10) = (   0.6100000   0.1100000   0.1378788  )
        11           Mo0 tau(  11) = (   0.3600000  -0.1400000   0.2757576  )
        12           Mo0 tau(  12) = (   0.6100000   0.1100000   0.4136364  )
        13           Mo0 tau(  13) = (   0.3600000   0.3600000   0.0000000  )
        14           Mo0 tau(  14) = (   0.6100000   0.6100000   0.1378788  )
        15           Mo0 tau(  15) = (   0.3600000   0.3600000   0.2757576  )
        16           Mo0 tau(  16) = (   0.6100000   0.6100000   0.4136364  )
        17           O1  tau(  17) = (   0.0000000   0.0000000   0.0000000  )
        18           O2  tau(  18) = (  -0.2800000  -0.2800000   0.0000000  )
        19           O2  tau(  19) = (   0.2500000  -0.0300000   0.1378788  )
        20           O2  tau(  20) = (  -0.0300000   0.2500000   0.1378788  )
        21           O2  tau(  21) = (   0.0000000   0.0000000   0.2757576  )
        22           O2  tau(  22) = (  -0.2800000  -0.2800000   0.2757576  )
        23           O2  tau(  23) = (   0.2500000  -0.0300000   0.4136364  )
        24           O2  tau(  24) = (  -0.0300000   0.2500000   0.4136364  )
        25           O2  tau(  25) = (   0.0000000   0.5000000   0.0000000  )
        26           O2  tau(  26) = (  -0.2800000   0.2200000   0.0000000  )
        27           O2  tau(  27) = (   0.2500000   0.4700000   0.1378788  )
        28           O2  tau(  28) = (  -0.0300000   0.7500000   0.1378788  )
        29           O2  tau(  29) = (   0.0000000   0.5000000   0.2757576  )
        30           O2  tau(  30) = (  -0.2800000   0.2200000   0.2757576  )
        31           O2  tau(  31) = (   0.2500000   0.4700000   0.4136364  )
        32           O2  tau(  32) = (  -0.0300000   0.7500000   0.4136364  )
        33           O2  tau(  33) = (   0.5000000   0.0000000   0.0000000  )
        34           O2  tau(  34) = (   0.2200000  -0.2800000   0.0000000  )
        35           O2  tau(  35) = (   0.7500000  -0.0300000   0.1378788  )
        36           O2  tau(  36) = (   0.4700000   0.2500000   0.1378788  )
        37           O2  tau(  37) = (   0.5000000   0.0000000   0.2757576  )
        38           O2  tau(  38) = (   0.2200000  -0.2800000   0.2757576  )
        39           O2  tau(  39) = (   0.7500000  -0.0300000   0.4136364  )
        40           O2  tau(  40) = (   0.4700000   0.2500000   0.4136364  )
        41           O2  tau(  41) = (   0.5000000   0.5000000   0.0000000  )
        42           O2  tau(  42) = (   0.2200000   0.2200000   0.0000000  )
        43           O2  tau(  43) = (   0.7500000   0.4700000   0.1378788  )
        44           O2  tau(  44) = (   0.4700000   0.7500000   0.1378788  )
        45           O2  tau(  45) = (   0.5000000   0.5000000   0.2757576  )
        46           O2  tau(  46) = (   0.2200000   0.2200000   0.2757576  )
        47           O2  tau(  47) = (   0.7500000   0.4700000   0.4136364  )
        48           O2  tau(  48) = (   0.4700000   0.7500000   0.4136364  )

     number of k points=    42  Methfessel-Paxton smearing, width (Ry)=  0.0100
                       cart. coord. in units 2pi/alat
        k(    1) = (   0.0000000   0.0000000   0.0000000), wk =   0.0156250
        k(    2) = (   0.0000000   0.0000000   0.4532967), wk =   0.0312500
        k(    3) = (   0.0000000   0.0000000  -0.9065934), wk =   0.0156250
        k(    4) = (   0.0000000   0.2500000   0.0000000), wk =   0.0625000
        k(    5) = (   0.0000000   0.2500000   0.4532967), wk =   0.1250000
        k(    6) = (   0.0000000   0.2500000  -0.9065934), wk =   0.0625000
        k(    7) = (   0.0000000  -0.5000000   0.0000000), wk =   0.0312500
        k(    8) = (   0.0000000  -0.5000000   0.4532967), wk =   0.0625000
        k(    9) = (   0.0000000  -0.5000000  -0.9065934), wk =   0.0312500
        k(   10) = (   0.2500000   0.2500000   0.0000000), wk =   0.0312500
        k(   11) = (   0.2500000   0.2500000   0.4532967), wk =   0.0625000
        k(   12) = (   0.2500000   0.2500000  -0.9065934), wk =   0.0312500
        k(   13) = (   0.2500000  -0.5000000   0.0000000), wk =   0.0625000
        k(   14) = (   0.2500000  -0.5000000   0.4532967), wk =   0.1250000
        k(   15) = (   0.2500000  -0.5000000  -0.9065934), wk =   0.0625000
        k(   16) = (  -0.5000000  -0.5000000   0.0000000), wk =   0.0156250
        k(   17) = (  -0.5000000  -0.5000000   0.4532967), wk =   0.0312500
        k(   18) = (  -0.5000000  -0.5000000  -0.9065934), wk =   0.0156250
        k(   19) = (   0.2500000  -0.2500000   0.0000000), wk =   0.0312500
        k(   20) = (   0.2500000  -0.2500000   0.4532967), wk =   0.0625000
        k(   21) = (   0.2500000  -0.2500000  -0.9065934), wk =   0.0312500
        k(   22) = (   0.0000000   0.0000000   0.0000000), wk =   0.0156250
        k(   23) = (   0.0000000   0.0000000   0.4532967), wk =   0.0312500
        k(   24) = (   0.0000000   0.0000000  -0.9065934), wk =   0.0156250
        k(   25) = (   0.0000000   0.2500000   0.0000000), wk =   0.0625000
        k(   26) = (   0.0000000   0.2500000   0.4532967), wk =   0.1250000
        k(   27) = (   0.0000000   0.2500000  -0.9065934), wk =   0.0625000
        k(   28) = (   0.0000000  -0.5000000   0.0000000), wk =   0.0312500
        k(   29) = (   0.0000000  -0.5000000   0.4532967), wk =   0.0625000
        k(   30) = (   0.0000000  -0.5000000  -0.9065934), wk =   0.0312500
        k(   31) = (   0.2500000   0.2500000   0.0000000), wk =   0.0312500
        k(   32) = (   0.2500000   0.2500000   0.4532967), wk =   0.0625000
        k(   33) = (   0.2500000   0.2500000  -0.9065934), wk =   0.0312500
        k(   34) = (   0.2500000  -0.5000000   0.0000000), wk =   0.0625000
        k(   35) = (   0.2500000  -0.5000000   0.4532967), wk =   0.1250000
        k(   36) = (   0.2500000  -0.5000000  -0.9065934), wk =   0.0625000
        k(   37) = (  -0.5000000  -0.5000000   0.0000000), wk =   0.0156250
        k(   38) = (  -0.5000000  -0.5000000   0.4532967), wk =   0.0312500
        k(   39) = (  -0.5000000  -0.5000000  -0.9065934), wk =   0.0156250
        k(   40) = (   0.2500000  -0.2500000   0.0000000), wk =   0.0312500
        k(   41) = (   0.2500000  -0.2500000   0.4532967), wk =   0.0625000
        k(   42) = (   0.2500000  -0.2500000  -0.9065934), wk =   0.0312500

     Dense  grid:   681605 G-vectors     FFT dimensions: ( 135, 135,  75)

     Smooth grid:   123309 G-vectors     FFT dimensions: (  75,  75,  45)

     Largest allocated arrays     est. size (Mb)     dimensions
        Kohn-Sham Wavefunctions         9.29 Mb     (    976,  624)
        Atomic wavefunctions            5.00 Mb     (    976,  336)
        NL pseudopotentials            10.48 Mb     (    976,  704)
        Each V/rho on FFT grid          2.78 Mb     (  91125,   2)
        Each G-vector array             0.33 Mb     (  42601)
        G-vector shells                 0.12 Mb     (  15656)
     Largest temporary arrays     est. size (Mb)     dimensions
        Auxiliary wavefunctions        37.17 Mb     (    976, 2496)
        Each subspace H/S matrix       95.06 Mb     (2496,2496)
        Each <psi_i|beta_j> matrix      6.70 Mb     (    704,  624)
        Arrays for rho mixing          11.12 Mb     (  91125,   8)

     Check: negative/imaginary core charge=   -0.000007    0.000000

     The initial density is read from file :
     alpha_0.07/pwscf.save/charge-density.dat

     Number of +U iterations with fixed ns =  0
     Starting occupations:
 --- enter write_ns ---
 LDA+U parameters:
U( 1)     =  0.00000000
alpha( 1) =  0.00000000
U( 2)     =  0.00000000
alpha( 2) =  0.07000000
U( 3)     =  0.00000000
alpha( 3) =  0.00000000
atom    1   Tr[ns(na)] (up, down, total) =   2.90963  2.90963  5.81926
   spin  1
    eigenvalues: 
  0.525  0.526  0.569  0.579  0.710
    eigenvectors:
  0.000  0.000  0.186  0.000  0.814
  0.500  0.000  0.000  0.500  0.000
  0.500  0.000  0.000  0.500  0.000
  0.000  1.000  0.000  0.000  0.000
  0.000  0.000  0.814  0.000  0.186
    occupations:
  0.684 -0.000 -0.000 -0.000  0.055
 -0.000  0.552  0.027  0.000  0.000
 -0.000  0.027  0.552  0.000  0.000
 -0.000  0.000  0.000  0.526 -0.000
  0.055  0.000  0.000 -0.000  0.596
   spin  2
    eigenvalues: 
  0.525  0.526  0.569  0.579  0.710
    eigenvectors:
  0.000  0.000  0.186  0.000  0.814
  0.500  0.000  0.000  0.500  0.000
  0.500  0.000  0.000  0.500  0.000
  0.000  1.000  0.000  0.000  0.000
  0.000  0.000  0.814  0.000  0.186
    occupations:
  0.684 -0.000 -0.000 -0.000  0.055
 -0.000  0.552  0.027  0.000  0.000
 -0.000  0.027  0.552  0.000  0.000
 -0.000  0.000  0.000  0.526 -0.000
  0.055  0.000  0.000 -0.000  0.596
atomic mag. moment =    -0.000002
atom    2   Tr[ns(na)] (up, down, total) =   2.90956  2.90956  5.81912
   spin  1
    eigenvalues: 
  0.525  0.526  0.569  0.579  0.710
    eigenvectors:
  0.000  0.000  0.186  0.000  0.814
  0.500  0.000  0.000  0.500  0.000
  0.500  0.000  0.000  0.500  0.000
  0.000  1.000  0.000  0.000  0.000
  0.000  0.000  0.814  0.000  0.186
    occupations:
  0.684 -0.000 -0.000 -0.000 -0.055
 -0.000  0.552 -0.027  0.000  0.000
 -0.000 -0.027  0.552 -0.000  0.000
 -0.000  0.000 -0.000  0.526 -0.000
 -0.055  0.000  0.000 -0.000  0.595
   spin  2
    eigenvalues: 
  0.525  0.526  0.569  0.579  0.710
    eigenvectors:
  0.000  0.000  0.186  0.000  0.814
  0.500  0.000  0.000  0.500  0.000
  0.500  0.000  0.000  0.500  0.000
  0.000  1.000  0.000  0.000  0.000
  0.000  0.000  0.814  0.000  0.186
    occupations:
  0.684 -0.000 -0.000 -0.000 -0.055
 -0.000  0.552 -0.027  0.000  0.000
 -0.000 -0.027  0.552 -0.000  0.000
 -0.000  0.000 -0.000  0.526 -0.000
 -0.055  0.000  0.000 -0.000  0.595
atomic mag. moment =     0.000000
atom    3   Tr[ns(na)] (up, down, total) =   2.90949  2.90949  5.81898
   spin  1
    eigenvalues: 
  0.525  0.526  0.569  0.578  0.710
    eigenvectors:
  0.000  0.000  0.187  0.000  0.813
  0.500  0.000  0.000  0.500  0.000
  0.500  0.000  0.000  0.500  0.000
  0.000  1.000  0.000  0.000  0.000
  0.000  0.000  0.813  0.000  0.187
    occupations:
  0.684 -0.000 -0.000 -0.000  0.055
 -0.000  0.552  0.027  0.000  0.000
 -0.000  0.027  0.552  0.000  0.000
 -0.000  0.000  0.000  0.526 -0.000
  0.055  0.000  0.000 -0.000  0.595
   spin  2
    eigenvalues: 
  0.525  0.526  0.569  0.579  0.710
    eigenvectors:
  0.000  0.000  0.187  0.000  0.813
  0.500  0.000  0.000  0.500  0.000
  0.500  0.000  0.000  0.500  0.000
  0.000  1.000  0.000  0.000  0.000
  0.000  0.000  0.813  0.000  0.187
    occupations:
  0.684 -0.000 -0.000 -0.000  0.055
 -0.000  0.552  0.027  0.000  0.000
 -0.000  0.027  0.552  0.000  0.000
 -0.000  0.000  0.000  0.526 -0.000
  0.055  0.000  0.000 -0.000  0.595
atomic mag. moment =    -0.000004
atom    4   Tr[ns(na)] (up, down, total) =   2.90956  2.90956  5.81912
   spin  1
    eigenvalues: 
  0.525  0.526  0.569  0.579  0.710
    eigenvectors:
  0.000  0.000  0.186  0.000  0.814
  0.500  0.000  0.000  0.500  0.000
  0.500  0.000  0.000  0.500  0.000
  0.000  1.000  0.000  0.000  0.000
  0.000  0.000  0.814  0.000  0.186
    occupations:
  0.684  0.000  0.000 -0.000 -0.055
  0.000  0.552 -0.027 -0.000 -0.000
  0.000 -0.027  0.552  0.000 -0.000
 -0.000 -0.000  0.000  0.526 -0.000
 -0.055 -0.000 -0.000 -0.000  0.595
   spin  2
    eigenvalues: 
  0.525  0.526  0.569  0.579  0.710
    eigenvectors:
  0.000  0.000  0.186  0.000  0.814
  0.500  0.000  0.000  0.500  0.000
  0.500  0.000  0.000  0.500  0.000
  0.000  1.000  0.000  0.000  0.000
  0.000  0.000  0.814  0.000  0.186
    occupations:
  0.684  0.000  0.000 -0.000 -0.055
  0.000  0.552 -0.027 -0.000 -0.000
  0.000 -0.027  0.552  0.000 -0.000
 -0.000 -0.000  0.000  0.526 -0.000
 -0.055 -0.000 -0.000 -0.000  0.595
atomic mag. moment =     0.000000
atom    5   Tr[ns(na)] (up, down, total) =   2.90952  2.90953  5.81905
   spin  1
    eigenvalues: 
  0.525  0.526  0.569  0.579  0.710
    eigenvectors:
  0.000  0.000  0.186  0.000  0.814
  0.500  0.000  0.000  0.500  0.000
  0.500  0.000  0.000  0.500  0.000
  0.000  1.000  0.000  0.000  0.000
  0.000  0.000  0.814  0.000  0.186
    occupations:
  0.684 -0.000 -0.000 -0.000  0.055
 -0.000  0.552  0.027  0.000  0.000
 -0.000  0.027  0.552  0.000  0.000
 -0.000  0.000  0.000  0.526 -0.000
  0.055  0.000  0.000 -0.000  0.595
   spin  2
    eigenvalues: 
  0.525  0.526  0.569  0.579  0.710
    eigenvectors:
  0.000  0.000  0.186  0.000  0.814
  0.500  0.000  0.000  0.500  0.000
  0.500  0.000  0.000  0.500  0.000
  0.000  1.000  0.000  0.000  0.000
  0.000  0.000  0.814  0.000  0.186
    occupations:
  0.684 -0.000 -0.000 -0.000  0.055
 -0.000  0.552  0.027  0.000  0.000
 -0.000  0.027  0.552  0.000  0.000
 -0.000  0.000  0.000  0.526 -0.000
  0.055  0.000  0.000 -0.000  0.595
atomic mag. moment =    -0.000003
atom    6   Tr[ns(na)] (up, down, total) =   2.90959  2.90959  5.81918
   spin  1
    eigenvalues: 
  0.525  0.526  0.569  0.579  0.710
    eigenvectors:
  0.000  0.000  0.187  0.000  0.813
  0.500  0.000  0.000  0.500  0.000
  0.500  0.000  0.000  0.500  0.000
  0.000  1.000  0.000  0.000  0.000
  0.000  0.000  0.813  0.000  0.187
    occupations:
  0.684  0.000 -0.000  0.000 -0.055
  0.000  0.552 -0.027  0.000 -0.000
 -0.000 -0.027  0.552  0.000  0.000
  0.000  0.000  0.000  0.526 -0.000
 -0.055 -0.000  0.000 -0.000  0.596
   spin  2
    eigenvalues: 
  0.525  0.526  0.569  0.579  0.710
    eigenvectors:
  0.000  0.000  0.187  0.000  0.813
  0.500  0.000  0.000  0.500  0.000
  0.500  0.000  0.000  0.500  0.000
  0.000  1.000  0.000  0.000  0.000
  0.000  0.000  0.813  0.000  0.187
    occupations:
  0.684  0.000 -0.000  0.000 -0.055
  0.000  0.552 -0.027  0.000 -0.000
 -0.000 -0.027  0.552  0.000  0.000
  0.000  0.000  0.000  0.526 -0.000
 -0.055 -0.000  0.000 -0.000  0.596
atomic mag. moment =     0.000002
atom    7   Tr[ns(na)] (up, down, total) =   2.90954  2.90953  5.81907
   spin  1
    eigenvalues: 
  0.525  0.526  0.569  0.579  0.710
    eigenvectors:
  0.000  0.000  0.187  0.000  0.813
  0.500  0.000  0.000  0.500  0.000
  0.500  0.000  0.000  0.500  0.000
  0.000  1.000  0.000  0.000  0.000
  0.000  0.000  0.813  0.000  0.187
    occupations:
  0.684 -0.000 -0.000 -0.000  0.055
 -0.000  0.552  0.027  0.000  0.000
 -0.000  0.027  0.552  0.000  0.000
 -0.000  0.000  0.000  0.526 -0.000
  0.055  0.000  0.000 -0.000  0.595
   spin  2
    eigenvalues: 
  0.525  0.526  0.569  0.579  0.710
    eigenvectors:
  0.000  0.000  0.187  0.000  0.813
  0.500  0.000  0.000  0.500  0.000
  0.500  0.000  0.000  0.500  0.000
  0.000  1.000  0.000  0.000  0.000
  0.000  0.000  0.813  0.000  0.187
    occupations:
  0.684 -0.000 -0.000 -0.000  0.055
 -0.000  0.552  0.027  0.000  0.000
 -0.000  0.027  0.552  0.000  0.000
 -0.000  0.000  0.000  0.526 -0.000
  0.055  0.000  0.000 -0.000  0.595
atomic mag. moment =     0.000002
atom    8   Tr[ns(na)] (up, down, total) =   2.90959  2.90959  5.81918
   spin  1
    eigenvalues: 
  0.525  0.526  0.569  0.579  0.710
    eigenvectors:
  0.000  0.000  0.187  0.000  0.813
  0.500  0.000  0.000  0.500  0.000
  0.500  0.000  0.000  0.500  0.000
  0.000  1.000  0.000  0.000  0.000
  0.000  0.000  0.813  0.000  0.187
    occupations:
  0.684 -0.000  0.000  0.000 -0.055
 -0.000  0.552 -0.027 -0.000  0.000
  0.000 -0.027  0.552 -0.000 -0.000
  0.000 -0.000 -0.000  0.526 -0.000
 -0.055  0.000 -0.000 -0.000  0.596
   spin  2
    eigenvalues: 
  0.525  0.526  0.569  0.579  0.710
    eigenvectors:
  0.000  0.000  0.187  0.000  0.813
  0.500  0.000  0.000  0.500  0.000
  0.500  0.000  0.000  0.500  0.000
  0.000  1.000  0.000  0.000  0.000
  0.000  0.000  0.813  0.000  0.187
    occupations:
  0.684 -0.000  0.000  0.000 -0.055
 -0.000  0.552 -0.027 -0.000  0.000
  0.000 -0.027  0.552 -0.000 -0.000
  0.000 -0.000 -0.000  0.526 -0.000
 -0.055  0.000 -0.000 -0.000  0.596
atomic mag. moment =     0.000002
atom    9   Tr[ns(na)] (up, down, total) =   2.90952  2.90953  5.81905
   spin  1
    eigenvalues: 
  0.525  0.526  0.569  0.579  0.710
    eigenvectors:
  0.000  0.000  0.186  0.000  0.814
  0.500  0.000  0.000  0.500  0.000
  0.500  0.000  0.000  0.500  0.000
  0.000  1.000  0.000  0.000  0.000
  0.000  0.000  0.814  0.000  0.186
    occupations:
  0.684 -0.000 -0.000  0.000  0.055
 -0.000  0.552  0.027  0.000  0.000
 -0.000  0.027  0.552  0.000  0.000
  0.000  0.000  0.000  0.526  0.000
  0.055  0.000  0.000  0.000  0.595
   spin  2
    eigenvalues: 
  0.525  0.526  0.569  0.579  0.710
    eigenvectors:
  0.000  0.000  0.186  0.000  0.814
  0.500  0.000  0.000  0.500  0.000
  0.500  0.000  0.000  0.500  0.000
  0.000  1.000  0.000  0.000  0.000
  0.000  0.000  0.814  0.000  0.186
    occupations:
  0.684 -0.000 -0.000  0.000  0.055
 -0.000  0.552  0.027  0.000  0.000
 -0.000  0.027  0.552  0.000  0.000
  0.000  0.000  0.000  0.526  0.000
  0.055  0.000  0.000  0.000  0.595
atomic mag. moment =    -0.000003
atom   10   Tr[ns(na)] (up, down, total) =   2.90959  2.90959  5.81918
   spin  1
    eigenvalues: 
  0.525  0.526  0.569  0.579  0.710
    eigenvectors:
  0.000  0.000  0.187  0.000  0.813
  0.500  0.000  0.000  0.500  0.000
  0.500  0.000  0.000  0.500  0.000
  0.000  1.000  0.000  0.000  0.000
  0.000  0.000  0.813  0.000  0.187
    occupations:
  0.684 -0.000  0.000 -0.000 -0.055
 -0.000  0.552 -0.027 -0.000  0.000
  0.000 -0.027  0.552 -0.000 -0.000
 -0.000 -0.000 -0.000  0.526  0.000
 -0.055  0.000 -0.000  0.000  0.596
   spin  2
    eigenvalues: 
  0.525  0.526  0.569  0.579  0.710
    eigenvectors:
  0.000  0.000  0.187  0.000  0.813
  0.500  0.000  0.000  0.500  0.000
  0.500  0.000  0.000  0.500  0.000
  0.000  1.000  0.000  0.000  0.000
  0.000  0.000  0.813  0.000  0.187
    occupations:
  0.684 -0.000  0.000 -0.000 -0.055
 -0.000  0.552 -0.027 -0.000  0.000
  0.000 -0.027  0.552 -0.000 -0.000
 -0.000 -0.000 -0.000  0.526  0.000
 -0.055  0.000 -0.000  0.000  0.596
atomic mag. moment =     0.000002
atom   11   Tr[ns(na)] (up, down, total) =   2.90954  2.90953  5.81907
   spin  1
    eigenvalues: 
  0.525  0.526  0.569  0.579  0.710
    eigenvectors:
  0.000  0.000  0.187  0.000  0.813
  0.500  0.000  0.000  0.500  0.000
  0.500  0.000  0.000  0.500  0.000
  0.000  1.000  0.000  0.000  0.000
  0.000  0.000  0.813  0.000  0.187
    occupations:
  0.684 -0.000 -0.000  0.000  0.055
 -0.000  0.552  0.027  0.000  0.000
 -0.000  0.027  0.552  0.000  0.000
  0.000  0.000  0.000  0.526  0.000
  0.055  0.000  0.000  0.000  0.595
   spin  2
    eigenvalues: 
  0.525  0.526  0.569  0.579  0.710
    eigenvectors:
  0.000  0.000  0.187  0.000  0.813
  0.500  0.000  0.000  0.500  0.000
  0.500  0.000  0.000  0.500  0.000
  0.000  1.000  0.000  0.000  0.000
  0.000  0.000  0.813  0.000  0.187
    occupations:
  0.684 -0.000 -0.000  0.000  0.055
 -0.000  0.552  0.027  0.000  0.000
 -0.000  0.027  0.552  0.000  0.000
  0.000  0.000  0.000  0.526  0.000
  0.055  0.000  0.000  0.000  0.595
atomic mag. moment =     0.000002
atom   12   Tr[ns(na)] (up, down, total) =   2.90959  2.90959  5.81918
   spin  1
    eigenvalues: 
  0.525  0.526  0.569  0.579  0.710
    eigenvectors:
  0.000  0.000  0.187  0.000  0.813
  0.500  0.000  0.000  0.500  0.000
  0.500  0.000  0.000  0.500  0.000
  0.000  1.000  0.000  0.000  0.000
  0.000  0.000  0.813  0.000  0.187
    occupations:
  0.684  0.000 -0.000 -0.000 -0.055
  0.000  0.552 -0.027  0.000 -0.000
 -0.000 -0.027  0.552  0.000  0.000
 -0.000  0.000  0.000  0.526  0.000
 -0.055 -0.000  0.000  0.000  0.596
   spin  2
    eigenvalues: 
  0.525  0.526  0.569  0.579  0.710
    eigenvectors:
  0.000  0.000  0.187  0.000  0.813
  0.500  0.000  0.000  0.500  0.000
  0.500  0.000  0.000  0.500  0.000
  0.000  1.000  0.000  0.000  0.000
  0.000  0.000  0.813  0.000  0.187
    occupations:
  0.684  0.000 -0.000 -0.000 -0.055
  0.000  0.552 -0.027  0.000 -0.000
 -0.000 -0.027  0.552  0.000  0.000
 -0.000  0.000  0.000  0.526  0.000
 -0.055 -0.000  0.000  0.000  0.596
atomic mag. moment =     0.000002
atom   13   Tr[ns(na)] (up, down, total) =   2.90967  2.90967  5.81934
   spin  1
    eigenvalues: 
  0.525  0.526  0.569  0.579  0.710
    eigenvectors:
  0.000  0.000  0.186  0.000  0.814
  0.500  0.000  0.000  0.500  0.000
  0.500  0.000  0.000  0.500  0.000
  0.000  1.000  0.000  0.000  0.000
  0.000  0.000  0.814  0.000  0.186
    occupations:
  0.684 -0.000 -0.000 -0.000  0.055
 -0.000  0.552  0.027  0.000  0.000
 -0.000  0.027  0.552  0.000  0.000
 -0.000  0.000  0.000  0.526 -0.000
  0.055  0.000  0.000 -0.000  0.596
   spin  2
    eigenvalues: 
  0.525  0.526  0.569  0.579  0.710
    eigenvectors:
  0.000  0.000  0.186  0.000  0.814
  0.500  0.000  0.000  0.500  0.000
  0.500  0.000  0.000  0.500  0.000
  0.000  1.000  0.000  0.000  0.000
  0.000  0.000  0.814  0.000  0.186
    occupations:
  0.684 -0.000 -0.000 -0.000  0.055
 -0.000  0.552  0.027  0.000  0.000
 -0.000  0.027  0.552  0.000  0.000
 -0.000  0.000  0.000  0.526 -0.000
  0.055  0.000  0.000 -0.000  0.596
atomic mag. moment =    -0.000004
atom   14   Tr[ns(na)] (up, down, total) =   2.90963  2.90963  5.81925
   spin  1
    eigenvalues: 
  0.525  0.526  0.569  0.579  0.710
    eigenvectors:
  0.000  0.000  0.187  0.000  0.813
  0.500  0.000  0.000  0.500  0.000
  0.500  0.000  0.000  0.500  0.000
  0.000  1.000  0.000  0.000  0.000
  0.000  0.000  0.813  0.000  0.187
    occupations:
  0.684 -0.000 -0.000 -0.000 -0.055
 -0.000  0.552 -0.027 -0.000  0.000
 -0.000 -0.027  0.552  0.000  0.000
 -0.000 -0.000  0.000  0.526 -0.000
 -0.055  0.000  0.000 -0.000  0.596
   spin  2
    eigenvalues: 
  0.525  0.526  0.569  0.579  0.710
    eigenvectors:
  0.000  0.000  0.187  0.000  0.813
  0.500  0.000  0.000  0.500  0.000
  0.500  0.000  0.000  0.500  0.000
  0.000  1.000  0.000  0.000  0.000
  0.000  0.000  0.813  0.000  0.187
    occupations:
  0.684 -0.000 -0.000 -0.000 -0.055
 -0.000  0.552 -0.027 -0.000  0.000
 -0.000 -0.027  0.552  0.000  0.000
 -0.000 -0.000  0.000  0.526 -0.000
 -0.055  0.000  0.000 -0.000  0.596
atomic mag. moment =     0.000001
atom   15   Tr[ns(na)] (up, down, total) =   2.90946  2.90946  5.81892
   spin  1
    eigenvalues: 
  0.525  0.526  0.569  0.578  0.710
    eigenvectors:
  0.000  0.000  0.186  0.000  0.814
  0.500  0.000  0.000  0.500  0.000
  0.500  0.000  0.000  0.500  0.000
  0.000  1.000  0.000  0.000  0.000
  0.000  0.000  0.814  0.000  0.186
    occupations:
  0.684 -0.000 -0.000 -0.000  0.055
 -0.000  0.552  0.027  0.000  0.000
 -0.000  0.027  0.552  0.000  0.000
 -0.000  0.000  0.000  0.526 -0.000
  0.055  0.000  0.000 -0.000  0.595
   spin  2
    eigenvalues: 
  0.525  0.526  0.569  0.578  0.710
    eigenvectors:
  0.000  0.000  0.186  0.000  0.814
  0.500  0.000  0.000  0.500  0.000
  0.500  0.000  0.000  0.500  0.000
  0.000  1.000  0.000  0.000  0.000
  0.000  0.000  0.814  0.000  0.186
    occupations:
  0.684 -0.000 -0.000 -0.000  0.055
 -0.000  0.552  0.027  0.000  0.000
 -0.000  0.027  0.552  0.000  0.000
 -0.000  0.000  0.000  0.526 -0.000
  0.055  0.000  0.000 -0.000  0.595
atomic mag. moment =    -0.000000
atom   16   Tr[ns(na)] (up, down, total) =   2.90963  2.90963  5.81925
   spin  1
    eigenvalues: 
  0.525  0.526  0.569  0.579  0.710
    eigenvectors:
  0.000  0.000  0.187  0.000  0.813
  0.500  0.000  0.000  0.500  0.000
  0.500  0.000  0.000  0.500  0.000
  0.000  1.000  0.000  0.000  0.000
  0.000  0.000  0.813  0.000  0.187
    occupations:
  0.684  0.000  0.000 -0.000 -0.055
  0.000  0.552 -0.027  0.000 -0.000
  0.000 -0.027  0.552 -0.000 -0.000
 -0.000  0.000 -0.000  0.526 -0.000
 -0.055 -0.000 -0.000 -0.000  0.596
   spin  2
    eigenvalues: 
  0.525  0.526  0.569  0.579  0.710
    eigenvectors:
  0.000  0.000  0.187  0.000  0.813
  0.500  0.000  0.000  0.500  0.000
  0.500  0.000  0.000  0.500  0.000
  0.000  1.000  0.000  0.000  0.000
  0.000  0.000  0.813  0.000  0.187
    occupations:
  0.684  0.000  0.000 -0.000 -0.055
  0.000  0.552 -0.027  0.000 -0.000
  0.000 -0.027  0.552 -0.000 -0.000
 -0.000  0.000 -0.000  0.526 -0.000
 -0.055 -0.000 -0.000 -0.000  0.596
atomic mag. moment =     0.000001
atom   17   Tr[ns(na)] (up, down, total) =   2.70505  2.70505  5.41010
   spin  1
    eigenvalues: 
  0.900  0.902  0.903
    eigenvectors:
  0.000  0.000  1.000
  0.500  0.500  0.000
  0.500  0.500  0.000
    occupations:
  0.903 -0.000 -0.000
 -0.000  0.901  0.001
 -0.000  0.001  0.901
   spin  2
    eigenvalues: 
  0.900  0.902  0.903
    eigenvectors:
  0.000  0.000  1.000
  0.500  0.500  0.000
  0.500  0.500  0.000
    occupations:
  0.903 -0.000 -0.000
 -0.000  0.901  0.001
 -0.000  0.001  0.901
atomic mag. moment =     0.000000
atom   18   Tr[ns(na)] (up, down, total) =   2.70507  2.70507  5.41013
   spin  1
    eigenvalues: 
  0.900  0.902  0.903
    eigenvectors:
  0.000  0.000  1.000
  0.500  0.500  0.000
  0.500  0.500  0.000
    occupations:
  0.903 -0.000 -0.000
 -0.000  0.901  0.001
 -0.000  0.001  0.901
   spin  2
    eigenvalues: 
  0.900  0.902  0.903
    eigenvectors:
  0.000  0.000  1.000
  0.500  0.500  0.000
  0.500  0.500  0.000
    occupations:
  0.903 -0.000 -0.000
 -0.000  0.901  0.001
 -0.000  0.001  0.901
atomic mag. moment =     0.000000
atom   19   Tr[ns(na)] (up, down, total) =   2.70510  2.70510  5.41019
   spin  1
    eigenvalues: 
  0.900  0.902  0.903
    eigenvectors:
  0.000  0.000  1.000
  0.500  0.500  0.000
  0.500  0.500  0.000
    occupations:
  0.903  0.000 -0.000
  0.000  0.901 -0.001
 -0.000 -0.001  0.901
   spin  2
    eigenvalues: 
  0.900  0.902  0.903
    eigenvectors:
  0.000  0.000  1.000
  0.500  0.500  0.000
  0.500  0.500  0.000
    occupations:
  0.903  0.000 -0.000
  0.000  0.901 -0.001
 -0.000 -0.001  0.901
atomic mag. moment =    -0.000000
atom   20   Tr[ns(na)] (up, down, total) =   2.70510  2.70510  5.41019
   spin  1
    eigenvalues: 
  0.900  0.902  0.903
    eigenvectors:
  0.000  0.000  1.000
  0.500  0.500  0.000
  0.500  0.500  0.000
    occupations:
  0.903 -0.000  0.000
 -0.000  0.901 -0.001
  0.000 -0.001  0.901
   spin  2
    eigenvalues: 
  0.900  0.902  0.903
    eigenvectors:
  0.000  0.000  1.000
  0.500  0.500  0.000
  0.500  0.500  0.000
    occupations:
  0.903 -0.000  0.000
 -0.000  0.901 -0.001
  0.000 -0.001  0.901
atomic mag. moment =    -0.000000
atom   21   Tr[ns(na)] (up, down, total) =   2.70508  2.70508  5.41015
   spin  1
    eigenvalues: 
  0.900  0.902  0.903
    eigenvectors:
  0.000  0.000  1.000
  0.500  0.500  0.000
  0.500  0.500  0.000
    occupations:
  0.903 -0.000 -0.000
 -0.000  0.901  0.001
 -0.000  0.001  0.901
   spin  2
    eigenvalues: 
  0.900  0.902  0.903
    eigenvectors:
  0.000  0.000  1.000
  0.500  0.500  0.000
  0.500  0.500  0.000
    occupations:
  0.903 -0.000 -0.000
 -0.000  0.901  0.001
 -0.000  0.001  0.901
atomic mag. moment =     0.000000
atom   22   Tr[ns(na)] (up, down, total) =   2.70511  2.70511  5.41023
   spin  1
    eigenvalues: 
  0.900  0.902  0.903
    eigenvectors:
  0.000  0.000  1.000
  0.500  0.500  0.000
  0.500  0.500  0.000
    occupations:
  0.903 -0.000 -0.000
 -0.000  0.901  0.001
 -0.000  0.001  0.901
   spin  2
    eigenvalues: 
  0.900  0.902  0.903
    eigenvectors:
  0.000  0.000  1.000
  0.500  0.500  0.000
  0.500  0.500  0.000
    occupations:
  0.903 -0.000 -0.000
 -0.000  0.901  0.001
 -0.000  0.001  0.901
atomic mag. moment =     0.000000
atom   23   Tr[ns(na)] (up, down, total) =   2.70510  2.70510  5.41019
   spin  1
    eigenvalues: 
  0.900  0.902  0.903
    eigenvectors:
  0.000  0.000  1.000
  0.500  0.500  0.000
  0.500  0.500  0.000
    occupations:
  0.903 -0.000  0.000
 -0.000  0.901 -0.001
  0.000 -0.001  0.901
   spin  2
    eigenvalues: 
  0.900  0.902  0.903
    eigenvectors:
  0.000  0.000  1.000
  0.500  0.500  0.000
  0.500  0.500  0.000
    occupations:
  0.903 -0.000  0.000
 -0.000  0.901 -0.001
  0.000 -0.001  0.901
atomic mag. moment =    -0.000000
atom   24   Tr[ns(na)] (up, down, total) =   2.70510  2.70510  5.41019
   spin  1
    eigenvalues: 
  0.900  0.902  0.903
    eigenvectors:
  0.000  0.000  1.000
  0.500  0.500  0.000
  0.500  0.500  0.000
    occupations:
  0.903  0.000 -0.000
  0.000  0.901 -0.001
 -0.000 -0.001  0.901
   spin  2
    eigenvalues: 
  0.900  0.902  0.903
    eigenvectors:
  0.000  0.000  1.000
  0.500  0.500  0.000
  0.500  0.500  0.000
    occupations:
  0.903  0.000 -0.000
  0.000  0.901 -0.001
 -0.000 -0.001  0.901
atomic mag. moment =    -0.000000
atom   25   Tr[ns(na)] (up, down, total) =   2.70508  2.70508  5.41015
   spin  1
    eigenvalues: 
  0.900  0.902  0.903
    eigenvectors:
  0.000  0.000  1.000
  0.500  0.500  0.000
  0.500  0.500  0.000
    occupations:
  0.903 -0.000 -0.000
 -0.000  0.901  0.001
 -0.000  0.001  0.901
   spin  2
    eigenvalues: 
  0.900  0.902  0.903
    eigenvectors:
  0.000  0.000  1.000
  0.500  0.500  0.000
  0.500  0.500  0.000
    occupations:
  0.903 -0.000 -0.000
 -0.000  0.901  0.001
 -0.000  0.001  0.901
atomic mag. moment =     0.000000
atom   26   Tr[ns(na)] (up, down, total) =   2.70507  2.70507  5.41014
   spin  1
    eigenvalues: 
  0.900  0.902  0.903
    eigenvectors:
  0.000  0.000  1.000
  0.500  0.500  0.000
  0.500  0.500  0.000
    occupations:
  0.903 -0.000 -0.000
 -0.000  0.901  0.001
 -0.000  0.001  0.901
   spin  2
    eigenvalues: 
  0.900  0.902  0.903
    eigenvectors:
  0.000  0.000  1.000
  0.500  0.500  0.000
  0.500  0.500  0.000
    occupations:
  0.903 -0.000 -0.000
 -0.000  0.901  0.001
 -0.000  0.001  0.901
atomic mag. moment =     0.000000
atom   27   Tr[ns(na)] (up, down, total) =   2.70510  2.70510  5.41020
   spin  1
    eigenvalues: 
  0.900  0.902  0.903
    eigenvectors:
  0.000  0.000  1.000
  0.500  0.500  0.000
  0.500  0.500  0.000
    occupations:
  0.903 -0.000  0.000
 -0.000  0.901 -0.001
  0.000 -0.001  0.901
   spin  2
    eigenvalues: 
  0.900  0.902  0.903
    eigenvectors:
  0.000  0.000  1.000
  0.500  0.500  0.000
  0.500  0.500  0.000
    occupations:
  0.903 -0.000  0.000
 -0.000  0.901 -0.001
  0.000 -0.001  0.901
atomic mag. moment =    -0.000000
atom   28   Tr[ns(na)] (up, down, total) =   2.70508  2.70508  5.41016
   spin  1
    eigenvalues: 
  0.900  0.902  0.903
    eigenvectors:
  0.000  0.000  1.000
  0.500  0.500  0.000
  0.500  0.500  0.000
    occupations:
  0.903  0.000 -0.000
  0.000  0.901 -0.001
 -0.000 -0.001  0.901
   spin  2
    eigenvalues: 
  0.900  0.902  0.903
    eigenvectors:
  0.000  0.000  1.000
  0.500  0.500  0.000
  0.500  0.500  0.000
    occupations:
  0.903  0.000 -0.000
  0.000  0.901 -0.001
 -0.000 -0.001  0.901
atomic mag. moment =    -0.000000
atom   29   Tr[ns(na)] (up, down, total) =   2.70511  2.70511  5.41022
   spin  1
    eigenvalues: 
  0.900  0.902  0.903
    eigenvectors:
  0.000  0.000  1.000
  0.500  0.500  0.000
  0.500  0.500  0.000
    occupations:
  0.903 -0.000 -0.000
 -0.000  0.901  0.001
 -0.000  0.001  0.901
   spin  2
    eigenvalues: 
  0.900  0.902  0.903
    eigenvectors:
  0.000  0.000  1.000
  0.500  0.500  0.000
  0.500  0.500  0.000
    occupations:
  0.903 -0.000 -0.000
 -0.000  0.901  0.001
 -0.000  0.001  0.901
atomic mag. moment =    -0.000000
atom   30   Tr[ns(na)] (up, down, total) =   2.70511  2.70511  5.41021
   spin  1
    eigenvalues: 
  0.900  0.902  0.903
    eigenvectors:
  0.000  0.000  1.000
  0.500  0.500  0.000
  0.500  0.500  0.000
    occupations:
  0.903 -0.000 -0.000
 -0.000  0.901  0.001
 -0.000  0.001  0.901
   spin  2
    eigenvalues: 
  0.900  0.902  0.903
    eigenvectors:
  0.000  0.000  1.000
  0.500  0.500  0.000
  0.500  0.500  0.000
    occupations:
  0.903 -0.000 -0.000
 -0.000  0.901  0.001
 -0.000  0.001  0.901
atomic mag. moment =    -0.000000
atom   31   Tr[ns(na)] (up, down, total) =   2.70510  2.70510  5.41020
   spin  1
    eigenvalues: 
  0.900  0.902  0.903
    eigenvectors:
  0.000  0.000  1.000
  0.500  0.500  0.000
  0.500  0.500  0.000
    occupations:
  0.903  0.000 -0.000
  0.000  0.901 -0.001
 -0.000 -0.001  0.901
   spin  2
    eigenvalues: 
  0.900  0.902  0.903
    eigenvectors:
  0.000  0.000  1.000
  0.500  0.500  0.000
  0.500  0.500  0.000
    occupations:
  0.903  0.000 -0.000
  0.000  0.901 -0.001
 -0.000 -0.001  0.901
atomic mag. moment =    -0.000000
atom   32   Tr[ns(na)] (up, down, total) =   2.70508  2.70508  5.41016
   spin  1
    eigenvalues: 
  0.900  0.902  0.903
    eigenvectors:
  0.000  0.000  1.000
  0.500  0.500  0.000
  0.500  0.500  0.000
    occupations:
  0.903 -0.000  0.000
 -0.000  0.901 -0.001
  0.000 -0.001  0.901
   spin  2
    eigenvalues: 
  0.900  0.902  0.903
    eigenvectors:
  0.000  0.000  1.000
  0.500  0.500  0.000
  0.500  0.500  0.000
    occupations:
  0.903 -0.000  0.000
 -0.000  0.901 -0.001
  0.000 -0.001  0.901
atomic mag. moment =    -0.000000
atom   33   Tr[ns(na)] (up, down, total) =   2.70508  2.70508  5.41015
   spin  1
    eigenvalues: 
  0.900  0.902  0.903
    eigenvectors:
  0.000  0.000  1.000
  0.500  0.500  0.000
  0.500  0.500  0.000
    occupations:
  0.903 -0.000 -0.000
 -0.000  0.901  0.001
 -0.000  0.001  0.901
   spin  2
    eigenvalues: 
  0.900  0.902  0.903
    eigenvectors:
  0.000  0.000  1.000
  0.500  0.500  0.000
  0.500  0.500  0.000
    occupations:
  0.903 -0.000 -0.000
 -0.000  0.901  0.001
 -0.000  0.001  0.901
atomic mag. moment =     0.000000
atom   34   Tr[ns(na)] (up, down, total) =   2.70507  2.70507  5.41014
   spin  1
    eigenvalues: 
  0.900  0.902  0.903
    eigenvectors:
  0.000  0.000  1.000
  0.500  0.500  0.000
  0.500  0.500  0.000
    occupations:
  0.903 -0.000 -0.000
 -0.000  0.901  0.001
 -0.000  0.001  0.901
   spin  2
    eigenvalues: 
  0.900  0.902  0.903
    eigenvectors:
  0.000  0.000  1.000
  0.500  0.500  0.000
  0.500  0.500  0.000
    occupations:
  0.903 -0.000 -0.000
 -0.000  0.901  0.001
 -0.000  0.001  0.901
atomic mag. moment =     0.000000
atom   35   Tr[ns(na)] (up, down, total) =   2.70508  2.70508  5.41016
   spin  1
    eigenvalues: 
  0.900  0.902  0.903
    eigenvectors:
  0.000  0.000  1.000
  0.500  0.500  0.000
  0.500  0.500  0.000
    occupations:
  0.903 -0.000  0.000
 -0.000  0.901 -0.001
  0.000 -0.001  0.901
   spin  2
    eigenvalues: 
  0.900  0.902  0.903
    eigenvectors:
  0.000  0.000  1.000
  0.500  0.500  0.000
  0.500  0.500  0.000
    occupations:
  0.903 -0.000  0.000
 -0.000  0.901 -0.001
  0.000 -0.001  0.901
atomic mag. moment =    -0.000000
atom   36   Tr[ns(na)] (up, down, total) =   2.70510  2.70510  5.41020
   spin  1
    eigenvalues: 
  0.900  0.902  0.903
    eigenvectors:
  0.000  0.000  1.000
  0.500  0.500  0.000
  0.500  0.500  0.000
    occupations:
  0.903  0.000 -0.000
  0.000  0.901 -0.001
 -0.000 -0.001  0.901
   spin  2
    eigenvalues: 
  0.900  0.902  0.903
    eigenvectors:
  0.000  0.000  1.000
  0.500  0.500  0.000
  0.500  0.500  0.000
    occupations:
  0.903  0.000 -0.000
  0.000  0.901 -0.001
 -0.000 -0.001  0.901
atomic mag. moment =    -0.000000
atom   37   Tr[ns(na)] (up, down, total) =   2.70511  2.70511  5.41022
   spin  1
    eigenvalues: 
  0.900  0.902  0.903
    eigenvectors:
  0.000  0.000  1.000
  0.500  0.500  0.000
  0.500  0.500  0.000
    occupations:
  0.903 -0.000 -0.000
 -0.000  0.901  0.001
 -0.000  0.001  0.901
   spin  2
    eigenvalues: 
  0.900  0.902  0.903
    eigenvectors:
  0.000  0.000  1.000
  0.500  0.500  0.000
  0.500  0.500  0.000
    occupations:
  0.903 -0.000 -0.000
 -0.000  0.901  0.001
 -0.000  0.001  0.901
atomic mag. moment =    -0.000000
atom   38   Tr[ns(na)] (up, down, total) =   2.70511  2.70511  5.41021
   spin  1
    eigenvalues: 
  0.900  0.902  0.903
    eigenvectors:
  0.000  0.000  1.000
  0.500  0.500  0.000
  0.500  0.500  0.000
    occupations:
  0.903 -0.000 -0.000
 -0.000  0.901  0.001
 -0.000  0.001  0.901
   spin  2
    eigenvalues: 
  0.900  0.902  0.903
    eigenvectors:
  0.000  0.000  1.000
  0.500  0.500  0.000
  0.500  0.500  0.000
    occupations:
  0.903 -0.000 -0.000
 -0.000  0.901  0.001
 -0.000  0.001  0.901
atomic mag. moment =    -0.000000
atom   39   Tr[ns(na)] (up, down, total) =   2.70508  2.70508  5.41016
   spin  1
    eigenvalues: 
  0.900  0.902  0.903
    eigenvectors:
  0.000  0.000  1.000
  0.500  0.500  0.000
  0.500  0.500  0.000
    occupations:
  0.903  0.000 -0.000
  0.000  0.901 -0.001
 -0.000 -0.001  0.901
   spin  2
    eigenvalues: 
  0.900  0.902  0.903
    eigenvectors:
  0.000  0.000  1.000
  0.500  0.500  0.000
  0.500  0.500  0.000
    occupations:
  0.903  0.000 -0.000
  0.000  0.901 -0.001
 -0.000 -0.001  0.901
atomic mag. moment =    -0.000000
atom   40   Tr[ns(na)] (up, down, total) =   2.70510  2.70510  5.41020
   spin  1
    eigenvalues: 
  0.900  0.902  0.903
    eigenvectors:
  0.000  0.000  1.000
  0.500  0.500  0.000
  0.500  0.500  0.000
    occupations:
  0.903 -0.000  0.000
 -0.000  0.901 -0.001
  0.000 -0.001  0.901
   spin  2
    eigenvalues: 
  0.900  0.902  0.903
    eigenvectors:
  0.000  0.000  1.000
  0.500  0.500  0.000
  0.500  0.500  0.000
    occupations:
  0.903 -0.000  0.000
 -0.000  0.901 -0.001
  0.000 -0.001  0.901
atomic mag. moment =    -0.000000
atom   41   Tr[ns(na)] (up, down, total) =   2.70504  2.70504  5.41008
   spin  1
    eigenvalues: 
  0.900  0.902  0.903
    eigenvectors:
  0.000  0.000  1.000
  0.500  0.500  0.000
  0.500  0.500  0.000
    occupations:
  0.903 -0.000 -0.000
 -0.000  0.901  0.001
 -0.000  0.001  0.901
   spin  2
    eigenvalues: 
  0.900  0.902  0.903
    eigenvectors:
  0.000  0.000  1.000
  0.500  0.500  0.000
  0.500  0.500  0.000
    occupations:
  0.903 -0.000 -0.000
 -0.000  0.901  0.001
 -0.000  0.001  0.901
atomic mag. moment =     0.000000
atom   42   Tr[ns(na)] (up, down, total) =   2.70514  2.70514  5.41029
   spin  1
    eigenvalues: 
  0.900  0.902  0.903
    eigenvectors:
  0.000  0.000  1.000
  0.500  0.500  0.000
  0.500  0.500  0.000
    occupations:
  0.903 -0.000 -0.000
 -0.000  0.901  0.001
 -0.000  0.001  0.901
   spin  2
    eigenvalues: 
  0.900  0.902  0.903
    eigenvectors:
  0.000  0.000  1.000
  0.500  0.500  0.000
  0.500  0.500  0.000
    occupations:
  0.903 -0.000 -0.000
 -0.000  0.901  0.001
 -0.000  0.001  0.901
atomic mag. moment =     0.000000
atom   43   Tr[ns(na)] (up, down, total) =   2.70508  2.70508  5.41016
   spin  1
    eigenvalues: 
  0.900  0.902  0.903
    eigenvectors:
  0.000  0.000  1.000
  0.500  0.500  0.000
  0.500  0.500  0.000
    occupations:
  0.903  0.000 -0.000
  0.000  0.901 -0.001
 -0.000 -0.001  0.901
   spin  2
    eigenvalues: 
  0.900  0.902  0.903
    eigenvectors:
  0.000  0.000  1.000
  0.500  0.500  0.000
  0.500  0.500  0.000
    occupations:
  0.903  0.000 -0.000
  0.000  0.901 -0.001
 -0.000 -0.001  0.901
atomic mag. moment =    -0.000000
atom   44   Tr[ns(na)] (up, down, total) =   2.70508  2.70508  5.41016
   spin  1
    eigenvalues: 
  0.900  0.902  0.903
    eigenvectors:
  0.000  0.000  1.000
  0.500  0.500  0.000
  0.500  0.500  0.000
    occupations:
  0.903 -0.000  0.000
 -0.000  0.901 -0.001
  0.000 -0.001  0.901
   spin  2
    eigenvalues: 
  0.900  0.902  0.903
    eigenvectors:
  0.000  0.000  1.000
  0.500  0.500  0.000
  0.500  0.500  0.000
    occupations:
  0.903 -0.000  0.000
 -0.000  0.901 -0.001
  0.000 -0.001  0.901
atomic mag. moment =    -0.000000
atom   45   Tr[ns(na)] (up, down, total) =   2.70507  2.70507  5.41015
   spin  1
    eigenvalues: 
  0.900  0.902  0.903
    eigenvectors:
  0.000  0.000  1.000
  0.500  0.500  0.000
  0.500  0.500  0.000
    occupations:
  0.903 -0.000 -0.000
 -0.000  0.901  0.001
 -0.000  0.001  0.901
   spin  2
    eigenvalues: 
  0.900  0.902  0.903
    eigenvectors:
  0.000  0.000  1.000
  0.500  0.500  0.000
  0.500  0.500  0.000
    occupations:
  0.903 -0.000 -0.000
 -0.000  0.901  0.001
 -0.000  0.001  0.901
atomic mag. moment =     0.000000
atom   46   Tr[ns(na)] (up, down, total) =   2.70517  2.70517  5.41034
   spin  1
    eigenvalues: 
  0.900  0.902  0.903
    eigenvectors:
  0.000  0.000  1.000
  0.500  0.500  0.000
  0.500  0.500  0.000
    occupations:
  0.903 -0.000 -0.000
 -0.000  0.901  0.001
 -0.000  0.001  0.901
   spin  2
    eigenvalues: 
  0.900  0.902  0.903
    eigenvectors:
  0.000  0.000  1.000
  0.500  0.500  0.000
  0.500  0.500  0.000
    occupations:
  0.903 -0.000 -0.000
 -0.000  0.901  0.001
 -0.000  0.001  0.901
atomic mag. moment =     0.000000
atom   47   Tr[ns(na)] (up, down, total) =   2.70508  2.70508  5.41016
   spin  1
    eigenvalues: 
  0.900  0.902  0.903
    eigenvectors:
  0.000  0.000  1.000
  0.500  0.500  0.000
  0.500  0.500  0.000
    occupations:
  0.903 -0.000  0.000
 -0.000  0.901 -0.001
  0.000 -0.001  0.901
   spin  2
    eigenvalues: 
  0.900  0.902  0.903
    eigenvectors:
  0.000  0.000  1.000
  0.500  0.500  0.000
  0.500  0.500  0.000
    occupations:
  0.903 -0.000  0.000
 -0.000  0.901 -0.001
  0.000 -0.001  0.901
atomic mag. moment =    -0.000000
atom   48   Tr[ns(na)] (up, down, total) =   2.70508  2.70508  5.41016
   spin  1
    eigenvalues: 
  0.900  0.902  0.903
    eigenvectors:
  0.000  0.000  1.000
  0.500  0.500  0.000
  0.500  0.500  0.000
    occupations:
  0.903  0.000 -0.000
  0.000  0.901 -0.001
 -0.000 -0.001  0.901
   spin  2
    eigenvalues: 
  0.900  0.902  0.903
    eigenvectors:
  0.000  0.000  1.000
  0.500  0.500  0.000
  0.500  0.500  0.000
    occupations:
  0.903  0.000 -0.000
  0.000  0.901 -0.001
 -0.000 -0.001  0.901
atomic mag. moment =    -0.000000
N of occupied +U levels = 266.2319728
 --- exit write_ns ---
 Atomic wfc used for LDA+U Projector are NOT orthogonalized
     Starting wfc from file

     total cpu time spent up to now is       80.0 secs

     per-process dynamical memory:   101.5 Mb

     Self-consistent Calculation

     iteration #  1     ecut=    40.00 Ry     beta=0.70
     Davidson diagonalization with overlap
     ethr =  6.58E-09,  avg # of iterations =  6.0
 --- enter write_ns ---
 LDA+U parameters:
U( 1)     =  0.00000000
alpha( 1) =  0.00000000
U( 2)     =  0.00000000
alpha( 2) =  0.07000000
U( 3)     =  0.00000000
alpha( 3) =  0.00000000
atom    1   Tr[ns(na)] (up, down, total) =   2.91120  2.91120  5.82239
   spin  1
    eigenvalues: 
  0.525  0.527  0.570  0.579  0.710
    eigenvectors:
  0.000  0.000  0.186  0.000  0.814
  0.500  0.000  0.000  0.500  0.000
  0.500  0.000  0.000  0.500  0.000
  0.000  1.000  0.000  0.000  0.000
  0.000  0.000  0.814  0.000  0.186
    occupations:
  0.684 -0.000 -0.000 -0.000  0.055
 -0.000  0.552  0.027  0.000  0.000
 -0.000  0.027  0.552  0.000  0.000
 -0.000  0.000  0.000  0.527 -0.000
  0.055  0.000  0.000 -0.000  0.596
   spin  2
    eigenvalues: 
  0.525  0.527  0.570  0.579  0.710
    eigenvectors:
  0.000  0.000  0.186  0.000  0.814
  0.500  0.000  0.000  0.500  0.000
  0.500  0.000  0.000  0.500  0.000
  0.000  1.000  0.000  0.000  0.000
  0.000  0.000  0.814  0.000  0.186
    occupations:
  0.684 -0.000 -0.000 -0.000  0.055
 -0.000  0.552  0.027  0.000  0.000
 -0.000  0.027  0.552  0.000  0.000
 -0.000  0.000  0.000  0.527 -0.000
  0.055  0.000  0.000 -0.000  0.596
atomic mag. moment =    -0.000001
atom    2   Tr[ns(na)] (up, down, total) =   2.90998  2.90998  5.81996
   spin  1
    eigenvalues: 
  0.526  0.526  0.569  0.578  0.710
    eigenvectors:
  0.000  0.000  0.187  0.000  0.813
  0.500  0.000  0.000  0.500  0.000
  0.500  0.000  0.000  0.500  0.000
  0.000  1.000  0.000  0.000  0.000
  0.000  0.000  0.813  0.000  0.187
    occupations:
  0.684  0.000  0.000 -0.000 -0.055
  0.000  0.552 -0.026 -0.000 -0.000
  0.000 -0.026  0.552  0.000 -0.000
 -0.000 -0.000  0.000  0.526 -0.000
 -0.055 -0.000 -0.000 -0.000  0.596
   spin  2
    eigenvalues: 
  0.526  0.526  0.569  0.578  0.710
    eigenvectors:
  0.000  0.000  0.187  0.000  0.813
  0.500  0.000  0.000  0.500  0.000
  0.500  0.000  0.000  0.500  0.000
  0.000  1.000  0.000  0.000  0.000
  0.000  0.000  0.813  0.000  0.187
    occupations:
  0.684  0.000  0.000 -0.000 -0.055
  0.000  0.552 -0.026 -0.000 -0.000
  0.000 -0.026  0.552  0.000 -0.000
 -0.000 -0.000  0.000  0.526 -0.000
 -0.055 -0.000 -0.000 -0.000  0.596
atomic mag. moment =     0.000000
atom    3   Tr[ns(na)] (up, down, total) =   2.91103  2.91104  5.82207
   spin  1
    eigenvalues: 
  0.525  0.527  0.569  0.579  0.711
    eigenvectors:
  0.000  0.000  0.186  0.000  0.814
  0.500  0.000  0.000  0.500  0.000
  0.500  0.000  0.000  0.500  0.000
  0.000  1.000  0.000  0.000  0.000
  0.000  0.000  0.814  0.000  0.186
    occupations:
  0.684 -0.000 -0.000 -0.000  0.055
 -0.000  0.552  0.027  0.000  0.000
 -0.000  0.027  0.552  0.000  0.000
 -0.000  0.000  0.000  0.527 -0.000
  0.055  0.000  0.000 -0.000  0.596
   spin  2
    eigenvalues: 
  0.525  0.527  0.569  0.579  0.711
    eigenvectors:
  0.000  0.000  0.186  0.000  0.814
  0.500  0.000  0.000  0.500  0.000
  0.500  0.000  0.000  0.500  0.000
  0.000  1.000  0.000  0.000  0.000
  0.000  0.000  0.814  0.000  0.186
    occupations:
  0.684 -0.000 -0.000 -0.000  0.055
 -0.000  0.552  0.027  0.000  0.000
 -0.000  0.027  0.552  0.000  0.000
 -0.000  0.000  0.000  0.527 -0.000
  0.055  0.000  0.000 -0.000  0.596
atomic mag. moment =    -0.000003
atom    4   Tr[ns(na)] (up, down, total) =   2.90998  2.90998  5.81996
   spin  1
    eigenvalues: 
  0.526  0.526  0.569  0.578  0.710
    eigenvectors:
  0.000  0.000  0.187  0.000  0.813
  0.500  0.000  0.000  0.500  0.000
  0.500  0.000  0.000  0.500  0.000
  0.000  1.000  0.000  0.000  0.000
  0.000  0.000  0.813  0.000  0.187
    occupations:
  0.684 -0.000 -0.000 -0.000 -0.055
 -0.000  0.552 -0.026  0.000  0.000
 -0.000 -0.026  0.552 -0.000  0.000
 -0.000  0.000 -0.000  0.526 -0.000
 -0.055  0.000  0.000 -0.000  0.596
   spin  2
    eigenvalues: 
  0.526  0.526  0.569  0.578  0.710
    eigenvectors:
  0.000  0.000  0.187  0.000  0.813
  0.500  0.000  0.000  0.500  0.000
  0.500  0.000  0.000  0.500  0.000
  0.000  1.000  0.000  0.000  0.000
  0.000  0.000  0.813  0.000  0.187
    occupations:
  0.684 -0.000 -0.000 -0.000 -0.055
 -0.000  0.552 -0.026  0.000  0.000
 -0.000 -0.026  0.552 -0.000  0.000
 -0.000  0.000 -0.000  0.526 -0.000
 -0.055  0.000  0.000 -0.000  0.596
atomic mag. moment =     0.000000
atom    5   Tr[ns(na)] (up, down, total) =   2.91052  2.91052  5.82103
   spin  1
    eigenvalues: 
  0.525  0.526  0.569  0.579  0.711
    eigenvectors:
  0.000  0.000  0.186  0.000  0.814
  0.500  0.000  0.000  0.500  0.000
  0.500  0.000  0.000  0.500  0.000
  0.000  1.000  0.000  0.000  0.000
  0.000  0.000  0.814  0.000  0.186
    occupations:
  0.684 -0.000 -0.000 -0.000  0.055
 -0.000  0.552  0.027  0.000  0.000
 -0.000  0.027  0.552  0.000  0.000
 -0.000  0.000  0.000  0.526 -0.000
  0.055  0.000  0.000 -0.000  0.596
   spin  2
    eigenvalues: 
  0.525  0.526  0.569  0.579  0.711
    eigenvectors:
  0.000  0.000  0.186  0.000  0.814
  0.500  0.000  0.000  0.500  0.000
  0.500  0.000  0.000  0.500  0.000
  0.000  1.000  0.000  0.000  0.000
  0.000  0.000  0.814  0.000  0.186
    occupations:
  0.684 -0.000 -0.000 -0.000  0.055
 -0.000  0.552  0.027  0.000  0.000
 -0.000  0.027  0.552  0.000  0.000
 -0.000  0.000  0.000  0.526 -0.000
  0.055  0.000  0.000 -0.000  0.596
atomic mag. moment =    -0.000003
atom    6   Tr[ns(na)] (up, down, total) =   2.90949  2.90949  5.81898
   spin  1
    eigenvalues: 
  0.525  0.526  0.569  0.578  0.710
    eigenvectors:
  0.000  0.000  0.187  0.000  0.813
  0.500  0.000  0.000  0.500  0.000
  0.500  0.000  0.000  0.500  0.000
  0.000  1.000  0.000  0.000  0.000
  0.000  0.000  0.813  0.000  0.187
    occupations:
  0.684  0.000 -0.000  0.000 -0.055
  0.000  0.552 -0.027 -0.000 -0.000
 -0.000 -0.027  0.552  0.000  0.000
  0.000 -0.000  0.000  0.526 -0.000
 -0.055 -0.000  0.000 -0.000  0.595
   spin  2
    eigenvalues: 
  0.525  0.526  0.569  0.578  0.710
    eigenvectors:
  0.000  0.000  0.187  0.000  0.813
  0.500  0.000  0.000  0.500  0.000
  0.500  0.000  0.000  0.500  0.000
  0.000  1.000  0.000  0.000  0.000
  0.000  0.000  0.813  0.000  0.187
    occupations:
  0.684  0.000 -0.000  0.000 -0.055
  0.000  0.552 -0.027 -0.000 -0.000
 -0.000 -0.027  0.552  0.000  0.000
  0.000 -0.000  0.000  0.526 -0.000
 -0.055 -0.000  0.000 -0.000  0.595
atomic mag. moment =     0.000001
atom    7   Tr[ns(na)] (up, down, total) =   2.91010  2.91010  5.82019
   spin  1
    eigenvalues: 
  0.525  0.526  0.569  0.579  0.710
    eigenvectors:
  0.000  0.000  0.186  0.000  0.814
  0.500  0.000  0.000  0.500  0.000
  0.500  0.000  0.000  0.500  0.000
  0.000  1.000  0.000  0.000  0.000
  0.000  0.000  0.814  0.000  0.186
    occupations:
  0.684 -0.000 -0.000  0.000  0.055
 -0.000  0.552  0.027  0.000  0.000
 -0.000  0.027  0.552  0.000  0.000
  0.000  0.000  0.000  0.526  0.000
  0.055  0.000  0.000  0.000  0.596
   spin  2
    eigenvalues: 
  0.525  0.526  0.569  0.579  0.710
    eigenvectors:
  0.000  0.000  0.186  0.000  0.814
  0.500  0.000  0.000  0.500  0.000
  0.500  0.000  0.000  0.500  0.000
  0.000  1.000  0.000  0.000  0.000
  0.000  0.000  0.814  0.000  0.186
    occupations:
  0.684 -0.000 -0.000  0.000  0.055
 -0.000  0.552  0.027  0.000  0.000
 -0.000  0.027  0.552  0.000  0.000
  0.000  0.000  0.000  0.526  0.000
  0.055  0.000  0.000  0.000  0.596
atomic mag. moment =     0.000002
atom    8   Tr[ns(na)] (up, down, total) =   2.90949  2.90949  5.81898
   spin  1
    eigenvalues: 
  0.525  0.526  0.569  0.578  0.710
    eigenvectors:
  0.000  0.000  0.187  0.000  0.813
  0.500  0.000  0.000  0.500  0.000
  0.500  0.000  0.000  0.500  0.000
  0.000  1.000  0.000  0.000  0.000
  0.000  0.000  0.813  0.000  0.187
    occupations:
  0.684 -0.000  0.000  0.000 -0.055
 -0.000  0.552 -0.027  0.000  0.000
  0.000 -0.027  0.552 -0.000 -0.000
  0.000  0.000 -0.000  0.526 -0.000
 -0.055  0.000 -0.000 -0.000  0.595
   spin  2
    eigenvalues: 
  0.525  0.526  0.569  0.578  0.710
    eigenvectors:
  0.000  0.000  0.187  0.000  0.813
  0.500  0.000  0.000  0.500  0.000
  0.500  0.000  0.000  0.500  0.000
  0.000  1.000  0.000  0.000  0.000
  0.000  0.000  0.813  0.000  0.187
    occupations:
  0.684 -0.000  0.000  0.000 -0.055
 -0.000  0.552 -0.027  0.000  0.000
  0.000 -0.027  0.552 -0.000 -0.000
  0.000  0.000 -0.000  0.526 -0.000
 -0.055  0.000 -0.000 -0.000  0.595
atomic mag. moment =     0.000001
atom    9   Tr[ns(na)] (up, down, total) =   2.91052  2.91052  5.82103
   spin  1
    eigenvalues: 
  0.525  0.526  0.569  0.579  0.711
    eigenvectors:
  0.000  0.000  0.186  0.000  0.814
  0.500  0.000  0.000  0.500  0.000
  0.500  0.000  0.000  0.500  0.000
  0.000  1.000  0.000  0.000  0.000
  0.000  0.000  0.814  0.000  0.186
    occupations:
  0.684 -0.000 -0.000  0.000  0.055
 -0.000  0.552  0.027  0.000  0.000
 -0.000  0.027  0.552  0.000  0.000
  0.000  0.000  0.000  0.526  0.000
  0.055  0.000  0.000  0.000  0.596
   spin  2
    eigenvalues: 
  0.525  0.526  0.569  0.579  0.711
    eigenvectors:
  0.000  0.000  0.186  0.000  0.814
  0.500  0.000  0.000  0.500  0.000
  0.500  0.000  0.000  0.500  0.000
  0.000  1.000  0.000  0.000  0.000
  0.000  0.000  0.814  0.000  0.186
    occupations:
  0.684 -0.000 -0.000  0.000  0.055
 -0.000  0.552  0.027  0.000  0.000
 -0.000  0.027  0.552  0.000  0.000
  0.000  0.000  0.000  0.526  0.000
  0.055  0.000  0.000  0.000  0.596
atomic mag. moment =    -0.000003
atom   10   Tr[ns(na)] (up, down, total) =   2.90949  2.90949  5.81898
   spin  1
    eigenvalues: 
  0.525  0.526  0.569  0.578  0.710
    eigenvectors:
  0.000  0.000  0.187  0.000  0.813
  0.500  0.000  0.000  0.500  0.000
  0.500  0.000  0.000  0.500  0.000
  0.000  1.000  0.000  0.000  0.000
  0.000  0.000  0.813  0.000  0.187
    occupations:
  0.684 -0.000  0.000 -0.000 -0.055
 -0.000  0.552 -0.027 -0.000  0.000
  0.000 -0.027  0.552  0.000 -0.000
 -0.000 -0.000  0.000  0.526  0.000
 -0.055  0.000 -0.000  0.000  0.595
   spin  2
    eigenvalues: 
  0.525  0.526  0.569  0.578  0.710
    eigenvectors:
  0.000  0.000  0.187  0.000  0.813
  0.500  0.000  0.000  0.500  0.000
  0.500  0.000  0.000  0.500  0.000
  0.000  1.000  0.000  0.000  0.000
  0.000  0.000  0.813  0.000  0.187
    occupations:
  0.684 -0.000  0.000 -0.000 -0.055
 -0.000  0.552 -0.027 -0.000  0.000
  0.000 -0.027  0.552  0.000 -0.000
 -0.000 -0.000  0.000  0.526  0.000
 -0.055  0.000 -0.000  0.000  0.595
atomic mag. moment =     0.000001
atom   11   Tr[ns(na)] (up, down, total) =   2.91010  2.91010  5.82019
   spin  1
    eigenvalues: 
  0.525  0.526  0.569  0.579  0.710
    eigenvectors:
  0.000  0.000  0.186  0.000  0.814
  0.500  0.000  0.000  0.500  0.000
  0.500  0.000  0.000  0.500  0.000
  0.000  1.000  0.000  0.000  0.000
  0.000  0.000  0.814  0.000  0.186
    occupations:
  0.684 -0.000 -0.000 -0.000  0.055
 -0.000  0.552  0.027  0.000  0.000
 -0.000  0.027  0.552  0.000  0.000
 -0.000  0.000  0.000  0.526 -0.000
  0.055  0.000  0.000 -0.000  0.596
   spin  2
    eigenvalues: 
  0.525  0.526  0.569  0.579  0.710
    eigenvectors:
  0.000  0.000  0.186  0.000  0.814
  0.500  0.000  0.000  0.500  0.000
  0.500  0.000  0.000  0.500  0.000
  0.000  1.000  0.000  0.000  0.000
  0.000  0.000  0.814  0.000  0.186
    occupations:
  0.684 -0.000 -0.000 -0.000  0.055
 -0.000  0.552  0.027  0.000  0.000
 -0.000  0.027  0.552  0.000  0.000
 -0.000  0.000  0.000  0.526 -0.000
  0.055  0.000  0.000 -0.000  0.596
atomic mag. moment =     0.000002
atom   12   Tr[ns(na)] (up, down, total) =   2.90949  2.90949  5.81898
   spin  1
    eigenvalues: 
  0.525  0.526  0.569  0.578  0.710
    eigenvectors:
  0.000  0.000  0.187  0.000  0.813
  0.500  0.000  0.000  0.500  0.000
  0.500  0.000  0.000  0.500  0.000
  0.000  1.000  0.000  0.000  0.000
  0.000  0.000  0.813  0.000  0.187
    occupations:
  0.684  0.000 -0.000 -0.000 -0.055
  0.000  0.552 -0.027  0.000 -0.000
 -0.000 -0.027  0.552 -0.000  0.000
 -0.000  0.000 -0.000  0.526  0.000
 -0.055 -0.000  0.000  0.000  0.595
   spin  2
    eigenvalues: 
  0.525  0.526  0.569  0.578  0.710
    eigenvectors:
  0.000  0.000  0.187  0.000  0.813
  0.500  0.000  0.000  0.500  0.000
  0.500  0.000  0.000  0.500  0.000
  0.000  1.000  0.000  0.000  0.000
  0.000  0.000  0.813  0.000  0.187
    occupations:
  0.684  0.000 -0.000 -0.000 -0.055
  0.000  0.552 -0.027  0.000 -0.000
 -0.000 -0.027  0.552 -0.000  0.000
 -0.000  0.000 -0.000  0.526  0.000
 -0.055 -0.000  0.000  0.000  0.595
atomic mag. moment =     0.000001
atom   13   Tr[ns(na)] (up, down, total) =   2.90805  2.90805  5.81610
   spin  1
    eigenvalues: 
  0.525  0.526  0.569  0.578  0.710
    eigenvectors:
  0.000  0.000  0.187  0.000  0.813
  0.500  0.000  0.000  0.500  0.000
  0.500  0.000  0.000  0.500  0.000
  0.000  1.000  0.000  0.000  0.000
  0.000  0.000  0.813  0.000  0.187
    occupations:
  0.683 -0.000 -0.000 -0.000  0.055
 -0.000  0.552  0.026  0.000  0.000
 -0.000  0.026  0.552  0.000  0.000
 -0.000  0.000  0.000  0.526 -0.000
  0.055  0.000  0.000 -0.000  0.595
   spin  2
    eigenvalues: 
  0.525  0.526  0.569  0.578  0.710
    eigenvectors:
  0.000  0.000  0.187  0.000  0.813
  0.500  0.000  0.000  0.500  0.000
  0.500  0.000  0.000  0.500  0.000
  0.000  1.000  0.000  0.000  0.000
  0.000  0.000  0.813  0.000  0.187
    occupations:
  0.683 -0.000 -0.000 -0.000  0.055
 -0.000  0.552  0.026  0.000  0.000
 -0.000  0.026  0.552  0.000  0.000
 -0.000  0.000  0.000  0.526 -0.000
  0.055  0.000  0.000 -0.000  0.595
atomic mag. moment =    -0.000003
atom   14   Tr[ns(na)] (up, down, total) =   2.90921  2.90921  5.81842
   spin  1
    eigenvalues: 
  0.525  0.526  0.569  0.578  0.710
    eigenvectors:
  0.000  0.000  0.186  0.000  0.814
  0.500  0.000  0.000  0.500  0.000
  0.500  0.000  0.000  0.500  0.000
  0.000  1.000  0.000  0.000  0.000
  0.000  0.000  0.814  0.000  0.186
    occupations:
  0.684  0.000  0.000 -0.000 -0.055
  0.000  0.552 -0.026 -0.000 -0.000
  0.000 -0.026  0.552  0.000 -0.000
 -0.000 -0.000  0.000  0.526 -0.000
 -0.055 -0.000 -0.000 -0.000  0.595
   spin  2
    eigenvalues: 
  0.525  0.526  0.569  0.578  0.710
    eigenvectors:
  0.000  0.000  0.186  0.000  0.814
  0.500  0.000  0.000  0.500  0.000
  0.500  0.000  0.000  0.500  0.000
  0.000  1.000  0.000  0.000  0.000
  0.000  0.000  0.814  0.000  0.186
    occupations:
  0.684  0.000  0.000 -0.000 -0.055
  0.000  0.552 -0.026 -0.000 -0.000
  0.000 -0.026  0.552  0.000 -0.000
 -0.000 -0.000  0.000  0.526 -0.000
 -0.055 -0.000 -0.000 -0.000  0.595
atomic mag. moment =     0.000001
atom   15   Tr[ns(na)] (up, down, total) =   2.91022  2.91022  5.82044
   spin  1
    eigenvalues: 
  0.525  0.526  0.569  0.579  0.710
    eigenvectors:
  0.000  0.000  0.186  0.000  0.814
  0.500  0.000  0.000  0.500  0.000
  0.500  0.000  0.000  0.500  0.000
  0.000  1.000  0.000  0.000  0.000
  0.000  0.000  0.814  0.000  0.186
    occupations:
  0.684 -0.000 -0.000 -0.000  0.055
 -0.000  0.552  0.027  0.000  0.000
 -0.000  0.027  0.552  0.000  0.000
 -0.000  0.000  0.000  0.526 -0.000
  0.055  0.000  0.000 -0.000  0.596
   spin  2
    eigenvalues: 
  0.525  0.526  0.569  0.579  0.710
    eigenvectors:
  0.000  0.000  0.186  0.000  0.814
  0.500  0.000  0.000  0.500  0.000
  0.500  0.000  0.000  0.500  0.000
  0.000  1.000  0.000  0.000  0.000
  0.000  0.000  0.814  0.000  0.186
    occupations:
  0.684 -0.000 -0.000 -0.000  0.055
 -0.000  0.552  0.027  0.000  0.000
 -0.000  0.027  0.552  0.000  0.000
 -0.000  0.000  0.000  0.526 -0.000
  0.055  0.000  0.000 -0.000  0.596
atomic mag. moment =     0.000000
atom   16   Tr[ns(na)] (up, down, total) =   2.90921  2.90921  5.81842
   spin  1
    eigenvalues: 
  0.525  0.526  0.569  0.578  0.710
    eigenvectors:
  0.000  0.000  0.186  0.000  0.814
  0.500  0.000  0.000  0.500  0.000
  0.500  0.000  0.000  0.500  0.000
  0.000  1.000  0.000  0.000  0.000
  0.000  0.000  0.814  0.000  0.186
    occupations:
  0.684 -0.000 -0.000 -0.000 -0.055
 -0.000  0.552 -0.026  0.000  0.000
 -0.000 -0.026  0.552 -0.000  0.000
 -0.000  0.000 -0.000  0.526 -0.000
 -0.055  0.000  0.000 -0.000  0.595
   spin  2
    eigenvalues: 
  0.525  0.526  0.569  0.578  0.710
    eigenvectors:
  0.000  0.000  0.186  0.000  0.814
  0.500  0.000  0.000  0.500  0.000
  0.500  0.000  0.000  0.500  0.000
  0.000  1.000  0.000  0.000  0.000
  0.000  0.000  0.814  0.000  0.186
    occupations:
  0.684 -0.000 -0.000 -0.000 -0.055
 -0.000  0.552 -0.026  0.000  0.000
 -0.000 -0.026  0.552 -0.000  0.000
 -0.000  0.000 -0.000  0.526 -0.000
 -0.055  0.000  0.000 -0.000  0.595
atomic mag. moment =     0.000001
atom   17   Tr[ns(na)] (up, down, total) =   2.70028  2.70028  5.40055
   spin  1
    eigenvalues: 
  0.898  0.901  0.902
    eigenvectors:
  0.000  0.000  1.000
  0.500  0.500  0.000
  0.500  0.500  0.000
    occupations:
  0.902 -0.000 -0.000
 -0.000  0.899  0.002
 -0.000  0.002  0.899
   spin  2
    eigenvalues: 
  0.898  0.901  0.902
    eigenvectors:
  0.000  0.000  1.000
  0.500  0.500  0.000
  0.500  0.500  0.000
    occupations:
  0.902 -0.000 -0.000
 -0.000  0.899  0.002
 -0.000  0.002  0.899
atomic mag. moment =     0.000000
atom   18   Tr[ns(na)] (up, down, total) =   2.70527  2.70527  5.41055
   spin  1
    eigenvalues: 
  0.900  0.902  0.903
    eigenvectors:
  0.000  0.000  1.000
  0.500  0.500  0.000
  0.500  0.500  0.000
    occupations:
  0.903 -0.000 -0.000
 -0.000  0.901  0.001
 -0.000  0.001  0.901
   spin  2
    eigenvalues: 
  0.900  0.902  0.903
    eigenvectors:
  0.000  0.000  1.000
  0.500  0.500  0.000
  0.500  0.500  0.000
    occupations:
  0.903 -0.000 -0.000
 -0.000  0.901  0.001
 -0.000  0.001  0.901
atomic mag. moment =     0.000000
atom   19   Tr[ns(na)] (up, down, total) =   2.70512  2.70512  5.41025
   spin  1
    eigenvalues: 
  0.900  0.902  0.903
    eigenvectors:
  0.000  0.000  1.000
  0.500  0.500  0.000
  0.500  0.500  0.000
    occupations:
  0.903 -0.000 -0.000
 -0.000  0.901 -0.001
 -0.000 -0.001  0.901
   spin  2
    eigenvalues: 
  0.900  0.902  0.903
    eigenvectors:
  0.000  0.000  1.000
  0.500  0.500  0.000
  0.500  0.500  0.000
    occupations:
  0.903 -0.000 -0.000
 -0.000  0.901 -0.001
 -0.000 -0.001  0.901
atomic mag. moment =    -0.000000
atom   20   Tr[ns(na)] (up, down, total) =   2.70512  2.70512  5.41025
   spin  1
    eigenvalues: 
  0.900  0.902  0.903
    eigenvectors:
  0.000  0.000  1.000
  0.500  0.500  0.000
  0.500  0.500  0.000
    occupations:
  0.903 -0.000 -0.000
 -0.000  0.901 -0.001
 -0.000 -0.001  0.901
   spin  2
    eigenvalues: 
  0.900  0.902  0.903
    eigenvectors:
  0.000  0.000  1.000
  0.500  0.500  0.000
  0.500  0.500  0.000
    occupations:
  0.903 -0.000 -0.000
 -0.000  0.901 -0.001
 -0.000 -0.001  0.901
atomic mag. moment =    -0.000000
atom   21   Tr[ns(na)] (up, down, total) =   2.70521  2.70521  5.41042
   spin  1
    eigenvalues: 
  0.900  0.902  0.903
    eigenvectors:
  0.000  0.000  1.000
  0.500  0.500  0.000
  0.500  0.500  0.000
    occupations:
  0.903 -0.000 -0.000
 -0.000  0.901  0.001
 -0.000  0.001  0.901
   spin  2
    eigenvalues: 
  0.900  0.902  0.903
    eigenvectors:
  0.000  0.000  1.000
  0.500  0.500  0.000
  0.500  0.500  0.000
    occupations:
  0.903 -0.000 -0.000
 -0.000  0.901  0.001
 -0.000  0.001  0.901
atomic mag. moment =     0.000000
atom   22   Tr[ns(na)] (up, down, total) =   2.70503  2.70503  5.41005
   spin  1
    eigenvalues: 
  0.900  0.902  0.903
    eigenvectors:
  0.000  0.000  1.000
  0.500  0.500  0.000
  0.500  0.500  0.000
    occupations:
  0.903 -0.000 -0.000
 -0.000  0.901  0.001
 -0.000  0.001  0.901
   spin  2
    eigenvalues: 
  0.900  0.902  0.903
    eigenvectors:
  0.000  0.000  1.000
  0.500  0.500  0.000
  0.500  0.500  0.000
    occupations:
  0.903 -0.000 -0.000
 -0.000  0.901  0.001
 -0.000  0.001  0.901
atomic mag. moment =     0.000000
atom   23   Tr[ns(na)] (up, down, total) =   2.70512  2.70512  5.41025
   spin  1
    eigenvalues: 
  0.900  0.902  0.903
    eigenvectors:
  0.000  0.000  1.000
  0.500  0.500  0.000
  0.500  0.500  0.000
    occupations:
  0.903  0.000  0.000
  0.000  0.901 -0.001
  0.000 -0.001  0.901
   spin  2
    eigenvalues: 
  0.900  0.902  0.903
    eigenvectors:
  0.000  0.000  1.000
  0.500  0.500  0.000
  0.500  0.500  0.000
    occupations:
  0.903  0.000  0.000
  0.000  0.901 -0.001
  0.000 -0.001  0.901
atomic mag. moment =    -0.000000
atom   24   Tr[ns(na)] (up, down, total) =   2.70512  2.70512  5.41025
   spin  1
    eigenvalues: 
  0.900  0.902  0.903
    eigenvectors:
  0.000  0.000  1.000
  0.500  0.500  0.000
  0.500  0.500  0.000
    occupations:
  0.903  0.000  0.000
  0.000  0.901 -0.001
  0.000 -0.001  0.901
   spin  2
    eigenvalues: 
  0.900  0.902  0.903
    eigenvectors:
  0.000  0.000  1.000
  0.500  0.500  0.000
  0.500  0.500  0.000
    occupations:
  0.903  0.000  0.000
  0.000  0.901 -0.001
  0.000 -0.001  0.901
atomic mag. moment =    -0.000000
atom   25   Tr[ns(na)] (up, down, total) =   2.70514  2.70514  5.41027
   spin  1
    eigenvalues: 
  0.900  0.902  0.903
    eigenvectors:
  0.000  0.000  1.000
  0.500  0.500  0.000
  0.500  0.500  0.000
    occupations:
  0.903 -0.000 -0.000
 -0.000  0.901  0.001
 -0.000  0.001  0.901
   spin  2
    eigenvalues: 
  0.900  0.902  0.903
    eigenvectors:
  0.000  0.000  1.000
  0.500  0.500  0.000
  0.500  0.500  0.000
    occupations:
  0.903 -0.000 -0.000
 -0.000  0.901  0.001
 -0.000  0.001  0.901
atomic mag. moment =     0.000000
atom   26   Tr[ns(na)] (up, down, total) =   2.70521  2.70521  5.41041
   spin  1
    eigenvalues: 
  0.900  0.902  0.903
    eigenvectors:
  0.000  0.000  1.000
  0.498  0.502  0.000
  0.502  0.498  0.000
    occupations:
  0.903 -0.000 -0.000
 -0.000  0.901  0.001
 -0.000  0.001  0.901
   spin  2
    eigenvalues: 
  0.900  0.902  0.903
    eigenvectors:
  0.000  0.000  1.000
  0.498  0.502  0.000
  0.502  0.498  0.000
    occupations:
  0.903 -0.000 -0.000
 -0.000  0.901  0.001
 -0.000  0.001  0.901
atomic mag. moment =     0.000000
atom   27   Tr[ns(na)] (up, down, total) =   2.70502  2.70502  5.41004
   spin  1
    eigenvalues: 
  0.900  0.902  0.903
    eigenvectors:
  0.000  0.000  1.000
  0.500  0.500  0.000
  0.500  0.500  0.000
    occupations:
  0.903  0.000 -0.000
  0.000  0.901 -0.001
 -0.000 -0.001  0.901
   spin  2
    eigenvalues: 
  0.900  0.902  0.903
    eigenvectors:
  0.000  0.000  1.000
  0.500  0.500  0.000
  0.500  0.500  0.000
    occupations:
  0.903  0.000 -0.000
  0.000  0.901 -0.001
 -0.000 -0.001  0.901
atomic mag. moment =    -0.000000
atom   28   Tr[ns(na)] (up, down, total) =   2.70520  2.70520  5.41040
   spin  1
    eigenvalues: 
  0.900  0.902  0.903
    eigenvectors:
  0.000  0.000  1.000
  0.500  0.500  0.000
  0.500  0.500  0.000
    occupations:
  0.903 -0.000  0.000
 -0.000  0.901 -0.001
  0.000 -0.001  0.901
   spin  2
    eigenvalues: 
  0.900  0.902  0.903
    eigenvectors:
  0.000  0.000  1.000
  0.500  0.500  0.000
  0.500  0.500  0.000
    occupations:
  0.903 -0.000  0.000
 -0.000  0.901 -0.001
  0.000 -0.001  0.901
atomic mag. moment =    -0.000000
atom   29   Tr[ns(na)] (up, down, total) =   2.70502  2.70502  5.41003
   spin  1
    eigenvalues: 
  0.900  0.902  0.903
    eigenvectors:
  0.000  0.000  1.000
  0.501  0.499  0.000
  0.499  0.501  0.000
    occupations:
  0.903 -0.000 -0.000
 -0.000  0.901  0.001
 -0.000  0.001  0.901
   spin  2
    eigenvalues: 
  0.900  0.902  0.903
    eigenvectors:
  0.000  0.000  1.000
  0.501  0.499  0.000
  0.499  0.501  0.000
    occupations:
  0.903 -0.000 -0.000
 -0.000  0.901  0.001
 -0.000  0.001  0.901
atomic mag. moment =    -0.000000
atom   30   Tr[ns(na)] (up, down, total) =   2.70506  2.70506  5.41012
   spin  1
    eigenvalues: 
  0.900  0.902  0.903
    eigenvectors:
  0.000  0.000  1.000
  0.500  0.500  0.000
  0.500  0.500  0.000
    occupations:
  0.903 -0.000 -0.000
 -0.000  0.901  0.001
 -0.000  0.001  0.901
   spin  2
    eigenvalues: 
  0.900  0.902  0.903
    eigenvectors:
  0.000  0.000  1.000
  0.500  0.500  0.000
  0.500  0.500  0.000
    occupations:
  0.903 -0.000 -0.000
 -0.000  0.901  0.001
 -0.000  0.001  0.901
atomic mag. moment =    -0.000000
atom   31   Tr[ns(na)] (up, down, total) =   2.70502  2.70502  5.41004
   spin  1
    eigenvalues: 
  0.900  0.902  0.903
    eigenvectors:
  0.000  0.000  1.000
  0.500  0.500  0.000
  0.500  0.500  0.000
    occupations:
  0.903 -0.000  0.000
 -0.000  0.901 -0.001
  0.000 -0.001  0.901
   spin  2
    eigenvalues: 
  0.900  0.902  0.903
    eigenvectors:
  0.000  0.000  1.000
  0.500  0.500  0.000
  0.500  0.500  0.000
    occupations:
  0.903 -0.000  0.000
 -0.000  0.901 -0.001
  0.000 -0.001  0.901
atomic mag. moment =    -0.000000
atom   32   Tr[ns(na)] (up, down, total) =   2.70520  2.70520  5.41040
   spin  1
    eigenvalues: 
  0.900  0.902  0.903
    eigenvectors:
  0.000  0.000  1.000
  0.500  0.500  0.000
  0.500  0.500  0.000
    occupations:
  0.903  0.000 -0.000
  0.000  0.901 -0.001
 -0.000 -0.001  0.901
   spin  2
    eigenvalues: 
  0.900  0.902  0.903
    eigenvectors:
  0.000  0.000  1.000
  0.500  0.500  0.000
  0.500  0.500  0.000
    occupations:
  0.903  0.000 -0.000
  0.000  0.901 -0.001
 -0.000 -0.001  0.901
atomic mag. moment =    -0.000000
atom   33   Tr[ns(na)] (up, down, total) =   2.70514  2.70514  5.41027
   spin  1
    eigenvalues: 
  0.900  0.902  0.903
    eigenvectors:
  0.000  0.000  1.000
  0.500  0.500  0.000
  0.500  0.500  0.000
    occupations:
  0.903 -0.000 -0.000
 -0.000  0.901  0.001
 -0.000  0.001  0.901
   spin  2
    eigenvalues: 
  0.900  0.902  0.903
    eigenvectors:
  0.000  0.000  1.000
  0.500  0.500  0.000
  0.500  0.500  0.000
    occupations:
  0.903 -0.000 -0.000
 -0.000  0.901  0.001
 -0.000  0.001  0.901
atomic mag. moment =     0.000000
atom   34   Tr[ns(na)] (up, down, total) =   2.70521  2.70521  5.41041
   spin  1
    eigenvalues: 
  0.900  0.902  0.903
    eigenvectors:
  0.000  0.000  1.000
  0.502  0.498  0.000
  0.498  0.502  0.000
    occupations:
  0.903 -0.000 -0.000
 -0.000  0.901  0.001
 -0.000  0.001  0.901
   spin  2
    eigenvalues: 
  0.900  0.902  0.903
    eigenvectors:
  0.000  0.000  1.000
  0.502  0.498  0.000
  0.498  0.502  0.000
    occupations:
  0.903 -0.000 -0.000
 -0.000  0.901  0.001
 -0.000  0.001  0.901
atomic mag. moment =     0.000000
atom   35   Tr[ns(na)] (up, down, total) =   2.70520  2.70520  5.41040
   spin  1
    eigenvalues: 
  0.900  0.902  0.903
    eigenvectors:
  0.000  0.000  1.000
  0.500  0.500  0.000
  0.500  0.500  0.000
    occupations:
  0.903  0.000 -0.000
  0.000  0.901 -0.001
 -0.000 -0.001  0.901
   spin  2
    eigenvalues: 
  0.900  0.902  0.903
    eigenvectors:
  0.000  0.000  1.000
  0.500  0.500  0.000
  0.500  0.500  0.000
    occupations:
  0.903  0.000 -0.000
  0.000  0.901 -0.001
 -0.000 -0.001  0.901
atomic mag. moment =    -0.000000
atom   36   Tr[ns(na)] (up, down, total) =   2.70502  2.70502  5.41004
   spin  1
    eigenvalues: 
  0.900  0.902  0.903
    eigenvectors:
  0.000  0.000  1.000
  0.500  0.500  0.000
  0.500  0.500  0.000
    occupations:
  0.903 -0.000  0.000
 -0.000  0.901 -0.001
  0.000 -0.001  0.901
   spin  2
    eigenvalues: 
  0.900  0.902  0.903
    eigenvectors:
  0.000  0.000  1.000
  0.500  0.500  0.000
  0.500  0.500  0.000
    occupations:
  0.903 -0.000  0.000
 -0.000  0.901 -0.001
  0.000 -0.001  0.901
atomic mag. moment =    -0.000000
atom   37   Tr[ns(na)] (up, down, total) =   2.70502  2.70502  5.41003
   spin  1
    eigenvalues: 
  0.900  0.902  0.903
    eigenvectors:
  0.000  0.000  1.000
  0.499  0.501  0.000
  0.501  0.499  0.000
    occupations:
  0.903 -0.000 -0.000
 -0.000  0.901  0.001
 -0.000  0.001  0.901
   spin  2
    eigenvalues: 
  0.900  0.902  0.903
    eigenvectors:
  0.000  0.000  1.000
  0.499  0.501  0.000
  0.501  0.499  0.000
    occupations:
  0.903 -0.000 -0.000
 -0.000  0.901  0.001
 -0.000  0.001  0.901
atomic mag. moment =    -0.000000
atom   38   Tr[ns(na)] (up, down, total) =   2.70506  2.70506  5.41012
   spin  1
    eigenvalues: 
  0.900  0.902  0.903
    eigenvectors:
  0.000  0.000  1.000
  0.500  0.500  0.000
  0.500  0.500  0.000
    occupations:
  0.903 -0.000 -0.000
 -0.000  0.901  0.001
 -0.000  0.001  0.901
   spin  2
    eigenvalues: 
  0.900  0.902  0.903
    eigenvectors:
  0.000  0.000  1.000
  0.500  0.500  0.000
  0.500  0.500  0.000
    occupations:
  0.903 -0.000 -0.000
 -0.000  0.901  0.001
 -0.000  0.001  0.901
atomic mag. moment =    -0.000000
atom   39   Tr[ns(na)] (up, down, total) =   2.70520  2.70520  5.41040
   spin  1
    eigenvalues: 
  0.900  0.902  0.903
    eigenvectors:
  0.000  0.000  1.000
  0.500  0.500  0.000
  0.500  0.500  0.000
    occupations:
  0.903 -0.000  0.000
 -0.000  0.901 -0.001
  0.000 -0.001  0.901
   spin  2
    eigenvalues: 
  0.900  0.902  0.903
    eigenvectors:
  0.000  0.000  1.000
  0.500  0.500  0.000
  0.500  0.500  0.000
    occupations:
  0.903 -0.000  0.000
 -0.000  0.901 -0.001
  0.000 -0.001  0.901
atomic mag. moment =    -0.000000
atom   40   Tr[ns(na)] (up, down, total) =   2.70502  2.70502  5.41004
   spin  1
    eigenvalues: 
  0.900  0.902  0.903
    eigenvectors:
  0.000  0.000  1.000
  0.500  0.500  0.000
  0.500  0.500  0.000
    occupations:
  0.903  0.000 -0.000
  0.000  0.901 -0.001
 -0.000 -0.001  0.901
   spin  2
    eigenvalues: 
  0.900  0.902  0.903
    eigenvectors:
  0.000  0.000  1.000
  0.500  0.500  0.000
  0.500  0.500  0.000
    occupations:
  0.903  0.000 -0.000
  0.000  0.901 -0.001
 -0.000 -0.001  0.901
atomic mag. moment =    -0.000000
atom   41   Tr[ns(na)] (up, down, total) =   2.70529  2.70529  5.41059
   spin  1
    eigenvalues: 
  0.900  0.902  0.903
    eigenvectors:
  0.000  0.000  1.000
  0.500  0.500  0.000
  0.500  0.500  0.000
    occupations:
  0.903 -0.000 -0.000
 -0.000  0.901  0.001
 -0.000  0.001  0.901
   spin  2
    eigenvalues: 
  0.900  0.902  0.903
    eigenvectors:
  0.000  0.000  1.000
  0.500  0.500  0.000
  0.500  0.500  0.000
    occupations:
  0.903 -0.000 -0.000
 -0.000  0.901  0.001
 -0.000  0.001  0.901
atomic mag. moment =     0.000000
atom   42   Tr[ns(na)] (up, down, total) =   2.70482  2.70482  5.40964
   spin  1
    eigenvalues: 
  0.900  0.902  0.903
    eigenvectors:
  0.000  0.000  1.000
  0.500  0.500  0.000
  0.500  0.500  0.000
    occupations:
  0.903 -0.000 -0.000
 -0.000  0.901  0.001
 -0.000  0.001  0.901
   spin  2
    eigenvalues: 
  0.900  0.902  0.903
    eigenvectors:
  0.000  0.000  1.000
  0.500  0.500  0.000
  0.500  0.500  0.000
    occupations:
  0.903 -0.000 -0.000
 -0.000  0.901  0.001
 -0.000  0.001  0.901
atomic mag. moment =     0.000000
atom   43   Tr[ns(na)] (up, down, total) =   2.70517  2.70517  5.41035
   spin  1
    eigenvalues: 
  0.900  0.902  0.903
    eigenvectors:
  0.000  0.000  1.000
  0.500  0.500  0.000
  0.500  0.500  0.000
    occupations:
  0.903 -0.000  0.000
 -0.000  0.901 -0.001
  0.000 -0.001  0.901
   spin  2
    eigenvalues: 
  0.900  0.902  0.903
    eigenvectors:
  0.000  0.000  1.000
  0.500  0.500  0.000
  0.500  0.500  0.000
    occupations:
  0.903 -0.000  0.000
 -0.000  0.901 -0.001
  0.000 -0.001  0.901
atomic mag. moment =    -0.000000
atom   44   Tr[ns(na)] (up, down, total) =   2.70517  2.70517  5.41035
   spin  1
    eigenvalues: 
  0.900  0.902  0.903
    eigenvectors:
  0.000  0.000  1.000
  0.500  0.500  0.000
  0.500  0.500  0.000
    occupations:
  0.903  0.000 -0.000
  0.000  0.901 -0.001
 -0.000 -0.001  0.901
   spin  2
    eigenvalues: 
  0.900  0.902  0.903
    eigenvectors:
  0.000  0.000  1.000
  0.500  0.500  0.000
  0.500  0.500  0.000
    occupations:
  0.903  0.000 -0.000
  0.000  0.901 -0.001
 -0.000 -0.001  0.901
atomic mag. moment =    -0.000000
atom   45   Tr[ns(na)] (up, down, total) =   2.70516  2.70516  5.41031
   spin  1
    eigenvalues: 
  0.900  0.902  0.903
    eigenvectors:
  0.000  0.000  1.000
  0.500  0.500  0.000
  0.500  0.500  0.000
    occupations:
  0.903 -0.000 -0.000
 -0.000  0.901  0.001
[...]
    -6.0560  -6.0214  -5.8431  -5.8265  -5.8021  -5.7876  -5.7875  -5.7782
    -5.6523  -5.5990  -5.4970  -5.4911  -5.4910  -5.4835  -5.3078  -5.3040
     4.7109   4.7430   5.1360   5.1361   5.1384   5.1398   5.1418   5.2481
     5.2671   5.2714   5.4729   5.4862   5.5057   5.5292   5.5297   5.5989
     5.6096   5.6208   5.6213   5.9471   5.9507   5.9852   6.1728   6.1930
     6.3625   6.3842   6.3871   6.5203   6.5534   6.6271   6.6309   6.7745
     6.8002   6.9929   6.9939   7.0282   7.0885   7.3964   7.3982   7.4970
     7.5064   7.5100   7.5958   7.7172   7.8393   7.8673   7.8834   7.9285
     7.9442   7.9443   7.9618   8.0284   8.0594   8.0624   8.0681   8.0755
     8.0760   8.1286   8.2615   8.2631   8.4343   8.5835   8.5840   8.6516
     8.6523   8.6529   8.6573   8.7383   8.9394   8.9753   8.9777   9.0985
     9.1570   9.3733   9.3738   9.3809   9.4095   9.4595   9.4799   9.4827
     9.5396   9.5465   9.5500   9.5618   9.5635   9.5905   9.7642   9.7847
     9.8262   9.8264   9.8903  10.0587  10.1483  10.1505  10.2143  10.5571
    10.5795  10.6590  11.0403  11.0711  11.0712  11.0990  11.3692  11.3696
    12.0877  12.0879  12.2330  12.2331  12.4688  12.8268  12.8838  12.9168
    13.2387  13.5675  13.7033  13.7275  13.8258  13.9304  13.9309  14.1130
    14.1221  14.1221  14.1362  14.1436  14.1554  14.1555  14.3995  14.4894
    14.4898  14.5769  14.5853  14.5855  15.0025  15.0367  15.0369  15.8021
    15.8663  15.8667  16.0315  16.0906  16.1110  16.1675  16.2038  16.2038
    16.2223  16.3121  16.3122  16.4306  16.6791  16.7687  16.7687  16.8947
    16.8948  16.9356  16.9360  17.0767  17.2580  17.2647  17.2649  17.2697
    17.5542  17.5642  17.6004  17.7416  17.9183  17.9650  18.1175  18.1180
    18.1851  18.2997  19.0216  19.3527  19.3527  19.3575  19.8196  19.8198
    19.9503  20.1763  20.1774  21.0798  21.4879  21.4893  21.8641  22.1401
    22.2676  22.3947  22.6580  22.6589  22.9097  22.9121  22.9129  22.9214
    23.0699  23.0756  23.1890  23.1898  23.2792  23.3268  23.8287  24.2878
    24.2889  24.4995  24.5004  24.5263  24.5269  24.7512  24.9696  25.0431
    25.2179  25.2895  25.2896  25.4157  25.5534  25.7241  25.7249  25.9651
    25.9667  26.0336  26.0348  26.2122  26.2687  26.3868  26.4042  26.4119
    27.2507  27.2514  27.7380  28.0181  28.0186  28.0386  28.0580  28.2017
    28.2027  28.2237  28.3256  28.3747  28.5095  28.5239  28.5240  28.5377
    28.7414  28.8317  28.8550  28.8556  28.9482  29.0402  29.0408  29.1508
    29.3433  29.5359  30.2752  30.3727  30.3734  30.5678  30.5683  30.5732
    30.5736  30.6061  30.6065  31.0145  31.4033  31.4421  31.7234  31.7917
    31.9450  31.9504  31.9506  32.0046  32.0319  32.0325  32.1309  32.3265
    32.4073  32.4447  32.5037  32.6196  32.6500  32.6502  32.8177  33.2679
    33.3701  33.4474  33.4487  33.7367  33.7371  33.7428  33.7433  33.9997
    34.1022  34.1027  34.2061  34.2903  34.4411  34.4414  34.5831  35.0857
    35.1151  35.1159  35.1251  35.1654  35.2418  35.2429  35.4250  35.5345
    35.6544  35.6548  35.7687  35.8335  35.8505  35.8599  35.9387  36.1606
    36.2574  36.2832  36.2848  36.3198  36.6732  36.6789  36.6789  36.7752
    36.7754  36.8342  37.1574  37.2130  37.2137  37.7600  38.2653  38.2658
    38.3022  38.3190  38.3191  38.3203  38.4467  38.5204  38.5209  38.7742
    38.8049  38.8975  38.8978  38.9305  39.2772  39.3922  39.3932  39.3944
    39.4633  39.7884  39.8047  39.9291  39.9297  40.0315  40.0319  40.2261
    40.3859  40.5563  40.5571  40.7146  41.0814  41.0819  41.1183  41.1996
    41.2001  41.2063  41.2069  41.3060  41.4733  41.4894  41.4895  41.5576
    41.6231  42.2291  42.2957  42.3371  42.3635  42.4366  42.7351  42.8198
    42.8209  42.8506  42.8682  42.9223  42.9227  43.0335  43.0346  43.1808
    43.2250  43.2260  43.3587  43.4421  43.4639  43.5960  43.6237  43.6639
    43.6640  43.7748  43.7757  43.8924  43.9738  43.9745  44.0085  44.0138
    44.1279  44.1289  44.2414  44.2666  44.4531  44.5322  44.5326  44.7689
    44.7691  44.8378  44.8379  44.8933  44.9149  44.9216  44.9259  44.9496
    45.0451  45.0456  45.3125  45.3133  45.4314  45.4490  45.4866  45.6973
    45.7178  45.7438  45.8564  45.8754  45.9538  45.9539  45.9548  45.9856
    46.0163  46.1288  46.1298  46.2065  46.2394  46.2624  46.2632  46.4036
    46.4420  46.5212  46.5222  46.5496  46.6416  46.6418  46.7665  46.7667
    46.8645  46.8653  46.9357  47.2069  47.2118  47.2120  47.2202  47.2533
    47.2567  47.3923  47.4064  47.4068  47.4891  47.5612  47.7690  47.8386
    47.9047  47.9056  47.9111  47.9352  47.9357  47.9895  48.2936  48.3418
    48.3427  48.6753  48.8290  48.8351  48.8354  48.8533  48.9887  48.9890
    49.3953  49.3957  49.4214  49.5234  49.5490  49.6460  49.7700  49.8110
    49.8228  49.8234  49.9594  50.0186  50.0189  50.2128  50.2200  50.2460
    50.2463  50.2574  50.2581  50.3825  50.3829  50.4393  50.4398  50.6934
    50.9219  50.9220  50.9290  50.9295  51.0139  51.0707  51.3927  51.5548
    51.5552  51.6003  51.6403  51.7984  51.9190  51.9963  51.9967  52.0696
    52.0699  52.1494  52.1606  52.2146  52.2154  52.2402  52.4111  52.5132

          k = 0.2500-0.2500 0.4533 ( 15434 PWs)   bands (ev):

   -49.3327 -49.3305 -49.3303 -49.3295 -49.3281 -49.3273 -49.3269 -49.3246
   -49.2479 -49.2470 -49.2469 -49.2464 -49.2460 -49.2454 -49.2454 -49.2442
   -23.7681 -23.7678 -23.7649 -23.7634 -23.7631 -23.7630 -23.7589 -23.7574
   -23.6326 -23.6283 -23.6216 -23.6194 -23.6191 -23.6171 -23.6070 -23.6064
   -23.5344 -23.5330 -23.5281 -23.5276 -23.5273 -23.5268 -23.5213 -23.5205
   -23.3957 -23.3952 -23.3834 -23.3821 -23.3816 -23.3802 -23.3707 -23.3679
   -23.2476 -23.2470 -23.2461 -23.2461 -23.2457 -23.2455 -23.2445 -23.2437
   -23.0358 -23.0299 -23.0299 -23.0280 -23.0250 -23.0222 -23.0222 -23.0174
    -6.9614  -6.6808  -6.6653  -6.6644  -6.5122  -6.4332  -6.4293  -6.3246
    -6.3086  -6.2967  -6.2926  -6.2924  -6.2117  -6.2077  -6.1066  -6.1033
    -5.9931  -5.9890  -5.9558  -5.9520  -5.8493  -5.8121  -5.8119  -5.8041
    -5.7051  -5.6547  -5.6228  -5.6226  -5.6149  -5.5956  -5.4576  -5.4541
     4.9807   5.0362   5.1860   5.1898   5.3609   5.3609   5.3675   5.4331
     5.4334   5.4334   5.4342   5.4865   5.7259   5.7297   5.8002   5.9082
     5.9099   6.0136   6.0488   6.0497   6.0972   6.1011   6.1209   6.2507
     6.2569   6.2792   6.2824   6.4933   6.4956   6.6225   6.7670   6.7909
     6.8634   6.8866   6.9949   6.9955   6.9988   6.9997   7.0392   7.1801
     7.2239   7.2761   7.4430   7.5557   7.6321   7.6341   7.6932   7.7774
     7.7794   8.0073   8.0088   8.0821   8.1209   8.2628   8.3361   8.3378
     8.3631   8.4044   8.4069   8.4995   8.5758   8.5781   8.5958   8.6094
     8.6110   8.6281   8.6284   8.6989   8.7198   8.8082   8.8284   8.8305
     8.9147   9.0239   9.0624   9.0627   9.1218   9.1237   9.2053   9.2628
     9.2909   9.3925   9.4446   9.4459   9.4557   9.6300   9.6593   9.6908
     9.6921   9.7434   9.8951   9.8971   9.9705  10.1651  10.1670  10.5915
    11.2903  11.3365  11.6764  11.6765  11.6820  11.7285  11.9037  11.9040
    12.1651  12.1652  12.5609  12.5610  12.6517  12.6954  12.7037  12.8969
    13.2551  13.4522  13.5221  13.5223  13.6823  13.8168  13.8187  13.8289
    13.8418  14.0533  14.0534  14.1487  14.1488  14.2314  14.3539  14.3541
    14.5139  14.5582  14.5585  14.7179  14.7373  14.8493  14.8677  14.9585
    14.9662  14.9663  15.0137  15.0152  15.0154  15.3020  15.3020  15.6797
    15.9838  15.9842  16.4010  16.4655  16.4655  16.6302  16.7014  16.7703
    16.7703  16.9508  16.9509  16.9574  17.1338  17.4477  17.4510  17.4751
    17.4882  17.4885  17.7308  17.7405  17.7872  17.9589  18.2602  18.4799
    18.4804  18.7976  18.8932  18.8934  19.0468  19.3735  19.6625  19.6627
    19.9817  20.6004  20.6016  21.3997  21.7919  21.9483  21.9498  22.1740
    22.2296  22.2307  22.3462  22.8826  22.8959  23.1129  23.3363  23.3373
    23.3570  23.5336  23.7014  23.8425  23.8435  23.9844  24.3955  24.5424
    24.5430  24.8269  24.8273  24.9028  24.9033  24.9162  25.3056  25.5701
    25.5744  25.6271  25.6274  25.6954  25.7634  26.0197  26.0208  26.1657
    26.3480  26.3490  26.5162  26.5173  26.6506  26.6661  26.7494  26.9098
    27.4269  27.5167  27.5173  27.6621  27.7423  27.7428  27.9838  28.0038
    28.0926  28.0934  28.4763  28.6076  28.6081  28.6195  28.6379  28.7740
    28.9709  28.9827  29.0249  29.0966  29.0968  29.1041  29.3343  29.4990
    29.4993  29.5467  29.5476  29.8663  29.8776  30.1005  30.1009  30.1646
    30.1650  30.2260  30.8392  30.8394  30.9345  30.9347  31.3083  31.6402
    31.7657  31.7734  31.7737  31.8210  32.0309  32.0312  32.0659  32.0661
    32.4287  32.5972  32.6548  32.9056  32.9567  33.0355  33.0357  33.0564
    33.0567  33.0701  33.2203  33.5725  33.6585  33.7493  33.7496  34.0836
    34.0840  34.1549  34.1553  34.5818  34.5823  34.5923  34.5927  34.6026
    34.8937  35.0782  35.2662  35.3857  35.3861  35.4746  35.5867  35.7439
    35.8249  35.8258  35.9423  35.9890  35.9906  35.9908  36.0485  36.0494
    36.1380  36.1943  36.2485  36.4737  36.6066  36.6914  36.6916  36.7192
    36.8809  37.1049  37.1461  37.7586  37.8120  37.8121  37.8290  37.8956
    37.8957  38.0047  38.0051  38.0516  38.2054  38.4717  38.4721  38.6504
    38.7053  38.7057  38.8856  38.9623  39.0560  39.1810  39.1813  39.2727
    39.2734  39.2828  39.3503  39.6128  39.7146  40.1638  40.2520  40.3288
    40.3289  40.5087  40.6052  40.7313  40.8629  40.8636  40.8942  41.0766
    41.1397  41.1398  41.1645  41.1858  41.1861  41.2950  41.3990  41.3992
    41.6301  41.7097  41.7102  41.8703  42.0108  42.0428  42.2412  42.2413
    42.4679  42.4685  42.6193  42.6194  42.6336  42.6633  42.8480  42.8483
    42.9552  43.0148  43.0896  43.2189  43.2196  43.2216  43.2354  43.5433
    43.6105  43.6461  43.7337  43.7381  43.7383  43.8445  43.8450  43.9711
    43.9760  44.1349  44.1352  44.1534  44.1571  44.1573  44.2898  44.2899
    44.3203  44.5821  44.5822  44.6842  44.7089  44.8314  45.0779  45.1239
    45.1542  45.3529  45.3531  45.4602  45.5554  45.6181  45.6506  45.7597
    45.9803  46.0071  46.0074  46.2933  46.3116  46.4428  46.4428  46.4475
    46.4494  46.4501  46.6632  46.6638  46.7053  46.7057  46.7226  46.8300
    46.8306  46.8830  46.8904  46.8989  47.0101  47.0108  47.0136  47.2033
    47.2290  47.3592  47.3754  47.3757  47.4733  47.4738  47.4757  47.5244
    47.5309  47.6443  47.7075  47.7611  47.8111  47.8117  47.8819  47.8819
    47.8982  47.9753  48.0099  48.0494  48.1203  48.1205  48.1458  48.2841
    48.3119  48.3186  48.3190  48.4915  48.4919  48.5042  48.7806  48.7814
    48.8091  48.9222  48.9231  48.9238  49.1749  49.1815  49.1821  49.2855
    49.4002  49.5598  49.5599  49.7594  50.0482  50.0877  50.0942  50.0949
    50.1017  50.1023  50.4845  50.6546  50.6550  50.7978  50.7997  50.7999
    50.8597  51.0230  51.0236  51.0400  51.1683  51.1687  51.4509  51.5987
    51.7500  51.7925  51.7927  51.8093  51.8528  51.8554  51.8561  51.9799
    52.0781  52.0834  52.1590  52.2210  52.5397  52.5403  52.5564  52.5564

          k = 0.2500-0.2500-0.9066 ( 15408 PWs)   bands (ev):

   -49.2908 -49.2907 -49.2892 -49.2890 -49.2889 -49.2888 -49.2883 -49.2881
   -49.2873 -49.2871 -49.2868 -49.2864 -49.2863 -49.2859 -49.2848 -49.2836
   -23.5830 -23.5826 -23.5803 -23.5801 -23.5800 -23.5798 -23.5789 -23.5789
   -23.5786 -23.5785 -23.5774 -23.5773 -23.5759 -23.5759 -23.5758 -23.5748
   -23.4059 -23.4059 -23.4027 -23.4026 -23.4008 -23.4008 -23.4007 -23.4001
   -23.3970 -23.3968 -23.3941 -23.3940 -23.3940 -23.3938 -23.3937 -23.3931
   -23.3201 -23.3201 -23.3197 -23.3195 -23.3147 -23.3145 -23.3140 -23.3139
   -23.3139 -23.3133 -23.3133 -23.3125 -23.3090 -23.3090 -23.3075 -23.3075
    -6.5857  -6.5834  -6.4366  -6.4329  -6.4329  -6.4329  -6.3552  -6.3524
    -6.2723  -6.2711  -6.2461  -6.2418  -6.2417  -6.2417  -6.1241  -6.1224
    -5.8449  -5.8397  -5.8323  -5.8323  -5.8140  -5.8120  -5.8120  -5.8119
    -5.8105  -5.8048  -5.8047  -5.8046  -5.7978  -5.7962  -5.7888  -5.7887
     5.4456   5.4461   5.4677   5.4677   5.4686   5.4741   5.5349   5.5350
     5.5353   5.5354   5.5383   5.5383   5.6967   5.7010   5.7575   5.7612
     6.1469   6.1476   6.1572   6.1577   6.4385   6.4385   6.4389   6.4419
     6.5169   6.5178   6.5924   6.5943   6.6928   6.6930   6.7059   6.7062
     6.7073   6.7098   7.1561   7.1562   7.1583   7.1589   7.3367   7.3374
     7.3374   7.3399   7.3489   7.3490   7.4623   7.4627   7.5831   7.5838
     7.5841   7.5849   7.6983   7.7010   7.8351   7.8378   7.8492   7.8538
     8.3320   8.3320   8.3346   8.3351   8.4371   8.4379   8.4824   8.4830
     8.5503   8.5511   8.5975   8.5976   8.5983   8.5991   8.6022   8.6027
     8.7064   8.7064   8.8749   8.8753   8.8764   8.8765   9.1343   9.1350
     9.3276   9.3306   9.5563   9.5587   9.6395   9.6396   9.6402   9.6412
     9.8701   9.8702  10.1174  10.1174  10.1174  10.1210  10.3647  10.3663
    12.5147  12.5147  12.5281  12.5282  12.5283  12.5285  12.7035  12.7039
    12.7930  12.7931  12.7931  12.7932  12.7938  12.7939  12.8650  12.8652
    12.9289  12.9290  13.0348  13.0348  13.2304  13.2305  13.2305  13.2307
    13.5334  13.5335  13.5953  13.5954  13.7594  13.7594  13.8065  13.8065
    13.8066  13.8069  14.2527  14.2528  14.3284  14.3284  14.3286  14.3288
    14.5206  14.5209  14.8291  14.8291  14.8292  14.8296  15.2939  15.2941
    16.0380  16.0389  16.0389  16.0391  16.5926  16.5927  16.7038  16.7040
    16.7412  16.7412  16.7412  16.7414  17.3731  17.3732  17.4525  17.4527
    17.4978  17.4980  17.9927  17.9927  18.2199  18.2200  18.2201  18.2203
    18.5466  18.5467  19.1381  19.1383  19.1384  19.1387  19.6142  19.6143
    20.4027  20.4032  21.4496  21.4507  21.4513  21.4516  21.9733  21.9740
    22.6411  22.6420  22.7891  22.7905  22.7912  22.7914  23.7396  23.7405
    24.1159  24.1164  24.1584  24.1592  24.7074  24.7081  24.7789  24.7796
    24.7800  24.7804  25.1763  25.1768  25.1773  25.1774  25.7902  25.7908
    26.0498  26.0503  26.2756  26.2760  26.4827  26.4836  26.4837  26.4838
    27.1314  27.1314  27.2291  27.2294  27.3090  27.3093  27.3101  27.3104
    27.5027  27.5027  27.5033  27.5036  27.6940  27.6942  27.6949  27.6952
    27.8595  27.8596  27.8655  27.8660  27.9057  27.9058  28.3572  28.3576
    28.4260  28.4264  28.4265  28.4270  28.8428  28.8435  29.2881  29.2885
    29.6684  29.6685  30.0978  30.0978  30.0980  30.0980  30.1296  30.1297
    30.2467  30.2470  30.4217  30.4219  30.8245  30.8251  31.2937  31.2939
    31.2942  31.2942  31.5173  31.5178  31.5180  31.5181  32.4002  32.4004
    32.4004  32.4006  32.4276  32.4279  32.7185  32.7189  32.8274  32.8276
    33.4954  33.4963  33.8889  33.8890  34.0476  34.0481  34.0482  34.0483
    34.6873  34.6878  35.0295  35.0297  35.0298  35.0300  35.2189  35.2191
    35.2339  35.2344  35.2347  35.2350  35.4791  35.4795  35.4796  35.4798
    35.4840  35.4842  35.9588  35.9591  36.2092  36.2094  36.3121  36.3126
    36.5618  36.5621  36.5626  36.5628  36.8241  36.8244  36.8769  36.8773
    37.3335  37.3338  37.3958  37.3968  37.6832  37.6836  37.7390  37.7391
    37.7617  37.7621  37.7623  37.7624  37.9146  37.9147  37.9149  37.9150
    37.9966  37.9971  38.5126  38.5128  38.8017  38.8017  38.8017  38.8021
    38.9285  38.9290  39.3540  39.3541  39.3544  39.3545  39.8686  39.8692
    40.2273  40.2280  40.2895  40.2896  40.4461  40.4462  40.4463  40.4466
    40.7390  40.7392  41.4100  41.4100  41.4106  41.4108  41.5570  41.5570
    41.5590  41.5592  41.8633  41.8646  41.8648  41.8649  42.1765  42.1765
    42.2122  42.2125  42.2126  42.2127  42.2393  42.2394  42.3412  42.3414
    42.6058  42.6062  42.6064  42.6065  42.8530  42.8533  43.1732  43.1734
    43.5636  43.5638  43.7713  43.7715  43.8158  43.8158  43.8161  43.8164
    44.0072  44.0074  44.5890  44.5890  44.6742  44.6743  44.6745  44.6745
    44.7879  44.7879  44.9708  44.9709  44.9714  44.9716  45.2830  45.2831
    45.6120  45.6121  45.6212  45.6218  45.6661  45.6663  45.8514  45.8518
    45.8518  45.8520  46.1627  46.1629  46.2697  46.2699  46.2702  46.2704
    46.4979  46.4979  46.7305  46.7310  46.7709  46.7714  46.8412  46.8415
    46.8417  46.8419  46.9010  46.9010  46.9108  46.9117  46.9120  46.9120
    47.0600  47.0602  47.3951  47.3958  47.4491  47.4493  47.4862  47.4864
    47.5622  47.5630  47.5631  47.5632  47.7204  47.7204  47.8536  47.8546
    47.8548  47.8551  48.0619  48.0620  48.0622  48.0624  48.1230  48.1233
    48.3234  48.3235  48.3239  48.3240  48.4787  48.4796  48.8755  48.8758
    48.9341  48.9343  48.9346  48.9348  49.4592  49.4597  49.7946  49.7948
    49.7949  49.7950  49.9267  49.9268  50.0030  50.0035  50.1198  50.1202
    50.1206  50.1208  50.4442  50.4442  50.5559  50.5561  50.5769  50.5771
    50.7639  50.7639  50.9148  50.9149  50.9153  50.9154  51.2852  51.2855
    51.4068  51.4077  51.4079  51.4079  51.7600  51.7608  51.8335  51.8336
    52.2033  52.2035  52.2039  52.2039  52.3711  52.3715  52.6439  52.6440

     the Fermi energy is    12.9477 ev

!    total energy              =   -3262.57435828 Ry
     Harris-Foulkes estimate   =   -3262.57435920 Ry
     estimated scf accuracy    <       0.00000094 Ry

     The total energy is the sum of the following terms:

     one-electron contribution =    -920.60474454 Ry
     hartree contribution      =     690.17264893 Ry
     xc contribution           =    -539.17427457 Ry
     ewald contribution        =   -2492.99511507 Ry
     Hubbard energy            =       0.02781485 Ry
     smearing contrib. (-TS)   =      -0.00068788 Ry

     total magnetization       =    -0.00 Bohr mag/cell
     absolute magnetization    =     0.00 Bohr mag/cell

     convergence has been achieved in   9 iterations

     Writing output data file pwscf.save

     init_run     :     52.91s CPU     79.43s WALL (       1 calls)
     electrons    :  12828.98s CPU  15649.21s WALL (       1 calls)

     Called by init_run:
     wfcinit      :     38.00s CPU     62.51s WALL (       1 calls)
     potinit      :      1.35s CPU      2.35s WALL (       1 calls)

     Called by electrons:
     c_bands      :  11613.29s CPU  13896.72s WALL (       9 calls)
     sum_band     :    932.66s CPU   1454.97s WALL (       9 calls)
     v_of_rho     :      6.90s CPU     10.13s WALL (      10 calls)
     newd         :    284.73s CPU    292.48s WALL (      10 calls)
     mix_rho      :      1.09s CPU      1.76s WALL (       9 calls)

     Called by c_bands:
     init_us_2    :      9.34s CPU      9.74s WALL (     798 calls)
     cegterg      :  11591.70s CPU  13777.49s WALL (     378 calls)

     Called by *egterg:
     h_psi        :   3316.71s CPU   4880.01s WALL (    1010 calls)
     s_psi        :    287.19s CPU    288.30s WALL (    1052 calls)
     g_psi        :      3.61s CPU      3.61s WALL (     632 calls)
     cdiaghg      :   6150.25s CPU   6249.77s WALL (     968 calls)

     Called by h_psi:
     add_vuspsi   :    283.20s CPU    284.04s WALL (    1010 calls)
     vhpsi        :    708.92s CPU    889.89s WALL (    1010 calls)

     General routines
     calbec       :    949.71s CPU   1290.09s WALL (    2818 calls)
     fft          :     13.77s CPU     25.20s WALL (     298 calls)
     ffts         :      0.19s CPU      0.36s WALL (      38 calls)
     fftw         :   2135.86s CPU   3782.12s WALL ( 1234494 calls)
     interpolate  :      1.29s CPU      2.28s WALL (      38 calls)
     davcio       :      1.60s CPU    199.14s WALL (    2352 calls)

     Parallel routines
     fft_scatter  :   1616.36s CPU   3263.44s WALL ( 1234830 calls)
     Hubbard U routines
     new_ns       :    113.83s CPU    269.13s WALL (       9 calls)
     vhpsi        :    708.92s CPU    889.89s WALL (    1010 calls)

     PWSCF        :     3h34m CPU        4h22m WALL


   This run was terminated on:   7: 4:17  11Feb2014            

=------------------------------------------------------------------------------=
   JOB DONE.
=------------------------------------------------------------------------------=
