
     Program PWSCF v.5.0.2 (svn rev. 9656) starts on 28Apr2014 at  2:53: 7 

     This program is part of the open-source Quantum ESPRESSO suite
     for quantum simulation of materials; please cite
         "P. Giannozzi et al., J. Phys.:Condens. Matter 21 395502 (2009);
          URL http://www.quantum-espresso.org", 
     in publications or presentations arising from this work. More details at
     http://www.quantum-espresso.org/quote.php

     Parallel version (MPI), running on    16 processors
     K-points division:     npool     =       4
     R & G space division:  proc/nbgrp/npool/nimage =       4

     Current dimensions of program PWSCF are:
     Max number of different atomic species (ntypx) = 10
     Max number of k-points (npk) =  40000
     Max angular momentum in pseudopotentials (lmaxx) =  3
     Reading input from pwscf.in
Warning: card &CELL ignored
Warning: card / ignored

     Subspace diagonalization in iterative solution of the eigenvalue problem:
     a serial algorithm will be used


     Parallelization info
     --------------------
     sticks:   dense  smooth     PW     G-vecs:    dense   smooth      PW
     Min        1491     475    132               353925    64028    9441
     Max        1492     476    134               353934    64061    9444
     Sum        5965    1901    531              1415713   256153   37769



     bravais-lattice index     =            0
     lattice parameter (alat)  =      12.2076  a.u.
     unit-cell volume          =    7496.5096 (a.u.)^3
     number of atoms/cell      =           31
     number of atomic types    =            3
     number of electrons       =       246.00
     number of Kohn-Sham states=          369
     kinetic-energy cutoff     =      40.0000  Ry
     charge density cutoff     =     500.0000  Ry
     convergence threshold     =      1.0E-06
     mixing beta               =       0.7000
     number of iterations used =            8  plain     mixing
     Exchange-correlation      = SLA  PW   PBE  PBE ( 1 4 3 4 0)
     EXX-fraction              =        0.00
     nstep                     =           50


     celldm(1)=  12.207631  celldm(2)=   0.000000  celldm(3)=   0.000000
     celldm(4)=   0.000000  celldm(5)=   0.000000  celldm(6)=   0.000000

     crystal axes: (cart. coord. in units of alat)
               a(1) = (   1.000000   0.000000   0.000000 )  
               a(2) = (   0.000000   1.004836   0.000000 )  
               a(3) = (   0.000000   0.000000   4.100811 )  

     reciprocal axes: (cart. coord. in units 2 pi/alat)
               b(1) = (  1.000000  0.000000  0.000000 )  
               b(2) = (  0.000000  0.995187  0.000000 )  
               b(3) = (  0.000000  0.000000  0.243854 )  


     PseudoPot. # 1 for O  read from file:
     /home/camp/zhonxu/pseudo/o_pbe_v1.01.uspp.F.UPF
     MD5 check sum: 2bcb18d16ea4b960afae9ec6d52f22d2
     Pseudo is Ultrasoft + core correction, Zval =  6.0
     Generated by new atomic code, or converted to UPF format
     Using radial grid of  737 points,  5 beta functions with: 
                l(1) =   0
                l(2) =   0
                l(3) =   1
                l(4) =   1
                l(5) =   2
     Q(r) pseudized with  8 coefficients,  rinner =    0.900   0.900   0.900
                                                       0.900   0.900

     PseudoPot. # 2 for Pt read from file:
     /home/camp/zhonxu/pseudo/pt_pbe_v1.uspp.F.UPF
     MD5 check sum: 4c71d6ad5ef119f1eb26a4d0b7884226
     Pseudo is Ultrasoft + core correction, Zval = 16.0
     Generated by new atomic code, or converted to UPF format
     Using radial grid of  985 points,  6 beta functions with: 
                l(1) =   0
                l(2) =   0
                l(3) =   1
                l(4) =   1
                l(5) =   2
                l(6) =   2
     Q(r) pseudized with  8 coefficients,  rinner =    1.300   1.300   1.300
                                                       1.300   1.300

     PseudoPot. # 3 for H  read from file:
     /home/camp/zhonxu/pseudo/h_pbe_v1.uspp.F.UPF
     MD5 check sum: 3408e3ff4ec8b0a4e358431e7e038a48
     Pseudo is Ultrasoft, Zval =  1.0
     Generated by new atomic code, or converted to UPF format
     Using radial grid of  615 points,  2 beta functions with: 
                l(1) =   0
                l(2) =   0
     Q(r) pseudized with  8 coefficients,  rinner =    0.700

     atomic species   valence    mass     pseudopotential
        O0             6.00    15.99940     O ( 1.00)
        Pt1           16.00   195.08000     Pt( 1.00)
        H2             1.00     1.00794     H ( 1.00)


     Simplified LDA+U calculation (l_max = 2) with parameters (eV):
     atomic species    L          U    alpha       J0     beta
        Pt1            2     7.0000   0.0000   0.0000   0.0000



     No symmetry found



   Cartesian axes

     site n.     atom                  positions (alat units)
         1           O0  tau(   1) = (   0.0000000   0.0000000   1.5489174  )
         2           O0  tau(   2) = (   0.0000000   0.5024180   1.6470088  )
         3           Pt1 tau(   3) = (   0.2500000   0.5024180   1.8504500  )
         4           Pt1 tau(   4) = (   0.0000000   0.0000000   1.8564782  )
         5           O0  tau(   5) = (   0.2500000   0.8139171   1.8182587  )
         6           O0  tau(   6) = (   0.2500000   0.1909188   1.8867012  )
         7           O0  tau(   7) = (   0.0000000   0.5024180   2.0373240  )
         8           O0  tau(   8) = (   0.0000000   0.0000000   2.1721997  )
         9           Pt1 tau(   9) = (   0.2500000   0.0000000   2.3623543  )
        10           Pt1 tau(  10) = (   0.0000000   0.5024180   2.3594017  )
        11           O0  tau(  11) = (   0.2500000   0.6933368   2.3215512  )
        12           O0  tau(  12) = (   0.2500000   0.3114991   2.4021322  )
        13           O0  tau(  13) = (   0.0000000   0.0000000   2.5481621  )
        14           O0  tau(  14) = (   0.5000000   0.0000000   1.5492455  )
        15           O0  tau(  15) = (   0.5000000   0.5024180   1.6439332  )
        16           Pt1 tau(  16) = (   0.7500000   0.5024180   1.8504910  )
        17           Pt1 tau(  17) = (   0.5000000   0.0000000   1.8565192  )
        18           O0  tau(  18) = (   0.7500000   0.8139171   1.8184227  )
        19           O0  tau(  19) = (   0.7500000   0.1909188   1.8866602  )
        20           O0  tau(  20) = (   0.5000000   0.5024180   2.0431061  )
        21           O0  tau(  21) = (   0.5000000   0.0000000   2.1716256  )
        22           Pt1 tau(  22) = (   0.7500000   0.0000000   2.3623953  )
        23           Pt1 tau(  23) = (   0.5000000   0.5024180   2.3697358  )
        24           O0  tau(  24) = (   0.7500000   0.6933368   2.3215102  )
        25           O0  tau(  25) = (   0.7500000   0.3114991   2.4021732  )
        26           O0  tau(  26) = (   0.5000000   0.0000000   2.5480390  )
        27           H2  tau(  27) = (   0.0001100   0.6425926   1.5814778  )
        28           H2  tau(  28) = (   0.5001800   0.6431151   1.5801656  )
        29           H2  tau(  29) = (   0.1426600   0.0364956   1.5073762  )
        30           H2  tau(  30) = (   0.6419200   0.0388771   1.5073762  )
        31           O0  tau(  31) = (   0.5000900   0.5753691   2.6428088  )

     number of k points=    10  Methfessel-Paxton smearing, width (Ry)=  0.0100
                       cart. coord. in units 2pi/alat
        k(    1) = (   0.0000000   0.0000000   0.0000000), wk =   0.1250000
        k(    2) = (   0.0000000   0.2487968   0.0000000), wk =   0.2500000
        k(    3) = (   0.0000000  -0.4975937   0.0000000), wk =   0.1250000
        k(    4) = (   0.2500000   0.0000000   0.0000000), wk =   0.2500000
        k(    5) = (   0.2500000   0.2487968   0.0000000), wk =   0.2500000
        k(    6) = (   0.2500000  -0.4975937   0.0000000), wk =   0.2500000
        k(    7) = (  -0.5000000   0.0000000   0.0000000), wk =   0.1250000
        k(    8) = (  -0.5000000   0.2487968   0.0000000), wk =   0.2500000
        k(    9) = (  -0.5000000  -0.4975937   0.0000000), wk =   0.1250000
        k(   10) = (  -0.2500000   0.2487968   0.0000000), wk =   0.2500000

     Dense  grid:  1415713 G-vectors     FFT dimensions: (  90,  90, 360)

     Smooth grid:   256153 G-vectors     FFT dimensions: (  50,  50, 216)

     Largest allocated arrays     est. size (Mb)     dimensions
        Kohn-Sham Wavefunctions        45.60 Mb     (   8098,  369)
        Atomic wavefunctions           21.75 Mb     (   8098,  176)
        NL pseudopotentials            49.30 Mb     (   8098,  399)
        Each V/rho on FFT grid         11.12 Mb     ( 729000)
        Each G-vector array             2.70 Mb     ( 353934)
        G-vector shells                 1.17 Mb     ( 153301)
     Largest temporary arrays     est. size (Mb)     dimensions
        Auxiliary wavefunctions       182.38 Mb     (   8098, 1476)
        Each subspace H/S matrix       33.24 Mb     (1476,1476)
        Each <psi_i|beta_j> matrix      2.25 Mb     (    399,  369)
        Arrays for rho mixing          88.99 Mb     ( 729000,   8)

     Check: negative/imaginary core charge=   -0.000003    0.000000

     Initial potential from superposition of free atoms
     Check: negative starting charge=   -1.533958

     starting charge  241.99985, renormalised to  246.00000

     negative rho (up, down):  0.156E+01 0.000E+00
     Number of +U iterations with fixed ns =  0
     Starting occupations:
 --- enter write_ns ---
 LDA+U parameters:
U( 2)     =  7.00000000
alpha( 2) =  0.00000000
atom    3   Tr[ns(na)] =   8.00000
    eigenvalues: 
  0.800  0.800  0.800  0.800  0.800
    eigenvectors:
  1.000  0.000  0.000  0.000  0.000
  0.000  1.000  0.000  0.000  0.000
  0.000  0.000  1.000  0.000  0.000
  0.000  0.000  0.000  1.000  0.000
  0.000  0.000  0.000  0.000  1.000
    occupations:
  0.800  0.000  0.000  0.000  0.000
  0.000  0.800  0.000  0.000  0.000
  0.000  0.000  0.800  0.000  0.000
  0.000  0.000  0.000  0.800  0.000
  0.000  0.000  0.000  0.000  0.800
atom    4   Tr[ns(na)] =   8.00000
    eigenvalues: 
  0.800  0.800  0.800  0.800  0.800
    eigenvectors:
  1.000  0.000  0.000  0.000  0.000
  0.000  1.000  0.000  0.000  0.000
  0.000  0.000  1.000  0.000  0.000
  0.000  0.000  0.000  1.000  0.000
  0.000  0.000  0.000  0.000  1.000
    occupations:
  0.800  0.000  0.000  0.000  0.000
  0.000  0.800  0.000  0.000  0.000
  0.000  0.000  0.800  0.000  0.000
  0.000  0.000  0.000  0.800  0.000
  0.000  0.000  0.000  0.000  0.800
atom    9   Tr[ns(na)] =   8.00000
    eigenvalues: 
  0.800  0.800  0.800  0.800  0.800
    eigenvectors:
  1.000  0.000  0.000  0.000  0.000
  0.000  1.000  0.000  0.000  0.000
  0.000  0.000  1.000  0.000  0.000
  0.000  0.000  0.000  1.000  0.000
  0.000  0.000  0.000  0.000  1.000
    occupations:
  0.800  0.000  0.000  0.000  0.000
  0.000  0.800  0.000  0.000  0.000
  0.000  0.000  0.800  0.000  0.000
  0.000  0.000  0.000  0.800  0.000
  0.000  0.000  0.000  0.000  0.800
atom   10   Tr[ns(na)] =   8.00000
    eigenvalues: 
  0.800  0.800  0.800  0.800  0.800
    eigenvectors:
  1.000  0.000  0.000  0.000  0.000
  0.000  1.000  0.000  0.000  0.000
  0.000  0.000  1.000  0.000  0.000
  0.000  0.000  0.000  1.000  0.000
  0.000  0.000  0.000  0.000  1.000
    occupations:
  0.800  0.000  0.000  0.000  0.000
  0.000  0.800  0.000  0.000  0.000
  0.000  0.000  0.800  0.000  0.000
  0.000  0.000  0.000  0.800  0.000
  0.000  0.000  0.000  0.000  0.800
atom   16   Tr[ns(na)] =   8.00000
    eigenvalues: 
  0.800  0.800  0.800  0.800  0.800
    eigenvectors:
  1.000  0.000  0.000  0.000  0.000
  0.000  1.000  0.000  0.000  0.000
  0.000  0.000  1.000  0.000  0.000
  0.000  0.000  0.000  1.000  0.000
  0.000  0.000  0.000  0.000  1.000
    occupations:
  0.800  0.000  0.000  0.000  0.000
  0.000  0.800  0.000  0.000  0.000
  0.000  0.000  0.800  0.000  0.000
  0.000  0.000  0.000  0.800  0.000
  0.000  0.000  0.000  0.000  0.800
atom   17   Tr[ns(na)] =   8.00000
    eigenvalues: 
  0.800  0.800  0.800  0.800  0.800
    eigenvectors:
  1.000  0.000  0.000  0.000  0.000
  0.000  1.000  0.000  0.000  0.000
  0.000  0.000  1.000  0.000  0.000
  0.000  0.000  0.000  1.000  0.000
  0.000  0.000  0.000  0.000  1.000
    occupations:
  0.800  0.000  0.000  0.000  0.000
  0.000  0.800  0.000  0.000  0.000
  0.000  0.000  0.800  0.000  0.000
  0.000  0.000  0.000  0.800  0.000
  0.000  0.000  0.000  0.000  0.800
atom   22   Tr[ns(na)] =   8.00000
    eigenvalues: 
  0.800  0.800  0.800  0.800  0.800
    eigenvectors:
  1.000  0.000  0.000  0.000  0.000
  0.000  1.000  0.000  0.000  0.000
  0.000  0.000  1.000  0.000  0.000
  0.000  0.000  0.000  1.000  0.000
  0.000  0.000  0.000  0.000  1.000
    occupations:
  0.800  0.000  0.000  0.000  0.000
  0.000  0.800  0.000  0.000  0.000
  0.000  0.000  0.800  0.000  0.000
  0.000  0.000  0.000  0.800  0.000
  0.000  0.000  0.000  0.000  0.800
atom   23   Tr[ns(na)] =   8.00000
    eigenvalues: 
  0.800  0.800  0.800  0.800  0.800
    eigenvectors:
  1.000  0.000  0.000  0.000  0.000
  0.000  1.000  0.000  0.000  0.000
  0.000  0.000  1.000  0.000  0.000
  0.000  0.000  0.000  1.000  0.000
  0.000  0.000  0.000  0.000  1.000
    occupations:
  0.800  0.000  0.000  0.000  0.000
  0.000  0.800  0.000  0.000  0.000
  0.000  0.000  0.800  0.000  0.000
  0.000  0.000  0.000  0.800  0.000
  0.000  0.000  0.000  0.000  0.800
N of occupied +U levels =  64.0000000
 --- exit write_ns ---
 Atomic wfc used for LDA+U Projector are NOT orthogonalized
     Starting wfc are  176 randomized atomic wfcs

     total cpu time spent up to now is      110.6 secs

     per-process dynamical memory:   437.9 Mb

     Self-consistent Calculation

     iteration #  1     ecut=    40.00 Ry     beta=0.70
     Davidson diagonalization with overlap
     ethr =  1.00E-02,  avg # of iterations =  5.3
 --- enter write_ns ---
 LDA+U parameters:
U( 2)     =  7.00000000
alpha( 2) =  0.00000000
atom    3   Tr[ns(na)] =   7.46188
    eigenvalues: 
  0.473  0.510  0.841  0.941  0.966
    eigenvectors:
  0.001  0.152  0.040  0.794  0.013
  0.992  0.008  0.000  0.000  0.000
  0.000  0.021  0.954  0.023  0.002
  0.007  0.819  0.005  0.166  0.003
  0.000  0.000  0.001  0.017  0.982
    occupations:
  0.872  0.001  0.005 -0.155 -0.003
  0.001  0.473  0.001  0.004 -0.006
  0.005  0.001  0.837  0.050  0.004
 -0.155  0.004  0.050  0.584  0.001
 -0.003 -0.006  0.004  0.001  0.965
atom    4   Tr[ns(na)] =   7.39350
    eigenvalues: 
  0.489  0.511  0.846  0.885  0.966
    eigenvectors:
  0.000  0.975  0.007  0.001  0.016
  0.032  0.000  0.102  0.866  0.000
  0.000  0.010  0.882  0.104  0.003
  0.000  0.015  0.005  0.000  0.980
  0.968  0.000  0.004  0.029  0.000
    occupations:
  0.522 -0.003 -0.035  0.055 -0.001
 -0.003  0.868  0.012  0.001  0.069
 -0.035  0.012  0.847 -0.003  0.001
  0.055  0.001 -0.003  0.959  0.000
 -0.001  0.069  0.001  0.000  0.501
atom    9   Tr[ns(na)] =   7.88503
    eigenvalues: 
  0.506  0.526  0.962  0.973  0.975
    eigenvectors:
  0.000  0.128  0.031  0.003  0.838
  1.000  0.000  0.000  0.000  0.000
  0.000  0.018  0.926  0.000  0.056
  0.000  0.854  0.043  0.001  0.103
  0.000  0.000  0.001  0.996  0.003
    occupations:
  0.917 -0.000 -0.024 -0.148  0.001
 -0.000  0.506  0.000 -0.000 -0.000
 -0.024  0.000  0.955 -0.053 -0.000
 -0.148 -0.000 -0.053  0.592  0.002
  0.001 -0.000 -0.000  0.002  0.973
atom   10   Tr[ns(na)] =   8.36853
    eigenvalues: 
  0.495  0.748  0.973  0.983  0.986
    eigenvectors:
  0.000  0.960  0.027  0.013  0.000
  0.034  0.000  0.000  0.000  0.966
  0.000  0.000  0.395  0.604  0.000
  0.000  0.040  0.577  0.383  0.000
  0.966  0.000  0.000  0.000  0.034
    occupations:
  0.757  0.000  0.003  0.045  0.000
  0.000  0.969  0.000 -0.000 -0.089
  0.003  0.000  0.979 -0.005  0.000
  0.045 -0.000 -0.005  0.968 -0.000
  0.000 -0.089  0.000 -0.000  0.511
atom   16   Tr[ns(na)] =   7.46184
    eigenvalues: 
  0.473  0.510  0.841  0.942  0.965
    eigenvectors:
  0.001  0.152  0.040  0.792  0.015
  0.992  0.008  0.000  0.000  0.000
  0.000  0.021  0.955  0.023  0.000
  0.007  0.819  0.005  0.166  0.003
  0.000  0.000  0.000  0.018  0.982
    occupations:
  0.872 -0.001  0.005 -0.155  0.003
 -0.001  0.473 -0.000 -0.003 -0.006
  0.005 -0.000  0.837  0.050 -0.000
 -0.155 -0.003  0.050  0.584 -0.001
  0.003 -0.006 -0.000 -0.001  0.965
atom   17   Tr[ns(na)] =   7.38786
    eigenvalues: 
  0.489  0.512  0.847  0.880  0.965
    eigenvectors:
  0.000  0.975  0.007  0.002  0.017
  0.033  0.000  0.191  0.776  0.000
  0.000  0.011  0.790  0.194  0.005
  0.000  0.015  0.006  0.001  0.978
  0.967  0.000  0.007  0.026  0.000
    occupations:
  0.523 -0.003 -0.036  0.055 -0.001
 -0.003  0.861  0.013  0.002  0.068
 -0.036  0.013  0.851 -0.004  0.001
  0.055  0.002 -0.004  0.958  0.000
 -0.001  0.068  0.001  0.000  0.501
atom   22   Tr[ns(na)] =   7.88520
    eigenvalues: 
  0.506  0.527  0.962  0.973  0.975
    eigenvectors:
  0.000  0.128  0.032  0.013  0.827
  0.999  0.001  0.000  0.000  0.000
  0.000  0.018  0.925  0.001  0.056
  0.001  0.853  0.043  0.001  0.101
  0.000  0.000  0.000  0.984  0.016
    occupations:
  0.917  0.001 -0.024 -0.148 -0.000
  0.001  0.506  0.001  0.000 -0.000
 -0.024  0.001  0.955 -0.053 -0.000
 -0.148  0.000 -0.053  0.592 -0.001
 -0.000 -0.000 -0.000 -0.001  0.973
atom   23   Tr[ns(na)] =   7.84433
    eigenvalues: 
  0.489  0.546  0.943  0.969  0.975
    eigenvectors:
  0.000  0.904  0.070  0.000  0.026
  0.030  0.000  0.000  0.970  0.000
  0.000  0.077  0.920  0.000  0.003
  0.000  0.019  0.010  0.000  0.971
  0.970  0.000  0.000  0.030  0.000
    occupations:
  0.585  0.000  0.105  0.058 -0.000
  0.000  0.955  0.000 -0.000 -0.081
  0.105  0.000  0.913 -0.013  0.000
  0.058 -0.000 -0.013  0.966 -0.000
 -0.000 -0.081  0.000 -0.000  0.503
N of occupied +U levels =  61.6881753
 --- exit write_ns ---

     negative rho (up, down):  0.151E+01 0.000E+00

     total cpu time spent up to now is      467.2 secs

     total energy              =   -2264.74055282 Ry
     Harris-Foulkes estimate   =   -2283.28958303 Ry
     estimated scf accuracy    <      23.30271740 Ry

     iteration #  2     ecut=    40.00 Ry     beta=0.70
     Davidson diagonalization with overlap
     ethr =  9.47E-03,  avg # of iterations =  5.0

     negative rho (up, down):  0.123E+01 0.000E+00

     total cpu time spent up to now is      781.9 secs

     total energy              =   -2208.97141214 Ry
     Harris-Foulkes estimate   =   -2336.48543194 Ry
     estimated scf accuracy    <     964.27062893 Ry

     iteration #  3     ecut=    40.00 Ry     beta=0.70
     Davidson diagonalization with overlap
     ethr =  9.47E-03,  avg # of iterations =  4.8

     negative rho (up, down):  0.793E+00 0.000E+00

     total cpu time spent up to now is     1108.3 secs

     total energy              =   -2245.91858328 Ry
     Harris-Foulkes estimate   =   -2305.29486518 Ry
     estimated scf accuracy    <     573.63893548 Ry

     iteration #  4     ecut=    40.00 Ry     beta=0.70
     Davidson diagonalization with overlap
     ethr =  9.47E-03,  avg # of iterations =  4.0

     negative rho (up, down):  0.876E+00 0.000E+00

     total cpu time spent up to now is     1340.0 secs

     total energy              =   -2276.51113965 Ry
     Harris-Foulkes estimate   =   -2280.78274739 Ry
     estimated scf accuracy    <      16.06928476 Ry

     iteration #  5     ecut=    40.00 Ry     beta=0.70
     Davidson diagonalization with overlap
     ethr =  6.53E-03,  avg # of iterations =  1.0

     negative rho (up, down):  0.993E+00 0.000E+00

     total cpu time spent up to now is     1519.5 secs

     total energy              =   -2278.19058792 Ry
     Harris-Foulkes estimate   =   -2280.26210125 Ry
     estimated scf accuracy    <      14.08835487 Ry

     iteration #  6     ecut=    40.00 Ry     beta=0.70
     Davidson diagonalization with overlap
     ethr =  5.73E-03,  avg # of iterations =  1.1

     negative rho (up, down):  0.109E+01 0.000E+00

     total cpu time spent up to now is     1695.9 secs

     total energy              =   -2278.73037176 Ry
     Harris-Foulkes estimate   =   -2279.70018397 Ry
     estimated scf accuracy    <       4.10630568 Ry

     iteration #  7     ecut=    40.00 Ry     beta=0.70
     Davidson diagonalization with overlap
     ethr =  1.67E-03,  avg # of iterations =  1.0

     negative rho (up, down):  0.111E+01 0.000E+00

     total cpu time spent up to now is     1872.3 secs

     total energy              =   -2278.92360963 Ry
     Harris-Foulkes estimate   =   -2279.18911160 Ry
     estimated scf accuracy    <       1.97016589 Ry

     iteration #  8     ecut=    40.00 Ry     beta=0.70
     Davidson diagonalization with overlap
     ethr =  8.01E-04,  avg # of iterations =  1.3

     negative rho (up, down):  0.119E+01 0.000E+00

     total cpu time spent up to now is     2054.9 secs

     total energy              =   -2278.88868379 Ry
     Harris-Foulkes estimate   =   -2279.20803328 Ry
     estimated scf accuracy    <       4.03890630 Ry

     iteration #  9     ecut=    40.00 Ry     beta=0.70
     Davidson diagonalization with overlap
     ethr =  8.01E-04,  avg # of iterations =  1.0

     negative rho (up, down):  0.124E+01 0.000E+00

     total cpu time spent up to now is     2233.4 secs

     total energy              =   -2278.82788280 Ry
     Harris-Foulkes estimate   =   -2279.13821041 Ry
     estimated scf accuracy    <       2.80199326 Ry

     iteration # 10     ecut=    40.00 Ry     beta=0.70
     Davidson diagonalization with overlap
     ethr =  8.01E-04,  avg # of iterations =  1.0

     negative rho (up, down):  0.136E+01 0.000E+00

     total cpu time spent up to now is     2413.4 secs

     total energy              =   -2278.86407251 Ry
     Harris-Foulkes estimate   =   -2279.02299853 Ry
     estimated scf accuracy    <       0.71767702 Ry

     iteration # 11     ecut=    40.00 Ry     beta=0.70
     Davidson diagonalization with overlap
     ethr =  2.92E-04,  avg # of iterations =  8.3

     negative rho (up, down):  0.151E+01 0.000E+00

     total cpu time spent up to now is     2677.5 secs

     total energy              =   -2278.84074394 Ry
     Harris-Foulkes estimate   =   -2278.95760338 Ry
     estimated scf accuracy    <       0.51387526 Ry

     iteration # 12     ecut=    40.00 Ry     beta=0.70
     Davidson diagonalization with overlap
     ethr =  2.09E-04,  avg # of iterations =  3.8

     negative rho (up, down):  0.156E+01 0.000E+00

     total cpu time spent up to now is     2889.7 secs

     total energy              =   -2278.72961302 Ry
     Harris-Foulkes estimate   =   -2279.01104770 Ry
     estimated scf accuracy    <       1.82267271 Ry

     iteration # 13     ecut=    40.00 Ry     beta=0.70
     Davidson diagonalization with overlap
     ethr =  2.09E-04,  avg # of iterations =  4.4

     negative rho (up, down):  0.151E+01 0.000E+00

     total cpu time spent up to now is     3094.7 secs

     total energy              =   -2278.50331192 Ry
     Harris-Foulkes estimate   =   -2279.08313477 Ry
     estimated scf accuracy    <       9.58133799 Ry

     iteration # 14     ecut=    40.00 Ry     beta=0.70
     Davidson diagonalization with overlap
     ethr =  2.09E-04,  avg # of iterations =  4.3

     negative rho (up, down):  0.154E+01 0.000E+00

     total cpu time spent up to now is     3292.6 secs

     total energy              =   -2278.86660501 Ry
     Harris-Foulkes estimate   =   -2278.93033332 Ry
     estimated scf accuracy    <       0.26494537 Ry

     iteration # 15     ecut=    40.00 Ry     beta=0.70
     Davidson diagonalization with overlap
     ethr =  1.08E-04,  avg # of iterations =  1.0

     negative rho (up, down):  0.155E+01 0.000E+00

     total cpu time spent up to now is     3466.2 secs

     total energy              =   -2278.87155627 Ry
     Harris-Foulkes estimate   =   -2278.91225748 Ry
     estimated scf accuracy    <       0.16927983 Ry

     iteration # 16     ecut=    40.00 Ry     beta=0.70
     Davidson diagonalization with overlap
     ethr =  6.88E-05,  avg # of iterations =  1.0

     negative rho (up, down):  0.157E+01 0.000E+00

     total cpu time spent up to now is     3638.8 secs

     total energy              =   -2278.88409953 Ry
     Harris-Foulkes estimate   =   -2278.90831004 Ry
     estimated scf accuracy    <       0.20778627 Ry

     iteration # 17     ecut=    40.00 Ry     beta=0.70
     Davidson diagonalization with overlap
     ethr =  6.88E-05,  avg # of iterations =  1.0

     negative rho (up, down):  0.157E+01 0.000E+00

     total cpu time spent up to now is     3815.5 secs

     total energy              =   -2278.89219764 Ry
     Harris-Foulkes estimate   =   -2278.89835815 Ry
     estimated scf accuracy    <       0.07015595 Ry

     iteration # 18     ecut=    40.00 Ry     beta=0.70
     Davidson diagonalization with overlap
     ethr =  2.85E-05,  avg # of iterations =  1.3

     negative rho (up, down):  0.157E+01 0.000E+00

     total cpu time spent up to now is     3997.3 secs

     total energy              =   -2278.89199297 Ry
     Harris-Foulkes estimate   =   -2278.89865724 Ry
     estimated scf accuracy    <       0.04560575 Ry

     iteration # 19     ecut=    40.00 Ry     beta=0.70
     Davidson diagonalization with overlap
     ethr =  1.85E-05,  avg # of iterations =  1.0

     negative rho (up, down):  0.157E+01 0.000E+00

     total cpu time spent up to now is     4187.6 secs

     total energy              =   -2278.89215861 Ry
     Harris-Foulkes estimate   =   -2278.89801102 Ry
     estimated scf accuracy    <       0.07612405 Ry

     iteration # 20     ecut=    40.00 Ry     beta=0.70
     Davidson diagonalization with overlap
     ethr =  1.85E-05,  avg # of iterations =  1.0

     negative rho (up, down):  0.157E+01 0.000E+00

     total cpu time spent up to now is     4374.6 secs

     total energy              =   -2278.89257186 Ry
     Harris-Foulkes estimate   =   -2278.89774266 Ry
     estimated scf accuracy    <       0.07380005 Ry

     iteration # 21     ecut=    40.00 Ry     beta=0.70
     Davidson diagonalization with overlap
     ethr =  1.85E-05,  avg # of iterations =  1.0

     negative rho (up, down):  0.157E+01 0.000E+00

     total cpu time spent up to now is     4561.2 secs

     total energy              =   -2278.89471436 Ry
     Harris-Foulkes estimate   =   -2278.89510159 Ry
     estimated scf accuracy    <       0.01031791 Ry

     iteration # 22     ecut=    40.00 Ry     beta=0.70
     Davidson diagonalization with overlap
     ethr =  4.19E-06,  avg # of iterations =  1.2

     negative rho (up, down):  0.158E+01 0.000E+00

     total cpu time spent up to now is     4748.2 secs

     total energy              =   -2278.89233151 Ry
     Harris-Foulkes estimate   =   -2278.89485143 Ry
     estimated scf accuracy    <       0.00696586 Ry

     iteration # 23     ecut=    40.00 Ry     beta=0.70
     Davidson diagonalization with overlap
     ethr =  2.83E-06,  avg # of iterations =  5.3

     negative rho (up, down):  0.157E+01 0.000E+00

     total cpu time spent up to now is     4971.3 secs

     total energy              =   -2278.89192592 Ry
     Harris-Foulkes estimate   =   -2278.89597036 Ry
     estimated scf accuracy    <       0.03034363 Ry

     iteration # 24     ecut=    40.00 Ry     beta=0.70
     Davidson diagonalization with overlap
     ethr =  2.83E-06,  avg # of iterations =  4.6

     negative rho (up, down):  0.157E+01 0.000E+00

     total cpu time spent up to now is     5179.3 secs

     total energy              =   -2278.89375680 Ry
     Harris-Foulkes estimate   =   -2278.89446396 Ry
     estimated scf accuracy    <       0.00293220 Ry

     iteration # 25     ecut=    40.00 Ry     beta=0.70
     Davidson diagonalization with overlap
     ethr =  1.19E-06,  avg # of iterations =  1.0

     negative rho (up, down):  0.157E+01 0.000E+00

     total cpu time spent up to now is     5357.5 secs

     total energy              =   -2278.89394570 Ry
     Harris-Foulkes estimate   =   -2278.89431479 Ry
     estimated scf accuracy    <       0.00245800 Ry

     iteration # 26     ecut=    40.00 Ry     beta=0.70
     Davidson diagonalization with overlap
     ethr =  9.99E-07,  avg # of iterations =  1.0

     negative rho (up, down):  0.157E+01 0.000E+00

     total cpu time spent up to now is     5537.6 secs

     total energy              =   -2278.89409659 Ry
     Harris-Foulkes estimate   =   -2278.89414703 Ry
     estimated scf accuracy    <       0.00022294 Ry

     iteration # 27     ecut=    40.00 Ry     beta=0.70
     Davidson diagonalization with overlap
     ethr =  9.06E-08,  avg # of iterations =  1.0

     negative rho (up, down):  0.157E+01 0.000E+00

     total cpu time spent up to now is     5716.1 secs

     total energy              =   -2278.89408745 Ry
     Harris-Foulkes estimate   =   -2278.89416591 Ry
     estimated scf accuracy    <       0.00063738 Ry

     iteration # 28     ecut=    40.00 Ry     beta=0.70
     Davidson diagonalization with overlap
     ethr =  9.06E-08,  avg # of iterations =  1.0

     negative rho (up, down):  0.157E+01 0.000E+00

     total cpu time spent up to now is     5893.5 secs

     total energy              =   -2278.89410950 Ry
     Harris-Foulkes estimate   =   -2278.89414669 Ry
     estimated scf accuracy    <       0.00028214 Ry

     iteration # 29     ecut=    40.00 Ry     beta=0.70
     Davidson diagonalization with overlap
     ethr =  9.06E-08,  avg # of iterations =  1.0

     negative rho (up, down):  0.157E+01 0.000E+00

     total cpu time spent up to now is     6073.0 secs

     total energy              =   -2278.89412135 Ry
     Harris-Foulkes estimate   =   -2278.89413503 Ry
     estimated scf accuracy    <       0.00017865 Ry

     iteration # 30     ecut=    40.00 Ry     beta=0.70
     Davidson diagonalization with overlap
     ethr =  7.26E-08,  avg # of iterations =  1.0

     negative rho (up, down):  0.157E+01 0.000E+00

     total cpu time spent up to now is     6244.7 secs

     total energy              =   -2278.89412707 Ry
     Harris-Foulkes estimate   =   -2278.89413105 Ry
     estimated scf accuracy    <       0.00004978 Ry

     iteration # 31     ecut=    40.00 Ry     beta=0.70
     Davidson diagonalization with overlap
     ethr =  2.02E-08,  avg # of iterations =  1.0

     negative rho (up, down):  0.157E+01 0.000E+00

     total cpu time spent up to now is     6414.6 secs

     total energy              =   -2278.89412683 Ry
     Harris-Foulkes estimate   =   -2278.89413089 Ry
     estimated scf accuracy    <       0.00001968 Ry

     iteration # 32     ecut=    40.00 Ry     beta=0.70
     Davidson diagonalization with overlap
     ethr =  8.00E-09,  avg # of iterations =  1.0

     negative rho (up, down):  0.157E+01 0.000E+00

     total cpu time spent up to now is     6595.0 secs

     total energy              =   -2278.89412756 Ry
     Harris-Foulkes estimate   =   -2278.89413003 Ry
     estimated scf accuracy    <       0.00001524 Ry

     iteration # 33     ecut=    40.00 Ry     beta=0.70
     Davidson diagonalization with overlap
     ethr =  6.20E-09,  avg # of iterations =  1.0

     negative rho (up, down):  0.157E+01 0.000E+00

     total cpu time spent up to now is     6771.9 secs

     total energy              =   -2278.89412639 Ry
     Harris-Foulkes estimate   =   -2278.89413223 Ry
     estimated scf accuracy    <       0.00006109 Ry

     iteration # 34     ecut=    40.00 Ry     beta=0.70
     Davidson diagonalization with overlap
     ethr =  6.20E-09,  avg # of iterations =  1.0

     negative rho (up, down):  0.157E+01 0.000E+00

     total cpu time spent up to now is     6949.3 secs

     total energy              =   -2278.89412898 Ry
     Harris-Foulkes estimate   =   -2278.89412940 Ry
     estimated scf accuracy    <       0.00000167 Ry

     iteration # 35     ecut=    40.00 Ry     beta=0.70
     Davidson diagonalization with overlap
     ethr =  6.80E-10,  avg # of iterations =  1.0

     negative rho (up, down):  0.157E+01 0.000E+00

     total cpu time spent up to now is     7126.4 secs

     total energy              =   -2278.89412889 Ry
     Harris-Foulkes estimate   =   -2278.89412955 Ry
     estimated scf accuracy    <       0.00000507 Ry

     iteration # 36     ecut=    40.00 Ry     beta=0.70
     Davidson diagonalization with overlap
     ethr =  6.80E-10,  avg # of iterations =  1.0

     negative rho (up, down):  0.157E+01 0.000E+00

     total cpu time spent up to now is     7304.8 secs

     End of self-consistent calculation
 --- enter write_ns ---
 LDA+U parameters:
U( 2)     =  7.00000000
alpha( 2) =  0.00000000
atom    3   Tr[ns(na)] =   8.79989
    eigenvalues: 
  0.709  0.721  0.988  0.989  0.992
    eigenvectors:
  0.054  0.118  0.518  0.310  0.001
  0.699  0.301  0.000  0.000  0.000
  0.001  0.003  0.008  0.044  0.944
  0.247  0.578  0.111  0.057  0.006
  0.000  0.000  0.363  0.588  0.049
    occupations:
  0.942  0.004  0.007 -0.102 -0.000
  0.004  0.713  0.002  0.004 -0.004
  0.007  0.002  0.991  0.016  0.001
 -0.102  0.004  0.016  0.765  0.000
 -0.000 -0.004  0.001  0.000  0.989
atom    4   Tr[ns(na)] =   8.79061
    eigenvalues: 
  0.704  0.727  0.987  0.988  0.989
    eigenvectors:
  0.000  0.986  0.008  0.005  0.001
  0.009  0.000  0.145  0.744  0.101
  0.000  0.004  0.635  0.018  0.342
  0.000  0.010  0.210  0.226  0.554
  0.991  0.000  0.001  0.007  0.001
    occupations:
  0.731 -0.005 -0.017  0.025 -0.001
 -0.005  0.986  0.000  0.000  0.027
 -0.017  0.000  0.987  0.002 -0.000
  0.025  0.000  0.002  0.986  0.000
 -0.001  0.027 -0.000  0.000  0.706
atom    9   Tr[ns(na)] =   8.78406
    eigenvalues: 
  0.725  0.736  0.967  0.976  0.989
    eigenvectors:
  0.005  0.128  0.001  0.009  0.858
  0.966  0.034  0.000  0.000  0.000
  0.000  0.010  0.004  0.982  0.003
  0.029  0.827  0.000  0.005  0.138
  0.000  0.000  0.995  0.004  0.001
    occupations:
  0.955  0.001 -0.008 -0.086  0.001
  0.001  0.726  0.001  0.002 -0.004
 -0.008  0.001  0.973 -0.023  0.001
 -0.086  0.002 -0.023  0.772  0.000
  0.001 -0.004  0.001  0.000  0.967
atom   10   Tr[ns(na)] =   8.85522
    eigenvalues: 
  0.674  0.789  0.985  0.988  0.992
    eigenvectors:
  0.000  0.974  0.000  0.015  0.011
  0.013  0.000  0.987  0.000  0.000
  0.000  0.001  0.000  0.216  0.783
  0.000  0.025  0.000  0.769  0.206
  0.987  0.000  0.013  0.000  0.000
    occupations:
  0.795  0.000 -0.008  0.031  0.000
  0.000  0.981  0.000 -0.000 -0.035
 -0.008  0.000  0.990 -0.000 -0.000
  0.031 -0.000 -0.000  0.984 -0.000
  0.000 -0.035 -0.000 -0.000  0.678
atom   16   Tr[ns(na)] =   8.79989
    eigenvalues: 
  0.709  0.721  0.988  0.989  0.992
    eigenvectors:
  0.053  0.118  0.523  0.305  0.001
  0.702  0.298  0.000  0.000  0.000
  0.001  0.003  0.007  0.044  0.946
  0.244  0.581  0.112  0.056  0.007
  0.000  0.000  0.358  0.595  0.047
    occupations:
  0.942 -0.004  0.007 -0.102  0.000
 -0.004  0.713 -0.002 -0.004 -0.004
  0.007 -0.002  0.991  0.015 -0.001
 -0.102 -0.004  0.015  0.765 -0.000
  0.000 -0.004 -0.001 -0.000  0.989
atom   17   Tr[ns(na)] =   8.79065
    eigenvalues: 
  0.705  0.727  0.985  0.988  0.989
    eigenvectors:
  0.000  0.986  0.006  0.004  0.004
  0.009  0.000  0.057  0.851  0.083
  0.000  0.004  0.881  0.021  0.093
  0.000  0.010  0.055  0.117  0.819
  0.991  0.000  0.001  0.008  0.001
    occupations:
  0.731 -0.005 -0.017  0.025 -0.001
 -0.005  0.986  0.000  0.000  0.027
 -0.017  0.000  0.984  0.003  0.000
  0.025  0.000  0.003  0.986  0.000
 -0.001  0.027  0.000  0.000  0.708
atom   22   Tr[ns(na)] =   8.78407
    eigenvalues: 
  0.725  0.735  0.967  0.976  0.989
    eigenvectors:
  0.001  0.132  0.001  0.009  0.857
  0.991  0.009  0.000  0.000  0.000
  0.000  0.011  0.006  0.980  0.003
  0.008  0.849  0.000  0.005  0.138
  0.000  0.000  0.993  0.006  0.001
    occupations:
  0.955 -0.000 -0.008 -0.086 -0.001
 -0.000  0.726 -0.001 -0.001 -0.004
 -0.008 -0.001  0.973 -0.023 -0.001
 -0.086 -0.001 -0.023  0.772  0.000
 -0.001 -0.004 -0.001  0.000  0.967
atom   23   Tr[ns(na)] =   8.76907
    eigenvalues: 
  0.731  0.753  0.943  0.968  0.990
    eigenvectors:
  0.000  0.897  0.096  0.000  0.007
  0.015  0.000  0.000  0.985  0.000
  0.000  0.088  0.894  0.000  0.017
  0.000  0.015  0.010  0.000  0.975
  0.985  0.000  0.000  0.015  0.000
    occupations:
  0.773  0.000  0.053  0.026 -0.000
  0.000  0.965 -0.000  0.000 -0.029
  0.053 -0.000  0.927 -0.013 -0.000
  0.026  0.000 -0.013  0.986 -0.000
 -0.000 -0.029 -0.000 -0.000  0.734
N of occupied +U levels =  70.3734461
 --- exit write_ns ---

          k = 0.0000 0.0000 0.0000 ( 32157 PWs)   bands (ev):

   -55.4629 -55.4084 -55.2646 -55.2037 -55.1646 -55.1479 -55.1051 -55.1006
   -55.0396 -55.0303 -55.0254 -54.9838 -54.9812 -54.8841 -54.8502 -54.8460
   -54.8412 -54.7870 -54.7517 -54.7171 -54.7102 -54.4170 -54.1753 -53.8024
   -22.3273 -22.0663 -21.6930 -21.6803 -21.1481 -20.8349 -20.7993 -20.7809
   -20.7320 -20.6850 -20.6273 -20.5685 -20.4246 -20.1600 -19.9416 -19.8693
   -19.5536 -19.3019 -19.1671 -12.1228 -11.9857 -11.6633 -11.1730 -11.0151
   -10.8791 -10.7508 -10.5993 -10.5827 -10.1858 -10.0203  -9.7369  -9.7201
    -9.6622  -9.5998  -9.5429  -9.4712  -9.3525  -9.0461  -8.9709  -8.8788
    -8.6641  -8.5425  -8.3847  -8.3078  -8.2830  -8.0773  -7.9326  -7.7472
    -7.6870  -7.5757  -7.4412  -7.3253  -7.2604  -7.2561  -7.1492  -7.0823
    -6.9429  -6.8005  -6.5351  -6.5006  -6.4887  -6.4547  -6.3986  -6.1326
    -5.9301  -5.8187  -5.7579  -5.6153  -5.4781  -5.4567  -5.4046  -5.3207
    -5.2162  -5.1977  -5.1080  -5.0483  -4.8883  -4.8266  -4.7467  -4.6467
    -4.4282  -4.3331  -4.1432  -3.9320  -3.5871  -3.4513  -3.4291  -3.3796
    -3.2500  -3.2214  -2.9259  -2.9051  -2.7669  -2.7065  -2.6661  -2.5227
    -2.2897  -2.1387  -2.0202  -1.8922  -1.7576  -1.2111  -0.7856  -0.7613
    -0.7456  -0.6883  -0.3181  -0.0752   0.3001   0.6495   0.8364   1.1643
     1.1756   1.2407   1.7335   1.8863   2.3501   3.3680   4.1451   4.6475
     4.8313   5.5075   5.5779   5.6920   5.7873   6.3789   6.4212   6.5948
     6.8742   6.9483   6.9805   7.0089   7.3172   7.4176   7.5113   7.5749
     7.6041   7.6539   7.6719   7.8340   7.8581   7.8978   8.1498   8.1659
     8.1782   8.1959   8.3207   8.4183   8.5229   8.5320   8.5583   8.7915
     8.8869   8.9405   9.0170   9.1024   9.1378   9.2242   9.4578   9.5109
     9.6099   9.7912   9.8297   9.8885   9.9847  10.0329  10.1339  10.2611
    10.4666  10.5496  10.6897  10.7542  10.8052  10.8308  10.8604  10.9531
    10.9924  11.0817  11.2571  11.2795  11.3574  11.3787  11.4801  11.4989
    11.6237  11.6378  11.7710  11.9317  11.9850  12.0085  12.0559  12.1006
    12.1796  12.1966  12.2150  12.2528  12.3583  12.3972  12.5741  12.6011
    12.7118  12.8043  12.8299  13.0059  13.0838  13.2741  13.2908  13.3483
    13.3782  13.6077  13.6744  13.7014  13.7306  13.8203  13.9864  14.0533
    14.0944  14.2133  14.3043  14.3411  14.5158  14.5756  14.6019  14.7481
    14.7550  14.8868  14.9542  15.0499  15.1684  15.3316  15.3694  15.3957
    15.4772  15.5349  15.6170  15.7131  15.7836  15.8419  15.9001  15.9823
    16.0033  16.1160  16.4665  16.4807  16.5066  16.6006  16.6658  16.7210
    16.8395  16.8808  16.9139  16.9582  17.0546  17.1816  17.2020  17.2662
    17.2728  17.2989  17.3125  17.3473  17.3702  17.3983  17.4146  17.4963
    17.5799  17.6948  17.8881  17.9123  17.9780  18.0652  18.0790  18.1551
    18.2187  18.2463  18.3079  18.3561  18.3848  18.4076  18.4878  18.5501
    18.6322  18.6355  18.6617  18.7473  18.7667  18.8724  18.9526  19.0204
    19.0505  19.0808  19.1598  19.1934  19.2549  19.3311  19.4218  19.4604
    19.4900  19.5500  19.6135  19.6557  19.7515  19.7977  19.8516  19.9080
    19.9315  19.9578  20.0112  20.1050  20.1204  20.1669  20.3053  20.3518
    20.5392  20.5742  20.6295  20.8072  20.8805  20.9241  20.9513  20.9810
    21.0217  21.0893  21.1977  21.2521  21.3494  21.4707  21.4968  21.5698
    21.6002  21.6333  21.6766  21.7166  21.7319  21.7435  21.7777  21.7868
    21.8504  21.9044  21.9079  21.9558  22.0012  22.0422  22.1504  22.2409
    22.2603

          k = 0.0000 0.2488 0.0000 ( 32033 PWs)   bands (ev):

   -55.4629 -55.4082 -55.2643 -55.2030 -55.1639 -55.1479 -55.1051 -55.1006
   -55.0397 -55.0306 -55.0245 -54.9846 -54.9805 -54.8841 -54.8496 -54.8467
   -54.8410 -54.7871 -54.7516 -54.7173 -54.7101 -54.4168 -54.1750 -53.8024
   -22.3160 -22.0650 -21.5619 -21.5229 -21.1418 -21.1226 -21.0613 -20.7832
   -20.6905 -20.5729 -20.4417 -20.4245 -20.3441 -20.1584 -20.1453 -20.0854
   -19.5495 -19.3054 -19.1730 -11.7812 -11.6556 -11.5309 -11.4936 -11.1049
   -11.0828 -10.8781 -10.7052 -10.4891 -10.0427  -9.8949  -9.7441  -9.6545
    -9.5994  -9.4341  -9.4014  -9.3359  -9.0730  -9.0296  -8.9756  -8.8316
    -8.6835  -8.5703  -8.4165  -8.2782  -8.1783  -8.0333  -7.9244  -7.7902
    -7.6949  -7.6305  -7.6004  -7.5682  -7.4625  -7.3553  -7.3081  -7.1652
    -7.1069  -7.0100  -6.8889  -6.8326  -6.5253  -6.4870  -6.4594  -6.3124
    -5.8949  -5.7313  -5.7165  -5.5197  -5.3941  -5.3374  -5.2062  -5.1610
    -5.1055  -5.0635  -4.9872  -4.9151  -4.8176  -4.7707  -4.7131  -4.5916
    -4.3994  -4.2750  -4.2097  -3.9611  -3.9014  -3.7606  -3.6231  -3.4325
    -3.2837  -3.2378  -2.9549  -2.7846  -2.7720  -2.6713  -2.5898  -2.5291
    -2.2860  -2.1767  -2.1160  -1.9237  -1.7974  -1.5351  -1.3670  -1.0053
    -0.7489  -0.4099   0.0459   0.6444   0.7660   0.8560   0.9702   0.9852
     1.2185   1.2248   1.7107   1.7340   2.7206   3.6003   4.3539   4.8002
     4.8680   5.0522   5.5840   5.8497   5.9031   5.9315   6.1877   6.4315
     6.4941   6.6723   6.8300   7.0299   7.2041   7.2467   7.2768   7.3607
     7.5153   7.6246   7.6668   7.7841   7.7960   7.9491   8.0884   8.1056
     8.2899   8.3574   8.3732   8.5142   8.5769   8.6399   8.7186   8.8462
     8.9344   9.0659   9.1119   9.1494   9.2659   9.3757   9.4822   9.5310
     9.7904   9.8327   9.9454  10.0147  10.0450  10.0945  10.1398  10.1738
    10.3392  10.3761  10.4045  10.5567  10.6095  10.6266  10.8515  10.9052
    10.9351  10.9905  11.0902  11.1927  11.3402  11.3848  11.5140  11.5833
    11.6151  11.7903  11.8291  11.9516  12.1356  12.1795  12.2398  12.2970
    12.3121  12.4430  12.5155  12.5297  12.6186  12.6980  12.7581  12.8771
    13.0563  13.2252  13.3382  13.3869  13.4449  13.4945  13.5930  13.6011
    13.7176  13.7300  13.7642  13.8030  13.8989  14.0430  14.1436  14.2410
    14.2654  14.3649  14.4299  14.5491  14.5816  14.6294  14.7736  14.8516
    14.9093  14.9578  15.0586  15.1581  15.2242  15.2625  15.3507  15.3985
    15.4717  15.6220  15.6997  15.7375  15.7795  15.7975  15.8822  15.9537
    15.9724  16.0811  16.1107  16.1896  16.3216  16.3387  16.4179  16.4600
    16.6170  16.6462  16.6791  16.7601  16.7926  16.8622  16.9154  17.0119
    17.1113  17.1572  17.2140  17.2362  17.2884  17.3085  17.3285  17.3444
    17.3863  17.4059  17.4513  17.5578  17.6946  17.7517  17.8671  17.9888
    18.0444  18.0926  18.1638  18.2465  18.2612  18.3145  18.3895  18.4422
    18.4826  18.5242  18.5804  18.6295  18.6543  18.7395  18.8034  18.8604
    18.9506  18.9942  19.0028  19.0209  19.0916  19.1298  19.1536  19.2075
    19.2944  19.3290  19.3599  19.4714  19.5047  19.5208  19.5947  19.6375
    19.6510  19.7420  19.7737  19.8209  19.8416  19.9657  20.0848  20.1644
    20.2359  20.2512  20.3060  20.3606  20.4049  20.4160  20.4605  20.5230
    20.6121  20.7493  20.7989  20.8174  20.8462  20.8963  20.9590  20.9970
    21.0617  21.1461  21.2046  21.2847  21.2990  21.3670  21.4223  21.4332
    21.4843  21.5029  21.5833  21.6822  21.7093  21.7517  21.8666  21.9102
    21.9729

          k = 0.0000-0.4976 0.0000 ( 31948 PWs)   bands (ev):

   -55.4629 -55.4081 -55.2640 -55.2024 -55.1631 -55.1479 -55.1051 -55.1005
   -55.0399 -55.0309 -55.0237 -54.9854 -54.9799 -54.8840 -54.8484 -54.8481
   -54.8408 -54.7871 -54.7514 -54.7175 -54.7100 -54.4166 -54.1748 -53.8024
   -22.3061 -22.0639 -21.3884 -21.2734 -21.2571 -21.1948 -21.1505 -20.7764
   -20.6929 -20.5929 -20.5259 -20.3572 -20.3270 -20.2835 -20.1931 -20.1482
   -19.5448 -19.3087 -19.1772 -11.7865 -11.6823 -11.4036 -11.1702 -11.1545
   -10.9677 -10.8716 -10.8034 -10.0319  -9.8604  -9.8408  -9.7200  -9.6957
    -9.6113  -9.5992  -9.3583  -9.2382  -9.0727  -8.9975  -8.9593  -8.8008
    -8.6240  -8.6176  -8.3905  -8.3402  -8.3079  -8.2650  -8.1370  -8.0708
    -7.9842  -7.7823  -7.6985  -7.6706  -7.4798  -7.2092  -7.1373  -7.0467
    -6.9885  -6.9686  -6.8222  -6.7351  -6.5133  -6.4625  -6.4424  -6.3336
    -6.2770  -6.1086  -5.9070  -5.7117  -5.4041  -5.2932  -5.2563  -5.1376
    -5.0499  -5.0391  -4.8953  -4.8151  -4.7764  -4.7200  -4.4335  -4.2577
    -4.2336  -4.2228  -4.1841  -4.0509  -3.9506  -3.8410  -3.6636  -3.4009
    -3.3211  -3.2002  -3.1172  -2.8966  -2.8509  -2.8160  -2.7468  -2.6670
    -2.3147  -2.2584  -2.2287  -1.9416  -1.8401  -1.6922  -1.4927  -0.9021
    -0.7292   0.0946   0.2903   0.6335   0.7876   0.8357   1.0709   1.1815
     1.2748   1.3649   1.6515   1.7334   3.4974   3.8866   4.1304   4.8040
     4.9330   5.1484   5.3899   5.6391   5.6753   5.7176   6.0503   6.2181
     6.3656   6.5080   6.6956   6.7068   6.9765   7.1065   7.3732   7.4697
     7.5839   7.6777   7.6905   7.8254   8.0279   8.0498   8.0817   8.1594
     8.2814   8.3995   8.4934   8.6400   8.6751   8.7282   8.7969   8.8264
     8.8542   8.8972   8.9585   9.1125   9.1427   9.1603   9.2093   9.4080
     9.4945   9.5466   9.6843   9.7733   9.9309   9.9786   9.9876  10.0122
    10.2226  10.7295  10.7459  10.8000  10.9008  10.9176  11.0179  11.1384
    11.1931  11.2832  11.3316  11.4143  11.5183  11.5471  11.6087  11.7273
    11.9873  12.0867  12.1165  12.1790  12.2158  12.3194  12.3957  12.4159
    12.5068  12.5081  12.7269  12.7747  12.8426  12.9004  12.9308  12.9462
    12.9698  13.0001  13.1307  13.1452  13.2626  13.2878  13.5592  13.6641
    13.7205  13.8350  13.9325  14.1810  14.1935  14.3062  14.3116  14.3831
    14.4680  14.5810  14.6483  14.6639  14.8659  14.9214  14.9413  14.9689
    15.0878  15.1015  15.1906  15.2684  15.3245  15.4521  15.5844  15.6305
    15.6520  15.7011  15.7365  15.7666  15.7798  15.9380  15.9710  16.0230
    16.0709  16.1569  16.1766  16.2338  16.2932  16.3046  16.3848  16.3910
    16.4399  16.5548  16.5896  16.6445  16.7292  16.7369  16.7663  16.7993
    16.8323  16.8943  17.0517  17.1317  17.2067  17.2273  17.2536  17.2545
    17.2744  17.2896  17.3348  17.3629  17.3911  17.4083  17.4723  17.5053
    17.6082  17.6619  17.7554  17.7845  17.8214  17.8882  17.9696  18.0120
    18.0494  18.1284  18.1295  18.2194  18.2809  18.3299  18.3978  18.4848
    18.5582  18.6406  18.6753  18.7994  18.8196  18.9337  18.9716  19.0707
    19.1310  19.1932  19.2127  19.2621  19.3297  19.3720  19.4516  19.5440
    19.5887  19.6606  19.6682  19.7377  19.7685  19.8428  19.9312  19.9612
    19.9759  20.0318  20.1544  20.2140  20.2320  20.2485  20.3085  20.3228
    20.3856  20.4266  20.4587  20.4969  20.5303  20.6111  20.6794  20.6960
    20.7347  20.7709  20.8591  20.8796  20.8902  20.9548  21.0712  21.2041
    21.2710  21.2817  21.3315  21.4649  21.5133  21.5455  21.7156  21.7664
    21.7863

          k = 0.2500 0.0000 0.0000 ( 32013 PWs)   bands (ev):

   -55.4632 -55.4103 -55.2648 -55.1977 -55.1583 -55.1581 -55.1161 -55.0953
   -55.0495 -55.0300 -55.0264 -54.9837 -54.9818 -54.8842 -54.8502 -54.8458
   -54.8422 -54.7872 -54.7520 -54.7162 -54.7113 -54.4198 -54.1755 -53.8026
   -22.2543 -22.0364 -21.5583 -21.5340 -21.0194 -20.9318 -20.8561 -20.7662
   -20.7204 -20.6917 -20.6223 -20.5590 -20.3963 -20.1617 -20.0735 -19.9987
   -19.6458 -19.3455 -19.2714 -11.8302 -11.6969 -11.4091 -11.0368 -10.7637
   -10.7117 -10.5982 -10.4731 -10.3747 -10.1949 -10.0456  -9.9820  -9.8554
    -9.6978  -9.6504  -9.5227  -9.4519  -9.3057  -9.2507  -9.0982  -8.7520
    -8.7271  -8.6717  -8.6104  -8.4361  -8.3816  -8.1196  -8.0350  -7.8966
    -7.8002  -7.7297  -7.6859  -7.4823  -7.4644  -7.4228  -7.3106  -7.1272
    -7.0903  -7.0308  -6.8773  -6.8211  -6.6338  -6.5140  -6.4165  -6.2067
    -6.0834  -5.9137  -5.7906  -5.6375  -5.5096  -5.4169  -5.3135  -5.2043
    -5.1367  -4.9691  -4.8827  -4.8227  -4.7245  -4.5498  -4.5389  -4.3792
    -4.1813  -3.9963  -3.9491  -3.7255  -3.6715  -3.3454  -3.2699  -3.2165
    -3.1581  -3.1025  -3.0583  -2.8972  -2.8072  -2.7375  -2.6619  -2.5373
    -2.3431  -2.1669  -2.1177  -1.9886  -1.8268  -1.0528  -0.6643  -0.6225
    -0.5088  -0.4296  -0.2677  -0.0896   0.2403   0.3140   0.8067   0.8594
     0.9292   1.1492   1.2796   1.7686   2.7491   3.6836   4.3668   4.8094
     4.8489   5.0596   5.5957   5.7966   6.0074   6.0256   6.2083   6.5016
     6.6455   6.7829   6.8380   6.9826   7.1815   7.2025   7.3061   7.3719
     7.5458   7.6282   7.6747   7.8044   7.8941   7.9075   8.0784   8.2329
     8.3881   8.4132   8.4597   8.6281   8.6610   8.7303   8.7596   8.9188
     8.9623   9.0824   9.1882   9.2715   9.3278   9.4552   9.6457   9.6998
     9.7629   9.7936   9.9419   9.9948  10.0288  10.1182  10.1376  10.2069
    10.2594  10.3476  10.3983  10.4459  10.6310  10.7380  10.7750  10.8830
    10.8995  10.9196  10.9676  11.0757  11.1875  11.2196  11.3226  11.4724
    11.5765  11.6377  11.7333  11.8132  12.0833  12.1370  12.1888  12.2494
    12.3045  12.3133  12.4741  12.5413  12.7272  12.8212  12.9123  12.9427
    13.0827  13.1289  13.2840  13.3216  13.4666  13.5165  13.5647  13.6541
    13.6688  13.7043  13.7614  13.8142  13.8773  13.9163  13.9649  14.0455
    14.0708  14.1779  14.2550  14.2785  14.4355  14.4921  14.5570  14.6159
    14.7415  14.8811  14.9123  15.0516  15.1778  15.2451  15.3264  15.3825
    15.4513  15.4643  15.5165  15.6489  15.7103  15.7946  15.8823  15.9050
    15.9579  16.0061  16.1362  16.1848  16.3291  16.3706  16.4620  16.5909
    16.6443  16.8118  16.8686  16.8975  16.9282  17.0110  17.1009  17.1680
    17.2156  17.2618  17.2784  17.3085  17.3162  17.3488  17.3676  17.4211
    17.4731  17.5757  17.6127  17.6547  17.7344  17.8249  17.9004  17.9302
    18.0514  18.1309  18.2366  18.2811  18.4114  18.4387  18.4754  18.5659
    18.6224  18.6787  18.7190  18.7639  18.8266  18.8587  18.8895  18.9246
    18.9606  18.9964  19.0340  19.0812  19.0981  19.1705  19.2550  19.3077
    19.3640  19.3836  19.4175  19.5092  19.5301  19.5684  19.6117  19.6652
    19.7305  19.7747  19.8208  19.8563  19.9347  19.9931  20.0182  20.0707
    20.1312  20.1569  20.2705  20.3297  20.4082  20.4564  20.5096  20.5367
    20.5790  20.6880  20.7116  20.7855  20.9119  20.9350  20.9935  21.0334
    21.1289  21.1705  21.2060  21.2378  21.2895  21.3437  21.4080  21.4381
    21.5206  21.5678  21.6140  21.6755  21.8119  21.8620  21.9360  21.9801
    22.0211

          k = 0.2500 0.2488 0.0000 ( 32025 PWs)   bands (ev):

   -55.4632 -55.4102 -55.2645 -55.1972 -55.1582 -55.1575 -55.1160 -55.0953
   -55.0496 -55.0301 -55.0257 -54.9842 -54.9814 -54.8842 -54.8496 -54.8464
   -54.8421 -54.7872 -54.7519 -54.7164 -54.7113 -54.4196 -54.1752 -53.8026
   -22.2469 -22.0347 -21.4289 -21.3824 -21.0641 -21.0128 -21.0086 -20.7768
   -20.7374 -20.6155 -20.5100 -20.4341 -20.4289 -20.2459 -20.1914 -20.1630
   -19.6428 -19.3527 -19.2708 -11.5178 -11.3807 -11.2914 -11.2358 -10.8926
   -10.7902 -10.7131 -10.5037 -10.3673 -10.0686  -9.9563  -9.9121  -9.7589
    -9.6128  -9.5065  -9.4753  -9.2800  -9.2585  -9.0895  -8.9171  -8.8675
    -8.6987  -8.5970  -8.4979  -8.4556  -8.3565  -8.1994  -8.0867  -8.0731
    -7.9535  -7.8797  -7.8224  -7.7014  -7.6375  -7.5596  -7.4855  -7.3613
    -7.2940  -7.1827  -7.0381  -6.9037  -6.8102  -6.4953  -6.2671  -6.1322
    -5.9664  -5.8942  -5.7096  -5.6687  -5.6282  -5.4541  -5.3209  -5.2045
    -5.1166  -4.8813  -4.7213  -4.5664  -4.5183  -4.4627  -4.3361  -4.2513
    -4.1189  -4.0583  -3.9770  -3.7857  -3.7127  -3.6788  -3.4622  -3.3676
    -3.2695  -3.0807  -2.9367  -2.8288  -2.7859  -2.6972  -2.6321  -2.5669
    -2.3469  -2.2287  -2.1106  -2.0107  -1.8716  -1.3135  -1.1845  -0.8654
    -0.5256  -0.3510  -0.0001   0.2703   0.5509   0.6678   0.7387   0.8417
     1.0586   1.2387   1.2879   1.6833   3.0939   3.9002   4.5763   4.9936
     5.0160   5.0795   5.2830   5.6878   6.1247   6.1632   6.1996   6.3810
     6.4418   6.5606   6.7016   6.8770   6.9137   6.9791   7.1340   7.2839
     7.3942   7.5038   7.5542   7.6033   7.7204   7.8787   7.9270   8.0577
     8.1939   8.2963   8.3470   8.5059   8.5756   8.6311   8.6745   8.8160
     8.9311   9.0437   9.1338   9.2854   9.3322   9.4783   9.5420   9.6445
     9.6994   9.9041  10.0450  10.0606  10.1836  10.2497  10.3152  10.3805
    10.5213  10.5992  10.6685  10.7693  10.7836  10.9452  11.0318  11.1134
    11.1861  11.2073  11.3647  11.4734  11.4989  11.7250  11.7482  11.7583
    11.8650  11.9408  11.9931  12.0662  12.1291  12.2294  12.2918  12.3429
    12.4377  12.4703  12.5220  12.5379  12.6294  12.7396  12.8176  12.9015
    12.9363  13.0282  13.1687  13.2155  13.2709  13.4803  13.5330  13.5823
    13.7023  13.7193  13.7609  13.8823  13.9246  14.0029  14.0833  14.1388
    14.2052  14.4054  14.4594  14.5375  14.5833  14.6511  14.7438  14.8298
    14.8904  15.0157  15.1601  15.2611  15.2990  15.3505  15.4030  15.4318
    15.5351  15.5736  15.6618  15.6862  15.7200  15.7628  15.8400  15.9277
    15.9781  16.0340  16.0778  16.1328  16.1967  16.2777  16.3360  16.4346
    16.5493  16.5982  16.7213  16.7438  16.8226  16.8593  16.9108  16.9195
    16.9533  17.0764  17.1128  17.1703  17.1937  17.2421  17.2573  17.2730
    17.2906  17.2993  17.3413  17.3673  17.3994  17.4172  17.4654  17.5048
    17.5108  17.5662  17.6538  17.7196  17.7733  17.9246  17.9413  18.0310
    18.0658  18.1316  18.2221  18.2551  18.3094  18.3634  18.4462  18.5192
    18.5770  18.5961  18.6383  18.7228  18.7766  18.8761  18.8949  18.9802
    19.0486  19.1781  19.2268  19.2607  19.3403  19.4085  19.4537  19.5435
    19.6270  19.7736  19.8421  19.9260  19.9426  19.9879  20.0321  20.0950
    20.1435  20.2560  20.2656  20.3275  20.3414  20.4058  20.4572  20.5178
    20.6548  20.7256  20.8332  20.8947  20.9234  20.9815  21.0217  21.0638
    21.1637  21.2135  21.2901  21.3072  21.4093  21.4169  21.4858  21.5711
    21.6247  21.6686  21.7757  21.8210  21.8836  21.9713  22.0299  22.0756
    22.1833

          k = 0.2500-0.4976 0.0000 ( 32026 PWs)   bands (ev):

   -55.4631 -55.4100 -55.2641 -55.1967 -55.1581 -55.1570 -55.1160 -55.0953
   -55.0497 -55.0302 -55.0251 -54.9848 -54.9810 -54.8841 -54.8487 -54.8473
   -54.8421 -54.7872 -54.7518 -54.7166 -54.7112 -54.4194 -54.1750 -53.8027
   -22.2401 -22.0332 -21.2437 -21.1546 -21.1267 -21.0999 -21.0183 -20.7610
   -20.7529 -20.6590 -20.5836 -20.4481 -20.4163 -20.3443 -20.3379 -20.1595
   -19.6394 -19.3590 -19.2702 -11.4958 -11.4154 -11.0889 -10.9345 -10.9027
   -10.7214 -10.7003 -10.5923 -10.1075  -9.8298  -9.8128  -9.7588  -9.7109
    -9.5484  -9.4333  -9.3612  -9.3213  -9.2582  -9.1390  -9.0288  -8.8338
    -8.7812  -8.6958  -8.6089  -8.5735  -8.5067  -8.3529  -8.2091  -8.1300
    -8.0969  -7.9885  -7.9483  -7.7803  -7.7362  -7.6079  -7.5206  -7.4409
    -7.3666  -7.1369  -7.0068  -6.8702  -6.7459  -6.6035  -6.3485  -6.2077
    -6.1444  -6.0466  -5.8661  -5.6823  -5.6449  -5.3717  -5.1694  -5.0785
    -5.0118  -4.8743  -4.6902  -4.5921  -4.3939  -4.2464  -4.2041  -4.1155
    -4.0562  -4.0069  -3.9190  -3.7569  -3.6987  -3.5836  -3.5183  -3.4489
    -3.3426  -3.2162  -2.9833  -2.8790  -2.8256  -2.8124  -2.6817  -2.5814
    -2.3674  -2.3180  -2.1328  -2.0369  -1.9098  -1.6186  -1.4641  -0.7953
    -0.5177  -0.0358   0.0599   0.2826   0.4040   0.5938   1.1151   1.1341
     1.1479   1.2936   1.3690   1.5596   3.7914   4.1679   4.3337   5.1132
     5.1818   5.3581   5.4012   5.6175   5.8752   5.9137   5.9189   5.9706
     6.2666   6.5945   6.6965   6.7964   6.9159   6.9326   6.9974   7.1745
     7.3474   7.4858   7.5130   7.5998   7.6557   7.7032   7.8227   7.9489
     8.0170   8.0870   8.2715   8.3156   8.4242   8.5091   8.6426   8.7583
     8.8051   8.8957   8.9623   9.0807   9.1625   9.3445   9.4041   9.6028
     9.8055   9.9449   9.9706  10.1110  10.2495  10.5690  10.6852  10.7396
    10.8189  10.9107  11.0634  11.0955  11.1179  11.2955  11.3196  11.3723
    11.4260  11.4798  11.5302  11.6353  11.6864  11.7496  11.8677  11.9821
    12.1105  12.1889  12.2408  12.2776  12.3485  12.4062  12.4486  12.5392
    12.5791  12.6627  12.8398  12.8906  12.9165  12.9702  13.0373  13.0847
    13.1450  13.1885  13.2144  13.4134  13.4714  13.5576  13.6713  13.6869
    13.7342  13.8525  13.9311  13.9964  14.0218  14.0986  14.1274  14.1586
    14.2379  14.2751  14.3406  14.4180  14.5459  14.5850  14.6419  14.6617
    14.7132  14.7564  14.8209  14.9180  15.0366  15.0487  15.1531  15.2092
    15.3140  15.3666  15.4341  15.5708  15.6679  15.7088  15.7797  15.7905
    15.8952  15.9569  16.0677  16.0915  16.1201  16.1814  16.2130  16.2675
    16.3838  16.4206  16.4889  16.5013  16.5984  16.6511  16.6765  16.7019
    16.7891  16.8725  16.9114  16.9666  16.9917  17.1468  17.1539  17.1806
    17.2585  17.2700  17.2786  17.2866  17.3183  17.3321  17.3996  17.4196
    17.4508  17.5050  17.5611  17.6484  17.7122  17.7642  17.8178  17.8993
    18.0435  18.0668  18.1274  18.1559  18.2385  18.2668  18.3030  18.3700
    18.3970  18.4233  18.4494  18.5262  18.6120  18.6373  18.6858  18.8164
    18.9068  18.9406  18.9951  19.0408  19.0987  19.1642  19.2109  19.2753
    19.3188  19.3852  19.4570  19.4943  19.5664  19.6480  19.7357  19.8376
    19.9876  20.0857  20.1043  20.1685  20.2387  20.3213  20.3585  20.4114
    20.4869  20.5544  20.5910  20.6639  20.7417  20.8038  20.8592  20.8800
    20.9866  21.0730  21.1828  21.2504  21.3050  21.4048  21.4746  21.4986
    21.5524  21.6503  21.6822  21.8431  21.8640  22.0262  22.0353  22.1327
    22.1999

          k =-0.5000 0.0000 0.0000 ( 31984 PWs)   bands (ev):

   -55.4634 -55.4123 -55.2649 -55.1811 -55.1795 -55.1398 -55.1391 -55.0858
   -55.0636 -55.0293 -55.0278 -54.9833 -54.9827 -54.8844 -54.8503 -54.8448
   -54.8438 -54.7873 -54.7522 -54.7141 -54.7137 -54.4226 -54.1756 -53.8029
   -22.1715 -22.0086 -21.2445 -21.2419 -21.1861 -21.1849 -20.8170 -20.7997
   -20.7747 -20.6564 -20.4346 -20.4254 -20.3579 -20.2703 -20.2257 -20.2059
   -19.6951 -19.5249 -19.2985 -11.0820 -11.0651 -10.9966 -10.9385 -10.8100
   -10.7724 -10.4290 -10.4023 -10.3485 -10.3274 -10.2244 -10.1717 -10.0055
    -9.9328  -9.7271  -9.6574  -9.5663  -9.4972  -9.0305  -8.9856  -8.7674
    -8.7587  -8.4983  -8.4624  -8.4089  -8.3560  -8.2320  -8.1492  -8.0712
    -8.0199  -7.8970  -7.8089  -7.7661  -7.6936  -7.6001  -7.4989  -7.4699
    -7.4269  -7.2046  -7.0387  -6.9521  -6.8423  -6.7753  -6.6104  -6.4117
    -5.7751  -5.7483  -5.6828  -5.5730  -5.5121  -5.3469  -5.2540  -5.1855
    -5.1011  -5.0197  -4.9658  -4.6287  -4.3500  -4.2932  -4.2277  -4.1567
    -3.9818  -3.8083  -3.7509  -3.6136  -3.4707  -3.4112  -3.2618  -3.0901
    -3.0658  -3.0030  -2.9947  -2.9124  -2.8235  -2.7976  -2.5577  -2.4669
    -2.4062  -2.3984  -2.3233  -2.0016  -1.8614  -0.6667  -0.4579  -0.4489
    -0.3379  -0.1553  -0.0607   0.0760   0.0802   0.1802   0.2133   0.3160
     0.4646   1.1055   1.2540   1.5096   3.6850   3.6899   4.2734   4.8246
     4.9993   5.1831   5.4593   5.6587   5.6930   5.7549   6.1872   6.3357
     6.3612   6.6010   6.6377   6.7061   7.1174   7.2580   7.4177   7.5079
     7.5575   7.7565   7.7954   7.9640   7.9810   8.1538   8.2455   8.3789
     8.4003   8.5595   8.5807   8.7344   8.7899   8.8341   8.8813   8.9940
     9.0224   9.0877   9.1575   9.1842   9.2969   9.3227   9.3977   9.4116
     9.4959   9.5689   9.6488   9.7409   9.8525   9.8710  10.0915  10.1181
    10.3011  10.3472  10.6713  10.6948  10.7579  10.7938  10.8655  10.8838
    11.2579  11.3023  11.3463  11.4560  11.5181  11.5567  11.5858  11.5989
    11.8185  11.8778  11.9302  11.9588  12.1047  12.1493  12.3555  12.4206
    12.4521  12.4908  12.5116  12.5546  12.7322  12.8064  12.8564  12.8851
    12.9911  13.0095  13.0172  13.0270  13.1191  13.1478  13.2669  13.3422
    13.5782  13.6511  13.7598  13.8110  13.8609  13.9186  14.0266  14.1592
    14.2165  14.2519  14.3636  14.4317  14.5694  14.6000  14.7015  14.7513
    15.0339  15.0644  15.1147  15.2925  15.4144  15.5324  15.5501  15.6574
    15.6968  15.7081  15.7467  15.7660  15.9399  15.9992  16.0621  16.1329
    16.1551  16.1645  16.1992  16.2714  16.2800  16.3278  16.3394  16.4143
    16.4521  16.4772  16.6330  16.6533  16.7896  16.7965  16.8829  16.9123
    17.0682  17.1225  17.1752  17.2138  17.2162  17.2573  17.2975  17.3113
    17.3172  17.3644  17.3830  17.4074  17.5575  17.6214  17.6389  17.7409
    17.8109  17.8662  17.9609  17.9788  18.0486  18.0758  18.1828  18.2239
    18.2448  18.3441  18.3695  18.4133  18.4449  18.4937  18.6688  18.6859
    18.7719  18.7945  18.8280  18.8606  18.9274  19.0024  19.0904  19.1252
    19.1889  19.2887  19.3519  19.3796  19.4617  19.4973  19.5254  19.5440
    19.5672  19.6435  19.7031  19.7507  19.8096  19.8529  19.9275  19.9629
    19.9826  20.0315  20.1048  20.1666  20.2224  20.2511  20.3583  20.4288
    20.4401  20.4663  20.5122  20.5317  20.5927  20.6128  20.6449  20.6832
    20.7417  20.7639  20.8578  20.8740  20.9466  21.1299  21.1544  21.2863
    21.3140  21.3793  21.4388  21.4547  21.6514  21.7007  21.7400  21.8179
    21.8329

          k =-0.5000 0.2488 0.0000 ( 32052 PWs)   bands (ev):

   -55.4634 -55.4122 -55.2646 -55.1808 -55.1792 -55.1395 -55.1388 -55.0858
   -55.0637 -55.0291 -55.0275 -54.9833 -54.9829 -54.8843 -54.8497 -54.8449
   -54.8442 -54.7873 -54.7522 -54.7142 -54.7137 -54.4224 -54.1754 -53.8029
   -22.1688 -22.0060 -21.1494 -21.1481 -21.0908 -21.0770 -20.8234 -20.8058
   -20.7786 -20.6736 -20.5371 -20.5202 -20.4739 -20.3882 -20.2482 -20.2185
   -19.6970 -19.5255 -19.2984 -11.0290 -10.9392 -10.7237 -10.7049 -10.6407
   -10.5369 -10.4516 -10.4355 -10.3235 -10.2776 -10.2004 -10.1296 -10.0577
    -9.9952  -9.7461  -9.6713  -9.4432  -9.3973  -8.9999  -8.9438  -8.7750
    -8.6641  -8.6135  -8.5792  -8.4705  -8.4119  -8.3514  -8.3000  -8.2650
    -8.2178  -7.9674  -7.9460  -7.8871  -7.7535  -7.6740  -7.6463  -7.4697
    -7.3562  -7.2984  -7.1025  -6.9429  -6.7725  -6.6905  -6.6365  -6.4532
    -6.1623  -6.0705  -5.9303  -5.7719  -5.5246  -5.4240  -5.3602  -4.7455
    -4.6888  -4.6420  -4.5725  -4.4676  -4.2974  -4.2532  -4.2345  -4.1652
    -3.8858  -3.7934  -3.7658  -3.6995  -3.5678  -3.4109  -3.2665  -3.1856
    -3.1553  -3.0577  -2.9590  -2.8983  -2.7792  -2.7499  -2.6631  -2.5358
    -2.4597  -2.4123  -2.3398  -2.0266  -1.8311  -0.7488  -0.7394  -0.6181
    -0.4560  -0.3254  -0.3079   0.0312   0.0579   0.4002   0.4908   0.7494
     0.7618   1.0546   1.2991   1.5783   3.9459   3.9591   4.3934   5.0691
     5.2196   5.3966   5.6262   5.6592   5.7138   5.9219   5.9384   5.9822
     6.3223   6.7091   6.7373   6.7760   6.8010   6.8942   7.0642   7.1369
     7.3409   7.5143   7.5430   7.6355   7.6714   7.7897   7.8788   7.9935
     8.1238   8.2121   8.2292   8.4353   8.4766   8.5998   8.6249   8.7797
     8.8634   9.1444   9.2288   9.2562   9.3851   9.5091   9.5528   9.5853
     9.7225   9.8906  10.0372  10.0701  10.3899  10.4766  10.5488  10.5888
    10.7807  10.7997  10.9453  10.9610  11.0570  11.0849  11.1907  11.2093
    11.3362  11.4241  11.5479  11.6141  11.6923  11.7961  11.8438  11.8704
    12.0728  12.1065  12.1738  12.2202  12.3081  12.4177  12.5485  12.5782
    12.6608  12.6902  12.7442  12.7651  12.8843  12.9029  13.0036  13.0728
    13.1404  13.2029  13.2343  13.2838  13.3278  13.3828  13.4198  13.5547
    13.5982  13.6904  13.8532  13.9323  13.9551  14.0174  14.0509  14.0799
    14.1723  14.2489  14.2972  14.3613  14.4285  14.4806  14.5404  14.5678
    14.5931  14.7235  14.7900  14.8546  14.8973  15.0200  15.1207  15.2344
    15.2796  15.3130  15.5415  15.6079  15.6964  15.7348  15.7755  15.8480
    15.9140  15.9886  16.0531  16.0659  16.1715  16.2171  16.2492  16.2917
    16.3604  16.4117  16.5206  16.5527  16.6212  16.6387  16.7107  16.8331
    16.8730  16.9176  16.9839  17.0920  17.1036  17.1479  17.2191  17.2573
    17.2611  17.2952  17.3237  17.3433  17.3581  17.3843  17.3913  17.4451
    17.4817  17.5613  17.5912  17.6146  17.7953  17.8875  17.9400  18.0235
    18.0537  18.0736  18.1143  18.1798  18.2232  18.2440  18.2849  18.3768
    18.4225  18.4908  18.5088  18.6548  18.6817  18.7543  18.7920  18.8603
    18.9208  18.9611  19.0480  19.0845  19.2370  19.2628  19.3033  19.3420
    19.3962  19.5136  19.5470  19.6161  19.6713  19.7368  19.8502  19.8823
    19.9201  19.9733  20.0133  20.1578  20.2948  20.3429  20.3899  20.5164
    20.5772  20.6072  20.6971  20.7668  20.8442  20.9200  21.0153  21.0762
    21.1008  21.1364  21.1772  21.3109  21.3418  21.4578  21.5385  21.5834
    21.6938  21.7067  21.7835  21.8236  21.8811  21.9274  21.9881  22.0497
    22.0982

          k =-0.5000-0.4976 0.0000 ( 31956 PWs)   bands (ev):

   -55.4634 -55.4120 -55.2643 -55.1804 -55.1789 -55.1391 -55.1384 -55.0859
   -55.0638 -55.0287 -55.0271 -54.9833 -54.9830 -54.8842 -54.8491 -54.8452
   -54.8445 -54.7873 -54.7521 -54.7143 -54.7138 -54.4222 -54.1751 -53.8029
   -22.1661 -22.0035 -20.9577 -20.9446 -20.9288 -20.9080 -20.8894 -20.8408
   -20.8090 -20.7830 -20.6716 -20.6551 -20.6351 -20.5316 -20.2576 -20.2263
   -19.6986 -19.5260 -19.2983 -11.0445 -10.9481 -10.5703 -10.5488 -10.5212
   -10.4828 -10.3194 -10.3105 -10.1698 -10.0625  -9.8732  -9.8378  -9.8199
    -9.7201  -9.6505  -9.5199  -9.4501  -9.4427  -9.4075  -9.2013  -9.1657
    -9.1088  -8.8803  -8.8390  -8.6478  -8.5375  -8.4896  -8.3604  -8.2449
    -8.1279  -8.0992  -7.9445  -7.7788  -7.7307  -7.6709  -7.6251  -7.3545
    -7.3160  -7.2391  -7.1597  -7.1299  -6.8097  -6.7681  -6.6662  -6.4901
    -6.3903  -6.3073  -6.2259  -5.9781  -5.4814  -5.3782  -5.3551  -4.6415
    -4.3615  -4.3383  -4.3154  -4.2760  -4.2033  -4.1552  -4.1480  -4.0666
    -3.7924  -3.7721  -3.7565  -3.7215  -3.5221  -3.4784  -3.4688  -3.1919
    -3.1820  -3.1503  -2.9764  -2.8703  -2.7824  -2.7203  -2.6956  -2.6010
    -2.5070  -2.4951  -2.3225  -2.0583  -1.8122  -1.0910  -0.9796  -0.9559
    -0.6083  -0.4595  -0.2758   0.0862   0.1070   0.6899   0.8218   0.8593
     0.9470   1.2765   1.3330   1.4362   4.4576   4.4882   4.5699   4.9080
     4.9284   5.6915   5.8398   5.8767   5.9050   6.0400   6.0851   6.1477
     6.3097   6.4889   6.4927   6.5878   6.5929   6.6002   6.6185   6.7154
     7.0662   7.1732   7.2990   7.3600   7.4482   7.5074   7.5594   7.6015
     7.9385   8.0649   8.3019   8.3239   8.4167   8.5789   8.6267   8.8808
     8.8907   8.9991   9.0797   9.3421   9.3902   9.4441   9.5361   9.5558
     9.7008   9.7864  10.1513  10.2259  10.4084  10.6399  10.6662  10.6715
    10.8026  10.8702  11.2716  11.2820  11.4743  11.5769  11.7179  11.7764
    11.9598  11.9675  11.9964  12.0155  12.1684  12.2140  12.3585  12.4106
    12.5993  12.6466  12.6724  12.7919  12.8064  12.8562  12.9011  12.9111
    13.0693  13.0807  13.1274  13.1495  13.1932  13.2278  13.2460  13.2783
    13.2928  13.3143  13.5234  13.5343  13.5675  13.5854  13.5929  13.6180
    13.6601  13.7153  13.7455  13.7742  13.8073  13.8258  13.8563  13.8845
    13.9262  13.9581  14.0223  14.0806  14.2682  14.3144  14.3757  14.4402
    14.4883  14.6514  14.6825  14.7524  14.7997  14.8175  14.8307  14.8494
    14.8830  14.9229  14.9535  14.9909  15.0341  15.0885  15.2516  15.2849
    15.3121  15.3853  15.4753  15.4821  15.5173  15.5866  15.6762  15.7649
    15.7872  15.8398  16.0844  16.1478  16.3532  16.3691  16.4535  16.5001
    16.5209  16.5608  16.6032  16.6467  16.6640  16.7534  16.8928  16.9995
    17.0957  17.1942  17.2656  17.2904  17.2966  17.3030  17.3257  17.3652
    17.4104  17.4166  17.5116  17.6027  17.6811  17.7932  17.8548  17.9062
    17.9329  17.9812  17.9960  18.1925  18.2671  18.3029  18.4048  18.5053
    18.5484  18.5879  18.6405  18.7718  18.8764  18.9346  19.0114  19.0506
    19.1420  19.2321  19.2767  19.3538  19.3939  19.5636  19.6757  19.7120
    19.7151  19.7705  19.8752  19.9637  20.0051  20.0546  20.1298  20.2285
    20.3017  20.3881  20.4349  20.4775  20.5048  20.5231  20.5738  20.6724
    20.6906  20.7580  20.8024  20.8258  20.8790  20.9204  21.0155  21.0268
    21.0486  21.0822  21.1633  21.1837  21.2588  21.2736  21.3380  21.3483
    21.3771  21.4344  21.4721  21.4974  21.5355  21.6268  21.6763  21.7324
    21.7505

          k =-0.2500 0.2488 0.0000 ( 32025 PWs)   bands (ev):

   -55.4632 -55.4102 -55.2645 -55.1972 -55.1582 -55.1575 -55.1160 -55.0953
   -55.0496 -55.0301 -55.0257 -54.9842 -54.9814 -54.8842 -54.8497 -54.8463
   -54.8422 -54.7872 -54.7519 -54.7164 -54.7113 -54.4196 -54.1752 -53.8026
   -22.2469 -22.0347 -21.4286 -21.3824 -21.0656 -21.0141 -21.0085 -20.7684
   -20.7381 -20.6177 -20.5160 -20.4370 -20.4234 -20.2499 -20.1908 -20.1591
   -19.6429 -19.3528 -19.2708 -11.5155 -11.3844 -11.2917 -11.2363 -10.8717
   -10.8125 -10.7162 -10.4963 -10.3694 -10.0747  -9.9435  -9.9020  -9.7619
    -9.6319  -9.5404  -9.4550  -9.2982  -9.2281  -9.0873  -8.8835  -8.8425
    -8.6990  -8.6629  -8.5420  -8.4158  -8.3057  -8.2072  -8.1122  -8.0561
    -7.9492  -7.8850  -7.8149  -7.7564  -7.6291  -7.5478  -7.4574  -7.3721
    -7.2659  -7.2281  -7.0579  -6.8910  -6.8028  -6.5049  -6.2682  -6.1216
    -5.8968  -5.8697  -5.7897  -5.6900  -5.5719  -5.4690  -5.3797  -5.2079
    -5.0709  -4.8884  -4.7251  -4.5857  -4.5409  -4.3888  -4.3423  -4.2618
    -4.1077  -4.0584  -3.9769  -3.8129  -3.7078  -3.6950  -3.4377  -3.3696
    -3.2798  -3.0798  -2.9508  -2.8271  -2.7894  -2.6878  -2.6465  -2.5305
    -2.3489  -2.2285  -2.1098  -2.0133  -1.8723  -1.3249  -1.1840  -0.8652
    -0.5279  -0.3485  -0.0004   0.2698   0.5487   0.6722   0.7404   0.8415
     1.0588   1.2371   1.2880   1.6835   3.0912   3.8993   4.5782   5.0130
     5.0277   5.1019   5.2876   5.6872   6.1227   6.1588   6.1824   6.3471
     6.4336   6.5244   6.6888   6.8715   6.9221   6.9732   7.1260   7.2699
     7.3937   7.5124   7.5823   7.6173   7.7213   7.8711   7.9461   8.0863
     8.1981   8.3117   8.3485   8.4930   8.5697   8.6391   8.6671   8.8060
     8.9013   9.0493   9.1518   9.2929   9.3348   9.4805   9.5592   9.6212
     9.6988   9.8676  10.0421  10.0844  10.1814  10.2532  10.3080  10.3883
    10.5266  10.5817  10.6523  10.7677  10.7767  10.9729  11.0561  11.1103
    11.1922  11.2148  11.3812  11.4719  11.4833  11.7237  11.7356  11.7808
    11.8678  11.9427  12.0127  12.0786  12.1365  12.2506  12.3051  12.3482
    12.4112  12.4538  12.5395  12.5802  12.6416  12.7387  12.8106  12.9428
    12.9770  13.0414  13.1508  13.2085  13.2458  13.4575  13.5377  13.5758
    13.6592  13.6998  13.7716  13.8727  13.9349  13.9828  14.0757  14.1440
    14.1960  14.3697  14.4194  14.5270  14.5759  14.6365  14.7698  14.8578
    14.8756  14.9506  15.1332  15.2198  15.2616  15.3174  15.4022  15.4473
    15.5215  15.5802  15.6470  15.6799  15.7374  15.7653  15.8239  15.8847
    15.9919  16.0557  16.0707  16.1403  16.1713  16.2582  16.3669  16.4327
    16.5004  16.5750  16.7432  16.7739  16.8339  16.8624  16.8945  16.9115
    17.0065  17.0934  17.1290  17.1759  17.1965  17.2300  17.2606  17.2752
    17.2993  17.3088  17.3408  17.3736  17.3979  17.4128  17.4786  17.5192
    17.5450  17.5816  17.6211  17.7370  17.7906  17.9035  17.9600  18.0410
    18.0822  18.1371  18.2103  18.2717  18.3070  18.4079  18.4993  18.5453
    18.5994  18.6298  18.6723  18.7368  18.8388  18.8906  18.8993  19.0221
    19.0642  19.1802  19.2031  19.2345  19.3270  19.3775  19.4546  19.5074
    19.6583  19.7898  19.8418  19.8951  19.9687  19.9893  20.0076  20.0865
    20.1560  20.2327  20.2546  20.3244  20.3714  20.3949  20.5167  20.5970
    20.6817  20.7219  20.7613  20.8676  20.9264  20.9566  21.0238  21.0507
    21.0765  21.2429  21.2629  21.3822  21.4023  21.4552  21.5072  21.5651
    21.6162  21.6642  21.7458  21.7953  21.8368  21.9040  22.0192  22.1115
    22.1478

     the Fermi energy is    -2.0633 ev

!    total energy              =   -2278.89412904 Ry
     Harris-Foulkes estimate   =   -2278.89412925 Ry
     estimated scf accuracy    <       0.00000027 Ry

     The total energy is the sum of the following terms:

     one-electron contribution =  -23641.67546280 Ry
     hartree contribution      =   11863.94997787 Ry
     xc contribution           =    -572.16268005 Ry
     ewald contribution        =   10069.15257164 Ry
     Hubbard energy            =       1.84190271 Ry
     smearing contrib. (-TS)   =      -0.00043841 Ry

     convergence has been achieved in  36 iterations

     Forces acting on atoms (Ry/au):


     negative rho (up, down):  0.157E+01 0.000E+00
     atom    1 type  1   force =    -0.00943420   -0.00530142   -0.00250230
     atom    2 type  1   force =     0.00013502    0.00269437    0.00169182
     atom    3 type  2   force =     0.01644247    0.00783818   -0.00329222
     atom    4 type  2   force =     0.01132390    0.00466910   -0.00076310
     atom    5 type  1   force =     0.00112323   -0.00340652   -0.00287859
     atom    6 type  1   force =    -0.00013026   -0.00261408    0.00326697
     atom    7 type  1   force =     0.00009214    0.00093133   -0.00192799
     atom    8 type  1   force =    -0.00438549    0.00212722    0.00577242
     atom    9 type  2   force =     0.00425170   -0.00449689   -0.00925498
     atom   10 type  2   force =     0.00000328   -0.01915268   -0.00026077
     atom   11 type  1   force =    -0.00060369    0.00226471   -0.00283224
     atom   12 type  1   force =    -0.00694972    0.01242132    0.00331571
     atom   13 type  1   force =    -0.00113429   -0.00736995    0.00462311
     atom   14 type  1   force =    -0.00986225   -0.00414158   -0.00241455
     atom   15 type  1   force =     0.00025552   -0.00058358    0.00293699
     atom   16 type  2   force =    -0.01729143    0.00775440   -0.00344249
     atom   17 type  2   force =     0.01123150    0.00518640   -0.00085289
     atom   18 type  1   force =     0.00120179   -0.00336889   -0.00285353
     atom   19 type  1   force =     0.00016115   -0.00254581    0.00327113
     atom   20 type  1   force =     0.00008176   -0.00470677    0.00357468
     atom   21 type  1   force =    -0.00416432    0.00222832    0.00532666
     atom   22 type  2   force =    -0.00031164   -0.00434696   -0.00944949
     atom   23 type  2   force =    -0.00023356    0.00903917   -0.02629446
     atom   24 type  1   force =     0.00070605    0.00231263   -0.00285657
     atom   25 type  1   force =     0.00709962    0.01239705    0.00333397
     atom   26 type  1   force =    -0.00115340   -0.01633962    0.00694016
     atom   27 type  3   force =    -0.00002002    0.00006459    0.00289862
     atom   28 type  3   force =    -0.00004837    0.00104023    0.00239560
     atom   29 type  3   force =     0.00060426   -0.00016204    0.00201036
     atom   30 type  3   force =     0.00097802   -0.00047372    0.00198486
     atom   31 type  1   force =     0.00003124    0.00604152    0.01853312

     Total force =     0.039276     Total SCF correction =     0.000821

     BFGS Geometry Optimization

     number of scf cycles    =   1
     number of bfgs steps    =   0

     energy   new            =   -2278.8941290358 Ry

     new trust radius        =       0.0262944602 bohr
     new conv_thr            =       0.0000010000 Ry


ATOMIC_POSITIONS (crystal)
O0       0.000000000   0.000000000   0.377660015    0   0   1
O0       0.000000000   0.500000000   0.401663795    0   0   1
Pt1      0.250000000   0.500000000   0.451174236    0   0   1
Pt1      0.000000000   0.000000000   0.452694757    0   0   1
O0       0.250000000   0.810000000   0.443332499    0   0   1
O0       0.250000000   0.190000000   0.460145259    0   0   1
O0       0.000000000   0.500000000   0.496771487    0   0   1
O0       0.000000000   0.000000000   0.529815307    0   0   1
Pt1      0.250000000   0.000000000   0.575885127    0   0   1
Pt1      0.000000000   0.500000000   0.575344791    0   0   1
O0       0.250000000   0.690000000   0.566063424    0   0   1
O0       0.250000000   0.310000000   0.585836233    0   0   1
O0       0.000000000   0.000000000   0.621472349    0   0   1
O0       0.500000000   0.000000000   0.377741768    0   0   1
O0       0.500000000   0.500000000   0.400938668    0   0   1
Pt1      0.750000000   0.500000000   0.451181234    0   0   1
Pt1      0.500000000   0.000000000   0.452702963    0   0   1
O0       0.750000000   0.810000000   0.443372999    0   0   1
O0       0.750000000   0.190000000   0.460135343    0   0   1
O0       0.500000000   0.500000000   0.498291406    0   0   1
O0       0.500000000   0.000000000   0.529666403    0   0   1
Pt1      0.750000000   0.000000000   0.575891241    0   0   1
Pt1      0.500000000   0.500000000   0.577344754    0   0   1
O0       0.750000000   0.690000000   0.566052938    0   0   1
O0       0.750000000   0.310000000   0.585846598    0   0   1
O0       0.500000000   0.000000000   0.621488634    0   0   1
H2       0.000108360   0.639505265   0.385707902
H2       0.500176038   0.640104801   0.385377854
H2       0.142709499   0.036306790   0.367620158
H2       0.642000116   0.038651382   0.367619649
O0       0.500092559   0.573092515   0.644830209


     Check: negative starting charge=   -1.533958
     NEW-OLD atomic charge density approx. for the potential

     Check: negative/imaginary core charge=   -0.000003    0.000000
     Check: negative starting charge=   -1.533697

     negative rho (up, down):  0.157E+01 0.000E+00
 Atomic wfc used for LDA+U Projector are NOT orthogonalized

     total cpu time spent up to now is     7517.1 secs

     per-process dynamical memory:   453.4 Mb

     Self-consistent Calculation

     iteration #  1     ecut=    40.00 Ry     beta=0.70
     Davidson diagonalization with overlap
     ethr =  1.00E-06,  avg # of iterations =  4.2
 --- enter write_ns ---
 LDA+U parameters:
U( 2)     =  7.00000000
alpha( 2) =  0.00000000
atom    3   Tr[ns(na)] =   8.80246
    eigenvalues: 
  0.710  0.722  0.989  0.989  0.992
    eigenvectors:
  0.057  0.114  0.496  0.332  0.001
  0.679  0.321  0.000  0.000  0.000
  0.001  0.003  0.008  0.042  0.946
  0.263  0.562  0.107  0.062  0.007
  0.000  0.000  0.390  0.564  0.046
    occupations:
  0.942  0.004  0.007 -0.102 -0.000
  0.004  0.714  0.002  0.004 -0.004
  0.007  0.002  0.991  0.016  0.001
 -0.102  0.004  0.016  0.765  0.000
 -0.000 -0.004  0.001  0.000  0.989
atom    4   Tr[ns(na)] =   8.79255
    eigenvalues: 
  0.704  0.727  0.987  0.988  0.989
    eigenvectors:
  0.000  0.986  0.009  0.005  0.000
  0.009  0.000  0.149  0.745  0.096
  0.000  0.004  0.556  0.009  0.430
  0.000  0.010  0.284  0.234  0.472
  0.991  0.000  0.001  0.007  0.001
    occupations:
  0.731 -0.004 -0.017  0.025 -0.001
 -0.004  0.986  0.000  0.000  0.027
 -0.017  0.000  0.987  0.002 -0.000
  0.025  0.000  0.002  0.986  0.000
 -0.001  0.027 -0.000  0.000  0.707
atom    9   Tr[ns(na)] =   8.78464
    eigenvalues: 
  0.726  0.736  0.967  0.975  0.989
    eigenvectors:
  0.005  0.129  0.001  0.009  0.857
  0.962  0.037  0.000  0.000  0.000
  0.001  0.010  0.009  0.977  0.003
  0.032  0.824  0.000  0.005  0.139
  0.000  0.000  0.989  0.009  0.001
    occupations:
  0.955  0.001 -0.008 -0.086  0.001
  0.001  0.726  0.001  0.002 -0.004
 -0.008  0.001  0.973 -0.023  0.001
 -0.086  0.002 -0.023  0.772 -0.000
  0.001 -0.004  0.001 -0.000  0.967
atom   10   Tr[ns(na)] =   8.85871
    eigenvalues: 
  0.674  0.791  0.985  0.988  0.992
    eigenvectors:
  0.000  0.974  0.000  0.015  0.011
  0.013  0.000  0.987  0.000  0.000
  0.000  0.001  0.000  0.210  0.789
  0.000  0.025  0.000  0.775  0.201
  0.987  0.000  0.013  0.000  0.000
    occupations:
  0.796  0.000 -0.007  0.031  0.000
  0.000  0.981  0.000 -0.000 -0.035
 -0.007  0.000  0.990 -0.000 -0.000
[...]
    10.3026  10.3437  10.6484  10.6820  10.7605  10.7961  10.8592  10.8851
    11.2469  11.2901  11.3199  11.4569  11.5127  11.5548  11.5991  11.6083
    11.8203  11.8688  11.9309  11.9552  12.1307  12.1457  12.3430  12.3955
    12.4515  12.4868  12.5040  12.5333  12.7340  12.8231  12.8545  12.8747
    12.9807  12.9976  13.0057  13.0171  13.1178  13.1515  13.2558  13.3428
    13.5535  13.6378  13.7613  13.8135  13.8587  13.9201  14.0344  14.1597
    14.2132  14.2526  14.4133  14.4621  14.5942  14.5989  14.6988  14.7672
    15.0641  15.0952  15.1173  15.3186  15.3977  15.5298  15.5401  15.6621
    15.7168  15.7304  15.7719  15.7868  15.9514  16.0119  16.0784  16.1467
    16.1550  16.2013  16.2189  16.2855  16.2976  16.3384  16.3668  16.4213
    16.4734  16.4812  16.6478  16.6905  16.8108  16.8156  16.9220  16.9303
    17.0639  17.1042  17.1758  17.2081  17.2198  17.2459  17.2831  17.3062
    17.3075  17.3583  17.3744  17.3987  17.5631  17.6045  17.6218  17.7407
    17.7999  17.8576  17.9512  17.9983  18.0437  18.0719  18.1556  18.1898
    18.2224  18.3323  18.3520  18.3749  18.4087  18.4846  18.6791  18.6953
    18.7801  18.7934  18.8425  18.8545  18.9393  18.9910  19.1062  19.1248
    19.1992  19.2699  19.3312  19.3581  19.4466  19.4919  19.5261  19.5360
    19.5683  19.6297  19.6953  19.7578  19.8150  19.8448  19.9264  19.9572
    19.9751  20.0252  20.0990  20.1719  20.2325  20.2537  20.3359  20.4078
    20.4268  20.4622  20.5250  20.5456  20.5891  20.6119  20.6388  20.6734
    20.7361  20.7602  20.8406  20.8833  20.9462  21.1578  21.1768  21.3048
    21.3303  21.3919  21.4232  21.4526  21.6473  21.6914  21.7203  21.8009
    21.8169

          k =-0.5000 0.2488 0.0000 ( 32052 PWs)   bands (ev):

   -55.3909 -55.3534 -55.2184 -55.2158 -55.2142 -55.1393 -55.1386 -55.0923
   -55.0708 -55.0633 -55.0620 -54.9797 -54.9794 -54.9056 -54.8714 -54.8682
   -54.8673 -54.7783 -54.7431 -54.7093 -54.7089 -54.4434 -54.2113 -53.8397
   -22.2331 -22.0766 -21.1752 -21.1729 -21.0737 -21.0603 -20.8646 -20.8297
   -20.7974 -20.7408 -20.5683 -20.5514 -20.4633 -20.3862 -20.2614 -20.2317
   -19.7124 -19.5144 -19.1924 -11.0685 -10.9830 -10.7200 -10.7097 -10.6424
   -10.5422 -10.4547 -10.4478 -10.3140 -10.2941 -10.1985 -10.1269 -10.0525
   -10.0055  -9.7496  -9.6771  -9.4502  -9.4110  -9.0058  -8.9487  -8.7746
    -8.6790  -8.6208  -8.5772  -8.4770  -8.4281  -8.3614  -8.3202  -8.2626
    -8.2144  -7.9777  -7.9551  -7.8852  -7.7588  -7.7066  -7.6596  -7.4638
    -7.3542  -7.2917  -7.0972  -6.9234  -6.7561  -6.6848  -6.6350  -6.4593
    -6.1775  -6.0958  -5.9471  -5.7767  -5.5494  -5.4372  -5.3770  -4.7738
    -4.7175  -4.6590  -4.5810  -4.4820  -4.3182  -4.2674  -4.2446  -4.1923
    -3.8973  -3.8244  -3.7972  -3.7142  -3.6095  -3.4256  -3.2938  -3.2356
    -3.1904  -3.0802  -2.9958  -2.9482  -2.8398  -2.8119  -2.7066  -2.5565
    -2.4939  -2.4429  -2.3549  -2.0317  -1.8431  -0.7794  -0.7721  -0.6517
    -0.4798  -0.3567  -0.3153   0.0034   0.0277   0.3645   0.4455   0.6885
     0.7250   0.9997   1.2340   1.5063   3.9475   3.9600   4.3462   5.0491
     5.2203   5.3938   5.6316   5.6555   5.7135   5.9130   5.9279   5.9776
     6.3031   6.6804   6.6970   6.7524   6.7777   6.8875   7.0552   7.1367
     7.3132   7.5026   7.5328   7.6112   7.6541   7.7651   7.8544   7.9645
     8.0831   8.1737   8.1919   8.4170   8.4543   8.5751   8.5922   8.7582
     8.8388   9.1144   9.2279   9.2535   9.3809   9.5276   9.5402   9.5645
     9.7343   9.8927  10.0358  10.0690  10.3861  10.4707  10.5449  10.5897
    10.7741  10.7973  10.9425  10.9531  11.0428  11.0701  11.1846  11.2104
    11.3327  11.4258  11.5537  11.6131  11.6789  11.7868  11.8275  11.8528
    12.0770  12.1090  12.1750  12.2204  12.3172  12.4058  12.5503  12.5750
    12.6494  12.6918  12.7369  12.7592  12.8801  12.9039  13.0011  13.0727
    13.1318  13.1941  13.2321  13.2786  13.3253  13.3744  13.4151  13.5690
    13.6148  13.7026  13.8600  13.9323  13.9620  14.0415  14.0665  14.1052
    14.1717  14.2555  14.3096  14.3561  14.4318  14.4854  14.5529  14.5736
    14.6048  14.7282  14.7941  14.8670  14.9117  15.0826  15.1444  15.2527
    15.2970  15.3308  15.5586  15.6099  15.6979  15.7357  15.7808  15.8603
    15.9193  16.0009  16.0645  16.0853  16.1815  16.2314  16.2612  16.3069
    16.3740  16.4229  16.5330  16.5578  16.6384  16.6438  16.7209  16.8630
    16.8927  16.9434  16.9827  17.1068  17.1238  17.1611  17.2238  17.2426
    17.2467  17.2898  17.3202  17.3407  17.3528  17.3845  17.3869  17.4386
    17.4889  17.5692  17.6116  17.6360  17.7918  17.8768  17.9371  18.0167
    18.0483  18.0769  18.1193  18.1772  18.2172  18.2417  18.2607  18.3796
    18.4147  18.4862  18.5111  18.6526  18.6736  18.7477  18.7866  18.8609
    18.9166  18.9556  19.0343  19.0808  19.2307  19.2628  19.3078  19.3404
    19.3968  19.4992  19.5370  19.6027  19.6433  19.7179  19.8365  19.8675
    19.9303  19.9643  20.0055  20.1351  20.2893  20.3389  20.3856  20.5254
    20.5704  20.6000  20.6949  20.7580  20.8177  20.9028  20.9920  21.0479
    21.1024  21.1359  21.1746  21.2987  21.3137  21.4500  21.5456  21.5755
    21.7049  21.7129  21.7873  21.8250  21.8732  21.9182  21.9766  22.0451
    22.0799

          k =-0.5000-0.4976 0.0000 ( 31956 PWs)   bands (ev):

   -55.3908 -55.3533 -55.2180 -55.2155 -55.2138 -55.1390 -55.1382 -55.0924
   -55.0714 -55.0628 -55.0612 -54.9797 -54.9795 -54.9055 -54.8701 -54.8686
   -54.8681 -54.7782 -54.7430 -54.7094 -54.7089 -54.4432 -54.2110 -53.8397
   -22.2305 -22.0741 -20.9744 -20.9702 -20.9697 -20.9459 -20.9054 -20.8523
   -20.8196 -20.7939 -20.6857 -20.6725 -20.6209 -20.5503 -20.2737 -20.2416
   -19.7148 -19.5149 -19.1918 -11.0849 -10.9966 -10.5858 -10.5478 -10.5431
   -10.4999 -10.3589 -10.3084 -10.1847 -10.0918  -9.8754  -9.8566  -9.8209
    -9.7124  -9.6777  -9.5108  -9.4556  -9.4523  -9.3695  -9.2023  -9.1553
    -9.1106  -8.8603  -8.8226  -8.6265  -8.5404  -8.4930  -8.3679  -8.2460
    -8.1376  -8.1050  -7.9611  -7.8005  -7.7318  -7.6742  -7.6285  -7.3693
    -7.3316  -7.2355  -7.1698  -7.1209  -6.8152  -6.7857  -6.6607  -6.4857
    -6.3750  -6.3139  -6.2307  -5.9823  -5.5118  -5.3882  -5.3712  -4.6631
    -4.3803  -4.3569  -4.3454  -4.2698  -4.2381  -4.1716  -4.1631  -4.0650
    -3.8324  -3.8152  -3.7433  -3.7358  -3.5805  -3.4978  -3.4833  -3.2371
    -3.2243  -3.1542  -3.0169  -2.9252  -2.8525  -2.7907  -2.7691  -2.6147
    -2.5350  -2.5187  -2.3412  -2.0573  -1.8388  -1.0885  -1.0117  -0.9851
    -0.6408  -0.4678  -0.2820   0.0545   0.0900   0.6274   0.7881   0.8156
     0.8826   1.2005   1.2624   1.3658   4.4519   4.5037   4.5369   4.8979
     4.9156   5.6524   5.8096   5.8733   5.8822   6.0261   6.0841   6.1419
     6.3037   6.4682   6.4838   6.5794   6.5881   6.5945   6.6053   6.7091
     7.0522   7.1551   7.2643   7.3411   7.4400   7.4956   7.5402   7.5781
     7.8977   8.0156   8.2751   8.3113   8.3792   8.5470   8.5944   8.8549
     8.8590   8.9889   9.0408   9.3131   9.3724   9.4254   9.5110   9.5323
     9.7136   9.7720  10.1675  10.2250  10.3966  10.6180  10.6621  10.6722
    10.7784  10.8517  11.2525  11.2556  11.4757  11.5667  11.7374  11.7811
    11.9439  11.9745  12.0012  12.0172  12.1478  12.1993  12.3444  12.4055
    12.6112  12.6423  12.6679  12.7968  12.8106  12.8489  12.9004  12.9210
    13.0783  13.0918  13.1120  13.1537  13.1860  13.2371  13.2512  13.2908
    13.3038  13.3287  13.5190  13.5305  13.5717  13.5887  13.6049  13.6266
    13.6668  13.7194  13.7485  13.7794  13.8132  13.8288  13.8517  13.8901
    13.9253  13.9523  14.0185  14.0850  14.2870  14.3343  14.3954  14.4627
    14.4855  14.6530  14.6954  14.7519  14.7987  14.8222  14.8320  14.8634
    14.8898  14.9228  14.9553  15.0139  15.0406  15.0984  15.2711  15.2892
    15.3217  15.4338  15.4993  15.5059  15.5312  15.6060  15.7084  15.7773
    15.7953  15.8689  16.1037  16.1664  16.3541  16.3784  16.4711  16.5179
    16.5353  16.5832  16.6236  16.6553  16.6868  16.7534  16.9430  17.0241
    17.1163  17.1917  17.2580  17.2809  17.2870  17.2987  17.3164  17.3651
    17.4062  17.4212  17.4988  17.6001  17.6747  17.8262  17.8735  17.9046
    17.9617  18.0074  18.0243  18.2076  18.2333  18.3285  18.4020  18.5125
    18.5509  18.5859  18.6466  18.7494  18.8763  18.9276  19.0126  19.0228
    19.1412  19.2300  19.2841  19.3312  19.3766  19.5287  19.6675  19.7038
    19.7268  19.7739  19.8556  19.9531  19.9993  20.0444  20.1190  20.2122
    20.3036  20.3692  20.4270  20.4723  20.4994  20.5046  20.5596  20.6557
    20.6719  20.7297  20.7920  20.8287  20.8521  20.8706  21.0036  21.0201
    21.0435  21.0893  21.1678  21.1819  21.2481  21.2628  21.3285  21.3398
    21.3662  21.4237  21.4537  21.4985  21.5302  21.6085  21.6585  21.7264
    21.7414

          k =-0.2500 0.2488 0.0000 ( 32025 PWs)   bands (ev):

   -55.3906 -55.3515 -55.2326 -55.2180 -55.1931 -55.1574 -55.1158 -55.1017
   -55.0650 -55.0607 -55.0557 -54.9807 -54.9778 -54.9055 -54.8718 -54.8687
   -54.8657 -54.7781 -54.7428 -54.7115 -54.7064 -54.4406 -54.2111 -53.8394
   -22.3171 -22.1017 -21.4507 -21.3580 -21.0949 -21.0311 -20.9917 -20.8026
   -20.7685 -20.6889 -20.5440 -20.4554 -20.4231 -20.2638 -20.1885 -20.1773
   -19.6538 -19.3349 -19.1789 -11.5444 -11.4014 -11.3393 -11.2024 -10.8837
   -10.8088 -10.7380 -10.5081 -10.3692 -10.0927  -9.9518  -9.9152  -9.7565
    -9.6218  -9.5301  -9.4722  -9.3076  -9.2182  -9.1059  -8.9070  -8.8430
    -8.7100  -8.6725  -8.5737  -8.4292  -8.3215  -8.2061  -8.1144  -8.0401
    -7.9518  -7.8806  -7.8076  -7.7560  -7.6371  -7.5284  -7.4546  -7.3808
    -7.2595  -7.2217  -7.0486  -6.8690  -6.8083  -6.5301  -6.2869  -6.1389
    -5.9090  -5.8892  -5.8113  -5.6916  -5.5719  -5.4888  -5.4087  -5.2076
    -5.0851  -4.9144  -4.7464  -4.5980  -4.5716  -4.4160  -4.3546  -4.2819
    -4.1204  -4.0759  -3.9990  -3.8520  -3.7305  -3.7218  -3.4520  -3.3985
    -3.3092  -3.1287  -2.9869  -2.8758  -2.8353  -2.7427  -2.7112  -2.5959
    -2.3917  -2.2605  -2.1293  -2.0328  -1.8762  -1.3398  -1.1741  -0.8820
    -0.5321  -0.3822  -0.0430   0.2611   0.4885   0.6162   0.6811   0.7786
     1.0101   1.1742   1.2667   1.6142   3.0795   3.8663   4.5779   5.0098
     5.0340   5.1012   5.2847   5.6591   6.0961   6.1439   6.1805   6.3258
     6.4251   6.5122   6.6738   6.8519   6.9119   6.9659   7.1046   7.2320
     7.3592   7.4792   7.5612   7.5910   7.7058   7.8619   7.9332   8.0483
     8.1786   8.2815   8.3182   8.4652   8.5548   8.6373   8.6629   8.7991
     8.8778   9.0320   9.1331   9.2788   9.3414   9.4754   9.5423   9.6092
     9.6947   9.8730  10.0395  10.0857  10.1784  10.2413  10.3076  10.3840
    10.5216  10.5753  10.6464  10.7544  10.7832  10.9700  11.0503  11.0862
    11.1697  11.1982  11.3794  11.4607  11.4829  11.7214  11.7446  11.7827
    11.8688  11.9501  12.0088  12.0845  12.1464  12.2504  12.2912  12.3341
    12.4129  12.4564  12.5308  12.5849  12.6438  12.7395  12.8081  12.9513
    12.9902  13.0481  13.1731  13.2286  13.2522  13.4613  13.5301  13.5806
    13.6544  13.6971  13.7798  13.8747  13.9492  13.9806  14.0692  14.1362
    14.1910  14.3624  14.4226  14.5434  14.5797  14.6374  14.7789  14.8694
    14.8905  14.9572  15.1460  15.2283  15.2724  15.3350  15.4151  15.4614
    15.5378  15.5966  15.6504  15.6866  15.7543  15.7801  15.8355  15.9021
    15.9947  16.0536  16.0783  16.1540  16.1914  16.2678  16.3839  16.4546
    16.5086  16.5868  16.7532  16.7892  16.8502  16.8848  16.9036  16.9394
    17.0159  17.0990  17.1436  17.1777  17.2124  17.2305  17.2506  17.2679
    17.3020  17.3093  17.3431  17.3728  17.3960  17.4080  17.4772  17.5173
    17.5368  17.5846  17.6310  17.7416  17.7985  17.9106  17.9689  18.0334
    18.0782  18.1371  18.1896  18.2593  18.2984  18.3980  18.5029  18.5296
    18.5960  18.6358  18.6759  18.7321  18.8388  18.8818  18.9041  19.0296
    19.0599  19.1790  19.2026  19.2230  19.3100  19.3727  19.4555  19.5043
    19.6487  19.7810  19.8258  19.8825  19.9569  19.9788  19.9916  20.0798
    20.1363  20.2250  20.2520  20.3215  20.3710  20.4143  20.5022  20.5925
    20.6561  20.7100  20.7534  20.8651  20.9346  20.9538  21.0168  21.0525
    21.0740  21.2342  21.2659  21.3746  21.3960  21.4540  21.5059  21.5549
    21.6040  21.6611  21.7350  21.7890  21.8320  21.9000  22.0099  22.0916
    22.1415

     the Fermi energy is    -2.0798 ev

!    total energy              =   -2278.89600513 Ry
     Harris-Foulkes estimate   =   -2278.89600514 Ry
     estimated scf accuracy    <          4.8E-09 Ry

     The total energy is the sum of the following terms:

     one-electron contribution =  -23664.33920521 Ry
     hartree contribution      =   11875.14666504 Ry
     xc contribution           =    -572.12048432 Ry
     ewald contribution        =   10080.57809069 Ry
     Hubbard energy            =       1.83925888 Ry
     smearing contrib. (-TS)   =      -0.00033021 Ry

     convergence has been achieved in  16 iterations

     Forces acting on atoms (Ry/au):


     negative rho (up, down):  0.157E+01 0.000E+00
     atom    1 type  1   force =    -0.00852014   -0.00385120   -0.00022684
     atom    2 type  1   force =     0.00013370    0.00349007   -0.00039980
     atom    3 type  2   force =     0.01626948    0.00462353    0.00023834
     atom    4 type  2   force =     0.01037891    0.00484467   -0.00034690
     atom    5 type  1   force =     0.00120561   -0.00282734   -0.00017238
     atom    6 type  1   force =    -0.00008730   -0.00302939   -0.00060191
     atom    7 type  1   force =     0.00005482    0.00143017    0.00045996
     atom    8 type  1   force =    -0.00416637    0.00231505   -0.00020930
     atom    9 type  2   force =     0.00394795   -0.00500984    0.00014566
     atom   10 type  2   force =    -0.00000633   -0.02063479   -0.00077892
     atom   11 type  1   force =    -0.00201122    0.00232118   -0.00010832
     atom   12 type  1   force =    -0.00811165    0.01522108    0.00036176
     atom   13 type  1   force =    -0.00110199   -0.00871527    0.00066276
     atom   14 type  1   force =    -0.00820978   -0.00261952   -0.00016190
     atom   15 type  1   force =     0.00013634    0.00143351    0.00015808
     atom   16 type  2   force =    -0.01710129    0.00447154    0.00026093
     atom   17 type  2   force =     0.01018343    0.00495915   -0.00017652
     atom   18 type  1   force =     0.00132928   -0.00275012   -0.00015360
     atom   19 type  1   force =     0.00036547   -0.00293908   -0.00061796
     atom   20 type  1   force =     0.00007928   -0.00580641    0.00076842
     atom   21 type  1   force =    -0.00401808    0.00218797    0.00005540
     atom   22 type  2   force =    -0.00026303   -0.00490948    0.00016636
     atom   23 type  2   force =    -0.00018009    0.01927272   -0.00018242
     atom   24 type  1   force =     0.00213822    0.00238130   -0.00012236
     atom   25 type  1   force =     0.00823322    0.01517241    0.00037352
     atom   26 type  1   force =    -0.00106339   -0.02092119    0.00026803
     atom   27 type  3   force =    -0.00000689    0.00019751   -0.00025475
     atom   28 type  3   force =    -0.00001921   -0.00010098   -0.00021816
     atom   29 type  3   force =     0.00020397   -0.00010674    0.00041995
     atom   30 type  3   force =     0.00021445   -0.00026282    0.00032625
     atom   31 type  1   force =    -0.00000738    0.00016230    0.00006661

     Total force =     0.002080     Total SCF correction =     0.000155

     bfgs converged in  16 scf cycles and  15 bfgs steps
     (criteria: energy < 0.10E-03, force < 0.10E-02)

     End of BFGS Geometry Optimization

     Final energy   =   -2278.8960051325 Ry
Begin final coordinates

ATOMIC_POSITIONS (crystal)
O0       0.000000000   0.000000000   0.377651617    0   0   1
O0       0.000000000   0.500000000   0.401761262    0   0   1
Pt1      0.250000000   0.500000000   0.451130889    0   0   1
Pt1      0.000000000   0.000000000   0.452773724    0   0   1
O0       0.250000000   0.810000000   0.442328784    0   0   1
O0       0.250000000   0.190000000   0.461504099    0   0   1
O0       0.000000000   0.500000000   0.496570456    0   0   1
O0       0.000000000   0.000000000   0.529940087    0   0   1
Pt1      0.250000000   0.000000000   0.575985211    0   0   1
Pt1      0.000000000   0.500000000   0.575026163    0   0   1
O0       0.250000000   0.690000000   0.564386695    0   0   1
O0       0.250000000   0.310000000   0.586761732    0   0   1
O0       0.000000000   0.000000000   0.621489998    0   0   1
O0       0.500000000   0.000000000   0.377714271    0   0   1
O0       0.500000000   0.500000000   0.401081642    0   0   1
Pt1      0.750000000   0.500000000   0.451132049    0   0   1
Pt1      0.500000000   0.000000000   0.452759849    0   0   1
O0       0.750000000   0.810000000   0.442349715    0   0   1
O0       0.750000000   0.190000000   0.461511444    0   0   1
O0       0.500000000   0.500000000   0.497985972    0   0   1
O0       0.500000000   0.000000000   0.529780757    0   0   1
Pt1      0.750000000   0.000000000   0.575987218    0   0   1
Pt1      0.500000000   0.500000000   0.576993345    0   0   1
O0       0.750000000   0.690000000   0.564374821    0   0   1
O0       0.750000000   0.310000000   0.586765545    0   0   1
O0       0.500000000   0.000000000   0.621649929    0   0   1
H2       0.000089107   0.640941664   0.386575644
H2       0.500055383   0.641555469   0.386325808
H2       0.143416975   0.034831044   0.367845779
H2       0.643266981   0.035495274   0.367888715
O0       0.500114547   0.583686097   0.643636780
End final coordinates



     init_run     :    107.92s CPU    109.96s WALL (       1 calls)
     electrons    :  56326.88s CPU  57825.94s WALL (      16 calls)
     update_pot   :    320.71s CPU    328.09s WALL (      15 calls)
     forces       :   2095.95s CPU   2139.94s WALL (      16 calls)

     Called by init_run:
     wfcinit      :     39.28s CPU     40.60s WALL (       1 calls)
     potinit      :      7.64s CPU      7.78s WALL (       1 calls)

     Called by electrons:
     c_bands      :  30666.34s CPU  31549.80s WALL (     304 calls)
     sum_band     :  11257.47s CPU  11525.05s WALL (     304 calls)
     v_of_rho     :    335.04s CPU    352.20s WALL (     309 calls)
     newd         :  14663.23s CPU  14735.24s WALL (     309 calls)
     mix_rho      :     63.31s CPU     65.72s WALL (     304 calls)

     Called by c_bands:
     init_us_2    :     72.59s CPU     73.14s WALL (    1971 calls)
     cegterg      :  30220.23s CPU  30947.66s WALL (     912 calls)

     Called by *egterg:
     h_psi        :  17817.02s CPU  18237.18s WALL (    2276 calls)
     s_psi        :   1763.37s CPU   1783.18s WALL (    2372 calls)
     g_psi        :     37.85s CPU     37.87s WALL (    1361 calls)
     cdiaghg      :   2308.57s CPU   2315.13s WALL (    2195 calls)

     Called by h_psi:
     add_vuspsi   :   1704.86s CPU   1725.95s WALL (    2276 calls)
     vhpsi        :   1828.06s CPU   1848.79s WALL (    2276 calls)

     General routines
     calbec       :   4223.76s CPU   4269.94s WALL (   19960 calls)
     fft          :    408.20s CPU    470.01s WALL (    5115 calls)
     ffts         :      5.41s CPU      5.53s WALL (     613 calls)
     fftw         :  10190.91s CPU  10655.89s WALL ( 1734268 calls)
     interpolate  :     52.00s CPU     52.71s WALL (     613 calls)
     davcio       :      0.14s CPU     35.81s WALL (    2019 calls)

     Parallel routines
     fft_scatter  :   3790.21s CPU   4290.48s WALL ( 1739996 calls)
     Hubbard U routines
     new_ns       :    399.98s CPU    421.86s WALL (     304 calls)
     vhpsi        :   1828.06s CPU   1848.79s WALL (    2276 calls)
     force_hub    :    617.33s CPU    641.12s WALL (      16 calls)

     PWSCF        :    16h35m CPU       17h 1m WALL


   This run was terminated on:  19:54:47  28Apr2014            

=------------------------------------------------------------------------------=
   JOB DONE.
=------------------------------------------------------------------------------=
