
     Program PWSCF v.5.0.2 (svn rev. 9656) starts on 28Apr2014 at  2:49:41 

     This program is part of the open-source Quantum ESPRESSO suite
     for quantum simulation of materials; please cite
         "P. Giannozzi et al., J. Phys.:Condens. Matter 21 395502 (2009);
          URL http://www.quantum-espresso.org", 
     in publications or presentations arising from this work. More details at
     http://www.quantum-espresso.org/quote.php

     Parallel version (MPI), running on    16 processors
     K-points division:     npool     =       4
     R & G space division:  proc/nbgrp/npool/nimage =       4

     Current dimensions of program PWSCF are:
     Max number of different atomic species (ntypx) = 10
     Max number of k-points (npk) =  40000
     Max angular momentum in pseudopotentials (lmaxx) =  3
     Reading input from pwscf.in
Warning: card &CELL ignored
Warning: card / ignored

     Subspace diagonalization in iterative solution of the eigenvalue problem:
     a serial algorithm will be used


     Parallelization info
     --------------------
     sticks:   dense  smooth     PW     G-vecs:    dense   smooth      PW
     Min        1491     475    132               353925    64028    9441
     Max        1492     476    134               353934    64061    9444
     Sum        5965    1901    531              1415713   256153   37769



     bravais-lattice index     =            0
     lattice parameter (alat)  =      12.2076  a.u.
     unit-cell volume          =    7496.5096 (a.u.)^3
     number of atoms/cell      =           31
     number of atomic types    =            3
     number of electrons       =       246.00
     number of Kohn-Sham states=          369
     kinetic-energy cutoff     =      40.0000  Ry
     charge density cutoff     =     500.0000  Ry
     convergence threshold     =      1.0E-06
     mixing beta               =       0.7000
     number of iterations used =            8  plain     mixing
     Exchange-correlation      = SLA  PW   PBE  PBE ( 1 4 3 4 0)
     EXX-fraction              =        0.00
     nstep                     =           50


     celldm(1)=  12.207631  celldm(2)=   0.000000  celldm(3)=   0.000000
     celldm(4)=   0.000000  celldm(5)=   0.000000  celldm(6)=   0.000000

     crystal axes: (cart. coord. in units of alat)
               a(1) = (   1.000000   0.000000   0.000000 )  
               a(2) = (   0.000000   1.004836   0.000000 )  
               a(3) = (   0.000000   0.000000   4.100811 )  

     reciprocal axes: (cart. coord. in units 2 pi/alat)
               b(1) = (  1.000000  0.000000  0.000000 )  
               b(2) = (  0.000000  0.995187  0.000000 )  
               b(3) = (  0.000000  0.000000  0.243854 )  


     PseudoPot. # 1 for O  read from file:
     /home/camp/zhonxu/pseudo/o_pbe_v1.01.uspp.F.UPF
     MD5 check sum: 2bcb18d16ea4b960afae9ec6d52f22d2
     Pseudo is Ultrasoft + core correction, Zval =  6.0
     Generated by new atomic code, or converted to UPF format
     Using radial grid of  737 points,  5 beta functions with: 
                l(1) =   0
                l(2) =   0
                l(3) =   1
                l(4) =   1
                l(5) =   2
     Q(r) pseudized with  8 coefficients,  rinner =    0.900   0.900   0.900
                                                       0.900   0.900

     PseudoPot. # 2 for Pt read from file:
     /home/camp/zhonxu/pseudo/pt_pbe_v1.uspp.F.UPF
     MD5 check sum: 4c71d6ad5ef119f1eb26a4d0b7884226
     Pseudo is Ultrasoft + core correction, Zval = 16.0
     Generated by new atomic code, or converted to UPF format
     Using radial grid of  985 points,  6 beta functions with: 
                l(1) =   0
                l(2) =   0
                l(3) =   1
                l(4) =   1
                l(5) =   2
                l(6) =   2
     Q(r) pseudized with  8 coefficients,  rinner =    1.300   1.300   1.300
                                                       1.300   1.300

     PseudoPot. # 3 for H  read from file:
     /home/camp/zhonxu/pseudo/h_pbe_v1.uspp.F.UPF
     MD5 check sum: 3408e3ff4ec8b0a4e358431e7e038a48
     Pseudo is Ultrasoft, Zval =  1.0
     Generated by new atomic code, or converted to UPF format
     Using radial grid of  615 points,  2 beta functions with: 
                l(1) =   0
                l(2) =   0
     Q(r) pseudized with  8 coefficients,  rinner =    0.700

     atomic species   valence    mass     pseudopotential
        O0             6.00    15.99940     O ( 1.00)
        Pt1           16.00   195.08000     Pt( 1.00)
        H2             1.00     1.00794     H ( 1.00)


     Simplified LDA+U calculation (l_max = 2) with parameters (eV):
     atomic species    L          U    alpha       J0     beta
        Pt1            2     6.0000   0.0000   0.0000   0.0000



     No symmetry found



   Cartesian axes

     site n.     atom                  positions (alat units)
         1           O0  tau(   1) = (   0.0000000   0.0000000   1.5489174  )
         2           O0  tau(   2) = (   0.0000000   0.5024180   1.6470088  )
         3           Pt1 tau(   3) = (   0.2500000   0.5024180   1.8504500  )
         4           Pt1 tau(   4) = (   0.0000000   0.0000000   1.8564782  )
         5           O0  tau(   5) = (   0.2500000   0.8139171   1.8182587  )
         6           O0  tau(   6) = (   0.2500000   0.1909188   1.8867012  )
         7           O0  tau(   7) = (   0.0000000   0.5024180   2.0373240  )
         8           O0  tau(   8) = (   0.0000000   0.0000000   2.1721997  )
         9           Pt1 tau(   9) = (   0.2500000   0.0000000   2.3623543  )
        10           Pt1 tau(  10) = (   0.0000000   0.5024180   2.3594017  )
        11           O0  tau(  11) = (   0.2500000   0.6933368   2.3215512  )
        12           O0  tau(  12) = (   0.2500000   0.3114991   2.4021322  )
        13           O0  tau(  13) = (   0.0000000   0.0000000   2.5481621  )
        14           O0  tau(  14) = (   0.5000000   0.0000000   1.5492455  )
        15           O0  tau(  15) = (   0.5000000   0.5024180   1.6439332  )
        16           Pt1 tau(  16) = (   0.7500000   0.5024180   1.8504910  )
        17           Pt1 tau(  17) = (   0.5000000   0.0000000   1.8565192  )
        18           O0  tau(  18) = (   0.7500000   0.8139171   1.8184227  )
        19           O0  tau(  19) = (   0.7500000   0.1909188   1.8866602  )
        20           O0  tau(  20) = (   0.5000000   0.5024180   2.0431061  )
        21           O0  tau(  21) = (   0.5000000   0.0000000   2.1716256  )
        22           Pt1 tau(  22) = (   0.7500000   0.0000000   2.3623953  )
        23           Pt1 tau(  23) = (   0.5000000   0.5024180   2.3697358  )
        24           O0  tau(  24) = (   0.7500000   0.6933368   2.3215102  )
        25           O0  tau(  25) = (   0.7500000   0.3114991   2.4021732  )
        26           O0  tau(  26) = (   0.5000000   0.0000000   2.5480390  )
        27           H2  tau(  27) = (   0.0001100   0.6425926   1.5814778  )
        28           H2  tau(  28) = (   0.5001800   0.6431151   1.5801656  )
        29           H2  tau(  29) = (   0.1426600   0.0364956   1.5073762  )
        30           H2  tau(  30) = (   0.6419200   0.0388771   1.5073762  )
        31           O0  tau(  31) = (   0.5000900   0.5753691   2.6428088  )

     number of k points=    10  Methfessel-Paxton smearing, width (Ry)=  0.0100
                       cart. coord. in units 2pi/alat
        k(    1) = (   0.0000000   0.0000000   0.0000000), wk =   0.1250000
        k(    2) = (   0.0000000   0.2487968   0.0000000), wk =   0.2500000
        k(    3) = (   0.0000000  -0.4975937   0.0000000), wk =   0.1250000
        k(    4) = (   0.2500000   0.0000000   0.0000000), wk =   0.2500000
        k(    5) = (   0.2500000   0.2487968   0.0000000), wk =   0.2500000
        k(    6) = (   0.2500000  -0.4975937   0.0000000), wk =   0.2500000
        k(    7) = (  -0.5000000   0.0000000   0.0000000), wk =   0.1250000
        k(    8) = (  -0.5000000   0.2487968   0.0000000), wk =   0.2500000
        k(    9) = (  -0.5000000  -0.4975937   0.0000000), wk =   0.1250000
        k(   10) = (  -0.2500000   0.2487968   0.0000000), wk =   0.2500000

     Dense  grid:  1415713 G-vectors     FFT dimensions: (  90,  90, 360)

     Smooth grid:   256153 G-vectors     FFT dimensions: (  50,  50, 216)

     Largest allocated arrays     est. size (Mb)     dimensions
        Kohn-Sham Wavefunctions        45.60 Mb     (   8098,  369)
        Atomic wavefunctions           21.75 Mb     (   8098,  176)
        NL pseudopotentials            49.30 Mb     (   8098,  399)
        Each V/rho on FFT grid         11.12 Mb     ( 729000)
        Each G-vector array             2.70 Mb     ( 353934)
        G-vector shells                 1.17 Mb     ( 153301)
     Largest temporary arrays     est. size (Mb)     dimensions
        Auxiliary wavefunctions       182.38 Mb     (   8098, 1476)
        Each subspace H/S matrix       33.24 Mb     (1476,1476)
        Each <psi_i|beta_j> matrix      2.25 Mb     (    399,  369)
        Arrays for rho mixing          88.99 Mb     ( 729000,   8)

     Check: negative/imaginary core charge=   -0.000003    0.000000

     Initial potential from superposition of free atoms
     Check: negative starting charge=   -1.533958

     starting charge  241.99985, renormalised to  246.00000

     negative rho (up, down):  0.156E+01 0.000E+00
     Number of +U iterations with fixed ns =  0
     Starting occupations:
 --- enter write_ns ---
 LDA+U parameters:
U( 2)     =  6.00000000
alpha( 2) =  0.00000000
atom    3   Tr[ns(na)] =   8.00000
    eigenvalues: 
  0.800  0.800  0.800  0.800  0.800
    eigenvectors:
  1.000  0.000  0.000  0.000  0.000
  0.000  1.000  0.000  0.000  0.000
  0.000  0.000  1.000  0.000  0.000
  0.000  0.000  0.000  1.000  0.000
  0.000  0.000  0.000  0.000  1.000
    occupations:
  0.800  0.000  0.000  0.000  0.000
  0.000  0.800  0.000  0.000  0.000
  0.000  0.000  0.800  0.000  0.000
  0.000  0.000  0.000  0.800  0.000
  0.000  0.000  0.000  0.000  0.800
atom    4   Tr[ns(na)] =   8.00000
    eigenvalues: 
  0.800  0.800  0.800  0.800  0.800
    eigenvectors:
  1.000  0.000  0.000  0.000  0.000
  0.000  1.000  0.000  0.000  0.000
  0.000  0.000  1.000  0.000  0.000
  0.000  0.000  0.000  1.000  0.000
  0.000  0.000  0.000  0.000  1.000
    occupations:
  0.800  0.000  0.000  0.000  0.000
  0.000  0.800  0.000  0.000  0.000
  0.000  0.000  0.800  0.000  0.000
  0.000  0.000  0.000  0.800  0.000
  0.000  0.000  0.000  0.000  0.800
atom    9   Tr[ns(na)] =   8.00000
    eigenvalues: 
  0.800  0.800  0.800  0.800  0.800
    eigenvectors:
  1.000  0.000  0.000  0.000  0.000
  0.000  1.000  0.000  0.000  0.000
  0.000  0.000  1.000  0.000  0.000
  0.000  0.000  0.000  1.000  0.000
  0.000  0.000  0.000  0.000  1.000
    occupations:
  0.800  0.000  0.000  0.000  0.000
  0.000  0.800  0.000  0.000  0.000
  0.000  0.000  0.800  0.000  0.000
  0.000  0.000  0.000  0.800  0.000
  0.000  0.000  0.000  0.000  0.800
atom   10   Tr[ns(na)] =   8.00000
    eigenvalues: 
  0.800  0.800  0.800  0.800  0.800
    eigenvectors:
  1.000  0.000  0.000  0.000  0.000
  0.000  1.000  0.000  0.000  0.000
  0.000  0.000  1.000  0.000  0.000
  0.000  0.000  0.000  1.000  0.000
  0.000  0.000  0.000  0.000  1.000
    occupations:
  0.800  0.000  0.000  0.000  0.000
  0.000  0.800  0.000  0.000  0.000
  0.000  0.000  0.800  0.000  0.000
  0.000  0.000  0.000  0.800  0.000
  0.000  0.000  0.000  0.000  0.800
atom   16   Tr[ns(na)] =   8.00000
    eigenvalues: 
  0.800  0.800  0.800  0.800  0.800
    eigenvectors:
  1.000  0.000  0.000  0.000  0.000
  0.000  1.000  0.000  0.000  0.000
  0.000  0.000  1.000  0.000  0.000
  0.000  0.000  0.000  1.000  0.000
  0.000  0.000  0.000  0.000  1.000
    occupations:
  0.800  0.000  0.000  0.000  0.000
  0.000  0.800  0.000  0.000  0.000
  0.000  0.000  0.800  0.000  0.000
  0.000  0.000  0.000  0.800  0.000
  0.000  0.000  0.000  0.000  0.800
atom   17   Tr[ns(na)] =   8.00000
    eigenvalues: 
  0.800  0.800  0.800  0.800  0.800
    eigenvectors:
  1.000  0.000  0.000  0.000  0.000
  0.000  1.000  0.000  0.000  0.000
  0.000  0.000  1.000  0.000  0.000
  0.000  0.000  0.000  1.000  0.000
  0.000  0.000  0.000  0.000  1.000
    occupations:
  0.800  0.000  0.000  0.000  0.000
  0.000  0.800  0.000  0.000  0.000
  0.000  0.000  0.800  0.000  0.000
  0.000  0.000  0.000  0.800  0.000
  0.000  0.000  0.000  0.000  0.800
atom   22   Tr[ns(na)] =   8.00000
    eigenvalues: 
  0.800  0.800  0.800  0.800  0.800
    eigenvectors:
  1.000  0.000  0.000  0.000  0.000
  0.000  1.000  0.000  0.000  0.000
  0.000  0.000  1.000  0.000  0.000
  0.000  0.000  0.000  1.000  0.000
  0.000  0.000  0.000  0.000  1.000
    occupations:
  0.800  0.000  0.000  0.000  0.000
  0.000  0.800  0.000  0.000  0.000
  0.000  0.000  0.800  0.000  0.000
  0.000  0.000  0.000  0.800  0.000
  0.000  0.000  0.000  0.000  0.800
atom   23   Tr[ns(na)] =   8.00000
    eigenvalues: 
  0.800  0.800  0.800  0.800  0.800
    eigenvectors:
  1.000  0.000  0.000  0.000  0.000
  0.000  1.000  0.000  0.000  0.000
  0.000  0.000  1.000  0.000  0.000
  0.000  0.000  0.000  1.000  0.000
  0.000  0.000  0.000  0.000  1.000
    occupations:
  0.800  0.000  0.000  0.000  0.000
  0.000  0.800  0.000  0.000  0.000
  0.000  0.000  0.800  0.000  0.000
  0.000  0.000  0.000  0.800  0.000
  0.000  0.000  0.000  0.000  0.800
N of occupied +U levels =  64.0000000
 --- exit write_ns ---
 Atomic wfc used for LDA+U Projector are NOT orthogonalized
     Starting wfc are  176 randomized atomic wfcs

     total cpu time spent up to now is      137.0 secs

     per-process dynamical memory:   437.2 Mb

     Self-consistent Calculation

     iteration #  1     ecut=    40.00 Ry     beta=0.70
     Davidson diagonalization with overlap
     ethr =  1.00E-02,  avg # of iterations =  5.1
 --- enter write_ns ---
 LDA+U parameters:
U( 2)     =  6.00000000
alpha( 2) =  0.00000000
atom    3   Tr[ns(na)] =   7.38716
    eigenvalues: 
  0.462  0.499  0.828  0.941  0.964
    eigenvectors:
  0.001  0.150  0.041  0.795  0.012
  0.991  0.009  0.000  0.000  0.000
  0.000  0.021  0.953  0.023  0.002
  0.008  0.819  0.005  0.166  0.003
  0.000  0.000  0.001  0.016  0.983
    occupations:
  0.869  0.001  0.003 -0.158 -0.002
  0.001  0.462  0.000  0.003 -0.006
  0.003  0.000  0.824  0.051  0.004
 -0.158  0.003  0.051  0.575  0.001
 -0.002 -0.006  0.004  0.001  0.963
atom    4   Tr[ns(na)] =   7.31065
    eigenvalues: 
  0.478  0.501  0.835  0.877  0.964
    eigenvectors:
  0.000  0.975  0.007  0.001  0.016
  0.032  0.000  0.100  0.867  0.000
  0.000  0.010  0.883  0.102  0.004
  0.000  0.015  0.005  0.001  0.979
  0.968  0.000  0.004  0.029  0.000
    occupations:
  0.511 -0.003 -0.035  0.056 -0.001
 -0.003  0.860  0.012  0.001  0.070
 -0.035  0.012  0.837 -0.004  0.001
  0.056  0.001 -0.004  0.957  0.000
 -0.001  0.070  0.001  0.000  0.491
atom    9   Tr[ns(na)] =   7.83842
    eigenvalues: 
  0.495  0.516  0.961  0.972  0.974
    eigenvectors:
  0.000  0.129  0.045  0.015  0.811
  1.000  0.000  0.000  0.000  0.000
  0.000  0.018  0.903  0.000  0.078
  0.000  0.853  0.049  0.003  0.096
  0.000  0.000  0.002  0.982  0.015
    occupations:
  0.915 -0.000 -0.025 -0.152  0.001
 -0.000  0.495  0.000 -0.000 -0.000
 -0.025  0.000  0.954 -0.054 -0.000
 -0.152 -0.000 -0.054  0.583  0.002
  0.001 -0.000 -0.000  0.002  0.972
atom   10   Tr[ns(na)] =   8.36528
    eigenvalues: 
  0.484  0.759  0.972  0.982  0.985
    eigenvectors:
  0.000  0.957  0.030  0.013  0.000
  0.034  0.000  0.000  0.000  0.966
  0.000  0.001  0.420  0.579  0.000
  0.000  0.043  0.550  0.407  0.000
  0.966  0.000  0.000  0.000  0.034
    occupations:
  0.769  0.000  0.005  0.044  0.000
  0.000  0.968  0.000 -0.000 -0.091
  0.005  0.000  0.978 -0.006  0.000
  0.044 -0.000 -0.006  0.967 -0.000
  0.000 -0.091  0.000 -0.000  0.501
atom   16   Tr[ns(na)] =   7.38694
    eigenvalues: 
  0.462  0.499  0.828  0.941  0.964
    eigenvectors:
  0.001  0.150  0.041  0.793  0.014
  0.991  0.009  0.000  0.000  0.000
  0.000  0.021  0.954  0.024  0.000
  0.008  0.819  0.005  0.165  0.003
  0.000  0.000  0.000  0.018  0.982
    occupations:
  0.870 -0.002  0.003 -0.158  0.003
 -0.002  0.462 -0.000 -0.003 -0.006
  0.003 -0.000  0.824  0.051 -0.000
 -0.158 -0.003  0.051  0.575 -0.001
  0.003 -0.006 -0.000 -0.001  0.963
atom   17   Tr[ns(na)] =   7.30412
    eigenvalues: 
  0.478  0.501  0.837  0.872  0.964
    eigenvectors:
  0.000  0.974  0.007  0.002  0.017
  0.033  0.000  0.189  0.778  0.000
  0.000  0.011  0.791  0.192  0.006
  0.000  0.014  0.006  0.002  0.978
  0.967  0.000  0.007  0.026  0.000
    occupations:
  0.512 -0.003 -0.037  0.056 -0.001
 -0.003  0.852  0.013  0.001  0.069
 -0.037  0.013  0.841 -0.005  0.002
  0.056  0.001 -0.005  0.956  0.000
 -0.001  0.069  0.002  0.000  0.491
atom   22   Tr[ns(na)] =   7.83857
    eigenvalues: 
  0.495  0.516  0.961  0.972  0.974
    eigenvectors:
  0.000  0.129  0.047  0.006  0.817
  0.999  0.001  0.000  0.000  0.000
  0.000  0.018  0.902  0.003  0.077
  0.001  0.852  0.050  0.000  0.097
  0.000  0.000  0.001  0.991  0.009
    occupations:
  0.915  0.001 -0.025 -0.152 -0.000
  0.001  0.495  0.001  0.000 -0.000
 -0.025  0.001  0.954 -0.054  0.000
 -0.152  0.000 -0.054  0.583 -0.001
 -0.000 -0.000  0.000 -0.001  0.972
atom   23   Tr[ns(na)] =   7.80270
    eigenvalues: 
  0.478  0.536  0.944  0.969  0.974
    eigenvectors:
  0.000  0.904  0.071  0.000  0.024
  0.030  0.000  0.000  0.970  0.000
  0.000  0.076  0.922  0.000  0.001
  0.000  0.019  0.006  0.000  0.974
  0.970  0.000  0.000  0.030  0.000
    occupations:
  0.576  0.000  0.107  0.059 -0.000
  0.000  0.954  0.000 -0.000 -0.084
  0.107  0.000  0.913 -0.015  0.000
  0.059 -0.000 -0.015  0.966 -0.000
 -0.000 -0.084  0.000 -0.000  0.493
N of occupied +U levels =  61.2338355
 --- exit write_ns ---

     negative rho (up, down):  0.151E+01 0.000E+00

     total cpu time spent up to now is      520.6 secs

     total energy              =   -2264.30594520 Ry
     Harris-Foulkes estimate   =   -2283.81601199 Ry
     estimated scf accuracy    <      24.31883844 Ry

     iteration #  2     ecut=    40.00 Ry     beta=0.70
     Davidson diagonalization with overlap
     ethr =  9.89E-03,  avg # of iterations =  5.0

     negative rho (up, down):  0.123E+01 0.000E+00

     total cpu time spent up to now is      873.2 secs

     total energy              =   -2205.13712347 Ry
     Harris-Foulkes estimate   =   -2340.33775478 Ry
     estimated scf accuracy    <    1051.32584813 Ry

     iteration #  3     ecut=    40.00 Ry     beta=0.70
     Davidson diagonalization with overlap
     ethr =  9.89E-03,  avg # of iterations =  4.8

     negative rho (up, down):  0.792E+00 0.000E+00

     total cpu time spent up to now is     1237.1 secs

     total energy              =   -2245.90267224 Ry
     Harris-Foulkes estimate   =   -2306.86128791 Ry
     estimated scf accuracy    <     576.06473681 Ry

     iteration #  4     ecut=    40.00 Ry     beta=0.70
     Davidson diagonalization with overlap
     ethr =  9.89E-03,  avg # of iterations =  3.9

     negative rho (up, down):  0.875E+00 0.000E+00

     total cpu time spent up to now is     1484.0 secs

     total energy              =   -2276.60619953 Ry
     Harris-Foulkes estimate   =   -2281.14662155 Ry
     estimated scf accuracy    <      17.21882351 Ry

     iteration #  5     ecut=    40.00 Ry     beta=0.70
     Davidson diagonalization with overlap
     ethr =  7.00E-03,  avg # of iterations =  1.0

     negative rho (up, down):  0.993E+00 0.000E+00

     total cpu time spent up to now is     1678.4 secs

     total energy              =   -2278.47269192 Ry
     Harris-Foulkes estimate   =   -2280.53377779 Ry
     estimated scf accuracy    <      13.45689734 Ry

     iteration #  6     ecut=    40.00 Ry     beta=0.70
     Davidson diagonalization with overlap
     ethr =  5.47E-03,  avg # of iterations =  1.1

     negative rho (up, down):  0.109E+01 0.000E+00

     total cpu time spent up to now is     1873.6 secs

     total energy              =   -2278.98243748 Ry
     Harris-Foulkes estimate   =   -2279.99150418 Ry
     estimated scf accuracy    <       4.32856559 Ry

     iteration #  7     ecut=    40.00 Ry     beta=0.70
     Davidson diagonalization with overlap
     ethr =  1.76E-03,  avg # of iterations =  1.1

     negative rho (up, down):  0.111E+01 0.000E+00

     total cpu time spent up to now is     2072.0 secs

     total energy              =   -2279.18825226 Ry
     Harris-Foulkes estimate   =   -2279.46636034 Ry
     estimated scf accuracy    <       2.10956715 Ry

     iteration #  8     ecut=    40.00 Ry     beta=0.70
     Davidson diagonalization with overlap
     ethr =  8.58E-04,  avg # of iterations =  2.1

     negative rho (up, down):  0.118E+01 0.000E+00

     total cpu time spent up to now is     2292.2 secs

     total energy              =   -2279.15979550 Ry
     Harris-Foulkes estimate   =   -2279.46329086 Ry
     estimated scf accuracy    <       3.73994388 Ry

     iteration #  9     ecut=    40.00 Ry     beta=0.70
     Davidson diagonalization with overlap
     ethr =  8.58E-04,  avg # of iterations =  1.4

     negative rho (up, down):  0.124E+01 0.000E+00

     total cpu time spent up to now is     2491.3 secs

     total energy              =   -2279.09600435 Ry
     Harris-Foulkes estimate   =   -2279.41387744 Ry
     estimated scf accuracy    <       2.79160561 Ry

     iteration # 10     ecut=    40.00 Ry     beta=0.70
     Davidson diagonalization with overlap
     ethr =  8.58E-04,  avg # of iterations =  1.0

     negative rho (up, down):  0.136E+01 0.000E+00

     total cpu time spent up to now is     2691.9 secs

     total energy              =   -2279.13420541 Ry
     Harris-Foulkes estimate   =   -2279.28542463 Ry
     estimated scf accuracy    <       0.64402305 Ry

     iteration # 11     ecut=    40.00 Ry     beta=0.70
     Davidson diagonalization with overlap
     ethr =  2.62E-04,  avg # of iterations =  6.6

     negative rho (up, down):  0.151E+01 0.000E+00

     total cpu time spent up to now is     2965.6 secs

     total energy              =   -2279.10163247 Ry
     Harris-Foulkes estimate   =   -2279.22544896 Ry
     estimated scf accuracy    <       0.54163169 Ry

     iteration # 12     ecut=    40.00 Ry     beta=0.70
     Davidson diagonalization with overlap
     ethr =  2.20E-04,  avg # of iterations =  4.5

     negative rho (up, down):  0.156E+01 0.000E+00

     total cpu time spent up to now is     3232.4 secs

     total energy              =   -2278.96534892 Ry
     Harris-Foulkes estimate   =   -2279.28508576 Ry
     estimated scf accuracy    <       2.05332390 Ry

     iteration # 13     ecut=    40.00 Ry     beta=0.70
     Davidson diagonalization with overlap
     ethr =  2.20E-04,  avg # of iterations =  4.5

     negative rho (up, down):  0.151E+01 0.000E+00

     total cpu time spent up to now is     3458.4 secs

     total energy              =   -2278.74705606 Ry
     Harris-Foulkes estimate   =   -2279.36947935 Ry
     estimated scf accuracy    <      10.06141378 Ry

     iteration # 14     ecut=    40.00 Ry     beta=0.70
     Davidson diagonalization with overlap
     ethr =  2.20E-04,  avg # of iterations =  4.3

     negative rho (up, down):  0.154E+01 0.000E+00

     total cpu time spent up to now is     3691.9 secs

     total energy              =   -2279.12692655 Ry
     Harris-Foulkes estimate   =   -2279.20038103 Ry
     estimated scf accuracy    <       0.28775682 Ry

     iteration # 15     ecut=    40.00 Ry     beta=0.70
     Davidson diagonalization with overlap
     ethr =  1.17E-04,  avg # of iterations =  1.4

     negative rho (up, down):  0.155E+01 0.000E+00

     total cpu time spent up to now is     3893.3 secs

     total energy              =   -2279.13286684 Ry
     Harris-Foulkes estimate   =   -2279.18023283 Ry
     estimated scf accuracy    <       0.19697666 Ry

     iteration # 16     ecut=    40.00 Ry     beta=0.70
     Davidson diagonalization with overlap
     ethr =  8.01E-05,  avg # of iterations =  1.1

     negative rho (up, down):  0.157E+01 0.000E+00

     total cpu time spent up to now is     4104.9 secs

     total energy              =   -2279.14801852 Ry
     Harris-Foulkes estimate   =   -2279.17521586 Ry
     estimated scf accuracy    <       0.28013022 Ry

     iteration # 17     ecut=    40.00 Ry     beta=0.70
     Davidson diagonalization with overlap
     ethr =  8.01E-05,  avg # of iterations =  1.0

     negative rho (up, down):  0.157E+01 0.000E+00

     total cpu time spent up to now is     4318.9 secs

     total energy              =   -2279.15869432 Ry
     Harris-Foulkes estimate   =   -2279.16297314 Ry
     estimated scf accuracy    <       0.04759238 Ry

     iteration # 18     ecut=    40.00 Ry     beta=0.70
     Davidson diagonalization with overlap
     ethr =  1.93E-05,  avg # of iterations =  1.8

     negative rho (up, down):  0.157E+01 0.000E+00

     total cpu time spent up to now is     4533.0 secs

     total energy              =   -2279.15788364 Ry
     Harris-Foulkes estimate   =   -2279.16215891 Ry
     estimated scf accuracy    <       0.02889073 Ry

     iteration # 19     ecut=    40.00 Ry     beta=0.70
     Davidson diagonalization with overlap
     ethr =  1.17E-05,  avg # of iterations =  1.7

     negative rho (up, down):  0.157E+01 0.000E+00

     total cpu time spent up to now is     4731.9 secs

     total energy              =   -2279.15609181 Ry
     Harris-Foulkes estimate   =   -2279.16587483 Ry
     estimated scf accuracy    <       0.12879195 Ry

     iteration # 20     ecut=    40.00 Ry     beta=0.70
     Davidson diagonalization with overlap
     ethr =  1.17E-05,  avg # of iterations =  1.1

     negative rho (up, down):  0.157E+01 0.000E+00

     total cpu time spent up to now is     4931.6 secs

     total energy              =   -2279.15808288 Ry
     Harris-Foulkes estimate   =   -2279.16240490 Ry
     estimated scf accuracy    <       0.05533368 Ry

     iteration # 21     ecut=    40.00 Ry     beta=0.70
     Davidson diagonalization with overlap
     ethr =  1.17E-05,  avg # of iterations =  1.0

     negative rho (up, down):  0.157E+01 0.000E+00

     total cpu time spent up to now is     5130.7 secs

     total energy              =   -2279.15978672 Ry
     Harris-Foulkes estimate   =   -2279.16037856 Ry
     estimated scf accuracy    <       0.01124946 Ry

     iteration # 22     ecut=    40.00 Ry     beta=0.70
     Davidson diagonalization with overlap
     ethr =  4.57E-06,  avg # of iterations =  1.0

     negative rho (up, down):  0.158E+01 0.000E+00

     total cpu time spent up to now is     5338.4 secs

     total energy              =   -2279.15693848 Ry
     Harris-Foulkes estimate   =   -2279.16024435 Ry
     estimated scf accuracy    <       0.00708258 Ry

     iteration # 23     ecut=    40.00 Ry     beta=0.70
     Davidson diagonalization with overlap
     ethr =  2.88E-06,  avg # of iterations =  5.6

     negative rho (up, down):  0.157E+01 0.000E+00

     total cpu time spent up to now is     5588.3 secs

     total energy              =   -2279.15242368 Ry
     Harris-Foulkes estimate   =   -2279.16476022 Ry
     estimated scf accuracy    <       0.09735041 Ry

     iteration # 24     ecut=    40.00 Ry     beta=0.70
     Davidson diagonalization with overlap
     ethr =  2.88E-06,  avg # of iterations =  5.3

     negative rho (up, down):  0.157E+01 0.000E+00

     total cpu time spent up to now is     5841.0 secs

     total energy              =   -2279.15924893 Ry
     Harris-Foulkes estimate   =   -2279.15967705 Ry
     estimated scf accuracy    <       0.00214040 Ry

     iteration # 25     ecut=    40.00 Ry     beta=0.70
     Davidson diagonalization with overlap
     ethr =  8.70E-07,  avg # of iterations =  1.0

     negative rho (up, down):  0.157E+01 0.000E+00

     total cpu time spent up to now is     6049.0 secs

     total energy              =   -2279.15939095 Ry
     Harris-Foulkes estimate   =   -2279.15960332 Ry
     estimated scf accuracy    <       0.00150422 Ry

     iteration # 26     ecut=    40.00 Ry     beta=0.70
     Davidson diagonalization with overlap
     ethr =  6.11E-07,  avg # of iterations =  1.0

     negative rho (up, down):  0.157E+01 0.000E+00

     total cpu time spent up to now is     6255.9 secs

     total energy              =   -2279.15944691 Ry
     Harris-Foulkes estimate   =   -2279.15950403 Ry
     estimated scf accuracy    <       0.00039987 Ry

     iteration # 27     ecut=    40.00 Ry     beta=0.70
     Davidson diagonalization with overlap
     ethr =  1.63E-07,  avg # of iterations =  1.0

     negative rho (up, down):  0.157E+01 0.000E+00

     total cpu time spent up to now is     6464.1 secs

     total energy              =   -2279.15942872 Ry
     Harris-Foulkes estimate   =   -2279.15952554 Ry
     estimated scf accuracy    <       0.00056142 Ry

     iteration # 28     ecut=    40.00 Ry     beta=0.70
     Davidson diagonalization with overlap
     ethr =  1.63E-07,  avg # of iterations =  1.0

     negative rho (up, down):  0.157E+01 0.000E+00

     total cpu time spent up to now is     6667.6 secs

     total energy              =   -2279.15945904 Ry
     Harris-Foulkes estimate   =   -2279.15948528 Ry
     estimated scf accuracy    <       0.00017160 Ry

     iteration # 29     ecut=    40.00 Ry     beta=0.70
     Davidson diagonalization with overlap
     ethr =  6.98E-08,  avg # of iterations =  1.0

     negative rho (up, down):  0.157E+01 0.000E+00

     total cpu time spent up to now is     6874.1 secs

     total energy              =   -2279.15944265 Ry
     Harris-Foulkes estimate   =   -2279.15950268 Ry
     estimated scf accuracy    <       0.00109204 Ry

     iteration # 30     ecut=    40.00 Ry     beta=0.70
     Davidson diagonalization with overlap
     ethr =  6.98E-08,  avg # of iterations =  1.0

     negative rho (up, down):  0.157E+01 0.000E+00

     total cpu time spent up to now is     7084.9 secs

     total energy              =   -2279.15946814 Ry
     Harris-Foulkes estimate   =   -2279.15947987 Ry
     estimated scf accuracy    <       0.00012218 Ry

     iteration # 31     ecut=    40.00 Ry     beta=0.70
     Davidson diagonalization with overlap
     ethr =  4.97E-08,  avg # of iterations =  1.0

     negative rho (up, down):  0.157E+01 0.000E+00

     total cpu time spent up to now is     7291.5 secs

     total energy              =   -2279.15947125 Ry
     Harris-Foulkes estimate   =   -2279.15947629 Ry
     estimated scf accuracy    <       0.00003404 Ry

     iteration # 32     ecut=    40.00 Ry     beta=0.70
     Davidson diagonalization with overlap
     ethr =  1.38E-08,  avg # of iterations =  1.0

     negative rho (up, down):  0.157E+01 0.000E+00

     total cpu time spent up to now is     7489.2 secs

     total energy              =   -2279.15947157 Ry
     Harris-Foulkes estimate   =   -2279.15947638 Ry
     estimated scf accuracy    <       0.00003526 Ry

     iteration # 33     ecut=    40.00 Ry     beta=0.70
     Davidson diagonalization with overlap
     ethr =  1.38E-08,  avg # of iterations =  1.0

     negative rho (up, down):  0.157E+01 0.000E+00

     total cpu time spent up to now is     7691.2 secs

     total energy              =   -2279.15947335 Ry
     Harris-Foulkes estimate   =   -2279.15947488 Ry
     estimated scf accuracy    <       0.00000911 Ry

     iteration # 34     ecut=    40.00 Ry     beta=0.70
     Davidson diagonalization with overlap
     ethr =  3.71E-09,  avg # of iterations =  1.0

     negative rho (up, down):  0.157E+01 0.000E+00

     total cpu time spent up to now is     7899.6 secs

     total energy              =   -2279.15947329 Ry
     Harris-Foulkes estimate   =   -2279.15947465 Ry
     estimated scf accuracy    <       0.00000407 Ry

     iteration # 35     ecut=    40.00 Ry     beta=0.70
     Davidson diagonalization with overlap
     ethr =  1.65E-09,  avg # of iterations =  1.8

     negative rho (up, down):  0.157E+01 0.000E+00

     total cpu time spent up to now is     8115.1 secs

     total energy              =   -2279.15947241 Ry
     Harris-Foulkes estimate   =   -2279.15947582 Ry
     estimated scf accuracy    <       0.00002238 Ry

     iteration # 36     ecut=    40.00 Ry     beta=0.70
     Davidson diagonalization with overlap
     ethr =  1.65E-09,  avg # of iterations =  1.2

     negative rho (up, down):  0.157E+01 0.000E+00

     total cpu time spent up to now is     8322.5 secs

     total energy              =   -2279.15947378 Ry
     Harris-Foulkes estimate   =   -2279.15947461 Ry
     estimated scf accuracy    <       0.00000573 Ry

     iteration # 37     ecut=    40.00 Ry     beta=0.70
     Davidson diagonalization with overlap
     ethr =  1.65E-09,  avg # of iterations =  1.0

     negative rho (up, down):  0.157E+01 0.000E+00

     total cpu time spent up to now is     8532.3 secs

     End of self-consistent calculation
 --- enter write_ns ---
 LDA+U parameters:
U( 2)     =  6.00000000
alpha( 2) =  0.00000000
atom    3   Tr[ns(na)] =   8.77608
    eigenvalues: 
  0.704  0.716  0.988  0.988  0.991
    eigenvectors:
  0.049  0.123  0.529  0.298  0.001
  0.724  0.276  0.000  0.000  0.000
  0.001  0.003  0.007  0.049  0.940
  0.226  0.598  0.114  0.055  0.007
  0.000  0.000  0.350  0.598  0.052
    occupations:
  0.941  0.003  0.007 -0.104 -0.000
  0.003  0.708  0.002  0.004 -0.004
  0.007  0.002  0.990  0.016  0.001
 -0.104  0.004  0.016  0.761  0.000
 -0.000 -0.004  0.001  0.000  0.988
atom    4   Tr[ns(na)] =   8.76687
    eigenvalues: 
  0.699  0.722  0.986  0.988  0.988
    eigenvectors:
  0.000  0.986  0.008  0.005  0.001
  0.009  0.000  0.141  0.759  0.090
  0.000  0.004  0.674  0.028  0.294
  0.000  0.009  0.175  0.201  0.614
  0.991  0.000  0.001  0.007  0.001
    occupations:
  0.726 -0.005 -0.017  0.026 -0.001
 -0.005  0.985  0.000  0.000  0.027
 -0.017  0.000  0.986  0.003  0.000
  0.026  0.000  0.003  0.985  0.000
 -0.001  0.027  0.000  0.000  0.702
atom    9   Tr[ns(na)] =   8.75748
    eigenvalues: 
  0.721  0.732  0.964  0.974  0.988
    eigenvectors:
  0.004  0.129  0.001  0.009  0.857
  0.968  0.032  0.000  0.000  0.000
  0.000  0.010  0.004  0.982  0.003
  0.027  0.829  0.000  0.005  0.138
  0.000  0.000  0.994  0.004  0.001
    occupations:
  0.954  0.001 -0.008 -0.087  0.001
  0.001  0.721  0.001  0.002 -0.004
 -0.008  0.001  0.971 -0.023  0.001
 -0.087  0.002 -0.023  0.768 -0.000
  0.001 -0.004  0.001 -0.000  0.965
atom   10   Tr[ns(na)] =   8.82717
    eigenvalues: 
  0.671  0.780  0.984  0.987  0.991
    eigenvectors:
  0.000  0.975  0.000  0.014  0.011
  0.012  0.000  0.988  0.000  0.000
  0.000  0.001  0.000  0.220  0.779
  0.000  0.024  0.000  0.766  0.211
  0.988  0.000  0.012  0.000  0.000
    occupations:
  0.785  0.000 -0.008  0.032  0.000
  0.000  0.980  0.000 -0.000 -0.035
 -0.008  0.000  0.990 -0.000 -0.000
  0.032 -0.000 -0.000  0.983 -0.000
  0.000 -0.035 -0.000 -0.000  0.675
atom   16   Tr[ns(na)] =   8.77610
    eigenvalues: 
  0.704  0.716  0.988  0.989  0.991
    eigenvectors:
  0.049  0.123  0.534  0.292  0.002
  0.727  0.273  0.000  0.000  0.000
  0.001  0.003  0.006  0.049  0.942
  0.223  0.601  0.115  0.054  0.007
  0.000  0.000  0.345  0.605  0.050
    occupations:
  0.941 -0.004  0.007 -0.104  0.000
 -0.004  0.708 -0.002 -0.004 -0.004
  0.007 -0.002  0.990  0.016 -0.001
 -0.104 -0.004  0.016  0.761 -0.000
  0.000 -0.004 -0.001 -0.000  0.988
atom   17   Tr[ns(na)] =   8.76657
    eigenvalues: 
  0.701  0.723  0.984  0.988  0.988
    eigenvectors:
  0.000  0.986  0.006  0.003  0.005
  0.009  0.000  0.053  0.876  0.062
  0.000  0.004  0.894  0.025  0.077
  0.000  0.010  0.046  0.088  0.857
  0.991  0.000  0.000  0.008  0.001
    occupations:
  0.727 -0.005 -0.017  0.026 -0.001
 -0.005  0.985  0.001  0.000  0.027
 -0.017  0.001  0.983  0.003  0.000
  0.026  0.000  0.003  0.985  0.000
 -0.001  0.027  0.000  0.000  0.703
atom   22   Tr[ns(na)] =   8.75749
    eigenvalues: 
  0.721  0.731  0.964  0.974  0.988
    eigenvectors:
  0.001  0.133  0.001  0.009  0.857
  0.991  0.008  0.000  0.000  0.000
  0.000  0.010  0.006  0.980  0.003
  0.007  0.849  0.000  0.005  0.139
  0.000  0.000  0.993  0.006  0.001
    occupations:
  0.954 -0.000 -0.008 -0.087 -0.001
 -0.000  0.721 -0.001 -0.001 -0.004
 -0.008 -0.001  0.971 -0.023 -0.001
 -0.087 -0.001 -0.023  0.768  0.000
 -0.001 -0.004 -0.001  0.000  0.964
atom   23   Tr[ns(na)] =   8.74099
    eigenvalues: 
  0.727  0.749  0.939  0.966  0.989
    eigenvectors:
  0.000  0.897  0.096  0.000  0.007
  0.015  0.000  0.000  0.985  0.000
  0.000  0.088  0.894  0.000  0.018
  0.000  0.015  0.010  0.000  0.975
  0.985  0.000  0.000  0.015  0.000
    occupations:
  0.769  0.000  0.053  0.026 -0.000
  0.000  0.963 -0.000  0.000 -0.029
  0.053 -0.000  0.923 -0.013 -0.000
  0.026  0.000 -0.013  0.985 -0.000
 -0.000 -0.029 -0.000 -0.000  0.730
N of occupied +U levels =  70.1687647
 --- exit write_ns ---

          k = 0.0000 0.0000 0.0000 ( 32157 PWs)   bands (ev):

   -55.6054 -55.5475 -55.4071 -55.3233 -55.2938 -55.2680 -55.2349 -55.2186
   -55.1580 -55.1481 -55.1430 -55.1163 -55.1136 -55.0020 -54.9685 -54.9643
   -54.9604 -54.9054 -54.8696 -54.8451 -54.8383 -54.5578 -54.3135 -53.9567
   -22.3023 -22.0193 -21.6331 -21.6079 -21.0536 -20.7674 -20.7452 -20.7090
   -20.6832 -20.6354 -20.5790 -20.5190 -20.3857 -20.1227 -19.9389 -19.8650
   -19.5096 -19.2440 -19.1345 -11.8525 -11.7225 -11.4120 -10.8597 -10.6759
   -10.6153 -10.3823 -10.2879 -10.2344 -10.0228  -9.8710  -9.6061  -9.5678
    -9.5194  -9.4700  -9.3248  -9.2603  -9.2455  -8.9015  -8.8065  -8.7538
    -8.4501  -8.3581  -8.2366  -8.1269  -8.0370  -7.8416  -7.6818  -7.5012
    -7.4327  -7.3292  -7.3163  -7.2529  -7.0747  -6.9752  -6.9590  -6.8566
    -6.7852  -6.5627  -6.3181  -6.2777  -6.2532  -6.2311  -6.2113  -5.9658
    -5.8952  -5.7671  -5.7337  -5.5929  -5.4564  -5.4248  -5.3989  -5.2912
    -5.1854  -5.1788  -5.0914  -5.0242  -4.8654  -4.7916  -4.7206  -4.6151
    -4.4095  -4.3089  -4.0998  -3.9054  -3.5667  -3.4230  -3.3926  -3.3369
    -3.2215  -3.1914  -2.8897  -2.8721  -2.7194  -2.6612  -2.6217  -2.4811
    -2.2384  -2.0933  -1.9722  -1.8463  -1.7115  -1.1755  -0.7507  -0.7246
    -0.7164  -0.6715  -0.3002  -0.0541   0.3180   0.6631   0.8577   1.1859
     1.1882   1.2391   1.7476   1.8990   2.3425   3.3571   4.1522   4.6516
     4.8373   5.5033   5.5824   5.6939   5.7940   6.3861   6.4094   6.5917
     6.8573   6.9292   6.9507   6.9968   7.3047   7.4094   7.4948   7.5650
     7.5984   7.6604   7.6659   7.8314   7.8458   7.9061   8.1584   8.1722
     8.1809   8.2022   8.3196   8.4157   8.5256   8.5373   8.5570   8.7854
     8.8902   8.9399   9.0140   9.1025   9.1441   9.2173   9.4544   9.5057
     9.6061   9.7905   9.8273   9.8899   9.9841  10.0174  10.1242  10.2590
    10.4610  10.5371  10.6804  10.7525  10.8107  10.8360  10.8563  10.9518
    10.9928  11.0819  11.2564  11.2722  11.3536  11.3847  11.4885  11.5051
    11.6186  11.6471  11.7788  11.9366  11.9830  12.0161  12.0538  12.0970
    12.1832  12.1987  12.2169  12.2549  12.3635  12.3977  12.5813  12.6066
    12.7093  12.8015  12.8243  13.0044  13.0891  13.2591  13.2876  13.3524
    13.3798  13.6002  13.6735  13.6947  13.7296  13.8219  13.9797  14.0558
    14.0863  14.2151  14.2969  14.3345  14.5053  14.5575  14.5922  14.7218
    14.7406  14.8765  14.9370  15.0495  15.1664  15.3297  15.3642  15.3888
    15.4715  15.5376  15.6210  15.6788  15.7729  15.8399  15.8834  15.9760
    15.9989  16.1038  16.4458  16.4683  16.5024  16.5673  16.6585  16.6877
    16.7611  16.8326  16.8978  16.9372  17.0190  17.1130  17.1269  17.1593
    17.1771  17.2079  17.2346  17.2699  17.2878  17.3202  17.3477  17.4792
    17.5788  17.6814  17.8697  17.8932  17.9643  18.0508  18.0711  18.0935
    18.1480  18.2411  18.2948  18.3506  18.3763  18.3906  18.4789  18.5567
    18.6324  18.6400  18.6673  18.7494  18.7657  18.8689  18.9551  19.0221
    19.0542  19.0832  19.1512  19.1946  19.2606  19.3312  19.4139  19.4577
    19.4809  19.5524  19.5985  19.6503  19.7426  19.7961  19.8284  19.9017
    19.9325  19.9630  20.0132  20.1059  20.1215  20.1691  20.3048  20.3555
    20.5419  20.5758  20.6301  20.8075  20.8819  20.9254  20.9525  20.9816
    21.0215  21.0883  21.1964  21.2524  21.3503  21.4666  21.4970  21.5650
    21.6008  21.6282  21.6666  21.7139  21.7280  21.7414  21.7709  21.7821
    21.8563  21.9036  21.9107  21.9603  22.0071  22.0450  22.1509  22.2478
    22.2685

          k = 0.0000 0.2488 0.0000 ( 32033 PWs)   bands (ev):

   -55.6054 -55.5474 -55.4068 -55.3228 -55.2932 -55.2680 -55.2350 -55.2186
   -55.1581 -55.1483 -55.1423 -55.1170 -55.1130 -55.0019 -54.9680 -54.9648
   -54.9602 -54.9055 -54.8695 -54.8453 -54.8382 -54.5577 -54.3133 -53.9567
   -22.2894 -22.0175 -21.5144 -21.4605 -21.0532 -21.0317 -20.9771 -20.7044
   -20.6447 -20.5252 -20.4055 -20.4040 -20.3287 -20.1252 -20.1195 -20.0629
   -19.5061 -19.2482 -19.1386 -11.5136 -11.3846 -11.2427 -11.2037 -10.7669
   -10.7446 -10.6145 -10.3878 -10.1367  -9.8937  -9.7574  -9.6121  -9.5214
    -9.4783  -9.2941  -9.2457  -9.1129  -8.9536  -8.7950  -8.7784  -8.6436
    -8.5047  -8.4071  -8.2227  -8.0754  -7.9971  -7.7734  -7.7063  -7.5336
    -7.4371  -7.4162  -7.3960  -7.3279  -7.2597  -7.1838  -7.1683  -7.0477
    -6.9484  -6.8933  -6.7536  -6.7444  -6.3080  -6.2430  -6.2259  -6.1032
    -5.8623  -5.6923  -5.6544  -5.4899  -5.3641  -5.2965  -5.1583  -5.1149
    -5.0487  -5.0043  -4.9503  -4.8717  -4.7703  -4.7263  -4.6900  -4.5597
    -4.3758  -4.2490  -4.1754  -3.9215  -3.8830  -3.7308  -3.6016  -3.4063
    -3.2530  -3.2075  -2.9233  -2.7427  -2.7317  -2.6252  -2.5467  -2.4816
    -2.2351  -2.1316  -2.0688  -1.8765  -1.7515  -1.4957  -1.3390  -0.9713
    -0.7105  -0.3794   0.0654   0.6576   0.7876   0.8707   0.9769   0.9969
     1.2268   1.2423   1.7252   1.7482   2.7149   3.5867   4.3601   4.8046
     4.8713   5.0589   5.5750   5.8511   5.8985   5.9325   6.1935   6.4241
     6.5022   6.6782   6.8260   7.0212   7.1807   7.2388   7.2723   7.3554
     7.5056   7.6115   7.6584   7.7650   7.7917   7.9347   8.0800   8.1117
     8.2877   8.3579   8.3770   8.5056   8.5710   8.6264   8.7150   8.8473
     8.9312   9.0654   9.0988   9.1518   9.2672   9.3826   9.4865   9.5305
     9.7982   9.8327   9.9496  10.0147  10.0514  10.0993  10.1439  10.1757
    10.3434  10.3768  10.4089  10.5614  10.6119  10.6305  10.8530  10.9059
    10.9330  10.9938  11.0830  11.1958  11.3384  11.3793  11.5047  11.5789
    11.6079  11.7860  11.8288  11.9405  12.1260  12.1739  12.2384  12.2949
    12.3100  12.4353  12.5102  12.5193  12.6099  12.6935  12.7551  12.8778
    13.0515  13.2254  13.3304  13.3816  13.4446  13.4994  13.5941  13.6007
    13.7168  13.7313  13.7626  13.8028  13.8983  14.0487  14.1457  14.2401
    14.2647  14.3656  14.4254  14.5494  14.5804  14.6316  14.7631  14.8336
    14.9008  14.9544  15.0262  15.1576  15.2250  15.2667  15.3484  15.3968
    15.4710  15.6152  15.7000  15.7266  15.7627  15.7867  15.8786  15.9462
    15.9604  16.0798  16.0906  16.1809  16.3110  16.3281  16.4060  16.4524
    16.5965  16.6407  16.6637  16.7248  16.7587  16.7931  16.9007  16.9834
    17.0921  17.1095  17.1316  17.1376  17.1577  17.1732  17.2288  17.2655
    17.2825  17.3607  17.4229  17.5456  17.6881  17.7409  17.8475  17.9771
    18.0172  18.0764  18.1229  18.1759  18.2505  18.3077  18.3851  18.4409
    18.4747  18.5219  18.5825  18.6194  18.6497  18.7292  18.8018  18.8589
    18.9509  18.9946  19.0020  19.0228  19.0937  19.1283  19.1561  19.2041
    19.2960  19.3303  19.3572  19.4666  19.5043  19.5205  19.5962  19.6385
    19.6498  19.7339  19.7735  19.8208  19.8434  19.9602  20.0834  20.1686
    20.2321  20.2498  20.3057  20.3619  20.4038  20.4172  20.4626  20.5254
    20.6138  20.7551  20.8007  20.8183  20.8472  20.8993  20.9625  21.0000
    21.0633  21.1455  21.2060  21.2779  21.2937  21.3704  21.4232  21.4367
    21.4817  21.5018  21.5828  21.6802  21.7049  21.7501  21.8674  21.9128
    21.9682

          k = 0.0000-0.4976 0.0000 ( 31948 PWs)   bands (ev):

   -55.6054 -55.5473 -55.4066 -55.3222 -55.2925 -55.2680 -55.2350 -55.2186
   -55.1582 -55.1485 -55.1416 -55.1177 -55.1125 -55.0019 -54.9673 -54.9657
   -54.9600 -54.9055 -54.8693 -54.8455 -54.8381 -54.5575 -54.3131 -53.9567
   -22.2780 -22.0159 -21.3567 -21.2272 -21.1534 -21.0974 -21.0777 -20.6918
   -20.6550 -20.5499 -20.4794 -20.3098 -20.2787 -20.2765 -20.1940 -20.1150
   -19.5020 -19.2520 -19.1416 -11.4662 -11.4148 -11.0600 -10.8567 -10.8249
   -10.6906 -10.6058 -10.4806  -9.7386  -9.7148  -9.7091  -9.5689  -9.4863
    -9.4699  -9.3714  -9.2569  -9.1459  -8.9567  -8.8173  -8.7340  -8.5729
    -8.4684  -8.4638  -8.2345  -8.1447  -8.0785  -8.0526  -7.9365  -7.7938
    -7.7716  -7.5676  -7.5345  -7.3848  -7.2491  -7.0474  -6.9848  -6.8875
    -6.8354  -6.7755  -6.7110  -6.6451  -6.3064  -6.2871  -6.2347  -6.2202
    -6.1482  -6.0589  -5.8738  -5.6286  -5.3872  -5.2570  -5.2251  -5.1022
    -4.9815  -4.9520  -4.8429  -4.7520  -4.7397  -4.6959  -4.4191  -4.2079
    -4.1928  -4.1788  -4.1766  -4.0419  -3.9134  -3.8145  -3.6420  -3.3699
    -3.2859  -3.1756  -3.0728  -2.8486  -2.8105  -2.7629  -2.6983  -2.6282
    -2.2703  -2.2090  -2.1813  -1.8933  -1.7951  -1.6482  -1.4581  -0.8693
    -0.6914   0.1228   0.3141   0.6462   0.7987   0.8344   1.0891   1.1983
     1.2972   1.3781   1.6592   1.7477   3.4998   3.8835   4.1116   4.7938
     4.9350   5.1571   5.3925   5.6438   5.6842   5.7204   6.0522   6.2165
     6.3656   6.5110   6.6967   6.7127   6.9818   7.0937   7.3637   7.4661
     7.5636   7.6624   7.6671   7.8059   8.0242   8.0310   8.0779   8.1449
     8.2778   8.3910   8.4769   8.6424   8.6595   8.7382   8.7941   8.8207
     8.8467   8.8943   8.9679   9.1193   9.1400   9.1669   9.2119   9.4153
     9.5022   9.5493   9.6876   9.7781   9.9389   9.9810   9.9934  10.0200
    10.2258  10.7352  10.7438  10.8052  10.9003  10.9211  11.0179  11.1312
    11.1876  11.2749  11.3226  11.4081  11.5170  11.5484  11.6091  11.7170
    11.9915  12.0813  12.1022  12.1667  12.2156  12.3158  12.3923  12.4085
    12.5033  12.5118  12.7260  12.7740  12.8393  12.8975  12.9346  12.9456
    12.9647  13.0042  13.1092  13.1442  13.2657  13.2880  13.5555  13.6690
    13.7070  13.8354  13.9300  14.1689  14.1897  14.2986  14.3074  14.3691
    14.4613  14.5662  14.6402  14.6594  14.8592  14.9246  14.9332  14.9635
    15.0853  15.1025  15.1837  15.2460  15.2965  15.4508  15.5784  15.6283
    15.6494  15.7085  15.7188  15.7623  15.7897  15.9354  15.9772  16.0252
    16.0705  16.1415  16.1838  16.2288  16.2985  16.3135  16.3794  16.3911
    16.4378  16.5414  16.5640  16.6337  16.7243  16.7365  16.7422  16.7722
    16.8010  16.8274  17.0471  17.0784  17.1129  17.1205  17.1428  17.1588
    17.1845  17.2222  17.2585  17.2695  17.3372  17.3779  17.4607  17.5019
    17.5946  17.6511  17.7568  17.7777  17.8175  17.8798  17.9564  17.9736
    18.0391  18.1265  18.1287  18.1386  18.2553  18.3159  18.3931  18.4811
    18.5546  18.6380  18.6695  18.7956  18.8098  18.9346  18.9659  19.0641
    19.1337  19.1863  19.2157  19.2567  19.3272  19.3647  19.4539  19.5485
    19.5795  19.6619  19.6767  19.7441  19.7647  19.8490  19.9278  19.9621
    19.9727  20.0325  20.1500  20.2142  20.2347  20.2503  20.3058  20.3271
    20.3868  20.4283  20.4596  20.4964  20.5307  20.6106  20.6792  20.6961
    20.7258  20.7726  20.8572  20.8775  20.8865  20.9563  21.0604  21.2058
    21.2710  21.2820  21.3266  21.4618  21.5146  21.5478  21.7084  21.7692
    21.7871

          k = 0.2500 0.0000 0.0000 ( 32013 PWs)   bands (ev):

   -55.6056 -55.5491 -55.4072 -55.3171 -55.2871 -55.2780 -55.2455 -55.2131
   -55.1674 -55.1477 -55.1440 -55.1162 -55.1142 -55.0021 -54.9682 -54.9643
   -54.9613 -54.9055 -54.8698 -54.8442 -54.8394 -54.5602 -54.3136 -53.9569
   -22.2318 -21.9999 -21.5070 -21.4694 -20.9348 -20.9023 -20.8165 -20.7069
   -20.6523 -20.6230 -20.5662 -20.4970 -20.3595 -20.1288 -20.0578 -19.9827
   -19.5884 -19.2956 -19.2149 -11.5791 -11.4489 -11.1730 -10.7566 -10.4648
   -10.4396 -10.2493 -10.1539 -10.0861 -10.0034  -9.8937  -9.8192  -9.7171
    -9.5364  -9.4650  -9.3000  -9.2539  -9.1154  -9.0536  -8.9316  -8.6074
    -8.5082  -8.4765  -8.4407  -8.1939  -8.1769  -7.8896  -7.8002  -7.6840
    -7.5477  -7.5191  -7.4354  -7.3841  -7.3302  -7.1990  -7.1157  -6.9360
    -6.8921  -6.8140  -6.7654  -6.6675  -6.4724  -6.3917  -6.3323  -6.1309
    -5.9095  -5.7845  -5.7224  -5.5638  -5.4766  -5.3752  -5.2819  -5.1761
    -5.1095  -4.9415  -4.8524  -4.7934  -4.6909  -4.5185  -4.4923  -4.3367
    -4.1480  -3.9569  -3.9182  -3.6959  -3.6527  -3.3158  -3.2366  -3.1804
    -3.1219  -3.0627  -3.0136  -2.8609  -2.7658  -2.6972  -2.6100  -2.4949
    -2.2955  -2.1205  -2.0686  -1.9406  -1.7797  -1.0192  -0.6318  -0.5941
    -0.4841  -0.4082  -0.2475  -0.0678   0.2594   0.3309   0.8208   0.8726
     0.9347   1.1695   1.2951   1.7811   2.7432   3.6698   4.3727   4.8128
     4.8513   5.0654   5.5875   5.8028   6.0042   6.0315   6.2055   6.4994
     6.6438   6.7804   6.8395   6.9766   7.1704   7.1909   7.2959   7.3582
     7.5400   7.6103   7.6696   7.7890   7.8967   7.9087   8.0836   8.2129
     8.3938   8.4177   8.4606   8.6249   8.6594   8.7278   8.7609   8.9108
     8.9547   9.0786   9.1875   9.2717   9.3257   9.4494   9.6484   9.7025
     9.7663   9.7925   9.9487   9.9907  10.0289  10.1223  10.1402  10.2094
    10.2610  10.3485  10.3923  10.4431  10.6242  10.7345  10.7750  10.8832
    10.8982  10.9174  10.9658  11.0746  11.1891  11.2162  11.3179  11.4598
    11.5715  11.6323  11.7326  11.8136  12.0748  12.1341  12.1834  12.2482
    12.2975  12.3133  12.4722  12.5448  12.7271  12.8134  12.8982  12.9383
    13.0792  13.1256  13.2768  13.3149  13.4661  13.5186  13.5538  13.6529
    13.6631  13.6948  13.7571  13.7991  13.8741  13.9070  13.9604  14.0499
    14.0721  14.1816  14.2524  14.2735  14.4337  14.4750  14.5496  14.6147
    14.7415  14.8799  14.9012  15.0453  15.1753  15.2431  15.3227  15.3862
    15.4463  15.4585  15.5120  15.6423  15.7062  15.7933  15.8888  15.9085
    15.9570  16.0005  16.1345  16.1824  16.3294  16.3690  16.4531  16.5642
    16.6399  16.7199  16.8332  16.8804  16.9040  17.0034  17.0737  17.1143
    17.1278  17.1513  17.1691  17.2027  17.2245  17.2425  17.2597  17.3445
    17.4687  17.5730  17.6076  17.6471  17.7254  17.8228  17.8931  17.9272
    18.0424  18.0618  18.1634  18.2673  18.4034  18.4260  18.4686  18.5695
    18.6165  18.6750  18.7136  18.7654  18.8214  18.8557  18.8869  18.9171
    18.9593  19.0000  19.0335  19.0754  19.0995  19.1768  19.2503  19.3079
    19.3547  19.3759  19.4135  19.5097  19.5227  19.5676  19.6105  19.6657
    19.7261  19.7707  19.8168  19.8545  19.9293  19.9958  20.0178  20.0714
    20.1290  20.1563  20.2670  20.3309  20.4075  20.4575  20.5117  20.5349
    20.5791  20.6903  20.7120  20.7809  20.9126  20.9331  20.9967  21.0340
    21.1310  21.1716  21.2043  21.2360  21.2889  21.3447  21.4030  21.4394
    21.5233  21.5643  21.6164  21.6755  21.8096  21.8642  21.9385  21.9780
    22.0194

          k = 0.2500 0.2488 0.0000 ( 32025 PWs)   bands (ev):

   -55.6056 -55.5490 -55.4070 -55.3167 -55.2866 -55.2779 -55.2454 -55.2131
   -55.1675 -55.1477 -55.1434 -55.1166 -55.1139 -55.0020 -54.9676 -54.9648
   -54.9612 -54.9056 -54.8698 -54.8444 -54.8393 -54.5601 -54.3134 -53.9569
   -22.2232 -21.9977 -21.3889 -21.3265 -20.9913 -20.9372 -20.9332 -20.7165
   -20.6808 -20.5648 -20.4757 -20.4036 -20.3933 -20.2138 -20.1589 -20.1300
   -19.5861 -19.3018 -19.2143 -11.2686 -11.1213 -11.0039 -10.9783 -10.5643
   -10.4660 -10.4643 -10.1991 -10.0432  -9.8856  -9.7986  -9.7561  -9.5982
    -9.4456  -9.3649  -9.2996  -9.1613  -9.0195  -8.8613  -8.7258  -8.6566
    -8.5304  -8.3857  -8.3017  -8.2360  -8.1584  -7.9984  -7.8765  -7.8346
    -7.7882  -7.6525  -7.6354  -7.5268  -7.4146  -7.3599  -7.2744  -7.2018
    -7.1387  -7.0240  -6.8486  -6.7351  -6.6806  -6.4011  -6.1851  -6.0409
    -5.8885  -5.8180  -5.6256  -5.6048  -5.5517  -5.3967  -5.2469  -5.1404
    -5.0735  -4.8504  -4.6799  -4.5384  -4.4656  -4.3997  -4.2955  -4.1964
    -4.0819  -4.0279  -3.9416  -3.7607  -3.6915  -3.6459  -3.4323  -3.3426
    -3.2395  -3.0393  -2.9024  -2.7883  -2.7435  -2.6494  -2.5889  -2.5193
    -2.2993  -2.1815  -2.0644  -1.9626  -1.8240  -1.2800  -1.1593  -0.8346
    -0.4915  -0.3214   0.0183   0.2870   0.5649   0.6858   0.7463   0.8582
     1.0712   1.2570   1.3028   1.6960   3.0900   3.8838   4.5815   4.9976
     5.0197   5.0812   5.2897   5.6803   6.1196   6.1610   6.1987   6.3790
     6.4455   6.5623   6.6989   6.8756   6.9190   6.9838   7.1322   7.2745
     7.3876   7.5010   7.5494   7.5957   7.7119   7.8791   7.9257   8.0427
     8.1903   8.2831   8.3365   8.4976   8.5728   8.6319   8.6722   8.8065
     8.9214   9.0349   9.1270   9.2845   9.3332   9.4771   9.5366   9.6402
     9.6962   9.9084  10.0431  10.0594  10.1874  10.2512  10.3177  10.3803
    10.5212  10.6018  10.6695  10.7705  10.7871  10.9394  11.0327  11.1091
    11.1831  11.2047  11.3605  11.4728  11.4980  11.7204  11.7440  11.7606
    11.8651  11.9394  11.9851  12.0656  12.1255  12.2308  12.2796  12.3352
    12.4332  12.4724  12.5192  12.5338  12.6252  12.7402  12.8199  12.8888
    12.9322  13.0212  13.1672  13.2080  13.2630  13.4755  13.5262  13.5777
    13.7000  13.7157  13.7555  13.8804  13.9191  13.9966  14.0781  14.1295
    14.2020  14.3897  14.4480  14.5296  14.5786  14.6480  14.7370  14.8284
    14.8855  15.0129  15.1520  15.2602  15.2973  15.3480  15.4042  15.4285
    15.5351  15.5693  15.6575  15.6849  15.7217  15.7654  15.8359  15.9263
    15.9784  16.0347  16.0811  16.1333  16.1947  16.2761  16.3332  16.4334
    16.5478  16.5924  16.6823  16.7197  16.7696  16.8265  16.9064  16.9157
    16.9422  17.0675  17.0896  17.1151  17.1302  17.1376  17.1598  17.1847
    17.2113  17.2303  17.2617  17.2789  17.3144  17.3943  17.4552  17.4982
    17.5111  17.5641  17.6454  17.7151  17.7693  17.9186  17.9380  18.0179
    18.0637  18.0853  18.1496  18.2359  18.2929  18.3560  18.4431  18.5171
    18.5683  18.5960  18.6338  18.7199  18.7731  18.8689  18.8905  18.9749
    19.0420  19.1711  19.2218  19.2573  19.3365  19.4055  19.4512  19.5350
    19.6254  19.7703  19.8358  19.9209  19.9375  19.9819  20.0244  20.0900
    20.1383  20.2514  20.2652  20.3181  20.3398  20.4003  20.4519  20.5095
    20.6491  20.7229  20.8316  20.8957  20.9256  20.9796  21.0205  21.0648
    21.1651  21.2150  21.2860  21.3059  21.4110  21.4204  21.4875  21.5693
    21.6227  21.6668  21.7748  21.8196  21.8808  21.9698  22.0245  22.0726
    22.1768

          k = 0.2500-0.4976 0.0000 ( 32026 PWs)   bands (ev):

   -55.6056 -55.5489 -55.4067 -55.3162 -55.2861 -55.2778 -55.2454 -55.2131
   -55.1677 -55.1478 -55.1428 -55.1171 -55.1135 -55.0020 -54.9664 -54.9659
   -54.9612 -54.9056 -54.8697 -54.8445 -54.8393 -54.5600 -54.3132 -53.9569
   -22.2154 -21.9958 -21.2191 -21.0903 -21.0619 -21.0135 -20.9554 -20.7095
   -20.6942 -20.6098 -20.5252 -20.4032 -20.3882 -20.3291 -20.2942 -20.1271
   -19.5835 -19.3071 -19.2140 -11.2068 -11.1456 -10.7482 -10.6065 -10.6014
   -10.4646 -10.4282 -10.2805  -9.8846  -9.7006  -9.6564  -9.6060  -9.4757
    -9.3573  -9.3015  -9.1816  -9.1611  -9.1279  -8.9297  -8.8408  -8.6463
    -8.5409  -8.4555  -8.4177  -8.3546  -8.2294  -8.1116  -8.0215  -7.9731
    -7.9547  -7.8615  -7.7517  -7.5345  -7.5032  -7.4745  -7.3385  -7.2757
    -7.1660  -6.9870  -6.8181  -6.7085  -6.6187  -6.5213  -6.3143  -6.1654
    -6.0390  -5.9592  -5.7550  -5.5803  -5.5641  -5.3061  -5.0735  -5.0023
    -4.9543  -4.8275  -4.6532  -4.5654  -4.3448  -4.2065  -4.1666  -4.0892
    -4.0337  -3.9571  -3.8635  -3.7304  -3.6727  -3.5570  -3.4906  -3.4164
    -3.3127  -3.1725  -2.9392  -2.8361  -2.7805  -2.7715  -2.6385  -2.5330
    -2.3208  -2.2715  -2.0879  -1.9899  -1.8622  -1.5793  -1.4335  -0.7650
    -0.4834  -0.0165   0.0773   0.2996   0.4181   0.6107   1.1319   1.1506
     1.1666   1.3071   1.3841   1.5685   3.7946   4.1631   4.3158   5.1041
     5.1839   5.3624   5.4090   5.6186   5.8797   5.9201   5.9260   5.9735
     6.2599   6.5944   6.6907   6.7979   6.9109   6.9309   6.9940   7.1792
     7.3463   7.4855   7.5104   7.6049   7.6553   7.7033   7.8220   7.9419
     8.0020   8.0835   8.2612   8.3136   8.4274   8.5052   8.6268   8.7479
     8.7825   8.8856   8.9454   9.0756   9.1499   9.3416   9.3879   9.6030
     9.8044   9.9484   9.9743  10.1088  10.2511  10.5769  10.6845  10.7451
    10.8070  10.9151  11.0594  11.0907  11.1187  11.2910  11.3217  11.3672
    11.4259  11.4827  11.5289  11.6376  11.6819  11.7499  11.8610  11.9821
    12.1008  12.1803  12.2328  12.2737  12.3401  12.4014  12.4513  12.5362
    12.5774  12.6692  12.8399  12.8862  12.9135  12.9670  13.0343  13.0848
    13.1424  13.1796  13.2174  13.4106  13.4691  13.5580  13.6655  13.6863
    13.7241  13.8467  13.9103  13.9867  14.0145  14.0943  14.1228  14.1510
    14.2376  14.2744  14.3329  14.4147  14.5404  14.5858  14.6381  14.6604
    14.7162  14.7586  14.8167  14.9176  15.0327  15.0452  15.1567  15.2001
    15.3070  15.3687  15.4319  15.5649  15.6685  15.7069  15.7791  15.7899
    15.8888  15.9528  16.0581  16.0864  16.1181  16.1726  16.2105  16.2666
    16.3799  16.4212  16.4910  16.5028  16.5914  16.6501  16.6701  16.6947
    16.7258  16.7935  16.9014  16.9615  16.9837  17.1052  17.1281  17.1341
    17.1433  17.1562  17.1834  17.2005  17.2143  17.2508  17.3214  17.3544
    17.4373  17.4967  17.5550  17.6505  17.7126  17.7597  17.8190  17.8962
    18.0293  18.0677  18.0887  18.1379  18.1763  18.2403  18.2937  18.3679
    18.3941  18.4166  18.4429  18.5225  18.6142  18.6389  18.6859  18.8164
    18.9013  18.9360  18.9937  19.0374  19.0900  19.1598  19.2083  19.2737
    19.3167  19.3834  19.4515  19.4931  19.5669  19.6393  19.7300  19.8330
    19.9809  20.0807  20.0973  20.1645  20.2359  20.3142  20.3522  20.4092
    20.4839  20.5459  20.5846  20.6599  20.7341  20.7986  20.8572  20.8743
    20.9788  21.0622  21.1820  21.2446  21.3034  21.4047  21.4730  21.4939
    21.5493  21.6435  21.6776  21.8419  21.8598  22.0225  22.0273  22.1297
    22.1916

          k =-0.5000 0.0000 0.0000 ( 31984 PWs)   bands (ev):

   -55.6058 -55.5507 -55.4074 -55.3003 -55.2987 -55.2686 -55.2679 -55.2034
   -55.1810 -55.1470 -55.1454 -55.1156 -55.1151 -55.0021 -54.9679 -54.9638
   -54.9626 -54.9057 -54.8701 -54.8421 -54.8417 -54.5627 -54.3138 -53.9571
   -22.1494 -21.9867 -21.2104 -21.2078 -21.1393 -21.1338 -20.7545 -20.7276
   -20.7035 -20.5930 -20.3902 -20.3828 -20.3122 -20.2381 -20.1912 -20.1744
   -19.6276 -19.4559 -19.2354 -10.8874 -10.8651 -10.7877 -10.7166 -10.5991
   -10.5877 -10.1662 -10.1481 -10.0931 -10.0442  -9.9602  -9.9133  -9.7585
    -9.7021  -9.4356  -9.4070  -9.3307  -9.2853  -8.8049  -8.7289  -8.5906
    -8.4781  -8.3277  -8.2798  -8.1921  -8.1547  -8.0530  -8.0034  -7.9406
    -7.8500  -7.7317  -7.6562  -7.5688  -7.5200  -7.4585  -7.3004  -7.2597
    -7.2281  -7.0622  -6.8876  -6.8067  -6.7037  -6.5932  -6.4942  -6.3245
    -5.6844  -5.6638  -5.5874  -5.4777  -5.4192  -5.3019  -5.2161  -5.1411
    -5.0572  -5.0086  -4.9423  -4.6051  -4.3104  -4.2659  -4.1920  -4.0989
    -3.9554  -3.7788  -3.7220  -3.5657  -3.4391  -3.3730  -3.2179  -3.0498
    -3.0254  -2.9692  -2.9623  -2.8667  -2.7801  -2.7538  -2.5123  -2.4227
    -2.3591  -2.3520  -2.2746  -1.9541  -1.8099  -0.6388  -0.4321  -0.4221
    -0.3085  -0.1407  -0.0372   0.0955   0.0989   0.1999   0.2348   0.3342
     0.4653   1.1251   1.2714   1.5220   3.6844   3.6896   4.2491   4.8182
     5.0035   5.1883   5.4613   5.6635   5.6972   5.7610   6.1848   6.3413
     6.3672   6.5973   6.6393   6.7127   7.0945   7.2379   7.4186   7.4944
     7.5497   7.7473   7.7859   7.9627   7.9758   8.1400   8.2374   8.3688
     8.3978   8.5641   8.5861   8.7333   8.7826   8.8400   8.8859   8.9934
     9.0246   9.0938   9.1587   9.1851   9.2939   9.3248   9.3925   9.4116
     9.4900   9.5679   9.6462   9.7388   9.8493   9.8691  10.0932  10.1226
    10.2988  10.3490  10.6657  10.6944  10.7605  10.7980  10.8524  10.8747
    11.2502  11.2914  11.3295  11.4529  11.5168  11.5510  11.5826  11.5900
    11.8087  11.8643  11.9277  11.9544  12.0891  12.1386  12.3401  12.4183
    12.4523  12.4919  12.5095  12.5510  12.7287  12.7926  12.8604  12.8850
    12.9836  13.0013  13.0147  13.0175  13.1140  13.1437  13.2676  13.3362
    13.5674  13.6418  13.7474  13.8033  13.8495  13.9174  14.0244  14.1536
    14.2158  14.2493  14.3577  14.4304  14.5711  14.5946  14.6985  14.7547
    15.0315  15.0599  15.1131  15.2910  15.4123  15.5349  15.5504  15.6532
    15.6912  15.7021  15.7530  15.7690  15.9367  15.9994  16.0582  16.1364
    16.1551  16.1623  16.2031  16.2735  16.2853  16.3350  16.3444  16.4154
    16.4484  16.4848  16.6301  16.6420  16.7340  16.7945  16.8058  16.9140
    17.0557  17.0960  17.1243  17.1306  17.1484  17.1741  17.1990  17.2208
    17.2330  17.2478  17.2632  17.3701  17.5551  17.6199  17.6383  17.7433
    17.8099  17.8606  17.9358  17.9751  18.0351  18.0674  18.1083  18.1826
    18.2270  18.3305  18.3639  18.4124  18.4447  18.4905  18.6610  18.6828
    18.7714  18.7938  18.8254  18.8550  18.9134  18.9966  19.0898  19.1214
    19.1833  19.2851  19.3447  19.3746  19.4568  19.4940  19.5295  19.5463
    19.5680  19.6374  19.6971  19.7505  19.8106  19.8464  19.9298  19.9645
    19.9782  20.0316  20.1024  20.1663  20.2257  20.2572  20.3528  20.4233
    20.4361  20.4612  20.5118  20.5280  20.5910  20.6097  20.6428  20.6810
    20.7431  20.7591  20.8567  20.8695  20.9450  21.1338  21.1565  21.2853
    21.3141  21.3772  21.4353  21.4513  21.6480  21.6969  21.7346  21.8167
    21.8349

          k =-0.5000 0.2488 0.0000 ( 32052 PWs)   bands (ev):

   -55.6058 -55.5506 -55.4071 -55.3000 -55.2985 -55.2683 -55.2677 -55.2034
   -55.1811 -55.1467 -55.1451 -55.1156 -55.1153 -55.0021 -54.9673 -54.9639
   -54.9631 -54.9057 -54.8701 -54.8422 -54.8417 -54.5625 -54.3136 -53.9571
   -22.1463 -21.9835 -21.1171 -21.1160 -21.0368 -21.0316 -20.7686 -20.7409
   -20.7084 -20.6161 -20.4869 -20.4700 -20.4257 -20.3461 -20.2152 -20.1877
   -19.6289 -19.4563 -19.2355 -10.8067 -10.7054 -10.4875 -10.4820 -10.4242
   -10.3117 -10.2022 -10.1647 -10.0874 -10.0304  -9.9341  -9.8810  -9.8017
    -9.7592  -9.4976  -9.4446  -9.1963  -9.1427  -8.8163  -8.7211  -8.5640
    -8.5064  -8.4647  -8.4175  -8.2705  -8.2547  -8.1624  -8.1148  -8.0752
    -7.9730  -7.8038  -7.7366  -7.6884  -7.6192  -7.4983  -7.4137  -7.2832
    -7.2013  -7.1298  -6.9553  -6.8027  -6.6249  -6.5858  -6.5234  -6.3690
    -6.0892  -6.0090  -5.8776  -5.7014  -5.4535  -5.3708  -5.2953  -4.7039
    -4.6223  -4.5793  -4.5234  -4.3936  -4.2544  -4.2212  -4.1935  -4.1079
    -3.8568  -3.7625  -3.7371  -3.6728  -3.5337  -3.3815  -3.2339  -3.1437
    -3.1139  -3.0199  -2.9152  -2.8587  -2.7344  -2.7039  -2.6164  -2.4922
    -2.4124  -2.3648  -2.2943  -1.9793  -1.7808  -0.7275  -0.7132  -0.5931
    -0.4336  -0.3094  -0.2849   0.0558   0.0841   0.4182   0.5100   0.7602
     0.7772   1.0744   1.3146   1.5894   3.9470   3.9601   4.3679   5.0623
     5.2242   5.4011   5.6323   5.6606   5.7168   5.9269   5.9434   5.9875
     6.3179   6.7085   6.7233   6.7673   6.8009   6.8931   7.0694   7.1440
     7.3348   7.5196   7.5485   7.6354   7.6721   7.7887   7.8759   7.9900
     8.1161   8.2056   8.2225   8.4316   8.4738   8.5941   8.6136   8.7746
     8.8569   9.1269   9.2215   9.2477   9.3767   9.4925   9.5509   9.5815
     9.7169   9.8909  10.0320  10.0632  10.3861  10.4758  10.5458  10.5864
    10.7819  10.7971  10.9436  10.9591  11.0494  11.0762  11.1867  11.2116
    11.3326  11.4198  11.5448  11.6064  11.6910  11.7918  11.8393  11.8684
    12.0721  12.1065  12.1717  12.2186  12.3017  12.4133  12.5431  12.5768
    12.6522  12.6904  12.7328  12.7603  12.8828  12.8972  12.9921  13.0629
    13.1323  13.1944  13.2332  13.2828  13.3230  13.3784  13.4153  13.5483
    13.5866  13.6800  13.8370  13.9285  13.9474  14.0179  14.0515  14.0792
    14.1706  14.2492  14.2932  14.3613  14.4304  14.4822  14.5408  14.5666
    14.5939  14.7241  14.7899  14.8590  14.9023  15.0170  15.1226  15.2368
    15.2800  15.3133  15.5440  15.6103  15.6973  15.7353  15.7733  15.8512
    15.9148  15.9898  16.0528  16.0664  16.1692  16.2180  16.2513  16.2927
    16.3617  16.4154  16.5196  16.5466  16.6112  16.6336  16.7031  16.7088
    16.8536  16.8889  16.9766  17.0706  17.0804  17.1136  17.1316  17.1427
    17.1510  17.1888  17.2436  17.2632  17.3055  17.3150  17.3566  17.3878
    17.4724  17.5614  17.5915  17.6129  17.7982  17.8814  17.9352  18.0189
    18.0458  18.0604  18.1128  18.1286  18.1885  18.2342  18.2553  18.3760
    18.4158  18.4912  18.5080  18.6466  18.6706  18.7508  18.7883  18.8587
    18.9169  18.9568  19.0444  19.0800  19.2352  19.2615  19.3036  19.3422
    19.3919  19.5087  19.5430  19.6157  19.6694  19.7346  19.8442  19.8764
    19.9131  19.9695  20.0111  20.1488  20.2909  20.3395  20.3807  20.5106
    20.5729  20.6025  20.6960  20.7663  20.8365  20.9146  21.0089  21.0686
    21.0916  21.1284  21.1693  21.3003  21.3329  21.4500  21.5305  21.5774
    21.6943  21.7068  21.7766  21.8183  21.8789  21.9220  21.9819  22.0461
    22.0938

          k =-0.5000-0.4976 0.0000 ( 31956 PWs)   bands (ev):

   -55.6058 -55.5505 -55.4068 -55.2997 -55.2982 -55.2680 -55.2674 -55.2035
   -55.1812 -55.1464 -55.1447 -55.1157 -55.1154 -55.0020 -54.9664 -54.9643
   -54.9636 -54.9056 -54.8700 -54.8422 -54.8418 -54.5624 -54.3134 -53.9571
   -22.1433 -21.9804 -20.9248 -20.9229 -20.8816 -20.8506 -20.8367 -20.7915
   -20.7618 -20.7514 -20.6092 -20.5896 -20.5690 -20.4631 -20.2253 -20.1957
   -19.6300 -19.4566 -19.2357 -10.8049 -10.6947 -10.2669 -10.2405 -10.2195
   -10.1916 -10.0453  -9.9922  -9.9211  -9.8493  -9.7317  -9.6800  -9.6566
    -9.4913  -9.4768  -9.3448  -9.2652  -9.2595  -9.2319  -9.0000  -8.9579
    -8.9464  -8.6048  -8.5274  -8.4307  -8.3108  -8.2836  -8.1709  -8.0319
    -7.9239  -7.8802  -7.7687  -7.5916  -7.5807  -7.4895  -7.4515  -7.2631
    -7.2394  -7.1515  -7.1119  -6.9733  -6.7170  -6.6590  -6.5326  -6.3781
    -6.2779  -6.1960  -6.0989  -5.8713  -5.4127  -5.3109  -5.2797  -4.6195
    -4.3162  -4.2896  -4.2569  -4.2283  -4.1469  -4.1005  -4.0948  -3.9924
    -3.7657  -3.7470  -3.7276  -3.6928  -3.4927  -3.4513  -3.4431  -3.1442
    -3.1356  -3.1165  -2.9293  -2.8306  -2.7351  -2.6722  -2.6471  -2.5588
    -2.4609  -2.4498  -2.2768  -2.0110  -1.7631  -1.0701  -0.9537  -0.9300
    -0.5956  -0.4382  -0.2524   0.1128   0.1335   0.7083   0.8430   0.8792
     0.9615   1.2901   1.3462   1.4464   4.4557   4.4926   4.5474   4.9121
     4.9330   5.6800   5.8308   5.8803   5.9030   6.0435   6.0924   6.1507
     6.3099   6.4918   6.4954   6.5933   6.5981   6.6060   6.6220   6.7218
     7.0646   7.1736   7.2977   7.3584   7.4519   7.5108   7.5593   7.5962
     7.9328   8.0595   8.2980   8.3250   8.4009   8.5730   8.6149   8.8786
     8.8857   8.9985   9.0589   9.3322   9.3770   9.4345   9.5123   9.5465
     9.6836   9.7794  10.1464  10.2254  10.4000  10.6343  10.6640  10.6669
    10.7950  10.8588  11.2634  11.2790  11.4683  11.5748  11.7116  11.7641
    11.9449  11.9613  11.9848  12.0093  12.1588  12.2076  12.3548  12.4032
    12.5893  12.6419  12.6671  12.7849  12.8047  12.8435  12.8980  12.9060
    13.0753  13.0883  13.1249  13.1445  13.1951  13.2345  13.2522  13.2844
    13.2982  13.3190  13.5241  13.5365  13.5705  13.5923  13.5970  13.6212
    13.6631  13.7182  13.7489  13.7799  13.8078  13.8288  13.8540  13.8863
    13.9295  13.9602  14.0217  14.0772  14.2718  14.3180  14.3782  14.4444
    14.4901  14.6497  14.6814  14.7500  14.7998  14.8029  14.8255  14.8371
    14.8831  14.9227  14.9559  14.9798  15.0306  15.0877  15.2481  15.2793
    15.3090  15.3773  15.4683  15.4743  15.5173  15.5821  15.6675  15.7671
    15.7815  15.8285  16.0885  16.1527  16.3548  16.3665  16.4508  16.4943
    16.5212  16.5594  16.5987  16.6376  16.6644  16.7277  16.7531  16.9947
    17.0687  17.1326  17.1413  17.1480  17.1814  17.2083  17.2333  17.2589
    17.3150  17.4032  17.5156  17.6010  17.6777  17.7841  17.8449  17.8893
    17.9238  17.9761  17.9916  18.1229  18.1843  18.2968  18.3982  18.5007
    18.5478  18.5881  18.6374  18.7726  18.8697  18.9280  19.0007  19.0392
    19.1382  19.2273  19.2740  19.3507  19.3899  19.5547  19.6678  19.7076
    19.7116  19.7705  19.8704  19.9606  20.0031  20.0511  20.1277  20.2232
    20.2957  20.3784  20.4383  20.4797  20.5086  20.5218  20.5709  20.6702
    20.6877  20.7548  20.8053  20.8239  20.8726  20.9128  21.0159  21.0270
    21.0488  21.0852  21.1637  21.1778  21.2572  21.2716  21.3349  21.3432
    21.3675  21.4278  21.4663  21.4987  21.5274  21.6260  21.6729  21.7292
    21.7471

          k =-0.2500 0.2488 0.0000 ( 32025 PWs)   bands (ev):

   -55.6056 -55.5490 -55.4070 -55.3167 -55.2866 -55.2779 -55.2454 -55.2131
   -55.1675 -55.1478 -55.1434 -55.1166 -55.1139 -55.0020 -54.9676 -54.9648
   -54.9613 -54.9056 -54.8698 -54.8444 -54.8393 -54.5601 -54.3134 -53.9569
   -22.2232 -21.9978 -21.3888 -21.3263 -20.9934 -20.9368 -20.9345 -20.7099
   -20.6778 -20.5678 -20.4819 -20.4071 -20.3878 -20.2177 -20.1582 -20.1263
   -19.5862 -19.3019 -19.2143 -11.2665 -11.1240 -11.0036 -10.9787 -10.5457
   -10.4889 -10.4665 -10.1897 -10.0467  -9.8922  -9.7846  -9.7446  -9.6043
    -9.4636  -9.3991  -9.2804  -9.1491  -9.0216  -8.8587  -8.7190  -8.5847
    -8.5255  -8.4648  -8.3439  -8.2041  -8.1091  -8.0265  -7.8657  -7.8582
    -7.7821  -7.6797  -7.5795  -7.5607  -7.4239  -7.3287  -7.2842  -7.2030
    -7.1010  -7.0612  -6.8677  -6.7287  -6.6926  -6.4056  -6.1896  -6.0321
    -5.8256  -5.7883  -5.7216  -5.6029  -5.4976  -5.4077  -5.3054  -5.1433
    -5.0256  -4.8519  -4.6847  -4.5589  -4.4855  -4.3444  -4.2863  -4.2142
    -4.0716  -4.0227  -3.9418  -3.7890  -3.6855  -3.6662  -3.4068  -3.3435
    -3.2510  -3.0391  -2.9129  -2.7843  -2.7475  -2.6451  -2.6016  -2.4834
    -2.3013  -2.1814  -2.0636  -1.9651  -1.8247  -1.2909  -1.1590  -0.8343
    -0.4937  -0.3189   0.0180   0.2865   0.5627   0.6901   0.7480   0.8581
     1.0715   1.2554   1.3030   1.6962   3.0875   3.8828   4.5834   5.0149
     5.0316   5.1060   5.2940   5.6795   6.1180   6.1578   6.1825   6.3409
     6.4374   6.5279   6.6851   6.8694   6.9271   6.9782   7.1236   7.2612
     7.3878   7.5082   7.5806   7.6079   7.7130   7.8706   7.9455   8.0739
     8.1925   8.2992   8.3365   8.4832   8.5664   8.6397   8.6666   8.7969
     8.8916   9.0384   9.1480   9.2933   9.3365   9.4789   9.5529   9.6162
     9.6994   9.8685  10.0348  10.0904  10.1846  10.2542  10.3099  10.3882
    10.5261  10.5819  10.6524  10.7689  10.7812  10.9689  11.0555  11.1059
    11.1900  11.2119  11.3782  11.4694  11.4827  11.7224  11.7332  11.7786
    11.8682  11.9404  12.0064  12.0755  12.1349  12.2494  12.2971  12.3398
    12.4115  12.4513  12.5334  12.5778  12.6391  12.7375  12.8125  12.9321
    12.9678  13.0372  13.1519  13.2005  13.2396  13.4502  13.5318  13.5696
    13.6530  13.6976  13.7687  13.8684  13.9278  13.9784  14.0714  14.1338
    14.1929  14.3575  14.4112  14.5201  14.5680  14.6352  14.7646  14.8525
    14.8715  14.9460  15.1254  15.2186  15.2570  15.3154  15.4045  15.4454
    15.5211  15.5783  15.6453  15.6745  15.7401  15.7649  15.8217  15.8822
    15.9931  16.0555  16.0726  16.1436  16.1706  16.2547  16.3628  16.4307
    16.4985  16.5741  16.6908  16.7421  16.7919  16.8429  16.8911  16.9000
    16.9926  17.0822  17.1069  17.1125  17.1280  17.1413  17.1568  17.1919
    17.2110  17.2326  17.2735  17.2856  17.3277  17.3821  17.4705  17.5117
    17.5432  17.5816  17.6142  17.7336  17.7847  17.8967  17.9580  18.0371
    18.0577  18.0965  18.1459  18.2637  18.2733  18.4019  18.4940  18.5372
    18.5971  18.6252  18.6750  18.7325  18.8336  18.8810  18.8976  19.0200
    19.0589  19.1750  19.1974  19.2276  19.3252  19.3731  19.4502  19.4955
    19.6551  19.7853  19.8387  19.8929  19.9646  19.9838  20.0016  20.0812
    20.1478  20.2313  20.2508  20.3178  20.3694  20.3886  20.5123  20.5922
    20.6761  20.7155  20.7607  20.8617  20.9259  20.9594  21.0252  21.0501
    21.0753  21.2398  21.2637  21.3822  21.4039  21.4579  21.5084  21.5637
    21.6150  21.6625  21.7422  21.7932  21.8358  21.9011  22.0148  22.1097
    22.1465

     the Fermi energy is    -2.0162 ev

!    total energy              =   -2279.15947390 Ry
     Harris-Foulkes estimate   =   -2279.15947421 Ry
     estimated scf accuracy    <       0.00000036 Ry

     The total energy is the sum of the following terms:

     one-electron contribution =  -23640.85626524 Ry
     hartree contribution      =   11863.07621005 Ry
     xc contribution           =    -572.13699563 Ry
     ewald contribution        =   10069.15257164 Ry
     Hubbard energy            =       1.60540065 Ry
     smearing contrib. (-TS)   =      -0.00039537 Ry

     convergence has been achieved in  37 iterations

     Forces acting on atoms (Ry/au):


     negative rho (up, down):  0.157E+01 0.000E+00
     atom    1 type  1   force =    -0.00927984   -0.00520865   -0.00212062
     atom    2 type  1   force =     0.00013289    0.00286154    0.00159019
     atom    3 type  2   force =     0.01647333    0.00764808   -0.00278427
     atom    4 type  2   force =     0.01127114    0.00463556   -0.00102576
     atom    5 type  1   force =     0.00117200   -0.00349212   -0.00253621
     atom    6 type  1   force =    -0.00009772   -0.00261404    0.00285665
     atom    7 type  1   force =     0.00009230    0.00088284   -0.00046491
     atom    8 type  1   force =    -0.00436014    0.00220465    0.00534049
     atom    9 type  2   force =     0.00441988   -0.00447769   -0.00795255
     atom   10 type  2   force =     0.00000737   -0.01900183   -0.00207811
     atom   11 type  1   force =    -0.00107551    0.00207876   -0.00257300
     atom   12 type  1   force =    -0.00724121    0.01262035    0.00302726
     atom   13 type  1   force =    -0.00112571   -0.00745953    0.00392948
     atom   14 type  1   force =    -0.00968300   -0.00404334   -0.00199138
     atom   15 type  1   force =     0.00025149   -0.00035641    0.00303228
     atom   16 type  2   force =    -0.01731135    0.00757014   -0.00293649
     atom   17 type  2   force =     0.01118053    0.00511268   -0.00098332
     atom   18 type  1   force =     0.00114561   -0.00345708   -0.00251022
     atom   19 type  1   force =     0.00008231   -0.00254586    0.00286170
     atom   20 type  1   force =     0.00007619   -0.00451304    0.00299476
     atom   21 type  1   force =    -0.00415127    0.00224896    0.00493809
     atom   22 type  2   force =    -0.00051437   -0.00432801   -0.00814490
     atom   23 type  2   force =    -0.00024324    0.00936651   -0.02319069
     atom   24 type  1   force =     0.00117159    0.00212856   -0.00259957
     atom   25 type  1   force =     0.00738325    0.01259199    0.00304397
     atom   26 type  1   force =    -0.00115068   -0.01616856    0.00597763
     atom   27 type  3   force =    -0.00001952    0.00007067    0.00254079
     atom   28 type  3   force =    -0.00004598    0.00104751    0.00205351
     atom   29 type  3   force =     0.00052477   -0.00021199    0.00175667
     atom   30 type  3   force =     0.00089134   -0.00052712    0.00173266
     atom   31 type  1   force =     0.00002355    0.00533647    0.01621588

     Total force =     0.034571     Total SCF correction =     0.001016

     BFGS Geometry Optimization

     number of scf cycles    =   1
     number of bfgs steps    =   0

     energy   new            =   -2279.1594738974 Ry

     new trust radius        =       0.0231906924 bohr
     new conv_thr            =       0.0000010000 Ry


ATOMIC_POSITIONS (crystal)
O0       0.000000000   0.000000000   0.377667640    0   0   1
O0       0.000000000   0.500000000   0.401661765    0   0   1
Pt1      0.250000000   0.500000000   0.451184383    0   0   1
Pt1      0.000000000   0.000000000   0.452689510    0   0   1
O0       0.250000000   0.810000000   0.443339338    0   0   1
O0       0.250000000   0.190000000   0.460137063    0   0   1
O0       0.000000000   0.500000000   0.496800713    0   0   1
O0       0.000000000   0.000000000   0.529806679    0   0   1
Pt1      0.250000000   0.000000000   0.575911143    0   0   1
Pt1      0.000000000   0.500000000   0.575308489    0   0   1
O0       0.250000000   0.690000000   0.566068603    0   0   1
O0       0.250000000   0.310000000   0.585830471    0   0   1
O0       0.000000000   0.000000000   0.621458494    0   0   1
O0       0.500000000   0.000000000   0.377750221    0   0   1
O0       0.500000000   0.500000000   0.400940571    0   0   1
Pt1      0.750000000   0.500000000   0.451191342    0   0   1
Pt1      0.500000000   0.000000000   0.452700358    0   0   1
O0       0.750000000   0.810000000   0.443379857    0   0   1
O0       0.750000000   0.190000000   0.460127164    0   0   1
O0       0.500000000   0.500000000   0.498279822    0   0   1
O0       0.500000000   0.000000000   0.529658641    0   0   1
Pt1      0.750000000   0.000000000   0.575917301    0   0   1
Pt1      0.500000000   0.500000000   0.577406753    0   0   1
O0       0.750000000   0.690000000   0.566058072    0   0   1
O0       0.750000000   0.310000000   0.585840805    0   0   1
O0       0.500000000   0.000000000   0.621469406    0   0   1
H2       0.000108401   0.639505761   0.385700754
H2       0.500176234   0.640105395   0.385371020
H2       0.142702987   0.036302718   0.367615090
H2       0.641993015   0.038647028   0.367614611
O0       0.500091929   0.573035038   0.644783921


     Check: negative starting charge=   -1.533958
     NEW-OLD atomic charge density approx. for the potential

     Check: negative/imaginary core charge=   -0.000003    0.000000
     Check: negative starting charge=   -1.533688

     negative rho (up, down):  0.157E+01 0.000E+00
 Atomic wfc used for LDA+U Projector are NOT orthogonalized

     total cpu time spent up to now is     8761.6 secs

     per-process dynamical memory:   464.7 Mb

     Self-consistent Calculation

     iteration #  1     ecut=    40.00 Ry     beta=0.70
     Davidson diagonalization with overlap
     ethr =  1.00E-06,  avg # of iterations =  3.8
 --- enter write_ns ---
 LDA+U parameters:
U( 2)     =  6.00000000
alpha( 2) =  0.00000000
atom    3   Tr[ns(na)] =   8.77777
    eigenvalues: 
  0.705  0.716  0.988  0.989  0.991
    eigenvectors:
  0.052  0.120  0.515  0.312  0.002
  0.711  0.289  0.000  0.000  0.000
  0.001  0.003  0.006  0.047  0.943
  0.237  0.587  0.111  0.058  0.007
  0.000  0.000  0.368  0.583  0.048
    occupations:
  0.941  0.004  0.007 -0.104 -0.000
  0.004  0.708  0.002  0.004 -0.004
  0.007  0.002  0.990  0.016  0.001
 -0.104  0.004  0.016  0.762  0.000
 -0.000 -0.004  0.001  0.000  0.988
atom    4   Tr[ns(na)] =   8.76807
    eigenvalues: 
  0.699  0.722  0.986  0.988  0.989
    eigenvectors:
  0.000  0.986  0.008  0.005  0.001
  0.009  0.000  0.146  0.751  0.094
  0.000  0.004  0.619  0.018  0.359
  0.000  0.009  0.225  0.220  0.546
  0.991  0.000  0.001  0.007  0.001
    occupations:
  0.726 -0.005 -0.017  0.026 -0.001
 -0.005  0.985  0.000  0.000  0.027
 -0.017  0.000  0.986  0.003  0.000
  0.026  0.000  0.003  0.985  0.000
 -0.001  0.027  0.000  0.000  0.702
atom    9   Tr[ns(na)] =   8.75785
    eigenvalues: 
  0.722  0.731  0.964  0.973  0.988
    eigenvectors:
  0.005  0.130  0.001  0.009  0.856
  0.967  0.033  0.000  0.000  0.000
  0.000  0.010  0.012  0.974  0.003
  0.028  0.827  0.001  0.005  0.139
  0.000  0.000  0.987  0.012  0.001
    occupations:
  0.953  0.001 -0.008 -0.087  0.001
  0.001  0.722  0.001  0.001 -0.004
 -0.008  0.001  0.971 -0.023  0.001
 -0.087  0.001 -0.023  0.768 -0.000
  0.001 -0.004  0.001 -0.000  0.964
[...]
    16.1565  16.1951  16.2191  16.2855  16.2999  16.3446  16.3659  16.4223
    16.4687  16.4830  16.6491  16.6672  16.7702  16.8137  16.8228  16.9226
    17.0490  17.0860  17.1072  17.1256  17.1453  17.1665  17.1937  17.2193
    17.2294  17.2428  17.2574  17.3593  17.5583  17.6047  17.6222  17.7428
    17.8013  17.8513  17.9171  17.9912  18.0236  18.0559  18.0832  18.1596
    18.2083  18.3216  18.3471  18.3919  18.4107  18.4824  18.6702  18.6912
    18.7756  18.7914  18.8371  18.8476  18.9195  18.9905  19.1036  19.1211
    19.1891  19.2678  19.3277  19.3553  19.4429  19.4915  19.5303  19.5399
    19.5702  19.6249  19.6900  19.7565  19.8158  19.8428  19.9300  19.9619
    19.9723  20.0282  20.0988  20.1726  20.2337  20.2608  20.3359  20.4065
    20.4243  20.4595  20.5221  20.5390  20.5901  20.6076  20.6380  20.6730
    20.7378  20.7576  20.8415  20.8789  20.9458  21.1594  21.1796  21.3016
    21.3275  21.3876  21.4235  21.4497  21.6457  21.6903  21.7217  21.8025
    21.8208

          k =-0.5000 0.2488 0.0000 ( 32052 PWs)   bands (ev):

   -55.5403 -55.5013 -55.3703 -55.3320 -55.3306 -55.2692 -55.2685 -55.2113
   -55.1886 -55.1792 -55.1779 -55.1124 -55.1122 -55.0233 -54.9885 -54.9867
   -54.9848 -54.8998 -54.8632 -54.8369 -54.8366 -54.5947 -54.3597 -54.0091
   -22.2006 -22.0477 -21.1407 -21.1390 -21.0274 -21.0222 -20.8156 -20.7683
   -20.7287 -20.6769 -20.5176 -20.5005 -20.4193 -20.3504 -20.2302 -20.2021
   -19.6384 -19.4456 -19.1352 -10.8435 -10.7485 -10.4926 -10.4856 -10.4075
   -10.3008 -10.2151 -10.1795 -10.0936 -10.0581  -9.9355  -9.8815  -9.8083
    -9.7798  -9.5055  -9.4565  -9.2076  -9.1641  -8.8305  -8.7467  -8.5667
    -8.5215  -8.4570  -8.4147  -8.2840  -8.2653  -8.1763  -8.1235  -8.0890
    -7.9910  -7.8095  -7.7306  -7.6994  -7.6260  -7.5133  -7.4411  -7.2847
    -7.2040  -7.1330  -6.9610  -6.7880  -6.6201  -6.5848  -6.5123  -6.3689
    -6.1028  -6.0304  -5.8942  -5.7061  -5.4825  -5.3802  -5.3114  -4.7300
    -4.6456  -4.5977  -4.5366  -4.4127  -4.2708  -4.2324  -4.2081  -4.1352
    -3.8691  -3.7928  -3.7671  -3.6846  -3.5683  -3.3965  -3.2592  -3.1807
    -3.1481  -3.0436  -2.9482  -2.9032  -2.7885  -2.7598  -2.6500  -2.5108
    -2.4423  -2.3917  -2.3049  -1.9850  -1.7868  -0.7520  -0.7463  -0.6249
    -0.4623  -0.3388  -0.2933   0.0330   0.0617   0.3868   0.4699   0.7081
     0.7458   1.0298   1.2585   1.5314   3.9458   3.9585   4.3261   5.0451
     5.2227   5.4010   5.6339   5.6567   5.7163   5.9207   5.9355   5.9853
     6.3008   6.6755   6.6992   6.7441   6.7818   6.8866   7.0611   7.1435
     7.3103   7.5094   7.5391   7.6151   7.6568   7.7674   7.8558   7.9659
     8.0803   8.1744   8.1884   8.4167   8.4548   8.5717   8.5888   8.7550
     8.8366   9.1011   9.2211   9.2455   9.3717   9.5076   9.5385   9.5609
     9.7284   9.8947  10.0302  10.0617  10.3848  10.4710  10.5416  10.5856
    10.7765  10.7938  10.9412  10.9519  11.0372  11.0637  11.1811  11.2136
    11.3296  11.4228  11.5512  11.6067  11.6791  11.7847  11.8242  11.8530
    12.0758  12.1080  12.1737  12.2193  12.3071  12.4031  12.5433  12.5741
    12.6418  12.6919  12.7267  12.7555  12.8797  12.8989  12.9894  13.0595
    13.1251  13.1853  13.2323  13.2790  13.3214  13.3704  13.4123  13.5619
    13.6047  13.6928  13.8458  13.9282  13.9558  14.0369  14.0648  14.1002
    14.1698  14.2556  14.3034  14.3579  14.4332  14.4870  14.5520  14.5721
    14.6050  14.7288  14.7934  14.8696  14.9156  15.0652  15.1417  15.2544
    15.2918  15.3275  15.5584  15.6136  15.6979  15.7359  15.7771  15.8605
    15.9187  16.0005  16.0612  16.0818  16.1772  16.2307  16.2616  16.3042
    16.3736  16.4262  16.5300  16.5524  16.6284  16.6356  16.7128  16.7482
    16.8661  16.9059  16.9706  17.0782  17.0894  17.1129  17.1255  17.1378
    17.1463  17.1905  17.2391  17.2601  17.3050  17.3115  17.3545  17.3853
    17.4796  17.5687  17.6068  17.6274  17.7961  17.8691  17.9284  18.0079
    18.0380  18.0524  18.1092  18.1208  18.1904  18.2337  18.2495  18.3783
    18.4096  18.4872  18.5113  18.6457  18.6646  18.7458  18.7853  18.8626
    18.9129  18.9520  19.0340  19.0775  19.2303  19.2628  19.3074  19.3414
    19.3937  19.4959  19.5337  19.6050  19.6460  19.7191  19.8361  19.8622
    19.9203  19.9591  20.0047  20.1327  20.2868  20.3348  20.3777  20.5178
    20.5682  20.5993  20.6939  20.7583  20.8143  20.8998  20.9907  21.0467
    21.0936  21.1266  21.1681  21.2888  21.3094  21.4455  21.5367  21.5712
    21.7011  21.7124  21.7787  21.8195  21.8728  21.9154  21.9715  22.0404
    22.0790

          k =-0.5000-0.4976 0.0000 ( 31956 PWs)   bands (ev):

   -55.5403 -55.5012 -55.3700 -55.3317 -55.3303 -55.2689 -55.2682 -55.2114
   -55.1892 -55.1788 -55.1772 -55.1124 -55.1123 -55.0232 -54.9871 -54.9867
   -54.9862 -54.8997 -54.8631 -54.8370 -54.8366 -54.5945 -54.3595 -54.0091
   -22.1977 -22.0446 -20.9510 -20.9461 -20.9253 -20.8868 -20.8442 -20.8013
   -20.7748 -20.7639 -20.6271 -20.6087 -20.5646 -20.4908 -20.2431 -20.2121
   -19.6401 -19.4460 -19.1350 -10.8415 -10.7410 -10.2928 -10.2654 -10.2235
   -10.2110 -10.0809  -9.9948  -9.9370  -9.8794  -9.7334  -9.6979  -9.6495
    -9.4995  -9.4881  -9.3369  -9.2738  -9.2699  -9.2005  -8.9993  -8.9738
    -8.9549  -8.5904  -8.5247  -8.4206  -8.3239  -8.2971  -8.1826  -8.0388
    -7.9315  -7.9003  -7.7751  -7.5887  -7.5865  -7.4974  -7.4770  -7.2831
    -7.2573  -7.1570  -7.1190  -6.9606  -6.7187  -6.6716  -6.5217  -6.3859
    -6.2685  -6.2004  -6.1068  -5.8732  -5.4460  -5.3170  -5.2953  -4.6405
    -4.3323  -4.3045  -4.2853  -4.2223  -4.1802  -4.1189  -4.1128  -3.9968
    -3.8033  -3.7875  -3.7176  -3.7083  -3.5455  -3.4687  -3.4583  -3.1787
    -3.1737  -3.1227  -2.9671  -2.8779  -2.7914  -2.7362  -2.7107  -2.5709
    -2.4848  -2.4710  -2.2903  -2.0122  -1.7809  -1.0681  -0.9840  -0.9575
    -0.6293  -0.4524  -0.2601   0.0907   0.1217   0.6523   0.8146   0.8446
     0.9015   1.2299   1.2867   1.3853   4.4376   4.5046   4.5285   4.9006
     4.9190   5.6493   5.8030   5.8747   5.8806   6.0338   6.0921   6.1470
     6.3031   6.4763   6.4888   6.5863   6.5955   6.6013   6.6135   6.7173
     7.0509   7.1594   7.2716   7.3385   7.4439   7.5010   7.5453   7.5781
     7.8948   8.0150   8.2743   8.3150   8.3712   8.5448   8.5875   8.8527
     8.8587   8.9915   9.0280   9.3049   9.3604   9.4202   9.4863   9.5249
     9.6908   9.7658  10.1632  10.2255  10.3900  10.6148  10.6583  10.6699
    10.7749  10.8425  11.2437  11.2556  11.4681  11.5641  11.7293  11.7702
    11.9309  11.9664  11.9880  12.0098  12.1407  12.1954  12.3450  12.3986
    12.6006  12.6355  12.6594  12.7904  12.8065  12.8382  12.8983  12.9134
    13.0820  13.0975  13.1162  13.1496  13.1894  13.2430  13.2577  13.2936
    13.3083  13.3312  13.5217  13.5338  13.5747  13.5967  13.6086  13.6294
    13.6693  13.7199  13.7518  13.7846  13.8135  13.8338  13.8482  13.8925
    13.9315  13.9570  14.0194  14.0822  14.2890  14.3364  14.3957  14.4650
    14.4879  14.6498  14.6926  14.7503  14.8014  14.8053  14.8298  14.8528
    14.8838  14.9247  14.9561  15.0002  15.0357  15.0963  15.2655  15.2827
    15.3176  15.4152  15.4884  15.4941  15.5284  15.5974  15.6944  15.7785
    15.7892  15.8502  16.1036  16.1682  16.3553  16.3748  16.4667  16.5162
    16.5302  16.5780  16.6170  16.6559  16.6702  16.7459  16.7728  17.0123
    17.0746  17.1202  17.1359  17.1459  17.1849  17.2110  17.2271  17.2538
    17.3028  17.4160  17.5064  17.6026  17.6728  17.8122  17.8601  17.8789
    17.9450  17.9962  18.0142  18.0839  18.1970  18.3180  18.3963  18.5070
    18.5512  18.5858  18.6440  18.7542  18.8676  18.9237  18.9991  19.0171
    19.1382  19.2235  19.2802  19.3314  19.3742  19.5253  19.6607  19.7000
    19.7201  19.7745  19.8557  19.9508  19.9971  20.0415  20.1193  20.2124
    20.2952  20.3618  20.4296  20.4781  20.5016  20.5064  20.5597  20.6577
    20.6740  20.7306  20.7989  20.8288  20.8636  20.8682  21.0044  21.0232
    21.0455  21.0924  21.1676  21.1784  21.2467  21.2607  21.3227  21.3336
    21.3626  21.4212  21.4537  21.5011  21.5203  21.6121  21.6581  21.7238
    21.7393

          k =-0.2500 0.2488 0.0000 ( 32025 PWs)   bands (ev):

   -55.5401 -55.4998 -55.3701 -55.3488 -55.3098 -55.2874 -55.2462 -55.2207
   -55.1810 -55.1769 -55.1741 -55.1135 -55.1106 -55.0232 -54.9896 -54.9857
   -54.9840 -54.8997 -54.8629 -54.8391 -54.8341 -54.5922 -54.3595 -54.0089
   -22.2834 -22.0580 -21.4083 -21.3117 -21.0216 -20.9536 -20.9251 -20.7553
   -20.7052 -20.6354 -20.5087 -20.4201 -20.3994 -20.2323 -20.1592 -20.1463
   -19.5921 -19.2863 -19.1245 -11.2989 -11.1363 -11.0332 -10.9642 -10.5620
   -10.4941 -10.4818 -10.2105 -10.0595  -9.9085  -9.7936  -9.7566  -9.5974
    -9.4606  -9.3937  -9.2969  -9.1628  -9.0377  -8.8727  -8.7398  -8.5988
    -8.5389  -8.4722  -8.3707  -8.2243  -8.1228  -8.0167  -7.8762  -7.8437
    -7.7959  -7.6823  -7.5815  -7.5509  -7.4406  -7.3185  -7.2889  -7.2102
    -7.0991  -7.0569  -6.8789  -6.7180  -6.6914  -6.4234  -6.2077  -6.0481
    -5.8382  -5.8048  -5.7401  -5.6094  -5.4985  -5.4266  -5.3333  -5.1457
    -5.0367  -4.8759  -4.7052  -4.5698  -4.5158  -4.3711  -4.3007  -4.2329
    -4.0792  -4.0414  -3.9625  -3.8245  -3.7058  -3.6884  -3.4224  -3.3697
    -3.2794  -3.0818  -2.9444  -2.8272  -2.7890  -2.6936  -2.6593  -2.5441
    -2.3339  -2.2074  -2.0797  -1.9807  -1.8273  -1.3057  -1.1531  -0.8507
    -0.4943  -0.3492  -0.0189   0.2731   0.5085   0.6383   0.6941   0.8059
     1.0291   1.2014   1.2907   1.6404   3.0752   3.8551   4.5821   5.0110
     5.0352   5.1051   5.2930   5.6566   6.0930   6.1453   6.1781   6.3241
     6.4293   6.5166   6.6723   6.8518   6.9201   6.9722   7.1034   7.2286
     7.3584   7.4798   7.5634   7.5839   7.6989   7.8632   7.9321   8.0432
     8.1739   8.2720   8.3125   8.4604   8.5529   8.6400   8.6628   8.7920
     8.8731   9.0222   9.1323   9.2810   9.3425   9.4731   9.5371   9.6048
     9.6938   9.8724  10.0342  10.0915  10.1816  10.2454  10.3101  10.3851
    10.5219  10.5774  10.6493  10.7589  10.7874  10.9658  11.0504  11.0856
    11.1704  11.1985  11.3764  11.4599  11.4828  11.7177  11.7431  11.7800
    11.8687  11.9473  12.0039  12.0808  12.1428  12.2488  12.2827  12.3315
    12.4128  12.4538  12.5285  12.5810  12.6413  12.7398  12.8113  12.9393
    12.9779  13.0427  13.1716  13.2197  13.2440  13.4544  13.5249  13.5717
    13.6489  13.6950  13.7761  13.8695  13.9402  13.9746  14.0612  14.1294
    14.1888  14.3501  14.4174  14.5335  14.5698  14.6358  14.7723  14.8617
    14.8839  14.9516  15.1383  15.2238  15.2668  15.3314  15.4147  15.4585
    15.5337  15.5913  15.6479  15.6812  15.7555  15.7776  15.8309  15.8970
    15.9966  16.0560  16.0791  16.1571  16.1830  16.2623  16.3776  16.4484
    16.5057  16.5844  16.7284  16.7484  16.8041  16.8549  16.8979  16.9087
    16.9965  17.0790  17.0980  17.1104  17.1261  17.1401  17.1583  17.1975
    17.2165  17.2383  17.2740  17.2906  17.3290  17.3824  17.4714  17.5103
    17.5368  17.5840  17.6246  17.7377  17.7914  17.9020  17.9627  18.0174
    18.0401  18.0860  18.1430  18.2573  18.2724  18.3934  18.4978  18.5267
    18.5946  18.6306  18.6785  18.7288  18.8349  18.8760  18.9007  19.0270
    19.0560  19.1742  19.1962  19.2182  19.3118  19.3681  19.4498  19.4916
    19.6457  19.7781  19.8231  19.8812  19.9537  19.9737  19.9883  20.0761
    20.1303  20.2270  20.2492  20.3160  20.3708  20.4058  20.5004  20.5898
    20.6544  20.7079  20.7528  20.8585  20.9314  20.9572  21.0203  21.0538
    21.0730  21.2333  21.2662  21.3756  21.4007  21.4574  21.5072  21.5559
    21.6055  21.6596  21.7340  21.7872  21.8316  21.8970  22.0058  22.0927
    22.1415

     the Fermi energy is    -2.0300 ev

!    total energy              =   -2279.16096855 Ry
     Harris-Foulkes estimate   =   -2279.16096856 Ry
     estimated scf accuracy    <          8.8E-09 Ry

     The total energy is the sum of the following terms:

     one-electron contribution =  -23665.48910800 Ry
     hartree contribution      =   11875.24532403 Ry
     xc contribution           =    -572.10527369 Ry
     ewald contribution        =   10081.58498587 Ry
     Hubbard energy            =       1.60341037 Ry
     smearing contrib. (-TS)   =      -0.00030712 Ry

     convergence has been achieved in  16 iterations

     Forces acting on atoms (Ry/au):


     negative rho (up, down):  0.157E+01 0.000E+00
     atom    1 type  1   force =    -0.00880945   -0.00392324   -0.00072534
     atom    2 type  1   force =     0.00013870    0.00394612    0.00021236
     atom    3 type  2   force =     0.01634139    0.00507444    0.00003554
     atom    4 type  2   force =     0.01051693    0.00472907   -0.00046558
     atom    5 type  1   force =     0.00123504   -0.00313959    0.00036306
     atom    6 type  1   force =    -0.00011784   -0.00305591   -0.00018056
     atom    7 type  1   force =     0.00006275    0.00123743   -0.00053879
     atom    8 type  1   force =    -0.00418625    0.00232159   -0.00038028
     atom    9 type  2   force =     0.00409833   -0.00476400    0.00036300
     atom   10 type  2   force =    -0.00000617   -0.02070487   -0.00073501
     atom   11 type  1   force =    -0.00186531    0.00211080   -0.00011755
     atom   12 type  1   force =    -0.00852237    0.01501890    0.00024064
     atom   13 type  1   force =    -0.00110373   -0.00862952    0.00033048
     atom   14 type  1   force =    -0.00871361   -0.00272158   -0.00092174
     atom   15 type  1   force =     0.00015992    0.00181781    0.00060163
     atom   16 type  2   force =    -0.01715449    0.00493719    0.00005080
     atom   17 type  2   force =     0.01035742    0.00492574   -0.00043268
     atom   18 type  1   force =     0.00131664   -0.00307377    0.00037266
     atom   19 type  1   force =     0.00032293   -0.00296914   -0.00018535
     atom   20 type  1   force =     0.00007750   -0.00523374    0.00000682
     atom   21 type  1   force =    -0.00404606    0.00217166    0.00004575
     atom   22 type  2   force =    -0.00039429   -0.00465248    0.00037608
     atom   23 type  2   force =    -0.00018098    0.01728082    0.00036976
     atom   24 type  1   force =     0.00198666    0.00216957   -0.00012865
     atom   25 type  1   force =     0.00864704    0.01497024    0.00024872
     atom   26 type  1   force =    -0.00106426   -0.01968770    0.00081185
     atom   27 type  3   force =    -0.00001142   -0.00020287   -0.00006671
     atom   28 type  3   force =    -0.00002481   -0.00037855   -0.00007475
     atom   29 type  3   force =     0.00041301   -0.00011673    0.00042317
     atom   30 type  3   force =     0.00053528   -0.00029789    0.00035472
     atom   31 type  1   force =    -0.00000849    0.00084019   -0.00025405

     Total force =     0.002581     Total SCF correction =     0.000348
     SCF correction compared to forces is large: reduce conv_thr to get better values

     bfgs converged in  14 scf cycles and  13 bfgs steps
     (criteria: energy < 0.10E-03, force < 0.10E-02)

     End of BFGS Geometry Optimization

     Final energy   =   -2279.1609685503 Ry
Begin final coordinates

ATOMIC_POSITIONS (crystal)
O0       0.000000000   0.000000000   0.377698202    0   0   1
O0       0.000000000   0.500000000   0.401755278    0   0   1
Pt1      0.250000000   0.500000000   0.451183788    0   0   1
Pt1      0.000000000   0.000000000   0.452773841    0   0   1
O0       0.250000000   0.810000000   0.442400251    0   0   1
O0       0.250000000   0.190000000   0.461308612    0   0   1
O0       0.000000000   0.500000000   0.496706964    0   0   1
O0       0.000000000   0.000000000   0.529922542    0   0   1
Pt1      0.250000000   0.000000000   0.575974446    0   0   1
Pt1      0.000000000   0.500000000   0.574961638    0   0   1
O0       0.250000000   0.690000000   0.564591230    0   0   1
O0       0.250000000   0.310000000   0.586580565    0   0   1
O0       0.000000000   0.000000000   0.621462928    0   0   1
O0       0.500000000   0.000000000   0.377788242    0   0   1
O0       0.500000000   0.500000000   0.401078298    0   0   1
Pt1      0.750000000   0.500000000   0.451185698    0   0   1
Pt1      0.500000000   0.000000000   0.452776309    0   0   1
O0       0.750000000   0.810000000   0.442425509    0   0   1
O0       0.750000000   0.190000000   0.461311633    0   0   1
O0       0.500000000   0.500000000   0.498052402    0   0   1
O0       0.500000000   0.000000000   0.529754812    0   0   1
Pt1      0.750000000   0.000000000   0.575976732    0   0   1
Pt1      0.500000000   0.500000000   0.577052388    0   0   1
O0       0.750000000   0.690000000   0.564577361    0   0   1
O0       0.750000000   0.310000000   0.586584069    0   0   1
O0       0.500000000   0.000000000   0.621541845    0   0   1
H2       0.000098309   0.640852224   0.386492927
H2       0.500083158   0.641458282   0.386244067
H2       0.143245159   0.035078009   0.367815701
H2       0.642963929   0.036077608   0.367860364
O0       0.500119585   0.580329685   0.643831359
End final coordinates



     init_run     :    112.42s CPU    115.29s WALL (       1 calls)
     electrons    :  50459.36s CPU  53973.99s WALL (      14 calls)
     update_pot   :    276.17s CPU    282.96s WALL (      13 calls)
     forces       :   1921.60s CPU   2043.33s WALL (      14 calls)

     Called by init_run:
     wfcinit      :     41.74s CPU     43.60s WALL (       1 calls)
     potinit      :      7.77s CPU      7.92s WALL (       1 calls)

     Called by electrons:
     c_bands      :  26297.21s CPU  27102.37s WALL (     256 calls)
     sum_band     :   9958.23s CPU  10541.09s WALL (     256 calls)
     v_of_rho     :    281.63s CPU    296.94s WALL (     259 calls)
     newd         :  12523.11s CPU  12600.66s WALL (     259 calls)
     mix_rho      :     53.03s CPU     54.27s WALL (     256 calls)

     Called by c_bands:
     init_us_2    :     61.29s CPU     62.06s WALL (    1665 calls)
     cegterg      :  25945.10s CPU  26614.70s WALL (     768 calls)

     Called by *egterg:
     h_psi        :  15342.01s CPU  15753.36s WALL (    1949 calls)
     s_psi        :   1491.29s CPU   1508.42s WALL (    2033 calls)
     g_psi        :     32.06s CPU     32.10s WALL (    1178 calls)
     cdiaghg      :   2018.90s CPU   2023.51s WALL (    1874 calls)

     Called by h_psi:
     add_vuspsi   :   1444.75s CPU   1462.85s WALL (    1949 calls)
     vhpsi        :   1556.29s CPU   1573.27s WALL (    1949 calls)

     General routines
     calbec       :   3573.48s CPU   3607.68s WALL (   17320 calls)
     fft          :    355.67s CPU    416.82s WALL (    4299 calls)
     ffts         :      4.65s CPU      4.80s WALL (     515 calls)
     fftw         :   8815.14s CPU   9274.55s WALL ( 1464190 calls)
     interpolate  :     45.02s CPU     45.70s WALL (     515 calls)
     davcio       :      0.12s CPU     29.27s WALL (    1707 calls)

     Parallel routines
     fft_scatter  :   3431.65s CPU   3934.24s WALL ( 1469004 calls)
     Hubbard U routines
     new_ns       :    338.56s CPU    358.18s WALL (     256 calls)
     vhpsi        :   1556.29s CPU   1573.27s WALL (    1949 calls)
     force_hub    :    522.38s CPU    535.59s WALL (      14 calls)

     PWSCF        :    14h51m CPU       15h52m WALL


   This run was terminated on:  18:42:28  28Apr2014            

=------------------------------------------------------------------------------=
   JOB DONE.
=------------------------------------------------------------------------------=
---------------------------------------
Running PBS batch system epilogue script
Job id: 340479.audhumbla.fysik.dtu.dk
Username: zhonxu
Groupname: campgst
Jobname: PtO2/Eads-2-layers/O-U-6.0
Sessionid: 3307
Resources limits: neednodes=2:ppn=8:xeon8,nodes=2:ppn=8:xeon8,walltime=48:00:00
Resources used: cput=253:47:55,mem=18965000kb,vmem=22706604kb,walltime=15:52:48
Queuename: verylong
Accounting:
This job has allocated the following 16 nodes:
c061 c061 c061 c061 c061 c061 c061 c061 c010 c010 c010 c010 c010 c010 c010 c010
Finished epilogue job 340479.audhumbla.fysik.dtu.dk for zhonxu
