
     Program PWSCF v.5.0.2 (svn rev. 9656) starts on 29Apr2014 at  4:32:35 

     This program is part of the open-source Quantum ESPRESSO suite
     for quantum simulation of materials; please cite
         "P. Giannozzi et al., J. Phys.:Condens. Matter 21 395502 (2009);
          URL http://www.quantum-espresso.org", 
     in publications or presentations arising from this work. More details at
     http://www.quantum-espresso.org/quote.php

     Parallel version (MPI), running on    16 processors
     K-points division:     npool     =       4
     R & G space division:  proc/nbgrp/npool/nimage =       4

     Current dimensions of program PWSCF are:
     Max number of different atomic species (ntypx) = 10
     Max number of k-points (npk) =  40000
     Max angular momentum in pseudopotentials (lmaxx) =  3
     Reading input from pwscf.in
Warning: card &CELL ignored
Warning: card / ignored

     Subspace diagonalization in iterative solution of the eigenvalue problem:
     a serial algorithm will be used


     Parallelization info
     --------------------
     sticks:   dense  smooth     PW     G-vecs:    dense   smooth      PW
     Min        1450     467    129               343652    62241    9199
     Max        1451     468    130               343665    62278    9208
     Sum        5803    1869    517              1374641   249013   36807



     bravais-lattice index     =            0
     lattice parameter (alat)  =      12.0187  a.u.
     unit-cell volume          =    7280.5819 (a.u.)^3
     number of atoms/cell      =           31
     number of atomic types    =            3
     number of electrons       =       238.00
     number of Kohn-Sham states=          357
     kinetic-energy cutoff     =      40.0000  Ry
     charge density cutoff     =     500.0000  Ry
     convergence threshold     =      1.0E-06
     mixing beta               =       0.7000
     number of iterations used =            8  plain     mixing
     Exchange-correlation      = SLA  PW   PBE  PBE ( 1 4 3 4 0)
     EXX-fraction              =        0.00
     nstep                     =           50


     celldm(1)=  12.018658  celldm(2)=   0.000000  celldm(3)=   0.000000
     celldm(4)=   0.000000  celldm(5)=   0.000000  celldm(6)=   0.000000

     crystal axes: (cart. coord. in units of alat)
               a(1) = (   1.000000   0.000000   0.000000 )  
               a(2) = (   0.000000   1.009517   0.000000 )  
               a(3) = (   0.000000   0.000000   4.154171 )  

     reciprocal axes: (cart. coord. in units 2 pi/alat)
               b(1) = (  1.000000  0.000000  0.000000 )  
               b(2) = (  0.000000  0.990572  0.000000 )  
               b(3) = (  0.000000  0.000000  0.240722 )  


     PseudoPot. # 1 for O  read from file:
     /home/camp/zhonxu/pseudo/o_pbe_v1.01.uspp.F.UPF
     MD5 check sum: 2bcb18d16ea4b960afae9ec6d52f22d2
     Pseudo is Ultrasoft + core correction, Zval =  6.0
     Generated by new atomic code, or converted to UPF format
     Using radial grid of  737 points,  5 beta functions with: 
                l(1) =   0
                l(2) =   0
                l(3) =   1
                l(4) =   1
                l(5) =   2
     Q(r) pseudized with  8 coefficients,  rinner =    0.900   0.900   0.900
                                                       0.900   0.900

     PseudoPot. # 2 for Ir read from file:
     /home/camp/zhonxu/pseudo/ir_pbe_v1.uspp.F.UPF
     MD5 check sum: abf987a9674477536ede83817f8f8b70
     Pseudo is Ultrasoft + core correction, Zval = 15.0
     Generated by new atomic code, or converted to UPF format
     Using radial grid of  983 points,  7 beta functions with: 
                l(1) =   0
                l(2) =   0
                l(3) =   1
                l(4) =   1
                l(5) =   1
                l(6) =   2
                l(7) =   2
     Q(r) pseudized with  8 coefficients,  rinner =    1.350   1.350   1.350
                                                       1.350   1.350

     PseudoPot. # 3 for H  read from file:
     /home/camp/zhonxu/pseudo/h_pbe_v1.uspp.F.UPF
     MD5 check sum: 3408e3ff4ec8b0a4e358431e7e038a48
     Pseudo is Ultrasoft, Zval =  1.0
     Generated by new atomic code, or converted to UPF format
     Using radial grid of  615 points,  2 beta functions with: 
                l(1) =   0
                l(2) =   0
     Q(r) pseudized with  8 coefficients,  rinner =    0.700

     atomic species   valence    mass     pseudopotential
        O0             6.00    15.99940     O ( 1.00)
        Ir1           15.00   192.22000     Ir( 1.00)
        H2             1.00     1.00794     H ( 1.00)


     Simplified LDA+U calculation (l_max = 2) with parameters (eV):
     atomic species    L          U    alpha       J0     beta
        Ir1            2     6.0000   0.0000   0.0000   0.0000



     No symmetry found



   Cartesian axes

     site n.     atom                  positions (alat units)
         1           O0  tau(   1) = (   0.0000000   0.0000000   1.5706091  )
         2           O0  tau(   2) = (   0.0000000   0.5047586   1.6747957  )
         3           Ir1 tau(   3) = (   0.2500000   0.5047586   1.8830443  )
         4           Ir1 tau(   4) = (   0.0000000   0.0000000   1.8812580  )
         5           O0  tau(   5) = (   0.2500000   0.8177090   1.8812996  )
         6           O0  tau(   6) = (   0.2500000   0.1918083   1.8799287  )
         7           O0  tau(   7) = (   0.0000000   0.5047586   2.0722253  )
         8           O0  tau(   8) = (   0.0000000   0.0000000   2.1948149  )
         9           Ir1 tau(   9) = (   0.2500000   0.0000000   2.3898532  )
        10           Ir1 tau(  10) = (   0.0000000   0.5047586   2.3761029  )
        11           O0  tau(  11) = (   0.2500000   0.6965669   2.3876930  )
        12           O0  tau(  12) = (   0.2500000   0.3129503   2.3878177  )
        13           O0  tau(  13) = (   0.0000000   0.0000000   2.5742569  )
        14           O0  tau(  14) = (   0.5000000   0.0000000   1.5702768  )
        15           O0  tau(  15) = (   0.5000000   0.5047586   1.6724694  )
        16           Ir1 tau(  16) = (   0.7500000   0.5047586   1.8830859  )
        17           Ir1 tau(  17) = (   0.5000000   0.0000000   1.8811334  )
        18           O0  tau(  18) = (   0.7500000   0.8177090   1.8813411  )
        19           O0  tau(  19) = (   0.7500000   0.1918083   1.8799702  )
        20           O0  tau(  20) = (   0.5000000   0.5047586   2.0802013  )
        21           O0  tau(  21) = (   0.5000000   0.0000000   2.1944825  )
        22           Ir1 tau(  22) = (   0.7500000   0.0000000   2.3898532  )
        23           Ir1 tau(  23) = (   0.5000000   0.5047586   2.4038943  )
        24           O0  tau(  24) = (   0.7500000   0.6965669   2.3876515  )
        25           O0  tau(  25) = (   0.7500000   0.3129503   2.3878177  )
        26           O0  tau(  26) = (   0.5000000   0.0000000   2.5734260  )
        27           H2  tau(  27) = (  -0.0000700   0.6394282   1.5957418  )
        28           H2  tau(  28) = (   0.4999700   0.6419823   1.5977358  )
        29           H2  tau(  29) = (   0.1436200   0.0342933   1.5227115  )
        30           H2  tau(  30) = (   0.6432900   0.0353230   1.5222545  )
        31           O0  tau(  31) = (   0.5000100   0.5042640   2.6822238  )

     number of k points=    10  Methfessel-Paxton smearing, width (Ry)=  0.0100
                       cart. coord. in units 2pi/alat
        k(    1) = (   0.0000000   0.0000000   0.0000000), wk =   0.1250000
        k(    2) = (   0.0000000   0.2476431   0.0000000), wk =   0.2500000
        k(    3) = (   0.0000000  -0.4952862   0.0000000), wk =   0.1250000
        k(    4) = (   0.2500000   0.0000000   0.0000000), wk =   0.2500000
        k(    5) = (   0.2500000   0.2476431   0.0000000), wk =   0.2500000
        k(    6) = (   0.2500000  -0.4952862   0.0000000), wk =   0.2500000
        k(    7) = (  -0.5000000   0.0000000   0.0000000), wk =   0.1250000
        k(    8) = (  -0.5000000   0.2476431   0.0000000), wk =   0.2500000
        k(    9) = (  -0.5000000  -0.4952862   0.0000000), wk =   0.1250000
        k(   10) = (  -0.2500000   0.2476431   0.0000000), wk =   0.2500000

     Dense  grid:  1374641 G-vectors     FFT dimensions: (  90,  90, 360)

     Smooth grid:   249013 G-vectors     FFT dimensions: (  50,  50, 216)

     Largest allocated arrays     est. size (Mb)     dimensions
        Kohn-Sham Wavefunctions        42.85 Mb     (   7867,  357)
        Atomic wavefunctions           21.13 Mb     (   7867,  176)
        NL pseudopotentials            50.78 Mb     (   7867,  423)
        Each V/rho on FFT grid         11.12 Mb     ( 729000)
        Each G-vector array             2.62 Mb     ( 343661)
        G-vector shells                 1.13 Mb     ( 148760)
     Largest temporary arrays     est. size (Mb)     dimensions
        Auxiliary wavefunctions       171.42 Mb     (   7867, 1428)
        Each subspace H/S matrix       31.12 Mb     (1428,1428)
        Each <psi_i|beta_j> matrix      2.30 Mb     (    423,  357)
        Arrays for rho mixing          88.99 Mb     ( 729000,   8)

     Check: negative/imaginary core charge=   -0.000003    0.000000

     Initial potential from superposition of free atoms
     Check: negative starting charge=   -3.336659

     starting charge  233.99968, renormalised to  238.00000

     negative rho (up, down):  0.339E+01 0.000E+00
     Number of +U iterations with fixed ns =  0
     Starting occupations:
 --- enter write_ns ---
 LDA+U parameters:
U( 2)     =  6.00000000
alpha( 2) =  0.00000000
atom    3   Tr[ns(na)] =   7.00000
    eigenvalues: 
  0.700  0.700  0.700  0.700  0.700
    eigenvectors:
  1.000  0.000  0.000  0.000  0.000
  0.000  1.000  0.000  0.000  0.000
  0.000  0.000  1.000  0.000  0.000
  0.000  0.000  0.000  1.000  0.000
  0.000  0.000  0.000  0.000  1.000
    occupations:
  0.700  0.000  0.000  0.000  0.000
  0.000  0.700  0.000  0.000  0.000
  0.000  0.000  0.700  0.000  0.000
  0.000  0.000  0.000  0.700  0.000
  0.000  0.000  0.000  0.000  0.700
atom    4   Tr[ns(na)] =   7.00000
    eigenvalues: 
  0.700  0.700  0.700  0.700  0.700
    eigenvectors:
  1.000  0.000  0.000  0.000  0.000
  0.000  1.000  0.000  0.000  0.000
  0.000  0.000  1.000  0.000  0.000
  0.000  0.000  0.000  1.000  0.000
  0.000  0.000  0.000  0.000  1.000
    occupations:
  0.700  0.000  0.000  0.000  0.000
  0.000  0.700  0.000  0.000  0.000
  0.000  0.000  0.700  0.000  0.000
  0.000  0.000  0.000  0.700  0.000
  0.000  0.000  0.000  0.000  0.700
atom    9   Tr[ns(na)] =   7.00000
    eigenvalues: 
  0.700  0.700  0.700  0.700  0.700
    eigenvectors:
  1.000  0.000  0.000  0.000  0.000
  0.000  1.000  0.000  0.000  0.000
  0.000  0.000  1.000  0.000  0.000
  0.000  0.000  0.000  1.000  0.000
  0.000  0.000  0.000  0.000  1.000
    occupations:
  0.700  0.000  0.000  0.000  0.000
  0.000  0.700  0.000  0.000  0.000
  0.000  0.000  0.700  0.000  0.000
  0.000  0.000  0.000  0.700  0.000
  0.000  0.000  0.000  0.000  0.700
atom   10   Tr[ns(na)] =   7.00000
    eigenvalues: 
  0.700  0.700  0.700  0.700  0.700
    eigenvectors:
  1.000  0.000  0.000  0.000  0.000
  0.000  1.000  0.000  0.000  0.000
  0.000  0.000  1.000  0.000  0.000
  0.000  0.000  0.000  1.000  0.000
  0.000  0.000  0.000  0.000  1.000
    occupations:
  0.700  0.000  0.000  0.000  0.000
  0.000  0.700  0.000  0.000  0.000
  0.000  0.000  0.700  0.000  0.000
  0.000  0.000  0.000  0.700  0.000
  0.000  0.000  0.000  0.000  0.700
atom   16   Tr[ns(na)] =   7.00000
    eigenvalues: 
  0.700  0.700  0.700  0.700  0.700
    eigenvectors:
  1.000  0.000  0.000  0.000  0.000
  0.000  1.000  0.000  0.000  0.000
  0.000  0.000  1.000  0.000  0.000
  0.000  0.000  0.000  1.000  0.000
  0.000  0.000  0.000  0.000  1.000
    occupations:
  0.700  0.000  0.000  0.000  0.000
  0.000  0.700  0.000  0.000  0.000
  0.000  0.000  0.700  0.000  0.000
  0.000  0.000  0.000  0.700  0.000
  0.000  0.000  0.000  0.000  0.700
atom   17   Tr[ns(na)] =   7.00000
    eigenvalues: 
  0.700  0.700  0.700  0.700  0.700
    eigenvectors:
  1.000  0.000  0.000  0.000  0.000
  0.000  1.000  0.000  0.000  0.000
  0.000  0.000  1.000  0.000  0.000
  0.000  0.000  0.000  1.000  0.000
  0.000  0.000  0.000  0.000  1.000
    occupations:
  0.700  0.000  0.000  0.000  0.000
  0.000  0.700  0.000  0.000  0.000
  0.000  0.000  0.700  0.000  0.000
  0.000  0.000  0.000  0.700  0.000
  0.000  0.000  0.000  0.000  0.700
atom   22   Tr[ns(na)] =   7.00000
    eigenvalues: 
  0.700  0.700  0.700  0.700  0.700
    eigenvectors:
  1.000  0.000  0.000  0.000  0.000
  0.000  1.000  0.000  0.000  0.000
  0.000  0.000  1.000  0.000  0.000
  0.000  0.000  0.000  1.000  0.000
  0.000  0.000  0.000  0.000  1.000
    occupations:
  0.700  0.000  0.000  0.000  0.000
  0.000  0.700  0.000  0.000  0.000
  0.000  0.000  0.700  0.000  0.000
  0.000  0.000  0.000  0.700  0.000
  0.000  0.000  0.000  0.000  0.700
atom   23   Tr[ns(na)] =   7.00000
    eigenvalues: 
  0.700  0.700  0.700  0.700  0.700
    eigenvectors:
  1.000  0.000  0.000  0.000  0.000
  0.000  1.000  0.000  0.000  0.000
  0.000  0.000  1.000  0.000  0.000
  0.000  0.000  0.000  1.000  0.000
  0.000  0.000  0.000  0.000  1.000
    occupations:
  0.700  0.000  0.000  0.000  0.000
  0.000  0.700  0.000  0.000  0.000
  0.000  0.000  0.700  0.000  0.000
  0.000  0.000  0.000  0.700  0.000
  0.000  0.000  0.000  0.000  0.700
N of occupied +U levels =  56.0000000
 --- exit write_ns ---
 Atomic wfc used for LDA+U Projector are NOT orthogonalized
     Starting wfc are  176 randomized atomic wfcs

     total cpu time spent up to now is      115.1 secs

     per-process dynamical memory:   416.2 Mb

     Self-consistent Calculation

     iteration #  1     ecut=    40.00 Ry     beta=0.70
     Davidson diagonalization with overlap
     ethr =  1.00E-02,  avg # of iterations =  8.1
 --- enter write_ns ---
 LDA+U parameters:
U( 2)     =  6.00000000
alpha( 2) =  0.00000000
atom    3   Tr[ns(na)] =   6.75436
    eigenvalues: 
  0.451  0.492  0.701  0.838  0.894
    eigenvectors:
  0.000  0.182  0.003  0.001  0.813
  0.999  0.001  0.000  0.000  0.000
  0.000  0.000  0.989  0.007  0.005
  0.001  0.817  0.001  0.000  0.181
  0.000  0.000  0.007  0.992  0.001
    occupations:
  0.820 -0.001  0.012 -0.155 -0.001
 -0.001  0.451  0.001  0.002 -0.003
  0.012  0.001  0.703 -0.005 -0.012
 -0.155  0.002 -0.005  0.565  0.001
 -0.001 -0.003 -0.012  0.001  0.837
atom    4   Tr[ns(na)] =   6.23968
    eigenvalues: 
  0.478  0.501  0.549  0.713  0.878
    eigenvectors:
  0.000  0.987  0.000  0.000  0.013
  0.000  0.000  0.022  0.978  0.000
  0.000  0.000  0.978  0.022  0.000
  0.000  0.013  0.000  0.000  0.987
  1.000  0.000  0.000  0.000  0.000
    occupations:
  0.506 -0.001  0.001  0.042  0.000
 -0.001  0.710  0.024 -0.001 -0.001
  0.001  0.024  0.553  0.006  0.000
  0.042 -0.001  0.006  0.873 -0.000
  0.000 -0.001  0.000 -0.000  0.478
atom    9   Tr[ns(na)] =   7.51059
    eigenvalues: 
  0.488  0.510  0.883  0.907  0.967
    eigenvectors:
  0.000  0.144  0.000  0.000  0.856
  0.998  0.002  0.000  0.000  0.000
  0.000  0.000  0.660  0.340  0.000
  0.002  0.854  0.000  0.000  0.144
  0.000  0.000  0.340  0.660  0.000
    occupations:
  0.901 -0.001 -0.000 -0.160  0.000
 -0.001  0.488  0.000 -0.001  0.000
 -0.000  0.000  0.891 -0.000 -0.011
 -0.160 -0.001 -0.000  0.576  0.000
  0.000  0.000 -0.011  0.000  0.899
atom   10   Tr[ns(na)] =   7.68220
    eigenvalues: 
  0.482  0.526  0.923  0.944  0.965
    eigenvectors:
  0.000  0.987  0.000  0.000  0.013
  0.000  0.000  0.000  1.000  0.000
  0.000  0.000  1.000  0.000  0.000
  0.000  0.013  0.000  0.000  0.987
  1.000  0.000  0.000  0.000  0.000
    occupations:
  0.531  0.000  0.002  0.050  0.000
  0.000  0.944 -0.000 -0.000 -0.000
  0.002 -0.000  0.923  0.000  0.000
  0.050 -0.000  0.000  0.959  0.000
  0.000 -0.000  0.000  0.000  0.482
atom   16   Tr[ns(na)] =   6.75364
    eigenvalues: 
  0.451  0.492  0.701  0.838  0.894
    eigenvectors:
  0.000  0.183  0.004  0.001  0.813
  0.999  0.001  0.000  0.000  0.000
  0.000  0.000  0.989  0.006  0.005
  0.001  0.817  0.001  0.000  0.181
  0.000  0.000  0.007  0.993  0.001
    occupations:
  0.820  0.001  0.012 -0.155  0.000
  0.001  0.451 -0.001 -0.002 -0.003
  0.012 -0.001  0.703 -0.005  0.011
 -0.155 -0.002 -0.005  0.565 -0.000
  0.000 -0.003  0.011 -0.000  0.837
atom   17   Tr[ns(na)] =   6.23311
    eigenvalues: 
  0.478  0.500  0.543  0.720  0.875
    eigenvectors:
  0.000  0.988  0.000  0.000  0.012
  0.000  0.000  0.026  0.974  0.000
  0.000  0.000  0.974  0.025  0.001
  0.000  0.012  0.001  0.000  0.987
  1.000  0.000  0.000  0.000  0.000
    occupations:
  0.505 -0.001  0.001  0.041  0.000
 -0.001  0.716  0.028 -0.000 -0.001
  0.001  0.028  0.547  0.009  0.000
  0.041 -0.000  0.009  0.870  0.000
  0.000 -0.001  0.000  0.000  0.478
atom   22   Tr[ns(na)] =   7.51048
    eigenvalues: 
  0.488  0.510  0.884  0.907  0.967
    eigenvectors:
  0.001  0.144  0.000  0.000  0.856
  0.997  0.003  0.000  0.000  0.000
  0.000  0.000  0.663  0.337  0.000
  0.003  0.853  0.000  0.000  0.144
  0.000  0.000  0.337  0.663  0.000
    occupations:
  0.901  0.001  0.000 -0.160  0.001
  0.001  0.488  0.001  0.001 -0.000
  0.000  0.001  0.891 -0.000  0.011
 -0.160  0.001 -0.000  0.576  0.000
  0.001 -0.000  0.011  0.000  0.899
atom   23   Tr[ns(na)] =   7.06407
    eigenvalues: 
  0.476  0.547  0.752  0.795  0.962
    eigenvectors:
  0.000  0.986  0.000  0.000  0.014
  0.000  0.000  0.001  0.999  0.000
  0.000  0.000  0.999  0.001  0.000
  0.000  0.014  0.000  0.000  0.986
  1.000  0.000  0.000  0.000  0.000
    occupations:
  0.553  0.000 -0.001  0.048  0.000
  0.000  0.795  0.001  0.000 -0.000
 -0.001  0.001  0.752 -0.001  0.000
  0.048  0.000 -0.001  0.956  0.000
  0.000 -0.000  0.000  0.000  0.476
N of occupied +U levels =  55.7481160
 --- exit write_ns ---

     negative rho (up, down):  0.293E+01 0.000E+00

     total cpu time spent up to now is      499.8 secs

     total energy              =   -2088.95268896 Ry
     Harris-Foulkes estimate   =   -2107.71105085 Ry
     estimated scf accuracy    <      23.18223594 Ry

     iteration #  2     ecut=    40.00 Ry     beta=0.70
     Davidson diagonalization with overlap
     ethr =  9.74E-03,  avg # of iterations =  4.0

     negative rho (up, down):  0.279E+01 0.000E+00

     total cpu time spent up to now is      792.8 secs

     total energy              =   -2010.72244826 Ry
     Harris-Foulkes estimate   =   -2186.82019726 Ry
     estimated scf accuracy    <    2019.87304839 Ry

     iteration #  3     ecut=    40.00 Ry     beta=0.70
     Davidson diagonalization with overlap
     ethr =  9.74E-03,  avg # of iterations =  5.0

     negative rho (up, down):  0.235E+01 0.000E+00

     total cpu time spent up to now is     1110.1 secs

     total energy              =   -2075.21207150 Ry
     Harris-Foulkes estimate   =   -2126.29906577 Ry
     estimated scf accuracy    <     470.34744327 Ry

     iteration #  4     ecut=    40.00 Ry     beta=0.70
     Davidson diagonalization with overlap
     ethr =  9.74E-03,  avg # of iterations =  3.0

     negative rho (up, down):  0.247E+01 0.000E+00

     total cpu time spent up to now is     1311.2 secs

     total energy              =   -2101.84596597 Ry
     Harris-Foulkes estimate   =   -2105.35389247 Ry
     estimated scf accuracy    <      13.25899407 Ry

     iteration #  5     ecut=    40.00 Ry     beta=0.70
     Davidson diagonalization with overlap
     ethr =  5.57E-03,  avg # of iterations =  1.5

     negative rho (up, down):  0.261E+01 0.000E+00

     total cpu time spent up to now is     1492.4 secs

     total energy              =   -2103.38861706 Ry
     Harris-Foulkes estimate   =   -2104.86059912 Ry
     estimated scf accuracy    <      14.36393151 Ry

     iteration #  6     ecut=    40.00 Ry     beta=0.70
     Davidson diagonalization with overlap
     ethr =  5.57E-03,  avg # of iterations =  1.0

     negative rho (up, down):  0.269E+01 0.000E+00

     total cpu time spent up to now is     1672.3 secs

     total energy              =   -2103.69599756 Ry
     Harris-Foulkes estimate   =   -2104.21698467 Ry
     estimated scf accuracy    <       2.14770154 Ry

     iteration #  7     ecut=    40.00 Ry     beta=0.70
     Davidson diagonalization with overlap
     ethr =  9.02E-04,  avg # of iterations =  4.5

     negative rho (up, down):  0.276E+01 0.000E+00

     total cpu time spent up to now is     1879.6 secs

     total energy              =   -2103.83331859 Ry
     Harris-Foulkes estimate   =   -2104.01854762 Ry
     estimated scf accuracy    <       2.24518133 Ry

     iteration #  8     ecut=    40.00 Ry     beta=0.70
     Davidson diagonalization with overlap
     ethr =  9.02E-04,  avg # of iterations =  1.0

     negative rho (up, down):  0.285E+01 0.000E+00

     total cpu time spent up to now is     2069.8 secs

     total energy              =   -2103.64417339 Ry
     Harris-Foulkes estimate   =   -2104.06718998 Ry
     estimated scf accuracy    <       4.42705582 Ry

     iteration #  9     ecut=    40.00 Ry     beta=0.70
     Davidson diagonalization with overlap
     ethr =  9.02E-04,  avg # of iterations =  1.0

     negative rho (up, down):  0.293E+01 0.000E+00

     total cpu time spent up to now is     2260.2 secs

     total energy              =   -2103.77080937 Ry
     Harris-Foulkes estimate   =   -2103.95197990 Ry
     estimated scf accuracy    <       1.30762178 Ry

     iteration # 10     ecut=    40.00 Ry     beta=0.70
     Davidson diagonalization with overlap
     ethr =  5.49E-04,  avg # of iterations =  1.8

     negative rho (up, down):  0.300E+01 0.000E+00

     total cpu time spent up to now is     2451.6 secs

     total energy              =   -2103.80154162 Ry
     Harris-Foulkes estimate   =   -2103.89619542 Ry
     estimated scf accuracy    <       0.60927331 Ry

     iteration # 11     ecut=    40.00 Ry     beta=0.70
     Davidson diagonalization with overlap
     ethr =  2.56E-04,  avg # of iterations =  3.8

     negative rho (up, down):  0.308E+01 0.000E+00

     total cpu time spent up to now is     2656.2 secs

     total energy              =   -2103.81845766 Ry
     Harris-Foulkes estimate   =   -2103.86709810 Ry
     estimated scf accuracy    <       0.28776520 Ry

     iteration # 12     ecut=    40.00 Ry     beta=0.70
     Davidson diagonalization with overlap
     ethr =  1.21E-04,  avg # of iterations =  5.1

     negative rho (up, down):  0.313E+01 0.000E+00

     total cpu time spent up to now is     2867.3 secs

     total energy              =   -2103.79579851 Ry
     Harris-Foulkes estimate   =   -2103.85677296 Ry
     estimated scf accuracy    <       0.30066978 Ry

     iteration # 13     ecut=    40.00 Ry     beta=0.70
     Davidson diagonalization with overlap
     ethr =  1.21E-04,  avg # of iterations =  4.4

     negative rho (up, down):  0.310E+01 0.000E+00

     total cpu time spent up to now is     3079.3 secs

     total energy              =   -2103.66746638 Ry
     Harris-Foulkes estimate   =   -2103.92281907 Ry
     estimated scf accuracy    <       4.06895927 Ry

     iteration # 14     ecut=    40.00 Ry     beta=0.70
     Davidson diagonalization with overlap
     ethr =  1.21E-04,  avg # of iterations =  4.0

     negative rho (up, down):  0.313E+01 0.000E+00

     total cpu time spent up to now is     3290.0 secs

     total energy              =   -2103.81360079 Ry
     Harris-Foulkes estimate   =   -2103.86634655 Ry
     estimated scf accuracy    <       0.48240797 Ry

     iteration # 15     ecut=    40.00 Ry     beta=0.70
     Davidson diagonalization with overlap
     ethr =  1.21E-04,  avg # of iterations =  1.0

     negative rho (up, down):  0.313E+01 0.000E+00

     total cpu time spent up to now is     3480.6 secs

     total energy              =   -2103.83042977 Ry
     Harris-Foulkes estimate   =   -2103.84131711 Ry
     estimated scf accuracy    <       0.04751228 Ry

     iteration # 16     ecut=    40.00 Ry     beta=0.70
     Davidson diagonalization with overlap
     ethr =  2.00E-05,  avg # of iterations =  3.0

     negative rho (up, down):  0.313E+01 0.000E+00

     total cpu time spent up to now is     3679.8 secs

     total energy              =   -2103.83415557 Ry
     Harris-Foulkes estimate   =   -2103.83628959 Ry
     estimated scf accuracy    <       0.01844481 Ry

     iteration # 17     ecut=    40.00 Ry     beta=0.70
     Davidson diagonalization with overlap
     ethr =  7.75E-06,  avg # of iterations =  3.7

     negative rho (up, down):  0.314E+01 0.000E+00

     total cpu time spent up to now is     3884.0 secs

     total energy              =   -2103.83399053 Ry
     Harris-Foulkes estimate   =   -2103.83569281 Ry
     estimated scf accuracy    <       0.00819492 Ry

     iteration # 18     ecut=    40.00 Ry     beta=0.70
     Davidson diagonalization with overlap
     ethr =  3.44E-06,  avg # of iterations =  5.7

     negative rho (up, down):  0.314E+01 0.000E+00

     total cpu time spent up to now is     4101.1 secs

     total energy              =   -2103.83315264 Ry
     Harris-Foulkes estimate   =   -2103.83668430 Ry
     estimated scf accuracy    <       0.03096354 Ry

     iteration # 19     ecut=    40.00 Ry     beta=0.70
     Davidson diagonalization with overlap
     ethr =  3.44E-06,  avg # of iterations =  1.0

     negative rho (up, down):  0.313E+01 0.000E+00

     total cpu time spent up to now is     4291.6 secs

     total energy              =   -2103.83455021 Ry
     Harris-Foulkes estimate   =   -2103.83511620 Ry
     estimated scf accuracy    <       0.00308611 Ry

     iteration # 20     ecut=    40.00 Ry     beta=0.70
     Davidson diagonalization with overlap
     ethr =  1.30E-06,  avg # of iterations =  1.5

     negative rho (up, down):  0.313E+01 0.000E+00

     total cpu time spent up to now is     4481.3 secs

     total energy              =   -2103.83454800 Ry
     Harris-Foulkes estimate   =   -2103.83525707 Ry
     estimated scf accuracy    <       0.00492191 Ry

     iteration # 21     ecut=    40.00 Ry     beta=0.70
     Davidson diagonalization with overlap
     ethr =  1.30E-06,  avg # of iterations =  1.0

     negative rho (up, down):  0.314E+01 0.000E+00

     total cpu time spent up to now is     4671.5 secs

     total energy              =   -2103.83476429 Ry
     Harris-Foulkes estimate   =   -2103.83498177 Ry
     estimated scf accuracy    <       0.00130236 Ry

     iteration # 22     ecut=    40.00 Ry     beta=0.70
     Davidson diagonalization with overlap
     ethr =  5.47E-07,  avg # of iterations =  1.0

     negative rho (up, down):  0.314E+01 0.000E+00

     total cpu time spent up to now is     4862.1 secs

     total energy              =   -2103.83477819 Ry
     Harris-Foulkes estimate   =   -2103.83499437 Ry
     estimated scf accuracy    <       0.00135970 Ry

     iteration # 23     ecut=    40.00 Ry     beta=0.70
     Davidson diagonalization with overlap
     ethr =  5.47E-07,  avg # of iterations =  1.0

     negative rho (up, down):  0.314E+01 0.000E+00

     total cpu time spent up to now is     5052.7 secs

     total energy              =   -2103.83475206 Ry
     Harris-Foulkes estimate   =   -2103.83501265 Ry
     estimated scf accuracy    <       0.00228995 Ry

     iteration # 24     ecut=    40.00 Ry     beta=0.70
     Davidson diagonalization with overlap
     ethr =  5.47E-07,  avg # of iterations =  1.0

     negative rho (up, down):  0.314E+01 0.000E+00

     total cpu time spent up to now is     5243.1 secs

     total energy              =   -2103.83481889 Ry
     Harris-Foulkes estimate   =   -2103.83496158 Ry
     estimated scf accuracy    <       0.00192668 Ry

     iteration # 25     ecut=    40.00 Ry     beta=0.70
     Davidson diagonalization with overlap
     ethr =  5.47E-07,  avg # of iterations =  1.0

     negative rho (up, down):  0.314E+01 0.000E+00

     total cpu time spent up to now is     5433.5 secs

     total energy              =   -2103.83485248 Ry
     Harris-Foulkes estimate   =   -2103.83494092 Ry
     estimated scf accuracy    <       0.00047968 Ry

     iteration # 26     ecut=    40.00 Ry     beta=0.70
     Davidson diagonalization with overlap
     ethr =  2.02E-07,  avg # of iterations =  1.0

     negative rho (up, down):  0.314E+01 0.000E+00

     total cpu time spent up to now is     5623.9 secs

     total energy              =   -2103.83488263 Ry
     Harris-Foulkes estimate   =   -2103.83491181 Ry
     estimated scf accuracy    <       0.00018826 Ry

     iteration # 27     ecut=    40.00 Ry     beta=0.70
     Davidson diagonalization with overlap
     ethr =  7.91E-08,  avg # of iterations =  1.0

     negative rho (up, down):  0.314E+01 0.000E+00

     total cpu time spent up to now is     5814.3 secs

     total energy              =   -2103.83488839 Ry
     Harris-Foulkes estimate   =   -2103.83490589 Ry
     estimated scf accuracy    <       0.00010877 Ry

     iteration # 28     ecut=    40.00 Ry     beta=0.70
     Davidson diagonalization with overlap
     ethr =  4.57E-08,  avg # of iterations =  1.0

     negative rho (up, down):  0.314E+01 0.000E+00

     total cpu time spent up to now is     6005.5 secs

     total energy              =   -2103.83488611 Ry
     Harris-Foulkes estimate   =   -2103.83490841 Ry
     estimated scf accuracy    <       0.00017295 Ry

     iteration # 29     ecut=    40.00 Ry     beta=0.70
     Davidson diagonalization with overlap
     ethr =  4.57E-08,  avg # of iterations =  1.0

     negative rho (up, down):  0.314E+01 0.000E+00

     total cpu time spent up to now is     6197.4 secs

     total energy              =   -2103.83489343 Ry
     Harris-Foulkes estimate   =   -2103.83490298 Ry
     estimated scf accuracy    <       0.00008047 Ry

     iteration # 30     ecut=    40.00 Ry     beta=0.70
     Davidson diagonalization with overlap
     ethr =  3.38E-08,  avg # of iterations =  1.0

     negative rho (up, down):  0.314E+01 0.000E+00

     total cpu time spent up to now is     6396.0 secs

     total energy              =   -2103.83489660 Ry
     Harris-Foulkes estimate   =   -2103.83489909 Ry
     estimated scf accuracy    <       0.00001040 Ry

     iteration # 31     ecut=    40.00 Ry     beta=0.70
     Davidson diagonalization with overlap
     ethr =  4.37E-09,  avg # of iterations =  2.0

     negative rho (up, down):  0.314E+01 0.000E+00

     total cpu time spent up to now is     6594.3 secs

     total energy              =   -2103.83489362 Ry
     Harris-Foulkes estimate   =   -2103.83490267 Ry
     estimated scf accuracy    <       0.00006465 Ry

     iteration # 32     ecut=    40.00 Ry     beta=0.70
     Davidson diagonalization with overlap
     ethr =  4.37E-09,  avg # of iterations =  1.3

     negative rho (up, down):  0.314E+01 0.000E+00

     total cpu time spent up to now is     6784.7 secs

     total energy              =   -2103.83489554 Ry
     Harris-Foulkes estimate   =   -2103.83490060 Ry
     estimated scf accuracy    <       0.00004080 Ry

     iteration # 33     ecut=    40.00 Ry     beta=0.70
     Davidson diagonalization with overlap
     ethr =  4.37E-09,  avg # of iterations =  1.0

     negative rho (up, down):  0.314E+01 0.000E+00

     total cpu time spent up to now is     6975.4 secs

     total energy              =   -2103.83489587 Ry
     Harris-Foulkes estimate   =   -2103.83490072 Ry
     estimated scf accuracy    <       0.00003792 Ry

     iteration # 34     ecut=    40.00 Ry     beta=0.70
     Davidson diagonalization with overlap
     ethr =  4.37E-09,  avg # of iterations =  1.0

     negative rho (up, down):  0.314E+01 0.000E+00

     total cpu time spent up to now is     7165.9 secs

     total energy              =   -2103.83489811 Ry
     Harris-Foulkes estimate   =   -2103.83489845 Ry
     estimated scf accuracy    <       0.00000292 Ry

     iteration # 35     ecut=    40.00 Ry     beta=0.70
     Davidson diagonalization with overlap
     ethr =  1.23E-09,  avg # of iterations =  1.0

     negative rho (up, down):  0.314E+01 0.000E+00

     total cpu time spent up to now is     7353.3 secs

     total energy              =   -2103.83489809 Ry
     Harris-Foulkes estimate   =   -2103.83489856 Ry
     estimated scf accuracy    <       0.00000499 Ry

     iteration # 36     ecut=    40.00 Ry     beta=0.70
     Davidson diagonalization with overlap
     ethr =  1.23E-09,  avg # of iterations =  1.0

     negative rho (up, down):  0.314E+01 0.000E+00

     total cpu time spent up to now is     7545.3 secs

     End of self-consistent calculation
 --- enter write_ns ---
 LDA+U parameters:
U( 2)     =  6.00000000
alpha( 2) =  0.00000000
atom    3   Tr[ns(na)] =   8.20392
    eigenvalues: 
  0.605  0.632  0.910  0.971  0.984
    eigenvectors:
  0.001  0.182  0.003  0.000  0.813
  0.995  0.004  0.000  0.000  0.000
  0.000  0.000  0.985  0.012  0.003
  0.003  0.813  0.000  0.000  0.183
  0.000  0.000  0.012  0.987  0.001
    occupations:
  0.919 -0.003  0.003 -0.136 -0.001
 -0.003  0.605 -0.001 -0.000 -0.005
  0.003 -0.001  0.911 -0.003  0.006
 -0.136 -0.000 -0.003  0.697 -0.000
 -0.001 -0.005  0.006 -0.000  0.970
atom    4   Tr[ns(na)] =   8.20123
    eigenvalues: 
  0.620  0.670  0.886  0.938  0.986
    eigenvectors:
  0.000  0.988  0.000  0.000  0.011
  0.000  0.000  0.051  0.949  0.000
  0.000  0.000  0.949  0.051  0.000
  0.000  0.011  0.000  0.000  0.989
  1.000  0.000  0.000  0.000  0.000
    occupations:
  0.674 -0.003 -0.001  0.033  0.001
 -0.003  0.936  0.011  0.000 -0.001
 -0.001  0.011  0.889 -0.000  0.001
  0.033  0.000 -0.000  0.983  0.000
  0.001 -0.001  0.001  0.000  0.620
atom    9   Tr[ns(na)] =   8.19613
    eigenvalues: 
  0.653  0.667  0.879  0.914  0.985
    eigenvectors:
  0.000  0.139  0.000  0.000  0.861
  0.999  0.001  0.000  0.000  0.000
  0.000  0.000  0.956  0.044  0.000
  0.001  0.860  0.000  0.000  0.139
  0.000  0.000  0.044  0.956  0.000
    occupations:
  0.940  0.000 -0.000 -0.110 -0.000
  0.000  0.653  0.001  0.000 -0.000
 -0.000  0.001  0.880 -0.000 -0.007
 -0.110  0.000 -0.000  0.711  0.001
 -0.000 -0.000 -0.007  0.001  0.913
atom   10   Tr[ns(na)] =   8.15125
    eigenvalues: 
  0.572  0.608  0.953  0.958  0.985
    eigenvectors:
  0.990  0.000  0.000  0.000  0.010
  0.000  0.000  1.000  0.000  0.000
  0.000  0.000  0.000  0.999  0.000
  0.010  0.000  0.000  0.000  0.990
  0.000  1.000  0.000  0.000  0.000
    occupations:
  0.576  0.000  0.001  0.040 -0.000
  0.000  0.953 -0.000  0.000 -0.000
  0.001 -0.000  0.958  0.000  0.000
  0.040  0.000  0.000  0.981 -0.000
 -0.000 -0.000  0.000 -0.000  0.608
atom   16   Tr[ns(na)] =   8.20377
    eigenvalues: 
  0.605  0.632  0.910  0.971  0.984
    eigenvectors:
  0.001  0.182  0.003  0.001  0.813
  0.996  0.004  0.000  0.000  0.000
  0.000  0.000  0.988  0.009  0.003
  0.003  0.814  0.000  0.000  0.183
  0.000  0.000  0.008  0.990  0.001
    occupations:
  0.919  0.003  0.003 -0.136  0.001
  0.003  0.605  0.000  0.000 -0.005
  0.003  0.000  0.910 -0.003 -0.005
 -0.136  0.000 -0.003  0.697  0.000
  0.001 -0.005 -0.005  0.000  0.970
atom   17   Tr[ns(na)] =   8.20000
    eigenvalues: 
  0.619  0.670  0.891  0.933  0.986
    eigenvectors:
  0.000  0.989  0.000  0.000  0.011
  0.000  0.000  0.090  0.910  0.000
  0.000  0.000  0.910  0.090  0.000
  0.000  0.011  0.000  0.000  0.989
  0.999  0.000  0.000  0.000  0.000
    occupations:
  0.674 -0.003 -0.001  0.032  0.001
 -0.003  0.929  0.012  0.000 -0.001
 -0.001  0.012  0.895 -0.000  0.001
  0.032  0.000 -0.000  0.983  0.000
  0.001 -0.001  0.001  0.000  0.619
atom   22   Tr[ns(na)] =   8.19601
    eigenvalues: 
  0.653  0.667  0.879  0.914  0.985
    eigenvectors:
  0.000  0.139  0.000  0.000  0.861
  1.000  0.000  0.000  0.000  0.000
  0.000  0.000  0.958  0.042  0.000
  0.000  0.860  0.000  0.000  0.139
  0.000  0.000  0.042  0.958  0.000
    occupations:
  0.940  0.000 -0.000 -0.110 -0.000
  0.000  0.653  0.000  0.000 -0.000
 -0.000  0.000  0.880 -0.000  0.007
 -0.110  0.000 -0.000  0.711  0.000
 -0.000 -0.000  0.007  0.000  0.913
atom   23   Tr[ns(na)] =   8.16648
    eigenvalues: 
  0.655  0.720  0.838  0.883  0.988
    eigenvectors:
  0.000  0.991  0.000  0.000  0.009
  0.000  0.000  0.000  1.000  0.000
  0.000  0.000  1.000  0.000  0.000
  0.000  0.009  0.000  0.000  0.991
  1.000  0.000  0.000  0.000  0.000
    occupations:
  0.723  0.000 -0.000  0.026 -0.000
  0.000  0.883  0.000  0.000 -0.000
 -0.000  0.000  0.838  0.000  0.000
  0.026  0.000  0.000  0.985  0.000
 -0.000 -0.000  0.000  0.000  0.655
N of occupied +U levels =  65.5187872
 --- exit write_ns ---

          k = 0.0000 0.0000 0.0000 ( 31045 PWs)   bands (ev):

   -51.8059 -51.5384 -51.3960 -50.6352 -50.6295 -50.6142 -50.5633 -50.5163
   -50.5138 -50.5008 -50.4976 -50.4810 -50.4532 -50.3714 -50.3453 -50.2789
   -50.2610 -50.2590 -50.1772 -50.1654 -50.1500 -50.1348 -50.1340 -50.1201
   -21.8958 -21.8051 -21.4843 -21.2322 -20.9904 -20.7812 -20.7565 -20.6685
   -20.6554 -20.6137 -20.5578 -20.4645 -20.1476 -19.9568 -19.8653 -19.8533
   -19.3828 -19.1531 -18.9733 -11.7383 -11.5155 -10.8186 -10.3331 -10.1911
   -10.0225 -10.0191  -9.9344  -9.6433  -9.4456  -9.2346  -9.2342  -9.0326
    -8.9585  -8.8683  -8.7204  -8.6833  -8.4894  -8.3716  -8.1369  -7.9407
    -7.8277  -7.6279  -7.5992  -7.4757  -7.1403  -6.9582  -6.7897  -6.7064
    -6.6019  -6.5604  -6.4399  -6.3034  -6.2516  -6.2187  -6.0690  -5.6357
    -5.6202  -5.4924  -5.4169  -5.3503  -5.3097  -5.2634  -5.1495  -4.9642
    -4.8430  -4.7820  -4.7688  -4.7357  -4.6919  -4.6822  -4.6723  -4.5141
    -4.4752  -4.3867  -4.3139  -4.2868  -4.2812  -4.2395  -4.1003  -4.0515
    -3.9194  -3.8480  -3.5692  -3.4970  -3.2582  -2.9918  -2.8167  -2.6654
    -2.6032  -2.3947  -2.3109  -2.2779  -2.1200  -1.7056  -1.5419  -1.3142
    -1.2787  -1.0720  -0.7549  -0.4627  -0.4363   0.7041   0.9531   1.1564
     1.1959   1.3608   1.4978   1.9796   2.1779   2.6189   2.7212   2.9036
     3.0389   3.0408   3.2732   3.6252   3.7643   4.0901   4.3807   4.8940
     5.0661   5.8824   5.9859   6.1104   6.1980   6.7421   6.8663   7.1384
     7.4948   7.7125   7.7213   7.7676   7.8855   7.9182   7.9360   7.9793
     8.0522   8.0838   8.1574   8.3370   8.3530   8.3648   8.3725   8.4107
     8.4599   8.5801   8.6387   8.6558   8.7533   8.9833   9.1061   9.1321
     9.2035   9.2543   9.3652   9.3980   9.4024   9.4117   9.4302   9.4450
     9.4469   9.4520   9.6204   9.6221   9.6388   9.8329   9.8481   9.9590
    10.0762  10.1883  10.2838  10.3983  10.4635  10.5602  10.8167  10.8474
    10.9464  11.0516  11.0773  11.1030  11.1529  11.1698  11.2363  11.3071
    11.3864  11.5287  11.6488  11.7009  11.7646  11.7812  11.7852  11.9107
    11.9667  12.1008  12.1364  12.1781  12.2266  12.2859  12.3353  12.3525
    12.4685  12.4939  12.5848  12.6186  12.7385  12.8150  12.8221  12.8681
    12.8969  13.1023  13.2080  13.3858  13.4220  13.6472  13.6879  13.7271
    13.7865  13.8921  13.9407  14.0420  14.1828  14.2343  14.3284  14.4371
    14.5044  14.5735  14.6296  14.7048  14.8394  14.9476  15.0695  15.1423
    15.3042  15.3466  15.4394  15.5472  15.6170  15.7117  15.7254  15.8022
    15.9077  16.0144  16.1346  16.1657  16.2514  16.3176  16.4422  16.5166
    16.6351  16.7675  16.9103  16.9665  17.1091  17.2175  17.2381  17.2958
    17.3183  17.3774  17.4551  17.6405  17.7082  17.7193  17.7816  17.8697
    17.9610  17.9845  18.1487  18.2856  18.3630  18.4910  18.5783  18.6479
    18.6955  18.7103  18.7697  18.7938  18.9116  18.9563  19.0108  19.0829
    19.0992  19.1670  19.2396  19.2538  19.2629  19.3842  19.4012  19.4816
    19.5935  19.6254  19.6896  19.7586  19.8119  19.8280  19.8390  19.9454
    20.0172  20.0471  20.1066  20.2026  20.2769  20.4341  20.4444  20.4812
    20.5166  20.6297  20.6528  20.6641  20.6982  20.7882  20.8439  20.9786
    21.0442  21.1325  21.1817  21.2444  21.3263  21.3601  21.4098  21.5474
    21.5890  21.6897  21.7343  21.8080  21.8585  21.9358  21.9987  22.0220
    22.1038  22.1149  22.1586  22.2255  22.2348

          k = 0.0000 0.2476 0.0000 ( 31078 PWs)   bands (ev):

   -51.8060 -51.5382 -51.3954 -50.6361 -50.6293 -50.6141 -50.5622 -50.5156
   -50.5140 -50.5010 -50.4976 -50.4811 -50.4533 -50.3698 -50.3436 -50.2773
   -50.2639 -50.2585 -50.1772 -50.1657 -50.1499 -50.1351 -50.1337 -50.1201
   -21.7778 -21.6512 -21.4609 -21.2322 -21.0813 -20.9975 -20.9490 -20.6429
   -20.5711 -20.4697 -20.4308 -20.3315 -20.2014 -20.1294 -20.0580 -19.8662
   -19.3810 -19.1479 -18.9771 -11.2999 -11.1182 -10.7545 -10.6705 -10.4189
   -10.3457 -10.1302 -10.0244  -9.6532  -9.3317  -9.0803  -8.9617  -8.8035
    -8.6882  -8.6468  -8.5333  -8.5004  -8.3860  -8.2682  -7.9497  -7.8911
    -7.8477  -7.7669  -7.5600  -7.4039  -7.2447  -6.9580  -6.8576  -6.7939
    -6.7473  -6.5596  -6.5132  -6.4831  -6.3948  -6.3567  -6.3077  -6.1970
    -6.1781  -6.0791  -6.0082  -5.8399  -5.4000  -5.2652  -5.0170  -4.9630
    -4.9057  -4.8507  -4.7596  -4.5922  -4.5257  -4.4579  -4.4117  -4.3053
    -4.2824  -4.2595  -4.2275  -4.1599  -3.9850  -3.9314  -3.8686  -3.8271
    -3.7167  -3.6576  -3.6178  -3.5434  -3.5317  -3.3183  -3.1432  -3.0173
    -2.8641  -2.3147  -2.2627  -2.2245  -2.1201  -1.5986  -1.3745  -1.3097
    -1.1663  -0.9648  -0.8462  -0.6823  -0.2988   0.2306   0.5825   1.0566
     1.1986   1.5236   1.9403   2.6034   2.6090   2.6912   2.9138   3.0305
     3.0498   3.1057   3.2365   3.6277   3.6817   4.2387   4.5876   5.0766
     5.2752   5.3120   6.0617   6.1743   6.3421   6.4211   6.4904   6.8684
     6.8827   7.0285   7.2023   7.5628   7.6304   7.6682   7.7652   8.1059
     8.1338   8.1731   8.2748   8.3376   8.3542   8.4665   8.5388   8.5602
     8.6190   8.7085   8.7888   8.9481   9.0435   9.0944   9.2099   9.3507
     9.3912   9.4021   9.4047   9.4096   9.4296   9.4479   9.4508   9.4847
     9.5907   9.6125   9.6224   9.6258   9.7704   9.8345   9.8779  10.0659
    10.1438  10.2144  10.2973  10.3373  10.3981  10.4390  10.4973  10.5705
    10.6219  10.7241  10.8697  10.9399  10.9970  11.0589  11.1389  11.2271
    11.3286  11.3397  11.4298  11.5494  11.6759  11.7447  11.7993  12.0666
    12.1410  12.2016  12.2071  12.4412  12.5071  12.5820  12.5981  12.6218
    12.6946  12.8055  12.9068  12.9476  12.9719  13.1190  13.2118  13.2996
    13.3595  13.6065  13.6284  13.7860  13.8333  13.8485  13.9195  13.9909
    14.0037  14.0742  14.1735  14.1914  14.3334  14.4363  14.4653  14.5771
    14.6017  14.7155  14.8163  14.8298  14.8766  14.9663  15.0303  15.3475
    15.3879  15.4390  15.4706  15.6305  15.6421  15.7086  15.7896  15.8805
    15.9468  16.0396  16.1389  16.2495  16.2675  16.3011  16.3584  16.4197
    16.4710  16.5720  16.6182  16.7302  16.7376  16.7911  16.9224  17.0470
    17.1064  17.2306  17.2736  17.2953  17.3204  17.3980  17.4799  17.5388
    17.5951  17.6489  17.7513  17.8148  18.1154  18.1431  18.1712  18.3481
    18.4977  18.5202  18.5450  18.6050  18.7015  18.8177  18.8350  18.8918
    18.9464  19.0144  19.0920  19.1098  19.1782  19.3196  19.3439  19.3935
    19.4275  19.5185  19.5503  19.5808  19.6133  19.6249  19.6916  19.7736
    19.8109  19.8504  19.9137  19.9831  20.0018  20.0546  20.0962  20.1314
    20.1743  20.2524  20.2925  20.3763  20.4108  20.5237  20.7481  20.7909
    20.8031  20.8356  20.9200  20.9500  20.9724  21.0319  21.0508  21.0723
    21.0993  21.1696  21.2262  21.2839  21.3644  21.4008  21.4858  21.5657
    21.5882  21.7304  21.7638  21.8202  21.8662

          k = 0.0000-0.4953 0.0000 ( 31160 PWs)   bands (ev):

   -51.8062 -51.5380 -51.3948 -50.6370 -50.6290 -50.6140 -50.5611 -50.5148
   -50.5142 -50.5013 -50.4976 -50.4813 -50.4534 -50.3682 -50.3418 -50.2757
   -50.2673 -50.2576 -50.1773 -50.1660 -50.1499 -50.1354 -50.1333 -50.1200
   -21.6545 -21.4278 -21.3969 -21.2315 -21.2092 -21.0701 -21.0423 -20.6154
   -20.5928 -20.4817 -20.4328 -20.3138 -20.2906 -20.2018 -20.1376 -19.8664
   -19.3797 -19.1424 -18.9814 -10.9726 -10.9218 -10.7828 -10.6316 -10.4538
   -10.3417 -10.2554 -10.0312  -9.2135  -9.0521  -8.8789  -8.8350  -8.6921
    -8.6636  -8.6376  -8.6073  -8.5140  -8.3286  -8.2337  -8.1424  -7.9401
    -7.8217  -7.7291  -7.6485  -7.4663  -7.2936  -7.1845  -6.9873  -6.9212
    -6.8732  -6.8564  -6.8479  -6.7221  -6.5549  -6.3466  -6.2476  -6.2090
    -6.0312  -5.8903  -5.8774  -5.8477  -5.6931  -5.5939  -5.2766  -5.0995
    -4.9652  -4.9280  -4.5826  -4.5076  -4.4892  -4.4618  -4.4477  -4.3473
    -4.3289  -4.2648  -4.2451  -4.2100  -3.9434  -3.8728  -3.8603  -3.8179
    -3.6859  -3.6095  -3.5551  -3.5262  -3.3179  -3.1656  -3.0889  -3.0503
    -2.8276  -2.3043  -2.1579  -2.1115  -2.0814  -1.8740  -1.6601  -1.2125
    -1.0322  -0.8974  -0.8104  -0.7739  -0.2041  -0.1973   0.1759   1.2114
     1.2317   1.9545   2.2705   2.4935   2.5996   2.7783   3.0309   3.0637
     3.1713   3.4070   3.5117   3.6335   3.9354   4.4320   4.7853   5.2379
     5.3256   5.4118   5.7115   5.8833   5.9054   6.0410   6.5064   6.5939
     6.6968   6.8319   7.0556   7.1991   7.2317   7.6103   7.8669   8.0527
     8.2378   8.2987   8.3535   8.4440   8.5687   8.6352   8.6733   8.6854
     8.8155   8.8962   8.9761   9.0500   9.0898   9.1634   9.1825   9.2324
     9.2624   9.3283   9.4014   9.4039   9.4231   9.4272   9.4337   9.4452
     9.4468   9.5556   9.5673   9.6186   9.6222   9.6245   9.7449   9.9161
     9.9642  10.1383  10.1558  10.1620  10.2135  10.2818  10.2871  10.3132
    10.5375  11.0651  11.0792  11.1428  11.2096  11.2488  11.2932  11.4106
    11.5293  11.6424  11.7317  11.8012  11.9841  12.0935  12.1836  12.1952
    12.3219  12.4043  12.4704  12.5695  12.5761  12.7204  12.7445  12.7846
    12.8648  12.9853  13.0858  13.1496  13.1688  13.1909  13.2649  13.3014
    13.4416  13.4650  13.5489  13.5815  13.6131  13.8556  13.8974  13.9045
    14.0149  14.2754  14.2921  14.4245  14.5444  14.6749  14.7246  14.8006
    14.8189  14.8798  14.9791  15.2101  15.2596  15.3320  15.4074  15.4172
    15.4986  15.6622  15.6830  15.8007  15.8724  15.9053  15.9768  16.0352
    16.0463  16.1195  16.1375  16.2349  16.3757  16.4191  16.4598  16.4682
    16.5068  16.5590  16.6100  16.6589  16.7054  16.7396  16.7962  16.8832
    16.9244  17.0015  17.0512  17.0718  17.1268  17.2103  17.2335  17.2824
    17.4412  17.5091  17.6638  17.7007  17.7726  17.8168  17.8946  17.9341
    17.9967  18.0207  18.0464  18.1122  18.2391  18.2810  18.3108  18.3720
    18.3981  18.4387  18.4991  18.5871  18.6488  18.7107  18.7999  18.9654
    19.0173  19.1014  19.2264  19.2786  19.3351  19.4380  19.5057  19.5696
    19.6541  19.7459  19.7596  19.9059  19.9225  19.9350  20.1040  20.1433
    20.1832  20.2444  20.2742  20.3046  20.4083  20.4554  20.4677  20.5042
    20.5377  20.5540  20.5805  20.6892  20.7362  20.7525  20.8245  20.8640
    20.8978  20.9594  20.9705  21.0282  21.0522  21.1106  21.1136  21.2456
    21.2917  21.3001  21.3346  21.3651  21.4650

          k = 0.2500 0.0000 0.0000 ( 31106 PWs)   bands (ev):

   -51.8063 -51.5403 -51.3962 -50.6349 -50.6308 -50.6028 -50.5511 -50.5285
   -50.5213 -50.5041 -50.4991 -50.4813 -50.4726 -50.3716 -50.3471 -50.2677
   -50.2610 -50.2591 -50.1956 -50.1634 -50.1525 -50.1342 -50.1329 -50.1224
   -21.7425 -21.6495 -21.3738 -21.2120 -20.9574 -20.8645 -20.8232 -20.6672
   -20.6505 -20.5615 -20.5229 -20.5071 -20.1072 -20.0833 -19.9766 -19.8893
   -19.3937 -19.2302 -19.0781 -11.4306 -11.2036 -10.5633 -10.1156 -10.0391
    -9.8667  -9.7898  -9.7682  -9.5992  -9.5016  -9.3576  -9.3485  -9.2958
    -9.0428  -8.7790  -8.7402  -8.5189  -8.4902  -8.4253  -8.3008  -8.0553
    -7.7866  -7.7637  -7.6108  -7.5340  -7.2857  -7.0572  -6.9198  -6.7342
    -6.6555  -6.6207  -6.6018  -6.5446  -6.4466  -6.3094  -6.2518  -6.0145
    -5.9551  -5.8969  -5.6879  -5.6370  -5.5103  -5.4520  -5.3622  -5.2135
    -5.1319  -5.0176  -4.9414  -4.8630  -4.7834  -4.7613  -4.6264  -4.3615
    -4.2393  -4.1797  -4.1432  -4.0944  -4.0112  -3.9960  -3.7579  -3.6297
    -3.5520  -3.4123  -3.2158  -3.0796  -3.0009  -2.9027  -2.8443  -2.6292
    -2.4301  -2.4156  -2.1372  -2.0069  -1.9151  -1.8713  -1.5979  -1.4731
    -1.3233  -1.2338  -0.9769  -0.6024  -0.3126   0.8991   1.1505   1.3429
     1.3628   1.5617   1.5641   1.9429   2.1631   2.2010   2.6714   2.7705
     2.8776   3.0189   3.0610   3.3148   3.7130   4.3654   4.6140   5.1191
     5.2522   5.3223   6.0879   6.1241   6.3691   6.4118   6.6393   6.8486
     7.0924   7.2795   7.4321   7.4438   7.7285   7.8717   7.9161   8.0453
     8.1257   8.1703   8.2144   8.3173   8.3236   8.3539   8.3985   8.6361
     8.6930   8.8139   8.8911   8.9160   9.0524   9.1649   9.2466   9.2635
     9.3852   9.4011   9.4070   9.4310   9.4416   9.4487   9.4511   9.4844
     9.6197   9.6220   9.6589   9.7546   9.8219  10.0250  10.0469  10.1017
    10.1286  10.2263  10.2460  10.3204  10.4335  10.4741  10.4962  10.5985
    10.6279  10.7457  10.7975  10.9272  11.0088  11.1580  11.2238  11.2464
    11.2719  11.2934  11.3473  11.4498  11.5241  11.5840  11.7399  11.9546
    11.9630  12.0494  12.1660  12.2180  12.3367  12.4842  12.5091  12.5723
    12.6538  12.7322  12.8171  12.8618  12.9807  13.2549  13.2805  13.3776
    13.4762  13.5672  13.6844  13.7883  13.8894  13.9557  14.0086  14.0466
    14.0624  14.1586  14.1904  14.2332  14.2844  14.3280  14.3594  14.4698
    14.6158  14.6316  14.6865  14.7327  14.8183  14.9697  15.0282  15.1582
    15.2124  15.2742  15.4541  15.4953  15.5209  15.6404  15.6917  15.7761
    15.7968  15.9164  15.9586  16.0971  16.1208  16.2363  16.2591  16.2991
    16.3407  16.3722  16.4332  16.5153  16.6989  16.7757  16.8748  17.0887
    17.1738  17.2204  17.2984  17.3926  17.4272  17.5366  17.5611  17.7243
    17.7305  17.9571  18.0083  18.0382  18.0970  18.2338  18.2586  18.3378
    18.5172  18.5837  18.6544  18.8104  18.8781  18.9861  19.0782  19.1115
    19.1497  19.1895  19.2571  19.2950  19.3261  19.3841  19.4359  19.4535
    19.5284  19.5670  19.6053  19.6403  19.6803  19.7757  19.8088  19.8290
    19.8668  19.8987  19.9460  20.0850  20.1399  20.1635  20.1898  20.2486
    20.2865  20.3379  20.4238  20.4675  20.5217  20.5472  20.5688  20.5933
    20.6268  20.7849  20.8436  20.8766  20.9250  21.0241  21.0368  21.0695
    21.1843  21.2502  21.2972  21.3517  21.4005  21.4154  21.4531  21.5623
    21.5938  21.6539  21.6698  21.7627  21.8509

          k = 0.2500 0.2476 0.0000 ( 31099 PWs)   bands (ev):

   -51.8065 -51.5401 -51.3956 -50.6355 -50.6307 -50.6027 -50.5500 -50.5285
   -50.5206 -50.5043 -50.4991 -50.4815 -50.4726 -50.3698 -50.3452 -50.2666
   -50.2633 -50.2593 -50.1954 -50.1636 -50.1525 -50.1339 -50.1331 -50.1224
   -21.6381 -21.5049 -21.3359 -21.2121 -21.0464 -20.9167 -20.8720 -20.6904
   -20.5909 -20.5348 -20.5011 -20.4164 -20.2850 -20.1901 -20.0881 -19.8903
   -19.3907 -19.2273 -19.0814 -11.0053 -10.8297 -10.4892 -10.4001 -10.1712
   -10.0231  -9.8896  -9.8702  -9.5568  -9.3450  -9.2382  -9.1535  -9.1055
    -8.8316  -8.7593  -8.6003  -8.4432  -8.3808  -8.2269  -8.0838  -7.8922
    -7.7785  -7.6569  -7.5815  -7.5206  -7.4742  -7.3024  -7.1432  -7.0343
    -6.9455  -6.7875  -6.7184  -6.6960  -6.5826  -6.4924  -6.4081  -6.3337
    -6.2380  -6.0688  -5.9809  -5.8211  -5.7692  -5.6135  -5.3756  -5.2597
    -5.1756  -4.9848  -4.9118  -4.8377  -4.7087  -4.5759  -4.4284  -4.2960
    -4.1314  -4.0145  -3.9492  -3.8700  -3.7389  -3.6934  -3.6120  -3.4739
    -3.3893  -3.3388  -3.2739  -3.2125  -3.1621  -3.0272  -2.9008  -2.8578
    -2.7615  -2.3233  -2.1831  -2.0175  -1.9217  -1.6746  -1.4660  -1.3950
    -1.3233  -1.1520  -1.0710  -0.8181  -0.1832   0.4758   0.8164   1.1698
     1.3873   1.5844   1.9126   2.1751   2.4049   2.5629   2.5968   2.7611
     2.9159   3.1055   3.1610   3.5967   3.6682   4.5473   4.8275   5.2930
     5.4190   5.5263   5.5641   6.1734   6.4288   6.5867   6.6556   6.7462
     6.8487   6.9684   7.1422   7.2806   7.3347   7.3982   7.5598   7.8144
     7.9211   7.9937   8.0280   8.1267   8.2945   8.3539   8.4602   8.4908
     8.5279   8.7819   8.8480   8.8948   9.0169   9.0760   9.1788   9.2907
     9.3930   9.4037   9.4107   9.4315   9.4460   9.4473   9.5074   9.6168
     9.6205   9.6229   9.6802   9.7679   9.9150   9.9849  10.0491  10.1611
    10.2445  10.3515  10.4096  10.4508  10.4928  10.5328  10.6556  10.7905
    10.8958  11.0023  11.0478  11.1057  11.1530  11.2990  11.4184  11.5335
    11.6271  11.6713  11.7633  11.7979  11.8213  12.0224  12.1268  12.1935
    12.2308  12.2902  12.3898  12.4939  12.5830  12.6464  12.7083  12.7554
    12.7932  12.8664  12.9605  12.9852  13.0671  13.1210  13.1720  13.2231
    13.2885  13.4293  13.5099  13.6124  13.6749  13.8500  13.8807  13.9153
    14.0718  14.1168  14.1787  14.2598  14.3159  14.4153  14.4700  14.5896
    14.6974  14.7834  14.8838  14.9603  15.0679  15.2238  15.2632  15.3447
    15.3831  15.4967  15.5706  15.6108  15.6916  15.7719  15.8056  15.8961
    15.9290  15.9962  16.0450  16.1258  16.1610  16.2182  16.3030  16.3756
    16.4073  16.4384  16.4889  16.5540  16.6483  16.7056  16.7291  16.8077
    16.8327  16.9971  17.0949  17.1615  17.2326  17.3058  17.3790  17.4322
    17.4653  17.5453  17.6024  17.6624  17.7238  17.7674  17.8212  17.9019
    17.9512  17.9929  18.0232  18.2011  18.2222  18.2689  18.3660  18.4605
    18.5579  18.5923  18.6610  18.6721  18.8067  18.8493  18.9596  19.0087
    19.0669  19.1003  19.1517  19.2380  19.2916  19.3324  19.4028  19.5642
    19.6237  19.6802  19.7315  19.7690  19.8799  19.9198  19.9917  20.0522
    20.1117  20.3145  20.3531  20.4687  20.5044  20.5614  20.6482  20.6587
    20.7408  20.8073  20.8592  20.8880  20.9197  20.9408  21.0297  21.1540
    21.2431  21.2980  21.3896  21.4262  21.4834  21.5092  21.5917  21.6796
    21.7432  21.8048  21.8542  21.8897  21.9290

          k = 0.2500-0.4953 0.0000 ( 31088 PWs)   bands (ev):

   -51.8066 -51.5399 -51.3949 -50.6363 -50.6306 -50.6025 -50.5489 -50.5285
   -50.5200 -50.5046 -50.4992 -50.4816 -50.4726 -50.3680 -50.3429 -50.2675
   -50.2640 -50.2595 -50.1952 -50.1639 -50.1525 -50.1336 -50.1334 -50.1224
   -21.5405 -21.2744 -21.2442 -21.2104 -21.1162 -20.9777 -20.9238 -20.6897
   -20.6018 -20.5407 -20.5200 -20.4415 -20.4090 -20.3516 -20.0995 -19.8909
   -19.3880 -19.2242 -19.0852 -10.6596 -10.6110 -10.4283 -10.3632 -10.1688
   -10.0822  -9.9871  -9.8837  -9.2419  -9.1395  -8.8936  -8.8901  -8.8389
    -8.7584  -8.7168  -8.6056  -8.3991  -8.3526  -8.3302  -8.1135  -7.9284
    -7.8952  -7.8442  -7.7010  -7.6095  -7.5314  -7.3965  -7.3896  -7.3039
    -7.1919  -7.1411  -7.0278  -6.8794  -6.7426  -6.5678  -6.3651  -6.3217
    -6.2543  -6.1653  -6.0962  -5.8966  -5.8403  -5.5974  -5.4915  -5.4284
    -5.2593  -5.0093  -4.7745  -4.6282  -4.5986  -4.4201  -4.3869  -4.1783
    -4.0891  -4.0259  -3.9005  -3.8041  -3.7422  -3.6858  -3.6311  -3.5310
    -3.4333  -3.3603  -3.3208  -3.2041  -3.0663  -2.9472  -2.8438  -2.7224
    -2.6698  -2.1733  -2.1565  -2.0124  -1.8896  -1.8466  -1.7099  -1.2693
    -1.1842  -1.1231  -0.9982  -0.9913  -0.0851   0.0243   0.3939   1.2808
     1.4045   1.8376   2.0318   2.1257   2.2190   2.4624   2.9748   3.0162
     3.0511   3.2616   3.2982   3.4319   4.2201   4.7059   4.9756   5.4885
     5.5817   5.7108   5.7221   5.9623   6.1480   6.2015   6.3357   6.4017
     6.7457   6.9546   7.1089   7.2517   7.3116   7.3680   7.4333   7.5725
     7.7150   7.8722   7.9969   8.0298   8.0620   8.1985   8.3190   8.3536
     8.4100   8.5363   8.6824   8.7751   8.8930   8.9673   9.0623   9.3846
     9.3998   9.4017   9.4287   9.4449   9.4459   9.4623   9.4886   9.5761
     9.6158   9.6202   9.7322   9.8356   9.9027   9.9425  10.0012  10.1106
    10.2541  10.3449  10.4503  10.4637  10.5269  10.9660  11.0621  11.1290
    11.1876  11.3313  11.3992  11.4675  11.5356  11.6361  11.6874  11.7196
    11.8123  11.8768  11.9501  12.0624  12.1477  12.2179  12.2872  12.3938
    12.4335  12.5390  12.6232  12.6649  12.7246  12.8060  12.8154  12.8800
    12.9468  13.1049  13.1910  13.2965  13.3184  13.3476  13.3830  13.4263
    13.5581  13.6255  13.6612  13.7345  13.7445  13.9012  13.9264  13.9775
    14.0850  14.2819  14.4056  14.5052  14.5179  14.5572  14.5917  14.6479
    14.7033  14.7272  14.8303  14.8600  14.8793  14.9561  15.0126  15.0814
    15.1263  15.2021  15.2740  15.3934  15.4166  15.4936  15.5198  15.6249
    15.6486  15.7440  15.9009  16.0522  16.1115  16.1191  16.1924  16.2609
    16.3337  16.4380  16.4742  16.5361  16.5791  16.6454  16.6791  16.7420
    16.7582  16.8415  16.9505  17.0063  17.0376  17.0887  17.1558  17.2277
    17.2620  17.2918  17.3812  17.4075  17.5347  17.6090  17.6336  17.7252
    17.8947  17.9259  17.9512  17.9797  18.0649  18.1800  18.2827  18.3472
    18.3946  18.4625  18.5365  18.5739  18.6377  18.6815  18.7181  18.7372
    18.8225  18.9298  18.9762  19.0319  19.1091  19.1281  19.1427  19.2480
    19.3469  19.4160  19.4356  19.4815  19.6042  19.6500  19.7266  19.7478
    19.7935  19.8543  19.9011  19.9575  20.0168  20.1640  20.3641  20.4694
    20.5387  20.5754  20.6522  20.6921  20.7651  20.8258  20.8580  21.0026
    21.0548  21.0647  21.1554  21.1802  21.2337  21.3463  21.4191  21.5445
    21.6703  21.7254  21.7811  21.8194  21.8569

          k =-0.5000 0.0000 0.0000 ( 31104 PWs)   bands (ev):

   -51.8068 -51.5422 -51.3964 -50.6340 -50.6326 -50.5772 -50.5601 -50.5288
   -50.5163 -50.5141 -50.5028 -50.5002 -50.4816 -50.3717 -50.3490 -50.2616
   -50.2592 -50.2364 -50.2334 -50.1586 -50.1577 -50.1344 -50.1292 -50.1265
   -21.4289 -21.3665 -21.3107 -21.2726 -21.1275 -21.0901 -20.7538 -20.6414
   -20.6269 -20.5642 -20.4153 -20.3431 -20.2652 -20.2562 -20.0030 -19.9708
   -19.4066 -19.2618 -19.2376 -10.6765 -10.5419 -10.3603 -10.3589 -10.0711
    -9.9184  -9.7271  -9.6403  -9.5884  -9.5514  -9.4047  -9.3801  -9.1937
    -9.1026  -8.9146  -8.8614  -8.7149  -8.7027  -8.1896  -8.1354  -7.9043
    -7.6550  -7.5955  -7.5542  -7.4958  -7.4750  -7.2351  -7.1888  -7.0293
    -6.9843  -6.8622  -6.8425  -6.6347  -6.6039  -6.5480  -6.2783  -6.2688
    -6.2076  -6.1619  -6.1063  -5.9849  -5.7584  -5.6578  -5.4686  -5.4440
    -5.0005  -4.9808  -4.8989  -4.8440  -4.7671  -4.7178  -4.4445  -4.2089
    -4.1045  -4.0751  -3.9371  -3.9104  -3.9009  -3.7907  -3.7483  -3.5426
    -3.5238  -3.1572  -3.1019  -2.9138  -2.7581  -2.6082  -2.5281  -2.3929
    -2.3583  -2.2375  -1.9212  -1.8993  -1.8695  -1.8622  -1.6737  -1.5670
    -1.5000  -1.4277  -1.0280  -0.9824  -0.1708   1.2899   1.5009   1.5056
     1.5437   1.6858   1.8088   2.0789   2.1137   2.1348   2.1356   2.1498
     2.1691   2.9720   3.1425   3.3861   4.1730   4.1994   4.9691   5.2758
     5.2893   5.4941   5.7507   5.9511   6.0039   6.0733   6.6349   6.7200
     6.7468   6.9954   7.0270   7.2425   7.7405   7.9665   7.9994   8.1667
     8.2580   8.3327   8.3541   8.3945   8.5704   8.7263   8.8281   8.8604
     8.8856   8.9389   9.0091   9.0618   9.1382   9.1465   9.2540   9.3145
     9.4009   9.4029   9.4124   9.4259   9.4388   9.4461   9.4486   9.4807
     9.5202   9.5747   9.6180   9.6227   9.6488   9.7471   9.7660   9.7946
     9.9091  10.0378  10.1008  10.1206  10.2176  10.3369  10.3655  10.4418
    10.5475  10.7923  10.9930  11.0271  11.0625  11.1717  11.3226  11.3510
    11.5859  11.7027  11.7234  11.8604  11.8813  11.9138  12.0093  12.0779
    12.0917  12.2609  12.3715  12.4380  12.6596  12.6895  12.8460  12.8819
    12.9378  12.9583  13.0326  13.0754  13.1789  13.1991  13.2533  13.3299
    13.4183  13.4730  13.5408  13.6388  13.6682  13.7109  13.7767  13.8303
    13.9145  14.1213  14.1329  14.1806  14.2302  14.2825  14.4857  14.5475
    14.5747  14.7033  14.7193  14.7767  14.8706  14.9774  15.1198  15.1708
    15.3382  15.3516  15.3722  15.5007  15.8340  15.9537  16.0270  16.0934
    16.1687  16.2024  16.2141  16.2201  16.3572  16.3720  16.4032  16.4270
    16.5190  16.5951  16.6591  16.6748  16.7184  16.7369  16.7393  16.7991
    16.8553  16.8808  16.9060  16.9126  17.1203  17.1812  17.2640  17.5213
    17.5996  17.6592  17.6890  17.7172  17.8968  17.9926  18.0848  18.1228
    18.1461  18.3363  18.3896  18.4346  18.4630  18.5325  18.5537  18.7363
    18.7521  18.8631  18.9031  18.9391  18.9795  19.0325  19.1051  19.1518
    19.1939  19.3219  19.3372  19.5129  19.5433  19.5734  19.6496  19.6629
    19.7426  19.8191  19.8382  20.0135  20.0165  20.0463  20.0928  20.1134
    20.2012  20.2262  20.2751  20.3025  20.3488  20.3688  20.4161  20.4716
    20.4990  20.6414  20.7101  20.7212  20.7514  20.7896  20.9667  21.0376
    21.0538  21.0755  21.1118  21.1428  21.2073  21.2332  21.2915  21.3382
    21.3404  21.3748  21.3922  21.4845  21.5033

          k =-0.5000 0.2476 0.0000 ( 31120 PWs)   bands (ev):

   -51.8069 -51.5420 -51.3957 -50.6340 -50.6332 -50.5771 -50.5600 -50.5272
   -50.5159 -50.5145 -50.5030 -50.5004 -50.4818 -50.3697 -50.3466 -50.2633
   -50.2609 -50.2356 -50.2327 -50.1587 -50.1578 -50.1341 -50.1293 -50.1267
   -21.3929 -21.2918 -21.2150 -21.1819 -21.0408 -21.0242 -20.7793 -20.6589
   -20.6426 -20.5673 -20.5228 -20.4682 -20.4049 -20.3998 -20.0023 -19.9697
   -19.4013 -19.2616 -19.2414 -10.2915 -10.2424 -10.1279 -10.0973  -9.8809
    -9.8175  -9.7010  -9.6517  -9.5723  -9.5395  -9.4758  -9.4624  -9.2432
    -9.1698  -8.9366  -8.8633  -8.5503  -8.4544  -8.1573  -8.0803  -7.9877
    -7.8897  -7.8219  -7.8067  -7.6163  -7.4348  -7.3234  -7.2535  -7.0619
    -7.0310  -6.9996  -6.8965  -6.7614  -6.7396  -6.5717  -6.4609  -6.3376
    -6.2973  -6.2619  -6.1849  -6.0656  -5.9305  -5.8093  -5.6832  -5.5673
    -5.3082  -5.2595  -5.1356  -4.9273  -4.7272  -4.6341  -4.2716  -4.0418
    -3.8679  -3.8460  -3.7748  -3.6718  -3.6157  -3.5263  -3.3719  -3.3525
    -3.2884  -3.2434  -3.1929  -3.0134  -2.8765  -2.7891  -2.6498  -2.5155
    -2.2022  -2.1800  -2.0067  -1.9430  -1.7695  -1.6923  -1.6301  -1.5646
    -1.5457  -1.4725  -1.1752  -1.0799  -0.0701   0.9382   1.3320   1.4365
     1.4474   1.5985   1.6225   1.8709   1.9319   2.2392   2.3937   2.5998
     2.6354   2.9193   3.2214   3.5076   4.3990   4.4211   5.0670   5.5036
     5.5120   5.7284   5.9132   6.0445   6.1539   6.2708   6.2956   6.3456
     6.7565   7.0480   7.1593   7.2788   7.3006   7.3797   7.4253   7.5690
     7.8148   7.9400   7.9815   8.0320   8.1054   8.3526   8.3551   8.4022
     8.5783   8.6259   8.6938   8.8123   8.9652   9.0363   9.1447   9.3628
     9.4014   9.4031   9.4298   9.4460   9.4481   9.5407   9.6150   9.6235
     9.6341   9.6891   9.7439   9.8606   9.8798   9.9748  10.0061  10.1906
    10.2573  10.3796  10.4813  10.5145  10.7562  10.8479  10.9207  10.9721
    11.0538  11.0963  11.2911  11.3430  11.4562  11.5049  11.5895  11.6597
    11.7336  11.7804  11.9426  12.0496  12.1119  12.1848  12.2789  12.3407
    12.4569  12.5047  12.5371  12.5639  12.6660  12.9064  13.0133  13.0638
    13.0894  13.1197  13.2294  13.2917  13.3491  13.3932  13.4614  13.5084
    13.5517  13.6017  13.6686  13.7854  13.8197  13.8449  13.9478  14.0460
    14.1262  14.1655  14.2719  14.2967  14.3656  14.3925  14.4492  14.4913
    14.5392  14.6308  14.6611  14.7523  14.7980  14.8551  14.9235  14.9812
    15.0185  15.0909  15.1730  15.2046  15.2807  15.3330  15.4444  15.5491
    15.6282  15.6413  15.8245  15.9473  16.0506  16.1097  16.2037  16.3268
    16.3451  16.3871  16.4183  16.4895  16.5867  16.6098  16.6806  16.7261
    16.7450  16.7948  16.8768  16.9757  17.0051  17.0660  17.1780  17.2609
    17.3366  17.4429  17.4637  17.5163  17.6575  17.7605  17.7796  17.8187
    17.9052  17.9249  18.0149  18.0465  18.1101  18.2422  18.3626  18.4396
    18.4821  18.5037  18.5684  18.6326  18.6436  18.7635  18.8077  18.8618
    18.9061  18.9765  19.0070  19.1244  19.1912  19.2684  19.3371  19.4437
    19.4666  19.5099  19.5569  19.6406  19.6897  19.7178  19.8066  19.8468
    19.9711  20.0599  20.0775  20.1455  20.2604  20.3177  20.3591  20.4399
    20.4922  20.5813  20.6163  20.7278  20.7666  20.8975  20.9439  20.9877
    21.0257  21.2275  21.2803  21.3898  21.4408  21.5138  21.5472  21.6885
    21.7206  21.7479  21.7689  21.8982  21.9149

          k =-0.5000-0.4953 0.0000 ( 31140 PWs)   bands (ev):

   -51.8070 -51.5418 -51.3950 -50.6345 -50.6332 -50.5770 -50.5599 -50.5252
   -50.5158 -50.5148 -50.5031 -50.5005 -50.4819 -50.3676 -50.3442 -50.2649
   -50.2626 -50.2350 -50.2320 -50.1588 -50.1580 -50.1337 -50.1294 -50.1268
   -21.3632 -21.2471 -20.9648 -20.9417 -20.9317 -20.9209 -20.8251 -20.7937
   -20.7231 -20.7191 -20.6366 -20.5681 -20.5508 -20.5261 -20.0030 -19.9704
   -19.3959 -19.2614 -19.2453 -10.1875 -10.0627  -9.8972  -9.8248  -9.6897
    -9.6537  -9.6372  -9.5960  -9.3524  -9.2658  -9.2308  -8.9817  -8.9435
    -8.9274  -8.9183  -8.8367  -8.8344  -8.6993  -8.6518  -8.6482  -8.2793
    -8.1622  -7.9638  -7.7708  -7.6296  -7.6183  -7.3447  -7.3253  -7.1951
    -7.0772  -6.9674  -6.8885  -6.8448  -6.7899  -6.7513  -6.7245  -6.6579
    -6.6301  -6.5013  -6.4392  -6.0637  -5.9905  -5.7457  -5.6336  -5.4218
    -5.3415  -5.2770  -5.1301  -4.8374  -4.6699  -4.5213  -4.1377  -3.9530
    -3.8859  -3.6933  -3.6581  -3.6118  -3.5509  -3.4560  -3.4391  -3.3749
    -3.1621  -3.1443  -3.1356  -2.9892  -2.8664  -2.7919  -2.6312  -2.5713
    -2.1219  -2.0310  -1.9900  -1.9006  -1.8537  -1.6522  -1.6058  -1.5275
    -1.4162  -1.3455  -1.3398  -1.2772   0.0133   0.4971   1.0660   1.0804
     1.1185   1.5329   1.6674   1.9604   1.9757   2.5590   2.6171   2.6809
     2.9644   3.2112   3.2521   3.3155   4.8360   4.8713   5.2410   5.3946
     5.4017   6.1815   6.1820   6.2944   6.2965   6.3517   6.3853   6.5234
     6.6432   6.8032   6.8117   6.8908   6.9573   6.9993   7.0685   7.0938
     7.5026   7.6045   7.7044   7.7903   7.8431   7.9343   8.0320   8.1665
     8.3538   8.4928   8.8063   8.8900   8.9871   8.9899   9.1737   9.2536
     9.2935   9.3402   9.4026   9.4041   9.4289   9.4457   9.4467   9.4598
     9.6201   9.6219  10.0657  10.0721  10.1075  10.1206  10.1974  10.2202
    10.2722  10.4620  10.5508  10.7085  10.9066  10.9378  10.9853  11.0185
    11.3692  11.3972  11.7311  11.7864  11.9364  11.9496  12.1175  12.1952
    12.2921  12.3041  12.5115  12.5309  12.6479  12.6920  12.8318  12.8907
    12.9450  12.9666  13.0624  13.1270  13.1534  13.2390  13.3968  13.4121
    13.4247  13.4465  13.5235  13.5387  13.6122  13.6324  13.6691  13.6849
    13.7731  13.7872  13.8534  13.8767  13.8906  13.9115  13.9411  13.9701
    14.0500  14.0903  14.1423  14.1478  14.1866  14.2110  14.3302  14.3508
    14.3848  14.4642  14.4953  14.5720  14.5868  14.6193  14.6847  14.7088
    14.8530  15.0189  15.0836  15.1318  15.2257  15.2477  15.2725  15.3146
    15.3209  15.3619  15.3880  15.3960  15.4199  15.5310  15.6148  15.6949
    15.7859  15.8378  15.8701  15.8868  16.0055  16.0328  16.0376  16.2260
    16.3394  16.3774  16.4880  16.5232  16.7342  16.8008  16.8997  16.9086
    16.9329  16.9533  17.0297  17.0763  17.1582  17.2120  17.2239  17.3696
    17.6195  17.7698  17.7952  17.9189  18.1005  18.1131  18.1750  18.1996
    18.2269  18.3811  18.3955  18.4561  18.6169  18.6602  18.7575  18.9159
    18.9514  19.1034  19.1980  19.3182  19.3716  19.4592  19.5018  19.5135
    19.6119  19.7110  19.7512  20.0421  20.0721  20.1015  20.1581  20.2161
    20.2960  20.3214  20.4909  20.6050  20.6343  20.6535  20.6699  20.7737
    20.7936  20.8894  20.9827  21.1025  21.1089  21.1538  21.1612  21.2675
    21.3161  21.3385  21.3696  21.3780  21.4120  21.4498  21.5039  21.5271
    21.5514  21.5792  21.5897  21.6085  21.6406

          k =-0.2500 0.2476 0.0000 ( 31099 PWs)   bands (ev):

   -51.8065 -51.5401 -51.3956 -50.6355 -50.6307 -50.6026 -50.5500 -50.5286
   -50.5207 -50.5043 -50.4991 -50.4815 -50.4726 -50.3698 -50.3449 -50.2672
   -50.2628 -50.2594 -50.1954 -50.1636 -50.1525 -50.1339 -50.1331 -50.1224
   -21.6381 -21.5049 -21.3355 -21.2119 -21.0464 -20.9171 -20.8715 -20.6912
   -20.5940 -20.5352 -20.5006 -20.4125 -20.2855 -20.1885 -20.0901 -19.8901
   -19.3907 -19.2273 -19.0815 -11.0049 -10.8276 -10.4924 -10.4046 -10.1508
   -10.0493  -9.8784  -9.8650  -9.5654  -9.3493  -9.2363  -9.1535  -9.1111
    -8.8326  -8.7601  -8.5955  -8.4378  -8.3889  -8.2341  -8.0844  -7.8182
    -7.7754  -7.6828  -7.5936  -7.5362  -7.4556  -7.2871  -7.1452  -7.0751
    -6.9769  -6.8045  -6.7236  -6.6419  -6.5464  -6.4636  -6.4395  -6.3403
    -6.2284  -6.0720  -5.9770  -5.8662  -5.7798  -5.5943  -5.3925  -5.2850
    -5.2008  -4.9899  -4.9196  -4.7603  -4.7230  -4.5670  -4.4031  -4.2974
    -4.1095  -3.9998  -3.9507  -3.8955  -3.7245  -3.6724  -3.6116  -3.4836
    -3.4011  -3.3497  -3.2786  -3.2697  -3.1346  -3.0300  -2.9497  -2.8594
    -2.7168  -2.2853  -2.1817  -2.0291  -1.9135  -1.6977  -1.4823  -1.3898
    -1.3185  -1.1444  -1.0637  -0.8229  -0.1834   0.4756   0.8151   1.1701
     1.3869   1.5873   1.9146   2.1744   2.4025   2.5559   2.6002   2.7710
     2.9162   3.1037   3.1546   3.5929   3.6703   4.5474   4.8292   5.3055
     5.4415   5.5380   5.5641   6.1756   6.4230   6.5402   6.6653   6.7419
     6.8344   6.9297   7.1458   7.2894   7.3378   7.3994   7.5540   7.8107
     7.9040   8.0003   8.0577   8.1552   8.2838   8.3539   8.4296   8.4869
     8.5400   8.7812   8.8440   8.9210   9.0156   9.0651   9.1870   9.2934
     9.3989   9.4037   9.4251   9.4415   9.4467   9.4505   9.5304   9.6190
     9.6206   9.6225   9.6939   9.7693   9.8763   9.9590  10.0439  10.1561
    10.2167  10.3326  10.4056  10.4468  10.4882  10.5306  10.6625  10.8403
    10.8926  11.0261  11.0399  11.1038  11.1553  11.3139  11.4245  11.5439
    11.6114  11.6737  11.7675  11.7999  11.8372  12.0257  12.1432  12.1914
    12.2384  12.2886  12.3915  12.4934  12.6076  12.6448  12.6915  12.7264
    12.8060  12.8790  12.9460  13.0010  13.0844  13.1243  13.1813  13.2474
    13.3187  13.4247  13.4714  13.5826  13.6818  13.8577  13.9075  13.9206
    14.0341  14.0816  14.1886  14.2449  14.3090  14.4232  14.4511  14.5965
    14.7000  14.7885  14.8270  14.9540  15.0701  15.1542  15.2272  15.3600
    15.4041  15.4926  15.5679  15.6002  15.6715  15.7718  15.7958  15.8642
    15.9440  15.9996  16.0358  16.1227  16.1672  16.2174  16.3279  16.3603
    16.4030  16.4202  16.5052  16.5500  16.6199  16.6991  16.7394  16.7871
    16.8228  16.9778  17.1551  17.1789  17.2270  17.3170  17.3553  17.4599
    17.4916  17.5459  17.5766  17.6709  17.7370  17.7695  17.8631  17.9153
    17.9727  17.9947  18.0369  18.1821  18.2143  18.2634  18.3474  18.4952
    18.5562  18.6015  18.6385  18.7173  18.7884  18.8957  18.9721  19.0167
    19.0611  19.1344  19.1797  19.2648  19.2825  19.3508  19.3942  19.5624
    19.6185  19.6562  19.6870  19.7676  19.8931  19.9513  20.0132  20.0700
    20.2039  20.2751  20.3470  20.4027  20.4912  20.5521  20.6185  20.7071
    20.7437  20.7958  20.8609  20.8832  20.8949  20.9734  21.0796  21.1708
    21.2614  21.3147  21.3651  21.4087  21.4720  21.5321  21.5594  21.6730
    21.7624  21.8251  21.8567  21.8865  21.9293

     the Fermi energy is    -1.5157 ev

!    total energy              =   -2103.83489771 Ry
     Harris-Foulkes estimate   =   -2103.83489839 Ry
     estimated scf accuracy    <       0.00000076 Ry

     The total energy is the sum of the following terms:

     one-electron contribution =  -22675.39212735 Ry
     hartree contribution      =   11380.79296907 Ry
     xc contribution           =    -576.31676892 Ry
     ewald contribution        =    9764.87006855 Ry
     Hubbard energy            =       2.21087178 Ry
     smearing contrib. (-TS)   =       0.00008917 Ry

     convergence has been achieved in  36 iterations

     Forces acting on atoms (Ry/au):


     negative rho (up, down):  0.314E+01 0.000E+00
     atom    1 type  1   force =    -0.00785775   -0.01271918    0.00715896
     atom    2 type  1   force =     0.00005078    0.00577228    0.00324595
     atom    3 type  2   force =     0.03553216    0.00863322   -0.01134457
     atom    4 type  2   force =     0.00900873    0.00799734   -0.00405243
     atom    5 type  1   force =    -0.00402587   -0.01558707    0.00134484
     atom    6 type  1   force =     0.00745950    0.01350197    0.00048195
     atom    7 type  1   force =    -0.00040560   -0.00237365    0.01736311
     atom    8 type  1   force =    -0.00336096   -0.00087891    0.00125554
     atom    9 type  2   force =     0.00566430    0.00063479   -0.00967784
     atom   10 type  2   force =    -0.00000708   -0.00092017   -0.00581493
     atom   11 type  1   force =     0.01287053    0.00821337   -0.00084248
     atom   12 type  1   force =     0.01226326   -0.00875072   -0.00086813
     atom   13 type  1   force =    -0.00090120   -0.00004463    0.00001751
     atom   14 type  1   force =    -0.00782434   -0.01329631    0.00644053
     atom   15 type  1   force =     0.00021039    0.00661837    0.00268917
     atom   16 type  2   force =    -0.03547720    0.00734062   -0.01152210
     atom   17 type  2   force =     0.00893745    0.00811148   -0.00518644
     atom   18 type  1   force =    -0.00534037   -0.01498360    0.00142570
     atom   19 type  1   force =     0.00516431    0.01421136    0.00048415
     atom   20 type  1   force =    -0.00023515   -0.00533320    0.02361541
     atom   21 type  1   force =    -0.00312314   -0.00059686    0.00340585
     atom   22 type  2   force =    -0.00329216    0.00041794   -0.00955739
     atom   23 type  2   force =    -0.00004121    0.00052894   -0.01526218
     atom   24 type  1   force =    -0.01281640    0.00823888   -0.00081602
     atom   25 type  1   force =    -0.01211003   -0.00873895   -0.00086314
     atom   26 type  1   force =    -0.00071854   -0.00014546    0.00398929
     atom   27 type  3   force =    -0.00011767   -0.00333194    0.00282820
     atom   28 type  3   force =    -0.00011415   -0.00379707    0.00372905
     atom   29 type  3   force =     0.00052160    0.00047925    0.00002659
     atom   30 type  3   force =     0.00007528    0.00091025    0.00006119
     atom   31 type  1   force =     0.00001050   -0.00011232   -0.00375536

     Total force =     0.042724     Total SCF correction =     0.002859

     BFGS Geometry Optimization

     number of scf cycles    =   1
     number of bfgs steps    =   0

     energy   new            =   -2103.8348977109 Ry

     new trust radius        =       0.0236154080 bohr
     new conv_thr            =       0.0000010000 Ry


ATOMIC_POSITIONS (crystal)
O0       0.000000000   0.000000000   0.378223387    0   0   1
O0       0.000000000   0.500000000   0.403225013    0   0   1
Ir1      0.250000000   0.500000000   0.453062779    0   0   1
Ir1      0.000000000   0.000000000   0.452778834    0   0   1
O0       0.250000000   0.810000000   0.452896936    0   0   1
O0       0.250000000   0.190000000   0.452549653    0   0   1
O0       0.000000000   0.500000000   0.499177766    0   0   1
O0       0.000000000   0.000000000   0.528365147    0   0   1
Ir1      0.250000000   0.000000000   0.575096162    0   0   1
Ir1      0.000000000   0.500000000   0.571863533    0   0   1
O0       0.250000000   0.690000000   0.574753126    0   0   1
O0       0.250000000   0.310000000   0.574782612    0   0   1
O0       0.000000000   0.000000000   0.619680351    0   0   1
O0       0.500000000   0.000000000   0.378128997    0   0   1
O0       0.500000000   0.500000000   0.402653862    0   0   1
Ir1      0.750000000   0.500000000   0.453069224    0   0   1
Ir1      0.500000000   0.000000000   0.452726121    0   0   1
O0       0.750000000   0.810000000   0.452908555    0   0   1
O0       0.750000000   0.190000000   0.452559697    0   0   1
O0       0.500000000   0.500000000   0.501222993    0   0   1
O0       0.500000000   0.000000000   0.528328216    0   0   1
Ir1      0.750000000   0.000000000   0.575098575    0   0   1
Ir1      0.500000000   0.500000000   0.578364313    0   0   1
O0       0.750000000   0.690000000   0.574743656    0   0   1
O0       0.750000000   0.310000000   0.574782712    0   0   1
O0       0.500000000   0.000000000   0.619559901    0   0   1
H2      -0.000079790   0.633125383   0.384186646
H2       0.499960503   0.635617047   0.384684689
H2       0.143663400   0.034009499   0.366550533
H2       0.643296263   0.035065023   0.366441226
O0       0.500010873   0.499500743   0.645594784


     Check: negative starting charge=   -3.336659
     NEW-OLD atomic charge density approx. for the potential

     Check: negative/imaginary core charge=   -0.000003    0.000000
     Check: negative starting charge=   -3.336928

     negative rho (up, down):  0.314E+01 0.000E+00
 Atomic wfc used for LDA+U Projector are NOT orthogonalized

     total cpu time spent up to now is     7783.7 secs

     per-process dynamical memory:   430.5 Mb

     Self-consistent Calculation

     iteration #  1     ecut=    40.00 Ry     beta=0.70
     Davidson diagonalization with overlap
     ethr =  1.00E-06,  avg # of iterations =  3.5
 --- enter write_ns ---
 LDA+U parameters:
U( 2)     =  6.00000000
alpha( 2) =  0.00000000
atom    3   Tr[ns(na)] =   8.21440
    eigenvalues: 
  0.604  0.632  0.913  0.973  0.985
    eigenvectors:
  0.001  0.184  0.003  0.001  0.812
  0.996  0.004  0.000  0.000  0.000
  0.000  0.000  0.986  0.012  0.003
  0.003  0.813  0.000  0.000  0.184
  0.000  0.000  0.011  0.987  0.001
    occupations:
  0.919 -0.003  0.003 -0.137 -0.001
 -0.003  0.604 -0.001 -0.000 -0.005
  0.003 -0.001  0.914 -0.003  0.006
 -0.137 -0.000 -0.003  0.697 -0.000
 -0.001 -0.005  0.006 -0.000  0.973
atom    4   Tr[ns(na)] =   8.20624
    eigenvalues: 
  0.620  0.670  0.888  0.939  0.986
    eigenvectors:
  0.000  0.988  0.000  0.000  0.011
  0.000  0.000  0.054  0.946  0.000
  0.000  0.000  0.946  0.054  0.000
  0.000  0.011  0.000  0.000  0.989
  1.000  0.000  0.000  0.000  0.000
    occupations:
  0.674 -0.003 -0.001  0.033  0.001
 -0.003  0.936  0.012  0.000 -0.001
 -0.001  0.012  0.891 -0.000  0.001
  0.033  0.000 -0.000  0.983  0.000
  0.001 -0.001  0.001  0.000  0.620
atom    9   Tr[ns(na)] =   8.19133
    eigenvalues: 
  0.654  0.667  0.877  0.913  0.985
    eigenvectors:
  0.000  0.140  0.000  0.000  0.860
  0.999  0.001  0.000  0.000  0.000
  0.000  0.000  0.964  0.036  0.000
  0.001  0.859  0.000  0.000  0.140
  0.000  0.000  0.036  0.963  0.000
    occupations:
  0.940  0.001 -0.000 -0.110 -0.000
  0.001  0.654  0.001  0.000 -0.000
 -0.000  0.001  0.878 -0.000 -0.007
 -0.110  0.000 -0.000  0.712  0.001
 -0.000 -0.000 -0.007  0.001  0.912
atom   10   Tr[ns(na)] =   8.14527
    eigenvalues: 
  0.570  0.608  0.951  0.958  0.985
    eigenvectors:
  0.991  0.000  0.000  0.000  0.009
  0.000  0.000  1.000  0.000  0.000
  0.000  0.000  0.000  1.000  0.000
  0.009  0.000  0.000  0.000  0.991
  0.000  1.000  0.000  0.000  0.000
    occupations:
  0.574  0.000  0.001  0.040 -0.000
  0.000  0.951 -0.000  0.000 -0.000
  0.001 -0.000  0.958  0.000  0.000
  0.040  0.000  0.000  0.981 -0.000
 -0.000 -0.000  0.000 -0.000  0.608
atom   16   Tr[ns(na)] =   8.21528
    eigenvalues: 
  0.604  0.632  0.913  0.973  0.985
    eigenvectors:
  0.001  0.184  0.003  0.001  0.812
  0.996  0.003  0.000  0.000  0.000
  0.000  0.000  0.988  0.008  0.003
  0.002  0.813  0.000  0.000  0.184
  0.000  0.000  0.008  0.990  0.001
    occupations:
  0.919  0.003  0.003 -0.137  0.001
  0.003  0.605  0.000  0.000 -0.005
  0.003  0.000  0.914 -0.003 -0.005
 -0.137  0.000 -0.003  0.697  0.000
  0.001 -0.005 -0.005  0.000  0.973
atom   17   Tr[ns(na)] =   8.20910
    eigenvalues: 
  0.620  0.671  0.894  0.934  0.986
    eigenvectors:
  0.000  0.989  0.000  0.000  0.011
  0.000  0.000  0.099  0.901  0.000
  0.000  0.000  0.901  0.099  0.000
  0.000  0.011  0.000  0.000  0.989
  0.999  0.000  0.000  0.000  0.000
    occupations:
  0.674 -0.003 -0.001  0.032  0.001
 -0.003  0.930  0.012  0.000 -0.002
 -0.001  0.012  0.898 -0.000  0.001
  0.032  0.000 -0.000  0.983  0.000
  0.001 -0.002  0.001  0.000  0.620
atom   22   Tr[ns(na)] =   8.19202
    eigenvalues: 
[...]
    12.1258  12.2682  12.3743  12.4430  12.6740  12.7094  12.8479  12.8822
    12.9380  12.9603  13.0353  13.0907  13.1807  13.1969  13.2718  13.3338
    13.4216  13.4795  13.5677  13.6683  13.6952  13.7244  13.7881  13.8623
    13.9419  14.1282  14.1468  14.1978  14.2387  14.3040  14.4790  14.5719
    14.5813  14.7176  14.7392  14.7848  14.8709  14.9699  15.1159  15.1710
    15.3329  15.3488  15.3716  15.5100  15.8197  15.9560  16.0266  16.0872
    16.1658  16.2124  16.2223  16.2298  16.3533  16.3872  16.4084  16.4327
    16.5265  16.5958  16.6587  16.6724  16.7173  16.7358  16.7436  16.7968
    16.8459  16.8790  16.9054  16.9092  17.1199  17.1825  17.2553  17.5302
    17.6114  17.6582  17.6929  17.7202  17.9024  17.9893  18.0803  18.1216
    18.1460  18.3266  18.3975  18.4392  18.4585  18.5235  18.5479  18.7300
    18.7469  18.8677  18.9037  18.9483  18.9895  19.0253  19.1184  19.1402
    19.1921  19.3163  19.3299  19.5133  19.5372  19.5688  19.6500  19.6712
    19.7366  19.8121  19.8362  20.0043  20.0078  20.0488  20.0933  20.1116
    20.2027  20.2242  20.2753  20.3146  20.3534  20.3648  20.4216  20.4641
    20.5087  20.6358  20.7093  20.7258  20.7616  20.7988  20.9771  21.0579
    21.0778  21.1126  21.1402  21.1569  21.2066  21.2409  21.2969  21.3472
    21.3753  21.3807  21.3937  21.4977  21.5067

          k =-0.5000 0.2476 0.0000 ( 31120 PWs)   bands (ev):

   -51.8565 -51.5600 -51.4356 -50.6145 -50.6135 -50.5690 -50.5540 -50.5113
   -50.5108 -50.5037 -50.4947 -50.4920 -50.4785 -50.3678 -50.3393 -50.2349
   -50.2320 -50.2131 -50.2101 -50.1391 -50.1380 -50.1167 -50.1062 -50.1030
   -21.4359 -21.3346 -21.2066 -21.1740 -21.0339 -21.0257 -20.7653 -20.7261
   -20.6684 -20.6624 -20.5078 -20.4601 -20.3905 -20.3876 -20.0311 -19.9989
   -19.3754 -19.2368 -19.1897 -10.2861 -10.2528 -10.1273 -10.1190  -9.8796
    -9.8344  -9.7146  -9.6831  -9.6019  -9.5709  -9.5043  -9.4844  -9.2702
    -9.1812  -8.9653  -8.8942  -8.5829  -8.4838  -8.1991  -8.0926  -7.9826
    -7.8962  -7.8180  -7.8070  -7.6476  -7.4546  -7.3502  -7.2536  -7.0681
    -7.0235  -6.9892  -6.9131  -6.7637  -6.7419  -6.5728  -6.4483  -6.3202
    -6.2744  -6.2503  -6.1755  -6.0519  -5.9160  -5.7821  -5.6654  -5.5478
    -5.3072  -5.2641  -5.1346  -4.9065  -4.7004  -4.6057  -4.2693  -4.0643
    -3.8555  -3.8341  -3.7548  -3.6525  -3.6018  -3.5176  -3.3596  -3.3496
    -3.2792  -3.2497  -3.1922  -3.0193  -2.9023  -2.7848  -2.6541  -2.4942
    -2.1818  -2.1607  -1.9937  -1.9439  -1.7557  -1.6778  -1.6052  -1.5434
    -1.5141  -1.4568  -1.1486  -1.0477  -0.0019   0.9448   1.3581   1.4611
     1.4627   1.6038   1.6255   1.9226   1.9795   2.2853   2.4331   2.6364
     2.6526   2.9811   3.2570   3.5927   4.3833   4.4083   5.0782   5.4962
     5.5039   5.7480   5.9048   6.0386   6.1437   6.2784   6.3020   6.3576
     6.7661   7.0633   7.1714   7.2845   7.3001   7.3778   7.4323   7.5905
     7.8131   7.9468   7.9965   8.0499   8.1174   8.3367   8.3588   8.4061
     8.5962   8.6427   8.7058   8.8251   8.9756   9.0469   9.1625   9.3809
     9.4101   9.4150   9.4494   9.4687   9.4708   9.5441   9.6302   9.6461
     9.6522   9.7081   9.7642   9.8718   9.9212  10.0079  10.0269  10.2052
    10.2718  10.4167  10.4957  10.5476  10.7658  10.8714  10.9203  10.9755
    11.0557  11.1073  11.3066  11.3557  11.4575  11.5021  11.5893  11.6602
    11.7444  11.7865  11.9433  12.0597  12.1233  12.1948  12.2892  12.3547
    12.4767  12.5059  12.5388  12.5667  12.6716  12.9208  13.0231  13.0655
    13.0934  13.1211  13.2534  13.3082  13.3609  13.4107  13.4848  13.5177
    13.5658  13.6036  13.6739  13.7984  13.8422  13.8582  13.9723  14.0661
    14.1408  14.1898  14.2726  14.3049  14.3693  14.3937  14.4552  14.4942
    14.5351  14.6437  14.6837  14.7561  14.8145  14.8673  14.9268  14.9828
    15.0219  15.0943  15.1758  15.2080  15.2806  15.3373  15.4414  15.5504
    15.6236  15.6365  15.8266  15.9439  16.0536  16.1097  16.2118  16.3254
    16.3396  16.3887  16.4182  16.4886  16.5850  16.6139  16.6793  16.7243
    16.7512  16.7965  16.8743  16.9836  17.0093  17.0737  17.1819  17.2656
    17.3460  17.4420  17.4615  17.5019  17.6587  17.7621  17.7816  17.8220
    17.9083  17.9325  18.0112  18.0451  18.1035  18.2367  18.3603  18.4398
    18.4828  18.4995  18.5616  18.6369  18.6466  18.7607  18.8039  18.8651
    18.9092  18.9763  19.0067  19.1229  19.1928  19.2812  19.3427  19.4440
    19.4683  19.5049  19.5611  19.6395  19.6904  19.7179  19.8087  19.8480
    19.9732  20.0538  20.0829  20.1434  20.2554  20.3192  20.3625  20.4442
    20.4948  20.5851  20.6246  20.7247  20.7623  20.8958  20.9484  21.0000
    21.0307  21.2407  21.2840  21.4065  21.4499  21.5209  21.5458  21.6793
    21.7225  21.7511  21.7758  21.9057  21.9142

          k =-0.5000-0.4953 0.0000 ( 31140 PWs)   bands (ev):

   -51.8567 -51.5598 -51.4349 -50.6150 -50.6135 -50.5689 -50.5539 -50.5108
   -50.5094 -50.5043 -50.4943 -50.4922 -50.4787 -50.3660 -50.3372 -50.2362
   -50.2334 -50.2124 -50.2095 -50.1392 -50.1381 -50.1164 -50.1063 -50.1031
   -21.4139 -21.3031 -20.9658 -20.9332 -20.9297 -20.9265 -20.8160 -20.7769
   -20.7318 -20.7023 -20.6192 -20.6137 -20.5912 -20.5782 -20.0320 -19.9995
   -19.3708 -19.2364 -19.1927 -10.2155 -10.0999  -9.9021  -9.8352  -9.7100
    -9.6879  -9.6731  -9.6048  -9.3998  -9.2812  -9.2392  -9.0043  -8.9729
    -8.9279  -8.9093  -8.8241  -8.8225  -8.6938  -8.6526  -8.6419  -8.2971
    -8.2345  -8.0172  -7.7886  -7.6558  -7.6383  -7.3719  -7.3571  -7.2020
    -7.0630  -6.9608  -6.8975  -6.8263  -6.7778  -6.7322  -6.7175  -6.6555
    -6.6148  -6.4972  -6.4359  -6.0261  -5.9659  -5.7333  -5.6245  -5.3837
    -5.3403  -5.2816  -5.1409  -4.8108  -4.6461  -4.4921  -4.1319  -3.9590
    -3.8741  -3.6915  -3.6488  -3.6039  -3.5502  -3.4491  -3.4165  -3.3760
    -3.2032  -3.1434  -3.1168  -2.9798  -2.8731  -2.7773  -2.6454  -2.5410
    -2.1008  -2.0226  -1.9917  -1.8831  -1.8324  -1.6255  -1.5839  -1.4999
    -1.4003  -1.3257  -1.3189  -1.2419   0.0784   0.5011   1.0800   1.0934
     1.1457   1.5423   1.6670   2.0188   2.0258   2.6239   2.6705   2.7206
     2.9772   3.2814   3.2973   3.3489   4.8198   4.8620   5.2462   5.3673
     5.3746   6.1728   6.1735   6.2869   6.2889   6.3723   6.4154   6.5377
     6.6430   6.8096   6.8209   6.9027   6.9689   7.0182   7.0903   7.1130
     7.5048   7.6291   7.7245   7.8019   7.8440   7.9501   8.0398   8.1820
     8.3369   8.4926   8.8157   8.8960   8.9995   9.0085   9.2228   9.2696
     9.3141   9.3593   9.4113   9.4160   9.4485   9.4615   9.4684   9.4696
     9.6431   9.6454  10.0829  10.1082  10.1196  10.1434  10.2109  10.2532
    10.3092  10.4952  10.5586  10.7169  10.9061  10.9442  10.9925  11.0263
    11.3827  11.4176  11.7435  11.7900  11.9296  11.9417  12.1306  12.2061
    12.2996  12.3259  12.5175  12.5434  12.6658  12.7129  12.8695  12.9053
    12.9564  12.9782  13.0685  13.1376  13.1554  13.2528  13.3917  13.4049
    13.4243  13.4508  13.5400  13.5509  13.6108  13.6382  13.6768  13.6919
    13.7796  13.7886  13.8602  13.8813  13.8908  13.9167  13.9438  13.9717
    14.0475  14.0943  14.1477  14.1562  14.1932  14.2109  14.3484  14.3803
    14.3977  14.4739  14.5017  14.5755  14.5862  14.6264  14.6923  14.7196
    14.8610  15.0182  15.0827  15.1319  15.2251  15.2471  15.2806  15.3136
    15.3217  15.3629  15.3915  15.3959  15.4297  15.5330  15.6187  15.7042
    15.7825  15.8383  15.8775  15.8962  16.0130  16.0379  16.0565  16.2181
    16.3470  16.3832  16.4969  16.5324  16.7363  16.7934  16.9045  16.9238
    16.9377  16.9622  17.0455  17.0858  17.1530  17.2166  17.2221  17.3700
    17.6134  17.7599  17.7922  17.9005  18.0956  18.1060  18.1799  18.1993
    18.2267  18.3843  18.4031  18.4620  18.6302  18.6762  18.7602  18.9160
    18.9497  19.1046  19.1937  19.3005  19.3637  19.4466  19.4919  19.5069
    19.6066  19.7041  19.7432  20.0470  20.0628  20.1045  20.1457  20.2182
    20.3097  20.3268  20.5073  20.6156  20.6296  20.6627  20.6726  20.7723
    20.8008  20.8810  20.9742  21.0973  21.1057  21.1526  21.1578  21.2621
    21.3159  21.3302  21.3631  21.3778  21.4151  21.4494  21.5047  21.5479
    21.5602  21.5769  21.5935  21.6152  21.6616

          k =-0.2500 0.2476 0.0000 ( 31099 PWs)   bands (ev):

   -51.8561 -51.5581 -51.4354 -50.6160 -50.6111 -50.5952 -50.5319 -50.5230
   -50.5079 -50.5048 -50.4992 -50.4782 -50.4534 -50.3677 -50.3379 -50.2440
   -50.2347 -50.2306 -50.1731 -50.1439 -50.1327 -50.1165 -50.1099 -50.0989
   -21.6604 -21.4974 -21.3494 -21.2650 -21.0309 -20.9106 -20.9049 -20.6978
   -20.6357 -20.6224 -20.4994 -20.4021 -20.2692 -20.1791 -20.1089 -19.9201
   -19.3655 -19.1907 -19.0461 -11.0021 -10.8333 -10.5186 -10.4169 -10.1747
   -10.0724  -9.9202  -9.9101  -9.5916  -9.3463  -9.2324  -9.1481  -9.1019
    -8.8715  -8.7766  -8.6377  -8.4690  -8.4518  -8.2535  -8.0917  -7.8446
    -7.7834  -7.6905  -7.6038  -7.5332  -7.4531  -7.2858  -7.1459  -7.0866
    -6.9736  -6.8087  -6.7223  -6.6294  -6.5341  -6.4647  -6.4330  -6.3256
    -6.2347  -6.0709  -5.9813  -5.8683  -5.7560  -5.5914  -5.3744  -5.2732
    -5.1890  -4.9917  -4.9061  -4.7437  -4.7043  -4.5605  -4.3820  -4.2725
    -4.0972  -4.0087  -3.9419  -3.8896  -3.7145  -3.6629  -3.6101  -3.4830
    -3.3862  -3.3491  -3.2859  -3.2616  -3.1312  -3.0210  -2.9363  -2.8557
    -2.7056  -2.2839  -2.1676  -2.0069  -1.9028  -1.6773  -1.4743  -1.3498
    -1.3045  -1.1235  -1.0357  -0.7941  -0.1208   0.4878   0.8272   1.1896
     1.4406   1.6250   1.9416   2.1694   2.4250   2.5894   2.6388   2.8173
     2.9444   3.1500   3.1928   3.6062   3.7361   4.5746   4.8239   5.3025
     5.4264   5.5294   5.5730   6.1816   6.4382   6.5250   6.6588   6.7559
     6.8334   6.9384   7.1450   7.2895   7.3570   7.4132   7.5659   7.8195
     7.9129   8.0072   8.0770   8.1559   8.3139   8.3371   8.4347   8.4883
     8.5479   8.7868   8.8518   8.9290   9.0278   9.1004   9.1965   9.3316
     9.4087   9.4151   9.4451   9.4615   9.4693   9.4718   9.5449   9.6332
     9.6432   9.6455   9.7109   9.7828   9.9027   9.9891  10.0406  10.1650
    10.2378  10.3434  10.4084  10.4533  10.5046  10.5360  10.6777  10.8413
    10.9006  11.0434  11.0657  11.1232  11.1646  11.3231  11.4408  11.5522
    11.6135  11.6734  11.7794  11.8006  11.8483  12.0351  12.1506  12.2007
    12.2556  12.3127  12.4008  12.4993  12.6151  12.6421  12.7010  12.7250
    12.8178  12.8821  12.9460  13.0072  13.0930  13.1374  13.1922  13.2564
    13.3348  13.4299  13.4873  13.6057  13.6954  13.8669  13.9099  13.9298
    14.0399  14.0881  14.1948  14.2728  14.3169  14.4294  14.4532  14.5943
    14.7071  14.7940  14.8440  14.9475  15.0815  15.1582  15.2300  15.3666
    15.4042  15.4954  15.5689  15.6006  15.6732  15.7713  15.7935  15.8732
    15.9461  16.0067  16.0452  16.1213  16.1823  16.2233  16.3351  16.3646
    16.4081  16.4293  16.5075  16.5605  16.6296  16.7117  16.7432  16.7862
    16.8225  16.9729  17.1558  17.1796  17.2276  17.3236  17.3496  17.4591
    17.4998  17.5427  17.5734  17.6717  17.7439  17.7707  17.8599  17.9237
    17.9675  18.0014  18.0348  18.1789  18.2187  18.2637  18.3514  18.4953
    18.5627  18.6041  18.6410  18.7146  18.8002  18.8900  18.9752  19.0139
    19.0658  19.1323  19.1788  19.2707  19.2848  19.3483  19.3993  19.5744
    19.6193  19.6612  19.6901  19.7802  19.8894  19.9611  20.0221  20.0697
    20.2079  20.2735  20.3531  20.4078  20.4848  20.5566  20.6216  20.7000
    20.7427  20.7928  20.8657  20.8884  20.9156  20.9762  21.0730  21.1793
    21.2782  21.3207  21.3645  21.4143  21.4754  21.5296  21.5661  21.6773
    21.7656  21.8282  21.8615  21.8894  21.9304

     the Fermi energy is    -1.4955 ev

!    total energy              =   -2103.83674563 Ry
     Harris-Foulkes estimate   =   -2103.83674564 Ry
     estimated scf accuracy    <          6.4E-09 Ry

     The total energy is the sum of the following terms:

     one-electron contribution =  -22751.14412662 Ry
     hartree contribution      =   11418.73781624 Ry
     xc contribution           =    -576.39471911 Ry
     ewald contribution        =    9802.75649326 Ry
     Hubbard energy            =       2.20791949 Ry
     smearing contrib. (-TS)   =      -0.00012890 Ry

     convergence has been achieved in  14 iterations

     Forces acting on atoms (Ry/au):


     negative rho (up, down):  0.314E+01 0.000E+00
     atom    1 type  1   force =    -0.00714322   -0.01233823   -0.00000366
     atom    2 type  1   force =    -0.00002987    0.00195423   -0.00002503
     atom    3 type  2   force =     0.03275093    0.00835094    0.00034784
     atom    4 type  2   force =     0.00918635    0.00804483   -0.00005943
     atom    5 type  1   force =    -0.00442224   -0.01433121   -0.00019781
     atom    6 type  1   force =     0.00787831    0.01203483   -0.00003516
     atom    7 type  1   force =    -0.00039722   -0.00238761   -0.00083701
     atom    8 type  1   force =    -0.00349308   -0.00073651   -0.00004803
     atom    9 type  2   force =     0.00637525    0.00061310    0.00007507
     atom   10 type  2   force =    -0.00000471   -0.00089917   -0.00073402
     atom   11 type  1   force =     0.01195933    0.00898732   -0.00001686
     atom   12 type  1   force =     0.01130761   -0.00958866   -0.00005292
     atom   13 type  1   force =    -0.00085628   -0.00003803    0.00005979
     atom   14 type  1   force =    -0.00787480   -0.01307991   -0.00023000
     atom   15 type  1   force =     0.00007687    0.00236243   -0.00043786
     atom   16 type  2   force =    -0.03273281    0.00693901    0.00034934
     atom   17 type  2   force =     0.00916170    0.00826587   -0.00007351
     atom   18 type  1   force =    -0.00589480   -0.01353272   -0.00017997
     atom   19 type  1   force =     0.00548422    0.01288835   -0.00005886
     atom   20 type  1   force =    -0.00022954   -0.00536024    0.00079333
     atom   21 type  1   force =    -0.00326759   -0.00049254   -0.00022454
     atom   22 type  2   force =    -0.00395374    0.00053163    0.00007586
     atom   23 type  2   force =    -0.00006606    0.00048534    0.00044137
     atom   24 type  1   force =    -0.01187865    0.00902571   -0.00002286
     atom   25 type  1   force =    -0.01115717   -0.00955419   -0.00005090
     atom   26 type  1   force =    -0.00075015   -0.00012636   -0.00005221
     atom   27 type  3   force =     0.00000305    0.00043896    0.00050725
     atom   28 type  3   force =     0.00002247    0.00080974    0.00048875
     atom   29 type  3   force =    -0.00002412    0.00016241    0.00012823
     atom   30 type  3   force =    -0.00002296    0.00062115    0.00013201
     atom   31 type  1   force =    -0.00000709   -0.00005046   -0.00005819

     Total force =     0.002124     Total SCF correction =     0.000378
     SCF correction compared to forces is large: reduce conv_thr to get better values

     bfgs converged in   9 scf cycles and   8 bfgs steps
     (criteria: energy < 0.10E-03, force < 0.10E-02)

     End of BFGS Geometry Optimization

     Final energy   =   -2103.8367456342 Ry
Begin final coordinates

ATOMIC_POSITIONS (crystal)
O0       0.000000000   0.000000000   0.378463554    0   0   1
O0       0.000000000   0.500000000   0.403788723    0   0   1
Ir1      0.250000000   0.500000000   0.453530704    0   0   1
Ir1      0.000000000   0.000000000   0.452881071    0   0   1
O0       0.250000000   0.810000000   0.453157040    0   0   1
O0       0.250000000   0.190000000   0.452666089    0   0   1
O0       0.000000000   0.500000000   0.499543970    0   0   1
O0       0.000000000   0.000000000   0.528049190    0   0   1
Ir1      0.250000000   0.000000000   0.574683112    0   0   1
Ir1      0.000000000   0.500000000   0.572142897    0   0   1
O0       0.250000000   0.690000000   0.574253631    0   0   1
O0       0.250000000   0.310000000   0.574271697    0   0   1
O0       0.000000000   0.000000000   0.619085973    0   0   1
O0       0.500000000   0.000000000   0.378373438    0   0   1
O0       0.500000000   0.500000000   0.403236819    0   0   1
Ir1      0.750000000   0.500000000   0.453536118    0   0   1
Ir1      0.500000000   0.000000000   0.452870489    0   0   1
O0       0.750000000   0.810000000   0.453177355    0   0   1
O0       0.750000000   0.190000000   0.452670319    0   0   1
O0       0.500000000   0.500000000   0.501622832    0   0   1
O0       0.500000000   0.000000000   0.528104293    0   0   1
Ir1      0.750000000   0.000000000   0.574688590    0   0   1
Ir1      0.500000000   0.500000000   0.577665542    0   0   1
O0       0.750000000   0.690000000   0.574253007    0   0   1
O0       0.750000000   0.310000000   0.574275734    0   0   1
O0       0.500000000   0.000000000   0.619135148    0   0   1
H2      -0.000203714   0.632673180   0.384650850
H2       0.499851372   0.635385088   0.385261756
H2       0.143363926   0.034403196   0.366787681
H2       0.642733887   0.036285520   0.366653764
O0       0.500007230   0.499350312   0.644578617
End final coordinates



     init_run     :    112.56s CPU    114.50s WALL (       1 calls)
     electrons    :  31933.04s CPU  32891.79s WALL (       9 calls)
     update_pot   :    163.87s CPU    167.50s WALL (       8 calls)
     forces       :   1252.85s CPU   1282.57s WALL (       9 calls)

     Called by init_run:
     wfcinit      :     38.78s CPU     39.86s WALL (       1 calls)
     potinit      :      7.63s CPU      7.88s WALL (       1 calls)

     Called by electrons:
     c_bands      :  16423.01s CPU  16986.09s WALL (     169 calls)
     sum_band     :   6492.25s CPU   6665.06s WALL (     169 calls)
     v_of_rho     :    183.74s CPU    193.11s WALL (     173 calls)
     newd         :   9140.71s CPU   9178.47s WALL (     173 calls)
     mix_rho      :     34.98s CPU     36.15s WALL (     169 calls)

     Called by c_bands:
     init_us_2    :     38.87s CPU     39.12s WALL (    1098 calls)
     cegterg      :  16187.84s CPU  16692.52s WALL (     507 calls)

     Called by *egterg:
     h_psi        :   9543.97s CPU   9887.83s WALL (    1345 calls)
     s_psi        :    984.60s CPU    996.74s WALL (    1399 calls)
     g_psi        :     20.23s CPU     20.24s WALL (     835 calls)
     cdiaghg      :   1323.40s CPU   1327.64s WALL (    1303 calls)

     Called by h_psi:
     add_vuspsi   :    953.50s CPU    965.81s WALL (    1345 calls)
     vhpsi        :    959.54s CPU    975.68s WALL (    1345 calls)

     General routines
     calbec       :   2316.31s CPU   2347.33s WALL (   11345 calls)
     fft          :    233.71s CPU    278.25s WALL (    2859 calls)
     ffts         :      3.00s CPU      3.09s WALL (     342 calls)
     fftw         :   5567.87s CPU   5939.01s WALL (  942935 calls)
     interpolate  :     28.76s CPU     29.09s WALL (     342 calls)
     davcio       :      0.07s CPU     18.99s WALL (    1125 calls)

     Parallel routines
     fft_scatter  :   2169.29s CPU   2574.66s WALL (  946136 calls)
     Hubbard U routines
     new_ns       :    208.52s CPU    219.97s WALL (     169 calls)
     vhpsi        :    959.54s CPU    975.68s WALL (    1345 calls)
     force_hub    :    329.81s CPU    336.71s WALL (       9 calls)

     PWSCF        :     9h25m CPU        9h42m WALL


   This run was terminated on:  14:14:46  29Apr2014            

=------------------------------------------------------------------------------=
   JOB DONE.
=------------------------------------------------------------------------------=
---------------------------------------
Running PBS batch system epilogue script
Job id: 340411.audhumbla.fysik.dtu.dk
Username: zhonxu
Groupname: campgst
Jobname: IrO2/Eads-2-layers/O-U-6.0
Sessionid: 21788
Resources limits: neednodes=2:ppn=8:xeon8,nodes=2:ppn=8:xeon8,walltime=48:00:00
Resources used: cput=155:07:22,mem=18189964kb,vmem=21983548kb,walltime=09:42:15
Queuename: verylong
Accounting:
This job has allocated the following 16 nodes:
b012 b012 b012 b012 b012 b012 b012 b012 b006 b006 b006 b006 b006 b006 b006 b006
Finished epilogue job 340411.audhumbla.fysik.dtu.dk for zhonxu
