
     Program PWSCF v.5.0.2 (svn rev. 9656) starts on 11Aug2014 at  8:48:58 

     This program is part of the open-source Quantum ESPRESSO suite
     for quantum simulation of materials; please cite
         "P. Giannozzi et al., J. Phys.:Condens. Matter 21 395502 (2009);
          URL http://www.quantum-espresso.org", 
     in publications or presentations arising from this work. More details at
     http://www.quantum-espresso.org/quote.php

     Parallel version (MPI), running on    16 processors
     K-points division:     npool     =       4
     R & G space division:  proc/nbgrp/npool/nimage =       4

     Current dimensions of program PWSCF are:
     Max number of different atomic species (ntypx) = 10
     Max number of k-points (npk) =  40000
     Max angular momentum in pseudopotentials (lmaxx) =  3
     Reading input from pwscf.in
Warning: card &CELL ignored
Warning: card / ignored

     Subspace diagonalization in iterative solution of the eigenvalue problem:
     a serial algorithm will be used

 
     Parallelization info
     --------------------
     sticks:   dense  smooth     PW     G-vecs:    dense   smooth      PW
     Min        1419     456    126               336167    60843    9016
     Max        1420     457    127               336172    60875    9024
     Sum        5677    1827    505              1344679   243423   36075
 


     bravais-lattice index     =            0
     lattice parameter (alat)  =      11.7919  a.u.
     unit-cell volume          =    7123.6633 (a.u.)^3
     number of atoms/cell      =           33
     number of atomic types    =            3
     number of electrons       =       253.00
     number of Kohn-Sham states=          379
     kinetic-energy cutoff     =      40.0000  Ry
     charge density cutoff     =     500.0000  Ry
     convergence threshold     =      1.0E-06
     mixing beta               =       0.7000
     number of iterations used =            8  plain     mixing
     Exchange-correlation      = SLA  PW   PBE  PBE ( 1 4 3 4 0)
     EXX-fraction              =        0.00
     nstep                     =           50


     celldm(1)=  11.791891  celldm(2)=   0.000000  celldm(3)=   0.000000
     celldm(4)=   0.000000  celldm(5)=   0.000000  celldm(6)=   0.000000

     crystal axes: (cart. coord. in units of alat)
               a(1) = (   1.000000   0.000000   0.000000 )  
               a(2) = (   0.000000   1.026665   0.000000 )  
               a(3) = (   0.000000   0.000000   4.231793 )  

     reciprocal axes: (cart. coord. in units 2 pi/alat)
               b(1) = (  1.000000  0.000000  0.000000 )  
               b(2) = (  0.000000  0.974028  0.000000 )  
               b(3) = (  0.000000  0.000000  0.236306 )  


     PseudoPot. # 1 for O  read from file:
     /home-research/zhongnanxu/gbrv_espresso_pseudo_v1.01/o_pbe_v1.01.uspp.F.UPF
     MD5 check sum: 2bcb18d16ea4b960afae9ec6d52f22d2
     Pseudo is Ultrasoft + core correction, Zval =  6.0
     Generated by new atomic code, or converted to UPF format
     Using radial grid of  737 points,  5 beta functions with: 
                l(1) =   0
                l(2) =   0
                l(3) =   1
                l(4) =   1
                l(5) =   2
     Q(r) pseudized with  8 coefficients,  rinner =    0.900   0.900   0.900
                                                       0.900   0.900

     PseudoPot. # 2 for Ru read from file:
     /home-research/zhongnanxu/gbrv_espresso_pseudo_v1.01/ru_pbe_v1.uspp.F.UPF
     MD5 check sum: df00be1c11b23341d9806d8f1dfa10cf
     Pseudo is Ultrasoft + core correction, Zval = 16.0
     Generated by new atomic code, or converted to UPF format
     Using radial grid of  967 points,  6 beta functions with: 
                l(1) =   0
                l(2) =   0
                l(3) =   1
                l(4) =   1
                l(5) =   2
                l(6) =   2
     Q(r) pseudized with  8 coefficients,  rinner =    1.300   1.300   1.300
                                                       1.300   1.300

     PseudoPot. # 3 for H  read from file:
     /home-research/zhongnanxu/gbrv_espresso_pseudo_v1.01/h_pbe_v1.uspp.F.UPF
     MD5 check sum: 3408e3ff4ec8b0a4e358431e7e038a48
     Pseudo is Ultrasoft, Zval =  1.0
     Generated by new atomic code, or converted to UPF format
     Using radial grid of  615 points,  2 beta functions with: 
                l(1) =   0
                l(2) =   0
     Q(r) pseudized with  8 coefficients,  rinner =    0.700

     atomic species   valence    mass     pseudopotential
        O0             6.00    15.99940     O ( 1.00)
        Ru1           16.00   101.07000     Ru( 1.00)
        H2             1.00     1.00794     H ( 1.00)


     Simplified LDA+U calculation (l_max = 2) with parameters (eV):
     atomic species    L          U    alpha       J0     beta
        Ru1            2     5.0000   0.0000   0.0000   0.0000



     No symmetry found



   Cartesian axes

     site n.     atom                  positions (alat units)
         1           O0  tau(   1) = (   0.0000000   0.0000000   1.6084198  )
         2           O0  tau(   2) = (   0.0000000   0.5133323   1.7126066  )
         3           Ru1 tau(   3) = (   0.2500000   0.5133323   1.9197528  )
         4           Ru1 tau(   4) = (   0.0000000   0.0000000   1.9192027  )
         5           O0  tau(   5) = (   0.2500000   0.8315984   1.9176369  )
         6           O0  tau(   6) = (   0.2500000   0.1950663   1.9169598  )
         7           O0  tau(   7) = (   0.0000000   0.5133323   2.1164466  )
         8           O0  tau(   8) = (   0.0000000   0.0000000   2.2268540  )
         9           Ru1 tau(   9) = (   0.2500000   0.0000000   2.4343812  )
        10           Ru1 tau(  10) = (   0.0000000   0.5133323   2.4092866  )
        11           O0  tau(  11) = (   0.2500000   0.7083986   2.4290914  )
        12           O0  tau(  12) = (   0.2500000   0.3182660   2.4391208  )
        13           O0  tau(  13) = (   0.0000000   0.0000000   2.6174062  )
        14           O0  tau(  14) = (   0.5000000   0.0000000   1.6069810  )
        15           O0  tau(  15) = (   0.5000000   0.5133323   1.7034236  )
        16           Ru1 tau(  16) = (   0.7500000   0.5133323   1.9199221  )
        17           Ru1 tau(  17) = (   0.5000000   0.0000000   1.9181871  )
        18           O0  tau(  18) = (   0.7500000   0.8315984   1.9171291  )
        19           O0  tau(  19) = (   0.7500000   0.1950663   1.9171714  )
        20           O0  tau(  20) = (   0.5000000   0.5133323   2.1186471  )
        21           O0  tau(  21) = (   0.5000000   0.0000000   2.2263462  )
        22           Ru1 tau(  22) = (   0.7500000   0.0000000   2.4483884  )
        23           Ru1 tau(  23) = (   0.5000000   0.5133323   2.4434372  )
        24           O0  tau(  24) = (   0.7500000   0.7083986   2.4339580  )
        25           O0  tau(  25) = (   0.7500000   0.3182660   2.4436911  )
        26           O0  tau(  26) = (   0.5000000   0.0000000   2.6073769  )
        27           H2  tau(  27) = (  -0.0008300   0.6193560   1.5959784  )
        28           H2  tau(  28) = (   0.4994700   0.6453922   1.6164179  )
        29           H2  tau(  29) = (   0.1467500   0.0247221   1.5541682  )
        30           H2  tau(  30) = (   0.6466300   0.0271142   1.5537027  )
        31           O0  tau(  31) = (   0.5000700   0.5441220   2.7471530  )
        32           O0  tau(  32) = (   0.4999900   0.3483987   2.8708906  )
        33           H2  tau(  33) = (   0.4999600   0.4102757   3.0165066  )

     number of k points=    10  Methfessel-Paxton smearing, width (Ry)=  0.0100
                       cart. coord. in units 2pi/alat
        k(    1) = (   0.0000000   0.0000000   0.0000000), wk =   0.1250000
        k(    2) = (   0.0000000   0.2435070   0.0000000), wk =   0.2500000
        k(    3) = (   0.0000000  -0.4870139   0.0000000), wk =   0.1250000
        k(    4) = (   0.2500000   0.0000000   0.0000000), wk =   0.2500000
        k(    5) = (   0.2500000   0.2435070   0.0000000), wk =   0.2500000
        k(    6) = (   0.2500000  -0.4870139   0.0000000), wk =   0.2500000
        k(    7) = (  -0.5000000   0.0000000   0.0000000), wk =   0.1250000
        k(    8) = (  -0.5000000   0.2435070   0.0000000), wk =   0.2500000
        k(    9) = (  -0.5000000  -0.4870139   0.0000000), wk =   0.1250000
        k(   10) = (  -0.2500000   0.2435070   0.0000000), wk =   0.2500000

     Dense  grid:  1344679 G-vectors     FFT dimensions: (  90,  90, 360)

     Smooth grid:   243423 G-vectors     FFT dimensions: (  48,  50, 216)

     Largest allocated arrays     est. size (Mb)     dimensions
        Kohn-Sham Wavefunctions        44.14 Mb     (   7632,  379)
        Atomic wavefunctions           22.01 Mb     (   7632,  189)
        NL pseudopotentials            48.21 Mb     (   7632,  414)
        Each V/rho on FFT grid         11.12 Mb     ( 729000)
        Each G-vector array             2.56 Mb     ( 336169)
        G-vector shells                 1.12 Mb     ( 146910)
     Largest temporary arrays     est. size (Mb)     dimensions
        Auxiliary wavefunctions       176.55 Mb     (   7632, 1516)
        Each subspace H/S matrix       35.07 Mb     (1516,1516)
        Each <psi_i|beta_j> matrix      2.39 Mb     (    414,  379)
        Arrays for rho mixing          88.99 Mb     ( 729000,   8)

     Check: negative/imaginary core charge=   -0.000003    0.000000

     Initial potential from superposition of free atoms
     Check: negative starting charge=   -0.520481

     starting charge  244.99980, renormalised to  253.00000

     negative rho (up, down):  0.537E+00 0.000E+00
     Number of +U iterations with fixed ns =  0
     Starting occupations:
 --- enter write_ns ---
 LDA+U parameters:
U( 2)     =  5.00000000
alpha( 2) =  0.00000000
atom    3   Tr[ns(na)] =   6.00000
    eigenvalues: 
  0.600  0.600  0.600  0.600  0.600
    eigenvectors:
  1.000  0.000  0.000  0.000  0.000
  0.000  1.000  0.000  0.000  0.000
  0.000  0.000  1.000  0.000  0.000
  0.000  0.000  0.000  1.000  0.000
  0.000  0.000  0.000  0.000  1.000
    occupations:
  0.600  0.000  0.000  0.000  0.000
  0.000  0.600  0.000  0.000  0.000
  0.000  0.000  0.600  0.000  0.000
  0.000  0.000  0.000  0.600  0.000
  0.000  0.000  0.000  0.000  0.600
atom    4   Tr[ns(na)] =   6.00000
    eigenvalues: 
  0.600  0.600  0.600  0.600  0.600
    eigenvectors:
  1.000  0.000  0.000  0.000  0.000
  0.000  1.000  0.000  0.000  0.000
  0.000  0.000  1.000  0.000  0.000
  0.000  0.000  0.000  1.000  0.000
  0.000  0.000  0.000  0.000  1.000
    occupations:
  0.600  0.000  0.000  0.000  0.000
  0.000  0.600  0.000  0.000  0.000
  0.000  0.000  0.600  0.000  0.000
  0.000  0.000  0.000  0.600  0.000
  0.000  0.000  0.000  0.000  0.600
atom    9   Tr[ns(na)] =   6.00000
    eigenvalues: 
  0.600  0.600  0.600  0.600  0.600
    eigenvectors:
  1.000  0.000  0.000  0.000  0.000
  0.000  1.000  0.000  0.000  0.000
  0.000  0.000  1.000  0.000  0.000
  0.000  0.000  0.000  1.000  0.000
  0.000  0.000  0.000  0.000  1.000
    occupations:
  0.600  0.000  0.000  0.000  0.000
  0.000  0.600  0.000  0.000  0.000
  0.000  0.000  0.600  0.000  0.000
  0.000  0.000  0.000  0.600  0.000
  0.000  0.000  0.000  0.000  0.600
atom   10   Tr[ns(na)] =   6.00000
    eigenvalues: 
  0.600  0.600  0.600  0.600  0.600
    eigenvectors:
  1.000  0.000  0.000  0.000  0.000
  0.000  1.000  0.000  0.000  0.000
  0.000  0.000  1.000  0.000  0.000
  0.000  0.000  0.000  1.000  0.000
  0.000  0.000  0.000  0.000  1.000
    occupations:
  0.600  0.000  0.000  0.000  0.000
  0.000  0.600  0.000  0.000  0.000
  0.000  0.000  0.600  0.000  0.000
  0.000  0.000  0.000  0.600  0.000
  0.000  0.000  0.000  0.000  0.600
atom   16   Tr[ns(na)] =   6.00000
    eigenvalues: 
  0.600  0.600  0.600  0.600  0.600
    eigenvectors:
  1.000  0.000  0.000  0.000  0.000
  0.000  1.000  0.000  0.000  0.000
  0.000  0.000  1.000  0.000  0.000
  0.000  0.000  0.000  1.000  0.000
  0.000  0.000  0.000  0.000  1.000
    occupations:
  0.600  0.000  0.000  0.000  0.000
  0.000  0.600  0.000  0.000  0.000
  0.000  0.000  0.600  0.000  0.000
  0.000  0.000  0.000  0.600  0.000
  0.000  0.000  0.000  0.000  0.600
atom   17   Tr[ns(na)] =   6.00000
    eigenvalues: 
  0.600  0.600  0.600  0.600  0.600
    eigenvectors:
  1.000  0.000  0.000  0.000  0.000
  0.000  1.000  0.000  0.000  0.000
  0.000  0.000  1.000  0.000  0.000
  0.000  0.000  0.000  1.000  0.000
  0.000  0.000  0.000  0.000  1.000
    occupations:
  0.600  0.000  0.000  0.000  0.000
  0.000  0.600  0.000  0.000  0.000
  0.000  0.000  0.600  0.000  0.000
  0.000  0.000  0.000  0.600  0.000
  0.000  0.000  0.000  0.000  0.600
atom   22   Tr[ns(na)] =   6.00000
    eigenvalues: 
  0.600  0.600  0.600  0.600  0.600
    eigenvectors:
  1.000  0.000  0.000  0.000  0.000
  0.000  1.000  0.000  0.000  0.000
  0.000  0.000  1.000  0.000  0.000
  0.000  0.000  0.000  1.000  0.000
  0.000  0.000  0.000  0.000  1.000
    occupations:
  0.600  0.000  0.000  0.000  0.000
  0.000  0.600  0.000  0.000  0.000
  0.000  0.000  0.600  0.000  0.000
  0.000  0.000  0.000  0.600  0.000
  0.000  0.000  0.000  0.000  0.600
atom   23   Tr[ns(na)] =   6.00000
    eigenvalues: 
  0.600  0.600  0.600  0.600  0.600
    eigenvectors:
  1.000  0.000  0.000  0.000  0.000
  0.000  1.000  0.000  0.000  0.000
  0.000  0.000  1.000  0.000  0.000
  0.000  0.000  0.000  1.000  0.000
  0.000  0.000  0.000  0.000  1.000
    occupations:
  0.600  0.000  0.000  0.000  0.000
  0.000  0.600  0.000  0.000  0.000
  0.000  0.000  0.600  0.000  0.000
  0.000  0.000  0.000  0.600  0.000
  0.000  0.000  0.000  0.000  0.600
N of occupied +U levels =  48.0000000
 --- exit write_ns ---
 Atomic wfc used for LDA+U Projector are NOT orthogonalized
     Starting wfc are  189 randomized atomic wfcs

     total cpu time spent up to now is      913.7 secs

     per-process dynamical memory:   452.7 Mb

     Self-consistent Calculation

     iteration #  1     ecut=    40.00 Ry     beta=0.70
     Davidson diagonalization with overlap
     ethr =  1.00E-02,  avg # of iterations =  5.9
 --- enter write_ns ---
 LDA+U parameters:
U( 2)     =  5.00000000
alpha( 2) =  0.00000000
atom    3   Tr[ns(na)] =   6.05770
    eigenvalues: 
  0.408  0.440  0.640  0.754  0.788
    eigenvectors:
  0.000  0.180  0.020  0.018  0.782
  0.999  0.000  0.000  0.000  0.001
  0.000  0.000  0.965  0.015  0.020
  0.000  0.820  0.005  0.003  0.171
  0.000  0.000  0.009  0.964  0.026
    occupations:
  0.722 -0.009  0.021 -0.132 -0.006
 -0.009  0.408 -0.001  0.005 -0.002
  0.021 -0.001  0.644 -0.008  0.010
 -0.132  0.005 -0.008  0.502  0.004
 -0.006 -0.002  0.010  0.004  0.753
atom    4   Tr[ns(na)] =   5.00370
    eigenvalues: 
  0.407  0.425  0.433  0.476  0.760
    eigenvectors:
  0.015  0.000  0.005  0.966  0.014
  0.918  0.001  0.061  0.020  0.001
  0.065  0.003  0.930  0.002  0.000
  0.002  0.000  0.000  0.013  0.985
  0.000  0.996  0.003  0.000  0.000
    occupations:
  0.479  0.008  0.001  0.034  0.000
  0.008  0.411  0.006 -0.013  0.000
  0.001  0.006  0.432  0.002  0.001
  0.034 -0.013  0.002  0.756  0.000
  0.000  0.000  0.001  0.000  0.425
atom    9   Tr[ns(na)] =   6.83981
    eigenvalues: 
  0.443  0.462  0.743  0.832  0.940
    eigenvectors:
  0.009  0.126  0.001  0.000  0.865
  0.957  0.042  0.000  0.000  0.000
  0.000  0.000  0.910  0.089  0.000
  0.034  0.831  0.000  0.000  0.135
  0.000  0.000  0.089  0.911  0.000
    occupations:
  0.876 -0.011  0.001 -0.164 -0.001
 -0.011  0.444 -0.001  0.000  0.001
  0.001 -0.001  0.751 -0.006  0.025
 -0.164  0.000 -0.006  0.526  0.000
 -0.001  0.001  0.025  0.000  0.824
atom   10   Tr[ns(na)] =   7.16714
    eigenvalues: 
  0.434  0.446  0.823  0.920  0.961
    eigenvectors:
  0.000  0.989  0.000  0.000  0.011
  0.001  0.000  0.000  0.999  0.001
  0.000  0.000  1.000  0.000  0.000
  0.000  0.011  0.000  0.001  0.988
  0.999  0.000  0.000  0.001  0.000
    occupations:
  0.452  0.002 -0.001  0.054  0.000
  0.002  0.920  0.000 -0.001 -0.013
 -0.001  0.000  0.823  0.000 -0.001
  0.054 -0.001  0.000  0.955  0.000
  0.000 -0.013 -0.001  0.000  0.434
atom   16   Tr[ns(na)] =   6.03892
    eigenvalues: 
  0.407  0.440  0.634  0.750  0.788
    eigenvectors:
  0.000  0.180  0.022  0.015  0.783
  0.999  0.000  0.000  0.000  0.001
  0.000  0.000  0.961  0.016  0.023
  0.000  0.820  0.006  0.003  0.170
  0.000  0.000  0.011  0.966  0.023
    occupations:
  0.721  0.009  0.023 -0.131  0.007
  0.009  0.408  0.000 -0.004 -0.002
  0.023  0.000  0.639 -0.009 -0.011
 -0.131 -0.004 -0.009  0.501 -0.004
  0.007 -0.002 -0.011 -0.004  0.750
atom   17   Tr[ns(na)] =   4.87681
    eigenvalues: 
  0.391  0.415  0.422  0.474  0.735
    eigenvectors:
  0.008  0.002  0.000  0.977  0.013
  0.950  0.039  0.000  0.010  0.001
  0.041  0.958  0.000  0.001  0.000
  0.002  0.000  0.000  0.012  0.986
  0.000  0.000  1.000  0.000  0.000
    occupations:
  0.477  0.007  0.002  0.030  0.000
  0.007  0.394  0.005 -0.011  0.000
  0.002  0.005  0.414  0.002  0.000
  0.030 -0.011  0.002  0.731  0.000
  0.000  0.000  0.000  0.000  0.422
atom   22   Tr[ns(na)] =   6.55846
    eigenvalues: 
  0.441  0.464  0.702  0.800  0.873
    eigenvectors:
  0.006  0.103  0.002  0.001  0.889
  0.969  0.031  0.000  0.000  0.000
  0.000  0.000  0.876  0.121  0.002
  0.025  0.866  0.000  0.000  0.108
  0.000  0.000  0.122  0.878  0.000
    occupations:
  0.828  0.009  0.005 -0.127  0.001
  0.009  0.442  0.000  0.001  0.000
  0.005  0.000  0.714 -0.007 -0.032
 -0.127  0.001 -0.007  0.508  0.000
  0.001  0.000 -0.032  0.000  0.788
atom   23   Tr[ns(na)] =   6.38181
    eigenvalues: 
  0.417  0.496  0.584  0.753  0.940
    eigenvectors:
  0.000  0.991  0.000  0.002  0.007
  0.006  0.000  0.994  0.000  0.000
  0.000  0.001  0.000  0.998  0.001
  0.000  0.007  0.000  0.001  0.992
  0.994  0.000  0.006  0.000  0.000
    occupations:
  0.500  0.000  0.009  0.037  0.000
  0.000  0.583  0.002  0.002 -0.013
  0.009  0.002  0.753 -0.006  0.001
  0.037  0.002 -0.006  0.937  0.000
  0.000 -0.013  0.001  0.000  0.418
N of occupied +U levels =  48.9243744
 --- exit write_ns ---

     negative rho (up, down):  0.611E+00 0.000E+00

     total cpu time spent up to now is     1490.8 secs

     total energy              =   -2182.35124075 Ry
     Harris-Foulkes estimate   =   -2196.65130475 Ry
     estimated scf accuracy    <      17.63635892 Ry

     iteration #  2     ecut=    40.00 Ry     beta=0.70
     Davidson diagonalization with overlap
     ethr =  6.97E-03,  avg # of iterations =  4.1

     negative rho (up, down):  0.611E+00 0.000E+00

     total cpu time spent up to now is     1879.7 secs

     total energy              =   -2116.63057619 Ry
     Harris-Foulkes estimate   =   -2260.34761594 Ry
     estimated scf accuracy    <    1800.28411942 Ry

     iteration #  3     ecut=    40.00 Ry     beta=0.70
     Davidson diagonalization with overlap
     ethr =  6.97E-03,  avg # of iterations =  4.7

     negative rho (up, down):  0.573E+00 0.000E+00

     total cpu time spent up to now is     2345.8 secs

     total energy              =   -2175.75323112 Ry
     Harris-Foulkes estimate   =   -2214.33381881 Ry
     estimated scf accuracy    <     343.28434997 Ry

     iteration #  4     ecut=    40.00 Ry     beta=0.70
     Davidson diagonalization with overlap
     ethr =  6.97E-03,  avg # of iterations =  3.0

     negative rho (up, down):  0.564E+00 0.000E+00

     total cpu time spent up to now is     2620.3 secs

     total energy              =   -2192.81702993 Ry
     Harris-Foulkes estimate   =   -2195.90480311 Ry
     estimated scf accuracy    <      26.05429076 Ry

     iteration #  5     ecut=    40.00 Ry     beta=0.70
     Davidson diagonalization with overlap
     ethr =  6.97E-03,  avg # of iterations =  3.0

     negative rho (up, down):  0.564E+00 0.000E+00

     total cpu time spent up to now is     2865.6 secs

     total energy              =   -2193.59433086 Ry
     Harris-Foulkes estimate   =   -2194.80087949 Ry
     estimated scf accuracy    <       5.66065054 Ry

     iteration #  6     ecut=    40.00 Ry     beta=0.70
     Davidson diagonalization with overlap
     ethr =  2.24E-03,  avg # of iterations =  3.5

     negative rho (up, down):  0.566E+00 0.000E+00

     total cpu time spent up to now is     3117.8 secs

     total energy              =   -2194.01483034 Ry
     Harris-Foulkes estimate   =   -2194.35438732 Ry
     estimated scf accuracy    <       3.25354478 Ry

     iteration #  7     ecut=    40.00 Ry     beta=0.70
     Davidson diagonalization with overlap
     ethr =  1.29E-03,  avg # of iterations =  1.6

     negative rho (up, down):  0.568E+00 0.000E+00

     total cpu time spent up to now is     3355.1 secs

     total energy              =   -2194.02374406 Ry
     Harris-Foulkes estimate   =   -2194.22305923 Ry
     estimated scf accuracy    <       1.67834618 Ry

     iteration #  8     ecut=    40.00 Ry     beta=0.70
     Davidson diagonalization with overlap
     ethr =  6.63E-04,  avg # of iterations =  5.0

     negative rho (up, down):  0.570E+00 0.000E+00

     total cpu time spent up to now is     3642.6 secs

     total energy              =   -2193.99289327 Ry
     Harris-Foulkes estimate   =   -2194.24114807 Ry
     estimated scf accuracy    <       1.45299370 Ry

     iteration #  9     ecut=    40.00 Ry     beta=0.70
     Davidson diagonalization with overlap
     ethr =  5.74E-04,  avg # of iterations =  1.0

     negative rho (up, down):  0.571E+00 0.000E+00

     total cpu time spent up to now is     3868.1 secs

     total energy              =   -2194.05238007 Ry
     Harris-Foulkes estimate   =   -2194.18508066 Ry
     estimated scf accuracy    <       0.90997005 Ry

     iteration # 10     ecut=    40.00 Ry     beta=0.70
     Davidson diagonalization with overlap
     ethr =  3.60E-04,  avg # of iterations =  1.2

     negative rho (up, down):  0.573E+00 0.000E+00

     total cpu time spent up to now is     4095.7 secs

     total energy              =   -2194.06666710 Ry
     Harris-Foulkes estimate   =   -2194.13940978 Ry
     estimated scf accuracy    <       0.36317579 Ry

     iteration # 11     ecut=    40.00 Ry     beta=0.70
     Davidson diagonalization with overlap
     ethr =  1.44E-04,  avg # of iterations =  5.4

     negative rho (up, down):  0.574E+00 0.000E+00

     total cpu time spent up to now is     4397.8 secs

     total energy              =   -2194.06373176 Ry
     Harris-Foulkes estimate   =   -2194.13248041 Ry
     estimated scf accuracy    <       0.42606389 Ry

     iteration # 12     ecut=    40.00 Ry     beta=0.70
     Davidson diagonalization with overlap
     ethr =  1.44E-04,  avg # of iterations =  5.0

     negative rho (up, down):  0.570E+00 0.000E+00

     total cpu time spent up to now is     4677.0 secs

     total energy              =   -2194.06504863 Ry
     Harris-Foulkes estimate   =   -2194.12767136 Ry
     estimated scf accuracy    <       0.36438868 Ry

     iteration # 13     ecut=    40.00 Ry     beta=0.70
     Davidson diagonalization with overlap
     ethr =  1.44E-04,  avg # of iterations =  3.4

     negative rho (up, down):  0.571E+00 0.000E+00

     total cpu time spent up to now is     4930.0 secs

     total energy              =   -2194.02079026 Ry
     Harris-Foulkes estimate   =   -2194.15751436 Ry
     estimated scf accuracy    <       1.26404724 Ry

     iteration # 14     ecut=    40.00 Ry     beta=0.70
     Davidson diagonalization with overlap
     ethr =  1.44E-04,  avg # of iterations =  4.1

     negative rho (up, down):  0.571E+00 0.000E+00

     total cpu time spent up to now is     5192.8 secs

     total energy              =   -2194.03568384 Ry
     Harris-Foulkes estimate   =   -2194.16587467 Ry
     estimated scf accuracy    <       1.85803666 Ry

     iteration # 15     ecut=    40.00 Ry     beta=0.70
     Davidson diagonalization with overlap
     ethr =  1.44E-04,  avg # of iterations =  1.5

     negative rho (up, down):  0.572E+00 0.000E+00

     total cpu time spent up to now is     5421.8 secs

     total energy              =   -2194.09333052 Ry
     Harris-Foulkes estimate   =   -2194.11164845 Ry
     estimated scf accuracy    <       0.13789863 Ry

     iteration # 16     ecut=    40.00 Ry     beta=0.70
     Davidson diagonalization with overlap
     ethr =  5.45E-05,  avg # of iterations =  1.2

     negative rho (up, down):  0.572E+00 0.000E+00

     total cpu time spent up to now is     5644.6 secs

     total energy              =   -2194.10126414 Ry
     Harris-Foulkes estimate   =   -2194.10375275 Ry
     estimated scf accuracy    <       0.01085337 Ry

     iteration # 17     ecut=    40.00 Ry     beta=0.70
     Davidson diagonalization with overlap
     ethr =  4.29E-06,  avg # of iterations =  6.1

     negative rho (up, down):  0.572E+00 0.000E+00

     total cpu time spent up to now is     5930.5 secs

     total energy              =   -2194.09883407 Ry
     Harris-Foulkes estimate   =   -2194.10832987 Ry
     estimated scf accuracy    <       0.08188568 Ry

     iteration # 18     ecut=    40.00 Ry     beta=0.70
     Davidson diagonalization with overlap
     ethr =  4.29E-06,  avg # of iterations =  4.4

     negative rho (up, down):  0.572E+00 0.000E+00

     total cpu time spent up to now is     6188.1 secs

     total energy              =   -2194.10235442 Ry
     Harris-Foulkes estimate   =   -2194.10358641 Ry
     estimated scf accuracy    <       0.00791103 Ry

     iteration # 19     ecut=    40.00 Ry     beta=0.70
     Davidson diagonalization with overlap
     ethr =  3.13E-06,  avg # of iterations =  1.1

     negative rho (up, down):  0.572E+00 0.000E+00

     total cpu time spent up to now is     6416.8 secs

     total energy              =   -2194.09978506 Ry
     Harris-Foulkes estimate   =   -2194.10660328 Ry
     estimated scf accuracy    <       0.05634834 Ry

     iteration # 20     ecut=    40.00 Ry     beta=0.70
     Davidson diagonalization with overlap
     ethr =  3.13E-06,  avg # of iterations =  1.0

     negative rho (up, down):  0.572E+00 0.000E+00

     total cpu time spent up to now is     6645.2 secs

     total energy              =   -2194.10305606 Ry
     Harris-Foulkes estimate   =   -2194.10353158 Ry
     estimated scf accuracy    <       0.00414872 Ry

     iteration # 21     ecut=    40.00 Ry     beta=0.70
     Davidson diagonalization with overlap
     ethr =  1.64E-06,  avg # of iterations =  1.0

     negative rho (up, down):  0.572E+00 0.000E+00

     total cpu time spent up to now is     6871.1 secs

     total energy              =   -2194.10262266 Ry
     Harris-Foulkes estimate   =   -2194.10400779 Ry
     estimated scf accuracy    <       0.01164543 Ry

     iteration # 22     ecut=    40.00 Ry     beta=0.70
     Davidson diagonalization with overlap
     ethr =  1.64E-06,  avg # of iterations =  1.0

     negative rho (up, down):  0.572E+00 0.000E+00

     total cpu time spent up to now is     7092.4 secs

     total energy              =   -2194.10314771 Ry
     Harris-Foulkes estimate   =   -2194.10359153 Ry
     estimated scf accuracy    <       0.00318039 Ry

     iteration # 23     ecut=    40.00 Ry     beta=0.70
     Davidson diagonalization with overlap
     ethr =  1.26E-06,  avg # of iterations =  1.0

     negative rho (up, down):  0.572E+00 0.000E+00

     total cpu time spent up to now is     7317.6 secs

     total energy              =   -2194.10338562 Ry
     Harris-Foulkes estimate   =   -2194.10353917 Ry
     estimated scf accuracy    <       0.00217250 Ry

     iteration # 24     ecut=    40.00 Ry     beta=0.70
     Davidson diagonalization with overlap
     ethr =  8.59E-07,  avg # of iterations =  1.0

     negative rho (up, down):  0.572E+00 0.000E+00

     total cpu time spent up to now is     7542.7 secs

     total energy              =   -2194.10334280 Ry
     Harris-Foulkes estimate   =   -2194.10355258 Ry
     estimated scf accuracy    <       0.00199416 Ry

     iteration # 25     ecut=    40.00 Ry     beta=0.70
     Davidson diagonalization with overlap
     ethr =  7.88E-07,  avg # of iterations =  1.1

     negative rho (up, down):  0.572E+00 0.000E+00

     total cpu time spent up to now is     7770.8 secs

     total energy              =   -2194.10308604 Ry
     Harris-Foulkes estimate   =   -2194.10385870 Ry
     estimated scf accuracy    <       0.00734181 Ry

     iteration # 26     ecut=    40.00 Ry     beta=0.70
     Davidson diagonalization with overlap
     ethr =  7.88E-07,  avg # of iterations =  1.0

     negative rho (up, down):  0.572E+00 0.000E+00

     total cpu time spent up to now is     7994.8 secs

     total energy              =   -2194.10344581 Ry
     Harris-Foulkes estimate   =   -2194.10354901 Ry
     estimated scf accuracy    <       0.00081701 Ry

     iteration # 27     ecut=    40.00 Ry     beta=0.70
     Davidson diagonalization with overlap
     ethr =  3.23E-07,  avg # of iterations =  1.2

     negative rho (up, down):  0.572E+00 0.000E+00

     total cpu time spent up to now is     8222.6 secs

     total energy              =   -2194.10320372 Ry
     Harris-Foulkes estimate   =   -2194.10380006 Ry
     estimated scf accuracy    <       0.00451325 Ry

     iteration # 28     ecut=    40.00 Ry     beta=0.70
     Davidson diagonalization with overlap
     ethr =  3.23E-07,  avg # of iterations =  1.2

     negative rho (up, down):  0.572E+00 0.000E+00

     total cpu time spent up to now is     8454.1 secs

     total energy              =   -2194.10347284 Ry
     Harris-Foulkes estimate   =   -2194.10357598 Ry
     estimated scf accuracy    <       0.00107673 Ry

     iteration # 29     ecut=    40.00 Ry     beta=0.70
     Davidson diagonalization with overlap
     ethr =  3.23E-07,  avg # of iterations =  1.0

     negative rho (up, down):  0.572E+00 0.000E+00

     total cpu time spent up to now is     8680.1 secs

     total energy              =   -2194.10348331 Ry
     Harris-Foulkes estimate   =   -2194.10356398 Ry
     estimated scf accuracy    <       0.00071708 Ry

     iteration # 30     ecut=    40.00 Ry     beta=0.70
     Davidson diagonalization with overlap
     ethr =  2.83E-07,  avg # of iterations =  1.0

     negative rho (up, down):  0.572E+00 0.000E+00

     total cpu time spent up to now is     8907.8 secs

     total energy              =   -2194.10347922 Ry
     Harris-Foulkes estimate   =   -2194.10358451 Ry
     estimated scf accuracy    <       0.00089763 Ry

     iteration # 31     ecut=    40.00 Ry     beta=0.70
     Davidson diagonalization with overlap
     ethr =  2.83E-07,  avg # of iterations =  1.0

     negative rho (up, down):  0.572E+00 0.000E+00

     total cpu time spent up to now is     9137.9 secs

     total energy              =   -2194.10352104 Ry
     Harris-Foulkes estimate   =   -2194.10357067 Ry
     estimated scf accuracy    <       0.00042024 Ry

     iteration # 32     ecut=    40.00 Ry     beta=0.70
     Davidson diagonalization with overlap
     ethr =  1.66E-07,  avg # of iterations =  1.0

     negative rho (up, down):  0.572E+00 0.000E+00

     total cpu time spent up to now is     9364.7 secs

     total energy              =   -2194.10351696 Ry
     Harris-Foulkes estimate   =   -2194.10355956 Ry
     estimated scf accuracy    <       0.00032566 Ry

     iteration # 33     ecut=    40.00 Ry     beta=0.70
     Davidson diagonalization with overlap
     ethr =  1.29E-07,  avg # of iterations =  1.0

     negative rho (up, down):  0.572E+00 0.000E+00

     total cpu time spent up to now is     9588.4 secs

     total energy              =   -2194.10349572 Ry
     Harris-Foulkes estimate   =   -2194.10359060 Ry
     estimated scf accuracy    <       0.00073334 Ry

     iteration # 34     ecut=    40.00 Ry     beta=0.70
     Davidson diagonalization with overlap
     ethr =  1.29E-07,  avg # of iterations =  1.0

     negative rho (up, down):  0.572E+00 0.000E+00

     total cpu time spent up to now is     9814.4 secs

     total energy              =   -2194.10353606 Ry
     Harris-Foulkes estimate   =   -2194.10355710 Ry
     estimated scf accuracy    <       0.00020893 Ry

     iteration # 35     ecut=    40.00 Ry     beta=0.70
     Davidson diagonalization with overlap
     ethr =  8.26E-08,  avg # of iterations =  1.0

     negative rho (up, down):  0.572E+00 0.000E+00

     total cpu time spent up to now is    10040.0 secs

     total energy              =   -2194.10350191 Ry
     Harris-Foulkes estimate   =   -2194.10359865 Ry
     estimated scf accuracy    <       0.00141385 Ry

     iteration # 36     ecut=    40.00 Ry     beta=0.70
     Davidson diagonalization with overlap
     ethr =  8.26E-08,  avg # of iterations =  1.0

     negative rho (up, down):  0.572E+00 0.000E+00

     total cpu time spent up to now is    10272.7 secs

     total energy              =   -2194.10353115 Ry
     Harris-Foulkes estimate   =   -2194.10356798 Ry
     estimated scf accuracy    <       0.00021420 Ry

     iteration # 37     ecut=    40.00 Ry     beta=0.70
     Davidson diagonalization with overlap
     ethr =  8.26E-08,  avg # of iterations =  1.0

     negative rho (up, down):  0.572E+00 0.000E+00

     total cpu time spent up to now is    10500.8 secs

     total energy              =   -2194.10353604 Ry
     Harris-Foulkes estimate   =   -2194.10357266 Ry
     estimated scf accuracy    <       0.00022296 Ry

     iteration # 38     ecut=    40.00 Ry     beta=0.70
     Davidson diagonalization with overlap
     ethr =  8.26E-08,  avg # of iterations =  1.0

     negative rho (up, down):  0.572E+00 0.000E+00

     total cpu time spent up to now is    10726.2 secs

     total energy              =   -2194.10354927 Ry
     Harris-Foulkes estimate   =   -2194.10355877 Ry
     estimated scf accuracy    <       0.00012486 Ry

     iteration # 39     ecut=    40.00 Ry     beta=0.70
     Davidson diagonalization with overlap
     ethr =  4.94E-08,  avg # of iterations =  1.0

     negative rho (up, down):  0.572E+00 0.000E+00

     total cpu time spent up to now is    10952.9 secs

     total energy              =   -2194.10355474 Ry
     Harris-Foulkes estimate   =   -2194.10355743 Ry
     estimated scf accuracy    <       0.00004614 Ry

     iteration # 40     ecut=    40.00 Ry     beta=0.70
     Davidson diagonalization with overlap
     ethr =  1.82E-08,  avg # of iterations =  1.0

     negative rho (up, down):  0.572E+00 0.000E+00

     total cpu time spent up to now is    11179.4 secs

     total energy              =   -2194.10355298 Ry
     Harris-Foulkes estimate   =   -2194.10356146 Ry
     estimated scf accuracy    <       0.00008668 Ry

     iteration # 41     ecut=    40.00 Ry     beta=0.70
     Davidson diagonalization with overlap
     ethr =  1.82E-08,  avg # of iterations =  1.0

     negative rho (up, down):  0.572E+00 0.000E+00

     total cpu time spent up to now is    11408.0 secs

     total energy              =   -2194.10355312 Ry
     Harris-Foulkes estimate   =   -2194.10356053 Ry
     estimated scf accuracy    <       0.00005114 Ry

     iteration # 42     ecut=    40.00 Ry     beta=0.70
     Davidson diagonalization with overlap
     ethr =  1.82E-08,  avg # of iterations =  1.0

     negative rho (up, down):  0.572E+00 0.000E+00

     total cpu time spent up to now is    11639.9 secs

     total energy              =   -2194.10355780 Ry
     Harris-Foulkes estimate   =   -2194.10355834 Ry
     estimated scf accuracy    <       0.00002099 Ry

     iteration # 43     ecut=    40.00 Ry     beta=0.70
     Davidson diagonalization with overlap
     ethr =  8.30E-09,  avg # of iterations =  1.0

     negative rho (up, down):  0.572E+00 0.000E+00

     total cpu time spent up to now is    11866.7 secs

     total energy              =   -2194.10355429 Ry
     Harris-Foulkes estimate   =   -2194.10356114 Ry
     estimated scf accuracy    <       0.00003304 Ry

     iteration # 44     ecut=    40.00 Ry     beta=0.70
     Davidson diagonalization with overlap
     ethr =  8.30E-09,  avg # of iterations =  1.0

     negative rho (up, down):  0.572E+00 0.000E+00

     total cpu time spent up to now is    12092.0 secs

     total energy              =   -2194.10355577 Ry
     Harris-Foulkes estimate   =   -2194.10356090 Ry
     estimated scf accuracy    <       0.00005828 Ry

     iteration # 45     ecut=    40.00 Ry     beta=0.70
     Davidson diagonalization with overlap
     ethr =  8.30E-09,  avg # of iterations =  1.0

     negative rho (up, down):  0.572E+00 0.000E+00

     total cpu time spent up to now is    12319.4 secs

     total energy              =   -2194.10355742 Ry
     Harris-Foulkes estimate   =   -2194.10356171 Ry
     estimated scf accuracy    <       0.00002951 Ry

     iteration # 46     ecut=    40.00 Ry     beta=0.70
     Davidson diagonalization with overlap
     ethr =  8.30E-09,  avg # of iterations =  1.0

     negative rho (up, down):  0.572E+00 0.000E+00

     total cpu time spent up to now is    12547.3 secs

     total energy              =   -2194.10355924 Ry
     Harris-Foulkes estimate   =   -2194.10356071 Ry
     estimated scf accuracy    <       0.00001791 Ry

     iteration # 47     ecut=    40.00 Ry     beta=0.70
     Davidson diagonalization with overlap
     ethr =  7.08E-09,  avg # of iterations =  1.0

     negative rho (up, down):  0.572E+00 0.000E+00

     total cpu time spent up to now is    12781.4 secs

     total energy              =   -2194.10355706 Ry
     Harris-Foulkes estimate   =   -2194.10356119 Ry
     estimated scf accuracy    <       0.00001534 Ry

     iteration # 48     ecut=    40.00 Ry     beta=0.70
     Davidson diagonalization with overlap
     ethr =  6.06E-09,  avg # of iterations =  1.0

     negative rho (up, down):  0.572E+00 0.000E+00

     total cpu time spent up to now is    13008.5 secs

     total energy              =   -2194.10355049 Ry
     Harris-Foulkes estimate   =   -2194.10356689 Ry
     estimated scf accuracy    <       0.00031703 Ry

     iteration # 49     ecut=    40.00 Ry     beta=0.70
     Davidson diagonalization with overlap
     ethr =  6.06E-09,  avg # of iterations =  1.0

     negative rho (up, down):  0.572E+00 0.000E+00

     total cpu time spent up to now is    13243.5 secs

     total energy              =   -2194.10355576 Ry
     Harris-Foulkes estimate   =   -2194.10356265 Ry
     estimated scf accuracy    <       0.00006523 Ry

     iteration # 50     ecut=    40.00 Ry     beta=0.70
     Davidson diagonalization with overlap
     ethr =  6.06E-09,  avg # of iterations =  1.0

     negative rho (up, down):  0.572E+00 0.000E+00

     total cpu time spent up to now is    13467.6 secs

     total energy              =   -2194.10355783 Ry
     Harris-Foulkes estimate   =   -2194.10356183 Ry
     estimated scf accuracy    <       0.00003669 Ry

     iteration # 51     ecut=    40.00 Ry     beta=0.70
     Davidson diagonalization with overlap
     ethr =  6.06E-09,  avg # of iterations =  1.0

     negative rho (up, down):  0.572E+00 0.000E+00

     total cpu time spent up to now is    13694.3 secs

     total energy              =   -2194.10355965 Ry
     Harris-Foulkes estimate   =   -2194.10356082 Ry
     estimated scf accuracy    <       0.00000851 Ry

     iteration # 52     ecut=    40.00 Ry     beta=0.70
     Davidson diagonalization with overlap
     ethr =  3.36E-09,  avg # of iterations =  1.0

     negative rho (up, down):  0.572E+00 0.000E+00

     total cpu time spent up to now is    13919.2 secs

     total energy              =   -2194.10355989 Ry
     Harris-Foulkes estimate   =   -2194.10356057 Ry
     estimated scf accuracy    <       0.00000729 Ry

     iteration # 53     ecut=    40.00 Ry     beta=0.70
     Davidson diagonalization with overlap
     ethr =  2.88E-09,  avg # of iterations =  1.0

     negative rho (up, down):  0.572E+00 0.000E+00

     total cpu time spent up to now is    14147.3 secs

     total energy              =   -2194.10355997 Ry
     Harris-Foulkes estimate   =   -2194.10356042 Ry
     estimated scf accuracy    <       0.00000243 Ry

     iteration # 54     ecut=    40.00 Ry     beta=0.70
     Davidson diagonalization with overlap
     ethr =  9.62E-10,  avg # of iterations =  1.0

     negative rho (up, down):  0.572E+00 0.000E+00

     total cpu time spent up to now is    14363.6 secs

     total energy              =   -2194.10356015 Ry
     Harris-Foulkes estimate   =   -2194.10356051 Ry
     estimated scf accuracy    <       0.00000465 Ry

     iteration # 55     ecut=    40.00 Ry     beta=0.70
     Davidson diagonalization with overlap
     ethr =  9.62E-10,  avg # of iterations =  1.0

     negative rho (up, down):  0.572E+00 0.000E+00

     total cpu time spent up to now is    14590.2 secs

     total energy              =   -2194.10356020 Ry
     Harris-Foulkes estimate   =   -2194.10356054 Ry
     estimated scf accuracy    <       0.00000201 Ry

     iteration # 56     ecut=    40.00 Ry     beta=0.70
     Davidson diagonalization with overlap
     ethr =  7.96E-10,  avg # of iterations =  1.0

     negative rho (up, down):  0.572E+00 0.000E+00

     total cpu time spent up to now is    14815.4 secs

     total energy              =   -2194.10356024 Ry
     Harris-Foulkes estimate   =   -2194.10356053 Ry
     estimated scf accuracy    <       0.00000212 Ry

     iteration # 57     ecut=    40.00 Ry     beta=0.70
     Davidson diagonalization with overlap
     ethr =  7.96E-10,  avg # of iterations =  1.0

     negative rho (up, down):  0.572E+00 0.000E+00

     total cpu time spent up to now is    15044.0 secs

     total energy              =   -2194.10356034 Ry
     Harris-Foulkes estimate   =   -2194.10356058 Ry
     estimated scf accuracy    <       0.00000169 Ry

     iteration # 58     ecut=    40.00 Ry     beta=0.70
     Davidson diagonalization with overlap
     ethr =  6.68E-10,  avg # of iterations =  1.0

     negative rho (up, down):  0.572E+00 0.000E+00

     total cpu time spent up to now is    15274.3 secs

     End of self-consistent calculation
 --- enter write_ns ---
 LDA+U parameters:
U( 2)     =  5.00000000
alpha( 2) =  0.00000000
atom    3   Tr[ns(na)] =   7.24359
    eigenvalues: 
  0.505  0.555  0.690  0.892  0.980
    eigenvectors:
  0.003  0.176  0.006  0.000  0.815
  0.990  0.010  0.000  0.000  0.000
  0.000  0.002  0.942  0.046  0.010
  0.007  0.812  0.007  0.000  0.174
  0.000  0.000  0.046  0.954  0.000
    occupations:
  0.902 -0.010  0.029 -0.161 -0.006
 -0.010  0.506 -0.003 -0.001 -0.003
  0.029 -0.003  0.702 -0.007  0.042
 -0.161 -0.001 -0.007  0.629  0.001
 -0.006 -0.003  0.042  0.001  0.883
atom    4   Tr[ns(na)] =   7.24359
    eigenvalues: 
  0.552  0.604  0.644  0.838  0.984
    eigenvectors:
  0.001  0.984  0.000  0.000  0.014
  0.000  0.000  0.015  0.985  0.000
  0.000  0.000  0.985  0.015  0.000
  0.000  0.014  0.000  0.000  0.986
  0.999  0.001  0.000  0.000  0.000
    occupations:
  0.610 -0.003  0.001  0.045  0.002
 -0.003  0.835  0.023  0.000 -0.001
  0.001  0.023  0.647  0.001  0.000
  0.045  0.000  0.001  0.979  0.000
  0.002 -0.001  0.000  0.000  0.552
atom    9   Tr[ns(na)] =   7.27681
    eigenvalues: 
  0.556  0.582  0.747  0.854  0.900
    eigenvectors:
  0.000  0.160  0.001  0.002  0.838
  1.000  0.000  0.000  0.000  0.000
  0.000  0.001  0.994  0.003  0.002
  0.000  0.839  0.002  0.000  0.158
  0.000  0.000  0.003  0.995  0.002
    occupations:
  0.849 -0.006 -0.008 -0.116  0.002
 -0.006  0.556  0.001  0.003  0.001
 -0.008  0.001  0.747 -0.003  0.006
 -0.116  0.003 -0.003  0.632 -0.002
  0.002  0.001  0.006 -0.002  0.854
atom   10   Tr[ns(na)] =   7.26505
    eigenvalues: 
  0.525  0.533  0.715  0.880  0.980
    eigenvectors:
  0.983  0.001  0.000  0.000  0.016
  0.000  0.001  0.000  0.998  0.001
  0.000  0.000  1.000  0.000  0.000
  0.016  0.000  0.000  0.001  0.983
  0.001  0.999  0.000  0.001  0.000
    occupations:
  0.532  0.000  0.002  0.056  0.000
  0.000  0.880  0.001 -0.004 -0.008
  0.002  0.001  0.715 -0.001  0.000
  0.056 -0.004 -0.001  0.972  0.000
  0.000 -0.008  0.000  0.000  0.533
atom   16   Tr[ns(na)] =   7.23990
    eigenvalues: 
  0.506  0.557  0.682  0.894  0.981
    eigenvectors:
  0.004  0.176  0.006  0.000  0.814
  0.986  0.013  0.000  0.000  0.000
  0.000  0.003  0.919  0.068  0.011
  0.009  0.809  0.008  0.000  0.174
  0.000  0.000  0.067  0.932  0.000
    occupations:
  0.903  0.010  0.030 -0.161  0.007
  0.010  0.507  0.004  0.002 -0.003
  0.030  0.004  0.699 -0.007 -0.053
 -0.161  0.002 -0.007  0.631 -0.002
  0.007 -0.003 -0.053 -0.002  0.880
atom   17   Tr[ns(na)] =   7.24179
    eigenvalues: 
  0.551  0.605  0.649  0.832  0.984
    eigenvectors:
  0.001  0.985  0.000  0.000  0.014
  0.000  0.000  0.016  0.984  0.000
  0.000  0.000  0.984  0.016  0.000
  0.000  0.014  0.000  0.000  0.986
  0.999  0.001  0.000  0.000  0.000
    occupations:
  0.610  0.000  0.000  0.044  0.002
  0.000  0.829  0.023 -0.001 -0.001
  0.000  0.023  0.652  0.002  0.001
  0.044 -0.001  0.002  0.979  0.000
  0.002 -0.001  0.001  0.000  0.551
atom   22   Tr[ns(na)] =   7.24422
    eigenvalues: 
  0.579  0.596  0.760  0.837  0.851
    eigenvectors:
  0.000  0.193  0.806  0.001  0.000
  0.997  0.002  0.001  0.000  0.000
  0.000  0.000  0.000  0.849  0.151
  0.003  0.805  0.192  0.000  0.000
  0.000  0.000  0.001  0.150  0.849
    occupations:
  0.728  0.005 -0.003 -0.065  0.002
  0.005  0.579  0.001 -0.004  0.000
 -0.003  0.001  0.839 -0.004  0.005
 -0.065 -0.004 -0.004  0.627 -0.001
  0.002  0.000  0.005 -0.001  0.849
atom   23   Tr[ns(na)] =   7.28411
    eigenvalues: 
  0.540  0.579  0.688  0.870  0.965
    eigenvectors:
  0.000  0.997  0.000  0.001  0.002
  0.002  0.000  0.997  0.000  0.000
  0.000  0.001  0.000  0.998  0.001
  0.000  0.002  0.000  0.001  0.997
  0.998  0.000  0.002  0.000  0.000
    occupations:
  0.580  0.002  0.008  0.018  0.000
  0.002  0.688  0.003  0.004 -0.006
  0.008  0.003  0.870 -0.003  0.002
  0.018  0.004 -0.003  0.964  0.000
  0.000 -0.006  0.002  0.000  0.540
N of occupied +U levels =  58.0390653
 --- exit write_ns ---

          k = 0.0000 0.0000 0.0000 ( 30363 PWs)   bands (ev):

   -73.6195 -73.3253 -73.3141 -73.2401 -73.0739 -73.0482 -72.9342 -72.9013
   -43.8536 -43.6525 -43.6359 -43.6063 -43.4830 -43.4323 -43.3622 -43.3340
   -43.2908 -43.2627 -43.2603 -43.2446 -43.1585 -43.1560 -43.1506 -43.1269
   -43.0273 -42.9648 -42.9016 -42.8959 -42.8856 -42.7715 -42.6373 -42.6296
   -23.4130 -20.4087 -20.0452 -19.9080 -19.8266 -19.5609 -19.5343 -19.3022
   -19.2915 -18.9814 -18.9539 -18.9294 -18.8902 -18.8552 -18.8487 -18.7121
   -18.3967 -18.3749 -18.3020 -17.0870  -9.2383  -9.0373  -8.9680  -8.7386
    -8.3289  -8.1369  -8.0669  -7.8042  -7.6302  -7.4562  -7.3746  -7.3343
    -7.2214  -7.1459  -7.0678  -6.9972  -6.8595  -6.8122  -6.7334  -6.5929
    -6.5623  -6.5063  -6.4592  -6.1365  -5.9151  -5.8398  -5.6237  -5.4262
    -5.1295  -5.0976  -4.9395  -4.8303  -4.8182  -4.7425  -4.6812  -4.4618
    -4.4071  -4.3606  -4.2418  -4.2123  -4.0976  -3.9848  -3.9342  -3.8654
    -3.7534  -3.6812  -3.4844  -3.4088  -3.3753  -3.2769  -3.2286  -3.1509
    -3.1161  -3.0520  -2.9172  -2.8967  -2.7295  -2.6347  -2.6084  -2.5444
    -2.4453  -2.4401  -2.2670  -2.2259  -2.2041  -2.1323  -1.9705  -1.9267
    -1.7695  -1.4346  -1.2506  -1.1455  -0.9735  -0.8077  -0.7363  -0.6674
    -0.2545  -0.1491  -0.1234   0.2243   0.3515   0.4914   0.9187   1.3335
     2.0133   2.1713   2.7604   3.0239   3.1408   3.1530   3.1639   3.2792
     3.3827   3.6494   3.7129   3.9319   4.1335   4.2304   4.3007   4.4123
     4.5703   4.6367   4.6797   5.0178   5.2871   5.8939   6.2979   6.6134
     6.7384   7.0343   7.3141   7.3339   7.3851   7.3965   7.5040   7.6833
     7.7800   7.8479   7.8838   8.0136   8.0870   8.2755   8.3764   8.4582
     8.5433   8.8196   8.9136   8.9400   8.9872   9.2064   9.2387   9.4073
     9.4279   9.6039   9.7479   9.8220   9.8566   9.9839  10.0748  10.1211
    10.2454  10.3032  10.4158  10.4609  10.4983  10.5942  10.7536  10.8175
    11.1222  11.2072  11.2341  11.2776  11.3194  11.4418  11.4697  11.4915
    11.6118  11.6209  11.6901  11.7322  11.7641  11.8508  11.9318  12.0446
    12.0575  12.2471  12.3089  12.3702  12.4749  12.4949  12.5921  12.6455
    12.7362  12.7982  12.8425  12.9315  12.9515  13.0235  13.1215  13.1448
    13.2023  13.2513  13.3681  13.4370  13.4393  13.5053  13.5967  13.8728
    13.9938  14.0677  14.1296  14.1366  14.1673  14.2406  14.3081  14.4051
    14.4921  14.6212  14.7259  14.8768  14.9962  15.0455  15.0771  15.1974
    15.2675  15.3785  15.4673  15.5748  15.6867  15.7131  15.9698  16.0157
    16.0308  16.1190  16.3541  16.3614  16.4749  16.6040  16.6341  16.6657
    16.9762  17.0343  17.1183  17.1689  17.2199  17.3060  17.3946  17.4473
    17.5153  17.5870  17.6632  17.7036  17.7350  17.7949  17.9144  17.9652
    18.1635  18.2709  18.4625  18.4928  18.5513  18.6332  18.6567  18.6822
    18.7570  18.7933  18.8492  18.9553  19.0187  19.1144  19.1607  19.1921
    19.2525  19.2703  19.3182  19.3473  19.4109  19.4368  19.4809  19.5337
    19.5799  19.6634  19.6981  19.7538  19.7822  19.8944  19.9090  20.0347
    20.0917  20.1156  20.1318  20.2164  20.2526  20.3490  20.4602  20.4980
    20.5736  20.6196  20.7662  20.8008  20.8480  20.8949  20.9273  21.0284
    21.0681  21.1331  21.2125  21.2721  21.3261  21.4295  21.4972  21.5768
    21.6477  21.6833  21.6969  21.8477  21.8985  21.9381  21.9883  22.0185
    22.0916  22.1321  22.1731  22.2968  22.3399  22.3506  22.3698  22.4482
    22.4528  22.5333  22.5721  22.6505  22.6678  22.6729  22.7100  22.7480
    22.7529  22.7842  22.8022  22.8538  22.9161  22.9431  22.9719  23.0058
    23.0628  23.0953  23.1262

          k = 0.0000 0.2435 0.0000 ( 30432 PWs)   bands (ev):

   -73.6194 -73.3252 -73.3144 -73.2399 -73.0739 -73.0483 -72.9340 -72.9013
   -43.8535 -43.6525 -43.6360 -43.6063 -43.4831 -43.4327 -43.3625 -43.3366
   -43.2866 -43.2637 -43.2610 -43.2385 -43.1647 -43.1560 -43.1500 -43.1255
   -43.0276 -42.9647 -42.9022 -42.8959 -42.8856 -42.7712 -42.6376 -42.6297
   -23.4129 -20.3703 -20.0071 -19.9111 -19.7389 -19.5502 -19.5044 -19.3057
   -19.2833 -19.1731 -19.1166 -18.9178 -18.8617 -18.7241 -18.6967 -18.6796
   -18.5121 -18.4666 -18.3903 -17.0855  -9.1575  -8.7449  -8.6775  -8.6517
    -8.3542  -8.3019  -8.1264  -8.0457  -7.8324  -7.3592  -7.3419  -7.2897
    -7.1980  -7.0856  -7.0313  -6.8791  -6.8181  -6.6973  -6.6810  -6.5834
    -6.5155  -6.2735  -6.1319  -5.9728  -5.9436  -5.7238  -5.6041  -5.4911
    -5.3121  -5.2201  -4.9044  -4.8842  -4.8689  -4.8434  -4.7110  -4.6017
    -4.5377  -4.4728  -4.4163  -4.3260  -4.2627  -4.2111  -4.1242  -3.9681
    -3.9071  -3.7619  -3.7205  -3.6101  -3.5353  -3.4424  -3.3851  -3.3466
    -3.1329  -3.1130  -2.9690  -2.8759  -2.6964  -2.4465  -2.3463  -2.3213
    -2.2625  -2.2109  -2.1448  -2.0391  -1.9781  -1.9580  -1.8956  -1.7660
    -1.7260  -1.7100  -1.4146  -1.3899  -1.1172  -0.8004  -0.7840  -0.6742
    -0.2755  -0.0862   0.1823   0.2983   0.3564   0.5105   0.7030   1.5179
     2.0365   2.1835   2.2724   2.3994   3.0202   3.2655   3.3989   3.7643
     3.9294   3.9624   4.1560   4.1607   4.2426   4.3303   4.3632   4.3820
     4.4044   4.5003   4.7721   4.9572   5.5079   5.6625   5.8252   6.1547
     6.2715   6.6384   6.7814   7.1469   7.1837   7.4048   7.4657   7.5965
     7.8365   7.9769   8.1230   8.2317   8.2582   8.4245   8.5335   8.6223
     8.7497   8.7991   9.0132   9.0963   9.2533   9.2671   9.4214   9.4442
     9.5289   9.6388   9.8178   9.8653   9.9017  10.0029  10.0302  10.0942
    10.1864  10.2125  10.2366  10.3108  10.3938  10.4456  10.5312  10.5523
    10.7618  10.8312  10.9845  11.1213  11.2273  11.3345  11.3784  11.4169
    11.4635  11.5632  11.7677  11.8317  11.8357  11.9314  12.0340  12.0865
    12.2567  12.5070  12.5643  12.5811  12.6275  12.6983  12.7723  12.9970
    13.1086  13.1227  13.1965  13.2348  13.2769  13.3862  13.5044  13.6001
    13.6069  13.7063  13.7646  13.7999  13.8574  13.9038  13.9513  13.9696
    14.2508  14.2955  14.3495  14.4146  14.4826  14.5280  14.5740  14.6235
    14.7390  14.7716  14.8436  14.9108  15.0353  15.1289  15.1466  15.2710
    15.3402  15.3592  15.3928  15.4870  15.6565  15.6780  15.8047  15.8695
    15.8970  15.9722  16.1075  16.1431  16.1739  16.2255  16.4187  16.5707
    16.6261  16.7129  16.8287  16.8640  16.9096  16.9199  16.9417  16.9846
    17.1579  17.3271  17.3779  17.5129  17.5766  17.6279  17.6995  17.8176
    17.8839  17.9877  18.0842  18.1631  18.2706  18.3639  18.3837  18.4185
    18.5458  18.6548  18.7262  18.8131  18.8720  18.9556  18.9812  19.0390
    19.1041  19.1378  19.1886  19.2261  19.2373  19.3237  19.3925  19.4608
    19.4748  19.5211  19.5356  19.5699  19.6301  19.6980  19.7180  19.7936
    19.8267  19.8923  19.9360  19.9761  20.0660  20.1740  20.2182  20.2524
    20.2964  20.3562  20.4820  20.4998  20.5498  20.6651  20.7497  20.7762
    20.8476  20.8943  20.9023  21.0785  21.1075  21.1180  21.1877  21.2304
    21.2541  21.3069  21.3118  21.3779  21.4250  21.4763  21.5093  21.5595
    21.6353  21.7066  21.7572  21.8056  21.8677  21.9182  21.9875  22.0312
    22.1161  22.1632  22.1779  22.2864  22.3849  22.4516  22.5090  22.5605
    22.5893  22.6715  22.7207  22.7797  22.8880  22.9198  22.9396  23.0165
    23.0415  23.1054  23.1254

          k = 0.0000-0.4870 0.0000 ( 30448 PWs)   bands (ev):

   -73.6193 -73.3251 -73.3146 -73.2398 -73.0739 -73.0485 -72.9339 -72.9012
   -43.8533 -43.6526 -43.6360 -43.6063 -43.4832 -43.4332 -43.3628 -43.3386
   -43.2829 -43.2653 -43.2613 -43.2309 -43.1694 -43.1568 -43.1527 -43.1227
   -43.0279 -42.9645 -42.9028 -42.8958 -42.8855 -42.7708 -42.6378 -42.6297
   -23.4127 -20.3337 -19.9456 -19.9412 -19.6065 -19.5585 -19.4528 -19.3118
   -19.2641 -19.2543 -19.2011 -18.9196 -18.8837 -18.7201 -18.6623 -18.6443
   -18.6090 -18.5899 -18.3955 -17.0840  -9.1298  -8.6958  -8.5055  -8.3389
    -8.3183  -8.2516  -8.1887  -8.1118  -7.8666  -7.3383  -7.3021  -7.2854
    -7.1126  -6.8941  -6.8909  -6.7441  -6.7116  -6.6840  -6.6521  -6.5586
    -6.4566  -6.3286  -6.2566  -6.0661  -5.8287  -5.6284  -5.5766  -5.5197
    -5.4109  -5.2581  -5.0602  -5.0488  -4.9436  -4.8997  -4.8222  -4.8128
    -4.7879  -4.7193  -4.5168  -4.3988  -4.3325  -4.2709  -4.2291  -4.0313
    -3.8227  -3.7963  -3.7405  -3.6719  -3.5482  -3.4469  -3.3152  -3.3089
    -3.2198  -3.1331  -2.8347  -2.7264  -2.6996  -2.6737  -2.4626  -2.4125
    -2.2946  -2.2448  -2.2206  -2.1810  -2.1107  -1.9747  -1.9135  -1.7188
    -1.4534  -1.3775  -1.3613  -1.2147  -0.7745  -0.7674  -0.7479  -0.6724
    -0.5217  -0.1902   0.1303   0.2889   0.3674   0.6259   0.6889   1.6692
     1.8235   1.9006   2.0566   2.6332   3.1683   3.3442   3.6004   3.9273
     3.9893   4.1353   4.1599   4.1722   4.4039   4.4116   4.4695   4.6260
     4.6347   4.7418   4.8367   4.9499   5.0760   5.2894   5.5930   5.8094
     6.1457   6.3848   6.5414   7.1157   7.2645   7.3084   7.5774   7.6708
     7.8208   7.9815   8.0306   8.3793   8.4314   8.4659   8.4839   8.6211
     8.7955   8.8357   8.8746   8.9232   8.9614   9.1578   9.3200   9.3242
     9.4192   9.4528   9.6729   9.7270   9.7949   9.9364   9.9639  10.0064
    10.2212  10.2834  10.3301  10.3497  10.4699  10.5288  10.6369  10.9420
    10.9737  11.0218  11.1435  11.2679  11.3690  11.5400  11.6737  11.7447
    11.8285  11.8361  11.8862  11.9128  12.0233  12.1574  12.2067  12.2360
    12.3431  12.4126  12.4456  12.6639  12.7339  12.8501  12.8661  12.9630
    12.9725  13.0859  13.2466  13.3154  13.3586  13.4205  13.4760  13.6602
    13.6980  13.7925  13.8372  13.8558  13.9484  14.0538  14.0803  14.1103
    14.1549  14.2459  14.4095  14.5705  14.6302  14.7010  14.7369  14.9122
    14.9242  14.9610  15.2116  15.2756  15.4412  15.4979  15.5673  15.6432
    15.7100  15.7340  15.7603  15.8357  15.9073  16.0275  16.0389  16.0564
    16.1013  16.1208  16.1536  16.2407  16.2538  16.3104  16.3525  16.3767
    16.4559  16.4748  16.4889  16.5806  16.6917  16.7927  16.8345  16.8934
    16.9347  16.9429  17.0320  17.1275  17.2463  17.2554  17.3606  17.3888
    17.4404  17.5731  17.6481  17.8160  17.9216  17.9738  18.0077  18.0553
    18.1310  18.2124  18.2590  18.2727  18.3698  18.4045  18.4870  18.5278
    18.5573  18.6015  18.6855  18.8823  18.9305  18.9943  19.0466  19.0875
    19.2262  19.3266  19.3399  19.3791  19.4056  19.4786  19.5116  19.6225
    19.6659  19.8000  19.8810  19.9734  20.0249  20.0793  20.1491  20.2734
    20.3524  20.3951  20.4056  20.4231  20.4312  20.4690  20.4943  20.5109
    20.6237  20.6666  20.7072  20.7387  20.8014  20.8459  20.8712  20.8925
    20.9918  20.9972  21.1333  21.1908  21.2146  21.2571  21.3144  21.3623
    21.4007  21.4879  21.5378  21.6237  21.6662  21.6944  21.7881  21.8307
    21.8852  21.9735  22.0027  22.1000  22.1130  22.1388  22.2465  22.4118
    22.4463  22.5588  22.5957  22.6854  22.6944  22.7958  22.8682  22.9370
    22.9698  23.0705  23.0835

          k = 0.2500 0.0000 0.0000 ( 30394 PWs)   bands (ev):

   -73.6188 -73.3230 -73.3147 -73.2396 -73.0725 -73.0480 -72.9330 -72.9010
   -43.8472 -43.6508 -43.6381 -43.6060 -43.4830 -43.4322 -43.3622 -43.3345
   -43.2828 -43.2704 -43.2505 -43.2385 -43.1630 -43.1560 -43.1443 -43.1248
   -43.0535 -42.9564 -42.9083 -42.8998 -42.8926 -42.7546 -42.6536 -42.6378
   -23.4129 -20.3250 -19.9741 -19.8320 -19.7390 -19.5955 -19.4510 -19.3465
   -19.2464 -19.0904 -19.0405 -18.8948 -18.8726 -18.8444 -18.8079 -18.7795
   -18.4770 -18.4632 -18.3881 -17.0872  -9.0046  -8.7940  -8.7610  -8.7161
    -8.1574  -8.0910  -8.0147  -7.6637  -7.5770  -7.4366  -7.3808  -7.3387
    -7.2819  -7.2188  -7.1544  -7.0549  -7.0089  -6.8884  -6.8126  -6.6309
    -6.5283  -6.3494  -6.2968  -6.0884  -5.9544  -5.8364  -5.7284  -5.4259
    -5.3467  -5.2982  -5.0536  -5.0236  -4.8234  -4.7841  -4.7191  -4.6679
    -4.6240  -4.5696  -4.4272  -4.3276  -4.2378  -4.1326  -4.0331  -3.9514
    -3.8828  -3.7822  -3.7265  -3.6398  -3.4394  -3.4035  -3.3693  -3.2487
    -3.2394  -3.0983  -2.9385  -2.7969  -2.7742  -2.5254  -2.3922  -2.2911
    -2.2495  -2.1857  -2.1416  -2.0220  -1.9405  -1.8190  -1.6934  -1.5343
    -1.5012  -1.4139  -1.1811  -1.0158  -0.9372  -0.8019  -0.5803  -0.4711
    -0.3707  -0.2447  -0.0720   0.0281   0.1962   0.3483   0.7793   1.4666
     2.2161   2.3047   2.8424   3.0689   3.1576   3.2349   3.2470   3.3367
     3.4403   3.5007   3.7828   3.9178   4.0878   4.2231   4.2452   4.2860
     4.3288   4.4014   4.8744   5.0220   5.5124   5.6082   5.8542   6.2612
     6.4086   6.6599   6.8893   6.9634   7.1702   7.4815   7.5909   7.7359
     7.8816   7.9390   8.0176   8.0789   8.1281   8.4692   8.5262   8.6201
     8.8049   8.9422   8.9971   9.1385   9.1885   9.3587   9.4293   9.5010
     9.5766   9.6781   9.7501   9.7830   9.9108   9.9447   9.9988  10.0465
    10.1446  10.2194  10.2699  10.3549  10.4200  10.4560  10.4806  10.6093
    10.6950  10.9160  11.0445  11.1217  11.1793  11.3411  11.3914  11.5206
    11.5957  11.6398  11.7351  11.8579  11.9333  11.9862  12.0873  12.2730
    12.3378  12.4196  12.5433  12.5637  12.5935  12.6937  12.7732  12.8871
    12.9442  13.0916  13.1996  13.2743  13.3259  13.3962  13.4965  13.5285
    13.5776  13.7011  13.7369  13.7759  13.8556  13.8765  14.0931  14.1360
    14.1579  14.2320  14.3217  14.4401  14.4784  14.5803  14.6196  14.6652
    14.7246  14.7581  14.8389  15.0008  15.0263  15.0713  15.1551  15.2932
    15.3824  15.5906  15.6753  15.7349  15.7933  15.8229  15.8883  15.9838
    16.0048  16.0670  16.1342  16.2226  16.2723  16.3908  16.4179  16.5236
    16.5913  16.6624  16.7019  16.8280  16.9448  16.9715  17.0442  17.1425
    17.2810  17.3274  17.3827  17.4535  17.5263  17.5681  17.6167  17.6954
    17.7842  17.8451  17.9172  17.9726  18.0431  18.0739  18.2188  18.2752
    18.3684  18.4859  18.5775  18.6728  18.7961  18.8835  18.9187  18.9656
    18.9884  19.0201  19.0888  19.2097  19.2834  19.3181  19.3511  19.4307
    19.4711  19.5264  19.5476  19.5688  19.6087  19.6434  19.7289  19.7504
    19.7823  19.8268  19.9226  20.0463  20.0885  20.1634  20.2561  20.3029
    20.3837  20.4065  20.4757  20.4872  20.5639  20.6386  20.6865  20.7269
    20.7621  20.8101  20.8434  20.9006  20.9739  21.0590  21.1155  21.1708
    21.1918  21.2177  21.3030  21.3438  21.3712  21.4442  21.5095  21.5794
    21.6739  21.7384  21.7640  21.8164  21.8326  21.9029  21.9530  22.0948
    22.1845  22.2014  22.2276  22.2710  22.3020  22.3373  22.4082  22.5099
    22.5511  22.6074  22.7012  22.7586  22.8667  22.8816  22.9297  23.0213
    23.0865  23.1365  23.1962

          k = 0.2500 0.2435 0.0000 ( 30434 PWs)   bands (ev):

   -73.6187 -73.3230 -73.3149 -73.2395 -73.0726 -73.0481 -72.9329 -72.9009
   -43.8470 -43.6509 -43.6381 -43.6060 -43.4831 -43.4325 -43.3624 -43.3360
   -43.2796 -43.2706 -43.2488 -43.2349 -43.1704 -43.1563 -43.1458 -43.1198
   -43.0546 -42.9563 -42.9081 -42.9003 -42.8925 -42.7543 -42.6536 -42.6380
   -23.4128 -20.2980 -19.9446 -19.8239 -19.6783 -19.5559 -19.4168 -19.3463
   -19.2372 -19.1260 -19.1125 -18.8996 -18.8706 -18.8192 -18.7851 -18.7387
   -18.5915 -18.5426 -18.4703 -17.0856  -8.9614  -8.7175  -8.4372  -8.4232
    -8.2081  -8.1285  -8.0536  -7.8231  -7.6969  -7.3948  -7.3146  -7.2446
    -7.2233  -7.1301  -7.0427  -7.0006  -6.9492  -6.8934  -6.7862  -6.6220
    -6.4718  -6.2953  -6.0356  -5.9916  -5.8700  -5.7665  -5.6161  -5.5142
    -5.4584  -5.3159  -5.2558  -5.1518  -5.0310  -4.9239  -4.8955  -4.8133
    -4.6617  -4.6381  -4.5659  -4.4834  -4.4332  -4.3447  -4.2819  -4.2066
    -4.0645  -3.7793  -3.7157  -3.6388  -3.5966  -3.5366  -3.4267  -3.3074
    -3.1581  -3.1189  -3.0153  -2.7370  -2.6896  -2.4465  -2.3316  -2.2173
    -2.0362  -1.9966  -1.9089  -1.8356  -1.7603  -1.6884  -1.6486  -1.5622
    -1.4515  -1.4194  -1.2739  -1.2285  -1.0872  -0.7476  -0.6781  -0.4468
    -0.2869  -0.1894   0.0625   0.1603   0.1903   0.3306   0.5850   1.6204
     2.1893   2.3615   2.4773   2.5241   3.0371   3.2681   3.3605   3.5384
     3.7921   3.8394   3.9657   4.0430   4.1295   4.1953   4.2766   4.3393
     4.4417   4.6156   4.8241   5.1749   5.6304   5.7579   5.9809   6.0802
     6.1400   6.4694   6.5086   6.6716   6.9248   7.0500   7.1368   7.4754
     7.6146   7.6963   7.9117   8.1052   8.1718   8.3493   8.3992   8.5495
     8.6866   8.7864   8.9912   9.0476   9.1029   9.3060   9.4298   9.4626
     9.6264   9.6967   9.7988   9.8667  10.0618  10.0686  10.2153  10.2765
    10.3228  10.4200  10.4960  10.6265  10.6903  10.7492  10.8704  10.9786
    11.0494  11.2146  11.2599  11.3242  11.4457  11.5675  11.6571  11.7200
    11.8238  11.9030  11.9603  12.0300  12.0999  12.1701  12.2286  12.2693
    12.3741  12.4709  12.5030  12.6349  12.7388  12.7927  12.8510  12.9032
    13.0058  13.0336  13.1479  13.2624  13.3179  13.3710  13.4621  13.5150
    13.6097  13.6947  13.8206  13.8632  13.9375  14.0063  14.0806  14.1702
    14.3095  14.4066  14.4470  14.5650  14.6162  14.7022  14.7676  14.8549
    14.9456  15.0311  15.0982  15.2056  15.2680  15.3139  15.3850  15.4246
    15.5002  15.5322  15.5906  15.6598  15.7380  15.8234  15.8451  15.9098
    15.9847  16.0224  16.0982  16.1464  16.2052  16.2405  16.2583  16.3353
    16.4109  16.4731  16.5669  16.6742  16.7008  16.7288  16.8193  16.9199
    16.9878  17.0341  17.0860  17.2071  17.2867  17.3268  17.4096  17.4467
    17.5294  17.5552  17.6226  17.6863  17.7346  17.8112  17.8538  17.8968
    17.9995  18.0204  18.1025  18.1398  18.2497  18.2847  18.3208  18.3806
    18.4596  18.5439  18.5990  18.7298  18.7757  18.8534  18.9106  18.9731
    19.0311  19.1058  19.1930  19.2676  19.3014  19.3618  19.5177  19.6231
    19.6502  19.7034  19.8009  19.8929  19.9328  19.9892  20.0603  20.1374
    20.2430  20.3334  20.4194  20.4619  20.5292  20.6042  20.6660  20.7009
    20.8433  20.9497  20.9935  21.0262  21.1091  21.1850  21.2257  21.2917
    21.3290  21.3606  21.4337  21.5033  21.5500  21.5727  21.6177  21.6807
    21.8052  21.8607  21.8948  21.9378  21.9846  22.0556  22.0943  22.1570
    22.2169  22.3279  22.3943  22.4346  22.5083  22.5622  22.6350  22.7198
    22.7896  22.8150  22.8809  22.9410  22.9983  23.0560  23.0956  23.1395
    23.1976  23.2457  23.3234

          k = 0.2500-0.4870 0.0000 ( 30468 PWs)   bands (ev):

   -73.6185 -73.3230 -73.3152 -73.2394 -73.0726 -73.0483 -72.9327 -72.9007
   -43.8469 -43.6509 -43.6381 -43.6060 -43.4832 -43.4328 -43.3626 -43.3374
   -43.2765 -43.2710 -43.2508 -43.2281 -43.1696 -43.1569 -43.1498 -43.1218
   -43.0536 -42.9561 -42.9079 -42.9008 -42.8925 -42.7541 -42.6536 -42.6383
   -23.4127 -20.2730 -19.9148 -19.8169 -19.6365 -19.4616 -19.3636 -19.3507
   -19.1986 -19.1815 -19.1419 -18.9143 -18.8903 -18.8265 -18.7476 -18.7332
   -18.7174 -18.7008 -18.4752 -17.0841  -8.9420  -8.6882  -8.2932  -8.1595
    -8.0646  -8.0335  -7.9913  -7.9476  -7.7050  -7.3794  -7.3242  -7.1936
    -7.0680  -6.9943  -6.9195  -6.8381  -6.7870  -6.7774  -6.6999  -6.6741
    -6.3733  -6.2934  -6.1344  -6.0447  -5.9174  -5.7690  -5.7184  -5.6789
    -5.4616  -5.3571  -5.3427  -5.2917  -5.2622  -5.1464  -5.0965  -4.9906
    -4.8156  -4.7562  -4.6886  -4.6312  -4.5960  -4.4603  -4.3630  -4.2460
    -4.1479  -4.0598  -3.8127  -3.5665  -3.4004  -3.3577  -3.3017  -3.2357
    -3.1177  -3.0427  -3.0054  -2.8556  -2.6720  -2.3680  -2.3136  -2.2832
    -2.1810  -2.0230  -1.9660  -1.8298  -1.7752  -1.7098  -1.6185  -1.5786
    -1.4537  -1.3332  -0.9885  -0.9681  -0.7788  -0.7629  -0.6395  -0.4630
    -0.4269  -0.2365   0.0574   0.1189   0.2427   0.4629   0.4742   1.7476
     1.9894   2.0010   2.3230   2.6818   3.2191   3.2825   3.4303   3.5252
     3.5984   3.8512   4.0283   4.1523   4.2377   4.3976   4.4569   4.5673
     4.6859   4.8455   5.0655   5.1767   5.3112   5.5250   5.8306   6.0234
     6.0574   6.3398   6.5001   6.6799   6.9016   6.9580   7.0797   7.2659
     7.3182   7.4717   7.6045   7.7700   7.8862   7.9987   8.2778   8.5244
     8.6513   8.6758   8.7765   8.9157   9.0188   9.1164   9.3044   9.4140
     9.6581   9.7041   9.7677  10.0529  10.2015  10.2788  10.3408  10.5513
    10.6329  10.6916  10.7306  10.7890  10.8761  11.0275  11.1190  11.3369
    11.4662  11.5249  11.5772  11.7015  11.7990  11.8257  11.9171  11.9803
    12.0495  12.1450  12.2131  12.2608  12.3116  12.3565  12.4503  12.5522
    12.5903  12.6287  12.7252  12.8327  12.8755  12.9420  13.0403  13.1033
    13.1866  13.2617  13.3199  13.4277  13.4527  13.4975  13.5213  13.5851
    13.6592  13.6908  13.8009  13.8944  13.9898  14.0642  14.0921  14.2915
    14.3667  14.4091  14.4584  14.4748  14.5320  14.5580  14.6101  14.6326
    14.7415  14.8074  14.8329  14.8843  14.9342  15.0080  15.0902  15.1503
    15.3663  15.3766  15.4271  15.4798  15.5154  15.5546  15.6229  15.7903
    15.8924  15.9167  15.9736  16.0867  16.1667  16.2617  16.3672  16.4038
    16.5314  16.5872  16.6245  16.6642  16.6754  16.7193  16.7577  16.8314
    16.8562  16.9108  16.9332  16.9487  17.0538  17.0993  17.1954  17.2905
    17.3782  17.4427  17.4725  17.5364  17.6159  17.6541  17.6751  17.7183
    17.7610  17.8538  18.0169  18.0462  18.1571  18.2201  18.2867  18.3212
    18.3580  18.4438  18.4964  18.5277  18.6011  18.7118  18.7764  18.8207
    18.8808  18.9241  18.9807  19.0024  19.0942  19.2028  19.2748  19.2962
    19.4268  19.4959  19.6460  19.6775  19.7624  19.7793  19.8311  19.8839
    19.9463  19.9874  20.0137  20.0923  20.1337  20.1970  20.3320  20.4253
    20.4814  20.5980  20.6738  20.7414  20.7619  20.9435  20.9817  21.0220
    21.0833  21.1800  21.2851  21.3112  21.3951  21.4432  21.5032  21.6081
    21.6610  21.7915  21.9313  22.0160  22.0309  22.1137  22.1798  22.2120
    22.2898  22.3411  22.3946  22.4541  22.5033  22.6059  22.6485  22.7504
    22.7869  22.9414  23.0605  23.1775  23.2018  23.2352  23.3024  23.3686
    23.4467  23.5180  23.5692

          k =-0.5000 0.0000 0.0000 ( 30480 PWs)   bands (ev):

   -73.6181 -73.3198 -73.3163 -73.2392 -73.0711 -73.0479 -72.9318 -72.9006
   -43.8405 -43.6483 -43.6410 -43.6058 -43.4830 -43.4320 -43.3623 -43.3349
   -43.2820 -43.2714 -43.2428 -43.2293 -43.1615 -43.1565 -43.1346 -43.1076
   -43.1035 -42.9463 -42.9201 -42.9006 -42.8997 -42.7152 -42.7004 -42.6382
   -23.4129 -20.2244 -19.8635 -19.8183 -19.5906 -19.5696 -19.3973 -19.3614
   -19.2603 -19.2151 -19.1264 -19.0038 -18.8893 -18.7698 -18.6797 -18.6661
   -18.6043 -18.5956 -18.5780 -17.0874  -8.7500  -8.6764  -8.1630  -8.1271
    -8.1115  -8.0676  -8.0412  -7.9778  -7.8087  -7.5771  -7.5456  -7.4235
    -7.3593  -7.2450  -7.1645  -7.1148  -7.0933  -6.9729  -6.6364  -6.5054
    -6.4439  -6.1691  -6.0275  -6.0019  -5.9130  -5.8459  -5.6475  -5.5954
    -5.4650  -5.4020  -5.3216  -5.2759  -5.2128  -5.0583  -5.0012  -4.8469
    -4.6586  -4.5944  -4.5592  -4.5032  -4.4626  -4.2971  -4.1421  -4.0273
    -3.9486  -3.8557  -3.8372  -3.6177  -3.6111  -3.4780  -3.3829  -3.1852
    -3.0214  -2.9952  -2.9275  -2.8876  -2.7115  -2.6118  -2.2734  -2.1263
    -2.0583  -2.0459  -2.0368  -1.9780  -1.8983  -1.6206  -1.5510  -1.1872
    -1.1184  -1.0663  -1.0213  -0.8494  -0.8175  -0.7598  -0.6064  -0.5454
    -0.3861  -0.3190  -0.2072  -0.1067   0.0960   0.3613   0.4609   1.5973
     2.5379   2.6997   2.8590   2.9524   3.0279   3.2212   3.3155   3.4858
     3.5386   3.5950   3.5970   3.6722   3.7252   4.0763   4.3226   4.3429
     4.6353   4.7369   4.8009   4.9165   5.1653   5.2112   5.6796   5.6973
     6.2641   6.3870   6.9021   7.1634   7.3365   7.3602   7.6421   7.6989
     7.9149   8.2251   8.2353   8.2655   8.3804   8.4580   8.5631   8.6307
     8.6887   8.7319   8.7405   8.8308   8.8591   9.0353   9.1771   9.2434
     9.3011   9.4229   9.6523   9.8457   9.8857   9.9628  10.0334  10.0676
    10.2973  10.3500  10.3982  10.5155  10.5666  10.7232  10.7766  10.8377
    10.9727  10.9939  11.0987  11.1676  11.3171  11.3565  11.4557  11.6226
    11.7618  11.7897  11.9541  11.9874  12.2357  12.2854  12.3232  12.4652
    12.6198  12.6364  12.7408  12.7518  12.8170  12.8695  12.8834  12.9365
    13.0512  13.1982  13.2523  13.3164  13.3434  13.3614  13.4644  13.5518
    13.6765  13.7063  13.7759  13.8652  13.8951  14.0271  14.2052  14.3131
    14.4743  14.5248  14.5782  14.6520  14.8175  14.9271  14.9572  14.9963
    15.0402  15.0497  15.2071  15.2770  15.3250  15.4039  15.4693  15.5556
    15.5666  15.6334  15.7555  15.8504  15.9612  16.0458  16.0667  16.1025
    16.1602  16.1768  16.1875  16.3435  16.3887  16.4068  16.4566  16.4717
    16.5081  16.5200  16.5925  16.6466  16.7339  16.7745  16.7831  16.8343
    16.9013  16.9413  16.9487  16.9885  17.0513  17.1499  17.1995  17.3080
    17.3974  17.5019  17.5182  17.5415  17.7489  17.7953  17.8199  17.9103
    18.0058  18.0613  18.1265  18.1702  18.2788  18.3220  18.3419  18.4993
    18.6139  18.6726  18.7798  18.8592  18.9240  18.9473  19.0432  19.0815
    19.2115  19.2649  19.3446  19.3912  19.4811  19.4904  19.5647  19.5864
    19.5987  19.6560  19.6635  19.7150  19.8168  19.8701  19.9509  19.9937
    20.0306  20.1255  20.1588  20.2471  20.2883  20.3435  20.3892  20.4197
    20.5218  20.5379  20.5458  20.6098  20.7209  20.8237  20.8252  20.8501
    20.9014  21.0974  21.1299  21.1660  21.2146  21.2548  21.4207  21.4341
    21.5431  21.5617  21.5955  21.6003  21.7429  21.7674  21.7988  21.8660
    21.8840  22.0037  22.0475  22.2020  22.2264  22.3528  22.3894  22.4490
    22.4751  22.5132  22.5442  22.6345  22.7177  22.7329  22.9592  23.0273
    23.0618  23.1419  23.1853

          k =-0.5000 0.2435 0.0000 ( 30444 PWs)   bands (ev):

   -73.6179 -73.3199 -73.3164 -73.2391 -73.0712 -73.0480 -72.9317 -72.9005
   -43.8403 -43.6484 -43.6410 -43.6058 -43.4831 -43.4322 -43.3624 -43.3357
   -43.2812 -43.2703 -43.2402 -43.2261 -43.1664 -43.1570 -43.1356 -43.1106
   -43.0999 -42.9462 -42.9197 -42.9005 -42.9002 -42.7150 -42.7002 -42.6385
   -23.4128 -20.2136 -19.8544 -19.7868 -19.5654 -19.5525 -19.3363 -19.2770
   -19.2261 -19.1676 -19.1110 -19.0048 -18.8948 -18.7976 -18.7740 -18.7437
   -18.7162 -18.6891 -18.5935 -17.0858  -8.7256  -8.6688  -8.0826  -7.9935
    -7.8805  -7.8449  -7.7889  -7.7424  -7.7330  -7.5292  -7.5178  -7.4161
    -7.3444  -7.2716  -7.2194  -7.1816  -7.0424  -6.9308  -6.7260  -6.3558
    -6.2816  -6.1801  -6.0653  -6.0033  -5.9519  -5.8890  -5.8428  -5.8081
    -5.6827  -5.6346  -5.3940  -5.3210  -5.1813  -5.0855  -5.0254  -4.8955
    -4.8573  -4.7183  -4.6410  -4.4130  -4.3819  -4.3713  -4.3514  -4.2788
    -4.1789  -3.9450  -3.9008  -3.7933  -3.7415  -3.5710  -3.5098  -3.2715
    -3.0746  -3.0082  -2.9007  -2.8198  -2.6778  -2.6460  -2.2275  -2.1594
    -1.9152  -1.7353  -1.6587  -1.6252  -1.5433  -1.5289  -1.4881  -1.3061
    -1.2704  -1.1587  -1.1009  -0.8485  -0.8007  -0.7035  -0.6887  -0.4395
    -0.2824  -0.1925  -0.1735  -0.1034   0.0430   0.2774   0.3440   1.7171
     2.6237   2.6503   2.8484   2.8638   2.9417   3.0011   3.0538   3.2152
     3.3227   3.6317   3.6882   3.9859   4.0532   4.1532   4.4196   4.4975
     4.7337   4.9339   4.9812   5.0829   5.3521   5.4098   5.8768   5.8828
     6.3872   6.4363   6.6474   6.6750   6.7866   6.8541   7.1606   7.2005
     7.2490   7.5137   7.6748   7.7586   7.7978   7.9935   8.2879   8.3823
     8.6896   8.7988   8.8512   9.0281   9.1116   9.1415   9.4046   9.4944
     9.6004   9.7595   9.8724  10.0600  10.2670  10.3173  10.3819  10.4759
    10.5597  10.5840  10.7365  10.8049  10.8800  10.8998  11.0543  11.1492
    11.2641  11.3490  11.4096  11.5156  11.6675  11.6955  11.8282  11.8604
    12.0094  12.1821  12.2381  12.3155  12.4628  12.5958  12.6357  12.7377
    12.8001  12.8085  12.9003  12.9678  12.9967  13.0360  13.0613  13.0870
    13.1726  13.2126  13.3153  13.3930  13.4737  13.5521  13.5854  13.6883
    13.7978  13.8715  13.9345  13.9802  14.0884  14.1448  14.2406  14.2680
    14.3956  14.4676  14.4983  14.5928  14.6981  14.7419  14.7795  14.8413
    14.8699  14.9142  14.9375  15.0037  15.0392  15.0949  15.1654  15.2219
    15.3370  15.3823  15.4527  15.4888  15.6038  15.6396  15.6763  15.7015
    15.8146  15.8849  15.9628  15.9910  16.0254  16.0770  16.1475  16.1708
    16.2562  16.2987  16.4288  16.4579  16.4793  16.5137  16.6134  16.6494
    16.7523  16.7860  16.8277  16.8665  16.9011  17.0111  17.1448  17.1726
    17.2933  17.3407  17.3753  17.4135  17.4773  17.6159  17.6522  17.6843
    17.7847  17.8668  17.9675  18.0086  18.0838  18.1641  18.1925  18.2636
    18.3017  18.4034  18.4674  18.5790  18.6326  18.7027  18.7561  18.8119
    18.8642  18.9650  19.0598  19.0809  19.1150  19.2149  19.2454  19.3152
    19.4368  19.4925  19.5493  19.5898  19.8171  19.8430  19.8837  19.9142
    19.9610  20.0334  20.0764  20.1537  20.2249  20.2541  20.3506  20.4871
    20.5272  20.6619  20.7784  20.8508  20.8989  21.0221  21.0679  21.1299
    21.2373  21.2767  21.3501  21.4477  21.4696  21.4976  21.5455  21.5813
    21.7078  21.8656  21.9402  22.0203  22.0914  22.1660  22.2453  22.2962
    22.3957  22.4389  22.5282  22.5935  22.6756  22.7053  22.7481  22.8615
    22.8782  22.9310  22.9804  23.0665  23.1955  23.2022  23.2945  23.3314
    23.3857  23.4264  23.5052

          k =-0.5000-0.4870 0.0000 ( 30440 PWs)   bands (ev):

   -73.6178 -73.3200 -73.3165 -73.2390 -73.0713 -73.0481 -72.9316 -72.9003
   -43.8402 -43.6484 -43.6410 -43.6058 -43.4832 -43.4325 -43.3626 -43.3365
   -43.2805 -43.2690 -43.2368 -43.2237 -43.1692 -43.1574 -43.1416 -43.1067
   -43.1006 -42.9461 -42.9193 -42.9008 -42.9005 -42.7148 -42.7000 -42.6389
   -23.4127 -20.2031 -19.8456 -19.7551 -19.5438 -19.5352 -19.2559 -19.1638
   -19.1365 -19.0286 -19.0157 -19.0079 -18.9820 -18.9660 -18.8912 -18.8782
   -18.8123 -18.7794 -18.5939 -17.0842  -8.6994  -8.6604  -8.0871  -7.9734
    -7.8484  -7.6696  -7.6574  -7.5311  -7.4617  -7.3798  -7.3381  -7.2527
    -7.1274  -7.0399  -6.9085  -6.8706  -6.8683  -6.8374  -6.8106  -6.6231
    -6.6027  -6.5073  -6.4246  -6.2065  -6.1146  -6.0197  -5.9811  -5.7872
    -5.7347  -5.5887  -5.5514  -5.4447  -5.2356  -5.0676  -5.0172  -4.9618
    -4.8955  -4.8352  -4.8199  -4.7570  -4.7366  -4.6819  -4.6123  -4.3299
    -4.3152  -3.8090  -3.7230  -3.6726  -3.6164  -3.4311  -3.3960  -3.3229
    -3.2619  -3.1488  -2.9396  -2.8322  -2.4076  -2.4066  -2.1353  -2.0712
    -2.0093  -1.9809  -1.8747  -1.6420  -1.5004  -1.3513  -1.3307  -1.2688
    -1.1228  -1.0876  -0.9876  -0.8081  -0.6929  -0.6762  -0.5284  -0.4714
    -0.2707  -0.1480  -0.0382   0.0206   0.1183   0.1305   0.1498   1.8206
     2.4861   2.5170   2.5654   2.5773   2.8269   2.9033   3.1148   3.1498
     3.3438   3.8240   3.8489   4.0151   4.2080   4.4038   4.5043   4.5831
     4.6856   5.3106   5.4687   5.5108   5.7504   5.7559   5.8457   5.8796
     6.0206   6.0266   6.2002   6.2346   6.4682   6.5675   6.7169   6.8048
     7.0224   7.2601   7.3494   7.5242   7.7026   8.0760   8.1167   8.3443
     8.3830   8.4646   8.6771   8.8087   9.2494   9.2622   9.3162   9.4821
     9.5184   9.5267   9.8286   9.8783  10.1313  10.1502  10.5485  10.7136
    10.9451  11.0361  11.1821  11.1901  11.2440  11.3895  11.5778  11.7151
    12.0099  12.0314  12.2553  12.3042  12.3314  12.4528  12.5051  12.5625
    12.5872  12.6986  12.7987  12.8287  12.8797  12.9219  13.0462  13.0752
    13.1395  13.2188  13.2357  13.2771  13.2801  13.3654  13.3968  13.4448
    13.4732  13.4747  13.5750  13.6179  13.6279  13.6388  13.6537  13.6595
    13.7125  13.7208  13.7457  13.7978  13.8490  13.8841  13.9196  13.9972
    14.0496  14.0894  14.1749  14.2229  14.2770  14.3242  14.3319  14.3834
    14.4538  14.5155  14.5915  14.6167  14.6637  14.7066  14.7981  14.8479
    14.9319  14.9812  15.0996  15.1191  15.1508  15.1852  15.2555  15.2906
    15.3334  15.3878  15.5175  15.5725  15.6056  15.6432  15.6485  15.7525
    15.8185  15.9181  16.0838  16.1280  16.2051  16.2768  16.3045  16.3988
    16.4816  16.6507  16.7247  16.7603  16.9204  16.9493  17.0011  17.0389
    17.1171  17.1707  17.2985  17.3568  17.4810  17.5274  17.5682  17.5937
    17.6265  17.6482  17.7685  17.8358  17.9095  17.9296  17.9830  18.0194
    18.3339  18.3714  18.5547  18.6686  18.7654  18.8386  18.8847  18.9830
    18.9885  19.0365  19.0491  19.1700  19.1852  19.3107  19.3532  19.4812
    19.5376  19.6484  19.6658  19.6726  19.6978  20.0519  20.0984  20.1566
    20.2267  20.3685  20.4627  20.5031  20.5946  20.8014  20.8281  20.8683
    20.9870  21.0117  21.0493  21.0904  21.1117  21.2125  21.2264  21.2359
    21.2701  21.2892  21.3729  21.3795  21.4499  21.4738  21.5253  21.5577
    21.6063  21.6493  21.7166  21.8164  21.8645  21.9559  21.9887  22.0759
    22.1019  22.1483  22.1890  22.2865  22.2940  22.3464  22.3591  22.4845
    22.5442  22.6165  22.7204  22.7722  22.8942  22.9377  23.0035  23.0302
    23.0659  23.1890  23.2616

          k =-0.2500 0.2435 0.0000 ( 30434 PWs)   bands (ev):

   -73.6187 -73.3230 -73.3149 -73.2395 -73.0726 -73.0481 -72.9329 -72.9009
   -43.8470 -43.6509 -43.6381 -43.6060 -43.4831 -43.4325 -43.3624 -43.3361
   -43.2797 -43.2705 -43.2518 -43.2333 -43.1618 -43.1569 -43.1454 -43.1289
   -43.0525 -42.9563 -42.9082 -42.9002 -42.8925 -42.7544 -42.6536 -42.6380
   -23.4128 -20.2981 -19.9446 -19.8241 -19.6772 -19.5557 -19.4162 -19.3458
   -19.2371 -19.1338 -19.1103 -18.8988 -18.8696 -18.8185 -18.7845 -18.7373
   -18.5926 -18.5428 -18.4702 -17.0856  -8.9604  -8.7181  -8.4378  -8.4223
    -8.1912  -8.1536  -8.0515  -7.8284  -7.6704  -7.4145  -7.3371  -7.2440
    -7.2137  -7.1184  -7.0520  -6.9831  -6.9394  -6.9204  -6.8063  -6.6052
    -6.4489  -6.3028  -6.0382  -5.9459  -5.8723  -5.7831  -5.6307  -5.5164
    -5.4756  -5.2948  -5.2200  -5.1403  -5.0344  -4.9601  -4.9185  -4.8174
    -4.6799  -4.6309  -4.5669  -4.4585  -4.4261  -4.3642  -4.3191  -4.1630
    -4.0521  -3.8080  -3.7222  -3.6253  -3.5888  -3.5047  -3.4181  -3.3775
    -3.1685  -3.0906  -3.0332  -2.7418  -2.6529  -2.4037  -2.3336  -2.2031
[...]
    16.1451  16.1816  16.1861  16.3472  16.3889  16.4090  16.4566  16.4726
    16.5124  16.5282  16.5876  16.6448  16.7257  16.7689  16.7837  16.8338
    16.9049  16.9417  16.9489  16.9908  17.0460  17.1559  17.2026  17.3023
    17.4026  17.5064  17.5200  17.5376  17.7466  17.7990  17.8213  17.9199
    18.0051  18.0620  18.1258  18.1706  18.2798  18.3269  18.3478  18.4928
    18.6154  18.6746  18.7734  18.8622  18.9255  18.9342  19.0432  19.0858
    19.2142  19.2651  19.3492  19.3938  19.4781  19.4936  19.5609  19.5899
    19.6013  19.6532  19.6671  19.7158  19.8203  19.8712  19.9493  19.9946
    20.0271  20.1254  20.1640  20.2481  20.2888  20.3427  20.3909  20.4228
    20.5275  20.5408  20.5450  20.6078  20.7144  20.8184  20.8269  20.8459
    20.9149  21.0975  21.1306  21.1662  21.2174  21.2557  21.4181  21.4400
    21.5379  21.5682  21.5943  21.6020  21.7404  21.7668  21.7926  21.8589
    21.8801  22.0041  22.0480  22.1948  22.2283  22.3574  22.3938  22.4473
    22.4659  22.5187  22.5487  22.6318  22.7034  22.7324  22.9600  23.0313
    23.0579  23.1467  23.1879

          k =-0.5000 0.2435 0.0000 ( 30444 PWs)   bands (ev):

   -73.7536 -73.3090 -73.3087 -73.1657 -73.0729 -73.0558 -72.9400 -72.9055
   -44.0269 -43.7727 -43.6353 -43.6325 -43.4936 -43.4817 -43.3710 -43.3215
   -43.2707 -43.2381 -43.2257 -43.1723 -43.1598 -43.1384 -43.0992 -43.0891
   -43.0771 -42.9585 -42.9245 -42.9093 -42.9041 -42.7209 -42.7083 -42.6344
   -23.3921 -20.2318 -19.8796 -19.7912 -19.5669 -19.5588 -19.3383 -19.2803
   -19.2236 -19.1727 -19.1163 -19.0141 -18.8852 -18.8000 -18.7737 -18.7406
   -18.7173 -18.6874 -18.6288 -17.0971  -8.7199  -8.7004  -8.0991  -8.0311
    -7.8801  -7.8455  -7.7881  -7.7443  -7.7270  -7.5428  -7.5307  -7.4244
    -7.3568  -7.2858  -7.2207  -7.1851  -7.0454  -6.9327  -6.7310  -6.3679
    -6.2869  -6.2200  -6.0829  -5.9942  -5.9554  -5.8931  -5.8455  -5.8116
    -5.6894  -5.6309  -5.4226  -5.3130  -5.1873  -5.1054  -5.0183  -4.9012
    -4.8573  -4.7310  -4.6403  -4.4202  -4.3828  -4.3733  -4.3610  -4.2840
    -4.1808  -3.9520  -3.8991  -3.8027  -3.7322  -3.5779  -3.5014  -3.2829
    -3.0825  -3.0195  -2.9079  -2.8284  -2.6869  -2.6469  -2.2475  -2.1484
    -1.9159  -1.7402  -1.6602  -1.6272  -1.5429  -1.5280  -1.4933  -1.3111
    -1.2734  -1.1634  -1.0955  -0.8918  -0.8417  -0.7190  -0.6705  -0.4148
    -0.2734  -0.1821  -0.1554  -0.1074   0.0487   0.2826   0.3628   1.7220
     2.5236   2.6283   2.8512   2.8644   2.9558   3.0010   3.0886   3.2215
     3.3204   3.6271   3.6972   3.9843   4.0537   4.1541   4.4173   4.5022
     4.7304   4.9384   4.9759   5.0928   5.3535   5.4090   5.8768   5.8851
     6.3880   6.4359   6.6490   6.6783   6.7793   6.8586   7.1592   7.2011
     7.2481   7.5127   7.6732   7.7569   7.7971   7.9900   8.2863   8.3815
     8.6891   8.7927   8.8561   9.0282   9.1054   9.1399   9.4040   9.4866
     9.5985   9.7598   9.8735  10.0522  10.2661  10.3178  10.3755  10.4715
    10.5585  10.5820  10.7346  10.8051  10.8794  10.9038  11.0564  11.1526
    11.2610  11.3467  11.4097  11.5117  11.6623  11.6932  11.8303  11.8592
    12.0076  12.1777  12.2318  12.3087  12.4578  12.5877  12.6388  12.7315
    12.7960  12.8058  12.8971  12.9586  12.9955  13.0342  13.0627  13.0934
    13.1731  13.2144  13.3174  13.3892  13.4723  13.5549  13.5811  13.6876
    13.7934  13.8659  13.9354  13.9807  14.0871  14.1434  14.2398  14.2687
    14.3995  14.4648  14.4974  14.5917  14.6933  14.7354  14.7791  14.8442
    14.8746  14.9158  14.9390  15.0014  15.0413  15.1002  15.1680  15.2210
    15.3419  15.3868  15.4561  15.4824  15.5954  15.6444  15.6710  15.7153
    15.8094  15.8834  15.9574  15.9887  16.0200  16.0744  16.1487  16.1743
    16.2575  16.2991  16.4264  16.4640  16.4813  16.5129  16.6129  16.6535
    16.7508  16.7870  16.8292  16.8671  16.9062  17.0102  17.1404  17.1724
    17.2851  17.3369  17.3775  17.4075  17.4807  17.6135  17.6496  17.6841
    17.7863  17.8686  17.9648  18.0070  18.0840  18.1630  18.1944  18.2669
    18.3001  18.4036  18.4688  18.5805  18.6395  18.7064  18.7551  18.8108
    18.8657  18.9706  19.0633  19.0835  19.1155  19.2190  19.2463  19.3233
    19.4352  19.4943  19.5473  19.5925  19.8105  19.8448  19.8916  19.9095
    19.9645  20.0342  20.0736  20.1555  20.2296  20.2607  20.3504  20.4867
    20.5292  20.6656  20.7712  20.8570  20.8984  21.0160  21.0612  21.1267
    21.2312  21.2709  21.3496  21.4372  21.4713  21.5012  21.5458  21.5855
    21.7008  21.8686  21.9353  22.0196  22.0769  22.1677  22.2448  22.2953
    22.3878  22.4396  22.5218  22.5931  22.6723  22.7024  22.7498  22.8604
    22.8785  22.9316  22.9833  23.0638  23.1876  23.2036  23.2990  23.3329
    23.3842  23.4244  23.5050

          k =-0.5000-0.4870 0.0000 ( 30440 PWs)   bands (ev):

   -73.7535 -73.3091 -73.3088 -73.1656 -73.0730 -73.0558 -72.9398 -72.9054
   -44.0268 -43.7727 -43.6354 -43.6325 -43.4940 -43.4816 -43.3712 -43.3223
   -43.2688 -43.2340 -43.2227 -43.1767 -43.1598 -43.1440 -43.0968 -43.0889
   -43.0770 -42.9584 -42.9242 -42.9097 -42.9041 -42.7207 -42.7081 -42.6347
   -23.3920 -20.2214 -19.8722 -19.7594 -19.5479 -19.5404 -19.2563 -19.1618
   -19.1474 -19.0340 -19.0173 -19.0078 -18.9826 -18.9647 -18.8914 -18.8773
   -18.8031 -18.7805 -18.6310 -17.0956  -8.6941  -8.6922  -8.1101  -8.0073
    -7.8274  -7.6811  -7.6711  -7.5513  -7.4645  -7.3886  -7.3446  -7.2492
    -7.1362  -7.0402  -6.9104  -6.8723  -6.8709  -6.8469  -6.8111  -6.6228
    -6.6084  -6.5131  -6.4303  -6.2381  -6.1211  -6.0476  -5.9769  -5.7790
    -5.7602  -5.5934  -5.5607  -5.4533  -5.2315  -5.0878  -5.0250  -4.9599
    -4.9092  -4.8262  -4.8156  -4.7556  -4.7357  -4.6828  -4.6101  -4.3537
    -4.3137  -3.8231  -3.7242  -3.6786  -3.6112  -3.4430  -3.3981  -3.3327
    -3.2549  -3.1504  -2.9487  -2.8409  -2.4187  -2.4157  -2.1376  -2.0757
    -2.0221  -1.9803  -1.8729  -1.6373  -1.4980  -1.3530  -1.3318  -1.2629
    -1.1366  -1.0947  -1.0084  -0.8576  -0.7225  -0.6944  -0.5019  -0.4366
    -0.2486  -0.1576  -0.0220   0.0078   0.1214   0.1482   0.1752   1.8253
     2.4039   2.5173   2.5619   2.5781   2.8158   2.8822   3.1298   3.1878
     3.3395   3.8274   3.8595   4.0140   4.2122   4.4016   4.4969   4.5969
     4.6738   5.3144   5.4619   5.5237   5.7456   5.7517   5.8535   5.8873
     6.0202   6.0284   6.1990   6.2362   6.4681   6.5693   6.7150   6.8063
     7.0203   7.2599   7.3452   7.5225   7.7023   8.0719   8.1144   8.3379
     8.3818   8.4577   8.6740   8.8041   9.2402   9.2659   9.3149   9.4769
     9.5230   9.5312   9.8235   9.8744  10.1313  10.1497  10.5520  10.7109
    10.9433  11.0394  11.1789  11.1857  11.2433  11.3836  11.5717  11.7065
    11.9969  12.0277  12.2457  12.2960  12.3245  12.4521  12.5081  12.5695
    12.5918  12.6999  12.7942  12.8261  12.8686  12.9191  13.0411  13.0807
    13.1385  13.2141  13.2380  13.2753  13.2787  13.3587  13.4021  13.4456
    13.4643  13.4770  13.5767  13.6113  13.6276  13.6426  13.6492  13.6652
    13.7150  13.7231  13.7517  13.7966  13.8501  13.8880  13.9230  14.0002
    14.0515  14.0906  14.1752  14.2174  14.2754  14.3237  14.3292  14.3867
    14.4536  14.5128  14.5858  14.6148  14.6636  14.7165  14.7953  14.8376
    14.9369  14.9729  15.0998  15.1181  15.1558  15.1881  15.2583  15.2863
    15.3347  15.3877  15.5034  15.5722  15.6009  15.6453  15.6517  15.7560
    15.8217  15.9258  16.0870  16.1260  16.2118  16.2744  16.3018  16.4054
    16.4805  16.6489  16.7336  16.7529  16.8994  16.9544  17.0034  17.0344
    17.1269  17.1722  17.2939  17.3594  17.4876  17.5298  17.5699  17.6003
    17.6306  17.6552  17.7667  17.8397  17.9044  17.9287  17.9824  18.0215
    18.3303  18.3760  18.5437  18.6694  18.7644  18.8397  18.8867  18.9867
    18.9964  19.0359  19.0495  19.1694  19.1846  19.3072  19.3522  19.4716
    19.5453  19.6459  19.6637  19.6703  19.6976  20.0535  20.0985  20.1564
    20.2201  20.3598  20.4614  20.5067  20.5897  20.8000  20.8255  20.8690
    20.9845  21.0106  21.0438  21.0923  21.1178  21.2103  21.2300  21.2392
    21.2758  21.2907  21.3678  21.3779  21.4528  21.4701  21.5226  21.5549
    21.6078  21.6483  21.7195  21.8169  21.8628  21.9570  21.9854  22.0772
    22.1004  22.1524  22.1935  22.2816  22.2917  22.3373  22.3658  22.4835
    22.5406  22.6200  22.7175  22.7756  22.8949  22.9344  23.0139  23.0262
    23.0742  23.1867  23.2713

          k =-0.2500 0.2435 0.0000 ( 30434 PWs)   bands (ev):

   -73.7543 -73.3132 -73.3060 -73.1661 -73.0745 -73.0557 -72.9411 -72.9059
   -44.0304 -43.7728 -43.6381 -43.6295 -43.4936 -43.4818 -43.3715 -43.3221
   -43.2782 -43.2465 -43.2331 -43.1690 -43.1541 -43.1405 -43.1306 -43.0770
   -43.0376 -42.9682 -42.9150 -42.9074 -42.8966 -42.7605 -42.6613 -42.6339
   -23.3921 -20.3163 -19.9585 -19.8341 -19.6842 -19.5582 -19.4164 -19.3533
   -19.2498 -19.1339 -19.1111 -18.8977 -18.8656 -18.8254 -18.7840 -18.7357
   -18.5926 -18.5447 -18.4975 -17.0970  -8.9859  -8.7140  -8.4398  -8.4222
    -8.2031  -8.1811  -8.0530  -7.8412  -7.6851  -7.4241  -7.3420  -7.2549
    -7.2211  -7.1212  -7.0673  -6.9949  -6.9449  -6.9116  -6.8183  -6.6099
    -6.4521  -6.2972  -6.0533  -5.9447  -5.8843  -5.7949  -5.6449  -5.5188
    -5.4842  -5.3028  -5.2332  -5.1461  -5.0402  -4.9721  -4.9164  -4.8231
    -4.6953  -4.6362  -4.5717  -4.4667  -4.4233  -4.3801  -4.3321  -4.1617
    -4.0471  -3.8111  -3.7237  -3.6248  -3.5877  -3.5030  -3.4168  -3.3867
    -3.1782  -3.1019  -3.0290  -2.7568  -2.6615  -2.4158  -2.3414  -2.2077
    -2.0381  -1.9905  -1.9480  -1.8827  -1.7502  -1.7068  -1.6335  -1.5573
    -1.5019  -1.4240  -1.3124  -1.1779  -1.0439  -0.7520  -0.6976  -0.4168
    -0.3253  -0.1570   0.0360   0.1451   0.2359   0.3433   0.5878   1.6265
     2.1433   2.3572   2.4634   2.5148   3.0506   3.2555   3.3671   3.5497
     3.7900   3.8377   3.9709   4.0473   4.1199   4.1932   4.2752   4.3396
     4.4356   4.6180   4.8314   5.1774   5.6208   5.7628   5.9969   6.0895
     6.1400   6.4701   6.5090   6.6677   6.9230   7.0473   7.1313   7.4446
     7.6023   7.6991   7.9146   8.0986   8.1614   8.3481   8.4102   8.5570
     8.6863   8.8063   8.9707   9.0778   9.0946   9.2885   9.4345   9.4515
     9.6208   9.7035   9.7983   9.8768  10.0600  10.0812  10.1757  10.3007
    10.3216  10.4098  10.5017  10.6318  10.6807  10.7387  10.8724  10.9711
    11.0400  11.1820  11.2595  11.3679  11.4313  11.5676  11.6499  11.7366
    11.8319  11.8757  11.9629  12.0378  12.0959  12.1659  12.2246  12.2714
    12.3836  12.4808  12.5090  12.6423  12.7613  12.7887  12.8561  12.9083
    12.9948  13.0235  13.1582  13.2631  13.3285  13.3891  13.4568  13.5025
    13.5943  13.7085  13.8250  13.8892  13.9335  14.0030  14.0650  14.2001
    14.2831  14.3615  14.4644  14.5172  14.6076  14.6981  14.7782  14.8561
    14.9319  15.0087  15.0997  15.1931  15.2676  15.3040  15.3691  15.4239
    15.4962  15.5434  15.6070  15.6816  15.7230  15.8250  15.8710  15.9219
    15.9492  16.0336  16.1081  16.1430  16.1844  16.2500  16.2731  16.2957
    16.4046  16.4797  16.5858  16.6145  16.6929  16.7645  16.7980  16.9208
    16.9614  17.0134  17.0807  17.1696  17.2697  17.3334  17.4063  17.4544
    17.5096  17.5637  17.6182  17.7063  17.7690  17.8090  17.8618  17.9110
    17.9720  18.0414  18.0623  18.1339  18.2084  18.3029  18.3468  18.4057
    18.4567  18.5221  18.6246  18.7155  18.7785  18.8567  18.9042  18.9780
    19.0453  19.1286  19.2037  19.2704  19.3236  19.4034  19.5146  19.6137
    19.6655  19.7411  19.8180  19.8768  19.9056  19.9890  20.0419  20.1833
    20.2583  20.3137  20.4133  20.4933  20.5636  20.6230  20.6864  20.7494
    20.8836  20.9437  20.9702  21.0560  21.0831  21.1451  21.2079  21.2928
    21.3157  21.3588  21.4422  21.5040  21.5535  21.5687  21.6024  21.6927
    21.7830  21.8514  21.9123  21.9445  21.9755  22.0569  22.1179  22.1758
    22.2409  22.3360  22.3771  22.4468  22.4819  22.5362  22.6439  22.7153
    22.7909  22.8195  22.8928  22.9415  22.9825  23.0434  23.0851  23.1451
    23.2047  23.2690  23.3484

     the Fermi energy is    -0.6711 ev

!    total energy              =   -2194.10409896 Ry
     Harris-Foulkes estimate   =   -2194.10409896 Ry
     estimated scf accuracy    <          2.2E-09 Ry

     The total energy is the sum of the following terms:

     one-electron contribution =  -25646.24309511 Ry
     hartree contribution      =   12855.11451008 Ry
     xc contribution           =    -345.74272254 Ry
     ewald contribution        =   10940.24005317 Ry
     Hubbard energy            =       2.52813450 Ry
     smearing contrib. (-TS)   =      -0.00097905 Ry

     convergence has been achieved in  24 iterations

     Forces acting on atoms (Ry/au):


     negative rho (up, down):  0.571E+00 0.000E+00
     atom    1 type  1   force =    -0.00368256   -0.00632222   -0.00059921
     atom    2 type  1   force =    -0.00254021    0.00263041   -0.00014274
     atom    3 type  2   force =     0.04042825    0.00326705    0.00012549
     atom    4 type  2   force =     0.00129418    0.00404334   -0.00029382
     atom    5 type  1   force =    -0.00038227   -0.03754707    0.00022489
     atom    6 type  1   force =     0.00460425    0.03867704    0.00031007
     atom    7 type  1   force =     0.00196158   -0.00671570   -0.00034493
     atom    8 type  1   force =    -0.02122667    0.00085955   -0.00053277
     atom    9 type  2   force =    -0.00141060   -0.00054641   -0.00004849
     atom   10 type  2   force =    -0.00624915    0.00234282   -0.00044858
     atom   11 type  1   force =    -0.01096325    0.02745315    0.00036376
     atom   12 type  1   force =    -0.00557239   -0.02489726    0.00034076
     atom   13 type  1   force =    -0.02816042   -0.00156999    0.00014295
     atom   14 type  1   force =    -0.00560798   -0.00839647   -0.00052373
     atom   15 type  1   force =    -0.00070429    0.00323341   -0.00014526
     atom   16 type  2   force =    -0.04501070    0.00406924    0.00010073
     atom   17 type  2   force =     0.00398058    0.00455692   -0.00031724
     atom   18 type  1   force =    -0.00024075   -0.03897371    0.00027851
     atom   19 type  1   force =     0.00315618    0.03961857    0.00016879
     atom   20 type  1   force =     0.00548268   -0.00472627    0.00050727
     atom   21 type  1   force =     0.01962295    0.00154832   -0.00065520
     atom   22 type  2   force =     0.02527319   -0.00060316    0.00009655
     atom   23 type  2   force =     0.00469525    0.00012783    0.00062510
     atom   24 type  1   force =     0.01130854    0.01489319    0.00004199
     atom   25 type  1   force =     0.00291441   -0.00990184    0.00007295
     atom   26 type  1   force =     0.01163362   -0.00719232    0.00029855
     atom   27 type  3   force =    -0.00000253   -0.00039791    0.00013702
     atom   28 type  3   force =    -0.00000063    0.00022726    0.00020055
     atom   29 type  3   force =     0.00007051   -0.00000141   -0.00038062
     atom   30 type  3   force =     0.00006583   -0.00008721   -0.00040009
     atom   31 type  1   force =    -0.00325337    0.00011272    0.00044721
     atom   32 type  1   force =    -0.00235253    0.00004759    0.00049967
     atom   33 type  3   force =     0.00086826    0.00017053   -0.00015010

     Total force =     0.002075     Total SCF correction =     0.000192

     bfgs converged in  12 scf cycles and  11 bfgs steps
     (criteria: energy < 0.10E-03, force < 0.10E-02)

     End of BFGS Geometry Optimization

     Final energy   =   -2194.1040989611 Ry
Begin final coordinates

ATOMIC_POSITIONS (crystal)
O0       0.000000000   0.000000000   0.379810116    0   0   1
O0       0.000000000   0.500000000   0.405040249    0   0   1
Ru1      0.250000000   0.500000000   0.453898882    0   0   1
Ru1      0.000000000   0.000000000   0.453192839    0   0   1
O0       0.250000000   0.810000000   0.453107400    0   0   1
O0       0.250000000   0.190000000   0.452950979    0   0   1
O0       0.000000000   0.500000000   0.500148358    0   0   1
O0       0.000000000   0.000000000   0.525880990    0   0   1
Ru1      0.250000000   0.000000000   0.573859653    0   0   1
Ru1      0.000000000   0.500000000   0.569280788    0   0   1
O0       0.250000000   0.690000000   0.573334441    0   0   1
O0       0.250000000   0.310000000   0.575495718    0   0   1
O0       0.000000000   0.000000000   0.617973898    0   0   1
O0       0.500000000   0.000000000   0.379425432    0   0   1
O0       0.500000000   0.500000000   0.402856140    0   0   1
Ru1      0.750000000   0.500000000   0.453945229    0   0   1
Ru1      0.500000000   0.000000000   0.452902446    0   0   1
O0       0.750000000   0.810000000   0.453002800    0   0   1
O0       0.750000000   0.190000000   0.452966888    0   0   1
O0       0.500000000   0.500000000   0.500835183    0   0   1
O0       0.500000000   0.000000000   0.525634297    0   0   1
Ru1      0.750000000   0.000000000   0.579276059    0   0   1
Ru1      0.500000000   0.500000000   0.577805772    0   0   1
O0       0.750000000   0.690000000   0.575950716    0   0   1
O0       0.750000000   0.310000000   0.578247547    0   0   1
O0       0.500000000   0.000000000   0.615945107    0   0   1
H2      -0.001149378   0.602186905   0.377257875
H2       0.499436964   0.628863062   0.382401845
H2       0.147530195   0.024342471   0.367519837
H2       0.647180399   0.026318616   0.367201732
O0       0.500070000   0.529888078   0.649446072    0   1   1
O0       0.499990000   0.339333061   0.678847743    0   1   1
H2       0.499960000   0.400318618   0.713196969    0   1   1
End final coordinates


 
     init_run     :    160.24s CPU    913.30s WALL (       1 calls)
     electrons    :  84919.15s CPU  86014.47s WALL (      12 calls)
     update_pot   :    290.73s CPU    295.02s WALL (      11 calls)
     forces       :   2203.67s CPU   2227.10s WALL (      12 calls)

     Called by init_run:
     wfcinit      :     99.94s CPU    852.67s WALL (       1 calls)
     potinit      :     10.32s CPU     10.37s WALL (       1 calls)

     Called by electrons:
     c_bands      :  54653.16s CPU  55373.59s WALL (     362 calls)
     sum_band     :  17969.28s CPU  18118.71s WALL (     362 calls)
     v_of_rho     :    578.98s CPU    600.84s WALL (     370 calls)
     newd         :  11803.01s CPU  11840.49s WALL (     370 calls)
     mix_rho      :    104.33s CPU    104.84s WALL (     362 calls)

     Called by c_bands:
     init_us_2    :     87.99s CPU     89.39s WALL (    2283 calls)
     cegterg      :  54108.19s CPU  54768.40s WALL (    1086 calls)

     Called by *egterg:
     h_psi        :  28613.66s CPU  28761.34s WALL (    2683 calls)
     s_psi        :   3547.09s CPU   3551.56s WALL (    2755 calls)
     g_psi        :     98.50s CPU     98.68s WALL (    1594 calls)
     cdiaghg      :   4884.69s CPU   4893.46s WALL (    2635 calls)

     Called by h_psi:
     add_vuspsi   :   3469.65s CPU   3476.23s WALL (    2683 calls)
     vhpsi        :   3443.10s CPU   3452.53s WALL (    2683 calls)

     General routines
     calbec       :   8556.47s CPU   8583.57s WALL (   18374 calls)
     fft          :    665.68s CPU    681.82s WALL (    6031 calls)
     ffts         :     13.21s CPU     13.40s WALL (     732 calls)
     fftw         :  16891.24s CPU  17025.79s WALL ( 2108190 calls)
     interpolate  :     94.82s CPU     95.37s WALL (     732 calls)
     davcio       :      0.15s CPU    887.74s WALL (    2319 calls)
 
     Parallel routines
     fft_scatter  :   5584.24s CPU   5709.56s WALL ( 2114953 calls)
     Hubbard U routines
     new_ns       :    853.76s CPU    927.99s WALL (     362 calls)
     vhpsi        :   3443.10s CPU   3452.53s WALL (    2683 calls)
     force_hub    :    857.49s CPU    877.58s WALL (      12 calls)
 
     PWSCF        :     1d    0h26m CPU        1d    0h58m WALL

 
   This run was terminated on:   9:47: 2  12Aug2014            

=------------------------------------------------------------------------------=
   JOB DONE.
=------------------------------------------------------------------------------=
