
     Program PWSCF v.5.0.2 (svn rev. 9656) starts on  1Apr2014 at  9:13:41 

     This program is part of the open-source Quantum ESPRESSO suite
     for quantum simulation of materials; please cite
         "P. Giannozzi et al., J. Phys.:Condens. Matter 21 395502 (2009);
          URL http://www.quantum-espresso.org", 
     in publications or presentations arising from this work. More details at
     http://www.quantum-espresso.org/quote.php

     Parallel version (MPI), running on    16 processors
     R & G space division:  proc/nbgrp/npool/nimage =      16

     Current dimensions of program PWSCF are:
     Max number of different atomic species (ntypx) = 10
     Max number of k-points (npk) =  40000
     Max angular momentum in pseudopotentials (lmaxx) =  3
     Reading input from pwscf.in
Warning: card &CELL ignored
Warning: card / ignored

     Subspace diagonalization in iterative solution of the eigenvalue problem:
     a serial algorithm will be used


     Parallelization info
     --------------------
     sticks:   dense  smooth     PW     G-vecs:    dense   smooth      PW
     Min         354     114     31                84034    15196    2249
     Max         355     115     32                84047    15232    2264
     Sum        5677    1827    505              1344679   243423   36075



     bravais-lattice index     =            0
     lattice parameter (alat)  =      11.7919  a.u.
     unit-cell volume          =    7123.6633 (a.u.)^3
     number of atoms/cell      =           31
     number of atomic types    =            3
     number of electrons       =       246.00
     number of Kohn-Sham states=          357
     kinetic-energy cutoff     =      40.0000  Ry
     charge density cutoff     =     500.0000  Ry
     convergence threshold     =      1.0E-06
     mixing beta               =       0.7000
     number of iterations used =            8  plain     mixing
     Exchange-correlation      = SLA  PW   PBE  PBE ( 1 4 3 4 0)
     EXX-fraction              =        0.00
     nstep                     =           50


     celldm(1)=  11.791891  celldm(2)=   0.000000  celldm(3)=   0.000000
     celldm(4)=   0.000000  celldm(5)=   0.000000  celldm(6)=   0.000000

     crystal axes: (cart. coord. in units of alat)
               a(1) = (   1.000000   0.000000   0.000000 )  
               a(2) = (   0.000000   1.026665   0.000000 )  
               a(3) = (   0.000000   0.000000   4.231793 )  

     reciprocal axes: (cart. coord. in units 2 pi/alat)
               b(1) = (  1.000000  0.000000  0.000000 )  
               b(2) = (  0.000000  0.974028  0.000000 )  
               b(3) = (  0.000000  0.000000  0.236306 )  


     PseudoPot. # 1 for O  read from file:
     /home/camp/zhonxu/pseudo/o_pbe_v1.01.uspp.F.UPF
     MD5 check sum: 2bcb18d16ea4b960afae9ec6d52f22d2
     Pseudo is Ultrasoft + core correction, Zval =  6.0
     Generated by new atomic code, or converted to UPF format
     Using radial grid of  737 points,  5 beta functions with: 
                l(1) =   0
                l(2) =   0
                l(3) =   1
                l(4) =   1
                l(5) =   2
     Q(r) pseudized with  8 coefficients,  rinner =    0.900   0.900   0.900
                                                       0.900   0.900

     PseudoPot. # 2 for Ru read from file:
     /home/camp/zhonxu/pseudo/ru_pbe_v1.uspp.F.UPF
     MD5 check sum: df00be1c11b23341d9806d8f1dfa10cf
     Pseudo is Ultrasoft + core correction, Zval = 16.0
     Generated by new atomic code, or converted to UPF format
     Using radial grid of  967 points,  6 beta functions with: 
                l(1) =   0
                l(2) =   0
                l(3) =   1
                l(4) =   1
                l(5) =   2
                l(6) =   2
     Q(r) pseudized with  8 coefficients,  rinner =    1.300   1.300   1.300
                                                       1.300   1.300

     PseudoPot. # 3 for H  read from file:
     /home/camp/zhonxu/pseudo/h_pbe_v1.uspp.F.UPF
     MD5 check sum: 3408e3ff4ec8b0a4e358431e7e038a48
     Pseudo is Ultrasoft, Zval =  1.0
     Generated by new atomic code, or converted to UPF format
     Using radial grid of  615 points,  2 beta functions with: 
                l(1) =   0
                l(2) =   0
     Q(r) pseudized with  8 coefficients,  rinner =    0.700

     atomic species   valence    mass     pseudopotential
        O0             6.00    15.99940     O ( 1.00)
        Ru1           16.00   101.07000     Ru( 1.00)
        H2             1.00     1.00794     H ( 1.00)

     Starting magnetic structure 
     atomic species   magnetization
        O0           0.000
        Ru1          0.000
        H2           0.000

     No symmetry found



   Cartesian axes

     site n.     atom                  positions (alat units)
         1           O0  tau(   1) = (   0.0000000   0.0000000   1.6080390  )
         2           O0  tau(   2) = (   0.0000000   0.5133323   1.7023233  )
         3           Ru1 tau(   3) = (   0.2500000   0.5133323   1.9175523  )
         4           Ru1 tau(   4) = (   0.0000000   0.0000000   1.9215302  )
         5           O0  tau(   5) = (   0.2500000   0.8315984   1.9195836  )
         6           O0  tau(   6) = (   0.2500000   0.1950663   1.9193297  )
         7           O0  tau(   7) = (   0.0000000   0.5133323   2.1106490  )
         8           O0  tau(   8) = (   0.0000000   0.0000000   2.2345136  )
         9           Ru1 tau(   9) = (   0.2500000   0.0000000   2.4487269  )
        10           Ru1 tau(  10) = (   0.0000000   0.5133323   2.4113179  )
        11           O0  tau(  11) = (   0.2500000   0.7083986   2.4387399  )
        12           O0  tau(  12) = (   0.2500000   0.3182660   2.4402210  )
        13           O0  tau(  13) = (   0.0000000   0.0000000   2.6238385  )
        14           O0  tau(  14) = (   0.5000000   0.0000000   1.6080390  )
        15           O0  tau(  15) = (   0.5000000   0.5133323   1.7023233  )
        16           Ru1 tau(  16) = (   0.7500000   0.5133323   1.9175523  )
        17           Ru1 tau(  17) = (   0.5000000   0.0000000   1.9215302  )
        18           O0  tau(  18) = (   0.7500000   0.8315984   1.9195836  )
        19           O0  tau(  19) = (   0.7500000   0.1950663   1.9193297  )
        20           O0  tau(  20) = (   0.5000000   0.5133323   2.1106490  )
        21           O0  tau(  21) = (   0.5000000   0.0000000   2.2345136  )
        22           Ru1 tau(  22) = (   0.7500000   0.0000000   2.4487269  )
        23           Ru1 tau(  23) = (   0.5000000   0.5133323   2.4113179  )
        24           O0  tau(  24) = (   0.7500000   0.7083986   2.4387399  )
        25           O0  tau(  25) = (   0.7500000   0.3182660   2.4401787  )
        26           O0  tau(  26) = (   0.5000000   0.0000000   2.6238385  )
        27           H2  tau(  27) = (  -0.0004100   0.6466653   1.6162063  )
        28           H2  tau(  28) = (   0.4995900   0.6466653   1.6162063  )
        29           H2  tau(  29) = (   0.1464700   0.0296706   1.5559879  )
        30           H2  tau(  30) = (   0.6464700   0.0296706   1.5559879  )
        31           O0  tau(  31) = (   0.4999100   0.5125110   2.6919281  )

     number of k points=    20  Methfessel-Paxton smearing, width (Ry)=  0.0100
                       cart. coord. in units 2pi/alat
        k(    1) = (   0.0000000   0.0000000   0.0000000), wk =   0.0625000
        k(    2) = (   0.0000000   0.2435070   0.0000000), wk =   0.1250000
        k(    3) = (   0.0000000  -0.4870139   0.0000000), wk =   0.0625000
        k(    4) = (   0.2500000   0.0000000   0.0000000), wk =   0.1250000
        k(    5) = (   0.2500000   0.2435070   0.0000000), wk =   0.1250000
        k(    6) = (   0.2500000  -0.4870139   0.0000000), wk =   0.1250000
        k(    7) = (  -0.5000000   0.0000000   0.0000000), wk =   0.0625000
        k(    8) = (  -0.5000000   0.2435070   0.0000000), wk =   0.1250000
        k(    9) = (  -0.5000000  -0.4870139   0.0000000), wk =   0.0625000
        k(   10) = (  -0.2500000   0.2435070   0.0000000), wk =   0.1250000
        k(   11) = (   0.0000000   0.0000000   0.0000000), wk =   0.0625000
        k(   12) = (   0.0000000   0.2435070   0.0000000), wk =   0.1250000
        k(   13) = (   0.0000000  -0.4870139   0.0000000), wk =   0.0625000
        k(   14) = (   0.2500000   0.0000000   0.0000000), wk =   0.1250000
        k(   15) = (   0.2500000   0.2435070   0.0000000), wk =   0.1250000
        k(   16) = (   0.2500000  -0.4870139   0.0000000), wk =   0.1250000
        k(   17) = (  -0.5000000   0.0000000   0.0000000), wk =   0.0625000
        k(   18) = (  -0.5000000   0.2435070   0.0000000), wk =   0.1250000
        k(   19) = (  -0.5000000  -0.4870139   0.0000000), wk =   0.0625000
        k(   20) = (  -0.2500000   0.2435070   0.0000000), wk =   0.1250000

     Dense  grid:  1344679 G-vectors     FFT dimensions: (  90,  90, 360)

     Smooth grid:   243423 G-vectors     FFT dimensions: (  48,  50, 216)

     Largest allocated arrays     est. size (Mb)     dimensions
        Kohn-Sham Wavefunctions        10.49 Mb     (   1926,  357)
        NL pseudopotentials            11.73 Mb     (   1926,  399)
        Each V/rho on FFT grid          5.69 Mb     ( 186300,   2)
        Each G-vector array             0.64 Mb     (  84036)
        G-vector shells                 0.31 Mb     (  40902)
     Largest temporary arrays     est. size (Mb)     dimensions
        Auxiliary wavefunctions        41.97 Mb     (   1926, 1428)
        Each subspace H/S matrix       31.12 Mb     (1428,1428)
        Each <psi_i|beta_j> matrix      2.17 Mb     (    399,  357)
        Arrays for rho mixing          22.74 Mb     ( 186300,   8)

     Check: negative/imaginary core charge=   -0.000003    0.000000

     Initial potential from superposition of free atoms
     Check: negative starting charge=(component1):   -0.260943
     Check: negative starting charge=(component2):   -0.260943

     starting charge  237.99981, renormalised to  246.00000

     negative rho (up, down):  0.270E+00 0.270E+00
     Starting wfc are  184 randomized atomic wfcs

     total cpu time spent up to now is      140.2 secs

     per-process dynamical memory:   295.6 Mb

     Self-consistent Calculation

     iteration #  1     ecut=    40.00 Ry     beta=0.70
     Davidson diagonalization with overlap
     ethr =  1.00E-02,  avg # of iterations =  6.3

     negative rho (up, down):  0.313E+00 0.313E+00

     total cpu time spent up to now is     1290.0 secs

     total energy              =   -2120.02914007 Ry
     Harris-Foulkes estimate   =   -2167.55460871 Ry
     estimated scf accuracy    <      54.12398506 Ry

     total magnetization       =     0.00 Bohr mag/cell
     absolute magnetization    =     0.01 Bohr mag/cell

     iteration #  2     ecut=    40.00 Ry     beta=0.70
     Davidson diagonalization with overlap
     ethr =  1.00E-02,  avg # of iterations =  5.9

     negative rho (up, down):  0.307E+00 0.307E+00

     total cpu time spent up to now is     2243.4 secs

     total energy              =   -1948.60052867 Ry
     Harris-Foulkes estimate   =   -2531.62993102 Ry
     estimated scf accuracy    <    5713.49657319 Ry

     total magnetization       =     0.00 Bohr mag/cell
     absolute magnetization    =     0.01 Bohr mag/cell

     iteration #  3     ecut=    40.00 Ry     beta=0.70
     Davidson diagonalization with overlap
     ethr =  1.00E-02,  avg # of iterations =  6.0

     negative rho (up, down):  0.288E+00 0.288E+00

     total cpu time spent up to now is     3305.3 secs

     total energy              =   -2143.84371574 Ry
     Harris-Foulkes estimate   =   -2202.16122496 Ry
     estimated scf accuracy    <     259.84552453 Ry

     total magnetization       =     0.00 Bohr mag/cell
     absolute magnetization    =     0.01 Bohr mag/cell

     iteration #  4     ecut=    40.00 Ry     beta=0.70
     Davidson diagonalization with overlap
     ethr =  1.00E-02,  avg # of iterations =  4.9

     negative rho (up, down):  0.282E+00 0.282E+00

     total cpu time spent up to now is     3893.1 secs

     total energy              =   -2158.60912384 Ry
     Harris-Foulkes estimate   =   -2170.15317262 Ry
     estimated scf accuracy    <      49.60975632 Ry

     total magnetization       =    -0.00 Bohr mag/cell
     absolute magnetization    =     0.01 Bohr mag/cell

     iteration #  5     ecut=    40.00 Ry     beta=0.70
     Davidson diagonalization with overlap
     ethr =  1.00E-02,  avg # of iterations =  2.5

     negative rho (up, down):  0.283E+00 0.283E+00

     total cpu time spent up to now is     4288.7 secs

     total energy              =   -2164.27599642 Ry
     Harris-Foulkes estimate   =   -2165.83592410 Ry
     estimated scf accuracy    <      47.88283986 Ry

     total magnetization       =     0.00 Bohr mag/cell
     absolute magnetization    =     0.00 Bohr mag/cell

     iteration #  6     ecut=    40.00 Ry     beta=0.70
     Davidson diagonalization with overlap
     ethr =  1.00E-02,  avg # of iterations =  1.0

     negative rho (up, down):  0.284E+00 0.284E+00

     total cpu time spent up to now is     4640.5 secs

     total energy              =   -2163.99427332 Ry
     Harris-Foulkes estimate   =   -2164.54431556 Ry
     estimated scf accuracy    <      32.35376974 Ry

     total magnetization       =     0.00 Bohr mag/cell
     absolute magnetization    =     0.00 Bohr mag/cell

     iteration #  7     ecut=    40.00 Ry     beta=0.70
     Davidson diagonalization with overlap
     ethr =  1.00E-02,  avg # of iterations =  1.0

     negative rho (up, down):  0.286E+00 0.286E+00

     total cpu time spent up to now is     4992.4 secs

     total energy              =   -2163.36118128 Ry
     Harris-Foulkes estimate   =   -2164.13534500 Ry
     estimated scf accuracy    <      19.70456145 Ry

     total magnetization       =     0.00 Bohr mag/cell
     absolute magnetization    =     0.00 Bohr mag/cell

     iteration #  8     ecut=    40.00 Ry     beta=0.70
     Davidson diagonalization with overlap
     ethr =  8.01E-03,  avg # of iterations =  1.0

     negative rho (up, down):  0.288E+00 0.287E+00

     total cpu time spent up to now is     5344.5 secs

     total energy              =   -2163.11694775 Ry
     Harris-Foulkes estimate   =   -2163.80211245 Ry
     estimated scf accuracy    <      10.39376389 Ry

     total magnetization       =     0.00 Bohr mag/cell
     absolute magnetization    =     0.00 Bohr mag/cell

     iteration #  9     ecut=    40.00 Ry     beta=0.70
     Davidson diagonalization with overlap
     ethr =  4.23E-03,  avg # of iterations =  1.1

     negative rho (up, down):  0.289E+00 0.289E+00

     total cpu time spent up to now is     5700.1 secs

     total energy              =   -2163.28147497 Ry
     Harris-Foulkes estimate   =   -2163.52201549 Ry
     estimated scf accuracy    <       2.57284843 Ry

     total magnetization       =     0.00 Bohr mag/cell
     absolute magnetization    =     0.00 Bohr mag/cell

     iteration # 10     ecut=    40.00 Ry     beta=0.70
     Davidson diagonalization with overlap
     ethr =  1.05E-03,  avg # of iterations =  4.7

     negative rho (up, down):  0.292E+00 0.292E+00

     total cpu time spent up to now is     6177.5 secs

     total energy              =   -2163.39877989 Ry
     Harris-Foulkes estimate   =   -2163.46810208 Ry
     estimated scf accuracy    <       2.81103799 Ry

     total magnetization       =     0.00 Bohr mag/cell
     absolute magnetization    =     0.00 Bohr mag/cell

     iteration # 11     ecut=    40.00 Ry     beta=0.70
     Davidson diagonalization with overlap
     ethr =  1.05E-03,  avg # of iterations =  1.1

     negative rho (up, down):  0.291E+00 0.291E+00

     total cpu time spent up to now is     6540.3 secs

     total energy              =   -2163.07627267 Ry
     Harris-Foulkes estimate   =   -2163.65238793 Ry
     estimated scf accuracy    <      14.56923339 Ry

     total magnetization       =     0.00 Bohr mag/cell
     absolute magnetization    =     0.00 Bohr mag/cell

     iteration # 12     ecut=    40.00 Ry     beta=0.70
     Davidson diagonalization with overlap
     ethr =  1.05E-03,  avg # of iterations =  1.0

     negative rho (up, down):  0.291E+00 0.291E+00

     total cpu time spent up to now is     6898.8 secs

     total energy              =   -2163.28801007 Ry
     Harris-Foulkes estimate   =   -2163.46572257 Ry
     estimated scf accuracy    <       1.64955884 Ry

     total magnetization       =     0.00 Bohr mag/cell
     absolute magnetization    =     0.00 Bohr mag/cell

     iteration # 13     ecut=    40.00 Ry     beta=0.70
     Davidson diagonalization with overlap
     ethr =  6.71E-04,  avg # of iterations =  1.0

     negative rho (up, down):  0.290E+00 0.290E+00

     total cpu time spent up to now is     7257.3 secs

     total energy              =   -2163.33419599 Ry
     Harris-Foulkes estimate   =   -2163.47160864 Ry
     estimated scf accuracy    <       1.22126532 Ry

     total magnetization       =     0.00 Bohr mag/cell
     absolute magnetization    =     0.00 Bohr mag/cell

     iteration # 14     ecut=    40.00 Ry     beta=0.70
     Davidson diagonalization with overlap
     ethr =  4.96E-04,  avg # of iterations =  1.1

     negative rho (up, down):  0.291E+00 0.291E+00

     total cpu time spent up to now is     7609.7 secs

     total energy              =   -2163.38962663 Ry
     Harris-Foulkes estimate   =   -2163.41192926 Ry
     estimated scf accuracy    <       0.42231554 Ry

     total magnetization       =     0.00 Bohr mag/cell
     absolute magnetization    =     0.00 Bohr mag/cell

     iteration # 15     ecut=    40.00 Ry     beta=0.70
     Davidson diagonalization with overlap
     ethr =  1.72E-04,  avg # of iterations =  3.9

     negative rho (up, down):  0.291E+00 0.291E+00

     total cpu time spent up to now is     8037.5 secs

     total energy              =   -2163.39048914 Ry
     Harris-Foulkes estimate   =   -2163.40740661 Ry
     estimated scf accuracy    <       0.11839429 Ry

     total magnetization       =     0.00 Bohr mag/cell
     absolute magnetization    =     0.00 Bohr mag/cell

     iteration # 16     ecut=    40.00 Ry     beta=0.70
     Davidson diagonalization with overlap
     ethr =  4.81E-05,  avg # of iterations =  3.3

     negative rho (up, down):  0.291E+00 0.291E+00

     total cpu time spent up to now is     8449.0 secs

     total energy              =   -2163.39084388 Ry
     Harris-Foulkes estimate   =   -2163.40612958 Ry
     estimated scf accuracy    <       0.13798057 Ry

     total magnetization       =     0.00 Bohr mag/cell
     absolute magnetization    =     0.00 Bohr mag/cell

     iteration # 17     ecut=    40.00 Ry     beta=0.70
     Davidson diagonalization with overlap
     ethr =  4.81E-05,  avg # of iterations =  1.0

     negative rho (up, down):  0.291E+00 0.291E+00

     total cpu time spent up to now is     8799.2 secs

     total energy              =   -2163.39691520 Ry
     Harris-Foulkes estimate   =   -2163.40044453 Ry
     estimated scf accuracy    <       0.06222140 Ry

     total magnetization       =     0.00 Bohr mag/cell
     absolute magnetization    =     0.00 Bohr mag/cell

     iteration # 18     ecut=    40.00 Ry     beta=0.70
     Davidson diagonalization with overlap
     ethr =  2.53E-05,  avg # of iterations =  1.4

     negative rho (up, down):  0.291E+00 0.291E+00

     total cpu time spent up to now is     9163.1 secs

     total energy              =   -2163.39598321 Ry
     Harris-Foulkes estimate   =   -2163.40067802 Ry
     estimated scf accuracy    <       0.04093029 Ry

     total magnetization       =     0.00 Bohr mag/cell
     absolute magnetization    =     0.00 Bohr mag/cell

     iteration # 19     ecut=    40.00 Ry     beta=0.70
     Davidson diagonalization with overlap
     ethr =  1.66E-05,  avg # of iterations =  1.0

     negative rho (up, down):  0.291E+00 0.291E+00

     total cpu time spent up to now is     9515.0 secs

     total energy              =   -2163.39597308 Ry
     Harris-Foulkes estimate   =   -2163.40099902 Ry
     estimated scf accuracy    <       0.05541508 Ry

     total magnetization       =     0.00 Bohr mag/cell
     absolute magnetization    =     0.00 Bohr mag/cell

     iteration # 20     ecut=    40.00 Ry     beta=0.70
     Davidson diagonalization with overlap
     ethr =  1.66E-05,  avg # of iterations =  1.0

     negative rho (up, down):  0.291E+00 0.291E+00

     total cpu time spent up to now is     9867.6 secs

     total energy              =   -2163.39187740 Ry
     Harris-Foulkes estimate   =   -2163.40278554 Ry
     estimated scf accuracy    <       0.14843844 Ry

     total magnetization       =     0.00 Bohr mag/cell
     absolute magnetization    =     0.00 Bohr mag/cell

     iteration # 21     ecut=    40.00 Ry     beta=0.70
     Davidson diagonalization with overlap
     ethr =  1.66E-05,  avg # of iterations =  5.3

     negative rho (up, down):  0.291E+00 0.291E+00

     total cpu time spent up to now is    10340.5 secs

     total energy              =   -2163.38714880 Ry
     Harris-Foulkes estimate   =   -2163.41105796 Ry
     estimated scf accuracy    <       0.55179467 Ry

     total magnetization       =     0.00 Bohr mag/cell
     absolute magnetization    =     0.00 Bohr mag/cell

     iteration # 22     ecut=    40.00 Ry     beta=0.70
     Davidson diagonalization with overlap
     ethr =  1.66E-05,  avg # of iterations =  2.8

     negative rho (up, down):  0.291E+00 0.291E+00

     total cpu time spent up to now is    10746.7 secs

     total energy              =   -2163.39441545 Ry
     Harris-Foulkes estimate   =   -2163.40261628 Ry
     estimated scf accuracy    <       0.07140389 Ry

     total magnetization       =     0.00 Bohr mag/cell
     absolute magnetization    =     0.00 Bohr mag/cell

     iteration # 23     ecut=    40.00 Ry     beta=0.70
     Davidson diagonalization with overlap
     ethr =  1.66E-05,  avg # of iterations =  1.0

     negative rho (up, down):  0.291E+00 0.291E+00

     total cpu time spent up to now is    11097.8 secs

     total energy              =   -2163.39813692 Ry
     Harris-Foulkes estimate   =   -2163.39896880 Ry
     estimated scf accuracy    <       0.00665057 Ry

     total magnetization       =     0.00 Bohr mag/cell
     absolute magnetization    =     0.00 Bohr mag/cell

     iteration # 24     ecut=    40.00 Ry     beta=0.70
     Davidson diagonalization with overlap
     ethr =  2.70E-06,  avg # of iterations =  4.8

     negative rho (up, down):  0.291E+00 0.291E+00

     total cpu time spent up to now is    11559.6 secs

     total energy              =   -2163.39777952 Ry
     Harris-Foulkes estimate   =   -2163.39931151 Ry
     estimated scf accuracy    <       0.01876576 Ry

     total magnetization       =     0.00 Bohr mag/cell
     absolute magnetization    =     0.00 Bohr mag/cell

     iteration # 25     ecut=    40.00 Ry     beta=0.70
     Davidson diagonalization with overlap
     ethr =  2.70E-06,  avg # of iterations =  1.3

     negative rho (up, down):  0.291E+00 0.291E+00

     total cpu time spent up to now is    11920.2 secs

     total energy              =   -2163.39844881 Ry
     Harris-Foulkes estimate   =   -2163.39872179 Ry
     estimated scf accuracy    <       0.00224727 Ry

     total magnetization       =     0.00 Bohr mag/cell
     absolute magnetization    =     0.00 Bohr mag/cell

     iteration # 26     ecut=    40.00 Ry     beta=0.70
     Davidson diagonalization with overlap
     ethr =  9.14E-07,  avg # of iterations =  1.7

     negative rho (up, down):  0.291E+00 0.291E+00

     total cpu time spent up to now is    12295.4 secs

     total energy              =   -2163.39800689 Ry
     Harris-Foulkes estimate   =   -2163.39918833 Ry
     estimated scf accuracy    <       0.01340916 Ry

     total magnetization       =     0.00 Bohr mag/cell
     absolute magnetization    =     0.00 Bohr mag/cell

     iteration # 27     ecut=    40.00 Ry     beta=0.70
     Davidson diagonalization with overlap
     ethr =  9.14E-07,  avg # of iterations =  1.6

     negative rho (up, down):  0.291E+00 0.291E+00

     total cpu time spent up to now is    12667.9 secs

     total energy              =   -2163.39768262 Ry
     Harris-Foulkes estimate   =   -2163.39952993 Ry
     estimated scf accuracy    <       0.02696299 Ry

     total magnetization       =     0.00 Bohr mag/cell
     absolute magnetization    =     0.00 Bohr mag/cell

     iteration # 28     ecut=    40.00 Ry     beta=0.70
     Davidson diagonalization with overlap
     ethr =  9.14E-07,  avg # of iterations =  1.0

     negative rho (up, down):  0.291E+00 0.291E+00

     total cpu time spent up to now is    13022.6 secs

     total energy              =   -2163.39844786 Ry
     Harris-Foulkes estimate   =   -2163.39874345 Ry
     estimated scf accuracy    <       0.00216145 Ry

     total magnetization       =     0.00 Bohr mag/cell
     absolute magnetization    =     0.00 Bohr mag/cell

     iteration # 29     ecut=    40.00 Ry     beta=0.70
     Davidson diagonalization with overlap
     ethr =  8.79E-07,  avg # of iterations =  1.0

     negative rho (up, down):  0.291E+00 0.291E+00

     total cpu time spent up to now is    13397.9 secs

     total energy              =   -2163.39836453 Ry
     Harris-Foulkes estimate   =   -2163.39887215 Ry
     estimated scf accuracy    <       0.00616613 Ry

     total magnetization       =     0.00 Bohr mag/cell
     absolute magnetization    =     0.00 Bohr mag/cell

     iteration # 30     ecut=    40.00 Ry     beta=0.70
     Davidson diagonalization with overlap
     ethr =  8.79E-07,  avg # of iterations =  1.0

     negative rho (up, down):  0.291E+00 0.291E+00

     total cpu time spent up to now is    13761.3 secs

     total energy              =   -2163.39857504 Ry
     Harris-Foulkes estimate   =   -2163.39865308 Ry
     estimated scf accuracy    <       0.00080617 Ry

     total magnetization       =     0.00 Bohr mag/cell
     absolute magnetization    =     0.00 Bohr mag/cell

     iteration # 31     ecut=    40.00 Ry     beta=0.70
     Davidson diagonalization with overlap
     ethr =  3.28E-07,  avg # of iterations =  1.0

     negative rho (up, down):  0.291E+00 0.291E+00

     total cpu time spent up to now is    14121.6 secs

     total energy              =   -2163.39850710 Ry
     Harris-Foulkes estimate   =   -2163.39871769 Ry
     estimated scf accuracy    <       0.00541221 Ry

     total magnetization       =     0.00 Bohr mag/cell
     absolute magnetization    =     0.00 Bohr mag/cell

     iteration # 32     ecut=    40.00 Ry     beta=0.70
     Davidson diagonalization with overlap
     ethr =  3.28E-07,  avg # of iterations =  1.0

     negative rho (up, down):  0.291E+00 0.291E+00

     total cpu time spent up to now is    14477.5 secs

     total energy              =   -2163.39849688 Ry
     Harris-Foulkes estimate   =   -2163.39869408 Ry
     estimated scf accuracy    <       0.00123484 Ry

     total magnetization       =     0.00 Bohr mag/cell
     absolute magnetization    =     0.00 Bohr mag/cell

     iteration # 33     ecut=    40.00 Ry     beta=0.70
     Davidson diagonalization with overlap
     ethr =  3.28E-07,  avg # of iterations =  1.0

     negative rho (up, down):  0.291E+00 0.291E+00

     total cpu time spent up to now is    14834.7 secs

     total energy              =   -2163.39831504 Ry
     Harris-Foulkes estimate   =   -2163.39894207 Ry
     estimated scf accuracy    <       0.00738340 Ry

     total magnetization       =     0.00 Bohr mag/cell
     absolute magnetization    =     0.00 Bohr mag/cell

     iteration # 34     ecut=    40.00 Ry     beta=0.70
     Davidson diagonalization with overlap
     ethr =  3.28E-07,  avg # of iterations =  1.0

     negative rho (up, down):  0.291E+00 0.291E+00

     total cpu time spent up to now is    15191.8 secs

     total energy              =   -2163.39856908 Ry
     Harris-Foulkes estimate   =   -2163.39865373 Ry
     estimated scf accuracy    <       0.00057691 Ry

     total magnetization       =     0.00 Bohr mag/cell
     absolute magnetization    =     0.00 Bohr mag/cell

     iteration # 35     ecut=    40.00 Ry     beta=0.70
     Davidson diagonalization with overlap
     ethr =  2.35E-07,  avg # of iterations =  1.0

     negative rho (up, down):  0.291E+00 0.291E+00

     total cpu time spent up to now is    15549.2 secs

     total energy              =   -2163.39849034 Ry
     Harris-Foulkes estimate   =   -2163.39875184 Ry
     estimated scf accuracy    <       0.00460688 Ry

     total magnetization       =     0.00 Bohr mag/cell
     absolute magnetization    =     0.00 Bohr mag/cell

     iteration # 36     ecut=    40.00 Ry     beta=0.70
     Davidson diagonalization with overlap
     ethr =  2.35E-07,  avg # of iterations =  1.0

     negative rho (up, down):  0.291E+00 0.291E+00

     total cpu time spent up to now is    15906.6 secs

     total energy              =   -2163.39857896 Ry
     Harris-Foulkes estimate   =   -2163.39866296 Ry
     estimated scf accuracy    <       0.00086992 Ry

     total magnetization       =     0.00 Bohr mag/cell
     absolute magnetization    =     0.00 Bohr mag/cell

     iteration # 37     ecut=    40.00 Ry     beta=0.70
     Davidson diagonalization with overlap
     ethr =  2.35E-07,  avg # of iterations =  1.0

     negative rho (up, down):  0.291E+00 0.291E+00

     total cpu time spent up to now is    16264.0 secs

     total energy              =   -2163.39858116 Ry
     Harris-Foulkes estimate   =   -2163.39865225 Ry
     estimated scf accuracy    <       0.00080776 Ry

     total magnetization       =     0.00 Bohr mag/cell
     absolute magnetization    =     0.00 Bohr mag/cell

     iteration # 38     ecut=    40.00 Ry     beta=0.70
     Davidson diagonalization with overlap
     ethr =  2.35E-07,  avg # of iterations =  1.0

     negative rho (up, down):  0.291E+00 0.291E+00

     total cpu time spent up to now is    16621.5 secs

     total energy              =   -2163.39854609 Ry
     Harris-Foulkes estimate   =   -2163.39869184 Ry
     estimated scf accuracy    <       0.00183412 Ry

     total magnetization       =     0.00 Bohr mag/cell
     absolute magnetization    =     0.00 Bohr mag/cell

     iteration # 39     ecut=    40.00 Ry     beta=0.70
     Davidson diagonalization with overlap
     ethr =  2.35E-07,  avg # of iterations =  1.0

     negative rho (up, down):  0.291E+00 0.291E+00

     total cpu time spent up to now is    16978.0 secs

     total energy              =   -2163.39854857 Ry
     Harris-Foulkes estimate   =   -2163.39865888 Ry
     estimated scf accuracy    <       0.00090484 Ry

     total magnetization       =     0.00 Bohr mag/cell
     absolute magnetization    =     0.00 Bohr mag/cell

     iteration # 40     ecut=    40.00 Ry     beta=0.70
     Davidson diagonalization with overlap
     ethr =  2.35E-07,  avg # of iterations =  1.0

     negative rho (up, down):  0.291E+00 0.291E+00

     total cpu time spent up to now is    17330.0 secs

     total energy              =   -2163.39824990 Ry
     Harris-Foulkes estimate   =   -2163.39897653 Ry
     estimated scf accuracy    <       0.00936785 Ry

     total magnetization       =     0.00 Bohr mag/cell
     absolute magnetization    =     0.00 Bohr mag/cell

     iteration # 41     ecut=    40.00 Ry     beta=0.70
     Davidson diagonalization with overlap
     ethr =  2.35E-07,  avg # of iterations =  1.0

     negative rho (up, down):  0.291E+00 0.291E+00

     total cpu time spent up to now is    17681.2 secs

     total energy              =   -2163.39840943 Ry
     Harris-Foulkes estimate   =   -2163.39882188 Ry
     estimated scf accuracy    <       0.01044839 Ry

     total magnetization       =     0.00 Bohr mag/cell
     absolute magnetization    =     0.00 Bohr mag/cell

     iteration # 42     ecut=    40.00 Ry     beta=0.70
     Davidson diagonalization with overlap
     ethr =  2.35E-07,  avg # of iterations =  1.0

     negative rho (up, down):  0.291E+00 0.291E+00

     total cpu time spent up to now is    18031.8 secs

     total energy              =   -2163.39857282 Ry
     Harris-Foulkes estimate   =   -2163.39866830 Ry
     estimated scf accuracy    <       0.00090029 Ry

     total magnetization       =     0.00 Bohr mag/cell
     absolute magnetization    =     0.00 Bohr mag/cell

     iteration # 43     ecut=    40.00 Ry     beta=0.70
     Davidson diagonalization with overlap
     ethr =  2.35E-07,  avg # of iterations =  1.0

     negative rho (up, down):  0.291E+00 0.291E+00

     total cpu time spent up to now is    18384.2 secs

     total energy              =   -2163.39859253 Ry
     Harris-Foulkes estimate   =   -2163.39864380 Ry
     estimated scf accuracy    <       0.00055132 Ry

     total magnetization       =     0.00 Bohr mag/cell
     absolute magnetization    =     0.00 Bohr mag/cell

     iteration # 44     ecut=    40.00 Ry     beta=0.70
     Davidson diagonalization with overlap
     ethr =  2.24E-07,  avg # of iterations =  1.0

     negative rho (up, down):  0.291E+00 0.291E+00

     total cpu time spent up to now is    18736.8 secs

     total energy              =   -2163.39858321 Ry
     Harris-Foulkes estimate   =   -2163.39865621 Ry
     estimated scf accuracy    <       0.00062129 Ry

     total magnetization       =     0.00 Bohr mag/cell
     absolute magnetization    =     0.00 Bohr mag/cell

     iteration # 45     ecut=    40.00 Ry     beta=0.70
     Davidson diagonalization with overlap
     ethr =  2.24E-07,  avg # of iterations =  1.0

     negative rho (up, down):  0.291E+00 0.291E+00

     total cpu time spent up to now is    19094.8 secs

     total energy              =   -2163.39857388 Ry
     Harris-Foulkes estimate   =   -2163.39865818 Ry
     estimated scf accuracy    <       0.00128808 Ry

     total magnetization       =     0.00 Bohr mag/cell
     absolute magnetization    =     0.00 Bohr mag/cell

     iteration # 46     ecut=    40.00 Ry     beta=0.70
     Davidson diagonalization with overlap
     ethr =  2.24E-07,  avg # of iterations =  1.0

     negative rho (up, down):  0.291E+00 0.291E+00

     total cpu time spent up to now is    19457.6 secs

     total energy              =   -2163.39853517 Ry
     Harris-Foulkes estimate   =   -2163.39869148 Ry
     estimated scf accuracy    <       0.00140010 Ry

     total magnetization       =     0.00 Bohr mag/cell
     absolute magnetization    =     0.00 Bohr mag/cell

     iteration # 47     ecut=    40.00 Ry     beta=0.70
     Davidson diagonalization with overlap
     ethr =  2.24E-07,  avg # of iterations =  1.6

     negative rho (up, down):  0.291E+00 0.291E+00

     total cpu time spent up to now is    19837.6 secs

     total energy              =   -2163.39839302 Ry
     Harris-Foulkes estimate   =   -2163.39884672 Ry
     estimated scf accuracy    <       0.00513690 Ry

     total magnetization       =     0.01 Bohr mag/cell
     absolute magnetization    =     0.01 Bohr mag/cell

     iteration # 48     ecut=    40.00 Ry     beta=0.70
     Davidson diagonalization with overlap
     ethr =  2.24E-07,  avg # of iterations =  1.0

     negative rho (up, down):  0.291E+00 0.291E+00

     total cpu time spent up to now is    20201.0 secs

     total energy              =   -2163.39847518 Ry
     Harris-Foulkes estimate   =   -2163.39875818 Ry
     estimated scf accuracy    <       0.00437457 Ry

     total magnetization       =     0.01 Bohr mag/cell
     absolute magnetization    =     0.01 Bohr mag/cell

     iteration # 49     ecut=    40.00 Ry     beta=0.70
     Davidson diagonalization with overlap
     ethr =  2.24E-07,  avg # of iterations =  1.0

     negative rho (up, down):  0.291E+00 0.291E+00

     total cpu time spent up to now is    20581.2 secs

     total energy              =   -2163.39842080 Ry
     Harris-Foulkes estimate   =   -2163.39882321 Ry
     estimated scf accuracy    <       0.00555162 Ry

     total magnetization       =     0.01 Bohr mag/cell
     absolute magnetization    =     0.01 Bohr mag/cell

     iteration # 50     ecut=    40.00 Ry     beta=0.70
     Davidson diagonalization with overlap
     ethr =  2.24E-07,  avg # of iterations =  1.0

     negative rho (up, down):  0.291E+00 0.291E+00

     total cpu time spent up to now is    20939.4 secs

     total energy              =   -2163.39859493 Ry
     Harris-Foulkes estimate   =   -2163.39864136 Ry
     estimated scf accuracy    <       0.00049863 Ry

     total magnetization       =     0.01 Bohr mag/cell
     absolute magnetization    =     0.01 Bohr mag/cell

     iteration # 51     ecut=    40.00 Ry     beta=0.70
     Davidson diagonalization with overlap
     ethr =  2.03E-07,  avg # of iterations =  1.0

     negative rho (up, down):  0.291E+00 0.291E+00

     total cpu time spent up to now is    21292.6 secs

     total energy              =   -2163.39856790 Ry
     Harris-Foulkes estimate   =   -2163.39866626 Ry
     estimated scf accuracy    <       0.00237762 Ry

     total magnetization       =     0.01 Bohr mag/cell
     absolute magnetization    =     0.01 Bohr mag/cell

     iteration # 52     ecut=    40.00 Ry     beta=0.70
     Davidson diagonalization with overlap
     ethr =  2.03E-07,  avg # of iterations =  1.0

     negative rho (up, down):  0.291E+00 0.291E+00

     total cpu time spent up to now is    21645.4 secs

     total energy              =   -2163.39855830 Ry
     Harris-Foulkes estimate   =   -2163.39865927 Ry
     estimated scf accuracy    <       0.00081811 Ry

     total magnetization       =     0.01 Bohr mag/cell
     absolute magnetization    =     0.01 Bohr mag/cell

     iteration # 53     ecut=    40.00 Ry     beta=0.70
     Davidson diagonalization with overlap
     ethr =  2.03E-07,  avg # of iterations =  1.0

     negative rho (up, down):  0.291E+00 0.291E+00

     total cpu time spent up to now is    21998.1 secs

     total energy              =   -2163.39831778 Ry
     Harris-Foulkes estimate   =   -2163.39893531 Ry
     estimated scf accuracy    <       0.00783825 Ry

     total magnetization       =     0.01 Bohr mag/cell
     absolute magnetization    =     0.01 Bohr mag/cell

     iteration # 54     ecut=    40.00 Ry     beta=0.70
     Davidson diagonalization with overlap
     ethr =  2.03E-07,  avg # of iterations =  1.0

     negative rho (up, down):  0.291E+00 0.291E+00

     total cpu time spent up to now is    22354.5 secs

     total energy              =   -2163.39856638 Ry
     Harris-Foulkes estimate   =   -2163.39865721 Ry
     estimated scf accuracy    <       0.00058300 Ry

     total magnetization       =     0.01 Bohr mag/cell
     absolute magnetization    =     0.01 Bohr mag/cell

     iteration # 55     ecut=    40.00 Ry     beta=0.70
     Davidson diagonalization with overlap
     ethr =  2.03E-07,  avg # of iterations =  1.0

     negative rho (up, down):  0.291E+00 0.291E+00

     total cpu time spent up to now is    22716.2 secs

     total energy              =   -2163.39842222 Ry
     Harris-Foulkes estimate   =   -2163.39881981 Ry
     estimated scf accuracy    <       0.00706698 Ry

     total magnetization       =     0.01 Bohr mag/cell
     absolute magnetization    =     0.02 Bohr mag/cell

     iteration # 56     ecut=    40.00 Ry     beta=0.70
     Davidson diagonalization with overlap
     ethr =  2.03E-07,  avg # of iterations =  1.0

     negative rho (up, down):  0.291E+00 0.291E+00

     total cpu time spent up to now is    23077.3 secs

     total energy              =   -2163.39857215 Ry
     Harris-Foulkes estimate   =   -2163.39867059 Ry
     estimated scf accuracy    <       0.00093254 Ry

     total magnetization       =     0.02 Bohr mag/cell
     absolute magnetization    =     0.02 Bohr mag/cell

     iteration # 57     ecut=    40.00 Ry     beta=0.70
     Davidson diagonalization with overlap
     ethr =  2.03E-07,  avg # of iterations =  1.0

     negative rho (up, down):  0.291E+00 0.291E+00

     total cpu time spent up to now is    23435.6 secs

     total energy              =   -2163.39858319 Ry
     Harris-Foulkes estimate   =   -2163.39865624 Ry
     estimated scf accuracy    <       0.00076225 Ry

     total magnetization       =     0.02 Bohr mag/cell
     absolute magnetization    =     0.02 Bohr mag/cell

     iteration # 58     ecut=    40.00 Ry     beta=0.70
     Davidson diagonalization with overlap
     ethr =  2.03E-07,  avg # of iterations =  1.0

     negative rho (up, down):  0.291E+00 0.291E+00

     total cpu time spent up to now is    23787.7 secs

     total energy              =   -2163.39855158 Ry
     Harris-Foulkes estimate   =   -2163.39869396 Ry
     estimated scf accuracy    <       0.00233982 Ry

     total magnetization       =     0.02 Bohr mag/cell
     absolute magnetization    =     0.02 Bohr mag/cell

     iteration # 59     ecut=    40.00 Ry     beta=0.70
     Davidson diagonalization with overlap
     ethr =  2.03E-07,  avg # of iterations =  1.0

     negative rho (up, down):  0.291E+00 0.291E+00

     total cpu time spent up to now is    24136.9 secs

     total energy              =   -2163.39855197 Ry
     Harris-Foulkes estimate   =   -2163.39866173 Ry
     estimated scf accuracy    <       0.00107281 Ry

     total magnetization       =     0.02 Bohr mag/cell
     absolute magnetization    =     0.02 Bohr mag/cell

     iteration # 60     ecut=    40.00 Ry     beta=0.70
     Davidson diagonalization with overlap
     ethr =  2.03E-07,  avg # of iterations =  1.0

     negative rho (up, down):  0.291E+00 0.291E+00

     total cpu time spent up to now is    24485.9 secs

     total energy              =   -2163.39826557 Ry
     Harris-Foulkes estimate   =   -2163.39895640 Ry
     estimated scf accuracy    <       0.00982173 Ry

     total magnetization       =     0.02 Bohr mag/cell
     absolute magnetization    =     0.03 Bohr mag/cell

     iteration # 61     ecut=    40.00 Ry     beta=0.70
     Davidson diagonalization with overlap
     ethr =  2.03E-07,  avg # of iterations =  1.0

     negative rho (up, down):  0.291E+00 0.291E+00

     total cpu time spent up to now is    24835.3 secs

     total energy              =   -2163.39839081 Ry
     Harris-Foulkes estimate   =   -2163.39883442 Ry
     estimated scf accuracy    <       0.00970594 Ry

     total magnetization       =     0.03 Bohr mag/cell
     absolute magnetization    =     0.03 Bohr mag/cell

     iteration # 62     ecut=    40.00 Ry     beta=0.70
     Davidson diagonalization with overlap
     ethr =  2.03E-07,  avg # of iterations =  1.1

     negative rho (up, down):  0.291E+00 0.291E+00

     total cpu time spent up to now is    25185.8 secs

     total energy              =   -2163.39852727 Ry
     Harris-Foulkes estimate   =   -2163.39872301 Ry
     estimated scf accuracy    <       0.00250578 Ry

     total magnetization       =     0.03 Bohr mag/cell
     absolute magnetization    =     0.03 Bohr mag/cell

     iteration # 63     ecut=    40.00 Ry     beta=0.70
     Davidson diagonalization with overlap
     ethr =  2.03E-07,  avg # of iterations =  1.0

     negative rho (up, down):  0.291E+00 0.291E+00

     total cpu time spent up to now is    25535.0 secs

     total energy              =   -2163.39857486 Ry
     Harris-Foulkes estimate   =   -2163.39866614 Ry
     estimated scf accuracy    <       0.00103223 Ry

     total magnetization       =     0.03 Bohr mag/cell
     absolute magnetization    =     0.04 Bohr mag/cell

     iteration # 64     ecut=    40.00 Ry     beta=0.70
     Davidson diagonalization with overlap
     ethr =  2.03E-07,  avg # of iterations =  1.0

     negative rho (up, down):  0.291E+00 0.291E+00

     total cpu time spent up to now is    25885.3 secs

     total energy              =   -2163.39856580 Ry
     Harris-Foulkes estimate   =   -2163.39868812 Ry
     estimated scf accuracy    <       0.00101047 Ry

     total magnetization       =     0.04 Bohr mag/cell
     absolute magnetization    =     0.04 Bohr mag/cell

     iteration # 65     ecut=    40.00 Ry     beta=0.70
     Davidson diagonalization with overlap
     ethr =  2.03E-07,  avg # of iterations =  1.0

     negative rho (up, down):  0.291E+00 0.291E+00

     total cpu time spent up to now is    26235.1 secs

     total energy              =   -2163.39856298 Ry
     Harris-Foulkes estimate   =   -2163.39868211 Ry
     estimated scf accuracy    <       0.00206182 Ry

     total magnetization       =     0.04 Bohr mag/cell
     absolute magnetization    =     0.05 Bohr mag/cell

     iteration # 66     ecut=    40.00 Ry     beta=0.70
     Davidson diagonalization with overlap
     ethr =  2.03E-07,  avg # of iterations =  1.0

     negative rho (up, down):  0.291E+00 0.291E+00

     total cpu time spent up to now is    26584.7 secs

     total energy              =   -2163.39852411 Ry
     Harris-Foulkes estimate   =   -2163.39871760 Ry
     estimated scf accuracy    <       0.00181400 Ry

     total magnetization       =     0.05 Bohr mag/cell
     absolute magnetization    =     0.05 Bohr mag/cell

     iteration # 67     ecut=    40.00 Ry     beta=0.70
     Davidson diagonalization with overlap
     ethr =  2.03E-07,  avg # of iterations =  1.7

     negative rho (up, down):  0.291E+00 0.291E+00

     total cpu time spent up to now is    26954.0 secs

     total energy              =   -2163.39834693 Ry
     Harris-Foulkes estimate   =   -2163.39890816 Ry
     estimated scf accuracy    <       0.00618864 Ry

     total magnetization       =     0.06 Bohr mag/cell
     absolute magnetization    =     0.06 Bohr mag/cell

     iteration # 68     ecut=    40.00 Ry     beta=0.70
     Davidson diagonalization with overlap
     ethr =  2.03E-07,  avg # of iterations =  1.2

     negative rho (up, down):  0.291E+00 0.291E+00

     total cpu time spent up to now is    27322.9 secs

     total energy              =   -2163.39832679 Ry
     Harris-Foulkes estimate   =   -2163.39891952 Ry
     estimated scf accuracy    <       0.00945642 Ry

     total magnetization       =     0.06 Bohr mag/cell
     absolute magnetization    =     0.07 Bohr mag/cell

     iteration # 69     ecut=    40.00 Ry     beta=0.70
     Davidson diagonalization with overlap
     ethr =  2.03E-07,  avg # of iterations =  2.0

     negative rho (up, down):  0.291E+00 0.291E+00

     total cpu time spent up to now is    27714.5 secs

     total energy              =   -2163.39805230 Ry
     Harris-Foulkes estimate   =   -2163.39923828 Ry
     estimated scf accuracy    <       0.01728567 Ry

     total magnetization       =     0.07 Bohr mag/cell
     absolute magnetization    =     0.08 Bohr mag/cell

     iteration # 70     ecut=    40.00 Ry     beta=0.70
     Davidson diagonalization with overlap
     ethr =  2.03E-07,  avg # of iterations =  1.7

     negative rho (up, down):  0.291E+00 0.291E+00

     total cpu time spent up to now is    28094.3 secs

     total energy              =   -2163.39854981 Ry
     Harris-Foulkes estimate   =   -2163.39872359 Ry
     estimated scf accuracy    <       0.00229095 Ry

     total magnetization       =     0.08 Bohr mag/cell
     absolute magnetization    =     0.09 Bohr mag/cell

     iteration # 71     ecut=    40.00 Ry     beta=0.70
     Davidson diagonalization with overlap
     ethr =  2.03E-07,  avg # of iterations =  1.0

     negative rho (up, down):  0.291E+00 0.291E+00

     total cpu time spent up to now is    28458.5 secs

     total energy              =   -2163.39849378 Ry
     Harris-Foulkes estimate   =   -2163.39878875 Ry
     estimated scf accuracy    <       0.00726474 Ry

     total magnetization       =     0.08 Bohr mag/cell
     absolute magnetization    =     0.09 Bohr mag/cell

     iteration # 72     ecut=    40.00 Ry     beta=0.70
     Davidson diagonalization with overlap
     ethr =  2.03E-07,  avg # of iterations =  1.0

     negative rho (up, down):  0.291E+00 0.291E+00

     total cpu time spent up to now is    28822.1 secs

     total energy              =   -2163.39855313 Ry
     Harris-Foulkes estimate   =   -2163.39870548 Ry
     estimated scf accuracy    <       0.00126248 Ry

     total magnetization       =     0.09 Bohr mag/cell
     absolute magnetization    =     0.10 Bohr mag/cell

     iteration # 73     ecut=    40.00 Ry     beta=0.70
     Davidson diagonalization with overlap
     ethr =  2.03E-07,  avg # of iterations =  1.6

     negative rho (up, down):  0.291E+00 0.291E+00

     total cpu time spent up to now is    29202.3 secs

     total energy              =   -2163.39803793 Ry
     Harris-Foulkes estimate   =   -2163.39930343 Ry
     estimated scf accuracy    <       0.01663488 Ry

     total magnetization       =     0.10 Bohr mag/cell
     absolute magnetization    =     0.11 Bohr mag/cell

     iteration # 74     ecut=    40.00 Ry     beta=0.70
     Davidson diagonalization with overlap
     ethr =  2.03E-07,  avg # of iterations =  1.6

     negative rho (up, down):  0.291E+00 0.291E+00

     total cpu time spent up to now is    29580.7 secs

     total energy              =   -2163.39852241 Ry
     Harris-Foulkes estimate   =   -2163.39877159 Ry
     estimated scf accuracy    <       0.00184119 Ry

     total magnetization       =     0.12 Bohr mag/cell
     absolute magnetization    =     0.13 Bohr mag/cell

     iteration # 75     ecut=    40.00 Ry     beta=0.70
     Davidson diagonalization with overlap
     ethr =  2.03E-07,  avg # of iterations =  2.0

     negative rho (up, down):  0.291E+00 0.291E+00

     total cpu time spent up to now is    29971.4 secs

     total energy              =   -2163.39792302 Ry
     Harris-Foulkes estimate   =   -2163.39947896 Ry
     estimated scf accuracy    <       0.02458852 Ry

     total magnetization       =     0.13 Bohr mag/cell
     absolute magnetization    =     0.15 Bohr mag/cell

     iteration # 76     ecut=    40.00 Ry     beta=0.70
     Davidson diagonalization with overlap
     ethr =  2.03E-07,  avg # of iterations =  2.0

     negative rho (up, down):  0.291E+00 0.291E+00

     total cpu time spent up to now is    30362.5 secs

     total energy              =   -2163.39843090 Ry
     Harris-Foulkes estimate   =   -2163.39901897 Ry
     estimated scf accuracy    <       0.00587578 Ry

     total magnetization       =     0.16 Bohr mag/cell
     absolute magnetization    =     0.17 Bohr mag/cell

     iteration # 77     ecut=    40.00 Ry     beta=0.70
     Davidson diagonalization with overlap
     ethr =  2.03E-07,  avg # of iterations =  2.0

     negative rho (up, down):  0.291E+00 0.291E+00

     total cpu time spent up to now is    30752.0 secs

     total energy              =   -2163.39852956 Ry
     Harris-Foulkes estimate   =   -2163.39894815 Ry
     estimated scf accuracy    <       0.00506667 Ry

     total magnetization       =     0.18 Bohr mag/cell
     absolute magnetization    =     0.20 Bohr mag/cell

     iteration # 78     ecut=    40.00 Ry     beta=0.70
     Davidson diagonalization with overlap
     ethr =  2.03E-07,  avg # of iterations =  1.3

     negative rho (up, down):  0.291E+00 0.291E+00

     total cpu time spent up to now is    31120.0 secs

     total energy              =   -2163.39845400 Ry
     Harris-Foulkes estimate   =   -2163.39907938 Ry
     estimated scf accuracy    <       0.01091018 Ry

     total magnetization       =     0.18 Bohr mag/cell
     absolute magnetization    =     0.20 Bohr mag/cell

     iteration # 79     ecut=    40.00 Ry     beta=0.70
     Davidson diagonalization with overlap
     ethr =  2.03E-07,  avg # of iterations =  1.0

     negative rho (up, down):  0.291E+00 0.291E+00

     total cpu time spent up to now is    31481.8 secs

     total energy              =   -2163.39861231 Ry
     Harris-Foulkes estimate   =   -2163.39887295 Ry
     estimated scf accuracy    <       0.00345179 Ry

     total magnetization       =     0.20 Bohr mag/cell
     absolute magnetization    =     0.22 Bohr mag/cell

     iteration # 80     ecut=    40.00 Ry     beta=0.70
     Davidson diagonalization with overlap
     ethr =  2.03E-07,  avg # of iterations =  2.0

     negative rho (up, down):  0.291E+00 0.291E+00

     total cpu time spent up to now is    31872.3 secs

     total energy              =   -2163.39780408 Ry
     Harris-Foulkes estimate   =   -2163.39975566 Ry
     estimated scf accuracy    <       0.02997661 Ry

     total magnetization       =     0.22 Bohr mag/cell
     absolute magnetization    =     0.24 Bohr mag/cell

     iteration # 81     ecut=    40.00 Ry     beta=0.70
     Davidson diagonalization with overlap
     ethr =  2.03E-07,  avg # of iterations =  2.0

     negative rho (up, down):  0.291E+00 0.291E+00

     total cpu time spent up to now is    32262.6 secs

     total energy              =   -2163.39801270 Ry
     Harris-Foulkes estimate   =   -2163.39950360 Ry
     estimated scf accuracy    <       0.03183997 Ry

     total magnetization       =     0.23 Bohr mag/cell
     absolute magnetization    =     0.25 Bohr mag/cell

     iteration # 82     ecut=    40.00 Ry     beta=0.70
     Davidson diagonalization with overlap
     ethr =  2.03E-07,  avg # of iterations =  2.0

     negative rho (up, down):  0.291E+00 0.291E+00

     total cpu time spent up to now is    32661.0 secs

     total energy              =   -2163.39795095 Ry
     Harris-Foulkes estimate   =   -2163.39995705 Ry
     estimated scf accuracy    <       0.02797689 Ry

     total magnetization       =     0.28 Bohr mag/cell
     absolute magnetization    =     0.31 Bohr mag/cell

     iteration # 83     ecut=    40.00 Ry     beta=0.70
     Davidson diagonalization with overlap
     ethr =  2.03E-07,  avg # of iterations =  2.0

     negative rho (up, down):  0.291E+00 0.292E+00

     total cpu time spent up to now is    33056.6 secs

     total energy              =   -2163.39860027 Ry
     Harris-Foulkes estimate   =   -2163.39938062 Ry
     estimated scf accuracy    <       0.01084411 Ry

     total magnetization       =     0.30 Bohr mag/cell
     absolute magnetization    =     0.33 Bohr mag/cell

     iteration # 84     ecut=    40.00 Ry     beta=0.70
     Davidson diagonalization with overlap
     ethr =  2.03E-07,  avg # of iterations =  2.0

     negative rho (up, down):  0.291E+00 0.292E+00

     total cpu time spent up to now is    33453.1 secs

     total energy              =   -2163.39859588 Ry
     Harris-Foulkes estimate   =   -2163.39970870 Ry
     estimated scf accuracy    <       0.01100618 Ry

     total magnetization       =     0.36 Bohr mag/cell
     absolute magnetization    =     0.40 Bohr mag/cell

     iteration # 85     ecut=    40.00 Ry     beta=0.70
     Davidson diagonalization with overlap
     ethr =  2.03E-07,  avg # of iterations =  2.0

     negative rho (up, down):  0.291E+00 0.292E+00

     total cpu time spent up to now is    33840.6 secs

     total energy              =   -2163.39851854 Ry
     Harris-Foulkes estimate   =   -2163.39985066 Ry
     estimated scf accuracy    <       0.02388797 Ry

     total magnetization       =     0.35 Bohr mag/cell
     absolute magnetization    =     0.40 Bohr mag/cell

     iteration # 86     ecut=    40.00 Ry     beta=0.70
     Davidson diagonalization with overlap
     ethr =  2.03E-07,  avg # of iterations =  2.0

     negative rho (up, down):  0.291E+00 0.292E+00

     total cpu time spent up to now is    34227.0 secs

     total energy              =   -2163.39874913 Ry
     Harris-Foulkes estimate   =   -2163.39978543 Ry
     estimated scf accuracy    <       0.01288062 Ry

     total magnetization       =     0.39 Bohr mag/cell
     absolute magnetization    =     0.44 Bohr mag/cell

     iteration # 87     ecut=    40.00 Ry     beta=0.70
     Davidson diagonalization with overlap
     ethr =  2.03E-07,  avg # of iterations =  2.0

     negative rho (up, down):  0.291E+00 0.292E+00

     total cpu time spent up to now is    34618.4 secs

     total energy              =   -2163.39818606 Ry
     Harris-Foulkes estimate   =   -2163.40060266 Ry
     estimated scf accuracy    <       0.03483314 Ry

     total magnetization       =     0.45 Bohr mag/cell
     absolute magnetization    =     0.50 Bohr mag/cell

     iteration # 88     ecut=    40.00 Ry     beta=0.70
     Davidson diagonalization with overlap
     ethr =  2.03E-07,  avg # of iterations =  2.0

     negative rho (up, down):  0.291E+00 0.292E+00

     total cpu time spent up to now is    35017.4 secs

     total energy              =   -2163.39777888 Ry
     Harris-Foulkes estimate   =   -2163.40072273 Ry
     estimated scf accuracy    <       0.03518172 Ry

     total magnetization       =     0.43 Bohr mag/cell
     absolute magnetization    =     0.49 Bohr mag/cell

     iteration # 89     ecut=    40.00 Ry     beta=0.70
     Davidson diagonalization with overlap
     ethr =  2.03E-07,  avg # of iterations =  3.8

     negative rho (up, down):  0.290E+00 0.292E+00

     total cpu time spent up to now is    35527.6 secs

     total energy              =   -2163.39172000 Ry
     Harris-Foulkes estimate   =   -2163.40825083 Ry
     estimated scf accuracy    <       0.22645558 Ry

     total magnetization       =     0.51 Bohr mag/cell
     absolute magnetization    =     0.59 Bohr mag/cell

     iteration # 90     ecut=    40.00 Ry     beta=0.70
     Davidson diagonalization with overlap
     ethr =  2.03E-07,  avg # of iterations =  3.5

     negative rho (up, down):  0.290E+00 0.292E+00

     total cpu time spent up to now is    36024.4 secs

     total energy              =   -2163.39755908 Ry
     Harris-Foulkes estimate   =   -2163.40208645 Ry
     estimated scf accuracy    <       0.06589795 Ry

     total magnetization       =     0.57 Bohr mag/cell
     absolute magnetization    =     0.64 Bohr mag/cell

     iteration # 91     ecut=    40.00 Ry     beta=0.70
     Davidson diagonalization with overlap
     ethr =  2.03E-07,  avg # of iterations =  4.4

     negative rho (up, down):  0.290E+00 0.292E+00

     total cpu time spent up to now is    36541.0 secs

     total energy              =   -2163.39474822 Ry
     Harris-Foulkes estimate   =   -2163.40545336 Ry
     estimated scf accuracy    <       0.26512683 Ry

     total magnetization       =     0.57 Bohr mag/cell
     absolute magnetization    =     0.64 Bohr mag/cell

     iteration # 92     ecut=    40.00 Ry     beta=0.70
     Davidson diagonalization with overlap
     ethr =  2.03E-07,  avg # of iterations =  4.5

     negative rho (up, down):  0.290E+00 0.292E+00

     total cpu time spent up to now is    37051.4 secs

     total energy              =   -2163.39966582 Ry
     Harris-Foulkes estimate   =   -2163.40045723 Ry
     estimated scf accuracy    <       0.00679975 Ry

     total magnetization       =     0.62 Bohr mag/cell
     absolute magnetization    =     0.70 Bohr mag/cell

     iteration # 93     ecut=    40.00 Ry     beta=0.70
     Davidson diagonalization with overlap
     ethr =  2.03E-07,  avg # of iterations =  2.9

     negative rho (up, down):  0.290E+00 0.292E+00

     total cpu time spent up to now is    37509.8 secs

     total energy              =   -2163.39392002 Ry
     Harris-Foulkes estimate   =   -2163.40721732 Ry
     estimated scf accuracy    <       0.19114187 Ry

     total magnetization       =     0.60 Bohr mag/cell
     absolute magnetization    =     0.69 Bohr mag/cell

     iteration # 94     ecut=    40.00 Ry     beta=0.70
     Davidson diagonalization with overlap
     ethr =  2.03E-07,  avg # of iterations =  2.3

     negative rho (up, down):  0.290E+00 0.292E+00

     total cpu time spent up to now is    37955.7 secs

     total energy              =   -2163.39998148 Ry
     Harris-Foulkes estimate   =   -2163.40112981 Ry
     estimated scf accuracy    <       0.01028750 Ry

     total magnetization       =     0.70 Bohr mag/cell
     absolute magnetization    =     0.80 Bohr mag/cell

     iteration # 95     ecut=    40.00 Ry     beta=0.70
     Davidson diagonalization with overlap
     ethr =  2.03E-07,  avg # of iterations =  3.8

     negative rho (up, down):  0.290E+00 0.292E+00

     total cpu time spent up to now is    38472.4 secs

     total energy              =   -2163.39359875 Ry
     Harris-Foulkes estimate   =   -2163.40747776 Ry
     estimated scf accuracy    <       0.15508084 Ry

     total magnetization       =     0.59 Bohr mag/cell
     absolute magnetization    =     0.69 Bohr mag/cell

     iteration # 96     ecut=    40.00 Ry     beta=0.70
     Davidson diagonalization with overlap
     ethr =  2.03E-07,  avg # of iterations =  5.3

     negative rho (up, down):  0.290E+00 0.292E+00

     total cpu time spent up to now is    39084.3 secs

     total energy              =   -2163.39558365 Ry
     Harris-Foulkes estimate   =   -2163.40665624 Ry
     estimated scf accuracy    <       0.09537596 Ry

     total magnetization       =     0.71 Bohr mag/cell
     absolute magnetization    =     0.83 Bohr mag/cell

     iteration # 97     ecut=    40.00 Ry     beta=0.70
     Davidson diagonalization with overlap
     ethr =  2.03E-07,  avg # of iterations =  4.5

     negative rho (up, down):  0.290E+00 0.292E+00

     total cpu time spent up to now is    39622.9 secs

     total energy              =   -2163.39683658 Ry
     Harris-Foulkes estimate   =   -2163.40592418 Ry
     estimated scf accuracy    <       0.11413387 Ry

     total magnetization       =     0.85 Bohr mag/cell
     absolute magnetization    =     0.97 Bohr mag/cell

     iteration # 98     ecut=    40.00 Ry     beta=0.70
     Davidson diagonalization with overlap
     ethr =  2.03E-07,  avg # of iterations =  3.9

     negative rho (up, down):  0.290E+00 0.292E+00

     total cpu time spent up to now is    40157.1 secs

     total energy              =   -2163.39465042 Ry
     Harris-Foulkes estimate   =   -2163.40933336 Ry
     estimated scf accuracy    <       0.18704215 Ry

     total magnetization       =     0.73 Bohr mag/cell
     absolute magnetization    =     0.89 Bohr mag/cell

     iteration # 99     ecut=    40.00 Ry     beta=0.70
     Davidson diagonalization with overlap
     ethr =  2.03E-07,  avg # of iterations =  4.3

     negative rho (up, down):  0.290E+00 0.292E+00

     total cpu time spent up to now is    40680.3 secs

     total energy              =   -2163.40171421 Ry
     Harris-Foulkes estimate   =   -2163.40222073 Ry
     estimated scf accuracy    <       0.00808494 Ry

     total magnetization       =     0.85 Bohr mag/cell
     absolute magnetization    =     0.99 Bohr mag/cell

     iteration #100     ecut=    40.00 Ry     beta=0.70
     Davidson diagonalization with overlap
     ethr =  2.03E-07,  avg # of iterations =  2.0

     negative rho (up, down):  0.290E+00 0.292E+00

     total cpu time spent up to now is    41070.2 secs

     total energy              =   -2163.40077871 Ry
     Harris-Foulkes estimate   =   -2163.40309951 Ry
     estimated scf accuracy    <       0.03450732 Ry

     total magnetization       =     0.86 Bohr mag/cell
     absolute magnetization    =     1.01 Bohr mag/cell

     End of self-consistent calculation

     convergence NOT achieved after 100 iterations: stopping

     init_run     :    104.53s CPU    139.76s WALL (       1 calls)
     electrons    :  31021.22s CPU  40930.00s WALL (       1 calls)

     Called by init_run:
     wfcinit      :     84.80s CPU    117.94s WALL (       1 calls)
     potinit      :      3.07s CPU      3.98s WALL (       1 calls)

     Called by electrons:
     c_bands      :  24818.50s CPU  32784.88s WALL (     100 calls)
     sum_band     :   4483.42s CPU   6236.28s WALL (     100 calls)
     v_of_rho     :    113.70s CPU    181.12s WALL (     101 calls)
     newd         :   1553.59s CPU   1587.00s WALL (     101 calls)
     mix_rho      :     23.51s CPU     40.34s WALL (     100 calls)

     Called by c_bands:
     init_us_2    :     34.99s CPU     35.41s WALL (    4020 calls)
     cegterg      :  24682.12s CPU  32647.84s WALL (    2000 calls)

     Called by *egterg:
     h_psi        :  12649.38s CPU  19656.74s WALL (    5857 calls)
     s_psi        :    910.84s CPU    911.59s WALL (    5857 calls)
     g_psi        :     19.88s CPU     19.93s WALL (    3837 calls)
     cdiaghg      :   6095.63s CPU   6312.42s WALL (    5837 calls)

     Called by h_psi:
     add_vuspsi   :    916.03s CPU    920.17s WALL (    5857 calls)

     General routines
     calbec       :   1446.55s CPU   1589.72s WALL (    7857 calls)
     fft          :    184.32s CPU    338.18s WALL (    3125 calls)
     ffts         :      3.35s CPU      6.35s WALL (     402 calls)
     fftw         :  11429.32s CPU  19956.41s WALL ( 3763446 calls)
     interpolate  :     25.10s CPU     44.60s WALL (     402 calls)
     davcio       :      0.00s CPU      0.15s WALL (      20 calls)

     Parallel routines
     fft_scatter  :   8383.69s CPU  16997.63s WALL ( 3766973 calls)

     PWSCF        :     8h38m CPU       11h25m WALL


   This run was terminated on:  20:38:44   1Apr2014            

=------------------------------------------------------------------------------=
   JOB DONE.
=------------------------------------------------------------------------------=
STOP 1
STOP 1
STOP 1
STOP 1
STOP 1
STOP 1
STOP 1
STOP 1
STOP 1
STOP 1
STOP 1
STOP 1
STOP 1
STOP 1
STOP 1
STOP 1
--------------------------------------------------------------------------
mpirun noticed that the job aborted, but has no info as to the process
that caused that situation.
--------------------------------------------------------------------------
---------------------------------------
Running PBS batch system epilogue script
Job id: 320661.audhumbla.fysik.dtu.dk
Username: zhonxu
Groupname: campgst
Jobname: RuO2/Eads-2-layers/O-relax-surf
Sessionid: 1835
Resources limits: neednodes=2:ppn=8:xeon8,nodes=2:ppn=8:xeon8,walltime=48:00:00
Resources used: cput=182:25:55,mem=10000824kb,vmem=13535496kb,walltime=11:25:06
Queuename: verylong
Accounting:
This job has allocated the following 16 nodes:
b063 b063 b063 b063 b063 b063 b063 b063 b009 b009 b009 b009 b009 b009 b009 b009
Finished epilogue job 320661.audhumbla.fysik.dtu.dk for zhonxu
