ScientificPython/2.8-dl160g6-numpy-1.7.1-1(15):ERROR:151: Module 'ScientificPython/2.8-dl160g6-numpy-1.7.1-1' depends on one of the module(s) 'numpy/1.7.1-dl160g6-gfortran-internal-1'
ScientificPython/2.8-dl160g6-numpy-1.7.1-1(15):ERROR:102: Tcl command execution failed: prereq numpy/1.7.1-dl160g6-gfortran-internal-1


     Program PWSCF v.5.0.2 (svn rev. 9656) starts on 25May2014 at  6:36:44 

     This program is part of the open-source Quantum ESPRESSO suite
     for quantum simulation of materials; please cite
         "P. Giannozzi et al., J. Phys.:Condens. Matter 21 395502 (2009);
          URL http://www.quantum-espresso.org", 
     in publications or presentations arising from this work. More details at
     http://www.quantum-espresso.org/quote.php

     Parallel version (MPI), running on    16 processors
     K-points division:     npool     =       4
     R & G space division:  proc/nbgrp/npool/nimage =       4

     Current dimensions of program PWSCF are:
     Max number of different atomic species (ntypx) = 10
     Max number of k-points (npk) =  40000
     Max angular momentum in pseudopotentials (lmaxx) =  3
     Reading input from pwscf.in
Warning: card &CELL ignored
Warning: card / ignored

     Subspace diagonalization in iterative solution of the eigenvalue problem:
     a serial algorithm will be used


     Parallelization info
     --------------------
     sticks:   dense  smooth     PW     G-vecs:    dense   smooth      PW
     Min        1274     408    116               299662    54238    8133
     Max        1275     409    117               299663    54251    8135
     Sum        5097    1635    467              1198649   216969   32535



     bravais-lattice index     =            0
     lattice parameter (alat)  =      10.9604  a.u.
     unit-cell volume          =    6350.6732 (a.u.)^3
     number of atoms/cell      =           30
     number of atomic types    =            3
     number of electrons       =       224.00 (up: 120.00, down: 104.00)
     number of Kohn-Sham states=          324
     kinetic-energy cutoff     =      40.0000  Ry
     charge density cutoff     =     500.0000  Ry
     convergence threshold     =      1.0E-06
     mixing beta               =       0.7000
     number of iterations used =            8  plain     mixing
     Exchange-correlation      = SLA  PW   PBE  PBE ( 1 4 3 4 0)
     EXX-fraction              =        0.00
     nstep                     =           50


     celldm(1)=  10.960412  celldm(2)=   0.000000  celldm(3)=   0.000000
     celldm(4)=   0.000000  celldm(5)=   0.000000  celldm(6)=   0.000000

     crystal axes: (cart. coord. in units of alat)
               a(1) = (   1.000000   0.000000   0.000000 )  
               a(2) = (   0.000000   1.067975   0.000000 )  
               a(3) = (   0.000000   0.000000   4.516251 )  

     reciprocal axes: (cart. coord. in units 2 pi/alat)
               b(1) = (  1.000000  0.000000  0.000000 )  
               b(2) = (  0.000000  0.936351  0.000000 )  
               b(3) = (  0.000000  0.000000  0.221423 )  


     PseudoPot. # 1 for O  read from file:
     /home/camp/zhonxu/pseudo/o_pbe_v1.01.uspp.F.UPF
     MD5 check sum: 2bcb18d16ea4b960afae9ec6d52f22d2
     Pseudo is Ultrasoft + core correction, Zval =  6.0
     Generated by new atomic code, or converted to UPF format
     Using radial grid of  737 points,  5 beta functions with: 
                l(1) =   0
                l(2) =   0
                l(3) =   1
                l(4) =   1
                l(5) =   2
     Q(r) pseudized with  8 coefficients,  rinner =    0.900   0.900   0.900
                                                       0.900   0.900

     PseudoPot. # 2 for Cr read from file:
     /home/camp/zhonxu/pseudo/cr_pbe_v1.uspp.F.UPF
     MD5 check sum: 68b6f918d1762dccfb11451fe85b0e0e
     Pseudo is Ultrasoft + core correction, Zval = 14.0
     Generated by new atomic code, or converted to UPF format
     Using radial grid of  857 points,  6 beta functions with: 
                l(1) =   0
                l(2) =   0
                l(3) =   1
                l(4) =   1
                l(5) =   2
                l(6) =   2
     Q(r) pseudized with  6 coefficients,  rinner =    1.000   1.000   1.000
                                                       1.000   1.000

     PseudoPot. # 3 for H  read from file:
     /home/camp/zhonxu/pseudo/h_pbe_v1.uspp.F.UPF
     MD5 check sum: 3408e3ff4ec8b0a4e358431e7e038a48
     Pseudo is Ultrasoft, Zval =  1.0
     Generated by new atomic code, or converted to UPF format
     Using radial grid of  615 points,  2 beta functions with: 
                l(1) =   0
                l(2) =   0
     Q(r) pseudized with  8 coefficients,  rinner =    0.700

     atomic species   valence    mass     pseudopotential
        O0             6.00    15.99940     O ( 1.00)
        Cr1           14.00    51.99600     Cr( 1.00)
        H2             1.00     1.00794     H ( 1.00)

     Starting magnetic structure 
     atomic species   magnetization
        O0           0.000
        Cr1          0.600
        H2           0.000


     Simplified LDA+U calculation (l_max = 2) with parameters (eV):
     atomic species    L          U    alpha       J0     beta
        Cr1            2     4.5000   0.0000   0.0000   0.0000



     No symmetry found



   Cartesian axes

     site n.     atom                  positions (alat units)
         1           O0  tau(   1) = (   0.0000000   0.0000000   1.7101687  )
         2           O0  tau(   2) = (   0.0000000   0.5339875   1.7886160  )
         3           Cr1 tau(   3) = (   0.2500000   0.5339875   2.0226481  )
         4           Cr1 tau(   4) = (   0.0000000   0.0000000   2.0417067  )
         5           O0  tau(   5) = (   0.2500000   0.8543801   2.0347065  )
         6           O0  tau(   6) = (   0.2500000   0.2135950   2.0346614  )
         7           O0  tau(   7) = (   0.0000000   0.5339875   2.2435380  )
         8           O0  tau(   8) = (   0.0000000   0.0000000   2.3782577  )
         9           Cr1 tau(   9) = (   0.2500000   0.0000000   2.6215933  )
        10           Cr1 tau(  10) = (   0.0000000   0.5339875   2.5599465  )
        11           O0  tau(  11) = (   0.2500000   0.7475825   2.6016767  )
        12           O0  tau(  12) = (   0.2500000   0.3203925   2.6023089  )
        13           O0  tau(  13) = (   0.0000000   0.0000000   2.8164696  )
        14           O0  tau(  14) = (   0.5000000   0.0000000   1.7101687  )
        15           O0  tau(  15) = (   0.5000000   0.5339875   1.7886160  )
        16           Cr1 tau(  16) = (   0.7500000   0.5339875   2.0226030  )
        17           Cr1 tau(  17) = (   0.5000000   0.0000000   2.0417067  )
        18           O0  tau(  18) = (   0.7500000   0.8543801   2.0347517  )
        19           O0  tau(  19) = (   0.7500000   0.2135950   2.0346614  )
        20           O0  tau(  20) = (   0.5000000   0.5339875   2.2435380  )
        21           O0  tau(  21) = (   0.5000000   0.0000000   2.3782577  )
        22           Cr1 tau(  22) = (   0.7500000   0.0000000   2.6153158  )
        23           Cr1 tau(  23) = (   0.5000000   0.5339875   2.5599465  )
        24           O0  tau(  24) = (   0.7500000   0.7475825   2.6014960  )
        25           O0  tau(  25) = (   0.7500000   0.3203925   2.6021283  )
        26           O0  tau(  26) = (   0.5000000   0.0000000   2.8165599  )
        27           H2  tau(  27) = (  -0.0007200   0.6817205   1.7029427  )
        28           H2  tau(  28) = (   0.4992700   0.6817205   1.7029427  )
        29           H2  tau(  29) = (   0.1587300   0.0312703   1.6546189  )
        30           H2  tau(  30) = (   0.6587500   0.0312490   1.6546640  )

     number of k points=    20  Methfessel-Paxton smearing, width (Ry)=  0.0100
                       cart. coord. in units 2pi/alat
        k(    1) = (   0.0000000   0.0000000   0.0000000), wk =   0.0625000
        k(    2) = (   0.0000000   0.2340879   0.0000000), wk =   0.1250000
        k(    3) = (   0.0000000  -0.4681757   0.0000000), wk =   0.0625000
        k(    4) = (   0.2500000   0.0000000   0.0000000), wk =   0.1250000
        k(    5) = (   0.2500000   0.2340879   0.0000000), wk =   0.1250000
        k(    6) = (   0.2500000  -0.4681757   0.0000000), wk =   0.1250000
        k(    7) = (  -0.5000000   0.0000000   0.0000000), wk =   0.0625000
        k(    8) = (  -0.5000000   0.2340879   0.0000000), wk =   0.1250000
        k(    9) = (  -0.5000000  -0.4681757   0.0000000), wk =   0.0625000
        k(   10) = (  -0.2500000   0.2340879   0.0000000), wk =   0.1250000
        k(   11) = (   0.0000000   0.0000000   0.0000000), wk =   0.0625000
        k(   12) = (   0.0000000   0.2340879   0.0000000), wk =   0.1250000
        k(   13) = (   0.0000000  -0.4681757   0.0000000), wk =   0.0625000
        k(   14) = (   0.2500000   0.0000000   0.0000000), wk =   0.1250000
        k(   15) = (   0.2500000   0.2340879   0.0000000), wk =   0.1250000
        k(   16) = (   0.2500000  -0.4681757   0.0000000), wk =   0.1250000
        k(   17) = (  -0.5000000   0.0000000   0.0000000), wk =   0.0625000
        k(   18) = (  -0.5000000   0.2340879   0.0000000), wk =   0.1250000
        k(   19) = (  -0.5000000  -0.4681757   0.0000000), wk =   0.0625000
        k(   20) = (  -0.2500000   0.2340879   0.0000000), wk =   0.1250000

     Dense  grid:  1198649 G-vectors     FFT dimensions: (  80,  90, 360)

     Smooth grid:   216969 G-vectors     FFT dimensions: (  45,  48, 200)

     Largest allocated arrays     est. size (Mb)     dimensions
        Kohn-Sham Wavefunctions        34.03 Mb     (   6884,  324)
        Atomic wavefunctions           16.39 Mb     (   6884,  156)
        NL pseudopotentials            40.55 Mb     (   6884,  386)
        Each V/rho on FFT grid         19.78 Mb     ( 648000,   2)
        Each G-vector array             2.29 Mb     ( 299662)
        G-vector shells                 0.99 Mb     ( 129803)
     Largest temporary arrays     est. size (Mb)     dimensions
        Auxiliary wavefunctions       136.13 Mb     (   6884, 1296)
        Each subspace H/S matrix       25.63 Mb     (1296,1296)
        Each <psi_i|beta_j> matrix      1.91 Mb     (    386,  324)
        Arrays for rho mixing          79.10 Mb     ( 648000,   8)

     Check: negative/imaginary core charge=   -0.000012    0.000000

     Initial potential from superposition of free atoms
     Check: negative starting charge=(component1):   -0.001574
     Check: negative starting charge=(component2):   -0.000506

     starting charge  215.99984, renormalised to  224.00000

     negative rho (up, down):  0.163E-02 0.524E-03
     Number of +U iterations with fixed ns =  0
     Starting occupations:
 --- enter write_ns ---
 LDA+U parameters:
U( 2)     =  4.50000000
alpha( 2) =  0.00000000
atom    3   Tr[ns(na)] (up, down, total) =   5.00000  0.00000  5.00000
   spin  1
    eigenvalues: 
  1.000  1.000  1.000  1.000  1.000
    eigenvectors:
  1.000  0.000  0.000  0.000  0.000
  0.000  1.000  0.000  0.000  0.000
  0.000  0.000  1.000  0.000  0.000
  0.000  0.000  0.000  1.000  0.000
  0.000  0.000  0.000  0.000  1.000
    occupations:
  1.000  0.000  0.000  0.000  0.000
  0.000  1.000  0.000  0.000  0.000
  0.000  0.000  1.000  0.000  0.000
  0.000  0.000  0.000  1.000  0.000
  0.000  0.000  0.000  0.000  1.000
   spin  2
    eigenvalues: 
  0.000  0.000  0.000  0.000  0.000
    eigenvectors:
  1.000  0.000  0.000  0.000  0.000
  0.000  1.000  0.000  0.000  0.000
  0.000  0.000  1.000  0.000  0.000
  0.000  0.000  0.000  1.000  0.000
  0.000  0.000  0.000  0.000  1.000
    occupations:
  0.000  0.000  0.000  0.000  0.000
  0.000  0.000  0.000  0.000  0.000
  0.000  0.000  0.000  0.000  0.000
  0.000  0.000  0.000  0.000  0.000
  0.000  0.000  0.000  0.000  0.000
atomic mag. moment =     5.000000
atom    4   Tr[ns(na)] (up, down, total) =   5.00000  0.00000  5.00000
   spin  1
    eigenvalues: 
  1.000  1.000  1.000  1.000  1.000
    eigenvectors:
  1.000  0.000  0.000  0.000  0.000
  0.000  1.000  0.000  0.000  0.000
  0.000  0.000  1.000  0.000  0.000
  0.000  0.000  0.000  1.000  0.000
  0.000  0.000  0.000  0.000  1.000
    occupations:
  1.000  0.000  0.000  0.000  0.000
  0.000  1.000  0.000  0.000  0.000
  0.000  0.000  1.000  0.000  0.000
  0.000  0.000  0.000  1.000  0.000
  0.000  0.000  0.000  0.000  1.000
   spin  2
    eigenvalues: 
  0.000  0.000  0.000  0.000  0.000
    eigenvectors:
  1.000  0.000  0.000  0.000  0.000
  0.000  1.000  0.000  0.000  0.000
  0.000  0.000  1.000  0.000  0.000
  0.000  0.000  0.000  1.000  0.000
  0.000  0.000  0.000  0.000  1.000
    occupations:
  0.000  0.000  0.000  0.000  0.000
  0.000  0.000  0.000  0.000  0.000
  0.000  0.000  0.000  0.000  0.000
  0.000  0.000  0.000  0.000  0.000
  0.000  0.000  0.000  0.000  0.000
atomic mag. moment =     5.000000
atom    9   Tr[ns(na)] (up, down, total) =   5.00000  0.00000  5.00000
   spin  1
    eigenvalues: 
  1.000  1.000  1.000  1.000  1.000
    eigenvectors:
  1.000  0.000  0.000  0.000  0.000
  0.000  1.000  0.000  0.000  0.000
  0.000  0.000  1.000  0.000  0.000
  0.000  0.000  0.000  1.000  0.000
  0.000  0.000  0.000  0.000  1.000
    occupations:
  1.000  0.000  0.000  0.000  0.000
  0.000  1.000  0.000  0.000  0.000
  0.000  0.000  1.000  0.000  0.000
  0.000  0.000  0.000  1.000  0.000
  0.000  0.000  0.000  0.000  1.000
   spin  2
    eigenvalues: 
  0.000  0.000  0.000  0.000  0.000
    eigenvectors:
  1.000  0.000  0.000  0.000  0.000
  0.000  1.000  0.000  0.000  0.000
  0.000  0.000  1.000  0.000  0.000
  0.000  0.000  0.000  1.000  0.000
  0.000  0.000  0.000  0.000  1.000
    occupations:
  0.000  0.000  0.000  0.000  0.000
  0.000  0.000  0.000  0.000  0.000
  0.000  0.000  0.000  0.000  0.000
  0.000  0.000  0.000  0.000  0.000
  0.000  0.000  0.000  0.000  0.000
atomic mag. moment =     5.000000
atom   10   Tr[ns(na)] (up, down, total) =   5.00000  0.00000  5.00000
   spin  1
    eigenvalues: 
  1.000  1.000  1.000  1.000  1.000
    eigenvectors:
  1.000  0.000  0.000  0.000  0.000
  0.000  1.000  0.000  0.000  0.000
  0.000  0.000  1.000  0.000  0.000
  0.000  0.000  0.000  1.000  0.000
  0.000  0.000  0.000  0.000  1.000
    occupations:
  1.000  0.000  0.000  0.000  0.000
  0.000  1.000  0.000  0.000  0.000
  0.000  0.000  1.000  0.000  0.000
  0.000  0.000  0.000  1.000  0.000
  0.000  0.000  0.000  0.000  1.000
   spin  2
    eigenvalues: 
  0.000  0.000  0.000  0.000  0.000
    eigenvectors:
  1.000  0.000  0.000  0.000  0.000
  0.000  1.000  0.000  0.000  0.000
  0.000  0.000  1.000  0.000  0.000
  0.000  0.000  0.000  1.000  0.000
  0.000  0.000  0.000  0.000  1.000
    occupations:
  0.000  0.000  0.000  0.000  0.000
  0.000  0.000  0.000  0.000  0.000
  0.000  0.000  0.000  0.000  0.000
  0.000  0.000  0.000  0.000  0.000
  0.000  0.000  0.000  0.000  0.000
atomic mag. moment =     5.000000
atom   16   Tr[ns(na)] (up, down, total) =   5.00000  0.00000  5.00000
   spin  1
    eigenvalues: 
  1.000  1.000  1.000  1.000  1.000
    eigenvectors:
  1.000  0.000  0.000  0.000  0.000
  0.000  1.000  0.000  0.000  0.000
  0.000  0.000  1.000  0.000  0.000
  0.000  0.000  0.000  1.000  0.000
  0.000  0.000  0.000  0.000  1.000
    occupations:
  1.000  0.000  0.000  0.000  0.000
  0.000  1.000  0.000  0.000  0.000
  0.000  0.000  1.000  0.000  0.000
  0.000  0.000  0.000  1.000  0.000
  0.000  0.000  0.000  0.000  1.000
   spin  2
    eigenvalues: 
  0.000  0.000  0.000  0.000  0.000
    eigenvectors:
  1.000  0.000  0.000  0.000  0.000
  0.000  1.000  0.000  0.000  0.000
  0.000  0.000  1.000  0.000  0.000
  0.000  0.000  0.000  1.000  0.000
  0.000  0.000  0.000  0.000  1.000
    occupations:
  0.000  0.000  0.000  0.000  0.000
  0.000  0.000  0.000  0.000  0.000
  0.000  0.000  0.000  0.000  0.000
  0.000  0.000  0.000  0.000  0.000
  0.000  0.000  0.000  0.000  0.000
atomic mag. moment =     5.000000
atom   17   Tr[ns(na)] (up, down, total) =   5.00000  0.00000  5.00000
   spin  1
    eigenvalues: 
  1.000  1.000  1.000  1.000  1.000
    eigenvectors:
  1.000  0.000  0.000  0.000  0.000
  0.000  1.000  0.000  0.000  0.000
  0.000  0.000  1.000  0.000  0.000
  0.000  0.000  0.000  1.000  0.000
  0.000  0.000  0.000  0.000  1.000
    occupations:
  1.000  0.000  0.000  0.000  0.000
  0.000  1.000  0.000  0.000  0.000
  0.000  0.000  1.000  0.000  0.000
  0.000  0.000  0.000  1.000  0.000
  0.000  0.000  0.000  0.000  1.000
   spin  2
    eigenvalues: 
  0.000  0.000  0.000  0.000  0.000
    eigenvectors:
  1.000  0.000  0.000  0.000  0.000
  0.000  1.000  0.000  0.000  0.000
  0.000  0.000  1.000  0.000  0.000
  0.000  0.000  0.000  1.000  0.000
  0.000  0.000  0.000  0.000  1.000
    occupations:
  0.000  0.000  0.000  0.000  0.000
  0.000  0.000  0.000  0.000  0.000
  0.000  0.000  0.000  0.000  0.000
  0.000  0.000  0.000  0.000  0.000
  0.000  0.000  0.000  0.000  0.000
atomic mag. moment =     5.000000
atom   22   Tr[ns(na)] (up, down, total) =   5.00000  0.00000  5.00000
   spin  1
    eigenvalues: 
  1.000  1.000  1.000  1.000  1.000
    eigenvectors:
  1.000  0.000  0.000  0.000  0.000
  0.000  1.000  0.000  0.000  0.000
  0.000  0.000  1.000  0.000  0.000
  0.000  0.000  0.000  1.000  0.000
  0.000  0.000  0.000  0.000  1.000
    occupations:
  1.000  0.000  0.000  0.000  0.000
  0.000  1.000  0.000  0.000  0.000
  0.000  0.000  1.000  0.000  0.000
  0.000  0.000  0.000  1.000  0.000
  0.000  0.000  0.000  0.000  1.000
   spin  2
    eigenvalues: 
  0.000  0.000  0.000  0.000  0.000
    eigenvectors:
  1.000  0.000  0.000  0.000  0.000
  0.000  1.000  0.000  0.000  0.000
  0.000  0.000  1.000  0.000  0.000
  0.000  0.000  0.000  1.000  0.000
  0.000  0.000  0.000  0.000  1.000
    occupations:
  0.000  0.000  0.000  0.000  0.000
  0.000  0.000  0.000  0.000  0.000
  0.000  0.000  0.000  0.000  0.000
  0.000  0.000  0.000  0.000  0.000
  0.000  0.000  0.000  0.000  0.000
atomic mag. moment =     5.000000
atom   23   Tr[ns(na)] (up, down, total) =   5.00000  0.00000  5.00000
   spin  1
    eigenvalues: 
  1.000  1.000  1.000  1.000  1.000
    eigenvectors:
  1.000  0.000  0.000  0.000  0.000
  0.000  1.000  0.000  0.000  0.000
  0.000  0.000  1.000  0.000  0.000
  0.000  0.000  0.000  1.000  0.000
  0.000  0.000  0.000  0.000  1.000
    occupations:
  1.000  0.000  0.000  0.000  0.000
  0.000  1.000  0.000  0.000  0.000
  0.000  0.000  1.000  0.000  0.000
  0.000  0.000  0.000  1.000  0.000
  0.000  0.000  0.000  0.000  1.000
   spin  2
    eigenvalues: 
  0.000  0.000  0.000  0.000  0.000
    eigenvectors:
  1.000  0.000  0.000  0.000  0.000
  0.000  1.000  0.000  0.000  0.000
  0.000  0.000  1.000  0.000  0.000
  0.000  0.000  0.000  1.000  0.000
  0.000  0.000  0.000  0.000  1.000
    occupations:
  0.000  0.000  0.000  0.000  0.000
  0.000  0.000  0.000  0.000  0.000
  0.000  0.000  0.000  0.000  0.000
  0.000  0.000  0.000  0.000  0.000
  0.000  0.000  0.000  0.000  0.000
atomic mag. moment =     5.000000
N of occupied +U levels =  40.0000000
 --- exit write_ns ---
 Atomic wfc used for LDA+U Projector are NOT orthogonalized
     Starting wfc are  156 randomized atomic wfcs

     total cpu time spent up to now is      123.1 secs

     per-process dynamical memory:   411.7 Mb

     Self-consistent Calculation

     iteration #  1     ecut=    40.00 Ry     beta=0.70
     Davidson diagonalization with overlap
     ethr =  1.00E-02,  avg # of iterations =  5.4
 --- enter write_ns ---
 LDA+U parameters:
U( 2)     =  4.50000000
alpha( 2) =  0.00000000
atom    3   Tr[ns(na)] (up, down, total) =   3.40760  0.53586  3.94346
   spin  1
    eigenvalues: 
  0.570  0.594  0.700  0.720  0.823
    eigenvectors:
  0.081  0.000  0.760  0.159  0.000
  0.000  0.969  0.000  0.000  0.031
  0.010  0.000  0.149  0.839  0.002
  0.909  0.000  0.090  0.001  0.000
  0.000  0.031  0.001  0.002  0.967
    occupations:
  0.693  0.000  0.011 -0.036  0.001
  0.000  0.602 -0.002  0.000  0.039
  0.011 -0.002  0.716  0.012 -0.005
 -0.036  0.000  0.012  0.582 -0.001
  0.001  0.039 -0.005 -0.001  0.816
   spin  2
    eigenvalues: 
  0.052  0.060  0.061  0.168  0.194
    eigenvectors:
  0.680  0.000  0.122  0.000  0.198
  0.000  0.001  0.000  0.999  0.000
  0.147  0.000  0.852  0.000  0.000
  0.173  0.000  0.025  0.000  0.802
  0.000  0.999  0.000  0.001  0.000
    occupations:
  0.081 -0.000 -0.002  0.056 -0.000
 -0.000  0.168 -0.000  0.000  0.003
 -0.002 -0.000  0.060  0.003 -0.000
  0.056  0.000  0.003  0.166 -0.000
 -0.000  0.003 -0.000 -0.000  0.060
atomic mag. moment =     2.871736
atom    4   Tr[ns(na)] (up, down, total) =   3.45402  0.56198  4.01600
   spin  1
    eigenvalues: 
  0.557  0.607  0.724  0.747  0.819
    eigenvectors:
  0.000  0.886  0.114  0.000  0.000
  0.000  0.106  0.847  0.044  0.003
  0.000  0.007  0.035  0.953  0.004
  0.000  0.001  0.004  0.002  0.993
  1.000  0.000  0.000  0.000  0.000
    occupations:
  0.621  0.035  0.010 -0.004  0.001
  0.035  0.713 -0.008  0.007  0.003
  0.010 -0.008  0.745  0.005  0.002
 -0.004  0.007  0.005  0.818 -0.000
  0.001  0.003  0.002 -0.000  0.557
   spin  2
    eigenvalues: 
  0.057  0.062  0.067  0.183  0.194
    eigenvectors:
  0.012  0.000  0.000  0.000  0.988
  0.016  0.793  0.189  0.000  0.001
  0.002  0.187  0.811  0.000  0.000
  0.970  0.019  0.000  0.000  0.011
  0.000  0.000  0.000  1.000  0.000
    occupations:
  0.192  0.005  0.001 -0.014  0.000
  0.005  0.063 -0.002  0.000  0.000
  0.001 -0.002  0.066  0.000  0.000
 -0.014  0.000  0.000  0.058  0.000
  0.000  0.000  0.000  0.000  0.183
atomic mag. moment =     2.892034
atom    9   Tr[ns(na)] (up, down, total) =   4.31648  0.60443  4.92091
   spin  1
    eigenvalues: 
  0.673  0.680  0.983  0.983  0.996
    eigenvectors:
  0.035  0.137  0.813  0.015  0.000
  0.796  0.204  0.000  0.000  0.000
  0.000  0.000  0.000  0.000  1.000
  0.170  0.659  0.169  0.003  0.000
  0.000  0.000  0.019  0.981  0.000
    occupations:
  0.931 -0.001 -0.000 -0.115  0.000
 -0.001  0.675 -0.000 -0.003 -0.000
 -0.000 -0.000  0.996 -0.000  0.000
 -0.115 -0.003 -0.000  0.731  0.000
  0.000 -0.000  0.000  0.000  0.983
   spin  2
    eigenvalues: 
  0.066  0.071  0.075  0.192  0.202
    eigenvectors:
  0.000  0.856  0.000  0.000  0.144
  0.000  0.000  0.000  1.000  0.000
  1.000  0.000  0.000  0.000  0.000
  0.000  0.144  0.000  0.000  0.856
  0.000  0.000  1.000  0.000  0.000
    occupations:
  0.090 -0.000  0.000  0.046  0.000
 -0.000  0.192 -0.000  0.000  0.000
  0.000 -0.000  0.066  0.000  0.000
  0.046  0.000  0.000  0.183 -0.000
  0.000  0.000  0.000 -0.000  0.075
atomic mag. moment =     3.712050
atom   10   Tr[ns(na)] (up, down, total) =   4.75540  0.49871  5.25411
   spin  1
    eigenvalues: 
  0.847  0.932  0.989  0.992  0.995
    eigenvectors:
  0.000  0.964  0.036  0.000  0.000
  0.000  0.000  0.005  0.995  0.000
  0.000  0.000  0.000  0.000  1.000
  0.000  0.036  0.960  0.005  0.000
  1.000  0.000  0.000  0.000  0.000
    occupations:
  0.934  0.000  0.001  0.011  0.000
  0.000  0.992  0.000 -0.000 -0.000
  0.001  0.000  0.995 -0.000  0.000
  0.011 -0.000 -0.000  0.987  0.000
  0.000 -0.000  0.000  0.000  0.847
   spin  2
    eigenvalues: 
  0.053  0.060  0.067  0.142  0.176
    eigenvectors:
  0.020  0.000  0.000  0.980  0.000
  0.000  0.000  1.000  0.000  0.000
  0.000  1.000  0.000  0.000  0.000
  0.980  0.000  0.000  0.020  0.000
  0.000  0.000  0.000  0.000  1.000
    occupations:
  0.141  0.000 -0.000 -0.012 -0.000
  0.000  0.067 -0.000 -0.000  0.000
 -0.000 -0.000  0.060  0.000 -0.000
 -0.012 -0.000  0.000  0.055  0.000
 -0.000  0.000 -0.000  0.000  0.176
atomic mag. moment =     4.256690
atom   16   Tr[ns(na)] (up, down, total) =   3.40774  0.53585  3.94359
   spin  1
    eigenvalues: 
  0.570  0.595  0.700  0.720  0.824
    eigenvectors:
  0.081  0.000  0.753  0.166  0.000
  0.000  0.969  0.000  0.000  0.031
  0.010  0.000  0.157  0.831  0.002
  0.909  0.000  0.090  0.001  0.000
  0.000  0.031  0.001  0.002  0.967
    occupations:
  0.693  0.000  0.011 -0.036  0.001
  0.000  0.602 -0.002  0.000  0.039
  0.011 -0.002  0.715  0.012 -0.005
 -0.036  0.000  0.012  0.581 -0.001
  0.001  0.039 -0.005 -0.001  0.816
   spin  2
    eigenvalues: 
  0.052  0.060  0.061  0.168  0.194
    eigenvectors:
  0.679  0.000  0.123  0.000  0.198
  0.000  0.001  0.000  0.999  0.000
  0.149  0.000  0.851  0.000  0.000
  0.173  0.000  0.026  0.000  0.802
  0.000  0.999  0.000  0.001  0.000
    occupations:
  0.081 -0.000 -0.002  0.056 -0.000
 -0.000  0.168 -0.000  0.000  0.003
 -0.002 -0.000  0.060  0.003 -0.000
  0.056  0.000  0.003  0.166 -0.000
 -0.000  0.003 -0.000 -0.000  0.060
atomic mag. moment =     2.871890
atom   17   Tr[ns(na)] (up, down, total) =   3.45464  0.56198  4.01662
   spin  1
    eigenvalues: 
  0.557  0.607  0.724  0.747  0.819
    eigenvectors:
  0.000  0.883  0.117  0.000  0.000
  0.000  0.109  0.844  0.044  0.003
  0.000  0.007  0.035  0.954  0.004
  0.000  0.001  0.004  0.002  0.993
  1.000  0.000  0.000  0.000  0.000
    occupations:
  0.621  0.036  0.010 -0.004  0.001
  0.036  0.713 -0.008  0.007  0.003
  0.010 -0.008  0.746  0.005  0.002
 -0.004  0.007  0.005  0.818 -0.000
  0.001  0.003  0.002 -0.000  0.557
   spin  2
    eigenvalues: 
  0.057  0.062  0.067  0.183  0.194
    eigenvectors:
  0.012  0.000  0.000  0.000  0.988
  0.015  0.795  0.189  0.000  0.001
  0.002  0.187  0.811  0.000  0.000
  0.971  0.018  0.000  0.000  0.011
  0.000  0.000  0.000  1.000  0.000
    occupations:
  0.192  0.005  0.001 -0.014  0.000
  0.005  0.063 -0.002  0.000  0.000
  0.001 -0.002  0.066  0.000  0.000
 -0.014  0.000  0.000  0.058  0.000
  0.000  0.000  0.000  0.000  0.183
atomic mag. moment =     2.892655
atom   22   Tr[ns(na)] (up, down, total) =   4.31712  0.59850  4.91562
   spin  1
    eigenvalues: 
  0.673  0.680  0.983  0.984  0.996
    eigenvectors:
  0.056  0.129  0.002  0.813  0.000
  0.696  0.304  0.000  0.000  0.000
  0.000  0.000  0.000  0.000  1.000
  0.248  0.567  0.000  0.184  0.000
  0.000  0.000  0.997  0.003  0.000
    occupations:
  0.927 -0.001 -0.000 -0.119 -0.000
 -0.001  0.676 -0.000 -0.003 -0.000
 -0.000 -0.000  0.996 -0.000  0.000
 -0.119 -0.003 -0.000  0.735  0.000
 -0.000 -0.000  0.000  0.000  0.983
   spin  2
    eigenvalues: 
  0.065  0.068  0.073  0.191  0.201
    eigenvectors:
  0.000  0.844  0.000  0.000  0.156
  0.000  0.000  0.000  1.000  0.000
  1.000  0.000  0.000  0.000  0.000
  0.000  0.156  0.000  0.000  0.844
  0.000  0.000  1.000  0.000  0.000
    occupations:
  0.089  0.000  0.000  0.048  0.000
  0.000  0.191 -0.000 -0.000 -0.000
  0.000 -0.000  0.065  0.000 -0.000
  0.048 -0.000  0.000  0.181 -0.000
  0.000 -0.000 -0.000 -0.000  0.073
atomic mag. moment =     3.718618
atom   23   Tr[ns(na)] (up, down, total) =   4.75542  0.49871  5.25413
   spin  1
    eigenvalues: 
  0.847  0.932  0.989  0.992  0.995
    eigenvectors:
  0.000  0.964  0.036  0.000  0.000
  0.000  0.000  0.001  0.999  0.000
  0.000  0.000  0.000  0.000  1.000
  0.000  0.036  0.963  0.001  0.000
  1.000  0.000  0.000  0.000  0.000
    occupations:
  0.934  0.000  0.001  0.011  0.000
  0.000  0.992  0.000  0.000 -0.000
  0.001  0.000  0.995 -0.000  0.000
  0.011  0.000 -0.000  0.987  0.000
  0.000 -0.000  0.000  0.000  0.847
   spin  2
    eigenvalues: 
  0.053  0.060  0.067  0.142  0.176
    eigenvectors:
  0.020  0.000  0.000  0.980  0.000
  0.000  0.000  1.000  0.000  0.000
  0.000  1.000  0.000  0.000  0.000
  0.980  0.000  0.000  0.019  0.000
  0.000  0.000  0.000  0.000  1.000
    occupations:
  0.141 -0.000 -0.000 -0.012  0.000
 -0.000  0.067 -0.000  0.000  0.000
 -0.000 -0.000  0.060  0.000  0.000
 -0.012  0.000  0.000  0.055  0.000
  0.000  0.000  0.000  0.000  0.176
atomic mag. moment =     4.256704
N of occupied +U levels =  36.2644391
 --- exit write_ns ---

     negative rho (up, down):  0.237E-02 0.121E-02

     total cpu time spent up to now is      583.8 secs

     total energy              =   -1956.49035564 Ry
     Harris-Foulkes estimate   =   -1988.81706113 Ry
     estimated scf accuracy    <      46.02050547 Ry

     total magnetization       =    16.00 Bohr mag/cell
     absolute magnetization    =    38.52 Bohr mag/cell

     iteration #  2     ecut=    40.00 Ry     beta=0.70
     Davidson diagonalization with overlap
     ethr =  1.00E-02,  avg # of iterations =  7.1

     negative rho (up, down):  0.183E-01 0.110E-01

     total cpu time spent up to now is     1085.1 secs

     total energy              =   -1747.97185479 Ry
     Harris-Foulkes estimate   =   -2395.57338456 Ry
     estimated scf accuracy    <    7086.53596587 Ry

     total magnetization       =    16.00 Bohr mag/cell
     absolute magnetization    =    16.35 Bohr mag/cell

     iteration #  3     ecut=    40.00 Ry     beta=0.70
     Davidson diagonalization with overlap
     ethr =  1.00E-02,  avg # of iterations =  6.0

     negative rho (up, down):  0.113E-01 0.179E-01

     total cpu time spent up to now is     1618.2 secs

     total energy              =   -1977.03346754 Ry
     Harris-Foulkes estimate   =   -1998.67932533 Ry
     estimated scf accuracy    <     267.17135329 Ry

     total magnetization       =    16.00 Bohr mag/cell
     absolute magnetization    =    20.62 Bohr mag/cell

     iteration #  4     ecut=    40.00 Ry     beta=0.70
     Davidson diagonalization with overlap
     ethr =  1.00E-02,  avg # of iterations =  4.0

     negative rho (up, down):  0.669E-02 0.426E-02

     total cpu time spent up to now is     1885.5 secs

     total energy              =   -1988.98061071 Ry
     Harris-Foulkes estimate   =   -1993.95799838 Ry
     estimated scf accuracy    <      28.92233983 Ry

     total magnetization       =    16.00 Bohr mag/cell
     absolute magnetization    =    30.24 Bohr mag/cell

     iteration #  5     ecut=    40.00 Ry     beta=0.70
     Davidson diagonalization with overlap
     ethr =  1.00E-02,  avg # of iterations =  1.1

     negative rho (up, down):  0.114E-01 0.340E-02

     total cpu time spent up to now is     2116.2 secs

     total energy              =   -1989.98397828 Ry
     Harris-Foulkes estimate   =   -1991.87920231 Ry
     estimated scf accuracy    <       8.78165867 Ry

     total magnetization       =    16.00 Bohr mag/cell
     absolute magnetization    =    27.10 Bohr mag/cell

     iteration #  6     ecut=    40.00 Ry     beta=0.70
     Davidson diagonalization with overlap
     ethr =  3.92E-03,  avg # of iterations =  3.3

     negative rho (up, down):  0.651E-02 0.264E-02

     total cpu time spent up to now is     2364.4 secs

     total energy              =   -1990.54701324 Ry
     Harris-Foulkes estimate   =   -1991.95550370 Ry
     estimated scf accuracy    <       9.11943993 Ry

     total magnetization       =    16.00 Bohr mag/cell
     absolute magnetization    =    29.78 Bohr mag/cell

     iteration #  7     ecut=    40.00 Ry     beta=0.70
     Davidson diagonalization with overlap
     ethr =  3.92E-03,  avg # of iterations =  1.6

     negative rho (up, down):  0.526E-02 0.252E-02

     total cpu time spent up to now is     2602.6 secs

     total energy              =   -1990.65157836 Ry
     Harris-Foulkes estimate   =   -1992.04820490 Ry
     estimated scf accuracy    <       6.74084672 Ry

     total magnetization       =    16.00 Bohr mag/cell
     absolute magnetization    =    31.77 Bohr mag/cell

     iteration #  8     ecut=    40.00 Ry     beta=0.70
     Davidson diagonalization with overlap
     ethr =  3.01E-03,  avg # of iterations =  1.1

     negative rho (up, down):  0.608E-02 0.174E-02

     total cpu time spent up to now is     2819.4 secs

     total energy              =   -1991.32773807 Ry
     Harris-Foulkes estimate   =   -1991.54923129 Ry
     estimated scf accuracy    <       1.19093667 Ry

     total magnetization       =    16.00 Bohr mag/cell
     absolute magnetization    =    28.12 Bohr mag/cell

     iteration #  9     ecut=    40.00 Ry     beta=0.70
     Davidson diagonalization with overlap
     ethr =  5.32E-04,  avg # of iterations =  4.9

     negative rho (up, down):  0.630E-02 0.139E-02

     total cpu time spent up to now is     3070.9 secs

     total energy              =   -1991.39954189 Ry
     Harris-Foulkes estimate   =   -1991.59354338 Ry
     estimated scf accuracy    <       1.48702623 Ry

     total magnetization       =    16.00 Bohr mag/cell
     absolute magnetization    =    27.93 Bohr mag/cell

     iteration # 10     ecut=    40.00 Ry     beta=0.70
     Davidson diagonalization with overlap
     ethr =  5.32E-04,  avg # of iterations =  1.2

     negative rho (up, down):  0.495E-02 0.154E-02

     total cpu time spent up to now is     3287.6 secs

     total energy              =   -1991.44732542 Ry
     Harris-Foulkes estimate   =   -1991.52787014 Ry
     estimated scf accuracy    <       0.86805622 Ry

     total magnetization       =    16.00 Bohr mag/cell
     absolute magnetization    =    28.22 Bohr mag/cell

     iteration # 11     ecut=    40.00 Ry     beta=0.70
     Davidson diagonalization with overlap
     ethr =  3.88E-04,  avg # of iterations =  3.2

     negative rho (up, down):  0.481E-02 0.172E-02

     total cpu time spent up to now is     3515.5 secs

     total energy              =   -1991.44389848 Ry
     Harris-Foulkes estimate   =   -1991.50531251 Ry
     estimated scf accuracy    <       0.42970601 Ry

     total magnetization       =    16.00 Bohr mag/cell
     absolute magnetization    =    28.57 Bohr mag/cell

     iteration # 12     ecut=    40.00 Ry     beta=0.70
     Davidson diagonalization with overlap
     ethr =  1.92E-04,  avg # of iterations =  5.3

     negative rho (up, down):  0.522E-02 0.151E-02

     total cpu time spent up to now is     3778.8 secs

     total energy              =   -1991.42332014 Ry
     Harris-Foulkes estimate   =   -1991.52375293 Ry
     estimated scf accuracy    <       0.81765326 Ry

     total magnetization       =    16.00 Bohr mag/cell
     absolute magnetization    =    27.62 Bohr mag/cell

     iteration # 13     ecut=    40.00 Ry     beta=0.70
     Davidson diagonalization with overlap
     ethr =  1.92E-04,  avg # of iterations =  3.8

     negative rho (up, down):  0.566E-02 0.161E-02

     total cpu time spent up to now is     4025.4 secs

     total energy              =   -1991.45689155 Ry
     Harris-Foulkes estimate   =   -1991.52366502 Ry
     estimated scf accuracy    <       0.97053737 Ry

     total magnetization       =    16.00 Bohr mag/cell
     absolute magnetization    =    27.18 Bohr mag/cell

     iteration # 14     ecut=    40.00 Ry     beta=0.70
     Davidson diagonalization with overlap
     ethr =  1.92E-04,  avg # of iterations =  1.0

     negative rho (up, down):  0.559E-02 0.157E-02

     total cpu time spent up to now is     4249.3 secs

     total energy              =   -1991.47685210 Ry
     Harris-Foulkes estimate   =   -1991.50137457 Ry
     estimated scf accuracy    <       0.19875325 Ry

     total magnetization       =    16.00 Bohr mag/cell
     absolute magnetization    =    27.36 Bohr mag/cell

     iteration # 15     ecut=    40.00 Ry     beta=0.70
     Davidson diagonalization with overlap
     ethr =  8.87E-05,  avg # of iterations =  1.4

     negative rho (up, down):  0.546E-02 0.157E-02

     total cpu time spent up to now is     4478.8 secs

     total energy              =   -1991.48576582 Ry
     Harris-Foulkes estimate   =   -1991.48988658 Ry
     estimated scf accuracy    <       0.06034438 Ry

     total magnetization       =    16.00 Bohr mag/cell
     absolute magnetization    =    27.36 Bohr mag/cell

     iteration # 16     ecut=    40.00 Ry     beta=0.70
     Davidson diagonalization with overlap
     ethr =  2.69E-05,  avg # of iterations =  3.5

     negative rho (up, down):  0.554E-02 0.158E-02

     total cpu time spent up to now is     4721.1 secs

     total energy              =   -1991.48545965 Ry
     Harris-Foulkes estimate   =   -1991.49074184 Ry
     estimated scf accuracy    <       0.08634378 Ry

     total magnetization       =    16.00 Bohr mag/cell
     absolute magnetization    =    27.42 Bohr mag/cell

     iteration # 17     ecut=    40.00 Ry     beta=0.70
     Davidson diagonalization with overlap
     ethr =  2.69E-05,  avg # of iterations =  1.6

     negative rho (up, down):  0.548E-02 0.169E-02

     total cpu time spent up to now is     4979.2 secs

     total energy              =   -1991.48804899 Ry
     Harris-Foulkes estimate   =   -1991.49045641 Ry
     estimated scf accuracy    <       0.02706909 Ry

     total magnetization       =    16.00 Bohr mag/cell
     absolute magnetization    =    27.18 Bohr mag/cell

     iteration # 18     ecut=    40.00 Ry     beta=0.70
     Davidson diagonalization with overlap
     ethr =  1.21E-05,  avg # of iterations =  1.7

     negative rho (up, down):  0.572E-02 0.178E-02

     total cpu time spent up to now is     5224.2 secs

     total energy              =   -1991.48892626 Ry
     Harris-Foulkes estimate   =   -1991.49086024 Ry
     estimated scf accuracy    <       0.03061084 Ry

     total magnetization       =    16.00 Bohr mag/cell
     absolute magnetization    =    27.11 Bohr mag/cell

     iteration # 19     ecut=    40.00 Ry     beta=0.70
     Davidson diagonalization with overlap
     ethr =  1.21E-05,  avg # of iterations =  1.0

     negative rho (up, down):  0.612E-02 0.199E-02

     total cpu time spent up to now is     5459.4 secs

     total energy              =   -1991.48840557 Ry
     Harris-Foulkes estimate   =   -1991.49259644 Ry
     estimated scf accuracy    <       0.03315318 Ry

     total magnetization       =    16.00 Bohr mag/cell
     absolute magnetization    =    27.16 Bohr mag/cell

     iteration # 20     ecut=    40.00 Ry     beta=0.70
     Davidson diagonalization with overlap
     ethr =  1.21E-05,  avg # of iterations =  1.0

     negative rho (up, down):  0.587E-02 0.188E-02

     total cpu time spent up to now is     5692.7 secs

     total energy              =   -1991.49081715 Ry
     Harris-Foulkes estimate   =   -1991.49087966 Ry
     estimated scf accuracy    <       0.00323939 Ry

     total magnetization       =    16.00 Bohr mag/cell
     absolute magnetization    =    27.00 Bohr mag/cell

     iteration # 21     ecut=    40.00 Ry     beta=0.70
     Davidson diagonalization with overlap
     ethr =  1.45E-06,  avg # of iterations =  8.6

     negative rho (up, down):  0.586E-02 0.186E-02

     total cpu time spent up to now is     5986.0 secs

     total energy              =   -1991.49098171 Ry
     Harris-Foulkes estimate   =   -1991.49115551 Ry
     estimated scf accuracy    <       0.00082225 Ry

     total magnetization       =    16.00 Bohr mag/cell
     absolute magnetization    =    26.89 Bohr mag/cell

     iteration # 22     ecut=    40.00 Ry     beta=0.70
     Davidson diagonalization with overlap
     ethr =  3.67E-07,  avg # of iterations =  1.6

     negative rho (up, down):  0.587E-02 0.187E-02

     total cpu time spent up to now is     6218.9 secs

     total energy              =   -1991.49092499 Ry
     Harris-Foulkes estimate   =   -1991.49137185 Ry
     estimated scf accuracy    <       0.00309784 Ry

     total magnetization       =    16.00 Bohr mag/cell
     absolute magnetization    =    26.86 Bohr mag/cell

     iteration # 23     ecut=    40.00 Ry     beta=0.70
     Davidson diagonalization with overlap
     ethr =  3.67E-07,  avg # of iterations =  1.1

     negative rho (up, down):  0.579E-02 0.183E-02

     total cpu time spent up to now is     6456.8 secs

     total energy              =   -1991.49120807 Ry
     Harris-Foulkes estimate   =   -1991.49129098 Ry
     estimated scf accuracy    <       0.00145643 Ry

     total magnetization       =    16.00 Bohr mag/cell
     absolute magnetization    =    26.85 Bohr mag/cell

     iteration # 24     ecut=    40.00 Ry     beta=0.70
     Davidson diagonalization with overlap
     ethr =  3.67E-07,  avg # of iterations =  1.0

     negative rho (up, down):  0.581E-02 0.184E-02

     total cpu time spent up to now is     6703.0 secs

     total energy              =   -1991.49118404 Ry
     Harris-Foulkes estimate   =   -1991.49135732 Ry
     estimated scf accuracy    <       0.00115687 Ry

     total magnetization       =    16.00 Bohr mag/cell
     absolute magnetization    =    26.83 Bohr mag/cell

     iteration # 25     ecut=    40.00 Ry     beta=0.70
     Davidson diagonalization with overlap
     ethr =  3.67E-07,  avg # of iterations =  1.0

     negative rho (up, down):  0.577E-02 0.182E-02

     total cpu time spent up to now is     6948.6 secs

     total energy              =   -1991.49127371 Ry
     Harris-Foulkes estimate   =   -1991.49133875 Ry
     estimated scf accuracy    <       0.00065261 Ry

     total magnetization       =    16.00 Bohr mag/cell
     absolute magnetization    =    26.80 Bohr mag/cell

     iteration # 26     ecut=    40.00 Ry     beta=0.70
     Davidson diagonalization with overlap
     ethr =  2.91E-07,  avg # of iterations =  1.0

     negative rho (up, down):  0.576E-02 0.181E-02

     total cpu time spent up to now is     7187.2 secs

     total energy              =   -1991.49132962 Ry
     Harris-Foulkes estimate   =   -1991.49137320 Ry
     estimated scf accuracy    <       0.00052427 Ry

     total magnetization       =    16.00 Bohr mag/cell
     absolute magnetization    =    26.78 Bohr mag/cell

     iteration # 27     ecut=    40.00 Ry     beta=0.70
     Davidson diagonalization with overlap
     ethr =  2.34E-07,  avg # of iterations =  1.0

     negative rho (up, down):  0.576E-02 0.181E-02

     total cpu time spent up to now is     7420.9 secs

     total energy              =   -1991.49127626 Ry
     Harris-Foulkes estimate   =   -1991.49141588 Ry
     estimated scf accuracy    <       0.00103418 Ry

     total magnetization       =    16.00 Bohr mag/cell
     absolute magnetization    =    26.78 Bohr mag/cell

     iteration # 28     ecut=    40.00 Ry     beta=0.70
     Davidson diagonalization with overlap
     ethr =  2.34E-07,  avg # of iterations =  1.0

     negative rho (up, down):  0.575E-02 0.181E-02

     total cpu time spent up to now is     7652.3 secs

     total energy              =   -1991.49121784 Ry
     Harris-Foulkes estimate   =   -1991.49151422 Ry
     estimated scf accuracy    <       0.00445789 Ry

     total magnetization       =    16.00 Bohr mag/cell
     absolute magnetization    =    26.80 Bohr mag/cell

     iteration # 29     ecut=    40.00 Ry     beta=0.70
     Davidson diagonalization with overlap
     ethr =  2.34E-07,  avg # of iterations =  1.0

     negative rho (up, down):  0.574E-02 0.181E-02

     total cpu time spent up to now is     7885.6 secs

     total energy              =   -1991.49135014 Ry
     Harris-Foulkes estimate   =   -1991.49138450 Ry
     estimated scf accuracy    <       0.00017852 Ry

     total magnetization       =    16.00 Bohr mag/cell
     absolute magnetization    =    26.75 Bohr mag/cell

     iteration # 30     ecut=    40.00 Ry     beta=0.70
     Davidson diagonalization with overlap
     ethr =  7.97E-08,  avg # of iterations =  1.6

     negative rho (up, down):  0.575E-02 0.181E-02

     total cpu time spent up to now is     8118.6 secs

     total energy              =   -1991.49128059 Ry
     Harris-Foulkes estimate   =   -1991.49148672 Ry
     estimated scf accuracy    <       0.00146531 Ry

     total magnetization       =    16.00 Bohr mag/cell
     absolute magnetization    =    26.75 Bohr mag/cell

     iteration # 31     ecut=    40.00 Ry     beta=0.70
     Davidson diagonalization with overlap
     ethr =  7.97E-08,  avg # of iterations =  1.4

     negative rho (up, down):  0.575E-02 0.181E-02

     total cpu time spent up to now is     8348.8 secs

     total energy              =   -1991.49137584 Ry
     Harris-Foulkes estimate   =   -1991.49138694 Ry
     estimated scf accuracy    <       0.00010996 Ry

     total magnetization       =    16.00 Bohr mag/cell
     absolute magnetization    =    26.76 Bohr mag/cell

     iteration # 32     ecut=    40.00 Ry     beta=0.70
     Davidson diagonalization with overlap
     ethr =  4.91E-08,  avg # of iterations =  1.0

     negative rho (up, down):  0.575E-02 0.181E-02

     total cpu time spent up to now is     8580.3 secs

     total energy              =   -1991.49135714 Ry
     Harris-Foulkes estimate   =   -1991.49139200 Ry
     estimated scf accuracy    <       0.00020327 Ry

     total magnetization       =    16.00 Bohr mag/cell
     absolute magnetization    =    26.76 Bohr mag/cell

     iteration # 33     ecut=    40.00 Ry     beta=0.70
     Davidson diagonalization with overlap
     ethr =  4.91E-08,  avg # of iterations =  1.2

     negative rho (up, down):  0.574E-02 0.181E-02

     total cpu time spent up to now is     8821.4 secs

     total energy              =   -1991.49132477 Ry
     Harris-Foulkes estimate   =   -1991.49143983 Ry
     estimated scf accuracy    <       0.00091200 Ry

     total magnetization       =    16.00 Bohr mag/cell
     absolute magnetization    =    26.75 Bohr mag/cell

     iteration # 34     ecut=    40.00 Ry     beta=0.70
     Davidson diagonalization with overlap
     ethr =  4.91E-08,  avg # of iterations =  1.2

     negative rho (up, down):  0.575E-02 0.181E-02

     total cpu time spent up to now is     9063.5 secs

     total energy              =   -1991.49137815 Ry
     Harris-Foulkes estimate   =   -1991.49140378 Ry
     estimated scf accuracy    <       0.00020542 Ry

     total magnetization       =    16.00 Bohr mag/cell
     absolute magnetization    =    26.74 Bohr mag/cell

     iteration # 35     ecut=    40.00 Ry     beta=0.70
     Davidson diagonalization with overlap
     ethr =  4.91E-08,  avg # of iterations =  1.0

     negative rho (up, down):  0.575E-02 0.181E-02

     total cpu time spent up to now is     9304.4 secs

     total energy              =   -1991.49138152 Ry
     Harris-Foulkes estimate   =   -1991.49139269 Ry
     estimated scf accuracy    <       0.00004630 Ry

     total magnetization       =    16.00 Bohr mag/cell
     absolute magnetization    =    26.75 Bohr mag/cell

     iteration # 36     ecut=    40.00 Ry     beta=0.70
     Davidson diagonalization with overlap
     ethr =  2.07E-08,  avg # of iterations =  1.0

     negative rho (up, down):  0.575E-02 0.181E-02

     total cpu time spent up to now is     9538.7 secs

     total energy              =   -1991.49138199 Ry
     Harris-Foulkes estimate   =   -1991.49139466 Ry
     estimated scf accuracy    <       0.00008879 Ry

     total magnetization       =    16.00 Bohr mag/cell
     absolute magnetization    =    26.76 Bohr mag/cell

     iteration # 37     ecut=    40.00 Ry     beta=0.70
     Davidson diagonalization with overlap
     ethr =  2.07E-08,  avg # of iterations =  1.0

     negative rho (up, down):  0.575E-02 0.181E-02

     total cpu time spent up to now is     9766.2 secs

     total energy              =   -1991.49139125 Ry
     Harris-Foulkes estimate   =   -1991.49139257 Ry
     estimated scf accuracy    <       0.00002427 Ry

     total magnetization       =    16.00 Bohr mag/cell
     absolute magnetization    =    26.75 Bohr mag/cell

     iteration # 38     ecut=    40.00 Ry     beta=0.70
     Davidson diagonalization with overlap
     ethr =  1.08E-08,  avg # of iterations =  1.1

     negative rho (up, down):  0.575E-02 0.181E-02

     total cpu time spent up to now is    10002.0 secs

     total energy              =   -1991.49137504 Ry
     Harris-Foulkes estimate   =   -1991.49140893 Ry
     estimated scf accuracy    <       0.00035415 Ry

     total magnetization       =    16.00 Bohr mag/cell
     absolute magnetization    =    26.75 Bohr mag/cell

     iteration # 39     ecut=    40.00 Ry     beta=0.70
     Davidson diagonalization with overlap
     ethr =  1.08E-08,  avg # of iterations =  1.1

     negative rho (up, down):  0.575E-02 0.181E-02

     total cpu time spent up to now is    10232.8 secs

     total energy              =   -1991.49139091 Ry
     Harris-Foulkes estimate   =   -1991.49139493 Ry
     estimated scf accuracy    <       0.00004768 Ry

     total magnetization       =    16.00 Bohr mag/cell
     absolute magnetization    =    26.76 Bohr mag/cell

     iteration # 40     ecut=    40.00 Ry     beta=0.70
     Davidson diagonalization with overlap
     ethr =  1.08E-08,  avg # of iterations =  1.0

     negative rho (up, down):  0.575E-02 0.181E-02

     total cpu time spent up to now is    10460.7 secs

     total energy              =   -1991.49139287 Ry
     Harris-Foulkes estimate   =   -1991.49139473 Ry
     estimated scf accuracy    <       0.00003540 Ry

     total magnetization       =    16.00 Bohr mag/cell
     absolute magnetization    =    26.75 Bohr mag/cell

     iteration # 41     ecut=    40.00 Ry     beta=0.70
     Davidson diagonalization with overlap
     ethr =  1.08E-08,  avg # of iterations =  1.0

     negative rho (up, down):  0.575E-02 0.181E-02

     total cpu time spent up to now is    10686.0 secs

     total energy              =   -1991.49139474 Ry
     Harris-Foulkes estimate   =   -1991.49139442 Ry
     estimated scf accuracy    <       0.00001092 Ry

     total magnetization       =    16.00 Bohr mag/cell
     absolute magnetization    =    26.75 Bohr mag/cell

     iteration # 42     ecut=    40.00 Ry     beta=0.70
     Davidson diagonalization with overlap
     ethr =  4.88E-09,  avg # of iterations =  1.0

     negative rho (up, down):  0.575E-02 0.181E-02

     total cpu time spent up to now is    10907.0 secs

     total energy              =   -1991.49139570 Ry
     Harris-Foulkes estimate   =   -1991.49139643 Ry
     estimated scf accuracy    <       0.00001270 Ry

     total magnetization       =    16.00 Bohr mag/cell
     absolute magnetization    =    26.75 Bohr mag/cell

     iteration # 43     ecut=    40.00 Ry     beta=0.70
     Davidson diagonalization with overlap
     ethr =  4.88E-09,  avg # of iterations =  1.0

     negative rho (up, down):  0.575E-02 0.181E-02

     total cpu time spent up to now is    11128.7 secs

     total energy              =   -1991.49139537 Ry
     Harris-Foulkes estimate   =   -1991.49139901 Ry
     estimated scf accuracy    <       0.00001343 Ry

     total magnetization       =    16.00 Bohr mag/cell
     absolute magnetization    =    26.74 Bohr mag/cell

     iteration # 44     ecut=    40.00 Ry     beta=0.70
     Davidson diagonalization with overlap
     ethr =  4.88E-09,  avg # of iterations =  1.5

     negative rho (up, down):  0.575E-02 0.181E-02

     total cpu time spent up to now is    11361.5 secs

     total energy              =   -1991.49138762 Ry
     Harris-Foulkes estimate   =   -1991.49140617 Ry
     estimated scf accuracy    <       0.00013409 Ry

     total magnetization       =    16.00 Bohr mag/cell
     absolute magnetization    =    26.75 Bohr mag/cell

     iteration # 45     ecut=    40.00 Ry     beta=0.70
     Davidson diagonalization with overlap
     ethr =  4.88E-09,  avg # of iterations =  2.0

     negative rho (up, down):  0.575E-02 0.181E-02

     total cpu time spent up to now is    11590.9 secs

     total energy              =   -1991.49139652 Ry
     Harris-Foulkes estimate   =   -1991.49139859 Ry
     estimated scf accuracy    <       0.00002322 Ry

     total magnetization       =    16.00 Bohr mag/cell
     absolute magnetization    =    26.74 Bohr mag/cell

     iteration # 46     ecut=    40.00 Ry     beta=0.70
     Davidson diagonalization with overlap
     ethr =  4.88E-09,  avg # of iterations =  1.0

     negative rho (up, down):  0.575E-02 0.181E-02

     total cpu time spent up to now is    11813.7 secs

     total energy              =   -1991.49139695 Ry
     Harris-Foulkes estimate   =   -1991.49139906 Ry
     estimated scf accuracy    <       0.00001669 Ry

     total magnetization       =    16.00 Bohr mag/cell
     absolute magnetization    =    26.74 Bohr mag/cell

     iteration # 47     ecut=    40.00 Ry     beta=0.70
     Davidson diagonalization with overlap
     ethr =  4.88E-09,  avg # of iterations =  1.0

     negative rho (up, down):  0.575E-02 0.181E-02

     total cpu time spent up to now is    12036.4 secs

     total energy              =   -1991.49139583 Ry
     Harris-Foulkes estimate   =   -1991.49140122 Ry
     estimated scf accuracy    <       0.00003519 Ry

     total magnetization       =    16.00 Bohr mag/cell
     absolute magnetization    =    26.74 Bohr mag/cell

     iteration # 48     ecut=    40.00 Ry     beta=0.70
     Davidson diagonalization with overlap
     ethr =  4.88E-09,  avg # of iterations =  1.0

     negative rho (up, down):  0.575E-02 0.181E-02

     total cpu time spent up to now is    12255.7 secs

     total energy              =   -1991.49139885 Ry
     Harris-Foulkes estimate   =   -1991.49139919 Ry
     estimated scf accuracy    <       0.00000207 Ry

     total magnetization       =    16.00 Bohr mag/cell
     absolute magnetization    =    26.74 Bohr mag/cell

     iteration # 49     ecut=    40.00 Ry     beta=0.70
     Davidson diagonalization with overlap
     ethr =  9.24E-10,  avg # of iterations =  1.0

     negative rho (up, down):  0.575E-02 0.181E-02

     total cpu time spent up to now is    12480.6 secs

     total energy              =   -1991.49139846 Ry
     Harris-Foulkes estimate   =   -1991.49139931 Ry
     estimated scf accuracy    <       0.00000433 Ry

     total magnetization       =    16.00 Bohr mag/cell
     absolute magnetization    =    26.74 Bohr mag/cell

     iteration # 50     ecut=    40.00 Ry     beta=0.70
     Davidson diagonalization with overlap
     ethr =  9.24E-10,  avg # of iterations =  2.0

     negative rho (up, down):  0.575E-02 0.181E-02

     total cpu time spent up to now is    12710.8 secs

     total energy              =   -1991.49139604 Ry
     Harris-Foulkes estimate   =   -1991.49140155 Ry
     estimated scf accuracy    <       0.00004619 Ry

     total magnetization       =    16.00 Bohr mag/cell
     absolute magnetization    =    26.74 Bohr mag/cell

     iteration # 51     ecut=    40.00 Ry     beta=0.70
     Davidson diagonalization with overlap
     ethr =  9.24E-10,  avg # of iterations =  2.0

     negative rho (up, down):  0.575E-02 0.181E-02

     total cpu time spent up to now is    12945.7 secs

     total energy              =   -1991.49139870 Ry
     Harris-Foulkes estimate   =   -1991.49139927 Ry
     estimated scf accuracy    <       0.00000704 Ry

     total magnetization       =    16.00 Bohr mag/cell
     absolute magnetization    =    26.74 Bohr mag/cell

     iteration # 52     ecut=    40.00 Ry     beta=0.70
     Davidson diagonalization with overlap
     ethr =  9.24E-10,  avg # of iterations =  1.0

     negative rho (up, down):  0.575E-02 0.181E-02

     total cpu time spent up to now is    13169.3 secs

     total energy              =   -1991.49139885 Ry
     Harris-Foulkes estimate   =   -1991.49139918 Ry
     estimated scf accuracy    <       0.00000358 Ry

     total magnetization       =    16.00 Bohr mag/cell
     absolute magnetization    =    26.74 Bohr mag/cell

     iteration # 53     ecut=    40.00 Ry     beta=0.70
     Davidson diagonalization with overlap
     ethr =  9.24E-10,  avg # of iterations =  1.0

     negative rho (up, down):  0.575E-02 0.181E-02

     total cpu time spent up to now is    13393.2 secs

     total energy              =   -1991.49139905 Ry
     Harris-Foulkes estimate   =   -1991.49139914 Ry
     estimated scf accuracy    <       0.00000148 Ry

     total magnetization       =    16.00 Bohr mag/cell
     absolute magnetization    =    26.74 Bohr mag/cell

     iteration # 54     ecut=    40.00 Ry     beta=0.70
     Davidson diagonalization with overlap
     ethr =  6.59E-10,  avg # of iterations =  1.0

     negative rho (up, down):  0.575E-02 0.181E-02

     total cpu time spent up to now is    13618.7 secs

     End of self-consistent calculation
 --- enter write_ns ---
 LDA+U parameters:
U( 2)     =  4.50000000
alpha( 2) =  0.00000000
atom    3   Tr[ns(na)] (up, down, total) =   3.65596  0.94536  4.60132
   spin  1
    eigenvalues: 
  0.455  0.503  0.759  0.952  0.988
    eigenvectors:
  0.000  0.232  0.002  0.000  0.766
  1.000  0.000  0.000  0.000  0.000
  0.000  0.000  0.997  0.000  0.003
  0.000  0.768  0.001  0.000  0.231
  0.000  0.000  0.000  1.000  0.000
    occupations:
  0.875 -0.000  0.011 -0.205 -0.000
 -0.000  0.455  0.000 -0.000 -0.010
  0.011  0.000  0.759 -0.006  0.001
 -0.205 -0.000 -0.006  0.615 -0.000
 -0.000 -0.010  0.001 -0.000  0.951
   spin  2
    eigenvalues: 
  0.077  0.096  0.110  0.314  0.349
    eigenvectors:
  0.746  0.000  0.029  0.000  0.225
  0.000  0.002  0.000  0.998  0.000
  0.034  0.000  0.966  0.000  0.000
  0.221  0.000  0.005  0.000  0.775
  0.000  0.998  0.000  0.002  0.000
    occupations:
  0.139 -0.000 -0.003  0.113 -0.000
 -0.000  0.314 -0.000 -0.000  0.010
 -0.003 -0.000  0.109  0.007  0.000
  0.113 -0.000  0.007  0.288 -0.000
 -0.000  0.010  0.000 -0.000  0.096
atomic mag. moment =     2.710605
atom    4   Tr[ns(na)] (up, down, total) =   3.61451  0.99973  4.61425
   spin  1
    eigenvalues: 
  0.484  0.535  0.707  0.900  0.988
    eigenvectors:
  0.001  0.994  0.000  0.001  0.004
  0.000  0.001  0.016  0.983  0.000
  0.000  0.000  0.984  0.016  0.000
  0.000  0.004  0.000  0.000  0.996
  0.999  0.001  0.000  0.000  0.000
    occupations:
  0.537 -0.012 -0.003  0.028  0.002
 -0.012  0.896  0.024  0.001  0.000
 -0.003  0.024  0.711  0.000  0.001
  0.028  0.001  0.000  0.987 -0.000
  0.002  0.000  0.001 -0.000  0.484
   spin  2
    eigenvalues: 
  0.086  0.102  0.115  0.343  0.354
    eigenvectors:
  0.004  0.001  0.000  0.005  0.989
  0.003  0.909  0.086  0.000  0.002
  0.000  0.086  0.914  0.000  0.000
  0.992  0.004  0.000  0.000  0.004
  0.000  0.000  0.000  0.995  0.005
    occupations:
  0.352  0.011  0.002 -0.017  0.001
  0.011  0.103 -0.004  0.000 -0.000
  0.002 -0.004  0.114  0.000  0.000
 -0.017  0.000  0.000  0.087 -0.000
  0.001 -0.000  0.000 -0.000  0.343
atomic mag. moment =     2.614781
atom    9   Tr[ns(na)] (up, down, total) =   3.56769  1.10302  4.67071
   spin  1
    eigenvalues: 
  0.537  0.547  0.694  0.876  0.913
    eigenvectors:
  0.001  0.158  0.000  0.003  0.838
  0.995  0.005  0.000  0.000  0.000
  0.000  0.000  1.000  0.000  0.000
  0.004  0.837  0.000  0.001  0.158
  0.000  0.000  0.000  0.996  0.004
    occupations:
  0.855  0.001 -0.002 -0.134 -0.002
  0.001  0.537  0.001  0.000  0.000
 -0.002  0.001  0.694  0.001 -0.000
 -0.134  0.000  0.001  0.606  0.001
 -0.002  0.000 -0.000  0.001  0.876
   spin  2
    eigenvalues: 
  0.119  0.125  0.125  0.361  0.374
    eigenvectors:
  0.840  0.000  0.000  0.000  0.160
  0.000  0.000  0.000  1.000  0.000
  0.000  0.087  0.913  0.000  0.000
  0.160  0.000  0.000  0.000  0.840
  0.000  0.913  0.087  0.000  0.000
    occupations:
  0.160 -0.000  0.000  0.094  0.000
 -0.000  0.361 -0.000 -0.000  0.000
  0.000 -0.000  0.125  0.000  0.000
  0.094 -0.000  0.000  0.334 -0.000
  0.000  0.000  0.000 -0.000  0.125
atomic mag. moment =     2.464673
atom   10   Tr[ns(na)] (up, down, total) =   3.71119  0.85928  4.57047
   spin  1
    eigenvalues: 
  0.451  0.475  0.864  0.935  0.986
    eigenvectors:
  0.998  0.000  0.000  0.000  0.002
  0.000  0.000  0.000  1.000  0.000
  0.000  0.000  1.000  0.000  0.000
  0.002  0.000  0.000  0.000  0.998
  0.000  1.000  0.000  0.000  0.000
    occupations:
  0.452  0.003 -0.002  0.022 -0.000
  0.003  0.935 -0.001  0.001 -0.000
 -0.002 -0.001  0.864  0.000 -0.003
  0.022  0.001  0.000  0.985  0.000
 -0.000 -0.000 -0.003  0.000  0.475
   spin  2
    eigenvalues: 
  0.079  0.105  0.107  0.244  0.324
    eigenvectors:
  0.010  0.000  0.000  0.990  0.000
  0.000  0.000  1.000  0.000  0.000
  0.000  1.000  0.000  0.000  0.000
  0.990  0.000  0.000  0.010  0.000
  0.000  0.000  0.000  0.000  1.000
    occupations:
  0.243 -0.000 -0.000 -0.016 -0.000
 -0.000  0.107  0.000 -0.000  0.000
 -0.000  0.000  0.105 -0.000 -0.000
 -0.016 -0.000 -0.000  0.081 -0.000
 -0.000  0.000 -0.000 -0.000  0.324
atomic mag. moment =     2.851910
atom   16   Tr[ns(na)] (up, down, total) =   3.65633  0.94493  4.60126
   spin  1
    eigenvalues: 
  0.455  0.503  0.758  0.953  0.988
    eigenvectors:
  0.000  0.231  0.002  0.000  0.766
  1.000  0.000  0.000  0.000  0.000
  0.000  0.000  0.997  0.000  0.003
  0.000  0.769  0.001  0.000  0.231
  0.000  0.000  0.000  1.000  0.000
    occupations:
  0.875 -0.000  0.011 -0.204 -0.000
 -0.000  0.455  0.000 -0.000 -0.010
  0.011  0.000  0.758 -0.006  0.001
 -0.204 -0.000 -0.006  0.615 -0.000
 -0.000 -0.010  0.001 -0.000  0.953
   spin  2
    eigenvalues: 
  0.077  0.096  0.110  0.314  0.348
    eigenvectors:
  0.746  0.000  0.029  0.000  0.225
  0.000  0.002  0.000  0.998  0.000
  0.034  0.000  0.966  0.000  0.000
  0.221  0.000  0.005  0.000  0.774
  0.000  0.998  0.000  0.002  0.000
    occupations:
  0.139 -0.000 -0.003  0.113 -0.000
 -0.000  0.313 -0.000 -0.000  0.010
 -0.003 -0.000  0.109  0.007  0.000
  0.113 -0.000  0.007  0.287 -0.000
 -0.000  0.010  0.000 -0.000  0.096
atomic mag. moment =     2.711394
atom   17   Tr[ns(na)] (up, down, total) =   3.61459  0.99981  4.61440
   spin  1
    eigenvalues: 
  0.484  0.535  0.708  0.900  0.988
    eigenvectors:
  0.001  0.994  0.000  0.001  0.004
  0.000  0.001  0.016  0.983  0.000
  0.000  0.000  0.984  0.016  0.000
  0.000  0.004  0.000  0.000  0.996
  0.999  0.001  0.000  0.000  0.000
    occupations:
  0.537 -0.012 -0.002  0.028  0.002
 -0.012  0.896  0.024  0.002 -0.000
 -0.002  0.024  0.711  0.000  0.001
  0.028  0.002  0.000  0.987 -0.000
  0.002 -0.000  0.001 -0.000  0.485
   spin  2
    eigenvalues: 
  0.086  0.102  0.115  0.343  0.354
    eigenvectors:
  0.004  0.001  0.000  0.005  0.989
  0.003  0.910  0.086  0.000  0.002
  0.000  0.086  0.914  0.000  0.000
  0.993  0.003  0.000  0.000  0.004
  0.000  0.000  0.000  0.995  0.005
    occupations:
  0.352  0.010  0.002 -0.017  0.001
  0.010  0.103 -0.004  0.000 -0.000
  0.002 -0.004  0.114  0.000  0.000
 -0.017  0.000  0.000  0.087 -0.000
  0.001 -0.000  0.000 -0.000  0.343
atomic mag. moment =     2.614786
atom   22   Tr[ns(na)] (up, down, total) =   3.58868  1.06840  4.65708
   spin  1
    eigenvalues: 
  0.527  0.542  0.673  0.891  0.957
    eigenvectors:
  0.001  0.174  0.000  0.002  0.824
  0.997  0.003  0.000  0.000  0.000
  0.000  0.000  1.000  0.000  0.000
  0.002  0.823  0.000  0.000  0.174
  0.000  0.000  0.000  0.998  0.002
    occupations:
  0.884  0.001 -0.002 -0.157 -0.003
  0.001  0.527  0.001  0.001  0.000
 -0.002  0.001  0.673  0.000 -0.000
 -0.157  0.001  0.000  0.614  0.002
 -0.003  0.000 -0.000  0.002  0.891
   spin  2
    eigenvalues: 
  0.108  0.118  0.121  0.352  0.369
    eigenvectors:
  0.823  0.000  0.000  0.000  0.177
  0.000  0.000  0.000  1.000  0.000
  0.000  0.000  1.000  0.000  0.000
  0.177  0.000  0.000  0.000  0.823
  0.000  1.000  0.000  0.000  0.000
    occupations:
  0.154 -0.000  0.000  0.100  0.000
 -0.000  0.352 -0.000 -0.000  0.000
  0.000 -0.000  0.121  0.000 -0.000
  0.100 -0.000  0.000  0.323 -0.000
  0.000  0.000 -0.000 -0.000  0.118
atomic mag. moment =     2.520284
atom   23   Tr[ns(na)] (up, down, total) =   3.71097  0.85924  4.57020
   spin  1
    eigenvalues: 
  0.451  0.475  0.864  0.935  0.986
    eigenvectors:
  0.998  0.000  0.000  0.000  0.002
  0.000  0.000  0.000  0.999  0.000
  0.000  0.000  1.000  0.000  0.000
  0.002  0.000  0.000  0.000  0.998
  0.000  1.000  0.000  0.000  0.000
    occupations:
  0.452 -0.003 -0.001  0.022 -0.000
 -0.003  0.935 -0.001 -0.001 -0.000
 -0.001 -0.001  0.864  0.000  0.002
  0.022 -0.001  0.000  0.985  0.000
 -0.000 -0.000  0.002  0.000  0.475
   spin  2
    eigenvalues: 
  0.079  0.105  0.107  0.244  0.324
    eigenvectors:
  0.010  0.000  0.000  0.990  0.000
  0.000  0.000  1.000  0.000  0.000
  0.000  1.000  0.000  0.000  0.000
  0.990  0.000  0.000  0.010  0.000
  0.000  0.000  0.000  0.000  1.000
    occupations:
  0.242  0.000 -0.000 -0.016 -0.000
  0.000  0.107  0.000  0.000  0.000
 -0.000  0.000  0.105 -0.000  0.000
 -0.016  0.000 -0.000  0.081 -0.000
 -0.000  0.000  0.000 -0.000  0.324
atomic mag. moment =     2.851730
N of occupied +U levels =  36.8997110
 --- exit write_ns ---

 ------ SPIN UP ------------


          k = 0.0000 0.0000 0.0000 ( 27003 PWs)   bands (ev):

   -75.3517 -75.3052 -75.2928 -75.2907 -75.2783 -75.2572 -75.2548 -75.2408
   -46.7615 -46.7475 -46.7403 -46.6729 -46.6615 -46.6528 -46.6370 -46.6332
   -46.6267 -46.6097 -46.6072 -46.6066 -46.5983 -46.5964 -46.5803 -46.5722
   -46.5547 -46.5382 -46.5354 -46.5116 -46.4773 -46.4592 -46.4325 -46.4154
   -21.2701 -20.7512 -20.5660 -20.4857 -19.9772 -19.8205 -19.7619 -19.7088
   -19.6972 -19.5279 -19.4859 -19.4545 -19.3819 -19.3600 -19.2903 -18.9044
   -18.7400 -18.6465  -9.8778  -9.6624  -9.3506  -9.1083  -9.0116  -8.5659
    -8.3876  -8.2729  -8.1824  -8.1449  -7.9735  -7.8827  -7.8306  -7.5629
    -7.4682  -7.3589  -7.1953  -7.1032  -6.9531  -6.7955  -6.7345  -6.6720
    -6.5660  -6.5163  -6.4640  -6.1073  -5.9775  -5.8601  -5.7959  -5.7411
    -5.7171  -5.5201  -5.4395  -5.3952  -5.3916  -5.2998  -5.2633  -5.2030
    -4.9902  -4.9104  -4.8328  -4.7089  -4.6446  -4.5696  -4.5371  -4.4961
    -4.4554  -4.3487  -4.2782  -4.2501  -4.1805  -4.0773  -4.0618  -4.0348
    -4.0062  -3.9028  -3.8978  -3.7656  -3.6892  -3.5909  -3.3297  -3.0617
    -2.9696  -2.6793  -2.5681  -2.5126  -2.4574  -2.2984  -2.2515  -2.2405
    -2.1748  -2.0376  -1.8477  -1.7877  -1.5452  -1.3368  -1.1270  -1.0896
    -0.8148  -0.4446   0.3487   0.4370   1.0383   1.2257   1.2413   1.2860
     1.2886   1.4036   1.4055   1.8483   1.8708   1.9633   2.0487   2.2480
     3.1433   3.2941   3.7036   4.1810   4.6752   5.4669   6.0163   6.2907
     6.7529   6.9027   7.0978   7.1462   7.1828   7.2319   7.2906   7.5436
     7.6384   7.6439   7.7860   8.0679   8.0899   8.1645   8.1930   8.3404
     8.4120   8.4639   8.6194   8.7332   8.7773   8.8681   9.1192   9.2399
     9.2707   9.3180   9.3858   9.4245   9.6137   9.7143   9.8579   9.9340
    10.1542  10.2025  10.2198  10.4405  10.5924  10.6420  10.9686  10.9929
    11.0498  11.1101  11.2239  11.2828  11.3620  11.3689  11.4523  11.4667
    11.5851  11.6277  11.7808  12.0220  12.0294  12.0538  12.0637  12.1467
    12.2914  12.2959  12.2995  12.3758  12.4181  12.4275  12.4660  12.5579
    12.6399  12.7715  12.8401  12.8694  12.9294  13.0084  13.0798  13.1290
    13.1718  13.2294  13.4310  13.4335  13.5390  13.6419  13.7021  13.8248
    13.8591  13.9505  13.9654  14.0162  14.1977  14.2317  14.3157  14.4685
    14.5014  14.5543  14.6873  14.7151  14.8166  14.9051  15.0065  15.0419
    15.2012  15.2485  15.3240  15.3570  15.4424  15.6102  15.6740  15.7982
    15.9628  16.0943  16.1942  16.2267  16.2949  16.4015  16.6115  16.6171
    16.6462  16.8476  16.8565  16.9168  17.0140  17.0486  17.2723  17.4301
    17.5214  17.5866  17.6804  17.7361  17.8305  17.9431  17.9486  18.1108
    18.2715  18.3431  18.3631  18.4980  18.5600  18.6207  18.7738  18.8479
    18.9277  18.9355  19.0592  19.0862  19.2705  19.3377  19.3590  19.4552
    19.5178  19.6034  19.6433  19.6845  19.7089  19.7840  19.8593  19.8764
    20.0265  20.0503  20.1626  20.2482  20.2943  20.3406  20.3855  20.5431
    20.5479  20.8042  20.8132  20.9384  21.0163  21.1487  21.1564  21.1885
    21.2003  21.2959  21.3379  21.3873

          k = 0.0000 0.2341 0.0000 ( 27088 PWs)   bands (ev):

   -75.3517 -75.3052 -75.2928 -75.2907 -75.2783 -75.2572 -75.2548 -75.2409
   -46.7617 -46.7475 -46.7395 -46.6740 -46.6565 -46.6536 -46.6373 -46.6331
   -46.6240 -46.6105 -46.6097 -46.6064 -46.6010 -46.5963 -46.5805 -46.5707
   -46.5547 -46.5390 -46.5369 -46.5112 -46.4772 -46.4589 -46.4327 -46.4156
   -21.1846 -20.6522 -20.5621 -20.4918 -20.0007 -19.8195 -19.7966 -19.7813
   -19.7042 -19.6319 -19.5464 -19.4792 -19.4372 -19.3561 -19.1747 -18.9078
   -18.7393 -18.6444  -9.6772  -9.3821  -9.3515  -9.2486  -9.0037  -8.8182
    -8.5946  -8.2232  -8.0845  -7.9768  -7.8410  -7.7271  -7.4373  -7.3417
    -7.2869  -7.1996  -7.1650  -6.9641  -6.9471  -6.8221  -6.6606  -6.5920
    -6.5752  -6.5597  -6.5206  -6.3345  -6.1708  -6.0515  -5.9767  -5.9492
    -5.7300  -5.7050  -5.6458  -5.6159  -5.5232  -5.4162  -5.2916  -5.2767
    -5.1792  -5.0973  -4.9529  -4.8540  -4.6969  -4.6592  -4.5358  -4.4411
    -4.4036  -4.2545  -4.2107  -4.1668  -4.0931  -3.9966  -3.9723  -3.9399
    -3.8922  -3.7662  -3.7382  -3.6046  -3.5972  -3.2910  -3.1925  -3.1178
    -2.9928  -2.9278  -2.7359  -2.7155  -2.6352  -2.5801  -2.4506  -2.3654
    -2.2050  -1.9174  -1.7274  -1.5500  -1.3981  -1.3916  -1.3483  -1.2403
    -0.7475  -0.1874   0.2272   0.3559   0.3865   0.7308   1.2367   1.4036
     1.4273   1.6991   1.8948   1.9028   1.9925   2.1587   2.1688   2.3012
     3.4215   3.5293   3.9558   4.4090   4.9121   5.3335   5.6338   5.8281
     6.0524   6.2885   6.5082   6.9236   7.0350   7.0494   7.3398   7.3890
     7.5257   7.7542   7.8247   8.2128   8.2396   8.3047   8.3907   8.5298
     8.5574   8.7594   8.7947   8.9219   8.9793   9.1514   9.2419   9.5383
     9.5885   9.6107   9.6880   9.7777   9.9506   9.9773   9.9973  10.0884
    10.0934  10.1766  10.2709  10.2792  10.3701  10.4233  10.6137  10.6479
    10.6899  10.7550  10.9665  10.9869  11.1655  11.2956  11.3193  11.3371
    11.4379  11.4567  11.4844  11.6220  11.6649  11.7862  11.8517  12.2471
    12.3091  12.3822  12.5117  12.5312  12.5662  12.6408  12.6972  12.7196
    12.8643  12.9088  13.1715  13.1904  13.2356  13.4387  13.5401  13.5767
    13.6211  13.6972  13.8437  13.8899  13.9033  13.9743  14.0810  14.2024
    14.2145  14.2271  14.3289  14.3777  14.3970  14.4957  14.5343  14.5727
    14.6055  14.6599  14.8117  14.8624  14.9522  14.9692  15.1081  15.1534
    15.2690  15.3281  15.4185  15.4350  15.5068  15.5137  15.7565  15.8049
    15.8349  15.8875  15.9901  16.0212  16.0279  16.1047  16.1370  16.3490
    16.3825  16.4801  16.7264  16.8571  16.9058  17.0109  17.0652  17.1759
    17.2793  17.3575  17.3773  17.4135  17.5464  17.6556  17.7509  17.8832
    17.9284  18.0599  18.0833  18.1451  18.2614  18.5000  18.6202  18.6555
    18.7233  18.8868  18.9073  18.9743  19.0541  19.1274  19.1488  19.1908
    19.3206  19.5176  19.5904  19.5997  19.6625  19.6927  19.9470  19.9615
    20.0292  20.1048  20.1565  20.1867  20.1949  20.1976  20.2837  20.3408
    20.4008  20.5584  20.6506  20.6693  20.7416  20.7445  20.8219  20.8985
    20.9756  21.0235  21.0947  21.2337

          k = 0.0000-0.4682 0.0000 ( 27136 PWs)   bands (ev):

   -75.3516 -75.3052 -75.2927 -75.2908 -75.2784 -75.2572 -75.2547 -75.2408
   -46.7619 -46.7475 -46.7389 -46.6747 -46.6596 -46.6410 -46.6377 -46.6330
   -46.6214 -46.6196 -46.6118 -46.6093 -46.5985 -46.5955 -46.5806 -46.5692
   -46.5547 -46.5409 -46.5374 -46.5108 -46.4771 -46.4586 -46.4330 -46.4158
   -21.0741 -20.6064 -20.5582 -20.3923 -20.0960 -19.9193 -19.8294 -19.7863
   -19.7697 -19.6988 -19.5573 -19.4922 -19.4122 -19.3822 -19.1212 -18.9113
   -18.7387 -18.6432  -9.5335  -9.5213  -9.0812  -9.0489  -8.9855  -8.9646
    -8.6338  -8.2493  -7.8978  -7.8756  -7.6345  -7.4508  -7.4486  -7.1897
    -7.1820  -7.0311  -7.0009  -6.9542  -6.9179  -6.8888  -6.6902  -6.6258
    -6.5792  -6.5256  -6.5110  -6.4246  -6.3116  -6.1986  -6.1221  -6.0584
    -5.9955  -5.9592  -5.9516  -5.8042  -5.6671  -5.4139  -5.3303  -5.3137
    -5.1622  -5.0849  -4.9971  -4.9809  -4.9234  -4.7170  -4.6754  -4.4321
    -4.2781  -4.1812  -4.1036  -3.9847  -3.9841  -3.9216  -3.8883  -3.8469
    -3.7284  -3.7206  -3.6958  -3.6177  -3.5946  -3.3298  -3.3054  -3.2183
    -3.1406  -2.9170  -2.9061  -2.7223  -2.5536  -2.5416  -2.4599  -2.1418
    -2.1026  -2.0615  -2.0013  -1.8871  -1.3644  -1.3580  -1.3204  -1.1875
    -0.6876  -0.0997  -0.0810   0.0337   0.4126   0.9410   1.2477   1.4049
     1.5389   1.7222   1.7469   1.9347   1.9372   2.0028   2.6346   2.6729
     3.9505   3.9606   4.3878   4.5917   4.6985   4.8832   5.1322   5.3906
     5.7177   6.0030   6.4366   6.7832   7.0280   7.1032   7.2097   7.3435
     7.6734   7.8404   7.9072   7.9102   7.9648   8.1856   8.4728   8.8757
     8.9113   9.0085   9.0284   9.0799   9.0824   9.1637   9.2614   9.3602
     9.4333   9.4449   9.4524   9.6366   9.7006   9.7587   9.7933   9.9613
    10.0010  10.1456  10.2972  10.4111  10.4712  10.6320  10.6650  10.8716
    10.9226  10.9686  10.9863  11.1246  11.1825  11.3248  11.5108  11.5166
    11.6530  11.8564  11.8951  11.9731  12.0915  12.1063  12.1838  12.3564
    12.3787  12.4528  12.4928  12.6928  12.7120  12.7133  12.8137  12.8196
    12.9079  13.0395  13.1793  13.2528  13.2740  13.2823  13.4582  13.4794
    13.5772  13.6018  13.6454  13.6798  13.9766  14.0109  14.0333  14.1574
    14.1720  14.2321  14.2669  14.3468  14.4245  14.4474  14.4786  14.5449
    14.5589  14.6462  14.7325  14.7904  15.0025  15.0065  15.0690  15.1276
    15.1948  15.3291  15.5357  15.7186  15.8080  15.8305  15.9240  15.9399
    15.9522  16.1886  16.3600  16.3985  16.5161  16.6233  16.6564  16.7132
    16.7979  16.8297  16.8892  16.9217  17.0171  17.0408  17.0937  17.1310
    17.2486  17.3856  17.4212  17.5870  17.6047  17.7255  17.7270  17.8068
    17.8578  17.8816  17.9799  18.0386  18.1262  18.1311  18.3010  18.3255
    18.3552  18.3875  18.4074  18.4671  18.5071  18.5998  18.7001  18.7859
    18.8039  18.8309  18.9789  19.0418  19.1479  19.1989  19.3293  19.3443
    19.4238  19.6610  19.6651  19.8472  19.9273  19.9479  20.0035  20.0928
    20.1313  20.2030  20.2945  20.3926  20.4251  20.6298  20.6810  20.8082
    20.8091  20.9199  20.9650  20.9965

          k = 0.2500 0.0000 0.0000 ( 27178 PWs)   bands (ev):

   -75.3511 -75.3028 -75.2925 -75.2903 -75.2801 -75.2572 -75.2526 -75.2424
   -46.7595 -46.7496 -46.7398 -46.6734 -46.6561 -46.6353 -46.6318 -46.6192
   -46.6158 -46.6081 -46.6029 -46.6002 -46.5980 -46.5955 -46.5768 -46.5586
   -46.5497 -46.5389 -46.5320 -46.5151 -46.5028 -46.4842 -46.4523 -46.4391
   -21.1513 -20.6466 -20.6361 -20.4048 -20.0718 -19.9272 -19.9038 -19.6706
   -19.6558 -19.5126 -19.4888 -19.4325 -19.3819 -19.3165 -19.2992 -18.9239
   -18.7780 -18.6750  -9.6366  -9.4410  -9.1847  -9.0413  -8.7657  -8.4270
    -8.2969  -8.2239  -8.1646  -8.1306  -8.0188  -7.9527  -7.9325  -7.5779
    -7.4930  -7.4756  -7.2441  -7.1564  -7.0998  -6.9067  -6.8853  -6.7014
    -6.6392  -6.5458  -6.4496  -6.3000  -6.1163  -5.9366  -5.8396  -5.7829
    -5.7018  -5.6556  -5.5699  -5.5391  -5.3912  -5.3728  -5.2225  -5.2006
    -5.0115  -4.9585  -4.8954  -4.8138  -4.7771  -4.6901  -4.6456  -4.5810
    -4.5553  -4.3431  -4.2905  -4.1859  -4.1042  -4.0536  -4.0043  -3.9854
    -3.9593  -3.7929  -3.7382  -3.6338  -3.4748  -3.4007  -3.0533  -2.9129
    -2.8724  -2.7864  -2.7062  -2.4941  -2.4468  -2.2878  -2.2341  -2.1313
    -2.0992  -2.0059  -1.9500  -1.7639  -1.6460  -1.4218  -1.2452  -1.1633
    -0.6478  -0.3619   0.4230   0.5417   0.9965   1.0985   1.1889   1.2366
     1.2836   1.4254   1.4623   1.5607   1.6628   1.7975   1.8635   2.2370
     3.4671   3.6069   3.9980   4.4704   4.9884   5.5117   5.6861   5.7426
     6.2055   6.3164   6.5927   6.6449   7.1018   7.3806   7.4126   7.4911
     7.5466   7.5916   7.8304   7.9142   8.0650   8.0825   8.3727   8.4869
     8.6298   8.7320   8.7542   8.9351   9.0682   9.1896   9.3838   9.4311
     9.5185   9.5919   9.6670   9.7008   9.8338   9.9092   9.9218  10.0117
    10.0628  10.1599  10.2731  10.4003  10.4846  10.5101  10.5421  10.6868
    10.8676  10.9160  10.9458  11.1033  11.2631  11.3065  11.3258  11.3731
    11.4109  11.5397  11.5419  11.6763  11.6942  11.7961  11.8726  12.1670
    12.2916  12.3492  12.4514  12.4839  12.5206  12.6015  12.6042  12.7314
    12.8233  13.0245  13.0504  13.1344  13.1890  13.2256  13.3561  13.4878
    13.6071  13.6419  13.7412  13.8474  13.9954  14.0863  14.1506  14.1588
    14.2552  14.3702  14.4516  14.4659  14.5058  14.5186  14.6423  14.7029
    14.7517  14.7824  14.8384  15.0507  15.1339  15.1539  15.2253  15.2697
    15.3773  15.3923  15.6229  15.7370  15.7691  15.8641  15.8793  15.9172
    15.9302  16.0849  16.2286  16.2381  16.2911  16.4690  16.5821  16.5968
    16.6968  16.7205  16.8176  16.8435  17.0660  17.0772  17.1621  17.2542
    17.3330  17.4164  17.4862  17.5275  17.5586  17.6539  17.7143  17.8729
    17.9450  17.9628  18.0600  18.1093  18.2674  18.4684  18.5623  18.7575
    18.7829  18.8098  18.8555  18.8768  18.9727  19.1027  19.1468  19.1599
    19.4484  19.5177  19.5645  19.6014  19.6444  19.6711  19.7658  19.8783
    19.9018  19.9442  20.0107  20.0562  20.1567  20.2158  20.2996  20.3495
    20.4028  20.5510  20.5825  20.6272  20.6469  20.7427  20.8100  20.9392
    21.0533  21.1029  21.2075  21.2149

          k = 0.2500 0.2341 0.0000 ( 27132 PWs)   bands (ev):

   -75.3511 -75.3028 -75.2925 -75.2903 -75.2801 -75.2572 -75.2525 -75.2424
   -46.7597 -46.7496 -46.7390 -46.6734 -46.6493 -46.6355 -46.6317 -46.6204
   -46.6193 -46.6083 -46.6048 -46.6013 -46.5994 -46.5923 -46.5769 -46.5585
   -46.5489 -46.5392 -46.5338 -46.5151 -46.5026 -46.4839 -46.4524 -46.4392
   -21.0779 -20.6281 -20.5579 -20.3868 -20.0213 -19.9650 -19.8579 -19.7325
   -19.7113 -19.5919 -19.5798 -19.5047 -19.4368 -19.3862 -19.1528 -18.9211
   -18.7773 -18.6730  -9.4674  -9.1700  -9.1606  -9.0528  -8.7703  -8.6197
    -8.3927  -8.0823  -8.0590  -7.9837  -7.9610  -7.8953  -7.7735  -7.3698
    -7.3617  -7.2755  -7.2733  -7.1355  -7.0149  -6.8647  -6.7814  -6.6408
    -6.6052  -6.5511  -6.3524  -6.3436  -6.1131  -6.1045  -6.0440  -6.0081
    -5.9645  -5.8862  -5.7963  -5.6543  -5.6150  -5.6081  -5.5041  -5.3941
    -5.3530  -5.2133  -4.9073  -4.7861  -4.7719  -4.7106  -4.5926  -4.5445
    -4.5340  -4.3150  -4.2901  -4.1511  -4.0368  -4.0153  -3.9570  -3.7605
    -3.7252  -3.6631  -3.5177  -3.4304  -3.3588  -3.1713  -3.0615  -2.9622
    -2.8527  -2.8112  -2.7962  -2.6546  -2.5945  -2.5058  -2.3361  -2.1893
    -2.1319  -1.9565  -1.7784  -1.7585  -1.5294  -1.4676  -1.4631  -1.3291
    -0.5527  -0.1486   0.3366   0.4514   0.4795   0.7652   1.1409   1.1429
     1.3050   1.4470   1.6667   1.7420   1.7834   2.1944   2.2163   2.2425
     3.7240   3.8235   4.2431   4.6920   5.2010   5.6042   5.7045   5.8264
     5.9133   6.1225   6.3414   6.4309   6.6122   6.7850   6.8174   7.1883
     7.3401   7.5175   7.6819   7.8414   7.9630   8.1463   8.2989   8.3938
     8.5267   8.6905   8.8635   8.8675   8.9793   9.1224   9.1364   9.2931
     9.3770   9.5002   9.6902   9.8794   9.9153   9.9868  10.0784  10.1985
    10.3278  10.3356  10.4255  10.5649  10.7539  10.8085  10.9555  10.9702
    11.1070  11.2324  11.2849  11.3618  11.4484  11.4508  11.6032  11.6639
    11.7331  11.7755  11.9920  12.0375  12.0636  12.1264  12.2622  12.3907
    12.4975  12.5168  12.6476  12.6697  12.7227  12.7437  12.8302  12.8539
    12.9735  13.0745  13.1067  13.1596  13.2607  13.2863  13.3769  13.4817
    13.6620  13.7129  13.7211  13.8736  13.8781  14.0089  14.0289  14.0446
    14.1842  14.1878  14.3098  14.3651  14.4041  14.5903  14.5959  14.6630
    14.7539  14.7764  14.8453  15.0035  15.0105  15.0166  15.2662  15.3790
    15.3878  15.4763  15.6938  15.7027  15.7452  15.8892  15.9184  15.9462
    16.0482  16.1730  16.1963  16.2026  16.2837  16.4511  16.5300  16.5906
    16.6513  16.6796  16.7464  16.8584  16.9079  16.9976  17.0752  17.1727
    17.2143  17.3157  17.3308  17.3922  17.4750  17.5685  17.5966  17.6329
    17.7566  17.7987  17.8743  17.9259  18.0262  18.1330  18.1590  18.1921
    18.3019  18.3630  18.4229  18.5058  18.6168  18.7481  18.7650  18.8587
    18.8940  18.9643  19.1028  19.1308  19.2921  19.3217  19.3826  19.4207
[...]

     total cpu time spent up to now is   137945.8 secs

     total energy              =   -1991.49370618 Ry
     Harris-Foulkes estimate   =   -1991.49372630 Ry
     estimated scf accuracy    <       0.00003109 Ry

     total magnetization       =    16.00 Bohr mag/cell
     absolute magnetization    =    26.47 Bohr mag/cell

     iteration # 71     ecut=    40.00 Ry     beta=0.70
     Davidson diagonalization with overlap
     ethr =  3.80E-09,  avg # of iterations =  2.0

     negative rho (up, down):  0.566E-02 0.183E-02

     total cpu time spent up to now is   138177.1 secs

     total energy              =   -1991.49371054 Ry
     Harris-Foulkes estimate   =   -1991.49372063 Ry
     estimated scf accuracy    <       0.00007255 Ry

     total magnetization       =    16.00 Bohr mag/cell
     absolute magnetization    =    26.47 Bohr mag/cell

     iteration # 72     ecut=    40.00 Ry     beta=0.70
     Davidson diagonalization with overlap
     ethr =  3.80E-09,  avg # of iterations =  1.6

     negative rho (up, down):  0.566E-02 0.183E-02

     total cpu time spent up to now is   138411.9 secs

     total energy              =   -1991.49371674 Ry
     Harris-Foulkes estimate   =   -1991.49371957 Ry
     estimated scf accuracy    <       0.00003752 Ry

     total magnetization       =    16.00 Bohr mag/cell
     absolute magnetization    =    26.47 Bohr mag/cell

     iteration # 73     ecut=    40.00 Ry     beta=0.70
     Davidson diagonalization with overlap
     ethr =  3.80E-09,  avg # of iterations =  1.0

     negative rho (up, down):  0.566E-02 0.183E-02

     total cpu time spent up to now is   138640.0 secs

     total energy              =   -1991.49372173 Ry
     Harris-Foulkes estimate   =   -1991.49371927 Ry
     estimated scf accuracy    <       0.00001606 Ry

     total magnetization       =    16.00 Bohr mag/cell
     absolute magnetization    =    26.47 Bohr mag/cell

     iteration # 74     ecut=    40.00 Ry     beta=0.70
     Davidson diagonalization with overlap
     ethr =  3.80E-09,  avg # of iterations =  1.5

     negative rho (up, down):  0.566E-02 0.183E-02

     total cpu time spent up to now is   138875.8 secs

     total energy              =   -1991.49372555 Ry
     Harris-Foulkes estimate   =   -1991.49372333 Ry
     estimated scf accuracy    <       0.00001671 Ry

     total magnetization       =    16.00 Bohr mag/cell
     absolute magnetization    =    26.47 Bohr mag/cell

     iteration # 75     ecut=    40.00 Ry     beta=0.70
     Davidson diagonalization with overlap
     ethr =  3.80E-09,  avg # of iterations =  1.5

     negative rho (up, down):  0.566E-02 0.183E-02

     total cpu time spent up to now is   139107.4 secs

     total energy              =   -1991.49372482 Ry
     Harris-Foulkes estimate   =   -1991.49372762 Ry
     estimated scf accuracy    <       0.00002072 Ry

     total magnetization       =    16.00 Bohr mag/cell
     absolute magnetization    =    26.46 Bohr mag/cell

     iteration # 76     ecut=    40.00 Ry     beta=0.70
     Davidson diagonalization with overlap
     ethr =  3.80E-09,  avg # of iterations =  1.0

     negative rho (up, down):  0.566E-02 0.183E-02

     total cpu time spent up to now is   139329.2 secs

     total energy              =   -1991.49372264 Ry
     Harris-Foulkes estimate   =   -1991.49372538 Ry
     estimated scf accuracy    <       0.00001632 Ry

     total magnetization       =    16.00 Bohr mag/cell
     absolute magnetization    =    26.47 Bohr mag/cell

     iteration # 77     ecut=    40.00 Ry     beta=0.70
     Davidson diagonalization with overlap
     ethr =  3.80E-09,  avg # of iterations =  2.0

     negative rho (up, down):  0.566E-02 0.183E-02

     total cpu time spent up to now is   139561.9 secs

     total energy              =   -1991.49370586 Ry
     Harris-Foulkes estimate   =   -1991.49374272 Ry
     estimated scf accuracy    <       0.00051673 Ry

     total magnetization       =    16.00 Bohr mag/cell
     absolute magnetization    =    26.47 Bohr mag/cell

     iteration # 78     ecut=    40.00 Ry     beta=0.70
     Davidson diagonalization with overlap
     ethr =  3.80E-09,  avg # of iterations =  2.0

     negative rho (up, down):  0.566E-02 0.183E-02

     total cpu time spent up to now is   139790.3 secs

     total energy              =   -1991.49372619 Ry
     Harris-Foulkes estimate   =   -1991.49372604 Ry
     estimated scf accuracy    <       0.00001622 Ry

     total magnetization       =    16.00 Bohr mag/cell
     absolute magnetization    =    26.47 Bohr mag/cell

     iteration # 79     ecut=    40.00 Ry     beta=0.70
     Davidson diagonalization with overlap
     ethr =  3.80E-09,  avg # of iterations =  1.0

     negative rho (up, down):  0.566E-02 0.183E-02

     total cpu time spent up to now is   140012.0 secs

     total energy              =   -1991.49372261 Ry
     Harris-Foulkes estimate   =   -1991.49372623 Ry
     estimated scf accuracy    <       0.00001561 Ry

     total magnetization       =    16.00 Bohr mag/cell
     absolute magnetization    =    26.47 Bohr mag/cell

     iteration # 80     ecut=    40.00 Ry     beta=0.70
     Davidson diagonalization with overlap
     ethr =  3.80E-09,  avg # of iterations =  1.0

     negative rho (up, down):  0.566E-02 0.183E-02

     total cpu time spent up to now is   140234.1 secs

     total energy              =   -1991.49372185 Ry
     Harris-Foulkes estimate   =   -1991.49372598 Ry
     estimated scf accuracy    <       0.00003559 Ry

     total magnetization       =    16.00 Bohr mag/cell
     absolute magnetization    =    26.47 Bohr mag/cell

     iteration # 81     ecut=    40.00 Ry     beta=0.70
     Davidson diagonalization with overlap
     ethr =  3.80E-09,  avg # of iterations =  2.0

     negative rho (up, down):  0.566E-02 0.183E-02

     total cpu time spent up to now is   140475.0 secs

     total energy              =   -1991.49372307 Ry
     Harris-Foulkes estimate   =   -1991.49373970 Ry
     estimated scf accuracy    <       0.00011081 Ry

     total magnetization       =    16.00 Bohr mag/cell
     absolute magnetization    =    26.47 Bohr mag/cell

     iteration # 82     ecut=    40.00 Ry     beta=0.70
     Davidson diagonalization with overlap
     ethr =  3.80E-09,  avg # of iterations =  1.8

     negative rho (up, down):  0.566E-02 0.183E-02

     total cpu time spent up to now is   140713.1 secs

     total energy              =   -1991.49372892 Ry
     Harris-Foulkes estimate   =   -1991.49373498 Ry
     estimated scf accuracy    <       0.00003594 Ry

     total magnetization       =    16.00 Bohr mag/cell
     absolute magnetization    =    26.46 Bohr mag/cell

     iteration # 83     ecut=    40.00 Ry     beta=0.70
     Davidson diagonalization with overlap
     ethr =  3.80E-09,  avg # of iterations =  1.0

     negative rho (up, down):  0.566E-02 0.183E-02

     total cpu time spent up to now is   140950.2 secs

     total energy              =   -1991.49373156 Ry
     Harris-Foulkes estimate   =   -1991.49373140 Ry
     estimated scf accuracy    <       0.00001806 Ry

     total magnetization       =    16.00 Bohr mag/cell
     absolute magnetization    =    26.46 Bohr mag/cell

     iteration # 84     ecut=    40.00 Ry     beta=0.70
     Davidson diagonalization with overlap
     ethr =  3.80E-09,  avg # of iterations =  1.0

     negative rho (up, down):  0.566E-02 0.183E-02

     total cpu time spent up to now is   141178.1 secs

     total energy              =   -1991.49373115 Ry
     Harris-Foulkes estimate   =   -1991.49373164 Ry
     estimated scf accuracy    <       0.00001778 Ry

     total magnetization       =    16.00 Bohr mag/cell
     absolute magnetization    =    26.46 Bohr mag/cell

     iteration # 85     ecut=    40.00 Ry     beta=0.70
     Davidson diagonalization with overlap
     ethr =  3.80E-09,  avg # of iterations =  1.0

     negative rho (up, down):  0.566E-02 0.183E-02

     total cpu time spent up to now is   141401.5 secs

     total energy              =   -1991.49373103 Ry
     Harris-Foulkes estimate   =   -1991.49373130 Ry
     estimated scf accuracy    <       0.00001989 Ry

     total magnetization       =    16.00 Bohr mag/cell
     absolute magnetization    =    26.46 Bohr mag/cell

     iteration # 86     ecut=    40.00 Ry     beta=0.70
     Davidson diagonalization with overlap
     ethr =  3.80E-09,  avg # of iterations =  1.0

     negative rho (up, down):  0.566E-02 0.183E-02

     total cpu time spent up to now is   141625.2 secs

     total energy              =   -1991.49372806 Ry
     Harris-Foulkes estimate   =   -1991.49373119 Ry
     estimated scf accuracy    <       0.00001987 Ry

     total magnetization       =    16.00 Bohr mag/cell
     absolute magnetization    =    26.46 Bohr mag/cell

     iteration # 87     ecut=    40.00 Ry     beta=0.70
     Davidson diagonalization with overlap
     ethr =  3.80E-09,  avg # of iterations =  2.0

     negative rho (up, down):  0.566E-02 0.183E-02

     total cpu time spent up to now is   141850.6 secs

     total energy              =   -1991.49370619 Ry
     Harris-Foulkes estimate   =   -1991.49375353 Ry
     estimated scf accuracy    <       0.00067437 Ry

     total magnetization       =    16.00 Bohr mag/cell
     absolute magnetization    =    26.47 Bohr mag/cell

     iteration # 88     ecut=    40.00 Ry     beta=0.70
     Davidson diagonalization with overlap
     ethr =  3.80E-09,  avg # of iterations =  2.0

     negative rho (up, down):  0.566E-02 0.183E-02

     total cpu time spent up to now is   142076.3 secs

     total energy              =   -1991.49373337 Ry
     Harris-Foulkes estimate   =   -1991.49373197 Ry
     estimated scf accuracy    <       0.00002309 Ry

     total magnetization       =    16.00 Bohr mag/cell
     absolute magnetization    =    26.46 Bohr mag/cell

     iteration # 89     ecut=    40.00 Ry     beta=0.70
     Davidson diagonalization with overlap
     ethr =  3.80E-09,  avg # of iterations =  1.0

     negative rho (up, down):  0.566E-02 0.183E-02

     total cpu time spent up to now is   142294.8 secs

     total energy              =   -1991.49373443 Ry
     Harris-Foulkes estimate   =   -1991.49373578 Ry
     estimated scf accuracy    <       0.00003363 Ry

     total magnetization       =    16.00 Bohr mag/cell
     absolute magnetization    =    26.46 Bohr mag/cell

     iteration # 90     ecut=    40.00 Ry     beta=0.70
     Davidson diagonalization with overlap
     ethr =  3.80E-09,  avg # of iterations =  1.7

     negative rho (up, down):  0.566E-02 0.183E-02

     total cpu time spent up to now is   142520.8 secs

     total energy              =   -1991.49373113 Ry
     Harris-Foulkes estimate   =   -1991.49374016 Ry
     estimated scf accuracy    <       0.00004973 Ry

     total magnetization       =    16.00 Bohr mag/cell
     absolute magnetization    =    26.46 Bohr mag/cell

     iteration # 91     ecut=    40.00 Ry     beta=0.70
     Davidson diagonalization with overlap
     ethr =  3.80E-09,  avg # of iterations =  2.0

     negative rho (up, down):  0.566E-02 0.183E-02

     total cpu time spent up to now is   142751.1 secs

     total energy              =   -1991.49372659 Ry
     Harris-Foulkes estimate   =   -1991.49374631 Ry
     estimated scf accuracy    <       0.00012802 Ry

     total magnetization       =    16.00 Bohr mag/cell
     absolute magnetization    =    26.46 Bohr mag/cell

     iteration # 92     ecut=    40.00 Ry     beta=0.70
     Davidson diagonalization with overlap
     ethr =  3.80E-09,  avg # of iterations =  2.0

     negative rho (up, down):  0.566E-02 0.183E-02

     total cpu time spent up to now is   142981.6 secs

     total energy              =   -1991.49373527 Ry
     Harris-Foulkes estimate   =   -1991.49374080 Ry
     estimated scf accuracy    <       0.00005118 Ry

     total magnetization       =    16.00 Bohr mag/cell
     absolute magnetization    =    26.46 Bohr mag/cell

     iteration # 93     ecut=    40.00 Ry     beta=0.70
     Davidson diagonalization with overlap
     ethr =  3.80E-09,  avg # of iterations =  1.1

     negative rho (up, down):  0.566E-02 0.183E-02

     total cpu time spent up to now is   143200.7 secs

     total energy              =   -1991.49373966 Ry
     Harris-Foulkes estimate   =   -1991.49373896 Ry
     estimated scf accuracy    <       0.00002017 Ry

     total magnetization       =    16.00 Bohr mag/cell
     absolute magnetization    =    26.46 Bohr mag/cell

     iteration # 94     ecut=    40.00 Ry     beta=0.70
     Davidson diagonalization with overlap
     ethr =  3.80E-09,  avg # of iterations =  1.0

     negative rho (up, down):  0.566E-02 0.183E-02

     total cpu time spent up to now is   143419.2 secs

     total energy              =   -1991.49374074 Ry
     Harris-Foulkes estimate   =   -1991.49374011 Ry
     estimated scf accuracy    <       0.00002058 Ry

     total magnetization       =    16.00 Bohr mag/cell
     absolute magnetization    =    26.46 Bohr mag/cell

     iteration # 95     ecut=    40.00 Ry     beta=0.70
     Davidson diagonalization with overlap
     ethr =  3.80E-09,  avg # of iterations =  1.0

     negative rho (up, down):  0.566E-02 0.183E-02

     total cpu time spent up to now is   143630.6 secs

     total energy              =   -1991.49374217 Ry
     Harris-Foulkes estimate   =   -1991.49374080 Ry
     estimated scf accuracy    <       0.00002004 Ry

     total magnetization       =    16.00 Bohr mag/cell
     absolute magnetization    =    26.46 Bohr mag/cell

     iteration # 96     ecut=    40.00 Ry     beta=0.70
     Davidson diagonalization with overlap
     ethr =  3.80E-09,  avg # of iterations =  1.0

     negative rho (up, down):  0.566E-02 0.183E-02

     total cpu time spent up to now is   143843.7 secs

     total energy              =   -1991.49373902 Ry
     Harris-Foulkes estimate   =   -1991.49374252 Ry
     estimated scf accuracy    <       0.00002081 Ry

     total magnetization       =    16.00 Bohr mag/cell
     absolute magnetization    =    26.46 Bohr mag/cell

     iteration # 97     ecut=    40.00 Ry     beta=0.70
     Davidson diagonalization with overlap
     ethr =  3.80E-09,  avg # of iterations =  2.0

     negative rho (up, down):  0.566E-02 0.183E-02

     total cpu time spent up to now is   144067.7 secs

     total energy              =   -1991.49370846 Ry
     Harris-Foulkes estimate   =   -1991.49377369 Ry
     estimated scf accuracy    <       0.00096928 Ry

     total magnetization       =    16.00 Bohr mag/cell
     absolute magnetization    =    26.46 Bohr mag/cell

     iteration # 98     ecut=    40.00 Ry     beta=0.70
     Davidson diagonalization with overlap
     ethr =  3.80E-09,  avg # of iterations =  2.0

     negative rho (up, down):  0.566E-02 0.183E-02

     total cpu time spent up to now is   144292.9 secs

     total energy              =   -1991.49374287 Ry
     Harris-Foulkes estimate   =   -1991.49374310 Ry
     estimated scf accuracy    <       0.00001993 Ry

     total magnetization       =    16.00 Bohr mag/cell
     absolute magnetization    =    26.46 Bohr mag/cell

     iteration # 99     ecut=    40.00 Ry     beta=0.70
     Davidson diagonalization with overlap
     ethr =  3.80E-09,  avg # of iterations =  1.0

     negative rho (up, down):  0.566E-02 0.183E-02

     total cpu time spent up to now is   144520.4 secs

     total energy              =   -1991.49374091 Ry
     Harris-Foulkes estimate   =   -1991.49374297 Ry
     estimated scf accuracy    <       0.00002155 Ry

     total magnetization       =    16.00 Bohr mag/cell
     absolute magnetization    =    26.46 Bohr mag/cell

     iteration #100     ecut=    40.00 Ry     beta=0.70
     Davidson diagonalization with overlap
     ethr =  3.80E-09,  avg # of iterations =  1.0

     negative rho (up, down):  0.566E-02 0.183E-02

     total cpu time spent up to now is   144756.3 secs

     total energy              =   -1991.49373593 Ry
     Harris-Foulkes estimate   =   -1991.49374487 Ry
     estimated scf accuracy    <       0.00005032 Ry

     total magnetization       =    16.00 Bohr mag/cell
     absolute magnetization    =    26.46 Bohr mag/cell

     End of self-consistent calculation

     convergence NOT achieved after 100 iterations: stopping

     init_run     :    114.27s CPU    117.70s WALL (       1 calls)
     electrons    : 119366.33s CPU 125214.49s WALL (      17 calls)
     update_pot   :    310.52s CPU    322.75s WALL (      16 calls)
     forces       :   3106.74s CPU   3235.23s WALL (      16 calls)
     stress       :  14253.62s CPU  15001.17s WALL (      16 calls)

     Called by init_run:
     wfcinit      :     48.94s CPU     51.15s WALL (       1 calls)
     potinit      :      8.29s CPU      8.65s WALL (       1 calls)

     Called by electrons:
     c_bands      :  65478.79s CPU  68730.76s WALL (     520 calls)
     sum_band     :  27028.38s CPU  28396.38s WALL (     520 calls)
     v_of_rho     :   1140.30s CPU   1297.93s WALL (     536 calls)
     newd         :  25754.51s CPU  26113.74s WALL (     536 calls)
     mix_rho      :    204.05s CPU    212.75s WALL (     520 calls)

     Called by c_bands:
     init_us_2    :    155.82s CPU    157.04s WALL (    6250 calls)
     cegterg      :  63253.08s CPU  64875.64s WALL (    2600 calls)

     Called by *egterg:
     h_psi        :  35822.32s CPU  36813.74s WALL (    6962 calls)
     s_psi        :   4483.88s CPU   4536.78s WALL (    7847 calls)
     g_psi        :     90.06s CPU     90.08s WALL (    4357 calls)
     cdiaghg      :   5838.13s CPU   5854.64s WALL (    6872 calls)

     Called by h_psi:
     add_vuspsi   :   3914.25s CPU   3966.87s WALL (    6962 calls)
     vhpsi        :   3441.23s CPU   3489.81s WALL (    6962 calls)

     General routines
     calbec       :   9897.01s CPU  10100.83s WALL (   43289 calls)
     fft          :   1713.81s CPU   2468.94s WALL (   17162 calls)
     ffts         :     15.43s CPU     16.90s WALL (    2112 calls)
     fftw         :  20730.96s CPU  21869.00s WALL ( 4371884 calls)
     interpolate  :    155.43s CPU    159.26s WALL (    2112 calls)
     davcio       :      0.37s CPU     78.14s WALL (    6980 calls)

     Parallel routines
     fft_scatter  :   7954.54s CPU   9806.98s WALL ( 4391158 calls)
     Hubbard U routines
     new_ns       :    829.50s CPU    880.64s WALL (     520 calls)
     vhpsi        :   3441.23s CPU   3489.81s WALL (    6962 calls)
     force_hub    :    783.40s CPU    815.00s WALL (      16 calls)
     stres_hub    :   6988.89s CPU   7324.39s WALL (      16 calls)

     PWSCF        :     1d   14h19m CPU        1d   16h13m WALL


   This run was terminated on:  22:49:47  26May2014            

=------------------------------------------------------------------------------=
   JOB DONE.
=------------------------------------------------------------------------------=
STOP 1
STOP 1
STOP 1
STOP 1
STOP 1
STOP 1
STOP 1
STOP 1
STOP 1
STOP 1
STOP 1
STOP 1
STOP 1
STOP 1
STOP 1
STOP 1
--------------------------------------------------------------------------
mpirun noticed that the job aborted, but has no info as to the process
that caused that situation.
--------------------------------------------------------------------------
---------------------------------------
Running PBS batch system epilogue script
Job id: 366677.audhumbla.fysik.dtu.dk
Username: zhonxu
Groupname: campgst
Jobname: CrO2/Eads-2-layers/bare-U-4.5
Sessionid: 30818
Resources limits: neednodes=2:ppn=8:xeon8,nodes=2:ppn=8:xeon8,walltime=48:00:00
Resources used: cput=642:05:46,mem=16980648kb,vmem=20999456kb,walltime=40:13:06
Queuename: verylong
Accounting:
This job has allocated the following 16 nodes:
d010 d010 d010 d010 d010 d010 d010 d010 d006 d006 d006 d006 d006 d006 d006 d006
Finished epilogue job 366677.audhumbla.fysik.dtu.dk for zhonxu
