
     Program PWSCF v.5.0.2 (svn rev. 9656) starts on 30Apr2014 at  3:58:29 

     This program is part of the open-source Quantum ESPRESSO suite
     for quantum simulation of materials; please cite
         "P. Giannozzi et al., J. Phys.:Condens. Matter 21 395502 (2009);
          URL http://www.quantum-espresso.org", 
     in publications or presentations arising from this work. More details at
     http://www.quantum-espresso.org/quote.php

     Parallel version (MPI), running on    16 processors
     K-points division:     npool     =       4
     R & G space division:  proc/nbgrp/npool/nimage =       4

     Current dimensions of program PWSCF are:
     Max number of different atomic species (ntypx) = 10
     Max number of k-points (npk) =  40000
     Max angular momentum in pseudopotentials (lmaxx) =  3
     Reading input from pwscf.in
Warning: card &CELL ignored
Warning: card / ignored

     Subspace diagonalization in iterative solution of the eigenvalue problem:
     a serial algorithm will be used


     Parallelization info
     --------------------
     sticks:   dense  smooth     PW     G-vecs:    dense   smooth      PW
     Min        1424     456    126               337026    61014    9038
     Max        1425     457    127               337029    61047    9044
     Sum        5697    1827    505              1348107   244131   36167



     bravais-lattice index     =            0
     lattice parameter (alat)  =      11.7541  a.u.
     unit-cell volume          =    7139.8207 (a.u.)^3
     number of atoms/cell      =           31
     number of atomic types    =            3
     number of electrons       =       238.00
     number of Kohn-Sham states=          357
     kinetic-energy cutoff     =      40.0000  Ry
     charge density cutoff     =     500.0000  Ry
     convergence threshold     =      1.0E-06
     mixing beta               =       0.7000
     number of iterations used =            8  plain     mixing
     Exchange-correlation      = SLA  PW   PBE  PBE ( 1 4 3 4 0)
     EXX-fraction              =        0.00
     nstep                     =           50


     celldm(1)=  11.754097  celldm(2)=   0.000000  celldm(3)=   0.000000
     celldm(4)=   0.000000  celldm(5)=   0.000000  celldm(6)=   0.000000

     crystal axes: (cart. coord. in units of alat)
               a(1) = (   1.000000   0.000000   0.000000 )  
               a(2) = (   0.000000   1.034513   0.000000 )  
               a(3) = (   0.000000   0.000000   4.249947 )  

     reciprocal axes: (cart. coord. in units 2 pi/alat)
               b(1) = (  1.000000  0.000000  0.000000 )  
               b(2) = (  0.000000  0.966638  0.000000 )  
               b(3) = (  0.000000  0.000000  0.235297 )  


     PseudoPot. # 1 for O  read from file:
     /home/camp/zhonxu/pseudo/o_pbe_v1.01.uspp.F.UPF
     MD5 check sum: 2bcb18d16ea4b960afae9ec6d52f22d2
     Pseudo is Ultrasoft + core correction, Zval =  6.0
     Generated by new atomic code, or converted to UPF format
     Using radial grid of  737 points,  5 beta functions with: 
                l(1) =   0
                l(2) =   0
                l(3) =   1
                l(4) =   1
                l(5) =   2
     Q(r) pseudized with  8 coefficients,  rinner =    0.900   0.900   0.900
                                                       0.900   0.900

     PseudoPot. # 2 for Rh read from file:
     /home/camp/zhonxu/pseudo/rh_pbe_v1.uspp.F.UPF
     MD5 check sum: 37b626987ad0dd8ec6bf4cc9ef289918
     Pseudo is Ultrasoft + core correction, Zval = 15.0
     Generated by new atomic code, or converted to UPF format
     Using radial grid of  969 points,  7 beta functions with: 
                l(1) =   0
                l(2) =   0
                l(3) =   1
                l(4) =   1
                l(5) =   2
                l(6) =   2
                l(7) =   2
     Q(r) pseudized with  6 coefficients,  rinner =    1.050   1.050   1.050
                                                       1.050   1.050

     PseudoPot. # 3 for H  read from file:
     /home/camp/zhonxu/pseudo/h_pbe_v1.uspp.F.UPF
     MD5 check sum: 3408e3ff4ec8b0a4e358431e7e038a48
     Pseudo is Ultrasoft, Zval =  1.0
     Generated by new atomic code, or converted to UPF format
     Using radial grid of  615 points,  2 beta functions with: 
                l(1) =   0
                l(2) =   0
     Q(r) pseudized with  8 coefficients,  rinner =    0.700

     atomic species   valence    mass     pseudopotential
        O0             6.00    15.99940     O ( 1.00)
        Rh1           15.00   102.90550     Rh( 1.00)
        H2             1.00     1.00794     H ( 1.00)


     Simplified LDA+U calculation (l_max = 2) with parameters (eV):
     atomic species    L          U    alpha       J0     beta
        Rh1            2     3.0000   0.0000   0.0000   0.0000



     No symmetry found



   Cartesian axes

     site n.     atom                  positions (alat units)
         1           O0  tau(   1) = (   0.0000000   0.0000000   1.6064375  )
         2           O0  tau(   2) = (   0.0000000   0.5172566   1.7091588  )
         3           Rh1 tau(   3) = (   0.2500000   0.5172566   1.9262886  )
         4           Rh1 tau(   4) = (   0.0000000   0.0000000   1.9228036  )
         5           O0  tau(   5) = (   0.2500000   0.8379556   1.9220386  )
         6           O0  tau(   6) = (   0.2500000   0.1965575   1.9215286  )
         7           O0  tau(   7) = (   0.0000000   0.5172566   2.1200437  )
         8           O0  tau(   8) = (   0.0000000   0.0000000   2.2432071  )
         9           Rh1 tau(   9) = (   0.2500000   0.0000000   2.4439746  )
        10           Rh1 tau(  10) = (   0.0000000   0.5172566   2.4253174  )
        11           O0  tau(  11) = (   0.2500000   0.7138141   2.4432947  )
        12           O0  tau(  12) = (   0.2500000   0.3206991   2.4432097  )
        13           O0  tau(  13) = (   0.0000000   0.0000000   2.6356898  )
        14           O0  tau(  14) = (   0.5000000   0.0000000   1.6064375  )
        15           O0  tau(  15) = (   0.5000000   0.5172566   1.7079263  )
        16           Rh1 tau(  16) = (   0.7500000   0.5172566   1.9262886  )
        17           Rh1 tau(  17) = (   0.5000000   0.0000000   1.9227611  )
        18           O0  tau(  18) = (   0.7500000   0.8379556   1.9219536  )
        19           O0  tau(  19) = (   0.7500000   0.1965575   1.9216136  )
        20           O0  tau(  20) = (   0.5000000   0.5172566   2.1284161  )
        21           O0  tau(  21) = (   0.5000000   0.0000000   2.2423572  )
        22           Rh1 tau(  22) = (   0.7500000   0.0000000   2.4439321  )
        23           Rh1 tau(  23) = (   0.5000000   0.5172566   2.4652244  )
        24           O0  tau(  24) = (   0.7500000   0.7138141   2.4431672  )
        25           O0  tau(  25) = (   0.7500000   0.3206991   2.4432097  )
        26           O0  tau(  26) = (   0.5000000   0.0000000   2.6354348  )
        27           H2  tau(  27) = (  -0.0000700   0.6590056   1.6354222  )
        28           H2  tau(  28) = (   0.4999300   0.6605366   1.6368247  )
        29           H2  tau(  29) = (   0.1480800   0.0354838   1.5606656  )
        30           H2  tau(  30) = (   0.6481100   0.0354321   1.5605806  )
        31           O0  tau(  31) = (   0.5000800   0.5160462   2.7479734  )

     number of k points=    10  Methfessel-Paxton smearing, width (Ry)=  0.0100
                       cart. coord. in units 2pi/alat
        k(    1) = (   0.0000000   0.0000000   0.0000000), wk =   0.1250000
        k(    2) = (   0.0000000   0.2416596   0.0000000), wk =   0.2500000
        k(    3) = (   0.0000000  -0.4833191   0.0000000), wk =   0.1250000
        k(    4) = (   0.2500000   0.0000000   0.0000000), wk =   0.2500000
        k(    5) = (   0.2500000   0.2416596   0.0000000), wk =   0.2500000
        k(    6) = (   0.2500000  -0.4833191   0.0000000), wk =   0.2500000
        k(    7) = (  -0.5000000   0.0000000   0.0000000), wk =   0.1250000
        k(    8) = (  -0.5000000   0.2416596   0.0000000), wk =   0.2500000
        k(    9) = (  -0.5000000  -0.4833191   0.0000000), wk =   0.1250000
        k(   10) = (  -0.2500000   0.2416596   0.0000000), wk =   0.2500000

     Dense  grid:  1348107 G-vectors     FFT dimensions: (  90,  90, 360)

     Smooth grid:   244131 G-vectors     FFT dimensions: (  48,  50, 216)

     Largest allocated arrays     est. size (Mb)     dimensions
        Kohn-Sham Wavefunctions        41.82 Mb     (   7677,  357)
        Atomic wavefunctions           20.62 Mb     (   7677,  176)
        NL pseudopotentials            51.43 Mb     (   7677,  439)
        Each V/rho on FFT grid         11.12 Mb     ( 729000)
        Each G-vector array             2.57 Mb     ( 337026)
        G-vector shells                 1.12 Mb     ( 146445)
     Largest temporary arrays     est. size (Mb)     dimensions
        Auxiliary wavefunctions       167.28 Mb     (   7677, 1428)
        Each subspace H/S matrix       31.12 Mb     (1428,1428)
        Each <psi_i|beta_j> matrix      2.39 Mb     (    439,  357)
        Arrays for rho mixing          88.99 Mb     ( 729000,   8)

     Check: negative/imaginary core charge=   -0.000003    0.000000

     Initial potential from superposition of free atoms
     Check: negative starting charge=   -0.645358

     starting charge  233.99915, renormalised to  238.00000

     negative rho (up, down):  0.656E+00 0.000E+00
     Number of +U iterations with fixed ns =  0
     Starting occupations:
 --- enter write_ns ---
 LDA+U parameters:
U( 2)     =  3.00000000
alpha( 2) =  0.00000000
atom    3   Tr[ns(na)] =   7.00000
    eigenvalues: 
  0.700  0.700  0.700  0.700  0.700
    eigenvectors:
  1.000  0.000  0.000  0.000  0.000
  0.000  1.000  0.000  0.000  0.000
  0.000  0.000  1.000  0.000  0.000
  0.000  0.000  0.000  1.000  0.000
  0.000  0.000  0.000  0.000  1.000
    occupations:
  0.700  0.000  0.000  0.000  0.000
  0.000  0.700  0.000  0.000  0.000
  0.000  0.000  0.700  0.000  0.000
  0.000  0.000  0.000  0.700  0.000
  0.000  0.000  0.000  0.000  0.700
atom    4   Tr[ns(na)] =   7.00000
    eigenvalues: 
  0.700  0.700  0.700  0.700  0.700
    eigenvectors:
  1.000  0.000  0.000  0.000  0.000
  0.000  1.000  0.000  0.000  0.000
  0.000  0.000  1.000  0.000  0.000
  0.000  0.000  0.000  1.000  0.000
  0.000  0.000  0.000  0.000  1.000
    occupations:
  0.700  0.000  0.000  0.000  0.000
  0.000  0.700  0.000  0.000  0.000
  0.000  0.000  0.700  0.000  0.000
  0.000  0.000  0.000  0.700  0.000
  0.000  0.000  0.000  0.000  0.700
atom    9   Tr[ns(na)] =   7.00000
    eigenvalues: 
  0.700  0.700  0.700  0.700  0.700
    eigenvectors:
  1.000  0.000  0.000  0.000  0.000
  0.000  1.000  0.000  0.000  0.000
  0.000  0.000  1.000  0.000  0.000
  0.000  0.000  0.000  1.000  0.000
  0.000  0.000  0.000  0.000  1.000
    occupations:
  0.700  0.000  0.000  0.000  0.000
  0.000  0.700  0.000  0.000  0.000
  0.000  0.000  0.700  0.000  0.000
  0.000  0.000  0.000  0.700  0.000
  0.000  0.000  0.000  0.000  0.700
atom   10   Tr[ns(na)] =   7.00000
    eigenvalues: 
  0.700  0.700  0.700  0.700  0.700
    eigenvectors:
  1.000  0.000  0.000  0.000  0.000
  0.000  1.000  0.000  0.000  0.000
  0.000  0.000  1.000  0.000  0.000
  0.000  0.000  0.000  1.000  0.000
  0.000  0.000  0.000  0.000  1.000
    occupations:
  0.700  0.000  0.000  0.000  0.000
  0.000  0.700  0.000  0.000  0.000
  0.000  0.000  0.700  0.000  0.000
  0.000  0.000  0.000  0.700  0.000
  0.000  0.000  0.000  0.000  0.700
atom   16   Tr[ns(na)] =   7.00000
    eigenvalues: 
  0.700  0.700  0.700  0.700  0.700
    eigenvectors:
  1.000  0.000  0.000  0.000  0.000
  0.000  1.000  0.000  0.000  0.000
  0.000  0.000  1.000  0.000  0.000
  0.000  0.000  0.000  1.000  0.000
  0.000  0.000  0.000  0.000  1.000
    occupations:
  0.700  0.000  0.000  0.000  0.000
  0.000  0.700  0.000  0.000  0.000
  0.000  0.000  0.700  0.000  0.000
  0.000  0.000  0.000  0.700  0.000
  0.000  0.000  0.000  0.000  0.700
atom   17   Tr[ns(na)] =   7.00000
    eigenvalues: 
  0.700  0.700  0.700  0.700  0.700
    eigenvectors:
  1.000  0.000  0.000  0.000  0.000
  0.000  1.000  0.000  0.000  0.000
  0.000  0.000  1.000  0.000  0.000
  0.000  0.000  0.000  1.000  0.000
  0.000  0.000  0.000  0.000  1.000
    occupations:
  0.700  0.000  0.000  0.000  0.000
  0.000  0.700  0.000  0.000  0.000
  0.000  0.000  0.700  0.000  0.000
  0.000  0.000  0.000  0.700  0.000
  0.000  0.000  0.000  0.000  0.700
atom   22   Tr[ns(na)] =   7.00000
    eigenvalues: 
  0.700  0.700  0.700  0.700  0.700
    eigenvectors:
  1.000  0.000  0.000  0.000  0.000
  0.000  1.000  0.000  0.000  0.000
  0.000  0.000  1.000  0.000  0.000
  0.000  0.000  0.000  1.000  0.000
  0.000  0.000  0.000  0.000  1.000
    occupations:
  0.700  0.000  0.000  0.000  0.000
  0.000  0.700  0.000  0.000  0.000
  0.000  0.000  0.700  0.000  0.000
  0.000  0.000  0.000  0.700  0.000
  0.000  0.000  0.000  0.000  0.700
atom   23   Tr[ns(na)] =   7.00000
    eigenvalues: 
  0.700  0.700  0.700  0.700  0.700
    eigenvectors:
  1.000  0.000  0.000  0.000  0.000
  0.000  1.000  0.000  0.000  0.000
  0.000  0.000  1.000  0.000  0.000
  0.000  0.000  0.000  1.000  0.000
  0.000  0.000  0.000  0.000  1.000
    occupations:
  0.700  0.000  0.000  0.000  0.000
  0.000  0.700  0.000  0.000  0.000
  0.000  0.000  0.700  0.000  0.000
  0.000  0.000  0.000  0.700  0.000
  0.000  0.000  0.000  0.000  0.700
N of occupied +U levels =  56.0000000
 --- exit write_ns ---
 Atomic wfc used for LDA+U Projector are NOT orthogonalized
     Starting wfc are  176 randomized atomic wfcs

     total cpu time spent up to now is      119.8 secs

     per-process dynamical memory:   411.7 Mb

     Self-consistent Calculation

     iteration #  1     ecut=    40.00 Ry     beta=0.70
     Davidson diagonalization with overlap
     ethr =  1.00E-02,  avg # of iterations =  5.8
 --- enter write_ns ---
 LDA+U parameters:
U( 2)     =  3.00000000
alpha( 2) =  0.00000000
atom    3   Tr[ns(na)] =   6.64430
    eigenvalues: 
  0.423  0.459  0.682  0.838  0.921
    eigenvectors:
  0.000  0.210  0.002  0.000  0.788
  1.000  0.000  0.000  0.000  0.000
  0.000  0.000  0.991  0.007  0.003
  0.000  0.790  0.001  0.000  0.209
  0.000  0.000  0.007  0.993  0.000
    occupations:
  0.824 -0.005  0.011 -0.188  0.000
 -0.005  0.423  0.001  0.003 -0.003
  0.011  0.001  0.683 -0.005 -0.013
 -0.188  0.003 -0.005  0.555  0.001
  0.000 -0.003 -0.013  0.001  0.837
atom    4   Tr[ns(na)] =   5.98979
    eigenvalues: 
  0.449  0.463  0.472  0.682  0.928
    eigenvectors:
  0.000  0.007  0.986  0.000  0.007
  0.000  0.009  0.000  0.991  0.000
  0.001  0.983  0.007  0.009  0.000
  0.000  0.000  0.007  0.000  0.993
  0.999  0.001  0.000  0.000  0.000
    occupations:
  0.475 -0.001  0.001  0.037  0.000
 -0.001  0.680  0.021 -0.000 -0.001
  0.001  0.021  0.465  0.002  0.000
  0.037 -0.000  0.002  0.925 -0.000
  0.000 -0.001  0.000 -0.000  0.449
atom    9   Tr[ns(na)] =   7.44102
    eigenvalues: 
  0.465  0.479  0.890  0.917  0.969
    eigenvectors:
  0.000  0.157  0.000  0.000  0.843
  0.998  0.002  0.000  0.000  0.000
  0.000  0.000  0.375  0.625  0.000
  0.002  0.841  0.000  0.000  0.157
  0.000  0.000  0.625  0.375  0.000
    occupations:
  0.892 -0.001 -0.000 -0.178  0.000
 -0.001  0.465  0.000 -0.000 -0.000
 -0.000  0.000  0.907 -0.000 -0.013
 -0.178 -0.000 -0.000  0.556  0.000
  0.000 -0.000 -0.013  0.000  0.900
atom   10   Tr[ns(na)] =   7.53925
    eigenvalues: 
  0.454  0.498  0.909  0.944  0.965
    eigenvectors:
  0.000  0.989  0.000  0.000  0.011
  0.000  0.000  0.000  1.000  0.000
  0.000  0.000  1.000  0.000  0.000
  0.000  0.011  0.000  0.000  0.989
  1.000  0.000  0.000  0.000  0.000
    occupations:
  0.503 -0.000  0.001  0.049  0.000
 -0.000  0.944 -0.000  0.000  0.000
  0.001 -0.000  0.909  0.000  0.000
  0.049  0.000  0.000  0.960  0.000
  0.000  0.000  0.000  0.000  0.454
atom   16   Tr[ns(na)] =   6.64279
    eigenvalues: 
  0.423  0.459  0.681  0.838  0.921
    eigenvectors:
  0.000  0.210  0.002  0.000  0.788
  1.000  0.000  0.000  0.000  0.000
  0.000  0.000  0.989  0.008  0.003
  0.000  0.790  0.001  0.000  0.209
  0.000  0.000  0.008  0.991  0.000
    occupations:
  0.823  0.005  0.012 -0.188 -0.000
  0.005  0.423 -0.001 -0.003 -0.003
  0.012 -0.001  0.683 -0.005  0.014
 -0.188 -0.003 -0.005  0.555 -0.001
 -0.000 -0.003  0.014 -0.001  0.836
atom   17   Tr[ns(na)] =   5.95084
    eigenvalues: 
  0.445  0.448  0.472  0.685  0.924
    eigenvectors:
  0.001  0.000  0.992  0.000  0.007
  0.010  0.000  0.000  0.990  0.000
  0.971  0.018  0.001  0.010  0.000
  0.000  0.000  0.007  0.000  0.993
  0.019  0.981  0.000  0.000  0.000
    occupations:
  0.476 -0.000  0.001  0.037  0.000
 -0.000  0.683  0.024  0.000 -0.000
  0.001  0.024  0.448  0.003  0.000
  0.037  0.000  0.003  0.921 -0.000
  0.000 -0.000  0.000 -0.000  0.448
atom   22   Tr[ns(na)] =   7.44103
    eigenvalues: 
  0.465  0.479  0.890  0.917  0.969
    eigenvectors:
  0.001  0.156  0.000  0.000  0.843
  0.992  0.008  0.000  0.000  0.000
  0.000  0.000  0.373  0.627  0.000
  0.006  0.836  0.000  0.000  0.157
  0.000  0.000  0.627  0.373  0.000
    occupations:
  0.892  0.001 -0.000 -0.178  0.000
  0.001  0.465  0.000  0.001 -0.000
 -0.000  0.000  0.907 -0.000  0.013
 -0.178  0.001 -0.000  0.556  0.000
  0.000 -0.000  0.013  0.000  0.900
atom   23   Tr[ns(na)] =   6.93212
    eigenvalues: 
  0.445  0.519  0.746  0.798  0.958
    eigenvectors:
  0.000  0.993  0.000  0.000  0.007
  0.000  0.000  0.000  1.000  0.000
  0.000  0.000  1.000  0.000  0.000
  0.000  0.007  0.000  0.000  0.993
  1.000  0.000  0.000  0.000  0.000
    occupations:
  0.522  0.000 -0.002  0.036 -0.000
  0.000  0.798  0.000  0.000 -0.001
 -0.002  0.000  0.746 -0.001 -0.000
  0.036  0.000 -0.001  0.955 -0.000
 -0.000 -0.001 -0.000 -0.000  0.445
N of occupied +U levels =  54.5811300
 --- exit write_ns ---

     negative rho (up, down):  0.678E+00 0.000E+00

     total cpu time spent up to now is      497.1 secs

     total energy              =   -1964.79005031 Ry
     Harris-Foulkes estimate   =   -1981.81922720 Ry
     estimated scf accuracy    <      20.64304061 Ry

     iteration #  2     ecut=    40.00 Ry     beta=0.70
     Davidson diagonalization with overlap
     ethr =  8.67E-03,  avg # of iterations =  5.0

     negative rho (up, down):  0.590E+00 0.000E+00

     total cpu time spent up to now is      814.9 secs

     total energy              =   -1876.66020497 Ry
     Harris-Foulkes estimate   =   -2065.47810781 Ry
     estimated scf accuracy    <    2311.40331981 Ry

     iteration #  3     ecut=    40.00 Ry     beta=0.70
     Davidson diagonalization with overlap
     ethr =  8.67E-03,  avg # of iterations =  5.0

     negative rho (up, down):  0.543E+00 0.000E+00

     total cpu time spent up to now is     1149.5 secs

     total energy              =   -1961.96803440 Ry
     Harris-Foulkes estimate   =   -2001.62062763 Ry
     estimated scf accuracy    <     321.50992655 Ry

     iteration #  4     ecut=    40.00 Ry     beta=0.70
     Davidson diagonalization with overlap
     ethr =  8.67E-03,  avg # of iterations =  3.2

     negative rho (up, down):  0.553E+00 0.000E+00

     total cpu time spent up to now is     1365.4 secs

     total energy              =   -1976.32709137 Ry
     Harris-Foulkes estimate   =   -1981.90056670 Ry
     estimated scf accuracy    <      26.45533193 Ry

     iteration #  5     ecut=    40.00 Ry     beta=0.70
     Davidson diagonalization with overlap
     ethr =  8.67E-03,  avg # of iterations =  2.5

     negative rho (up, down):  0.572E+00 0.000E+00

     total cpu time spent up to now is     1558.8 secs

     total energy              =   -1978.74424532 Ry
     Harris-Foulkes estimate   =   -1980.39478466 Ry
     estimated scf accuracy    <      25.13344543 Ry

     iteration #  6     ecut=    40.00 Ry     beta=0.70
     Davidson diagonalization with overlap
     ethr =  8.67E-03,  avg # of iterations =  1.1

     negative rho (up, down):  0.595E+00 0.000E+00

     total cpu time spent up to now is     1747.3 secs

     total energy              =   -1979.04191045 Ry
     Harris-Foulkes estimate   =   -1979.38414380 Ry
     estimated scf accuracy    <       3.86200232 Ry

     iteration #  7     ecut=    40.00 Ry     beta=0.70
     Davidson diagonalization with overlap
     ethr =  1.62E-03,  avg # of iterations =  2.0

     negative rho (up, down):  0.611E+00 0.000E+00

     total cpu time spent up to now is     1937.8 secs

     total energy              =   -1979.10392214 Ry
     Harris-Foulkes estimate   =   -1979.27186968 Ry
     estimated scf accuracy    <       6.72630439 Ry

     iteration #  8     ecut=    40.00 Ry     beta=0.70
     Davidson diagonalization with overlap
     ethr =  1.62E-03,  avg # of iterations =  1.2

     negative rho (up, down):  0.628E+00 0.000E+00

     total cpu time spent up to now is     2128.9 secs

     total energy              =   -1979.02678780 Ry
     Harris-Foulkes estimate   =   -1979.19273063 Ry
     estimated scf accuracy    <       2.50744625 Ry

     iteration #  9     ecut=    40.00 Ry     beta=0.70
     Davidson diagonalization with overlap
     ethr =  1.05E-03,  avg # of iterations =  2.5

     negative rho (up, down):  0.646E+00 0.000E+00

     total cpu time spent up to now is     2325.5 secs

     total energy              =   -1978.96059091 Ry
     Harris-Foulkes estimate   =   -1979.29895584 Ry
     estimated scf accuracy    <       4.25058488 Ry

     iteration # 10     ecut=    40.00 Ry     beta=0.70
     Davidson diagonalization with overlap
     ethr =  1.05E-03,  avg # of iterations =  1.2

     negative rho (up, down):  0.670E+00 0.000E+00

     total cpu time spent up to now is     2516.7 secs

     total energy              =   -1979.01607684 Ry
     Harris-Foulkes estimate   =   -1979.15844618 Ry
     estimated scf accuracy    <       0.86272183 Ry

     iteration # 11     ecut=    40.00 Ry     beta=0.70
     Davidson diagonalization with overlap
     ethr =  3.62E-04,  avg # of iterations =  6.4

     negative rho (up, down):  0.680E+00 0.000E+00

     total cpu time spent up to now is     2732.3 secs

     total energy              =   -1979.02357235 Ry
     Harris-Foulkes estimate   =   -1979.16821673 Ry
     estimated scf accuracy    <       2.00330075 Ry

     iteration # 12     ecut=    40.00 Ry     beta=0.70
     Davidson diagonalization with overlap
     ethr =  3.62E-04,  avg # of iterations =  1.2

     negative rho (up, down):  0.686E+00 0.000E+00

     total cpu time spent up to now is     2923.4 secs

     total energy              =   -1979.03052399 Ry
     Harris-Foulkes estimate   =   -1979.13121121 Ry
     estimated scf accuracy    <       0.80057645 Ry

     iteration # 13     ecut=    40.00 Ry     beta=0.70
     Davidson diagonalization with overlap
     ethr =  3.36E-04,  avg # of iterations =  1.0

     negative rho (up, down):  0.681E+00 0.000E+00

     total cpu time spent up to now is     3118.1 secs

     total energy              =   -1979.00658318 Ry
     Harris-Foulkes estimate   =   -1979.13418920 Ry
     estimated scf accuracy    <       1.26562422 Ry

     iteration # 14     ecut=    40.00 Ry     beta=0.70
     Davidson diagonalization with overlap
     ethr =  3.36E-04,  avg # of iterations =  1.0

     negative rho (up, down):  0.684E+00 0.000E+00

     total cpu time spent up to now is     3312.8 secs

     total energy              =   -1978.98259399 Ry
     Harris-Foulkes estimate   =   -1979.15895668 Ry
     estimated scf accuracy    <       0.94024450 Ry

     iteration # 15     ecut=    40.00 Ry     beta=0.70
     Davidson diagonalization with overlap
     ethr =  3.36E-04,  avg # of iterations =  3.4

     negative rho (up, down):  0.686E+00 0.000E+00

     total cpu time spent up to now is     3521.2 secs

     total energy              =   -1979.04701733 Ry
     Harris-Foulkes estimate   =   -1979.13783880 Ry
     estimated scf accuracy    <       0.44725143 Ry

     iteration # 16     ecut=    40.00 Ry     beta=0.70
     Davidson diagonalization with overlap
     ethr =  1.88E-04,  avg # of iterations =  1.2

     negative rho (up, down):  0.688E+00 0.000E+00

     total cpu time spent up to now is     3717.1 secs

     total energy              =   -1979.07503616 Ry
     Harris-Foulkes estimate   =   -1979.09511799 Ry
     estimated scf accuracy    <       0.15988220 Ry

     iteration # 17     ecut=    40.00 Ry     beta=0.70
     Davidson diagonalization with overlap
     ethr =  6.72E-05,  avg # of iterations =  2.5

     negative rho (up, down):  0.691E+00 0.000E+00

     total cpu time spent up to now is     3917.4 secs

     total energy              =   -1979.08132570 Ry
     Harris-Foulkes estimate   =   -1979.09143730 Ry
     estimated scf accuracy    <       0.12946217 Ry

     iteration # 18     ecut=    40.00 Ry     beta=0.70
     Davidson diagonalization with overlap
     ethr =  5.44E-05,  avg # of iterations =  1.4

     negative rho (up, down):  0.691E+00 0.000E+00

     total cpu time spent up to now is     4118.6 secs

     total energy              =   -1979.08332895 Ry
     Harris-Foulkes estimate   =   -1979.08848754 Ry
     estimated scf accuracy    <       0.04492765 Ry

     iteration # 19     ecut=    40.00 Ry     beta=0.70
     Davidson diagonalization with overlap
     ethr =  1.89E-05,  avg # of iterations =  6.0

     negative rho (up, down):  0.691E+00 0.000E+00

     total cpu time spent up to now is     4349.1 secs

     total energy              =   -1979.07898126 Ry
     Harris-Foulkes estimate   =   -1979.09345228 Ry
     estimated scf accuracy    <       0.10771442 Ry

     iteration # 20     ecut=    40.00 Ry     beta=0.70
     Davidson diagonalization with overlap
     ethr =  1.89E-05,  avg # of iterations =  1.0

     negative rho (up, down):  0.691E+00 0.000E+00

     total cpu time spent up to now is     4538.0 secs

     total energy              =   -1979.08455969 Ry
     Harris-Foulkes estimate   =   -1979.08737156 Ry
     estimated scf accuracy    <       0.01551184 Ry

     iteration # 21     ecut=    40.00 Ry     beta=0.70
     Davidson diagonalization with overlap
     ethr =  6.52E-06,  avg # of iterations =  2.1

     negative rho (up, down):  0.692E+00 0.000E+00

     total cpu time spent up to now is     4728.2 secs

     total energy              =   -1979.07986932 Ry
     Harris-Foulkes estimate   =   -1979.09205527 Ry
     estimated scf accuracy    <       0.15671370 Ry

     iteration # 22     ecut=    40.00 Ry     beta=0.70
     Davidson diagonalization with overlap
     ethr =  6.52E-06,  avg # of iterations =  1.0

     negative rho (up, down):  0.692E+00 0.000E+00

     total cpu time spent up to now is     4916.2 secs

     total energy              =   -1979.08310763 Ry
     Harris-Foulkes estimate   =   -1979.08859508 Ry
     estimated scf accuracy    <       0.05048164 Ry

     iteration # 23     ecut=    40.00 Ry     beta=0.70
     Davidson diagonalization with overlap
     ethr =  6.52E-06,  avg # of iterations =  4.7

     negative rho (up, down):  0.692E+00 0.000E+00

     total cpu time spent up to now is     5130.8 secs

     total energy              =   -1979.08162276 Ry
     Harris-Foulkes estimate   =   -1979.09086520 Ry
     estimated scf accuracy    <       0.12753027 Ry

     iteration # 24     ecut=    40.00 Ry     beta=0.70
     Davidson diagonalization with overlap
     ethr =  6.52E-06,  avg # of iterations =  2.5

     negative rho (up, down):  0.692E+00 0.000E+00

     total cpu time spent up to now is     5322.9 secs

     total energy              =   -1979.08510583 Ry
     Harris-Foulkes estimate   =   -1979.08747669 Ry
     estimated scf accuracy    <       0.02861272 Ry

     iteration # 25     ecut=    40.00 Ry     beta=0.70
     Davidson diagonalization with overlap
     ethr =  6.52E-06,  avg # of iterations =  1.0

     negative rho (up, down):  0.692E+00 0.000E+00

     total cpu time spent up to now is     5512.4 secs

     total energy              =   -1979.08582706 Ry
     Harris-Foulkes estimate   =   -1979.08649069 Ry
     estimated scf accuracy    <       0.00363364 Ry

     iteration # 26     ecut=    40.00 Ry     beta=0.70
     Davidson diagonalization with overlap
     ethr =  1.53E-06,  avg # of iterations =  4.5

     negative rho (up, down):  0.692E+00 0.000E+00

     total cpu time spent up to now is     5722.2 secs

     total energy              =   -1979.08525891 Ry
     Harris-Foulkes estimate   =   -1979.08733358 Ry
     estimated scf accuracy    <       0.02438226 Ry

     iteration # 27     ecut=    40.00 Ry     beta=0.70
     Davidson diagonalization with overlap
     ethr =  1.53E-06,  avg # of iterations =  1.0

     negative rho (up, down):  0.692E+00 0.000E+00

     total cpu time spent up to now is     5913.5 secs

     total energy              =   -1979.08595784 Ry
     Harris-Foulkes estimate   =   -1979.08637288 Ry
     estimated scf accuracy    <       0.00262107 Ry

     iteration # 28     ecut=    40.00 Ry     beta=0.70
     Davidson diagonalization with overlap
     ethr =  1.10E-06,  avg # of iterations =  2.8

     negative rho (up, down):  0.692E+00 0.000E+00

     total cpu time spent up to now is     6118.2 secs

     total energy              =   -1979.08497086 Ry
     Harris-Foulkes estimate   =   -1979.08759817 Ry
     estimated scf accuracy    <       0.04879624 Ry

     iteration # 29     ecut=    40.00 Ry     beta=0.70
     Davidson diagonalization with overlap
     ethr =  1.10E-06,  avg # of iterations =  1.1

     negative rho (up, down):  0.692E+00 0.000E+00

     total cpu time spent up to now is     6314.9 secs

     total energy              =   -1979.08613686 Ry
     Harris-Foulkes estimate   =   -1979.08634796 Ry
     estimated scf accuracy    <       0.00093098 Ry

     iteration # 30     ecut=    40.00 Ry     beta=0.70
     Davidson diagonalization with overlap
     ethr =  3.91E-07,  avg # of iterations =  1.0

     negative rho (up, down):  0.692E+00 0.000E+00

     total cpu time spent up to now is     6505.5 secs

     total energy              =   -1979.08606386 Ry
     Harris-Foulkes estimate   =   -1979.08647519 Ry
     estimated scf accuracy    <       0.00327206 Ry

     iteration # 31     ecut=    40.00 Ry     beta=0.70
     Davidson diagonalization with overlap
     ethr =  3.91E-07,  avg # of iterations =  1.0

     negative rho (up, down):  0.692E+00 0.000E+00

     total cpu time spent up to now is     6694.6 secs

     total energy              =   -1979.08608197 Ry
     Harris-Foulkes estimate   =   -1979.08644084 Ry
     estimated scf accuracy    <       0.00423302 Ry

     iteration # 32     ecut=    40.00 Ry     beta=0.70
     Davidson diagonalization with overlap
     ethr =  3.91E-07,  avg # of iterations =  1.0

     negative rho (up, down):  0.692E+00 0.000E+00

     total cpu time spent up to now is     6885.1 secs

     total energy              =   -1979.08614987 Ry
     Harris-Foulkes estimate   =   -1979.08637221 Ry
     estimated scf accuracy    <       0.00208481 Ry

     iteration # 33     ecut=    40.00 Ry     beta=0.70
     Davidson diagonalization with overlap
     ethr =  3.91E-07,  avg # of iterations =  1.0

     negative rho (up, down):  0.692E+00 0.000E+00

     total cpu time spent up to now is     7069.3 secs

     total energy              =   -1979.08619370 Ry
     Harris-Foulkes estimate   =   -1979.08632993 Ry
     estimated scf accuracy    <       0.00186124 Ry

     iteration # 34     ecut=    40.00 Ry     beta=0.70
     Davidson diagonalization with overlap
     ethr =  3.91E-07,  avg # of iterations =  1.0

     negative rho (up, down):  0.692E+00 0.000E+00

     total cpu time spent up to now is     7255.7 secs

     total energy              =   -1979.08620632 Ry
     Harris-Foulkes estimate   =   -1979.08630757 Ry
     estimated scf accuracy    <       0.00115409 Ry

     iteration # 35     ecut=    40.00 Ry     beta=0.70
     Davidson diagonalization with overlap
     ethr =  3.91E-07,  avg # of iterations =  1.0

     negative rho (up, down):  0.692E+00 0.000E+00

     total cpu time spent up to now is     7451.4 secs

     total energy              =   -1979.08615412 Ry
     Harris-Foulkes estimate   =   -1979.08637819 Ry
     estimated scf accuracy    <       0.00187611 Ry

     iteration # 36     ecut=    40.00 Ry     beta=0.70
     Davidson diagonalization with overlap
     ethr =  3.91E-07,  avg # of iterations =  1.0

     negative rho (up, down):  0.692E+00 0.000E+00

     total cpu time spent up to now is     7648.0 secs

     total energy              =   -1979.08623577 Ry
     Harris-Foulkes estimate   =   -1979.08628467 Ry
     estimated scf accuracy    <       0.00035804 Ry

     iteration # 37     ecut=    40.00 Ry     beta=0.70
     Davidson diagonalization with overlap
     ethr =  1.50E-07,  avg # of iterations =  1.0

     negative rho (up, down):  0.692E+00 0.000E+00

     total cpu time spent up to now is     7842.5 secs

     total energy              =   -1979.08619440 Ry
     Harris-Foulkes estimate   =   -1979.08633989 Ry
     estimated scf accuracy    <       0.00112794 Ry

     iteration # 38     ecut=    40.00 Ry     beta=0.70
     Davidson diagonalization with overlap
     ethr =  1.50E-07,  avg # of iterations =  1.0

     negative rho (up, down):  0.692E+00 0.000E+00

     total cpu time spent up to now is     8036.8 secs

     total energy              =   -1979.08624122 Ry
     Harris-Foulkes estimate   =   -1979.08628496 Ry
     estimated scf accuracy    <       0.00071429 Ry

     iteration # 39     ecut=    40.00 Ry     beta=0.70
     Davidson diagonalization with overlap
     ethr =  1.50E-07,  avg # of iterations =  1.0

     negative rho (up, down):  0.692E+00 0.000E+00

     total cpu time spent up to now is     8232.1 secs

     total energy              =   -1979.08624168 Ry
     Harris-Foulkes estimate   =   -1979.08629134 Ry
     estimated scf accuracy    <       0.00030568 Ry

     iteration # 40     ecut=    40.00 Ry     beta=0.70
     Davidson diagonalization with overlap
     ethr =  1.28E-07,  avg # of iterations =  1.0

     negative rho (up, down):  0.692E+00 0.000E+00

     total cpu time spent up to now is     8428.8 secs

     total energy              =   -1979.08624897 Ry
     Harris-Foulkes estimate   =   -1979.08628436 Ry
     estimated scf accuracy    <       0.00031022 Ry

     iteration # 41     ecut=    40.00 Ry     beta=0.70
     Davidson diagonalization with overlap
     ethr =  1.28E-07,  avg # of iterations =  1.0

     negative rho (up, down):  0.692E+00 0.000E+00

     total cpu time spent up to now is     8624.5 secs

     total energy              =   -1979.08625276 Ry
     Harris-Foulkes estimate   =   -1979.08627770 Ry
     estimated scf accuracy    <       0.00023662 Ry

     iteration # 42     ecut=    40.00 Ry     beta=0.70
     Davidson diagonalization with overlap
     ethr =  9.94E-08,  avg # of iterations =  1.0

     negative rho (up, down):  0.692E+00 0.000E+00

     total cpu time spent up to now is     8820.2 secs

     total energy              =   -1979.08624197 Ry
     Harris-Foulkes estimate   =   -1979.08628419 Ry
     estimated scf accuracy    <       0.00034935 Ry

     iteration # 43     ecut=    40.00 Ry     beta=0.70
     Davidson diagonalization with overlap
     ethr =  9.94E-08,  avg # of iterations =  1.0

     negative rho (up, down):  0.692E+00 0.000E+00

     total cpu time spent up to now is     9016.0 secs

     total energy              =   -1979.08620404 Ry
     Harris-Foulkes estimate   =   -1979.08632381 Ry
     estimated scf accuracy    <       0.00178877 Ry

     iteration # 44     ecut=    40.00 Ry     beta=0.70
     Davidson diagonalization with overlap
     ethr =  9.94E-08,  avg # of iterations =  1.0

     negative rho (up, down):  0.692E+00 0.000E+00

     total cpu time spent up to now is     9212.6 secs

     total energy              =   -1979.08622322 Ry
     Harris-Foulkes estimate   =   -1979.08631207 Ry
     estimated scf accuracy    <       0.00147025 Ry

     iteration # 45     ecut=    40.00 Ry     beta=0.70
     Davidson diagonalization with overlap
     ethr =  9.94E-08,  avg # of iterations =  1.0

     negative rho (up, down):  0.692E+00 0.000E+00

     total cpu time spent up to now is     9408.9 secs

     total energy              =   -1979.08625894 Ry
     Harris-Foulkes estimate   =   -1979.08627123 Ry
     estimated scf accuracy    <       0.00007370 Ry

     iteration # 46     ecut=    40.00 Ry     beta=0.70
     Davidson diagonalization with overlap
     ethr =  3.10E-08,  avg # of iterations =  1.0

     negative rho (up, down):  0.692E+00 0.000E+00

     total cpu time spent up to now is     9605.2 secs

     total energy              =   -1979.08624964 Ry
     Harris-Foulkes estimate   =   -1979.08628432 Ry
     estimated scf accuracy    <       0.00042339 Ry

     iteration # 47     ecut=    40.00 Ry     beta=0.70
     Davidson diagonalization with overlap
     ethr =  3.10E-08,  avg # of iterations =  1.0

     negative rho (up, down):  0.692E+00 0.000E+00

     total cpu time spent up to now is     9801.9 secs

     total energy              =   -1979.08626016 Ry
     Harris-Foulkes estimate   =   -1979.08627024 Ry
     estimated scf accuracy    <       0.00005884 Ry

     iteration # 48     ecut=    40.00 Ry     beta=0.70
     Davidson diagonalization with overlap
     ethr =  2.47E-08,  avg # of iterations =  1.0

     negative rho (up, down):  0.692E+00 0.000E+00

     total cpu time spent up to now is    10002.3 secs

     total energy              =   -1979.08624957 Ry
     Harris-Foulkes estimate   =   -1979.08628312 Ry
     estimated scf accuracy    <       0.00058898 Ry

     iteration # 49     ecut=    40.00 Ry     beta=0.70
     Davidson diagonalization with overlap
     ethr =  2.47E-08,  avg # of iterations =  1.0

     negative rho (up, down):  0.692E+00 0.000E+00

     total cpu time spent up to now is    10200.3 secs

     total energy              =   -1979.08626244 Ry
     Harris-Foulkes estimate   =   -1979.08627013 Ry
     estimated scf accuracy    <       0.00004960 Ry

     iteration # 50     ecut=    40.00 Ry     beta=0.70
     Davidson diagonalization with overlap
     ethr =  2.08E-08,  avg # of iterations =  1.0

     negative rho (up, down):  0.692E+00 0.000E+00

     total cpu time spent up to now is    10397.5 secs

     total energy              =   -1979.08625827 Ry
     Harris-Foulkes estimate   =   -1979.08627453 Ry
     estimated scf accuracy    <       0.00013421 Ry

     iteration # 51     ecut=    40.00 Ry     beta=0.70
     Davidson diagonalization with overlap
     ethr =  2.08E-08,  avg # of iterations =  1.0

     negative rho (up, down):  0.692E+00 0.000E+00

     total cpu time spent up to now is    10594.1 secs

     total energy              =   -1979.08625923 Ry
     Harris-Foulkes estimate   =   -1979.08627326 Ry
     estimated scf accuracy    <       0.00012446 Ry

     iteration # 52     ecut=    40.00 Ry     beta=0.70
     Davidson diagonalization with overlap
     ethr =  2.08E-08,  avg # of iterations =  1.0

     negative rho (up, down):  0.692E+00 0.000E+00

     total cpu time spent up to now is    10791.3 secs

     total energy              =   -1979.08626114 Ry
     Harris-Foulkes estimate   =   -1979.08627177 Ry
     estimated scf accuracy    <       0.00010146 Ry

     iteration # 53     ecut=    40.00 Ry     beta=0.70
     Davidson diagonalization with overlap
     ethr =  2.08E-08,  avg # of iterations =  1.0

     negative rho (up, down):  0.692E+00 0.000E+00

     total cpu time spent up to now is    10987.7 secs

     total energy              =   -1979.08626266 Ry
     Harris-Foulkes estimate   =   -1979.08627033 Ry
     estimated scf accuracy    <       0.00011643 Ry

     iteration # 54     ecut=    40.00 Ry     beta=0.70
     Davidson diagonalization with overlap
     ethr =  2.08E-08,  avg # of iterations =  1.0

     negative rho (up, down):  0.692E+00 0.000E+00

     total cpu time spent up to now is    11184.4 secs

     total energy              =   -1979.08626334 Ry
     Harris-Foulkes estimate   =   -1979.08626907 Ry
     estimated scf accuracy    <       0.00008007 Ry

     iteration # 55     ecut=    40.00 Ry     beta=0.70
     Davidson diagonalization with overlap
     ethr =  2.08E-08,  avg # of iterations =  1.0

     negative rho (up, down):  0.692E+00 0.000E+00

     total cpu time spent up to now is    11385.0 secs

     total energy              =   -1979.08626148 Ry
     Harris-Foulkes estimate   =   -1979.08627186 Ry
     estimated scf accuracy    <       0.00008511 Ry

     iteration # 56     ecut=    40.00 Ry     beta=0.70
     Davidson diagonalization with overlap
     ethr =  2.08E-08,  avg # of iterations =  1.0

     negative rho (up, down):  0.692E+00 0.000E+00

     total cpu time spent up to now is    11592.1 secs

     total energy              =   -1979.08626459 Ry
     Harris-Foulkes estimate   =   -1979.08626776 Ry
     estimated scf accuracy    <       0.00002251 Ry

     iteration # 57     ecut=    40.00 Ry     beta=0.70
     Davidson diagonalization with overlap
     ethr =  9.46E-09,  avg # of iterations =  1.0

     negative rho (up, down):  0.692E+00 0.000E+00

     total cpu time spent up to now is    11797.5 secs

     total energy              =   -1979.08626045 Ry
     Harris-Foulkes estimate   =   -1979.08627287 Ry
     estimated scf accuracy    <       0.00010742 Ry

     iteration # 58     ecut=    40.00 Ry     beta=0.70
     Davidson diagonalization with overlap
     ethr =  9.46E-09,  avg # of iterations =  1.0

     negative rho (up, down):  0.692E+00 0.000E+00

     total cpu time spent up to now is    12004.4 secs

     total energy              =   -1979.08626413 Ry
     Harris-Foulkes estimate   =   -1979.08626860 Ry
     estimated scf accuracy    <       0.00007749 Ry

     iteration # 59     ecut=    40.00 Ry     beta=0.70
     Davidson diagonalization with overlap
     ethr =  9.46E-09,  avg # of iterations =  1.0

     negative rho (up, down):  0.692E+00 0.000E+00

     total cpu time spent up to now is    12211.4 secs

     total energy              =   -1979.08626394 Ry
     Harris-Foulkes estimate   =   -1979.08626939 Ry
     estimated scf accuracy    <       0.00004155 Ry

     iteration # 60     ecut=    40.00 Ry     beta=0.70
     Davidson diagonalization with overlap
     ethr =  9.46E-09,  avg # of iterations =  1.0

     negative rho (up, down):  0.692E+00 0.000E+00

     total cpu time spent up to now is    12421.2 secs

     total energy              =   -1979.08626493 Ry
     Harris-Foulkes estimate   =   -1979.08626831 Ry
     estimated scf accuracy    <       0.00002832 Ry

     iteration # 61     ecut=    40.00 Ry     beta=0.70
     Davidson diagonalization with overlap
     ethr =  9.46E-09,  avg # of iterations =  1.0

     negative rho (up, down):  0.692E+00 0.000E+00

     total cpu time spent up to now is    12618.0 secs

     total energy              =   -1979.08626561 Ry
     Harris-Foulkes estimate   =   -1979.08626744 Ry
     estimated scf accuracy    <       0.00001489 Ry

     iteration # 62     ecut=    40.00 Ry     beta=0.70
     Davidson diagonalization with overlap
     ethr =  6.25E-09,  avg # of iterations =  1.0

     negative rho (up, down):  0.692E+00 0.000E+00

     total cpu time spent up to now is    12813.6 secs

     total energy              =   -1979.08626474 Ry
     Harris-Foulkes estimate   =   -1979.08626805 Ry
     estimated scf accuracy    <       0.00002870 Ry

     iteration # 63     ecut=    40.00 Ry     beta=0.70
     Davidson diagonalization with overlap
     ethr =  6.25E-09,  avg # of iterations =  1.0

     negative rho (up, down):  0.692E+00 0.000E+00

     total cpu time spent up to now is    13009.2 secs

     total energy              =   -1979.08626047 Ry
     Harris-Foulkes estimate   =   -1979.08627226 Ry
     estimated scf accuracy    <       0.00018923 Ry

     iteration # 64     ecut=    40.00 Ry     beta=0.70
     Davidson diagonalization with overlap
     ethr =  6.25E-09,  avg # of iterations =  1.0

     negative rho (up, down):  0.692E+00 0.000E+00

     total cpu time spent up to now is    13204.9 secs

     total energy              =   -1979.08626160 Ry
     Harris-Foulkes estimate   =   -1979.08627181 Ry
     estimated scf accuracy    <       0.00016825 Ry

     iteration # 65     ecut=    40.00 Ry     beta=0.70
     Davidson diagonalization with overlap
     ethr =  6.25E-09,  avg # of iterations =  1.0

     negative rho (up, down):  0.692E+00 0.000E+00

     total cpu time spent up to now is    13400.2 secs

     total energy              =   -1979.08626573 Ry
     Harris-Foulkes estimate   =   -1979.08626718 Ry
     estimated scf accuracy    <       0.00000867 Ry

     iteration # 66     ecut=    40.00 Ry     beta=0.70
     Davidson diagonalization with overlap
     ethr =  3.64E-09,  avg # of iterations =  1.0

     negative rho (up, down):  0.692E+00 0.000E+00

     total cpu time spent up to now is    13595.8 secs

     total energy              =   -1979.08626465 Ry
     Harris-Foulkes estimate   =   -1979.08626868 Ry
     estimated scf accuracy    <       0.00004579 Ry

     iteration # 67     ecut=    40.00 Ry     beta=0.70
     Davidson diagonalization with overlap
     ethr =  3.64E-09,  avg # of iterations =  1.0

     negative rho (up, down):  0.692E+00 0.000E+00

     total cpu time spent up to now is    13791.2 secs

     total energy              =   -1979.08626598 Ry
     Harris-Foulkes estimate   =   -1979.08626707 Ry
     estimated scf accuracy    <       0.00000729 Ry

     iteration # 68     ecut=    40.00 Ry     beta=0.70
     Davidson diagonalization with overlap
     ethr =  3.06E-09,  avg # of iterations =  1.0

     negative rho (up, down):  0.692E+00 0.000E+00

     total cpu time spent up to now is    13987.0 secs

     total energy              =   -1979.08626520 Ry
     Harris-Foulkes estimate   =   -1979.08626802 Ry
     estimated scf accuracy    <       0.00004642 Ry

     iteration # 69     ecut=    40.00 Ry     beta=0.70
     Davidson diagonalization with overlap
     ethr =  3.06E-09,  avg # of iterations =  1.0

     negative rho (up, down):  0.692E+00 0.000E+00

     total cpu time spent up to now is    14182.5 secs

     total energy              =   -1979.08626606 Ry
     Harris-Foulkes estimate   =   -1979.08626716 Ry
     estimated scf accuracy    <       0.00000896 Ry

     iteration # 70     ecut=    40.00 Ry     beta=0.70
     Davidson diagonalization with overlap
     ethr =  3.06E-09,  avg # of iterations =  1.0

     negative rho (up, down):  0.692E+00 0.000E+00

     total cpu time spent up to now is    14378.2 secs

     total energy              =   -1979.08626566 Ry
     Harris-Foulkes estimate   =   -1979.08626748 Ry
     estimated scf accuracy    <       0.00001359 Ry

     iteration # 71     ecut=    40.00 Ry     beta=0.70
     Davidson diagonalization with overlap
     ethr =  3.06E-09,  avg # of iterations =  1.0

     negative rho (up, down):  0.692E+00 0.000E+00

     total cpu time spent up to now is    14574.2 secs

     total energy              =   -1979.08626554 Ry
     Harris-Foulkes estimate   =   -1979.08626762 Ry
     estimated scf accuracy    <       0.00001563 Ry

     iteration # 72     ecut=    40.00 Ry     beta=0.70
     Davidson diagonalization with overlap
     ethr =  3.06E-09,  avg # of iterations =  1.0

     negative rho (up, down):  0.692E+00 0.000E+00

     total cpu time spent up to now is    14770.2 secs

     total energy              =   -1979.08626554 Ry
     Harris-Foulkes estimate   =   -1979.08626771 Ry
     estimated scf accuracy    <       0.00002406 Ry

     iteration # 73     ecut=    40.00 Ry     beta=0.70
     Davidson diagonalization with overlap
     ethr =  3.06E-09,  avg # of iterations =  1.0

     negative rho (up, down):  0.692E+00 0.000E+00

     total cpu time spent up to now is    14965.5 secs

     total energy              =   -1979.08626594 Ry
     Harris-Foulkes estimate   =   -1979.08626730 Ry
     estimated scf accuracy    <       0.00002182 Ry

     iteration # 74     ecut=    40.00 Ry     beta=0.70
     Davidson diagonalization with overlap
     ethr =  3.06E-09,  avg # of iterations =  1.0

     negative rho (up, down):  0.692E+00 0.000E+00

     total cpu time spent up to now is    15162.0 secs

     total energy              =   -1979.08626612 Ry
     Harris-Foulkes estimate   =   -1979.08626701 Ry
     estimated scf accuracy    <       0.00001255 Ry

     iteration # 75     ecut=    40.00 Ry     beta=0.70
     Davidson diagonalization with overlap
     ethr =  3.06E-09,  avg # of iterations =  1.0

     negative rho (up, down):  0.692E+00 0.000E+00

     total cpu time spent up to now is    15357.3 secs

     total energy              =   -1979.08626591 Ry
     Harris-Foulkes estimate   =   -1979.08626738 Ry
     estimated scf accuracy    <       0.00001197 Ry

     iteration # 76     ecut=    40.00 Ry     beta=0.70
     Davidson diagonalization with overlap
     ethr =  3.06E-09,  avg # of iterations =  1.0

     negative rho (up, down):  0.692E+00 0.000E+00

     total cpu time spent up to now is    15554.0 secs

     total energy              =   -1979.08626630 Ry
     Harris-Foulkes estimate   =   -1979.08626682 Ry
     estimated scf accuracy    <       0.00000353 Ry

     iteration # 77     ecut=    40.00 Ry     beta=0.70
     Davidson diagonalization with overlap
     ethr =  1.48E-09,  avg # of iterations =  1.1

     negative rho (up, down):  0.692E+00 0.000E+00

     total cpu time spent up to now is    15749.7 secs

     total energy              =   -1979.08626539 Ry
     Harris-Foulkes estimate   =   -1979.08626791 Ry
     estimated scf accuracy    <       0.00002589 Ry

     iteration # 78     ecut=    40.00 Ry     beta=0.70
     Davidson diagonalization with overlap
     ethr =  1.48E-09,  avg # of iterations =  1.0

     negative rho (up, down):  0.692E+00 0.000E+00

     total cpu time spent up to now is    15946.1 secs

     total energy              =   -1979.08626604 Ry
     Harris-Foulkes estimate   =   -1979.08626714 Ry
     estimated scf accuracy    <       0.00001921 Ry

     iteration # 79     ecut=    40.00 Ry     beta=0.70
     Davidson diagonalization with overlap
     ethr =  1.48E-09,  avg # of iterations =  1.0

     negative rho (up, down):  0.692E+00 0.000E+00

     total cpu time spent up to now is    16141.8 secs

     total energy              =   -1979.08626608 Ry
     Harris-Foulkes estimate   =   -1979.08626717 Ry
     estimated scf accuracy    <       0.00000880 Ry

     iteration # 80     ecut=    40.00 Ry     beta=0.70
     Davidson diagonalization with overlap
     ethr =  1.48E-09,  avg # of iterations =  1.0

     negative rho (up, down):  0.692E+00 0.000E+00

     total cpu time spent up to now is    16338.6 secs

     total energy              =   -1979.08626627 Ry
     Harris-Foulkes estimate   =   -1979.08626699 Ry
     estimated scf accuracy    <       0.00000549 Ry

     iteration # 81     ecut=    40.00 Ry     beta=0.70
     Davidson diagonalization with overlap
     ethr =  1.48E-09,  avg # of iterations =  1.0

     negative rho (up, down):  0.692E+00 0.000E+00

     total cpu time spent up to now is    16534.0 secs

     total energy              =   -1979.08626644 Ry
     Harris-Foulkes estimate   =   -1979.08626681 Ry
     estimated scf accuracy    <       0.00000279 Ry

     iteration # 82     ecut=    40.00 Ry     beta=0.70
     Davidson diagonalization with overlap
     ethr =  1.17E-09,  avg # of iterations =  1.0

     negative rho (up, down):  0.692E+00 0.000E+00

     total cpu time spent up to now is    16730.1 secs

     total energy              =   -1979.08626630 Ry
     Harris-Foulkes estimate   =   -1979.08626690 Ry
     estimated scf accuracy    <       0.00000586 Ry

     iteration # 83     ecut=    40.00 Ry     beta=0.70
     Davidson diagonalization with overlap
     ethr =  1.17E-09,  avg # of iterations =  1.0

     negative rho (up, down):  0.692E+00 0.000E+00

     total cpu time spent up to now is    16926.4 secs

     total energy              =   -1979.08626541 Ry
     Harris-Foulkes estimate   =   -1979.08626774 Ry
     estimated scf accuracy    <       0.00003921 Ry

     iteration # 84     ecut=    40.00 Ry     beta=0.70
     Davidson diagonalization with overlap
     ethr =  1.17E-09,  avg # of iterations =  1.0

     negative rho (up, down):  0.692E+00 0.000E+00

     total cpu time spent up to now is    17122.0 secs

     total energy              =   -1979.08626574 Ry
     Harris-Foulkes estimate   =   -1979.08626754 Ry
     estimated scf accuracy    <       0.00002695 Ry

     iteration # 85     ecut=    40.00 Ry     beta=0.70
     Davidson diagonalization with overlap
     ethr =  1.17E-09,  avg # of iterations =  1.0

     negative rho (up, down):  0.692E+00 0.000E+00

     total cpu time spent up to now is    17317.3 secs

     total energy              =   -1979.08626640 Ry
     Harris-Foulkes estimate   =   -1979.08626678 Ry
     estimated scf accuracy    <       0.00000236 Ry

     iteration # 86     ecut=    40.00 Ry     beta=0.70
     Davidson diagonalization with overlap
     ethr =  9.90E-10,  avg # of iterations =  1.0

     negative rho (up, down):  0.692E+00 0.000E+00

     total cpu time spent up to now is    17512.7 secs

     total energy              =   -1979.08626610 Ry
     Harris-Foulkes estimate   =   -1979.08626720 Ry
     estimated scf accuracy    <       0.00001132 Ry

     iteration # 87     ecut=    40.00 Ry     beta=0.70
     Davidson diagonalization with overlap
     ethr =  9.90E-10,  avg # of iterations =  1.0

     negative rho (up, down):  0.692E+00 0.000E+00

     total cpu time spent up to now is    17709.4 secs

     total energy              =   -1979.08626646 Ry
     Harris-Foulkes estimate   =   -1979.08626677 Ry
     estimated scf accuracy    <       0.00000272 Ry

     iteration # 88     ecut=    40.00 Ry     beta=0.70
     Davidson diagonalization with overlap
     ethr =  9.90E-10,  avg # of iterations =  1.0

     negative rho (up, down):  0.692E+00 0.000E+00

     total cpu time spent up to now is    17899.9 secs

     total energy              =   -1979.08626628 Ry
     Harris-Foulkes estimate   =   -1979.08626696 Ry
     estimated scf accuracy    <       0.00001107 Ry

     iteration # 89     ecut=    40.00 Ry     beta=0.70
     Davidson diagonalization with overlap
     ethr =  9.90E-10,  avg # of iterations =  1.0

     negative rho (up, down):  0.692E+00 0.000E+00

     total cpu time spent up to now is    18083.7 secs

     total energy              =   -1979.08626644 Ry
     Harris-Foulkes estimate   =   -1979.08626682 Ry
     estimated scf accuracy    <       0.00000353 Ry

     iteration # 90     ecut=    40.00 Ry     beta=0.70
     Davidson diagonalization with overlap
     ethr =  9.90E-10,  avg # of iterations =  1.0

     negative rho (up, down):  0.692E+00 0.000E+00

     total cpu time spent up to now is    18268.1 secs

     total energy              =   -1979.08626638 Ry
     Harris-Foulkes estimate   =   -1979.08626684 Ry
     estimated scf accuracy    <       0.00000328 Ry

     iteration # 91     ecut=    40.00 Ry     beta=0.70
     Davidson diagonalization with overlap
     ethr =  9.90E-10,  avg # of iterations =  1.0

     negative rho (up, down):  0.692E+00 0.000E+00

     total cpu time spent up to now is    18464.9 secs

     total energy              =   -1979.08626625 Ry
     Harris-Foulkes estimate   =   -1979.08626699 Ry
     estimated scf accuracy    <       0.00000540 Ry

     iteration # 92     ecut=    40.00 Ry     beta=0.70
     Davidson diagonalization with overlap
     ethr =  9.90E-10,  avg # of iterations =  1.0

     negative rho (up, down):  0.692E+00 0.000E+00

     total cpu time spent up to now is    18659.3 secs

     total energy              =   -1979.08626606 Ry
     Harris-Foulkes estimate   =   -1979.08626721 Ry
     estimated scf accuracy    <       0.00001444 Ry

     iteration # 93     ecut=    40.00 Ry     beta=0.70
     Davidson diagonalization with overlap
     ethr =  9.90E-10,  avg # of iterations =  1.0

     negative rho (up, down):  0.692E+00 0.000E+00

     total cpu time spent up to now is    18853.7 secs

     total energy              =   -1979.08626633 Ry
     Harris-Foulkes estimate   =   -1979.08626693 Ry
     estimated scf accuracy    <       0.00000992 Ry

     iteration # 94     ecut=    40.00 Ry     beta=0.70
     Davidson diagonalization with overlap
     ethr =  9.90E-10,  avg # of iterations =  1.0

     negative rho (up, down):  0.692E+00 0.000E+00

     total cpu time spent up to now is    19050.0 secs

     total energy              =   -1979.08626644 Ry
     Harris-Foulkes estimate   =   -1979.08626678 Ry
     estimated scf accuracy    <       0.00000464 Ry

     iteration # 95     ecut=    40.00 Ry     beta=0.70
     Davidson diagonalization with overlap
     ethr =  9.90E-10,  avg # of iterations =  1.0

     negative rho (up, down):  0.692E+00 0.000E+00

     total cpu time spent up to now is    19244.2 secs

     total energy              =   -1979.08626637 Ry
     Harris-Foulkes estimate   =   -1979.08626691 Ry
     estimated scf accuracy    <       0.00000445 Ry

     iteration # 96     ecut=    40.00 Ry     beta=0.70
     Davidson diagonalization with overlap
     ethr =  9.90E-10,  avg # of iterations =  1.0

     negative rho (up, down):  0.692E+00 0.000E+00

     total cpu time spent up to now is    19438.7 secs

     total energy              =   -1979.08626652 Ry
     Harris-Foulkes estimate   =   -1979.08626671 Ry
     estimated scf accuracy    <       0.00000131 Ry

     iteration # 97     ecut=    40.00 Ry     beta=0.70
     Davidson diagonalization with overlap
     ethr =  5.49E-10,  avg # of iterations =  1.0

     negative rho (up, down):  0.692E+00 0.000E+00

     total cpu time spent up to now is    19632.6 secs

     total energy              =   -1979.08626616 Ry
     Harris-Foulkes estimate   =   -1979.08626712 Ry
     estimated scf accuracy    <       0.00001063 Ry

     iteration # 98     ecut=    40.00 Ry     beta=0.70
     Davidson diagonalization with overlap
     ethr =  5.49E-10,  avg # of iterations =  1.0

     negative rho (up, down):  0.692E+00 0.000E+00

     total cpu time spent up to now is    19826.6 secs

     total energy              =   -1979.08626629 Ry
     Harris-Foulkes estimate   =   -1979.08626694 Ry
     estimated scf accuracy    <       0.00001142 Ry

     iteration # 99     ecut=    40.00 Ry     beta=0.70
     Davidson diagonalization with overlap
     ethr =  5.49E-10,  avg # of iterations =  1.0

     negative rho (up, down):  0.692E+00 0.000E+00

     total cpu time spent up to now is    20020.4 secs

     total energy              =   -1979.08626637 Ry
     Harris-Foulkes estimate   =   -1979.08626689 Ry
     estimated scf accuracy    <       0.00000460 Ry

     iteration #100     ecut=    40.00 Ry     beta=0.70
     Davidson diagonalization with overlap
     ethr =  5.49E-10,  avg # of iterations =  1.0

     negative rho (up, down):  0.692E+00 0.000E+00

     total cpu time spent up to now is    20214.2 secs

     total energy              =   -1979.08626644 Ry
     Harris-Foulkes estimate   =   -1979.08626682 Ry
     estimated scf accuracy    <       0.00000272 Ry

     End of self-consistent calculation

     convergence NOT achieved after 100 iterations: stopping

     init_run     :    114.24s CPU    117.95s WALL (       1 calls)
     electrons    :  19466.92s CPU  20094.34s WALL (       1 calls)

     Called by init_run:
     wfcinit      :     37.29s CPU     39.39s WALL (       1 calls)
     potinit      :      7.50s CPU      7.82s WALL (       1 calls)

     Called by electrons:
     c_bands      :   9543.72s CPU   9929.86s WALL (     100 calls)
     sum_band     :   4033.49s CPU   4152.33s WALL (     100 calls)
     v_of_rho     :    115.83s CPU    128.69s WALL (     101 calls)
     newd         :   5728.15s CPU   5752.35s WALL (     101 calls)
     mix_rho      :     23.92s CPU     24.91s WALL (     100 calls)

     Called by c_bands:
     init_us_2    :     23.73s CPU     23.90s WALL (     606 calls)
     cegterg      :   9371.77s CPU   9704.59s WALL (     300 calls)

     Called by *egterg:
     h_psi        :   5643.74s CPU   5887.14s WALL (     758 calls)
     s_psi        :    560.95s CPU    567.27s WALL (     761 calls)
     g_psi        :     11.32s CPU     11.34s WALL (     455 calls)
     cdiaghg      :    728.32s CPU    730.19s WALL (     755 calls)

     Called by h_psi:
     add_vuspsi   :    563.25s CPU    570.37s WALL (     758 calls)
     vhpsi        :    554.54s CPU    562.71s WALL (     758 calls)

     General routines
     calbec       :   1189.52s CPU   1205.48s WALL (    2119 calls)
     fft          :    134.95s CPU    162.88s WALL (    1614 calls)
     ffts         :      1.76s CPU      1.78s WALL (     201 calls)
     fftw         :   3150.32s CPU   3432.51s WALL (  550762 calls)
     interpolate  :     16.92s CPU     17.04s WALL (     201 calls)
     davcio       :      0.07s CPU     10.86s WALL (     612 calls)

     Parallel routines
     fft_scatter  :   1327.20s CPU   1629.94s WALL (  552577 calls)
     Hubbard U routines
     new_ns       :    123.10s CPU    129.84s WALL (     100 calls)
     vhpsi        :    554.54s CPU    562.71s WALL (     758 calls)

     PWSCF        :     5h26m CPU        5h37m WALL


   This run was terminated on:   9:35:39  30Apr2014            

=------------------------------------------------------------------------------=
   JOB DONE.
=------------------------------------------------------------------------------=
STOP 1
STOP 1
STOP 1
STOP 1
STOP 1
STOP 1
STOP 1
STOP 1
STOP 1
STOP 1
STOP 1
STOP 1
STOP 1
STOP 1
STOP 1
STOP 1
--------------------------------------------------------------------------
mpirun noticed that the job aborted, but has no info as to the process
that caused that situation.
--------------------------------------------------------------------------
---------------------------------------
Running PBS batch system epilogue script
Job id: 340541.audhumbla.fysik.dtu.dk
Username: zhonxu
Groupname: campgst
Jobname: RhO2/Eads-2-layers/O-U-3.0
Sessionid: 15256
Resources limits: neednodes=2:ppn=8:xeon8,nodes=2:ppn=8:xeon8,walltime=48:00:00
Resources used: cput=89:46:58,mem=17605196kb,vmem=21366464kb,walltime=05:37:12
Queuename: verylong
Accounting:
This job has allocated the following 16 nodes:
c037 c037 c037 c037 c037 c037 c037 c037 c025 c025 c025 c025 c025 c025 c025 c025
Finished epilogue job 340541.audhumbla.fysik.dtu.dk for zhonxu
