
     Program PWSCF v.5.0.2 (svn rev. 9656) starts on 30Apr2014 at 21:57:49 

     This program is part of the open-source Quantum ESPRESSO suite
     for quantum simulation of materials; please cite
         "P. Giannozzi et al., J. Phys.:Condens. Matter 21 395502 (2009);
          URL http://www.quantum-espresso.org", 
     in publications or presentations arising from this work. More details at
     http://www.quantum-espresso.org/quote.php

     Parallel version (MPI), running on    16 processors
     K-points division:     npool     =       4
     R & G space division:  proc/nbgrp/npool/nimage =       4

     Current dimensions of program PWSCF are:
     Max number of different atomic species (ntypx) = 10
     Max number of k-points (npk) =  40000
     Max angular momentum in pseudopotentials (lmaxx) =  3
     Reading input from pwscf.in
Warning: card &CELL ignored
Warning: card / ignored

     Subspace diagonalization in iterative solution of the eigenvalue problem:
     a serial algorithm will be used


     Parallelization info
     --------------------
     sticks:   dense  smooth     PW     G-vecs:    dense   smooth      PW
     Min        1467     469    131               355494    64365    9519
     Max        1469     470    132               355497    64388    9524
     Sum        5871    1877    527              1421981   257505   38087



     bravais-lattice index     =            0
     lattice parameter (alat)  =      11.1872  a.u.
     unit-cell volume          =    7531.8600 (a.u.)^3
     number of atoms/cell      =           31
     number of atomic types    =            3
     number of electrons       =       222.00
     number of Kohn-Sham states=          333
     kinetic-energy cutoff     =      40.0000  Ry
     charge density cutoff     =     500.0000  Ry
     convergence threshold     =      1.0E-06
     mixing beta               =       0.7000
     number of iterations used =            8  plain     mixing
     Exchange-correlation      = SLA  PW   PBE  PBE ( 1 4 3 4 0)
     EXX-fraction              =        0.00
     nstep                     =           50


     celldm(1)=  11.187179  celldm(2)=   0.000000  celldm(3)=   0.000000
     celldm(4)=   0.000000  celldm(5)=   0.000000  celldm(6)=   0.000000

     crystal axes: (cart. coord. in units of alat)
               a(1) = (   1.000000   0.000000   0.000000 )  
               a(2) = (   0.000000   1.180104   0.000000 )  
               a(3) = (   0.000000   0.000000   4.558482 )  

     reciprocal axes: (cart. coord. in units 2 pi/alat)
               b(1) = (  1.000000  0.000000  0.000000 )  
               b(2) = (  0.000000  0.847383  0.000000 )  
               b(3) = (  0.000000  0.000000  0.219371 )  


     PseudoPot. # 1 for O  read from file:
     /home/camp/zhonxu/pseudo/o_pbe_v1.01.uspp.F.UPF
     MD5 check sum: 2bcb18d16ea4b960afae9ec6d52f22d2
     Pseudo is Ultrasoft + core correction, Zval =  6.0
     Generated by new atomic code, or converted to UPF format
     Using radial grid of  737 points,  5 beta functions with: 
                l(1) =   0
                l(2) =   0
                l(3) =   1
                l(4) =   1
                l(5) =   2
     Q(r) pseudized with  8 coefficients,  rinner =    0.900   0.900   0.900
                                                       0.900   0.900

     PseudoPot. # 2 for Nb read from file:
     /home/camp/zhonxu/pseudo/nb_pbe_v1.uspp.F.UPF
     MD5 check sum: 573aab8a2fa660278ed4a62cd769473f
     Pseudo is Ultrasoft + core correction, Zval = 13.0
     Generated by new atomic code, or converted to UPF format
     Using radial grid of  887 points,  6 beta functions with: 
                l(1) =   0
                l(2) =   0
                l(3) =   1
                l(4) =   1
                l(5) =   2
                l(6) =   2
     Q(r) pseudized with  6 coefficients,  rinner =    1.000   1.000   1.000
                                                       1.000   1.000

     PseudoPot. # 3 for H  read from file:
     /home/camp/zhonxu/pseudo/h_pbe_v1.uspp.F.UPF
     MD5 check sum: 3408e3ff4ec8b0a4e358431e7e038a48
     Pseudo is Ultrasoft, Zval =  1.0
     Generated by new atomic code, or converted to UPF format
     Using radial grid of  615 points,  2 beta functions with: 
                l(1) =   0
                l(2) =   0
     Q(r) pseudized with  8 coefficients,  rinner =    0.700

     atomic species   valence    mass     pseudopotential
        O0             6.00    15.99940     O ( 1.00)
        Nb1           13.00    92.90640     Nb( 1.00)
        H2             1.00     1.00794     H ( 1.00)


     Simplified LDA+U calculation (l_max = 2) with parameters (eV):
     atomic species    L          U    alpha       J0     beta
        Nb1            2     7.5000   0.0000   0.0000   0.0000



     No symmetry found



   Cartesian axes

     site n.     atom                  positions (alat units)
         1           O0  tau(   1) = (   0.0000000   0.0000000   1.6934306  )
         2           O0  tau(   2) = (   0.0000000   0.5900519   1.7719732  )
         3           Nb1 tau(   3) = (   0.2500000   0.5900519   2.0266100  )
         4           Nb1 tau(   4) = (   0.0000000   0.0000000   2.0234647  )
         5           O0  tau(   5) = (   0.2500000   0.9322821   2.0339492  )
         6           O0  tau(   6) = (   0.2500000   0.2478218   2.0339492  )
         7           O0  tau(   7) = (   0.0000000   0.5900519   2.2822497  )
         8           O0  tau(   8) = (   0.0000000   0.0000000   2.3837671  )
         9           Nb1 tau(   9) = (   0.2500000   0.0000000   2.6303810  )
        10           Nb1 tau(  10) = (   0.0000000   0.5900519   2.5986084  )
        11           O0  tau(  11) = (   0.2500000   0.8378738   2.6271901  )
        12           O0  tau(  12) = (   0.2500000   0.3422301   2.6272357  )
        13           O0  tau(  13) = (   0.0000000   0.0000000   2.8322306  )
        14           O0  tau(  14) = (   0.5000000   0.0000000   1.6959377  )
        15           O0  tau(  15) = (   0.5000000   0.5900519   1.7815005  )
        16           Nb1 tau(  16) = (   0.7500000   0.5900519   2.0269291  )
        17           Nb1 tau(  17) = (   0.5000000   0.0000000   2.0281143  )
        18           O0  tau(  18) = (   0.7500000   0.9322821   2.0339492  )
        19           O0  tau(  19) = (   0.7500000   0.2478218   2.0339492  )
        20           O0  tau(  20) = (   0.5000000   0.5900519   2.2572692  )
        21           O0  tau(  21) = (   0.5000000   0.0000000   2.3822628  )
        22           Nb1 tau(  22) = (   0.7500000   0.0000000   2.6309736  )
        23           Nb1 tau(  23) = (   0.5000000   0.5900519   2.6831227  )
        24           O0  tau(  24) = (   0.7500000   0.8378738   2.6265975  )
        25           O0  tau(  25) = (   0.7500000   0.3422301   2.6265975  )
        26           O0  tau(  26) = (   0.5000000   0.0000000   2.8320027  )
        27           H2  tau(  27) = (  -0.0004900   0.5918693   1.6065459  )
        28           H2  tau(  28) = (   0.4994900   0.5917631   1.6163466  )
        29           H2  tau(  29) = (   0.1504600   0.0004366   1.6207228  )
        30           H2  tau(  30) = (   0.6496400   0.0004366   1.6219536  )
        31           O0  tau(  31) = (   0.5000300   0.5900519   2.9731333  )

     number of k points=    10  Methfessel-Paxton smearing, width (Ry)=  0.0100
                       cart. coord. in units 2pi/alat
        k(    1) = (   0.0000000   0.0000000   0.0000000), wk =   0.1250000
        k(    2) = (   0.0000000   0.2118458   0.0000000), wk =   0.2500000
        k(    3) = (   0.0000000  -0.4236915   0.0000000), wk =   0.1250000
        k(    4) = (   0.2500000   0.0000000   0.0000000), wk =   0.2500000
        k(    5) = (   0.2500000   0.2118458   0.0000000), wk =   0.2500000
        k(    6) = (   0.2500000  -0.4236915   0.0000000), wk =   0.2500000
        k(    7) = (  -0.5000000   0.0000000   0.0000000), wk =   0.1250000
        k(    8) = (  -0.5000000   0.2118458   0.0000000), wk =   0.2500000
        k(    9) = (  -0.5000000  -0.4236915   0.0000000), wk =   0.1250000
        k(   10) = (  -0.2500000   0.2118458   0.0000000), wk =   0.2500000

     Dense  grid:  1421981 G-vectors     FFT dimensions: (  80,  96, 375)

     Smooth grid:   257505 G-vectors     FFT dimensions: (  45,  54, 216)

     Largest allocated arrays     est. size (Mb)     dimensions
        Kohn-Sham Wavefunctions        41.09 Mb     (   8086,  333)
        Atomic wavefunctions           22.70 Mb     (   8086,  184)
        NL pseudopotentials            49.23 Mb     (   8086,  399)
        Each V/rho on FFT grid         11.02 Mb     ( 721920)
        Each G-vector array             2.71 Mb     ( 355495)
        G-vector shells                 1.17 Mb     ( 153576)
     Largest temporary arrays     est. size (Mb)     dimensions
        Auxiliary wavefunctions       164.35 Mb     (   8086, 1332)
        Each subspace H/S matrix       27.07 Mb     (1332,1332)
        Each <psi_i|beta_j> matrix      2.03 Mb     (    399,  333)
        Arrays for rho mixing          88.13 Mb     ( 721920,   8)

     Check: negative/imaginary core charge=   -0.000003    0.000000

     Initial potential from superposition of free atoms
     Check: negative starting charge=   -0.003810

     starting charge  221.97807, renormalised to  222.00000

     negative rho (up, down):  0.381E-02 0.000E+00
     Number of +U iterations with fixed ns =  0
     Starting occupations:
 --- enter write_ns ---
 LDA+U parameters:
U( 2)     =  7.50000000
alpha( 2) =  0.00000000
atom    3   Tr[ns(na)] =   3.00000
    eigenvalues: 
  0.300  0.300  0.300  0.300  0.300
    eigenvectors:
  1.000  0.000  0.000  0.000  0.000
  0.000  1.000  0.000  0.000  0.000
  0.000  0.000  1.000  0.000  0.000
  0.000  0.000  0.000  1.000  0.000
  0.000  0.000  0.000  0.000  1.000
    occupations:
  0.300  0.000  0.000  0.000  0.000
  0.000  0.300  0.000  0.000  0.000
  0.000  0.000  0.300  0.000  0.000
  0.000  0.000  0.000  0.300  0.000
  0.000  0.000  0.000  0.000  0.300
atom    4   Tr[ns(na)] =   3.00000
    eigenvalues: 
  0.300  0.300  0.300  0.300  0.300
    eigenvectors:
  1.000  0.000  0.000  0.000  0.000
  0.000  1.000  0.000  0.000  0.000
  0.000  0.000  1.000  0.000  0.000
  0.000  0.000  0.000  1.000  0.000
  0.000  0.000  0.000  0.000  1.000
    occupations:
  0.300  0.000  0.000  0.000  0.000
  0.000  0.300  0.000  0.000  0.000
  0.000  0.000  0.300  0.000  0.000
  0.000  0.000  0.000  0.300  0.000
  0.000  0.000  0.000  0.000  0.300
atom    9   Tr[ns(na)] =   3.00000
    eigenvalues: 
  0.300  0.300  0.300  0.300  0.300
    eigenvectors:
  1.000  0.000  0.000  0.000  0.000
  0.000  1.000  0.000  0.000  0.000
  0.000  0.000  1.000  0.000  0.000
  0.000  0.000  0.000  1.000  0.000
  0.000  0.000  0.000  0.000  1.000
    occupations:
  0.300  0.000  0.000  0.000  0.000
  0.000  0.300  0.000  0.000  0.000
  0.000  0.000  0.300  0.000  0.000
  0.000  0.000  0.000  0.300  0.000
  0.000  0.000  0.000  0.000  0.300
atom   10   Tr[ns(na)] =   3.00000
    eigenvalues: 
  0.300  0.300  0.300  0.300  0.300
    eigenvectors:
  1.000  0.000  0.000  0.000  0.000
  0.000  1.000  0.000  0.000  0.000
  0.000  0.000  1.000  0.000  0.000
  0.000  0.000  0.000  1.000  0.000
  0.000  0.000  0.000  0.000  1.000
    occupations:
  0.300  0.000  0.000  0.000  0.000
  0.000  0.300  0.000  0.000  0.000
  0.000  0.000  0.300  0.000  0.000
  0.000  0.000  0.000  0.300  0.000
  0.000  0.000  0.000  0.000  0.300
atom   16   Tr[ns(na)] =   3.00000
    eigenvalues: 
  0.300  0.300  0.300  0.300  0.300
    eigenvectors:
  1.000  0.000  0.000  0.000  0.000
  0.000  1.000  0.000  0.000  0.000
  0.000  0.000  1.000  0.000  0.000
  0.000  0.000  0.000  1.000  0.000
  0.000  0.000  0.000  0.000  1.000
    occupations:
  0.300  0.000  0.000  0.000  0.000
  0.000  0.300  0.000  0.000  0.000
  0.000  0.000  0.300  0.000  0.000
  0.000  0.000  0.000  0.300  0.000
  0.000  0.000  0.000  0.000  0.300
atom   17   Tr[ns(na)] =   3.00000
    eigenvalues: 
  0.300  0.300  0.300  0.300  0.300
    eigenvectors:
  1.000  0.000  0.000  0.000  0.000
  0.000  1.000  0.000  0.000  0.000
  0.000  0.000  1.000  0.000  0.000
  0.000  0.000  0.000  1.000  0.000
  0.000  0.000  0.000  0.000  1.000
    occupations:
  0.300  0.000  0.000  0.000  0.000
  0.000  0.300  0.000  0.000  0.000
  0.000  0.000  0.300  0.000  0.000
  0.000  0.000  0.000  0.300  0.000
  0.000  0.000  0.000  0.000  0.300
atom   22   Tr[ns(na)] =   3.00000
    eigenvalues: 
  0.300  0.300  0.300  0.300  0.300
    eigenvectors:
  1.000  0.000  0.000  0.000  0.000
  0.000  1.000  0.000  0.000  0.000
  0.000  0.000  1.000  0.000  0.000
  0.000  0.000  0.000  1.000  0.000
  0.000  0.000  0.000  0.000  1.000
    occupations:
  0.300  0.000  0.000  0.000  0.000
  0.000  0.300  0.000  0.000  0.000
  0.000  0.000  0.300  0.000  0.000
  0.000  0.000  0.000  0.300  0.000
  0.000  0.000  0.000  0.000  0.300
atom   23   Tr[ns(na)] =   3.00000
    eigenvalues: 
  0.300  0.300  0.300  0.300  0.300
    eigenvectors:
  1.000  0.000  0.000  0.000  0.000
  0.000  1.000  0.000  0.000  0.000
  0.000  0.000  1.000  0.000  0.000
  0.000  0.000  0.000  1.000  0.000
  0.000  0.000  0.000  0.000  1.000
    occupations:
  0.300  0.000  0.000  0.000  0.000
  0.000  0.300  0.000  0.000  0.000
  0.000  0.000  0.300  0.000  0.000
  0.000  0.000  0.000  0.300  0.000
  0.000  0.000  0.000  0.000  0.300
N of occupied +U levels =  24.0000000
 --- exit write_ns ---
 Atomic wfc used for LDA+U Projector are NOT orthogonalized
     Starting wfc are  184 randomized atomic wfcs

     total cpu time spent up to now is      132.4 secs

     per-process dynamical memory:   403.2 Mb

     Self-consistent Calculation

     iteration #  1     ecut=    40.00 Ry     beta=0.70
     Davidson diagonalization with overlap
     ethr =  1.00E-02,  avg # of iterations =  6.0
 --- enter write_ns ---
 LDA+U parameters:
U( 2)     =  7.50000000
alpha( 2) =  0.00000000
atom    3   Tr[ns(na)] =   3.70383
    eigenvalues: 
  0.219  0.247  0.399  0.428  0.560
    eigenvectors:
  0.000  0.000  0.036  0.555  0.409
  0.000  0.000  0.934  0.066  0.000
  0.073  0.927  0.000  0.000  0.000
  0.000  0.000  0.030  0.379  0.591
  0.927  0.073  0.000  0.000  0.000
    occupations:
  0.481 -0.004  0.000 -0.066 -0.000
 -0.004  0.401 -0.000 -0.006  0.000
  0.000 -0.000  0.245 -0.000 -0.007
 -0.066 -0.006 -0.000  0.505  0.000
 -0.000  0.000 -0.007  0.000  0.221
atom    4   Tr[ns(na)] =   3.85396
    eigenvalues: 
  0.203  0.353  0.403  0.427  0.542
    eigenvectors:
  0.000  0.000  0.000  0.969  0.031
  0.000  1.000  0.000  0.000  0.000
  1.000  0.000  0.000  0.000  0.000
  0.000  0.000  0.000  0.031  0.969
  0.000  0.000  1.000  0.000  0.000
    occupations:
  0.430  0.002  0.000 -0.020  0.000
  0.002  0.353  0.000 -0.003 -0.000
  0.000  0.000  0.203 -0.000  0.001
 -0.020 -0.003 -0.000  0.538  0.000
  0.000 -0.000  0.001  0.000  0.403
atom    9   Tr[ns(na)] =   3.31224
    eigenvalues: 
  0.216  0.256  0.258  0.462  0.465
    eigenvectors:
  0.000  0.000  0.881  0.008  0.111
  0.000  0.000  0.000  0.931  0.069
  1.000  0.000  0.000  0.000  0.000
  0.000  0.000  0.119  0.060  0.821
  0.000  1.000  0.000  0.000  0.000
    occupations:
  0.282  0.000  0.000  0.067 -0.000
  0.000  0.462 -0.000 -0.001 -0.000
  0.000 -0.000  0.216  0.000  0.000
  0.067 -0.001  0.000  0.440 -0.000
 -0.000 -0.000  0.000 -0.000  0.256
atom   10   Tr[ns(na)] =   3.28978
    eigenvalues: 
  0.182  0.214  0.355  0.397  0.498
    eigenvectors:
  0.000  0.000  1.000  0.000  0.000
  0.000  1.000  0.000  0.000  0.000
  1.000  0.000  0.000  0.000  0.000
  0.000  0.000  0.000  0.000  1.000
  0.000  0.000  0.000  1.000  0.000
    occupations:
  0.355  0.000  0.000 -0.002 -0.000
  0.000  0.214  0.000  0.001  0.000
  0.000  0.000  0.182 -0.000 -0.000
 -0.002  0.001 -0.000  0.498 -0.000
 -0.000  0.000 -0.000 -0.000  0.397
atom   16   Tr[ns(na)] =   3.70379
    eigenvalues: 
  0.220  0.246  0.399  0.428  0.559
    eigenvectors:
  0.000  0.000  0.036  0.556  0.408
  0.000  0.000  0.934  0.066  0.000
  0.026  0.974  0.000  0.000  0.000
  0.000  0.000  0.030  0.378  0.592
  0.974  0.026  0.000  0.000  0.000
    occupations:
  0.480  0.004  0.000 -0.066  0.000
  0.004  0.401  0.000  0.006  0.000
  0.000  0.000  0.245 -0.000  0.004
 -0.066  0.006 -0.000  0.505 -0.000
  0.000  0.000  0.004 -0.000  0.221
atom   17   Tr[ns(na)] =   3.84278
    eigenvalues: 
  0.204  0.357  0.403  0.430  0.526
    eigenvectors:
  0.000  0.000  0.000  0.961  0.039
  0.000  1.000  0.000  0.000  0.000
  1.000  0.000  0.000  0.000  0.000
  0.000  0.000  0.000  0.039  0.961
  0.000  0.000  1.000  0.000  0.000
    occupations:
  0.434  0.002  0.000 -0.018  0.000
  0.002  0.357  0.000 -0.003 -0.000
  0.000  0.000  0.204 -0.000  0.001
 -0.018 -0.003 -0.000  0.523  0.000
  0.000 -0.000  0.001  0.000  0.403
atom   22   Tr[ns(na)] =   3.31415
    eigenvalues: 
  0.216  0.256  0.258  0.462  0.465
    eigenvectors:
  0.000  0.000  0.882  0.009  0.109
  0.000  0.000  0.000  0.929  0.071
  1.000  0.000  0.000  0.000  0.000
  0.000  0.000  0.118  0.063  0.819
  0.000  1.000  0.000  0.000  0.000
    occupations:
  0.282  0.000 -0.000  0.067 -0.000
  0.000  0.462  0.000  0.001  0.000
 -0.000  0.000  0.216  0.000 -0.000
  0.067  0.001  0.000  0.440  0.000
 -0.000  0.000 -0.000  0.000  0.256
atom   23   Tr[ns(na)] =   3.76989
    eigenvalues: 
  0.261  0.281  0.374  0.447  0.521
    eigenvectors:
  0.000  0.000  0.000  0.948  0.052
  0.000  1.000  0.000  0.000  0.000
  1.000  0.000  0.000  0.000  0.000
  0.000  0.000  0.000  0.052  0.948
  0.000  0.000  1.000  0.000  0.000
    occupations:
  0.451 -0.000 -0.000 -0.016 -0.000
 -0.000  0.281  0.000 -0.001  0.000
 -0.000  0.000  0.261 -0.000  0.000
 -0.016 -0.001 -0.000  0.517 -0.000
 -0.000  0.000  0.000 -0.000  0.374
N of occupied +U levels =  28.7904125
 --- exit write_ns ---

     negative rho (up, down):  0.331E-02 0.000E+00

     total cpu time spent up to now is      516.1 secs

     total energy              =   -1547.65673873 Ry
     Harris-Foulkes estimate   =   -1560.98786485 Ry
     estimated scf accuracy    <      17.33528564 Ry

     iteration #  2     ecut=    40.00 Ry     beta=0.70
     Davidson diagonalization with overlap
     ethr =  7.81E-03,  avg # of iterations =  2.0

     negative rho (up, down):  0.134E-01 0.000E+00

     total cpu time spent up to now is      731.1 secs

     total energy              =   -1532.12084272 Ry
     Harris-Foulkes estimate   =   -1572.29781498 Ry
     estimated scf accuracy    <     156.00356985 Ry

     iteration #  3     ecut=    40.00 Ry     beta=0.70
     Davidson diagonalization with overlap
     ethr =  7.81E-03,  avg # of iterations =  3.9

     negative rho (up, down):  0.407E-02 0.000E+00

     total cpu time spent up to now is      976.9 secs

     total energy              =   -1525.72625461 Ry
     Harris-Foulkes estimate   =   -1572.15787040 Ry
     estimated scf accuracy    <     780.85125556 Ry

     iteration #  4     ecut=    40.00 Ry     beta=0.70
     Davidson diagonalization with overlap
     ethr =  7.81E-03,  avg # of iterations =  3.7

     negative rho (up, down):  0.179E-02 0.000E+00

     total cpu time spent up to now is     1215.4 secs

     total energy              =   -1556.03457560 Ry
     Harris-Foulkes estimate   =   -1558.65811880 Ry
     estimated scf accuracy    <      15.35988157 Ry

     iteration #  5     ecut=    40.00 Ry     beta=0.70
     Davidson diagonalization with overlap
     ethr =  6.92E-03,  avg # of iterations =  2.1

     negative rho (up, down):  0.172E-02 0.000E+00

     total cpu time spent up to now is     1422.5 secs

     total energy              =   -1557.17477556 Ry
     Harris-Foulkes estimate   =   -1557.66434635 Ry
     estimated scf accuracy    <       2.40358092 Ry

     iteration #  6     ecut=    40.00 Ry     beta=0.70
     Davidson diagonalization with overlap
     ethr =  1.08E-03,  avg # of iterations =  3.8

     negative rho (up, down):  0.162E-02 0.000E+00

     total cpu time spent up to now is     1634.5 secs

     total energy              =   -1557.24452031 Ry
     Harris-Foulkes estimate   =   -1557.41211561 Ry
     estimated scf accuracy    <       1.08945322 Ry

     iteration #  7     ecut=    40.00 Ry     beta=0.70
     Davidson diagonalization with overlap
     ethr =  4.91E-04,  avg # of iterations =  1.4

     negative rho (up, down):  0.156E-02 0.000E+00

     total cpu time spent up to now is     1834.5 secs

     total energy              =   -1557.23889089 Ry
     Harris-Foulkes estimate   =   -1557.31457030 Ry
     estimated scf accuracy    <       0.40423463 Ry

     iteration #  8     ecut=    40.00 Ry     beta=0.70
     Davidson diagonalization with overlap
     ethr =  1.82E-04,  avg # of iterations =  6.2

     negative rho (up, down):  0.210E-02 0.000E+00

     total cpu time spent up to now is     2063.3 secs

     total energy              =   -1557.25892260 Ry
     Harris-Foulkes estimate   =   -1557.30084593 Ry
     estimated scf accuracy    <       0.30780967 Ry

     iteration #  9     ecut=    40.00 Ry     beta=0.70
     Davidson diagonalization with overlap
     ethr =  1.39E-04,  avg # of iterations =  2.5

     negative rho (up, down):  0.264E-02 0.000E+00

     total cpu time spent up to now is     2263.7 secs

     total energy              =   -1557.27091183 Ry
     Harris-Foulkes estimate   =   -1557.29712047 Ry
     estimated scf accuracy    <       0.20729732 Ry

     iteration # 10     ecut=    40.00 Ry     beta=0.70
     Davidson diagonalization with overlap
     ethr =  9.34E-05,  avg # of iterations =  3.4

     negative rho (up, down):  0.218E-02 0.000E+00

     total cpu time spent up to now is     2472.5 secs

     total energy              =   -1557.28692048 Ry
     Harris-Foulkes estimate   =   -1557.29648660 Ry
     estimated scf accuracy    <       0.10537308 Ry

     iteration # 11     ecut=    40.00 Ry     beta=0.70
     Davidson diagonalization with overlap
     ethr =  4.75E-05,  avg # of iterations =  5.7

     negative rho (up, down):  0.167E-02 0.000E+00

     total cpu time spent up to now is     2690.4 secs

     total energy              =   -1557.28788958 Ry
     Harris-Foulkes estimate   =   -1557.29187071 Ry
     estimated scf accuracy    <       0.06183380 Ry

     iteration # 12     ecut=    40.00 Ry     beta=0.70
     Davidson diagonalization with overlap
     ethr =  2.79E-05,  avg # of iterations =  3.3

     negative rho (up, down):  0.185E-02 0.000E+00

     total cpu time spent up to now is     2898.9 secs

     total energy              =   -1557.26634726 Ry
     Harris-Foulkes estimate   =   -1557.29181636 Ry
     estimated scf accuracy    <       0.05086002 Ry

     iteration # 13     ecut=    40.00 Ry     beta=0.70
     Davidson diagonalization with overlap
     ethr =  2.29E-05,  avg # of iterations =  7.2

     negative rho (up, down):  0.207E-02 0.000E+00

     total cpu time spent up to now is     3154.0 secs

     total energy              =   -1557.26158902 Ry
     Harris-Foulkes estimate   =   -1557.30427234 Ry
     estimated scf accuracy    <       0.17774849 Ry

     iteration # 14     ecut=    40.00 Ry     beta=0.70
     Davidson diagonalization with overlap
     ethr =  2.29E-05,  avg # of iterations =  5.9

     negative rho (up, down):  0.221E-02 0.000E+00

     total cpu time spent up to now is     3393.5 secs

     total energy              =   -1557.28363181 Ry
     Harris-Foulkes estimate   =   -1557.28643500 Ry
     estimated scf accuracy    <       0.01280140 Ry

     iteration # 15     ecut=    40.00 Ry     beta=0.70
     Davidson diagonalization with overlap
     ethr =  5.77E-06,  avg # of iterations =  3.1

     negative rho (up, down):  0.245E-02 0.000E+00

     total cpu time spent up to now is     3612.0 secs

     total energy              =   -1557.28446244 Ry
     Harris-Foulkes estimate   =   -1557.28544816 Ry
     estimated scf accuracy    <       0.00544940 Ry

     iteration # 16     ecut=    40.00 Ry     beta=0.70
     Davidson diagonalization with overlap
     ethr =  2.45E-06,  avg # of iterations =  4.1

     negative rho (up, down):  0.312E-02 0.000E+00

     total cpu time spent up to now is     3825.0 secs

     total energy              =   -1557.28496986 Ry
     Harris-Foulkes estimate   =   -1557.28543052 Ry
     estimated scf accuracy    <       0.00373897 Ry

     iteration # 17     ecut=    40.00 Ry     beta=0.70
     Davidson diagonalization with overlap
     ethr =  1.68E-06,  avg # of iterations =  2.9

     negative rho (up, down):  0.321E-02 0.000E+00

     total cpu time spent up to now is     4030.3 secs

     total energy              =   -1557.28516793 Ry
     Harris-Foulkes estimate   =   -1557.28530375 Ry
     estimated scf accuracy    <       0.00098233 Ry

     iteration # 18     ecut=    40.00 Ry     beta=0.70
     Davidson diagonalization with overlap
     ethr =  4.42E-07,  avg # of iterations =  1.5

     negative rho (up, down):  0.405E-02 0.000E+00

     total cpu time spent up to now is     4232.2 secs

     total energy              =   -1557.28516214 Ry
     Harris-Foulkes estimate   =   -1557.28530743 Ry
     estimated scf accuracy    <       0.00089438 Ry

     iteration # 19     ecut=    40.00 Ry     beta=0.70
     Davidson diagonalization with overlap
     ethr =  4.03E-07,  avg # of iterations =  3.7

     negative rho (up, down):  0.395E-02 0.000E+00

     total cpu time spent up to now is     4446.5 secs

     total energy              =   -1557.28520926 Ry
     Harris-Foulkes estimate   =   -1557.28543344 Ry
     estimated scf accuracy    <       0.00067047 Ry

     iteration # 20     ecut=    40.00 Ry     beta=0.70
     Davidson diagonalization with overlap
     ethr =  3.02E-07,  avg # of iterations =  1.5

     negative rho (up, down):  0.372E-02 0.000E+00

     total cpu time spent up to now is     4653.4 secs

     total energy              =   -1557.28533015 Ry
     Harris-Foulkes estimate   =   -1557.28536394 Ry
     estimated scf accuracy    <       0.00015829 Ry

     iteration # 21     ecut=    40.00 Ry     beta=0.70
     Davidson diagonalization with overlap
     ethr =  7.13E-08,  avg # of iterations =  1.0

     negative rho (up, down):  0.375E-02 0.000E+00

     total cpu time spent up to now is     4856.2 secs

     total energy              =   -1557.28536060 Ry
     Harris-Foulkes estimate   =   -1557.28536862 Ry
     estimated scf accuracy    <       0.00013221 Ry

     iteration # 22     ecut=    40.00 Ry     beta=0.70
     Davidson diagonalization with overlap
     ethr =  5.96E-08,  avg # of iterations =  1.0

     negative rho (up, down):  0.374E-02 0.000E+00

     total cpu time spent up to now is     5059.9 secs

     total energy              =   -1557.28537204 Ry
     Harris-Foulkes estimate   =   -1557.28537771 Ry
     estimated scf accuracy    <       0.00004020 Ry

     iteration # 23     ecut=    40.00 Ry     beta=0.70
     Davidson diagonalization with overlap
     ethr =  1.81E-08,  avg # of iterations =  2.0

     negative rho (up, down):  0.365E-02 0.000E+00

     total cpu time spent up to now is     5258.4 secs

     total energy              =   -1557.28537911 Ry
     Harris-Foulkes estimate   =   -1557.28538117 Ry
     estimated scf accuracy    <       0.00000783 Ry

     iteration # 24     ecut=    40.00 Ry     beta=0.70
     Davidson diagonalization with overlap
     ethr =  3.53E-09,  avg # of iterations =  1.5

     negative rho (up, down):  0.361E-02 0.000E+00

     total cpu time spent up to now is     5457.1 secs

     total energy              =   -1557.28538070 Ry
     Harris-Foulkes estimate   =   -1557.28538186 Ry
     estimated scf accuracy    <       0.00001047 Ry

     iteration # 25     ecut=    40.00 Ry     beta=0.70
     Davidson diagonalization with overlap
     ethr =  3.53E-09,  avg # of iterations =  1.0

     negative rho (up, down):  0.359E-02 0.000E+00

     total cpu time spent up to now is     5661.5 secs

     total energy              =   -1557.28538122 Ry
     Harris-Foulkes estimate   =   -1557.28538149 Ry
     estimated scf accuracy    <       0.00000248 Ry

     iteration # 26     ecut=    40.00 Ry     beta=0.70
     Davidson diagonalization with overlap
     ethr =  1.12E-09,  avg # of iterations =  1.2

     negative rho (up, down):  0.358E-02 0.000E+00

     total cpu time spent up to now is     5861.6 secs

     total energy              =   -1557.28538115 Ry
     Harris-Foulkes estimate   =   -1557.28538181 Ry
     estimated scf accuracy    <       0.00000330 Ry

     iteration # 27     ecut=    40.00 Ry     beta=0.70
     Davidson diagonalization with overlap
     ethr =  1.12E-09,  avg # of iterations =  1.2

     negative rho (up, down):  0.356E-02 0.000E+00

     total cpu time spent up to now is     6061.8 secs

     total energy              =   -1557.28538167 Ry
     Harris-Foulkes estimate   =   -1557.28538184 Ry
     estimated scf accuracy    <       0.00000146 Ry

     iteration # 28     ecut=    40.00 Ry     beta=0.70
     Davidson diagonalization with overlap
     ethr =  6.57E-10,  avg # of iterations =  1.0

     negative rho (up, down):  0.356E-02 0.000E+00

     total cpu time spent up to now is     6260.5 secs

     End of self-consistent calculation
 --- enter write_ns ---
 LDA+U parameters:
U( 2)     =  7.50000000
alpha( 2) =  0.00000000
atom    3   Tr[ns(na)] =   5.13651
    eigenvalues: 
  0.311  0.364  0.550  0.614  0.729
    eigenvectors:
  0.000  0.000  0.023  0.324  0.652
  0.000  0.000  0.960  0.038  0.002
  0.723  0.277  0.000  0.000  0.000
  0.000  0.000  0.017  0.638  0.345
  0.277  0.723  0.000  0.000  0.000
    occupations:
  0.687 -0.014  0.000 -0.055 -0.000
 -0.014  0.553 -0.000 -0.005  0.000
  0.000 -0.000  0.326 -0.000 -0.024
 -0.055 -0.005 -0.000  0.653  0.000
 -0.000  0.000 -0.024  0.000  0.349
atom    4   Tr[ns(na)] =   5.15126
    eigenvalues: 
  0.321  0.354  0.564  0.602  0.734
    eigenvectors:
  0.003  0.000  0.000  0.997  0.000
  0.996  0.000  0.000  0.003  0.001
  0.000  1.000  0.000  0.000  0.000
  0.001  0.000  0.000  0.000  0.999
  0.000  0.000  1.000  0.000  0.000
    occupations:
  0.601  0.015  0.000  0.002 -0.000
  0.015  0.322 -0.000 -0.011  0.000
  0.000 -0.000  0.354  0.000  0.001
  0.002 -0.011  0.000  0.734  0.000
 -0.000  0.000  0.001  0.000  0.564
atom    9   Tr[ns(na)] =   5.20150
    eigenvalues: 
  0.398  0.449  0.476  0.637  0.642
    eigenvectors:
  0.000  0.863  0.000  0.001  0.137
  0.000  0.000  0.000  0.995  0.005
  0.999  0.000  0.001  0.000  0.000
  0.000  0.137  0.000  0.004  0.859
  0.001  0.000  0.999  0.000  0.000
    occupations:
  0.475 -0.000  0.000  0.066 -0.000
 -0.000  0.637 -0.000 -0.000 -0.000
  0.000 -0.000  0.398  0.000  0.002
  0.066 -0.000  0.000  0.615 -0.000
 -0.000 -0.000  0.002 -0.000  0.476
atom   10   Tr[ns(na)] =   4.99460
    eigenvalues: 
  0.282  0.301  0.508  0.540  0.866
    eigenvectors:
  0.000  0.000  0.999  0.000  0.001
  0.000  1.000  0.000  0.000  0.000
  1.000  0.000  0.000  0.000  0.000
  0.000  0.000  0.001  0.000  0.999
  0.000  0.000  0.000  1.000  0.000
    occupations:
  0.508  0.000  0.000  0.012 -0.000
  0.000  0.301 -0.000  0.006  0.000
  0.000 -0.000  0.282 -0.000 -0.001
  0.012  0.006 -0.000  0.866  0.000
 -0.000  0.000 -0.001  0.000  0.540
atom   16   Tr[ns(na)] =   5.13645
    eigenvalues: 
  0.310  0.365  0.550  0.615  0.727
    eigenvectors:
  0.000  0.000  0.023  0.326  0.651
  0.000  0.000  0.960  0.038  0.002
  0.716  0.284  0.000  0.000  0.000
  0.000  0.000  0.017  0.637  0.347
  0.284  0.716  0.000  0.000  0.000
    occupations:
  0.686  0.014  0.000 -0.055  0.000
  0.014  0.553  0.000  0.005  0.000
  0.000  0.000  0.326 -0.000  0.025
 -0.055  0.005 -0.000  0.653 -0.000
  0.000  0.000  0.025 -0.000  0.350
atom   17   Tr[ns(na)] =   5.15354
    eigenvalues: 
  0.323  0.353  0.561  0.604  0.736
    eigenvectors:
  0.003  0.000  0.000  0.997  0.000
  0.996  0.000  0.000  0.003  0.001
  0.000  1.000  0.000  0.000  0.000
  0.001  0.000  0.000  0.000  0.999
  0.000  0.000  1.000  0.000  0.000
    occupations:
  0.604  0.015  0.000  0.001 -0.000
  0.015  0.324 -0.000 -0.012  0.000
  0.000 -0.000  0.353  0.000  0.001
  0.001 -0.012  0.000  0.735  0.000
 -0.000  0.000  0.001  0.000  0.561
atom   22   Tr[ns(na)] =   5.20240
    eigenvalues: 
  0.398  0.449  0.476  0.637  0.642
    eigenvectors:
  0.000  0.864  0.000  0.000  0.136
  0.000  0.000  0.000  0.996  0.004
  1.000  0.000  0.000  0.000  0.000
  0.000  0.136  0.000  0.003  0.861
  0.000  0.000  1.000  0.000  0.000
    occupations:
  0.475  0.000 -0.000  0.066 -0.000
  0.000  0.637 -0.000  0.000  0.000
 -0.000 -0.000  0.398  0.000 -0.002
  0.066  0.000  0.000  0.616  0.000
 -0.000  0.000 -0.002  0.000  0.476
atom   23   Tr[ns(na)] =   5.28883
    eigenvalues: 
  0.472  0.491  0.526  0.531  0.624
    eigenvectors:
  0.001  0.000  0.000  0.000  0.999
  0.000  0.000  1.000  0.000  0.000
  0.000  1.000  0.000  0.000  0.000
  0.999  0.000  0.000  0.000  0.001
  0.000  0.000  0.000  1.000  0.000
    occupations:
  0.624 -0.000 -0.000  0.005 -0.000
 -0.000  0.526 -0.000 -0.001  0.000
 -0.000 -0.000  0.491 -0.000  0.000
  0.005 -0.001 -0.000  0.473 -0.000
 -0.000  0.000  0.000 -0.000  0.531
N of occupied +U levels =  41.2650904
 --- exit write_ns ---

          k = 0.0000 0.0000 0.0000 ( 32167 PWs)   bands (ev):

   -57.1278 -57.0196 -56.4476 -56.3433 -56.2507 -56.1588 -55.9381 -55.7279
   -33.9301 -33.3603 -33.1685 -33.0995 -33.0824 -32.8907 -32.8807 -32.8378
   -32.7488 -32.6856 -32.6819 -32.6765 -32.6096 -32.4027 -32.3433 -32.3115
   -32.1602 -32.0802 -31.9673 -31.9141 -31.8851 -31.8208 -31.4644 -31.4487
   -20.9493 -20.6363 -20.0885 -20.0293 -19.6824 -19.6019 -19.4874 -19.2222
   -19.0791 -18.9683 -18.7326 -18.6594 -18.6136 -18.2916 -18.1836 -18.0991
   -18.0624 -18.0192 -17.2152  -9.7894  -8.8949  -8.5240  -8.2584  -7.9230
    -7.4528  -7.0850  -7.0425  -6.8196  -6.7181  -6.5647  -6.5172  -6.4082
    -6.2621  -6.0899  -5.9340  -5.7857  -5.6270  -5.6174  -5.5240  -5.4386
    -5.4064  -5.3989  -5.3128  -5.2364  -5.1681  -5.1610  -4.7125  -4.5659
    -4.5382  -4.3867  -4.3675  -4.1199  -3.9849  -3.9299  -3.8882  -3.8490
    -3.7670  -3.6908  -3.6841  -3.5433  -3.5120  -3.5101  -3.4392  -3.3835
    -3.3701  -3.1704  -3.1653  -3.0765  -3.0499  -3.0327  -2.9554  -2.9080
    -2.7559  -2.6872  -2.5626  -2.1546  -1.7955  -1.3606  -1.2459   0.9895
     1.0279   1.4588   1.6098   1.8062   1.8904   1.9537   2.1231   2.1941
     2.2314   2.2550   2.2812   2.4064   2.4805   2.5297   2.5835   2.7241
     2.8133   2.9146   2.9903   3.0621   3.6126   3.7789   3.8736   4.0917
     4.2560   4.4244   4.4577   4.5071   4.6502   5.0014   5.0064   5.1897
     5.4140   5.4251   5.5880   5.6302   5.8504   5.8792   5.9389   5.9717
     6.1090   6.1262   6.2974   6.3229   6.5546   6.6412   6.8341   7.0271
     7.0734   7.4047   7.4308   7.5386   7.7808   7.8077   7.9243   8.0977
     8.1980   8.2793   8.3399   8.5444   8.5693   8.5999   8.6461   8.7455
     8.8077   8.8908   8.9193   8.9397   9.0792   9.2509   9.3636   9.4751
     9.5020   9.5529   9.6514   9.7455   9.8225   9.8277   9.9110   9.9651
    10.0283  10.0715  10.3251  10.3329  10.5899  10.6935  10.8392  10.9421
    11.0282  11.1709  11.1938  11.2259  11.3106  11.3121  11.3265  11.3531
    11.3585  11.5025  11.6429  11.6603  11.7202  11.7660  11.7771  11.9070
    11.9741  11.9911  12.1651  12.2639  12.2826  12.3090  12.4149  12.4590
    12.4622  12.4983  12.6261  12.7039  12.8621  12.9118  12.9211  13.0336
    13.0417  13.1834  13.2616  13.3711  13.5696  13.6661  13.6721  13.7035
    13.8808  13.9252  14.0111  14.0476  14.0677  14.1024  14.1943  14.2694
    14.2849  14.3431  14.6257  14.7721  14.8271  14.8755  15.0623  15.1318
    15.1938  15.1995  15.3077  15.3190  15.3724  15.4522  15.5874  15.6519
    15.6955  15.7295  15.7943  15.8792  15.9722  16.1423  16.1583  16.1976
    16.3279  16.4548  16.4995  16.6731  16.7182  16.7230  16.8343  16.8585
    16.9312  16.9358  16.9975  17.1556  17.2165  17.2533  17.2889  17.3883
    17.4178  17.5151  17.5553  17.5749  17.8767  17.8836  18.1784  18.2107
    18.2238  18.2491  18.2633  18.2935  18.4280  18.4363  18.4795  18.5174
    18.6355  18.7741  18.7885  18.8206  18.8440  18.9962  19.0025  19.1606
    19.2053  19.2617  19.3414  19.4217  19.4976  19.5297  19.6152  19.6463
    19.6745  19.7197  19.8570  19.9283  20.0388  20.0605  20.1424  20.1919
    20.2365  20.2708  20.2815  20.2900  20.4195

          k = 0.0000 0.2118 0.0000 ( 32193 PWs)   bands (ev):

   -57.1204 -57.0204 -56.4376 -56.3450 -56.2456 -56.1548 -55.9343 -55.7255
   -33.9266 -33.3587 -33.1684 -33.0995 -33.0848 -32.8907 -32.8764 -32.8335
   -32.7812 -32.6836 -32.6808 -32.6358 -32.6094 -32.4018 -32.3420 -32.3025
   -32.1603 -32.0979 -31.9670 -31.9222 -31.8883 -31.8210 -31.4638 -31.4526
   -20.9415 -20.6311 -20.0856 -20.0128 -19.5712 -19.4641 -19.3657 -19.3172
   -19.2205 -19.1868 -19.0695 -18.3055 -18.2930 -18.2475 -18.1829 -18.1694
   -18.1447 -18.0991 -17.2134  -9.7843  -8.8863  -8.1206  -7.9770  -7.9138
    -7.4746  -7.1157  -7.0846  -7.0097  -6.9318  -6.8863  -6.6615  -6.4838
    -6.3740  -6.2007  -6.0786  -5.7368  -5.6618  -5.4044  -5.3886  -5.3559
    -5.2759  -5.2339  -5.1744  -5.0691  -4.9823  -4.9209  -4.7657  -4.5795
    -4.5339  -4.4990  -4.3937  -4.3790  -4.2252  -4.1230  -4.0720  -3.8286
    -3.7615  -3.6255  -3.5962  -3.5419  -3.5277  -3.4756  -3.4644  -3.4087
    -3.3628  -3.3434  -3.2709  -3.1954  -3.1383  -3.0833  -3.0411  -2.9050
    -2.7815  -2.7565  -2.6474  -2.2702  -1.3514  -1.1980  -0.7221   1.0266
     1.0754   1.3317   1.3792   1.5118   1.6490   2.0725   2.1752   2.2661
     2.2747   2.3066   2.5084   2.5402   2.6307   2.7186   2.7286   2.8221
     2.8927   2.9317   3.0307   3.1742   3.3902   3.8354   3.9625   4.0943
     4.3470   4.4158   4.4408   4.5851   4.5895   4.7021   4.7599   4.9899
     5.2870   5.2991   5.3427   5.5136   5.5562   5.6912   5.9575   6.2537
     6.2627   6.3064   6.4033   6.4426   6.6260   6.7388   6.7444   6.8507
     6.8731   7.0592   7.2213   7.5718   7.7550   7.8443   7.8813   7.9657
     8.2131   8.3833   8.5939   8.6671   8.7145   8.7490   8.7677   8.8933
     9.0044   9.0883   9.1080   9.2065   9.2871   9.3252   9.3944   9.4912
     9.6123   9.7458   9.7775   9.8083   9.8244   9.9649  10.0104  10.0755
    10.1220  10.1320  10.2941  10.4436  10.4822  10.5676  10.6495  10.7711
    10.7888  10.8107  10.8517  11.0084  11.0742  11.1285  11.1503  11.3127
    11.3340  11.4539  11.5636  11.6663  11.6771  11.9021  11.9204  11.9753
    12.1778  12.2963  12.3613  12.3981  12.4918  12.5748  12.6144  12.6866
    12.7185  12.7892  12.7957  12.8828  12.9293  13.0282  13.0449  13.1914
    13.2795  13.2917  13.4377  13.4448  13.5320  13.6182  13.6806  13.7104
    13.8275  13.8639  13.9024  13.9522  14.0907  14.1092  14.1441  14.2436
    14.3010  14.3763  14.3916  14.4463  14.5661  14.7380  14.7946  14.8035
    14.8976  15.0443  15.1684  15.1878  15.2567  15.2729  15.2886  15.3446
    15.4629  15.5450  15.6724  15.8016  16.0461  16.0746  16.1167  16.1678
    16.2814  16.3309  16.4735  16.4934  16.5007  16.5656  16.7295  16.7382
    16.7554  16.8289  16.9592  17.0982  17.1300  17.2390  17.3313  17.4952
    17.5349  17.6064  17.6758  17.7049  17.7837  17.8724  17.9440  17.9799
    17.9935  18.0796  18.1522  18.2399  18.2464  18.3184  18.3552  18.4075
    18.4562  18.6503  18.6864  18.7025  18.7507  18.8668  18.8937  18.9256
    18.9612  19.0345  19.0639  19.1818  19.2328  19.2635  19.3785  19.4539
    19.5940  19.6551  19.6945  19.7614  19.8341  19.8917  19.9601  20.0454
    20.1229  20.1289  20.1949  20.2069  20.2293

          k = 0.0000-0.4237 0.0000 ( 32162 PWs)   bands (ev):

   -57.1130 -57.0212 -56.4276 -56.3467 -56.2406 -56.1508 -55.9305 -55.7229
   -33.9230 -33.3571 -33.1684 -33.0995 -33.0872 -32.8907 -32.8721 -32.8289
   -32.8007 -32.6813 -32.6799 -32.6094 -32.6078 -32.4009 -32.3407 -32.2935
   -32.1604 -32.1158 -31.9667 -31.9304 -31.8914 -31.8213 -31.4633 -31.4564
   -20.9338 -20.6260 -20.0829 -19.9986 -19.5718 -19.5567 -19.3811 -19.2197
   -19.0892 -19.0488 -18.8610 -18.7445 -18.7277 -18.2758 -18.1570 -18.1012
   -17.9250 -17.9044 -17.2116  -9.7793  -8.8779  -7.9150  -7.7694  -7.5674
    -7.4320  -7.2677  -7.2278  -7.0844  -6.9958  -6.8467  -6.6971  -6.5267
    -6.3900  -6.2950  -6.0720  -5.8734  -5.8331  -5.7567  -5.6636  -5.3351
    -5.2755  -5.1478  -5.1321  -5.0896  -4.7709  -4.7333  -4.6623  -4.5161
    -4.4658  -4.4602  -4.4190  -4.2656  -4.2102  -4.1237  -4.0376  -4.0048
    -3.8858  -3.7393  -3.7228  -3.5466  -3.5451  -3.5271  -3.4859  -3.4829
    -3.4306  -3.3428  -3.2756  -3.1350  -3.1178  -3.0879  -3.0117  -2.8571
    -2.8455  -2.7875  -2.5829  -2.5157  -1.3414  -0.8205  -0.3553   0.8493
     1.0245   1.0831   1.4353   1.4604   1.6721   2.0078   2.1851   2.2648
     2.4594   2.5207   2.5408   2.6422   2.7682   2.7958   2.8835   2.9054
     2.9221   3.0991   3.1949   3.2565   3.2909   3.5478   3.6428   4.0500
     4.0624   4.5088   4.5220   4.5727   4.6699   4.8440   4.9528   5.1826
     5.2325   5.2790   5.2815   5.3140   5.4453   5.5509   5.6240   5.7835
     6.1236   6.2214   6.3034   6.4840   6.6640   6.8948   6.9306   6.9451
     7.0056   7.0175   7.2587   7.3168   7.3818   7.9488   7.9669   8.1788
     8.2501   8.2665   8.5997   8.6581   8.7521   8.8579   8.9038   8.9073
     8.9797   9.1468   9.2357   9.3634   9.4609   9.4724   9.5363   9.5529
     9.6286   9.6603   9.7577   9.8201   9.8881   9.9122   9.9338  10.3126
    10.3474  10.3514  10.4574  10.4682  10.6506  10.7185  10.8724  10.9100
    10.9775  11.0350  11.1090  11.1536  11.2764  11.3654  11.3897  11.4058
    11.4658  11.4789  11.5038  11.5086  11.6183  11.7131  11.7682  11.8302
    11.8536  11.9361  12.0893  12.1244  12.1575  12.1883  12.2972  12.3235
    12.5566  12.6750  12.7734  12.9335  12.9899  13.0129  13.0765  13.0920
    13.1273  13.2464  13.2899  13.5139  13.6015  13.7006  13.7220  13.8161
    13.8950  14.0054  14.0306  14.0337  14.1243  14.1475  14.1876  14.4369
    14.6112  14.6910  14.7987  14.8052  14.9015  14.9133  14.9346  14.9382
    14.9709  15.0309  15.1732  15.2583  15.2759  15.3786  15.4601  15.5775
    15.5978  15.6213  15.6736  15.7231  15.7612  15.9180  15.9579  16.0180
    16.1431  16.1530  16.1664  16.2347  16.2555  16.3699  16.5099  16.6306
    16.7155  16.7214  16.7252  16.7851  16.8692  16.8746  16.9278  17.1386
    17.1913  17.2407  17.3573  17.4342  17.5410  17.5510  17.5747  17.6284
    17.7140  17.7490  17.7516  17.9501  18.0745  18.0876  18.2288  18.3142
    18.3859  18.4009  18.4728  18.4973  18.5508  18.5677  18.5845  18.6094
    18.7169  18.8400  18.8639  19.1546  19.1552  19.2033  19.3717  19.4169
    19.4560  19.5747  19.5772  19.6337  19.6765  19.6991  19.7145  19.7413
    19.8340  20.2595  20.2794  20.3028  20.3090

          k = 0.2500 0.0000 0.0000 ( 32181 PWs)   bands (ev):

   -57.1083 -57.0319 -56.4035 -56.3322 -56.2121 -56.1458 -55.9031 -55.7315
   -33.7966 -33.3379 -33.1557 -33.1424 -33.0946 -33.0538 -32.8206 -32.7944
   -32.7578 -32.6750 -32.6692 -32.6142 -32.5746 -32.4042 -32.3177 -32.2407
   -32.2123 -32.1031 -32.0549 -31.9771 -31.9167 -31.9073 -31.5684 -31.4595
   -20.8900 -20.5987 -19.8777 -19.8184 -19.5119 -19.4742 -19.3540 -19.2617
   -19.1066 -18.8328 -18.7883 -18.7579 -18.6309 -18.5487 -18.3358 -18.1902
   -18.1785 -18.1246 -17.2101  -9.5850  -8.9401  -8.1378  -7.9831  -7.7885
    -7.5248  -6.9104  -6.7868  -6.7400  -6.6585  -6.5210  -6.4325  -6.3544
    -6.2547  -6.1910  -5.9647  -5.9355  -5.8511  -5.7905  -5.7413  -5.6965
    -5.5115  -5.2016  -5.0124  -5.0078  -4.9213  -4.8224  -4.7535  -4.6360
    -4.4697  -4.4213  -4.2720  -4.2236  -4.1577  -4.1260  -4.0146  -3.9615
    -3.8998  -3.8612  -3.6990  -3.6865  -3.6479  -3.6068  -3.5683  -3.5394
    -3.3958  -3.3079  -3.2352  -3.1529  -3.1357  -3.1006  -2.9824  -2.9095
    -2.7745  -2.7546  -2.6108  -2.2393  -1.1787  -0.9838  -0.7497   1.0735
     1.2676   1.2743   1.2750   1.6013   1.6804   1.7815   1.8400   1.8534
     2.0019   2.1598   2.2162   2.3007   2.4049   2.5254   2.6306   2.6631
     2.7094   2.7509   3.0271   3.1800   3.4892   3.9662   4.0615   4.0980
     4.1589   4.6193   4.6624   4.7002   4.8961   5.0390   5.1637   5.2810
     5.2867   5.4584   5.5997   5.6195   5.6673   5.7136   5.7832   5.9339
     5.9402   6.1693   6.2134   6.3116   6.4600   6.5662   6.8602   6.9877
     7.2080   7.2654   7.3313   7.3919   7.6534   7.7835   7.8021   7.8534
     7.8687   8.0249   8.0282   8.2079   8.4838   8.5411   8.5548   8.7133
     8.7431   9.0044   9.1511   9.1794   9.2103   9.2854   9.3508   9.4405
     9.4644   9.5023   9.6904   9.8510   9.8936   9.9112   9.9415  10.0466
    10.1157  10.1409  10.2772  10.4932  10.5789  10.6362  10.6382  10.8563
    10.9275  10.9689  11.0362  11.0606  11.0978  11.2317  11.3585  11.5113
    11.5449  11.6146  11.7716  11.7738  11.8455  11.8635  11.9153  11.9820
    12.2405  12.3761  12.4507  12.5254  12.5879  12.5911  12.6481  12.6509
    12.7583  12.9540  13.0943  13.1725  13.2888  13.3204  13.3443  13.4659
    13.4843  13.6814  13.7261  13.7898  13.8229  13.8634  14.0381  14.1282
    14.1290  14.2333  14.2678  14.2829  14.3962  14.4201  14.5806  14.6584
    14.7129  14.7763  14.8165  14.9271  14.9608  15.0043  15.1093  15.2601
    15.3415  15.3588  15.3993  15.4411  15.5579  15.6099  15.6814  15.7860
    15.8068  15.8693  15.9704  16.0059  16.0211  16.1805  16.2739  16.3740
    16.4333  16.4723  16.6106  16.6189  16.6950  16.7516  16.7949  16.8422
    16.9168  16.9356  17.0069  17.0615  17.1385  17.1997  17.2257  17.2856
    17.3805  17.4540  17.5057  17.5637  17.6090  17.7544  17.7758  17.8278
    17.8750  17.9083  18.0197  18.0998  18.1190  18.1973  18.2489  18.3051
    18.3910  18.4919  18.5875  18.5938  18.7047  18.7176  18.8320  18.8592
    18.8852  18.9320  18.9384  19.0448  19.0700  19.0968  19.2311  19.2944
    19.3282  19.3772  19.3888  19.4470  19.5189  19.5462  19.6552  19.7170
    19.7354  19.8412  19.8546  19.8977  19.9235

          k = 0.2500 0.2118 0.0000 ( 32165 PWs)   bands (ev):

   -57.1023 -57.0317 -56.3958 -56.3321 -56.2066 -56.1416 -55.8994 -55.7285
   -33.7935 -33.3366 -33.1556 -33.1421 -33.0961 -33.0531 -32.8170 -32.7904
   -32.7696 -32.6729 -32.6677 -32.6137 -32.5563 -32.4029 -32.3165 -32.2359
   -32.2105 -32.1027 -32.0701 -31.9763 -31.9222 -31.9148 -31.5665 -31.4647
   -20.8840 -20.5938 -19.8743 -19.8078 -19.4416 -19.3174 -19.2724 -19.2576
   -19.2183 -19.1321 -19.0815 -18.5441 -18.3898 -18.3327 -18.3199 -18.2940
   -18.2482 -18.1659 -17.2079  -9.5801  -8.9333  -7.8009  -7.7855  -7.7053
    -7.4892  -7.0717  -6.9402  -6.8364  -6.7378  -6.6739  -6.6058  -6.4109
    -6.3454  -6.3317  -5.9592  -5.9252  -5.8977  -5.8348  -5.5208  -5.3504
    -5.2954  -5.1830  -5.0539  -4.9116  -4.8026  -4.6634  -4.6089  -4.5349
    -4.5139  -4.4894  -4.3913  -4.3522  -4.3264  -4.2189  -4.1709  -4.1333
    -4.0238  -3.9165  -3.8571  -3.7922  -3.7580  -3.6713  -3.5421  -3.5234
    -3.4367  -3.3543  -3.2781  -3.2352  -3.1246  -3.0901  -2.9465  -2.8297
    -2.7806  -2.7231  -2.6377  -2.3035  -0.9975  -0.6743  -0.3198   1.0646
     1.2259   1.2934   1.3521   1.4391   1.5540   1.6750   1.8426   1.9738
     2.1026   2.1862   2.2193   2.4520   2.5052   2.6051   2.7390   2.8073
     2.8528   2.8989   3.0984   3.1724   3.3221   3.7730   4.1123   4.2019
     4.3227   4.4506   4.5435   4.6321   4.7839   4.8387   4.9407   5.1287
     5.2001   5.2998   5.4020   5.4948   5.5981   5.7185   5.8180   5.9765
     6.0798   6.1772   6.4437   6.5279   6.5567   6.5791   6.7703   6.8456
     6.8683   7.0150   7.1882   7.3017   7.4216   7.4705   7.8415   7.9445
     8.0365   8.0668   8.1798   8.2391   8.3281   8.4791   8.6683   8.7160
     8.8160   8.9323   9.0936   9.1510   9.1907   9.2623   9.3641   9.5009
     9.5755   9.6436   9.7706   9.8493   9.9589  10.0346  10.0735  10.1957
    10.2898  10.3737  10.6034  10.7754  10.7925  10.9246  11.0029  11.0357
    11.1214  11.1528  11.2314  11.2869  11.4229  11.4533  11.5156  11.5647
    11.6488  11.7391  11.9203  11.9557  12.0117  12.1133  12.2008  12.2333
    12.3005  12.3910  12.4339  12.5111  12.6419  12.7097  12.7335  12.7795
    12.7908  12.8782  12.9730  13.0102  13.0727  13.1349  13.2275  13.3191
    13.3635  13.4351  13.5436  13.6297  13.7085  13.7631  13.8098  13.8750
    13.9297  13.9656  14.0185  14.1143  14.1900  14.2788  14.4072  14.4335
    14.5339  14.6049  14.6871  14.8191  14.8829  14.9233  15.0430  15.1049
    15.2071  15.2675  15.3082  15.3463  15.3883  15.4536  15.5346  15.5901
    15.7026  15.7199  15.8297  15.8989  15.9217  16.0141  16.0520  16.1348
    16.2037  16.2817  16.3754  16.4024  16.4467  16.4941  16.5948  16.6855
    16.7151  16.7797  16.8686  16.9562  17.0443  17.1105  17.1410  17.2167
    17.2840  17.3444  17.3808  17.4347  17.4913  17.5877  17.6445  17.7304
    17.7777  17.8503  17.9362  17.9882  18.0722  18.1276  18.1864  18.3900
    18.4077  18.4475  18.4792  18.5373  18.6166  18.6794  18.7289  18.7977
    18.8783  18.9355  19.0104  19.0955  19.1639  19.1937  19.2456  19.3418
    19.3668  19.4189  19.4977  19.5502  19.6222  19.6550  19.6741  19.7287
    19.7675  19.8864  19.9241  20.0188  20.0616

          k = 0.2500-0.4237 0.0000 ( 32188 PWs)   bands (ev):

   -57.0964 -57.0315 -56.3881 -56.3321 -56.2011 -56.1374 -55.8957 -55.7255
   -33.7904 -33.3353 -33.1555 -33.1419 -33.0976 -33.0523 -32.8132 -32.7858
   -32.7801 -32.6711 -32.6662 -32.6133 -32.5395 -32.4017 -32.3153 -32.2318
   -32.2081 -32.1038 -32.0834 -31.9760 -31.9279 -31.9222 -31.5645 -31.4699
   -20.8780 -20.5889 -19.8709 -19.7987 -19.4476 -19.4233 -19.2896 -19.2584
   -19.1133 -18.8617 -18.8590 -18.8203 -18.7156 -18.5349 -18.3207 -18.1757
   -18.0734 -18.0377 -17.2058  -9.5752  -8.9264  -7.7770  -7.6101  -7.4182
    -7.2067  -7.1692  -7.0761  -6.7959  -6.7010  -6.6688  -6.5651  -6.4849
    -6.4437  -6.4035  -6.3812  -6.2148  -5.9484  -5.9242  -5.4486  -5.2233
    -5.0801  -4.9922  -4.9261  -4.8576  -4.8031  -4.6812  -4.6677  -4.6232
    -4.5728  -4.5054  -4.4059  -4.3429  -4.3332  -4.3080  -4.2276  -4.1431
    -4.0513  -3.9958  -3.9646  -3.9454  -3.8321  -3.7636  -3.6678  -3.4704
    -3.4384  -3.3609  -3.3025  -3.2356  -3.1946  -3.0251  -2.9389  -2.7338
    -2.7240  -2.6955  -2.5029  -2.5018  -0.9928  -0.3475  -0.0321   0.9205
     1.2018   1.2672   1.3717   1.3842   1.5632   1.5952   2.0322   2.0387
     2.1606   2.3144   2.4335   2.5409   2.6125   2.7188   2.8496   2.8961
     3.0268   3.0279   3.1309   3.2174   3.3134   3.5335   3.8888   3.9208
     3.9420   4.2117   4.5734   4.6625   4.8255   4.8323   4.8933   5.0473
     5.1475   5.3025   5.4671   5.4946   5.6893   5.6962   5.8399   5.8505
     5.9124   6.0533   6.1859   6.4811   6.4868   6.5513   6.7507   7.0353
     7.0971   7.1465   7.1999   7.2580   7.4276   7.4857   7.5816   7.7148
     7.8156   7.9796   8.2410   8.2918   8.4024   8.4387   8.4757   8.5164
     8.6033   8.8910   8.9360   8.9387   9.0459   9.3113   9.3219   9.6276
     9.8079   9.9190  10.0817  10.1677  10.2533  10.2927  10.4544  10.4826
    10.7313  10.8429  10.9181  10.9833  11.1017  11.2370  11.2854  11.3258
    11.3515  11.3995  11.4521  11.4748  11.5942  11.6287  11.6904  11.7754
    11.8520  11.8533  11.9097  11.9686  12.0210  12.0234  12.1818  12.1876
    12.2445  12.3156  12.4045  12.4778  12.5614  12.5953  12.6994  12.7692
    12.8349  12.9314  12.9468  12.9695  13.0750  13.0775  13.2043  13.2852
    13.3128  13.3747  13.4253  13.5111  13.5171  13.6508  13.6600  13.6721
    13.7768  13.7978  13.8231  13.9170  13.9671  14.0412  14.0523  14.2564
    14.2950  14.3368  14.3990  14.4923  14.5525  14.7009  14.7522  14.8579
    14.9033  15.1066  15.1258  15.1879  15.2016  15.2681  15.3377  15.4095
    15.4608  15.5402  15.6673  15.7023  15.7487  15.9212  16.0292  16.1035
    16.1675  16.3052  16.3502  16.4246  16.4673  16.5307  16.6957  16.7239
    16.7898  16.8606  16.8700  16.9408  17.0760  17.1109  17.1709  17.2072
    17.2514  17.2649  17.4341  17.4704  17.5989  17.6130  17.6200  17.7184
    17.7313  17.8867  17.9090  17.9640  17.9653  18.0929  18.1182  18.1854
    18.3511  18.3878  18.4609  18.4797  18.4967  18.5278  18.6870  18.7098
    18.7429  18.8178  18.8691  18.8961  18.9635  19.0800  19.1210  19.2232
    19.2864  19.3042  19.3208  19.4211  19.4579  19.4964  19.5596  19.6620
    19.7008  19.7589  19.7866  19.8907  19.9232

          k =-0.5000 0.0000 0.0000 ( 32166 PWs)   bands (ev):

   -57.0726 -57.0604 -56.3433 -56.3367 -56.1633 -56.1436 -55.8665 -55.7366
   -33.4668 -33.4621 -33.2286 -33.2219 -33.1284 -33.1213 -32.7874 -32.7827
   -32.7140 -32.6485 -32.6245 -32.5269 -32.4580 -32.4036 -32.3128 -32.2950
   -32.2563 -32.2260 -32.1287 -31.9962 -31.9817 -31.9002 -31.7008 -31.4707
   -20.8336 -20.5599 -19.6112 -19.5786 -19.2363 -19.1726 -19.1460 -19.1220
   -19.1203 -19.0688 -19.0410 -18.8639 -18.8360 -18.5133 -18.5043 -18.4195
   -18.3375 -18.1944 -17.2049  -9.3501  -9.0099  -7.6666  -7.6516  -7.4716
    -7.2032  -7.1776  -6.9579  -6.9128  -6.7003  -6.5803  -6.3280  -6.2897
    -6.2449  -6.0793  -6.0511  -5.7933  -5.6687  -5.6087  -5.4579  -5.2471
    -5.2429  -5.2230  -5.1759  -5.1538  -5.1025  -5.0086  -4.9152  -4.7666
    -4.7407  -4.7374  -4.4381  -4.3568  -4.3159  -4.2950  -4.2876  -4.1259
    -4.0640  -3.9313  -3.7012  -3.6886  -3.6554  -3.6497  -3.5743  -3.5183
    -3.4647  -3.2599  -3.2160  -3.1735  -3.1088  -3.0336  -3.0150  -2.8240
    -2.8229  -2.6639  -2.6305  -2.3860  -0.5572  -0.1022  -0.0106   0.0946
     0.4627   1.0308   1.1550   1.1871   1.5516   1.5743   1.6023   2.0349
     2.0731   2.2190   2.2475   2.2792   2.2893   2.3488   2.4273   2.6685
     2.8250   3.0785   3.2190   3.3160   3.3247   3.5832   3.6397   4.5830
     4.6344   4.7327   4.8351   5.0819   5.0920   5.1401   5.1624   5.2416
     5.2808   5.3138   5.5109   5.5489   5.5576   5.5868   5.6850   5.7059
     5.7881   6.1182   6.2314   6.3492   6.4133   6.4954   6.8320   6.8476
     6.8596   6.9574   7.2771   7.3299   7.3727   7.4943   8.0296   8.0322
     8.0387   8.0943   8.1000   8.2939   8.5303   8.6018   8.6110   8.6604
     8.6833   8.7526   8.8408   8.8756   8.9082   9.0303   9.1933   9.2752
     9.4358   9.5316   9.6973   9.7671   9.8661   9.8896   9.9728  10.0548
    10.1099  10.1371  10.3587  10.3993  10.4985  10.5273  10.6883  10.7526
    10.9156  11.0776  11.1327  11.2471  11.2885  11.3875  11.3897  11.4571
    11.5927  11.7815  11.9505  12.2134  12.2628  12.3871  12.4304  12.5260
    12.5525  12.7020  12.7333  12.7798  12.8061  12.8256  13.0916  13.1339
    13.1360  13.2235  13.2496  13.3486  13.4852  13.6339  13.7891  13.8211
    13.8309  13.9478  13.9640  14.1021  14.1432  14.2184  14.2897  14.3521
    14.3928  14.4712  14.4884  14.4996  14.5421  14.6896  14.7434  14.8253
    14.8569  14.9629  14.9637  14.9915  15.2375  15.3197  15.4291  15.5110
    15.6584  15.6682  15.6837  15.7834  15.7841  15.8268  15.9135  15.9290
    16.0071  16.1095  16.2106  16.2322  16.2371  16.2479  16.3126  16.4054
    16.4478  16.5896  16.6699  16.7725  16.8031  16.8571  16.8933  16.9196
    16.9941  17.0287  17.1298  17.1326  17.1386  17.1574  17.1738  17.2172
    17.2864  17.3222  17.3258  17.3495  17.5227  17.5256  17.5491  17.6165
    17.6477  17.7689  17.7824  17.8062  17.8394  17.8528  17.8984  17.9224
    17.9288  17.9367  18.0022  18.1443  18.2121  18.2293  18.2388  18.3716
    18.3880  18.3948  18.4754  18.6441  18.6789  18.7235  18.7268  18.8252
    18.9186  18.9401  18.9684  18.9838  19.0541  19.1241  19.1472  19.2090
    19.2263  19.3928  19.4104  19.4506  19.4890

          k =-0.5000 0.2118 0.0000 ( 32144 PWs)   bands (ev):

   -57.0678 -57.0594 -56.3398 -56.3332 -56.1579 -56.1385 -55.8631 -55.7330
   -33.4634 -33.4616 -33.2272 -33.2215 -33.1285 -33.1216 -32.7869 -32.7821
   -32.7124 -32.6475 -32.6237 -32.5233 -32.4549 -32.4021 -32.3084 -32.2907
   -32.2559 -32.2256 -32.1259 -32.0069 -31.9923 -31.9070 -31.6962 -31.4773
   -20.8290 -20.5552 -19.6059 -19.5756 -19.2107 -19.1744 -19.1485 -19.1370
   -19.1232 -19.0761 -19.0314 -18.8507 -18.8351 -18.4797 -18.4732 -18.3989
   -18.3574 -18.1846 -17.2024  -9.3450  -9.0038  -7.6292  -7.6245  -7.2855
    -7.1277  -7.1010  -6.9793  -6.9153  -6.7266  -6.6324  -6.4888  -6.2531
    -6.1033  -6.0634  -6.0455  -5.7391  -5.6871  -5.5999  -5.4606  -5.3418
    -5.3009  -5.2766  -5.2344  -5.1953  -5.1581  -5.1408  -4.9830  -4.7557
    -4.6699  -4.6132  -4.5207  -4.3882  -4.3095  -4.2590  -4.1890  -4.1396
    -4.1015  -4.0106  -3.9240  -3.8728  -3.7429  -3.7031  -3.6308  -3.5168
    -3.4660  -3.3500  -3.3108  -3.2472  -3.0674  -3.0247  -2.9902  -2.7789
    -2.6816  -2.6409  -2.6069  -2.4074  -0.4905   0.2055   0.3179   0.3457
     0.4529   1.0013   1.2469   1.4815   1.5088   1.5456   1.6754   1.9711
     1.9749   2.0508   2.0768   2.1199   2.5314   2.5544   2.7167   2.7340
     2.9778   3.0526   3.1663   3.4221   3.4289   3.4874   3.5315   4.4371
     4.5617   4.5705   4.6837   4.7606   4.7651   5.0172   5.0219   5.2511
     5.3084   5.3661   5.4156   5.4818   5.5513   5.7916   5.8716   5.8751
     5.9388   6.0548   6.0699   6.3042   6.4503   6.5920   6.5991   6.7387
     6.8161   6.8488   7.2233   7.3531   7.3779   7.5122   7.5238   7.5763
     7.7007   7.7475   7.9695   7.9894   8.1021   8.2109   8.5763   8.7194
     8.8270   8.8630   8.9668   9.0365   9.0541   9.1787   9.6212   9.6938
     9.7414   9.8738   9.8935  10.0348  10.1368  10.1845  10.2328  10.2838
    10.3480  10.4133  10.5340  10.6289  10.6543  10.7091  10.9093  10.9262
    11.2459  11.3326  11.3741  11.4899  11.5107  11.5831  11.6334  11.7676
    11.8423  11.8760  12.1222  12.1882  12.2785  12.4207  12.5693  12.6036
    12.6482  12.7873  12.8492  12.8520  12.9070  12.9714  13.1997  13.2652
    13.3169  13.3614  13.4169  13.4903  13.5443  13.5913  13.6544  13.7397
    13.7832  13.8086  13.8957  13.9438  13.9642  13.9903  14.1757  14.1832
    14.1931  14.3330  14.3473  14.4495  14.4591  14.5416  14.5518  14.6777
    14.7014  14.7468  14.8242  14.8785  14.9398  14.9772  15.0335  15.0666
    15.1077  15.1238  15.2413  15.2571  15.2900  15.4238  15.5091  15.5848
    15.6479  15.6684  15.7995  15.8098  15.8457  15.9277  15.9511  15.9681
    16.0246  16.0890  16.1204  16.2368  16.2974  16.3364  16.3676  16.4203
    16.4408  16.6390  16.6774  16.8047  16.8649  16.8773  16.9560  17.0104
    17.1214  17.1383  17.1712  17.3501  17.3541  17.3745  17.5192  17.5579
    17.6149  17.6791  17.7254  17.7574  17.8025  17.8689  17.9674  18.0232
    18.0513  18.1327  18.1759  18.3195  18.4243  18.4991  18.5285  18.6828
    18.7213  18.8204  18.8366  18.8672  18.8976  19.0094  19.0358  19.1485
    19.1607  19.2112  19.2359  19.3702  19.4093  19.4566  19.5356  19.6614
    19.7194  19.7815  19.8205  19.9351  19.9877

          k =-0.5000-0.4237 0.0000 ( 32256 PWs)   bands (ev):

   -57.0642 -57.0573 -56.3363 -56.3298 -56.1525 -56.1333 -55.8597 -55.7294
   -33.4623 -33.4589 -33.2259 -33.2210 -33.1291 -33.1216 -32.7864 -32.7816
   -32.7108 -32.6464 -32.6229 -32.5198 -32.4520 -32.4007 -32.3036 -32.2859
   -32.2555 -32.2252 -32.1231 -32.0182 -32.0033 -31.9136 -31.6918 -31.4841
   -20.8243 -20.5506 -19.6008 -19.5726 -19.1770 -19.1734 -19.1691 -19.1518
   -19.1219 -19.0824 -19.0177 -18.8360 -18.8340 -18.4465 -18.4419 -18.3823
   -18.3770 -18.1746 -17.1999  -9.3399  -8.9977  -7.6028  -7.5976  -7.0207
    -6.9946  -6.9790  -6.9575  -6.9306  -6.8100  -6.6671  -6.6413  -6.2488
    -6.0976  -6.0716  -5.9972  -5.7216  -5.7092  -5.6238  -5.4720  -5.4603
    -5.4187  -5.4056  -5.3768  -5.2449  -5.1842  -5.1182  -4.7787  -4.6791
    -4.6310  -4.5342  -4.5035  -4.3533  -4.3394  -4.2825  -4.2191  -4.2176
    -4.1860  -4.0755  -4.0346  -4.0274  -3.9452  -3.9379  -3.6236  -3.5213
    -3.4212  -3.3817  -3.3314  -3.2069  -3.2026  -2.9818  -2.8724  -2.7127
    -2.6327  -2.5496  -2.5370  -2.4870  -0.4693   0.3846   0.4220   0.5393
     0.6043   0.9857   1.4066   1.4458   1.4664   1.8240   1.9383   1.9429
     1.9682   1.9800   2.0143   2.2883   2.7002   2.7187   2.7960   2.9237
     2.9402   3.0917   3.2756   3.3214   3.3643   3.5736   3.5817   3.9054
     4.0483   4.0826   4.2654   4.5893   4.6164   5.0616   5.1562   5.1584
     5.1751   5.5762   5.5888   5.6515   5.6835   5.8827   5.9178   5.9504
     6.0710   6.2986   6.3258   6.3469   6.4029   6.4596   6.4766   6.5452
     6.5835   6.7469   6.7904   6.9180   7.0810   7.2101   7.2344   7.3716
     7.7449   8.0134   8.0361   8.1534   8.1626   8.2630   8.3516   8.3735
     8.8531   8.9882   9.1411   9.1957   9.2957   9.3446   9.3911   9.3994
     9.4494   9.5750   9.7123   9.7553  10.5575  10.7324  10.7723  10.8323
    10.8355  10.8855  10.8974  10.9661  11.1229  11.2725  11.5285  11.6453
    11.6906  11.7086  11.7751  11.8953  11.9381  11.9500  12.0816  12.0987
    12.2168  12.2350  12.3602  12.4345  12.4973  12.5606  12.5661  12.5950
    12.6312  12.6561  12.6922  12.8324  12.8607  12.9082  13.0375  13.0519
    13.0843  13.1145  13.2349  13.2726  13.3591  13.4208  13.4494  13.4548
    13.4994  13.5132  13.5528  13.6128  13.8137  13.8704  13.8947  14.0168
    14.0980  14.1009  14.1337  14.1377  14.2584  14.2763  14.2821  14.3519
    14.3735  14.6127  14.6534  14.6892  14.6960  14.7199  14.7603  14.7608
    14.7686  14.8594  14.9507  15.0804  15.0833  15.1273  15.2069  15.2371
    15.4369  15.4378  15.4451  15.4861  15.5594  15.6254  15.7078  15.7759
    15.8408  15.8625  15.8890  15.9259  16.0325  16.0416  16.0741  16.0837
    16.3406  16.3809  16.6253  16.6591  16.7400  16.7758  16.8714  16.9575
    17.0270  17.0580  17.2032  17.3009  17.3215  17.4204  17.5195  17.5648
    17.5712  17.5718  17.6242  17.6614  17.7472  17.8042  17.8408  18.0392
    18.0516  18.2097  18.3365  18.3635  18.3966  18.5288  18.6425  18.6671
    18.6769  18.9390  18.9718  18.9848  19.0028  19.1194  19.2587  19.5247
    19.5718  19.5761  19.6227  19.6300  19.6550  19.6918  19.7895  19.9506
    19.9572  19.9822  20.2271  20.2544  20.3446

          k =-0.2500 0.2118 0.0000 ( 32165 PWs)   bands (ev):

   -57.1023 -57.0317 -56.3958 -56.3321 -56.2066 -56.1416 -55.8994 -55.7285
   -33.7935 -33.3366 -33.1556 -33.1421 -33.0961 -33.0531 -32.8170 -32.7904
   -32.7695 -32.6729 -32.6677 -32.6137 -32.5563 -32.4029 -32.3165 -32.2359
   -32.2105 -32.1027 -32.0701 -31.9763 -31.9222 -31.9148 -31.5665 -31.4647
   -20.8840 -20.5938 -19.8743 -19.8078 -19.4416 -19.3175 -19.2724 -19.2576
   -19.2183 -19.1321 -19.0815 -18.5441 -18.3898 -18.3327 -18.3199 -18.2940
   -18.2483 -18.1660 -17.2079  -9.5801  -8.9333  -7.8009  -7.7855  -7.7053
    -7.4892  -7.0716  -6.9401  -6.8365  -6.7378  -6.6740  -6.6057  -6.4109
    -6.3454  -6.3317  -5.9592  -5.9253  -5.8977  -5.8348  -5.5208  -5.3502
    -5.2953  -5.1830  -5.0537  -4.9115  -4.8032  -4.6634  -4.6088  -4.5354
    -4.5131  -4.4895  -4.3914  -4.3523  -4.3263  -4.2194  -4.1710  -4.1333
    -4.0237  -3.9164  -3.8574  -3.7913  -3.7585  -3.6709  -3.5426  -3.5230
    -3.4368  -3.3548  -3.2778  -3.2351  -3.1245  -3.0902  -2.9465  -2.8297
    -2.7799  -2.7232  -2.6379  -2.3040  -0.9975  -0.6743  -0.3198   1.0646
     1.2258   1.2931   1.3516   1.4406   1.5533   1.6751   1.8426   1.9739
     2.1026   2.1862   2.2194   2.4520   2.5053   2.6053   2.7390   2.8073
     2.8526   2.8989   3.0984   3.1724   3.3221   3.7730   4.1124   4.2020
     4.3227   4.4506   4.5435   4.6321   4.7838   4.8388   4.9407   5.1287
     5.2001   5.2999   5.4018   5.4948   5.5981   5.7186   5.8180   5.9766
     6.0797   6.1770   6.4436   6.5280   6.5567   6.5790   6.7701   6.8455
     6.8684   7.0148   7.1881   7.3021   7.4219   7.4699   7.8417   7.9446
     8.0365   8.0666   8.1800   8.2402   8.3282   8.4791   8.6682   8.7156
     8.8160   8.9321   9.0933   9.1516   9.1903   9.2623   9.3658   9.5010
     9.5740   9.6433   9.7706   9.8492   9.9588  10.0332  10.0743  10.1958
    10.2907  10.3734  10.6030  10.7754  10.7922  10.9247  11.0033  11.0350
    11.1214  11.1529  11.2312  11.2871  11.4230  11.4528  11.5156  11.5649
    11.6490  11.7394  11.9205  11.9557  12.0117  12.1134  12.2010  12.2330
    12.3007  12.3915  12.4339  12.5115  12.6418  12.7101  12.7340  12.7796
    12.7911  12.8782  12.9731  13.0102  13.0722  13.1339  13.2276  13.3194
    13.3635  13.4347  13.5433  13.6296  13.7082  13.7636  13.8101  13.8752
    13.9298  13.9663  14.0176  14.1140  14.1899  14.2791  14.4066  14.4338
    14.5351  14.6037  14.6872  14.8191  14.8829  14.9236  15.0427  15.1049
    15.2072  15.2674  15.3096  15.3451  15.3885  15.4529  15.5344  15.5896
    15.7034  15.7198  15.8292  15.8996  15.9209  16.0141  16.0517  16.1353
    16.2036  16.2814  16.3756  16.3996  16.4466  16.4943  16.5949  16.6853
    16.7151  16.7803  16.8695  16.9540  17.0438  17.1092  17.1424  17.2174
    17.2848  17.3430  17.3820  17.4346  17.4890  17.5891  17.6489  17.7304
    17.7771  17.8486  17.9362  17.9884  18.0715  18.1278  18.1866  18.3896
    18.4063  18.4478  18.4815  18.5387  18.6155  18.6796  18.7295  18.7972
    18.8773  18.9363  19.0102  19.0958  19.1656  19.1936  19.2450  19.3422
    19.3666  19.4192  19.4972  19.5509  19.6211  19.6558  19.6735  19.7288
    19.7680  19.8856  19.9248  20.0187  20.0614

     the Fermi energy is     0.3519 ev

!    total energy              =   -1557.28538144 Ry
     Harris-Foulkes estimate   =   -1557.28538186 Ry
     estimated scf accuracy    <       0.00000067 Ry

     The total energy is the sum of the following terms:

     one-electron contribution =  -18847.10594475 Ry
     hartree contribution      =    9450.02528940 Ry
     xc contribution           =    -287.01980158 Ry
     ewald contribution        =    8121.76342360 Ry
     Hubbard energy            =       5.05216552 Ry
     smearing contrib. (-TS)   =      -0.00051365 Ry

     convergence has been achieved in  28 iterations

     Forces acting on atoms (Ry/au):


     negative rho (up, down):  0.356E-02 0.000E+00
     atom    1 type  1   force =     0.00508209   -0.00007348   -0.01673495
     atom    2 type  1   force =    -0.00041046    0.00025270   -0.01932306
     atom    3 type  2   force =    -0.05674366   -0.00010160    0.01156711
     atom    4 type  2   force =    -0.00118832    0.00004209    0.00184336
     atom    5 type  1   force =    -0.00533584   -0.01009825    0.00081029
     atom    6 type  1   force =    -0.00533438    0.01010903    0.00082066
     atom    7 type  1   force =    -0.00034334    0.00001446   -0.02793417
     atom    8 type  1   force =     0.00107877    0.00000671    0.02287774
     atom    9 type  2   force =     0.00257304   -0.00000160   -0.01627308
     atom   10 type  2   force =    -0.00054973   -0.00000738    0.01736568
     atom   11 type  1   force =     0.02080829    0.01678679    0.01377415
     atom   12 type  1   force =     0.02079406   -0.01677810    0.01373283
     atom   13 type  1   force =     0.00040845   -0.00000754   -0.00061011
     atom   14 type  1   force =     0.00335801   -0.00007635   -0.01406397
     atom   15 type  1   force =     0.00015443    0.00003653   -0.01566582
     atom   16 type  2   force =     0.05693450   -0.00010076    0.01100509
     atom   17 type  2   force =    -0.00203145    0.00004029   -0.01130377
     atom   18 type  1   force =     0.00592724   -0.01011287    0.00080990
     atom   19 type  1   force =     0.00591088    0.01011960    0.00081871
     atom   20 type  1   force =     0.00002783    0.00000617    0.00446448
     atom   21 type  1   force =     0.00067552    0.00000504    0.03369639
     atom   22 type  2   force =    -0.00223208    0.00000179   -0.01599191
     atom   23 type  2   force =     0.00153987   -0.00000340   -0.02593385
     atom   24 type  1   force =    -0.02129581    0.01721184    0.01307334
     atom   25 type  1   force =    -0.02130522   -0.01721038    0.01307435
     atom   26 type  1   force =    -0.00016359   -0.00000566   -0.00404150
     atom   27 type  3   force =     0.00002877   -0.00008345    0.00585243
     atom   28 type  3   force =     0.00006896    0.00000482    0.00559792
     atom   29 type  3   force =    -0.00426152    0.00000730    0.00498470
     atom   30 type  3   force =    -0.00414613    0.00000904    0.00480840
     atom   31 type  1   force =    -0.00002919    0.00000662   -0.01310131

     Total force =     0.080602     Total SCF correction =     0.003147

     BFGS Geometry Optimization

     number of scf cycles    =   1
     number of bfgs steps    =   0

     energy   new            =   -1557.2853814449 Ry

     new trust radius        =       0.0336963888 bohr
     new conv_thr            =       0.0000010000 Ry


ATOMIC_POSITIONS (crystal)
O0       0.000000000   0.000000000   0.371161842    0   0   1
O0       0.000000000   0.500000000   0.388341091    0   0   1
Nb1      0.250000000   0.500000000   0.444806821    0   0   1
Nb1      0.000000000   0.000000000   0.443926147    0   0   1
O0       0.250000000   0.790000000   0.446205889    0   0   1
O0       0.250000000   0.210000000   0.446206092    0   0   1
O0       0.000000000   0.500000000   0.500112234    0   0   1
O0       0.000000000   0.000000000   0.523378613    0   0   1
Nb1      0.250000000   0.000000000   0.576710898    0   0   1
Nb1      0.000000000   0.500000000   0.570400527    0   0   1
O0       0.250000000   0.710000000   0.576600100    0   0   1
O0       0.250000000   0.290000000   0.576609289    0   0   1
O0       0.000000000   0.000000000   0.621298036    0   0   1
O0       0.500000000   0.000000000   0.371764217    0   0   1
O0       0.500000000   0.500000000   0.390502806    0   0   1
Nb1      0.750000000   0.500000000   0.444865801    0   0   1
Nb1      0.500000000   0.000000000   0.444688342    0   0   1
O0       0.750000000   0.790000000   0.446205881    0   0   1
O0       0.750000000   0.210000000   0.446206054    0   0   1
O0       0.500000000   0.500000000   0.495267545    0   0   1
O0       0.500000000   0.000000000   0.523260758    0   0   1
Nb1      0.750000000   0.000000000   0.576846412    0   0   1
Nb1      0.500000000   0.500000000   0.588091459    0   0   1
O0       0.750000000   0.710000000   0.576456357    0   0   1
O0       0.750000000   0.290000000   0.576456377    0   0   1
O0       0.500000000   0.000000000   0.621180750    0   0   1
H2      -0.000487428   0.501533679   0.352544761
H2       0.499496164   0.501450365   0.354689770
H2       0.150079071   0.000370553   0.355637746
H2       0.649269386   0.000370685   0.355904289
O0       0.500027391   0.500000502   0.651963094


     Check: negative starting charge=   -0.003810
     NEW-OLD atomic charge density approx. for the potential

     Check: negative/imaginary core charge=   -0.000003    0.000000
     Check: negative starting charge=   -0.003809

     negative rho (up, down):  0.362E-02 0.000E+00
 Atomic wfc used for LDA+U Projector are NOT orthogonalized

     total cpu time spent up to now is     6496.1 secs

     per-process dynamical memory:   434.3 Mb

     Self-consistent Calculation

     iteration #  1     ecut=    40.00 Ry     beta=0.70
     Davidson diagonalization with overlap
     ethr =  1.00E-06,  avg # of iterations =  4.7
 --- enter write_ns ---
 LDA+U parameters:
U( 2)     =  7.50000000
alpha( 2) =  0.00000000
atom    3   Tr[ns(na)] =   5.13660
    eigenvalues: 
  0.312  0.362  0.550  0.614  0.731
    eigenvectors:
  0.000  0.000  0.018  0.326  0.656
  0.000  0.000  0.967  0.032  0.001
  0.734  0.266  0.000  0.000  0.000
  0.000  0.000  0.015  0.642  0.343
  0.266  0.734  0.000  0.000  0.000
    occupations:
  0.689 -0.012  0.000 -0.056 -0.000
 -0.012  0.552 -0.000 -0.005  0.000
  0.000 -0.000  0.325 -0.000 -0.022
 -0.056 -0.005 -0.000  0.653  0.000
 -0.000  0.000 -0.022  0.000  0.349
atom    4   Tr[ns(na)] =   5.12645
    eigenvalues: 
  0.317  0.349  0.563  0.599  0.734
    eigenvectors:
  0.003  0.000  0.000  0.997  0.000
  0.996  0.000  0.000  0.003  0.001
  0.000  1.000  0.000  0.000  0.000
  0.001  0.000  0.000  0.000  0.999
  0.000  0.000  1.000  0.000  0.000
    occupations:
  0.599  0.015  0.000  0.002 -0.000
  0.015  0.318 -0.000 -0.011  0.000
  0.000 -0.000  0.349  0.000  0.001
  0.002 -0.011  0.000  0.734  0.000
 -0.000  0.000  0.001  0.000  0.563
atom    9   Tr[ns(na)] =   5.21461
    eigenvalues: 
  0.400  0.450  0.477  0.638  0.642
    eigenvectors:
  0.000  0.863  0.000  0.000  0.137
  0.000  0.000  0.000  0.997  0.003
  0.999  0.000  0.001  0.000  0.000
  0.000  0.137  0.000  0.003  0.860
  0.001  0.000  0.999  0.000  0.000
    occupations:
  0.476 -0.000  0.000  0.066 -0.000
 -0.000  0.638 -0.000 -0.000 -0.000
  0.000 -0.000  0.400  0.000  0.003
  0.066 -0.000  0.000  0.616 -0.000
 -0.000 -0.000  0.003 -0.000  0.477
atom   10   Tr[ns(na)] =   4.95124
    eigenvalues: 
  0.274  0.294  0.503  0.540  0.864
    eigenvectors:
  0.000  0.000  0.999  0.000  0.001
  0.000  1.000  0.000  0.000  0.000
  1.000  0.000  0.000  0.000  0.000
  0.000  0.000  0.001  0.000  0.999
  0.000  0.000  0.000  1.000  0.000
    occupations:
  0.504  0.000  0.000  0.011 -0.000
  0.000  0.294 -0.000  0.006  0.000
  0.000 -0.000  0.274 -0.000 -0.001
  0.011  0.006 -0.000  0.863  0.000
 -0.000  0.000 -0.001  0.000  0.540
atom   16   Tr[ns(na)] =   5.13690
    eigenvalues: 
  0.311  0.364  0.550  0.614  0.729
    eigenvectors:
  0.000  0.000  0.018  0.328  0.654
  0.000  0.000  0.967  0.032  0.001
  0.726  0.274  0.000  0.000  0.000
  0.000  0.000  0.015  0.641  0.344
  0.274  0.726  0.000  0.000  0.000
    occupations:
  0.688  0.012  0.000 -0.056  0.000
  0.012  0.553  0.000  0.005  0.000
  0.000  0.000  0.325 -0.000  0.023
 -0.056  0.005 -0.000  0.653 -0.000
  0.000  0.000  0.023 -0.000  0.349
atom   17   Tr[ns(na)] =   5.12343
    eigenvalues: 
  0.319  0.347  0.561  0.601  0.734
    eigenvectors:
  0.003  0.000  0.000  0.997  0.000
  0.996  0.000  0.000  0.003  0.001
  0.000  1.000  0.000  0.000  0.000
  0.001  0.000  0.000  0.000  0.999
  0.000  0.000  1.000  0.000  0.000
    occupations:
  0.600  0.015  0.000  0.001 -0.000
  0.015  0.320 -0.000 -0.012  0.000
  0.000 -0.000  0.347  0.000  0.001
  0.001 -0.012  0.000  0.733  0.000
 -0.000  0.000  0.001  0.000  0.561
atom   22   Tr[ns(na)] =   5.21546
    eigenvalues: 
  0.400  0.450  0.477  0.638  0.642
    eigenvectors:
  0.000  0.864  0.000  0.000  0.136
  0.000  0.000  0.000  0.998  0.002
  0.999  0.000  0.001  0.000  0.000
  0.000  0.136  0.000  0.002  0.862
  0.001  0.000  0.999  0.000  0.000
    occupations:
  0.476  0.000 -0.000  0.066 -0.000
  0.000  0.638 -0.000  0.000  0.000
 -0.000 -0.000  0.400  0.000 -0.002
  0.066  0.000  0.000  0.616  0.000
 -0.000  0.000 -0.002  0.000  0.477
atom   23   Tr[ns(na)] =   5.29731
    eigenvalues: 
  0.475  0.490  0.525  0.534  0.625
    eigenvectors:
  0.001  0.000  0.000  0.000  0.999
  0.000  0.000  1.000  0.000  0.000
  0.000  1.000  0.000  0.000  0.000
  0.998  0.000  0.000  0.000  0.001
  0.000  0.000  0.000  1.000  0.000
    occupations:
  0.624 -0.000 -0.000  0.006 -0.000
 -0.000  0.525 -0.000 -0.001  0.000
 -0.000 -0.000  0.490 -0.000  0.000
  0.006 -0.001 -0.000  0.475 -0.000
 -0.000  0.000  0.000 -0.000  0.534
N of occupied +U levels =  41.2019920
 --- exit write_ns ---

     negative rho (up, down):  0.355E-02 0.000E+00

     total cpu time spent up to now is     6842.4 secs

     total energy              =   -1557.28718133 Ry
     Harris-Foulkes estimate   =   -1557.28991790 Ry
     estimated scf accuracy    <       0.00392527 Ry

     iteration #  2     ecut=    40.00 Ry     beta=0.70
     Davidson diagonalization with overlap
     ethr =  1.77E-06,  avg # of iterations =  6.3

     negative rho (up, down):  0.361E-02 0.000E+00

     total cpu time spent up to now is     7116.8 secs

     total energy              =   -1557.28542796 Ry
     Harris-Foulkes estimate   =   -1557.29322329 Ry
     estimated scf accuracy    <       0.02629895 Ry

     iteration #  3     ecut=    40.00 Ry     beta=0.70
     Davidson diagonalization with overlap
     ethr =  1.77E-06,  avg # of iterations =  7.1

     negative rho (up, down):  0.363E-02 0.000E+00

     total cpu time spent up to now is     7363.1 secs

     total energy              =   -1557.28822636 Ry
     Harris-Foulkes estimate   =   -1557.28989783 Ry
     estimated scf accuracy    <       0.00778593 Ry

     iteration #  4     ecut=    40.00 Ry     beta=0.70
     Davidson diagonalization with overlap
     ethr =  1.77E-06,  avg # of iterations =  5.0

     negative rho (up, down):  0.359E-02 0.000E+00

     total cpu time spent up to now is     7592.9 secs

     total energy              =   -1557.28894198 Ry
     Harris-Foulkes estimate   =   -1557.28948873 Ry
     estimated scf accuracy    <       0.00312713 Ry

     iteration #  5     ecut=    40.00 Ry     beta=0.70
     Davidson diagonalization with overlap
     ethr =  1.41E-06,  avg # of iterations =  3.7

     negative rho (up, down):  0.356E-02 0.000E+00

     total cpu time spent up to now is     7813.8 secs

     total energy              =   -1557.28922483 Ry
     Harris-Foulkes estimate   =   -1557.28932272 Ry
     estimated scf accuracy    <       0.00044583 Ry

     iteration #  6     ecut=    40.00 Ry     beta=0.70
     Davidson diagonalization with overlap
     ethr =  2.01E-07,  avg # of iterations =  1.0

     negative rho (up, down):  0.356E-02 0.000E+00

     total cpu time spent up to now is     8015.1 secs

     total energy              =   -1557.28926947 Ry
     Harris-Foulkes estimate   =   -1557.28928476 Ry
     estimated scf accuracy    <       0.00006025 Ry

     iteration #  7     ecut=    40.00 Ry     beta=0.70
     Davidson diagonalization with overlap
     ethr =  2.71E-08,  avg # of iterations =  1.2

     negative rho (up, down):  0.355E-02 0.000E+00

     total cpu time spent up to now is     8219.1 secs

     total energy              =   -1557.28928084 Ry
     Harris-Foulkes estimate   =   -1557.28928739 Ry
     estimated scf accuracy    <       0.00005144 Ry

     iteration #  8     ecut=    40.00 Ry     beta=0.70
     Davidson diagonalization with overlap
     ethr =  2.32E-08,  avg # of iterations =  1.2

     negative rho (up, down):  0.355E-02 0.000E+00

     total cpu time spent up to now is     8422.7 secs

     total energy              =   -1557.28928502 Ry
     Harris-Foulkes estimate   =   -1557.28928843 Ry
     estimated scf accuracy    <       0.00001789 Ry

     iteration #  9     ecut=    40.00 Ry     beta=0.70
     Davidson diagonalization with overlap
     ethr =  8.06E-09,  avg # of iterations =  2.0

     negative rho (up, down):  0.355E-02 0.000E+00

     total cpu time spent up to now is     8628.7 secs

     total energy              =   -1557.28928836 Ry
     Harris-Foulkes estimate   =   -1557.28928964 Ry
     estimated scf accuracy    <       0.00000963 Ry

     iteration # 10     ecut=    40.00 Ry     beta=0.70
     Davidson diagonalization with overlap
     ethr =  4.34E-09,  avg # of iterations =  2.0

     negative rho (up, down):  0.355E-02 0.000E+00

     total cpu time spent up to now is     8836.5 secs

     total energy              =   -1557.28928966 Ry
     Harris-Foulkes estimate   =   -1557.28928989 Ry
     estimated scf accuracy    <       0.00000169 Ry

     iteration # 11     ecut=    40.00 Ry     beta=0.70
     Davidson diagonalization with overlap
     ethr =  7.60E-10,  avg # of iterations =  1.5

     negative rho (up, down):  0.355E-02 0.000E+00

     total cpu time spent up to now is     9040.0 secs

     End of self-consistent calculation
 --- enter write_ns ---
 LDA+U parameters:
U( 2)     =  7.50000000
alpha( 2) =  0.00000000
atom    3   Tr[ns(na)] =   5.13520
    eigenvalues: 
  0.313  0.362  0.551  0.614  0.727
    eigenvectors:
  0.000  0.000  0.015  0.327  0.658
  0.000  0.000  0.970  0.029  0.001
  0.745  0.255  0.000  0.000  0.000
[...]
     1.9665   2.1088   2.1260   2.1566   2.1672   2.2365   2.2767   2.5233
     2.8843   2.9172   3.0657   3.2743   3.2841   3.5140   3.5892   4.4113
     4.4124   4.6694   4.7526   5.0513   5.0696   5.1620   5.2301   5.2760
     5.2773   5.3086   5.3544   5.4221   5.5213   5.5905   5.6182   5.6618
     5.7022   6.1719   6.2413   6.3510   6.4019   6.6298   6.7356   6.8123
     6.8256   7.1104   7.2486   7.2768   7.3926   7.4443   8.0306   8.0336
     8.0968   8.0985   8.1324   8.2796   8.4842   8.5911   8.6516   8.6709
     8.7002   8.7672   8.8560   8.9428   8.9513   9.0880   9.1274   9.2087
     9.4349   9.5730   9.7013   9.7138   9.8247   9.8717   9.9653  10.0541
    10.1387  10.1767  10.2951  10.3745  10.4477  10.5302  10.6342  10.7365
    10.9233  11.0375  11.0858  11.1908  11.2786  11.4025  11.4094  11.4226
    11.5541  11.7127  11.9125  12.1318  12.2861  12.3983  12.4178  12.4853
    12.5507  12.6680  12.6905  12.7181  12.7359  12.7527  13.0578  13.1070
    13.1171  13.2106  13.2679  13.3421  13.4699  13.6956  13.7762  13.7821
    13.7997  13.9301  13.9532  13.9881  14.1408  14.2062  14.2434  14.3317
    14.3403  14.4461  14.4826  14.5112  14.5446  14.7280  14.7565  14.8105
    14.8411  14.9057  14.9534  15.0108  15.2184  15.2997  15.4056  15.4948
    15.6326  15.6463  15.6610  15.7797  15.7904  15.8477  15.8653  15.9491
    16.0792  16.0799  16.1895  16.1939  16.2054  16.2808  16.3460  16.4350
    16.4550  16.5390  16.6458  16.7803  16.8195  16.8465  16.8820  16.9291
    16.9726  17.0228  17.1270  17.1379  17.1638  17.1735  17.2112  17.2949
    17.3056  17.3377  17.3580  17.3728  17.5247  17.5568  17.5643  17.6191
    17.6861  17.7524  17.7572  17.8206  17.8534  17.8688  17.9634  17.9688
    17.9765  17.9818  18.0532  18.1683  18.1977  18.2017  18.2547  18.3642
    18.4032  18.4198  18.4564  18.6342  18.6823  18.7102  18.7229  18.8300
    18.9367  18.9577  18.9732  18.9816  19.1146  19.1526  19.1564  19.2100
    19.2259  19.3963  19.4184  19.4491  19.4604

          k =-0.5000 0.2118 0.0000 ( 32144 PWs)   bands (ev):

   -57.0255 -57.0113 -56.4448 -56.4198 -56.4149 -56.3836 -55.9292 -55.7781
   -33.4297 -33.4214 -33.1940 -33.1847 -33.0992 -33.0861 -32.9065 -32.9027
   -32.8871 -32.8436 -32.8351 -32.6000 -32.5449 -32.5358 -32.5037 -32.3107
   -32.2880 -32.2855 -32.2774 -32.2256 -32.0913 -31.8670 -31.8527 -31.6767
   -20.7527 -20.5306 -19.7188 -19.6929 -19.3260 -19.3205 -19.2310 -19.1621
   -19.1493 -19.1168 -19.0784 -18.9007 -18.8774 -18.6648 -18.6593 -18.4340
   -18.3998 -18.2374 -17.0442  -9.2602  -8.9735  -7.6944  -7.6640  -7.3046
    -7.2643  -7.2453  -7.0553  -6.9351  -6.7895  -6.6997  -6.5540  -6.2907
    -6.2300  -6.2058  -6.0799  -5.7493  -5.6848  -5.6445  -5.4920  -5.4462
    -5.4379  -5.3300  -5.3071  -5.2075  -5.1831  -5.1628  -5.0760  -4.8345
    -4.7089  -4.6194  -4.5914  -4.4689  -4.3459  -4.2949  -4.2555  -4.1731
    -4.1560  -4.0531  -4.0024  -3.9317  -3.8451  -3.7541  -3.6745  -3.5538
    -3.4563  -3.4398  -3.3157  -3.2009  -3.1531  -3.0549  -2.9437  -2.8992
    -2.7793  -2.6361  -2.5302  -2.4338  -0.5625   0.0624   0.0798   0.1468
     0.2009   1.1534   1.2702   1.4797   1.5030   1.6258   1.6335   1.9234
     1.9432   1.9624   2.0004   2.0227   2.3537   2.3857   2.5578   2.6090
     2.8473   3.0131   3.0720   3.3788   3.3934   3.4209   3.4962   4.3701
     4.3946   4.5428   4.5527   4.6031   4.7162   4.9203   4.9288   5.2068
     5.2525   5.3898   5.4017   5.4408   5.4644   5.8482   5.8556   5.9244
     5.9700   6.0079   6.0409   6.3503   6.4026   6.5778   6.6291   6.7826
     6.7952   6.9955   7.2586   7.3771   7.3787   7.4905   7.5716   7.5796
     7.6426   7.7918   7.9509   7.9657   8.0990   8.2347   8.5498   8.6722
     8.7950   8.8806   8.9286   8.9737   9.0425   9.1099   9.6223   9.6974
     9.7189   9.8751   9.9011  10.0479  10.1577  10.1885  10.2389  10.2583
    10.3365  10.4346  10.4963  10.6439  10.6838  10.7378  10.8791  10.9039
    11.1906  11.3024  11.3406  11.4265  11.4807  11.5475  11.5851  11.7573
    11.8445  11.8846  12.1261  12.1817  12.2737  12.4052  12.5292  12.5859
    12.6048  12.7565  12.7797  12.8105  12.8875  12.9262  13.1029  13.2336
    13.3227  13.3425  13.3918  13.4465  13.4956  13.5579  13.6338  13.6912
    13.7515  13.8038  13.8791  13.9180  13.9406  13.9801  14.1555  14.1787
    14.1926  14.3400  14.3434  14.4365  14.4633  14.5453  14.5597  14.6879
    14.7183  14.7774  14.8429  14.8978  14.9502  14.9965  15.0378  15.0698
    15.0894  15.1487  15.2230  15.2977  15.3179  15.4279  15.4932  15.5585
    15.6136  15.6576  15.7791  15.8099  15.8758  15.9218  15.9387  15.9519
    16.0310  16.0907  16.1507  16.2281  16.2647  16.3305  16.3627  16.4240
    16.4390  16.6646  16.7002  16.8101  16.8914  16.9010  16.9617  17.0148
    17.1247  17.1470  17.1609  17.3569  17.3654  17.3771  17.5464  17.5799
    17.6109  17.6748  17.7400  17.7761  17.8245  17.8816  17.9798  17.9981
    18.0367  18.1273  18.1638  18.3633  18.4101  18.5094  18.5171  18.6900
    18.7005  18.8207  18.8616  18.8794  18.9377  19.0037  19.0493  19.1580
    19.1887  19.2378  19.2542  19.3839  19.4105  19.4360  19.5521  19.6714
    19.7106  19.7762  19.8288  19.9111  19.9710

          k =-0.5000-0.4237 0.0000 ( 32256 PWs)   bands (ev):

   -57.0226 -57.0092 -56.4392 -56.4165 -56.4116 -56.3785 -55.9256 -55.7746
   -33.4294 -33.4180 -33.1926 -33.1841 -33.0991 -33.0858 -32.9066 -32.9022
   -32.8860 -32.8428 -32.8338 -32.5864 -32.5488 -32.5184 -32.5129 -32.3092
   -32.3000 -32.2854 -32.2770 -32.2371 -32.0880 -31.8627 -31.8595 -31.6838
   -20.7478 -20.5260 -19.7140 -19.6895 -19.3392 -19.3348 -19.2005 -19.1648
   -19.1581 -19.1093 -19.0999 -18.8878 -18.8761 -18.6276 -18.6270 -18.4352
   -18.3718 -18.2311 -17.0407  -9.2543  -8.9668  -7.6627  -7.6301  -7.1771
    -7.1758  -7.0602  -7.0269  -6.9310  -6.7954  -6.7351  -6.7235  -6.2758
    -6.2283  -6.2026  -6.0102  -5.7320  -5.7203  -5.7177  -5.5525  -5.5490
    -5.5024  -5.4445  -5.3644  -5.2824  -5.1917  -5.1635  -4.9091  -4.7086
    -4.6764  -4.5986  -4.5042  -4.4861  -4.3882  -4.3643  -4.3591  -4.2845
    -4.2635  -4.1413  -4.1397  -4.0873  -3.9726  -3.8187  -3.6650  -3.5684
    -3.4834  -3.3854  -3.3650  -3.2346  -3.1127  -3.1018  -2.8611  -2.7433
    -2.7189  -2.6660  -2.4629  -2.4599  -0.5367   0.1493   0.3030   0.3472
     0.3710   1.1225   1.3778   1.3790   1.4086   1.7942   1.8772   1.9299
     1.9690   1.9938   2.1331   2.1481   2.5075   2.5362   2.5924   2.7851
     2.8275   2.9411   3.2288   3.3349   3.3592   3.5292   3.5422   3.8405
     3.8975   4.0074   4.1863   4.4577   4.4712   4.9531   5.0596   5.1520
     5.1600   5.5412   5.5466   5.5812   5.5979   5.8941   5.9142   5.9219
     5.9638   6.3261   6.3528   6.4168   6.4489   6.5041   6.5278   6.5568
     6.6494   6.8677   6.8820   6.9441   7.0878   7.2428   7.2616   7.3537
     7.7591   8.0515   8.0574   8.0785   8.1437   8.1994   8.2696   8.2888
     8.8262   8.9456   9.0579   9.1874   9.2471   9.3196   9.3669   9.3809
     9.4638   9.5462   9.7086   9.7854  10.5337  10.6519  10.6896  10.8041
    10.8144  10.8320  10.9579  11.0068  11.1200  11.2717  11.6256  11.6508
    11.6682  11.7997  11.8142  11.8851  11.9321  11.9903  12.0284  12.0893
    12.1196  12.2013  12.2702  12.4545  12.4629  12.5123  12.5505  12.5805
    12.6467  12.6528  12.6738  12.7303  12.8145  12.8839  12.9624  13.0190
    13.0916  13.1179  13.2189  13.2312  13.3528  13.3744  13.3929  13.4270
    13.4726  13.4903  13.5222  13.5475  13.8275  13.8788  13.9518  13.9682
    14.0783  14.0960  14.1130  14.1196  14.2711  14.2941  14.3088  14.3309
    14.4472  14.6067  14.6508  14.6724  14.6954  14.7557  14.7641  14.7754
    14.7898  14.8296  14.9631  15.0527  15.0737  15.0776  15.2220  15.2378
    15.4535  15.4543  15.4725  15.5287  15.6178  15.6389  15.7533  15.7558
    15.8040  15.8577  15.8868  15.8991  16.0547  16.0583  16.0743  16.1237
    16.3068  16.3402  16.6559  16.6724  16.7761  16.7947  16.8626  16.8887
    17.0368  17.0515  17.2167  17.2743  17.3029  17.3879  17.5308  17.5492
    17.5514  17.5758  17.6607  17.6773  17.7680  17.8046  17.8373  18.0737
    18.0765  18.2352  18.3170  18.3637  18.4448  18.5640  18.5992  18.6674
    18.6880  18.9294  18.9742  18.9915  18.9965  19.1886  19.2885  19.5440
    19.5608  19.5719  19.5843  19.6046  19.6513  19.6867  19.7532  19.9342
    19.9611  19.9622  20.2281  20.2487  20.3185

          k =-0.2500 0.2118 0.0000 ( 32165 PWs)   bands (ev):

   -57.0579 -56.9865 -56.4894 -56.4719 -56.4167 -56.3941 -55.9351 -55.8049
   -33.7626 -33.2981 -33.1237 -33.1020 -33.0633 -33.0175 -32.9367 -32.9129
   -32.9015 -32.8605 -32.8386 -32.7966 -32.7587 -32.3648 -32.3331 -32.3060
   -32.2730 -32.2412 -32.2361 -32.1746 -32.1514 -31.8773 -31.6696 -31.6493
   -20.8119 -20.5559 -19.9125 -19.8888 -19.5218 -19.4822 -19.4552 -19.4026
   -19.2692 -19.1928 -19.1367 -18.5759 -18.5338 -18.4846 -18.3477 -18.3122
   -18.2707 -18.2205 -17.0510  -9.5159  -8.9105  -7.9462  -7.9028  -7.7703
    -7.5270  -7.1268  -7.0506  -6.8612  -6.7965  -6.7094  -6.6962  -6.4509
    -6.4293  -6.3678  -6.1214  -5.9688  -5.9477  -5.8828  -5.5437  -5.4265
    -5.3613  -5.1646  -5.0774  -4.9570  -4.8439  -4.7041  -4.6428  -4.6063
    -4.5560  -4.5394  -4.4449  -4.4148  -4.3571  -4.2613  -4.2460  -4.2253
    -4.0677  -3.9523  -3.8922  -3.8534  -3.8214  -3.7207  -3.6227  -3.5646
    -3.4512  -3.3991  -3.3388  -3.2277  -3.1832  -3.0835  -2.9870  -2.9233
    -2.8706  -2.6775  -2.6038  -2.3372  -1.1914  -0.8811  -0.3928   1.0898
     1.1512   1.2806   1.3141   1.3708   1.4327   1.6745   1.7272   2.0074
     2.0524   2.1185   2.1919   2.2988   2.3715   2.5372   2.6125   2.7183
     2.7325   2.7951   3.0114   3.1819   3.1959   3.7252   4.0526   4.1076
     4.2263   4.3514   4.4912   4.5718   4.6813   4.7967   4.9308   4.9997
     5.1345   5.2305   5.4012   5.5019   5.5728   5.6908   5.8927   5.9378
     6.0002   6.1643   6.4452   6.5406   6.5623   6.5827   6.8003   6.8313
     6.8490   7.0848   7.2209   7.3015   7.4676   7.4987   7.8402   7.9105
     8.0473   8.0679   8.1822   8.2020   8.2490   8.5398   8.5835   8.7136
     8.8283   8.9314   9.0233   9.1064   9.1887   9.2883   9.3405   9.5161
     9.5465   9.6140   9.7633   9.8551   9.9021  10.0317  10.0812  10.1797
    10.2669  10.3878  10.6038  10.7292  10.7681  10.9214  10.9733  11.0412
    11.1352  11.1597  11.2327  11.2715  11.3930  11.4593  11.5300  11.5504
    11.6628  11.7613  11.8933  11.9390  11.9859  12.1199  12.1413  12.2190
    12.2700  12.3643  12.4077  12.4751  12.6092  12.6662  12.6871  12.7468
    12.7972  12.8702  12.9532  12.9858  13.0665  13.1122  13.2466  13.3102
    13.3685  13.4056  13.5135  13.6560  13.7187  13.7673  13.7913  13.8832
    13.9232  13.9678  14.0178  14.1303  14.1674  14.2929  14.3331  14.4125
    14.4488  14.6069  14.6682  14.7833  14.9015  14.9262  15.0733  15.1050
    15.2311  15.2634  15.3034  15.3498  15.4012  15.4622  15.5363  15.5757
    15.6644  15.7000  15.8006  15.8570  15.9105  15.9684  16.0509  16.0936
    16.1978  16.2770  16.3759  16.4081  16.4622  16.4883  16.5811  16.6731
    16.7352  16.7667  16.8675  16.9748  17.0458  17.1196  17.1657  17.2318
    17.2714  17.3505  17.3737  17.4365  17.4821  17.5794  17.6392  17.7153
    17.7583  17.8696  17.9597  17.9945  18.1054  18.1466  18.2197  18.3612
    18.3836  18.4237  18.4782  18.5551  18.6238  18.6782  18.7215  18.7977
    18.8708  18.9169  18.9716  19.0845  19.1590  19.1969  19.2451  19.3476
    19.3831  19.4094  19.4915  19.5140  19.5800  19.6355  19.6568  19.6770
    19.7703  19.8809  19.9053  20.0164  20.0584

     the Fermi energy is     0.1327 ev

!    total energy              =   -1557.29485902 Ry
     Harris-Foulkes estimate   =   -1557.29485902 Ry
     estimated scf accuracy    <          6.9E-09 Ry

     The total energy is the sum of the following terms:

     one-electron contribution =  -18821.82846286 Ry
     hartree contribution      =    9436.87497230 Ry
     xc contribution           =    -287.00022366 Ry
     ewald contribution        =    8109.62730466 Ry
     Hubbard energy            =       5.03230012 Ry
     smearing contrib. (-TS)   =      -0.00074958 Ry

     convergence has been achieved in  20 iterations

     Forces acting on atoms (Ry/au):


     negative rho (up, down):  0.362E-02 0.000E+00
     atom    1 type  1   force =    -0.00004855   -0.00008370   -0.00004498
     atom    2 type  1   force =    -0.00021539    0.00012342    0.00020780
     atom    3 type  2   force =    -0.02739573   -0.00008425   -0.00011918
     atom    4 type  2   force =    -0.00100596    0.00004262    0.00008859
     atom    5 type  1   force =    -0.00620408   -0.00235028    0.00046191
     atom    6 type  1   force =    -0.00621569    0.00235971    0.00046069
     atom    7 type  1   force =    -0.00044724    0.00000972   -0.00039120
     atom    8 type  1   force =     0.00126449    0.00000069   -0.00052778
     atom    9 type  2   force =     0.00428745    0.00000194   -0.00025595
     atom   10 type  2   force =    -0.00022218   -0.00000759   -0.00072584
     atom   11 type  1   force =     0.00997713    0.01535246    0.00030670
     atom   12 type  1   force =     0.00997888   -0.01535037    0.00030795
     atom   13 type  1   force =     0.00021386   -0.00000142    0.00005870
     atom   14 type  1   force =    -0.00029432   -0.00009182   -0.00003138
     atom   15 type  1   force =    -0.00000895   -0.00001827    0.00019228
     atom   16 type  2   force =     0.02793606   -0.00008392   -0.00014160
     atom   17 type  2   force =    -0.00121935    0.00004433    0.00039098
     atom   18 type  1   force =     0.00667329   -0.00231201    0.00041647
     atom   19 type  1   force =     0.00667673    0.00232204    0.00041623
     atom   20 type  1   force =    -0.00030927    0.00001946   -0.00025855
     atom   21 type  1   force =    -0.00007424   -0.00000183    0.00050569
     atom   22 type  2   force =    -0.00363365    0.00000136    0.00018006
     atom   23 type  2   force =     0.00218761   -0.00000371   -0.00020125
     atom   24 type  1   force =    -0.01103146    0.01603735   -0.00070338
     atom   25 type  1   force =    -0.01103253   -0.01603511   -0.00070368
     atom   26 type  1   force =    -0.00014134   -0.00000025    0.00040265
     atom   27 type  3   force =     0.00000929   -0.00000348    0.00006648
     atom   28 type  3   force =     0.00001316    0.00006798   -0.00058082
     atom   29 type  3   force =     0.00005045    0.00002306    0.00035081
     atom   30 type  3   force =    -0.00002464    0.00002317    0.00014245
     atom   31 type  1   force =     0.00025617   -0.00000128   -0.00027087

     Total force =     0.002109     Total SCF correction =     0.000254
     SCF correction compared to forces is large: reduce conv_thr to get better values

     bfgs converged in  12 scf cycles and  11 bfgs steps
     (criteria: energy < 0.10E-03, force < 0.10E-02)

     End of BFGS Geometry Optimization

     Final energy   =   -1557.2948590212 Ry
Begin final coordinates

ATOMIC_POSITIONS (crystal)
O0       0.000000000   0.000000000   0.370826616    0   0   1
O0       0.000000000   0.500000000   0.388033057    0   0   1
Nb1      0.250000000   0.500000000   0.444654263    0   0   1
Nb1      0.000000000   0.000000000   0.443751054    0   0   1
O0       0.250000000   0.790000000   0.446222432    0   0   1
O0       0.250000000   0.210000000   0.446223572    0   0   1
O0       0.000000000   0.500000000   0.500080793    0   0   1
O0       0.000000000   0.000000000   0.523855596    0   0   1
Nb1      0.250000000   0.000000000   0.577185314    0   0   1
Nb1      0.000000000   0.500000000   0.570740172    0   0   1
O0       0.250000000   0.710000000   0.578295573    0   0   1
O0       0.250000000   0.290000000   0.578296092    0   0   1
O0       0.000000000   0.000000000   0.621517874    0   0   1
O0       0.500000000   0.000000000   0.370809317    0   0   1
O0       0.500000000   0.500000000   0.389871757    0   0   1
Nb1      0.750000000   0.500000000   0.444682909    0   0   1
Nb1      0.500000000   0.000000000   0.443877476    0   0   1
O0       0.750000000   0.790000000   0.446165859    0   0   1
O0       0.750000000   0.210000000   0.446167281    0   0   1
O0       0.500000000   0.500000000   0.496936173    0   0   1
O0       0.500000000   0.000000000   0.524009345    0   0   1
Nb1      0.750000000   0.000000000   0.577428210    0   0   1
Nb1      0.500000000   0.500000000   0.585638974    0   0   1
O0       0.750000000   0.710000000   0.577799022    0   0   1
O0       0.750000000   0.290000000   0.577799863    0   0   1
O0       0.500000000   0.000000000   0.621348107    0   0   1
H2      -0.000440754   0.501561894   0.351877610
H2       0.499532092   0.501629174   0.353748988
H2       0.151498886   0.000428334   0.355597509
H2       0.651726134   0.000427938   0.355700985
O0       0.500391446   0.500003205   0.649148206
End final coordinates



     init_run     :    128.85s CPU    132.04s WALL (       1 calls)
     electrons    :  40922.58s CPU  42185.19s WALL (      12 calls)
     update_pot   :    220.85s CPU    225.27s WALL (      11 calls)
     forces       :   1718.33s CPU   1753.69s WALL (      12 calls)

     Called by init_run:
     wfcinit      :     42.21s CPU     44.27s WALL (       1 calls)
     potinit      :      7.61s CPU      7.74s WALL (       1 calls)

     Called by electrons:
     c_bands      :  19804.93s CPU  20402.72s WALL (     199 calls)
     sum_band     :   8505.15s CPU   8775.97s WALL (     199 calls)
     v_of_rho     :    246.76s CPU    264.62s WALL (     205 calls)
     newd         :  12992.06s CPU  13230.60s WALL (     205 calls)
     mix_rho      :     45.41s CPU     46.39s WALL (     199 calls)

     Called by c_bands:
     init_us_2    :     58.11s CPU     58.50s WALL (    1305 calls)
     cegterg      :  19549.62s CPU  20088.96s WALL (     597 calls)

     Called by *egterg:
     h_psi        :  11989.66s CPU  12285.36s WALL (    1810 calls)
     s_psi        :   1092.23s CPU   1108.99s WALL (    1882 calls)
     g_psi        :     23.60s CPU     23.61s WALL (    1210 calls)
     cdiaghg      :   1624.76s CPU   1629.41s WALL (    1756 calls)

     Called by h_psi:
     add_vuspsi   :   1059.15s CPU   1077.29s WALL (    1810 calls)
     vhpsi        :   1208.26s CPU   1225.11s WALL (    1810 calls)

     General routines
     calbec       :   2684.71s CPU   2720.75s WALL (   15002 calls)
     fft          :    378.50s CPU    503.63s WALL (    3399 calls)
     ffts         :      4.37s CPU      4.63s WALL (     404 calls)
     fftw         :   6472.74s CPU   6813.83s WALL ( 1039095 calls)
     interpolate  :     39.78s CPU     40.61s WALL (     404 calls)
     davcio       :      0.11s CPU     27.31s WALL (    1341 calls)

     Parallel routines
     fft_scatter  :   2835.62s CPU   3287.17s WALL ( 1042898 calls)
     Hubbard U routines
     new_ns       :    253.92s CPU    270.33s WALL (     199 calls)
     vhpsi        :   1208.26s CPU   1225.11s WALL (    1810 calls)
     force_hub    :    458.40s CPU    469.90s WALL (      12 calls)

     PWSCF        :    12h 9m CPU       12h31m WALL


   This run was terminated on:  10:28:55   1May2014            

=------------------------------------------------------------------------------=
   JOB DONE.
=------------------------------------------------------------------------------=
---------------------------------------
Running PBS batch system epilogue script
Job id: 340584.audhumbla.fysik.dtu.dk
Username: zhonxu
Groupname: campgst
Jobname: NbO2/Eads-2-layers/O-U-7.5
Sessionid: 25486
Resources limits: neednodes=2:ppn=8:xeon8,nodes=2:ppn=8:xeon8,walltime=48:00:00
Resources used: cput=200:07:40,mem=17087516kb,vmem=20645908kb,walltime=12:31:07
Queuename: verylong
Accounting:
This job has allocated the following 16 nodes:
c064 c064 c064 c064 c064 c064 c064 c064 c063 c063 c063 c063 c063 c063 c063 c063
Finished epilogue job 340584.audhumbla.fysik.dtu.dk for zhonxu
