
     Program PWSCF v.5.0.2 (svn rev. 9656) starts on 28May2014 at  1:13:35 

     This program is part of the open-source Quantum ESPRESSO suite
     for quantum simulation of materials; please cite
         "P. Giannozzi et al., J. Phys.:Condens. Matter 21 395502 (2009);
          URL http://www.quantum-espresso.org", 
     in publications or presentations arising from this work. More details at
     http://www.quantum-espresso.org/quote.php

     Parallel version (MPI), running on    16 processors
     K-points division:     npool     =       4
     R & G space division:  proc/nbgrp/npool/nimage =       4

     Current dimensions of program PWSCF are:
     Max number of different atomic species (ntypx) = 10
     Max number of k-points (npk) =  40000
     Max angular momentum in pseudopotentials (lmaxx) =  3
     Reading input from pwscf.in
Warning: card &CELL ignored
Warning: card / ignored

     Subspace diagonalization in iterative solution of the eigenvalue problem:
     a serial algorithm will be used


     Parallelization info
     --------------------
     sticks:   dense  smooth     PW     G-vecs:    dense   smooth      PW
     Min        1357     434    120               328723    59498    8862
     Max        1358     435    121               328730    59528    8871
     Sum        5431    1737    483              1314909   238057   35467



     bravais-lattice index     =            0
     lattice parameter (alat)  =      10.3179  a.u.
     unit-cell volume          =    6964.3238 (a.u.)^3
     number of atoms/cell      =           33
     number of atomic types    =            3
     number of electrons       =       237.00
     number of Kohn-Sham states=          355
     kinetic-energy cutoff     =      40.0000  Ry
     charge density cutoff     =     500.0000  Ry
     convergence threshold     =      1.0E-06
     mixing beta               =       0.7000
     number of iterations used =            8  plain     mixing
     Exchange-correlation      = SLA  PW   PBE  PBE ( 1 4 3 4 0)
     EXX-fraction              =        0.00
     nstep                     =           50


     celldm(1)=  10.317905  celldm(2)=   0.000000  celldm(3)=   0.000000
     celldm(4)=   0.000000  celldm(5)=   0.000000  celldm(6)=   0.000000

     crystal axes: (cart. coord. in units of alat)
               a(1) = (   1.000000   0.000000   0.000000 )  
               a(2) = (   0.000000   1.282117   0.000000 )  
               a(3) = (   0.000000   0.000000   4.945120 )  

     reciprocal axes: (cart. coord. in units 2 pi/alat)
               b(1) = (  1.000000  0.000000  0.000000 )  
               b(2) = (  0.000000  0.779960  0.000000 )  
               b(3) = (  0.000000  0.000000  0.202220 )  


     PseudoPot. # 1 for O  read from file:
     /home/camp/zhonxu/pseudo/o_pbe_v1.01.uspp.F.UPF
     MD5 check sum: 2bcb18d16ea4b960afae9ec6d52f22d2
     Pseudo is Ultrasoft + core correction, Zval =  6.0
     Generated by new atomic code, or converted to UPF format
     Using radial grid of  737 points,  5 beta functions with: 
                l(1) =   0
                l(2) =   0
                l(3) =   1
                l(4) =   1
                l(5) =   2
     Q(r) pseudized with  8 coefficients,  rinner =    0.900   0.900   0.900
                                                       0.900   0.900

     PseudoPot. # 2 for Mo read from file:
     /home/camp/zhonxu/pseudo/mo_pbe_v1.uspp.F.UPF
     MD5 check sum: 30c4dcd161f5d35cd49bb5239c51a633
     Pseudo is Ultrasoft + core correction, Zval = 14.0
     Generated by new atomic code, or converted to UPF format
     Using radial grid of  889 points,  6 beta functions with: 
                l(1) =   0
                l(2) =   0
                l(3) =   1
                l(4) =   1
                l(5) =   2
                l(6) =   2
     Q(r) pseudized with  6 coefficients,  rinner =    1.000   1.000   1.000
                                                       1.000   1.000

     PseudoPot. # 3 for H  read from file:
     /home/camp/zhonxu/pseudo/h_pbe_v1.uspp.F.UPF
     MD5 check sum: 3408e3ff4ec8b0a4e358431e7e038a48
     Pseudo is Ultrasoft, Zval =  1.0
     Generated by new atomic code, or converted to UPF format
     Using radial grid of  615 points,  2 beta functions with: 
                l(1) =   0
                l(2) =   0
     Q(r) pseudized with  8 coefficients,  rinner =    0.700

     atomic species   valence    mass     pseudopotential
        O0             6.00    15.99940     O ( 1.00)
        Mo1           14.00    95.94000     Mo( 1.00)
        H2             1.00     1.00794     H ( 1.00)


     Simplified LDA+U calculation (l_max = 2) with parameters (eV):
     atomic species    L          U    alpha       J0     beta
        Mo1            2     0.5000   0.0000   0.0000   0.0000



     No symmetry found



   Cartesian axes

     site n.     atom                  positions (alat units)
         1           O0  tau(   1) = (   0.0000000   0.0000000   1.8345407  )
         2           O0  tau(   2) = (   0.0000000   0.6410583   1.8924976  )
         3           Mo1 tau(   3) = (   0.2500000   0.6410583   2.1781772  )
         4           Mo1 tau(   4) = (   0.0000000   0.0000000   2.1929631  )
         5           O0  tau(   5) = (   0.2500000   1.0000510   2.1897982  )
         6           O0  tau(   6) = (   0.2500000   0.2820657   2.1891553  )
         7           O0  tau(   7) = (   0.0000000   0.6410583   2.4607413  )
         8           O0  tau(   8) = (   0.0000000   0.0000000   2.5556382  )
         9           Mo1 tau(   9) = (   0.2500000   0.0000000   2.8453728  )
        10           Mo1 tau(  10) = (   0.0000000   0.6410583   2.7952787  )
        11           O0  tau(  11) = (   0.2500000   0.9231240   2.8196582  )
        12           O0  tau(  12) = (   0.2500000   0.3589927   2.8248011  )
        13           O0  tau(  13) = (   0.0000000   0.0000000   3.0952003  )
        14           O0  tau(  14) = (   0.5000000   0.0000000   1.8353814  )
        15           O0  tau(  15) = (   0.5000000   0.6410583   1.8936349  )
        16           Mo1 tau(  16) = (   0.7500000   0.6410583   2.1781277  )
        17           Mo1 tau(  17) = (   0.5000000   0.0000000   2.1954851  )
        18           O0  tau(  18) = (   0.7500000   1.0000510   2.1899960  )
        19           O0  tau(  19) = (   0.7500000   0.2820657   2.1890564  )
        20           O0  tau(  20) = (   0.5000000   0.6410583   2.4612853  )
        21           O0  tau(  21) = (   0.5000000   0.0000000   2.5539074  )
        22           Mo1 tau(  22) = (   0.7500000   0.0000000   2.8439387  )
        23           Mo1 tau(  23) = (   0.5000000   0.6410583   2.8209934  )
        24           O0  tau(  24) = (   0.7500000   0.9231240   2.8195098  )
        25           O0  tau(  25) = (   0.7500000   0.3589927   2.8246033  )
        26           O0  tau(  26) = (   0.5000000   0.0000000   3.0932717  )
        27           H2  tau(  27) = (  -0.0005800   0.7846554   1.7836060  )
        28           H2  tau(  28) = (   0.4995100   0.7915788   1.7940402  )
        29           H2  tau(  29) = (   0.1672700   0.0232576   1.7642706  )
        30           H2  tau(  30) = (   0.6659000   0.0248346   1.7633310  )
        31           O0  tau(  31) = (   0.5002100   0.6666879   3.1760530  )
        32           O0  tau(  32) = (   0.4999400   0.4570233   3.3393409  )
        33           H2  tau(  33) = (   0.5000100   0.5446560   3.4973869  )

     number of k points=    10  Methfessel-Paxton smearing, width (Ry)=  0.0100
                       cart. coord. in units 2pi/alat
        k(    1) = (   0.0000000   0.0000000   0.0000000), wk =   0.1250000
        k(    2) = (   0.0000000   0.1949901   0.0000000), wk =   0.2500000
        k(    3) = (   0.0000000  -0.3899801   0.0000000), wk =   0.1250000
        k(    4) = (   0.2500000   0.0000000   0.0000000), wk =   0.2500000
        k(    5) = (   0.2500000   0.1949901   0.0000000), wk =   0.2500000
        k(    6) = (   0.2500000  -0.3899801   0.0000000), wk =   0.2500000
        k(    7) = (  -0.5000000   0.0000000   0.0000000), wk =   0.1250000
        k(    8) = (  -0.5000000   0.1949901   0.0000000), wk =   0.2500000
        k(    9) = (  -0.5000000  -0.3899801   0.0000000), wk =   0.1250000
        k(   10) = (  -0.2500000   0.1949901   0.0000000), wk =   0.2500000

     Dense  grid:  1314909 G-vectors     FFT dimensions: (  75,  96, 375)

     Smooth grid:   238057 G-vectors     FFT dimensions: (  45,  54, 216)

     Largest allocated arrays     est. size (Mb)     dimensions
        Kohn-Sham Wavefunctions        40.59 Mb     (   7494,  355)
        Atomic wavefunctions           21.61 Mb     (   7494,  189)
        NL pseudopotentials            47.34 Mb     (   7494,  414)
        Each V/rho on FFT grid         10.33 Mb     ( 676800)
        Each G-vector array             2.51 Mb     ( 328726)
        G-vector shells                 1.08 Mb     ( 142042)
     Largest temporary arrays     est. size (Mb)     dimensions
        Auxiliary wavefunctions       162.38 Mb     (   7494, 1420)
        Each subspace H/S matrix       30.77 Mb     (1420,1420)
        Each <psi_i|beta_j> matrix      2.24 Mb     (    414,  355)
        Arrays for rho mixing          82.62 Mb     ( 676800,   8)

     Check: negative/imaginary core charge=   -0.000003    0.000000

     Initial potential from superposition of free atoms
     Check: negative starting charge=   -0.002157

     starting charge  236.99142, renormalised to  237.00000

     negative rho (up, down):  0.216E-02 0.000E+00
     Number of +U iterations with fixed ns =  0
     Starting occupations:
 --- enter write_ns ---
 LDA+U parameters:
U( 2)     =  0.50000000
alpha( 2) =  0.00000000
atom    3   Tr[ns(na)] =   5.00000
    eigenvalues: 
  0.500  0.500  0.500  0.500  0.500
    eigenvectors:
  1.000  0.000  0.000  0.000  0.000
  0.000  1.000  0.000  0.000  0.000
  0.000  0.000  1.000  0.000  0.000
  0.000  0.000  0.000  1.000  0.000
  0.000  0.000  0.000  0.000  1.000
    occupations:
  0.500  0.000  0.000  0.000  0.000
  0.000  0.500  0.000  0.000  0.000
  0.000  0.000  0.500  0.000  0.000
  0.000  0.000  0.000  0.500  0.000
  0.000  0.000  0.000  0.000  0.500
atom    4   Tr[ns(na)] =   5.00000
    eigenvalues: 
  0.500  0.500  0.500  0.500  0.500
    eigenvectors:
  1.000  0.000  0.000  0.000  0.000
  0.000  1.000  0.000  0.000  0.000
  0.000  0.000  1.000  0.000  0.000
  0.000  0.000  0.000  1.000  0.000
  0.000  0.000  0.000  0.000  1.000
    occupations:
  0.500  0.000  0.000  0.000  0.000
  0.000  0.500  0.000  0.000  0.000
  0.000  0.000  0.500  0.000  0.000
  0.000  0.000  0.000  0.500  0.000
  0.000  0.000  0.000  0.000  0.500
atom    9   Tr[ns(na)] =   5.00000
    eigenvalues: 
  0.500  0.500  0.500  0.500  0.500
    eigenvectors:
  1.000  0.000  0.000  0.000  0.000
  0.000  1.000  0.000  0.000  0.000
  0.000  0.000  1.000  0.000  0.000
  0.000  0.000  0.000  1.000  0.000
  0.000  0.000  0.000  0.000  1.000
    occupations:
  0.500  0.000  0.000  0.000  0.000
  0.000  0.500  0.000  0.000  0.000
  0.000  0.000  0.500  0.000  0.000
  0.000  0.000  0.000  0.500  0.000
  0.000  0.000  0.000  0.000  0.500
atom   10   Tr[ns(na)] =   5.00000
    eigenvalues: 
  0.500  0.500  0.500  0.500  0.500
    eigenvectors:
  1.000  0.000  0.000  0.000  0.000
  0.000  1.000  0.000  0.000  0.000
  0.000  0.000  1.000  0.000  0.000
  0.000  0.000  0.000  1.000  0.000
  0.000  0.000  0.000  0.000  1.000
    occupations:
  0.500  0.000  0.000  0.000  0.000
  0.000  0.500  0.000  0.000  0.000
  0.000  0.000  0.500  0.000  0.000
  0.000  0.000  0.000  0.500  0.000
  0.000  0.000  0.000  0.000  0.500
atom   16   Tr[ns(na)] =   5.00000
    eigenvalues: 
  0.500  0.500  0.500  0.500  0.500
    eigenvectors:
  1.000  0.000  0.000  0.000  0.000
  0.000  1.000  0.000  0.000  0.000
  0.000  0.000  1.000  0.000  0.000
  0.000  0.000  0.000  1.000  0.000
  0.000  0.000  0.000  0.000  1.000
    occupations:
  0.500  0.000  0.000  0.000  0.000
  0.000  0.500  0.000  0.000  0.000
  0.000  0.000  0.500  0.000  0.000
  0.000  0.000  0.000  0.500  0.000
  0.000  0.000  0.000  0.000  0.500
atom   17   Tr[ns(na)] =   5.00000
    eigenvalues: 
  0.500  0.500  0.500  0.500  0.500
    eigenvectors:
  1.000  0.000  0.000  0.000  0.000
  0.000  1.000  0.000  0.000  0.000
  0.000  0.000  1.000  0.000  0.000
  0.000  0.000  0.000  1.000  0.000
  0.000  0.000  0.000  0.000  1.000
    occupations:
  0.500  0.000  0.000  0.000  0.000
  0.000  0.500  0.000  0.000  0.000
  0.000  0.000  0.500  0.000  0.000
  0.000  0.000  0.000  0.500  0.000
  0.000  0.000  0.000  0.000  0.500
atom   22   Tr[ns(na)] =   5.00000
    eigenvalues: 
  0.500  0.500  0.500  0.500  0.500
    eigenvectors:
  1.000  0.000  0.000  0.000  0.000
  0.000  1.000  0.000  0.000  0.000
  0.000  0.000  1.000  0.000  0.000
  0.000  0.000  0.000  1.000  0.000
  0.000  0.000  0.000  0.000  1.000
    occupations:
  0.500  0.000  0.000  0.000  0.000
  0.000  0.500  0.000  0.000  0.000
  0.000  0.000  0.500  0.000  0.000
  0.000  0.000  0.000  0.500  0.000
  0.000  0.000  0.000  0.000  0.500
atom   23   Tr[ns(na)] =   5.00000
    eigenvalues: 
  0.500  0.500  0.500  0.500  0.500
    eigenvectors:
  1.000  0.000  0.000  0.000  0.000
  0.000  1.000  0.000  0.000  0.000
  0.000  0.000  1.000  0.000  0.000
  0.000  0.000  0.000  1.000  0.000
  0.000  0.000  0.000  0.000  1.000
    occupations:
  0.500  0.000  0.000  0.000  0.000
  0.000  0.500  0.000  0.000  0.000
  0.000  0.000  0.500  0.000  0.000
  0.000  0.000  0.000  0.500  0.000
  0.000  0.000  0.000  0.000  0.500
N of occupied +U levels =  40.0000000
 --- exit write_ns ---
 Atomic wfc used for LDA+U Projector are NOT orthogonalized
     Starting wfc are  189 randomized atomic wfcs

     total cpu time spent up to now is      104.5 secs

     per-process dynamical memory:   392.0 Mb

     Self-consistent Calculation

     iteration #  1     ecut=    40.00 Ry     beta=0.70
     Davidson diagonalization with overlap
     ethr =  1.00E-02,  avg # of iterations =  6.0
 --- enter write_ns ---
 LDA+U parameters:
U( 2)     =  0.50000000
alpha( 2) =  0.00000000
atom    3   Tr[ns(na)] =   5.01155
    eigenvalues: 
  0.329  0.431  0.480  0.560  0.705
    eigenvectors:
  0.004  0.000  0.442  0.000  0.554
  0.000  1.000  0.000  0.000  0.000
  0.994  0.000  0.001  0.001  0.004
  0.000  0.000  0.557  0.000  0.442
  0.001  0.000  0.000  0.999  0.000
    occupations:
  0.604 -0.000  0.020 -0.111 -0.000
 -0.000  0.431 -0.000 -0.001 -0.002
  0.020 -0.000  0.331 -0.012  0.007
 -0.111 -0.001 -0.012  0.580  0.000
 -0.000 -0.002  0.007  0.000  0.560
atom    4   Tr[ns(na)] =   4.99162
    eigenvalues: 
  0.310  0.436  0.487  0.574  0.689
    eigenvectors:
  0.000  0.000  0.972  0.000  0.028
  0.000  0.000  0.000  0.999  0.000
  1.000  0.000  0.000  0.000  0.000
  0.000  0.000  0.028  0.000  0.972
  0.000  1.000  0.000  0.000  0.000
    occupations:
  0.493  0.002  0.001 -0.033  0.000
  0.002  0.574  0.004  0.000 -0.001
  0.001  0.004  0.310 -0.000  0.001
 -0.033  0.000 -0.000  0.683  0.000
  0.000 -0.001  0.001  0.000  0.436
atom    9   Tr[ns(na)] =   4.86369
    eigenvalues: 
  0.361  0.454  0.495  0.497  0.627
    eigenvectors:
  0.000  0.000  0.124  0.227  0.649
  0.000  0.000  0.647  0.353  0.000
  0.968  0.032  0.000  0.000  0.000
  0.000  0.000  0.228  0.421  0.351
  0.032  0.968  0.000  0.000  0.000
    occupations:
  0.581 -0.001 -0.001 -0.062 -0.002
 -0.001  0.495  0.000 -0.001 -0.000
 -0.001  0.000  0.364  0.001  0.016
 -0.062 -0.001  0.001  0.542  0.001
 -0.002 -0.000  0.016  0.001  0.451
atom   10   Tr[ns(na)] =   4.60016
    eigenvalues: 
  0.303  0.401  0.430  0.464  0.703
    eigenvectors:
  0.000  0.984  0.000  0.000  0.016
  0.000  0.000  0.000  1.000  0.000
  1.000  0.000  0.000  0.000  0.000
  0.000  0.016  0.000  0.000  0.984
  0.000  0.000  1.000  0.000  0.000
    occupations:
  0.405  0.000 -0.001 -0.038  0.000
  0.000  0.463 -0.000  0.000  0.001
 -0.001 -0.000  0.303 -0.003 -0.000
 -0.038  0.000 -0.003  0.698 -0.000
  0.000  0.001 -0.000 -0.000  0.430
atom   16   Tr[ns(na)] =   5.00979
    eigenvalues: 
  0.328  0.431  0.480  0.560  0.706
    eigenvectors:
  0.004  0.000  0.441  0.000  0.554
  0.000  1.000  0.000  0.000  0.000
  0.994  0.000  0.001  0.001  0.004
  0.000  0.000  0.557  0.000  0.442
  0.001  0.000  0.000  0.999  0.000
    occupations:
  0.604  0.000  0.020 -0.112  0.000
  0.000  0.431  0.000  0.001 -0.002
  0.020  0.000  0.330 -0.012 -0.007
 -0.112  0.001 -0.012  0.580 -0.000
  0.000 -0.002 -0.007 -0.000  0.559
atom   17   Tr[ns(na)] =   5.03660
    eigenvalues: 
  0.325  0.437  0.489  0.575  0.693
    eigenvectors:
  0.000  0.000  0.971  0.000  0.029
  0.000  0.000  0.000  1.000  0.000
  1.000  0.000  0.000  0.000  0.000
  0.000  0.000  0.029  0.000  0.971
  0.000  1.000  0.000  0.000  0.000
    occupations:
  0.495  0.001  0.001 -0.034  0.000
  0.001  0.574  0.004  0.001 -0.000
  0.001  0.004  0.325 -0.001  0.000
 -0.034  0.001 -0.001  0.687  0.000
  0.000 -0.000  0.000  0.000  0.437
atom   22   Tr[ns(na)] =   4.88176
    eigenvalues: 
  0.360  0.456  0.493  0.497  0.635
    eigenvectors:
  0.000  0.000  0.059  0.289  0.652
  0.000  0.000  0.829  0.171  0.000
  0.970  0.030  0.000  0.000  0.000
  0.000  0.000  0.112  0.541  0.348
  0.030  0.970  0.000  0.000  0.000
    occupations:
  0.587  0.001 -0.001 -0.066  0.000
  0.001  0.494 -0.000  0.001 -0.000
 -0.001 -0.000  0.363  0.002 -0.017
 -0.066  0.001  0.002  0.544  0.000
  0.000 -0.000 -0.017  0.000  0.453
atom   23   Tr[ns(na)] =   4.78520
    eigenvalues: 
  0.323  0.435  0.464  0.498  0.673
    eigenvectors:
  0.000  0.000  0.000  0.957  0.043
  0.000  0.014  0.986  0.000  0.000
  0.999  0.000  0.000  0.000  0.000
  0.000  0.000  0.000  0.042  0.957
  0.000  0.986  0.014  0.000  0.000
    occupations:
  0.506 -0.000  0.003 -0.035 -0.000
 -0.000  0.464  0.000  0.000 -0.003
  0.003  0.000  0.323  0.005  0.000
 -0.035  0.000  0.005  0.665  0.000
 -0.000 -0.003  0.000  0.000  0.435
N of occupied +U levels =  39.1803728
 --- exit write_ns ---

     negative rho (up, down):  0.310E-02 0.000E+00

     total cpu time spent up to now is      448.7 secs

     total energy              =   -1760.76738208 Ry
     Harris-Foulkes estimate   =   -1767.28787055 Ry
     estimated scf accuracy    <       8.52534692 Ry

     iteration #  2     ecut=    40.00 Ry     beta=0.70
     Davidson diagonalization with overlap
     ethr =  3.60E-03,  avg # of iterations =  2.3

     negative rho (up, down):  0.102E-01 0.000E+00

     total cpu time spent up to now is      629.2 secs

     total energy              =   -1749.01657884 Ry
     Harris-Foulkes estimate   =   -1775.31038492 Ry
     estimated scf accuracy    <     113.34775941 Ry

     iteration #  3     ecut=    40.00 Ry     beta=0.70
     Davidson diagonalization with overlap
     ethr =  3.60E-03,  avg # of iterations =  4.4

     negative rho (up, down):  0.381E-02 0.000E+00

     total cpu time spent up to now is      836.2 secs

     total energy              =   -1745.43437031 Ry
     Harris-Foulkes estimate   =   -1776.03579410 Ry
     estimated scf accuracy    <     473.78013753 Ry

     iteration #  4     ecut=    40.00 Ry     beta=0.70
     Davidson diagonalization with overlap
     ethr =  3.60E-03,  avg # of iterations =  4.2

     negative rho (up, down):  0.263E-02 0.000E+00

     total cpu time spent up to now is     1044.2 secs

     total energy              =   -1762.75885207 Ry
     Harris-Foulkes estimate   =   -1768.29905858 Ry
     estimated scf accuracy    <      57.64824469 Ry

     iteration #  5     ecut=    40.00 Ry     beta=0.70
     Davidson diagonalization with overlap
     ethr =  3.60E-03,  avg # of iterations =  3.0

     negative rho (up, down):  0.147E-02 0.000E+00

     total cpu time spent up to now is     1222.6 secs

     total energy              =   -1765.19190446 Ry
     Harris-Foulkes estimate   =   -1765.82745608 Ry
     estimated scf accuracy    <       3.00043927 Ry

     iteration #  6     ecut=    40.00 Ry     beta=0.70
     Davidson diagonalization with overlap
     ethr =  1.27E-03,  avg # of iterations =  1.9

     negative rho (up, down):  0.132E-02 0.000E+00

     total cpu time spent up to now is     1389.9 secs

     total energy              =   -1765.26728020 Ry
     Harris-Foulkes estimate   =   -1765.65618256 Ry
     estimated scf accuracy    <       2.35581658 Ry

     iteration #  7     ecut=    40.00 Ry     beta=0.70
     Davidson diagonalization with overlap
     ethr =  9.94E-04,  avg # of iterations =  2.6

     negative rho (up, down):  0.122E-02 0.000E+00

     total cpu time spent up to now is     1557.9 secs

     total energy              =   -1765.38333585 Ry
     Harris-Foulkes estimate   =   -1765.47462959 Ry
     estimated scf accuracy    <       0.71686163 Ry

     iteration #  8     ecut=    40.00 Ry     beta=0.70
     Davidson diagonalization with overlap
     ethr =  3.02E-04,  avg # of iterations =  3.8

     negative rho (up, down):  0.121E-02 0.000E+00

     total cpu time spent up to now is     1732.9 secs

     total energy              =   -1765.37355043 Ry
     Harris-Foulkes estimate   =   -1765.43242458 Ry
     estimated scf accuracy    <       0.39221529 Ry

     iteration #  9     ecut=    40.00 Ry     beta=0.70
     Davidson diagonalization with overlap
     ethr =  1.65E-04,  avg # of iterations =  5.2

     negative rho (up, down):  0.132E-02 0.000E+00

     total cpu time spent up to now is     1917.2 secs

     total energy              =   -1765.35580889 Ry
     Harris-Foulkes estimate   =   -1765.40425916 Ry
     estimated scf accuracy    <       0.21011779 Ry

     iteration # 10     ecut=    40.00 Ry     beta=0.70
     Davidson diagonalization with overlap
     ethr =  8.87E-05,  avg # of iterations =  5.2

     negative rho (up, down):  0.176E-02 0.000E+00

     total cpu time spent up to now is     2110.0 secs

     total energy              =   -1765.34934818 Ry
     Harris-Foulkes estimate   =   -1765.38145445 Ry
     estimated scf accuracy    <       0.18613327 Ry

     iteration # 11     ecut=    40.00 Ry     beta=0.70
     Davidson diagonalization with overlap
     ethr =  7.85E-05,  avg # of iterations =  4.0

     negative rho (up, down):  0.207E-02 0.000E+00

     total cpu time spent up to now is     2289.8 secs

     total energy              =   -1765.35399198 Ry
     Harris-Foulkes estimate   =   -1765.37160043 Ry
     estimated scf accuracy    <       0.10707354 Ry

     iteration # 12     ecut=    40.00 Ry     beta=0.70
     Davidson diagonalization with overlap
     ethr =  4.52E-05,  avg # of iterations =  1.1

     negative rho (up, down):  0.241E-02 0.000E+00

     total cpu time spent up to now is     2454.0 secs

     total energy              =   -1765.35437383 Ry
     Harris-Foulkes estimate   =   -1765.36653118 Ry
     estimated scf accuracy    <       0.03724007 Ry

     iteration # 13     ecut=    40.00 Ry     beta=0.70
     Davidson diagonalization with overlap
     ethr =  1.57E-05,  avg # of iterations =  6.1

     negative rho (up, down):  0.205E-02 0.000E+00

     total cpu time spent up to now is     2656.1 secs

     total energy              =   -1765.34953235 Ry
     Harris-Foulkes estimate   =   -1765.37690094 Ry
     estimated scf accuracy    <       0.25003207 Ry

     iteration # 14     ecut=    40.00 Ry     beta=0.70
     Davidson diagonalization with overlap
     ethr =  1.57E-05,  avg # of iterations =  6.3

     negative rho (up, down):  0.212E-02 0.000E+00

     total cpu time spent up to now is     2853.5 secs

     total energy              =   -1765.36127798 Ry
     Harris-Foulkes estimate   =   -1765.36362738 Ry
     estimated scf accuracy    <       0.00707431 Ry

     iteration # 15     ecut=    40.00 Ry     beta=0.70
     Davidson diagonalization with overlap
     ethr =  2.98E-06,  avg # of iterations =  4.8

     negative rho (up, down):  0.230E-02 0.000E+00

     total cpu time spent up to now is     3040.4 secs

     total energy              =   -1765.36129936 Ry
     Harris-Foulkes estimate   =   -1765.36394002 Ry
     estimated scf accuracy    <       0.02333534 Ry

     iteration # 16     ecut=    40.00 Ry     beta=0.70
     Davidson diagonalization with overlap
     ethr =  2.98E-06,  avg # of iterations =  3.0

     negative rho (up, down):  0.246E-02 0.000E+00

     total cpu time spent up to now is     3213.8 secs

     total energy              =   -1765.36180867 Ry
     Harris-Foulkes estimate   =   -1765.36369570 Ry
     estimated scf accuracy    <       0.01087623 Ry

     iteration # 17     ecut=    40.00 Ry     beta=0.70
     Davidson diagonalization with overlap
     ethr =  2.98E-06,  avg # of iterations =  1.0

     negative rho (up, down):  0.279E-02 0.000E+00

     total cpu time spent up to now is     3380.0 secs

     total energy              =   -1765.36258851 Ry
     Harris-Foulkes estimate   =   -1765.36312689 Ry
     estimated scf accuracy    <       0.00394216 Ry

     iteration # 18     ecut=    40.00 Ry     beta=0.70
     Davidson diagonalization with overlap
     ethr =  1.66E-06,  avg # of iterations =  1.0

     negative rho (up, down):  0.285E-02 0.000E+00

     total cpu time spent up to now is     3545.1 secs

     total energy              =   -1765.36278685 Ry
     Harris-Foulkes estimate   =   -1765.36291851 Ry
     estimated scf accuracy    <       0.00055026 Ry

     iteration # 19     ecut=    40.00 Ry     beta=0.70
     Davidson diagonalization with overlap
     ethr =  2.32E-07,  avg # of iterations =  1.0

     negative rho (up, down):  0.295E-02 0.000E+00

     total cpu time spent up to now is     3718.3 secs

     total energy              =   -1765.36282591 Ry
     Harris-Foulkes estimate   =   -1765.36290272 Ry
     estimated scf accuracy    <       0.00038553 Ry

     iteration # 20     ecut=    40.00 Ry     beta=0.70
     Davidson diagonalization with overlap
     ethr =  1.63E-07,  avg # of iterations =  1.0

     negative rho (up, down):  0.308E-02 0.000E+00

     total cpu time spent up to now is     3885.8 secs

     total energy              =   -1765.36284463 Ry
     Harris-Foulkes estimate   =   -1765.36289064 Ry
     estimated scf accuracy    <       0.00022093 Ry

     iteration # 21     ecut=    40.00 Ry     beta=0.70
     Davidson diagonalization with overlap
     ethr =  9.32E-08,  avg # of iterations =  1.0

     negative rho (up, down):  0.314E-02 0.000E+00

     total cpu time spent up to now is     4056.9 secs

     total energy              =   -1765.36285807 Ry
     Harris-Foulkes estimate   =   -1765.36287964 Ry
     estimated scf accuracy    <       0.00012237 Ry

     iteration # 22     ecut=    40.00 Ry     beta=0.70
     Davidson diagonalization with overlap
     ethr =  5.16E-08,  avg # of iterations =  1.0

     negative rho (up, down):  0.319E-02 0.000E+00

     total cpu time spent up to now is     4230.5 secs

     total energy              =   -1765.36286724 Ry
     Harris-Foulkes estimate   =   -1765.36287079 Ry
     estimated scf accuracy    <       0.00001395 Ry

     iteration # 23     ecut=    40.00 Ry     beta=0.70
     Davidson diagonalization with overlap
     ethr =  5.89E-09,  avg # of iterations =  1.0

     negative rho (up, down):  0.324E-02 0.000E+00

     total cpu time spent up to now is     4403.6 secs

     total energy              =   -1765.36286395 Ry
     Harris-Foulkes estimate   =   -1765.36287494 Ry
     estimated scf accuracy    <       0.00013781 Ry

     iteration # 24     ecut=    40.00 Ry     beta=0.70
     Davidson diagonalization with overlap
     ethr =  5.89E-09,  avg # of iterations =  1.0

     negative rho (up, down):  0.329E-02 0.000E+00

     total cpu time spent up to now is     4576.8 secs

     total energy              =   -1765.36286939 Ry
     Harris-Foulkes estimate   =   -1765.36286994 Ry
     estimated scf accuracy    <       0.00000305 Ry

     iteration # 25     ecut=    40.00 Ry     beta=0.70
     Davidson diagonalization with overlap
     ethr =  1.29E-09,  avg # of iterations =  1.0

     negative rho (up, down):  0.330E-02 0.000E+00

     total cpu time spent up to now is     4751.0 secs

     total energy              =   -1765.36286942 Ry
     Harris-Foulkes estimate   =   -1765.36286984 Ry
     estimated scf accuracy    <       0.00000196 Ry

     iteration # 26     ecut=    40.00 Ry     beta=0.70
     Davidson diagonalization with overlap
     ethr =  8.28E-10,  avg # of iterations =  1.0

     negative rho (up, down):  0.331E-02 0.000E+00

     total cpu time spent up to now is     4927.5 secs

     total energy              =   -1765.36286943 Ry
     Harris-Foulkes estimate   =   -1765.36286985 Ry
     estimated scf accuracy    <       0.00000271 Ry

     iteration # 27     ecut=    40.00 Ry     beta=0.70
     Davidson diagonalization with overlap
     ethr =  8.28E-10,  avg # of iterations =  1.0

     negative rho (up, down):  0.332E-02 0.000E+00

     total cpu time spent up to now is     5108.3 secs

     total energy              =   -1765.36286954 Ry
     Harris-Foulkes estimate   =   -1765.36286979 Ry
     estimated scf accuracy    <       0.00000165 Ry

     iteration # 28     ecut=    40.00 Ry     beta=0.70
     Davidson diagonalization with overlap
     ethr =  6.98E-10,  avg # of iterations =  1.0

     negative rho (up, down):  0.334E-02 0.000E+00

     total cpu time spent up to now is     5289.9 secs

     End of self-consistent calculation
 --- enter write_ns ---
 LDA+U parameters:
U( 2)     =  0.50000000
alpha( 2) =  0.00000000
atom    3   Tr[ns(na)] =   5.81921
    eigenvalues: 
  0.514  0.515  0.562  0.593  0.725
    eigenvectors:
  0.000  0.016  0.346  0.000  0.638
  0.969  0.028  0.002  0.001  0.000
  0.029  0.938  0.005  0.018  0.009
  0.001  0.000  0.645  0.001  0.353
  0.000  0.019  0.001  0.980  0.000
    occupations:
  0.666 -0.003  0.018 -0.077 -0.000
 -0.003  0.514 -0.001 -0.001 -0.002
  0.018 -0.001  0.519 -0.009  0.010
 -0.077 -0.001 -0.009  0.620  0.000
 -0.000 -0.002  0.010  0.000  0.592
atom    4   Tr[ns(na)] =   5.80583
    eigenvalues: 
  0.473  0.523  0.577  0.616  0.714
    eigenvectors:
  0.000  0.000  0.989  0.010  0.001
  0.001  0.000  0.010  0.989  0.000
  0.999  0.000  0.000  0.001  0.000
  0.000  0.000  0.001  0.000  0.998
  0.000  1.000  0.000  0.000  0.000
    occupations:
  0.577  0.004  0.000 -0.005  0.000
  0.004  0.616  0.005 -0.001  0.000
  0.000  0.005  0.473  0.000  0.000
 -0.005 -0.001  0.000  0.714  0.000
  0.000  0.000  0.000  0.000  0.523
atom    9   Tr[ns(na)] =   5.81273
    eigenvalues: 
  0.515  0.541  0.584  0.590  0.675
    eigenvectors:
  0.000  0.000  0.224  0.006  0.770
  0.000  0.000  0.025  0.975  0.000
  0.198  0.802  0.000  0.000  0.000
  0.000  0.000  0.751  0.018  0.230
  0.802  0.198  0.000  0.000  0.000
    occupations:
  0.654 -0.000 -0.001 -0.038 -0.002
 -0.000  0.590 -0.000 -0.001  0.000
 -0.001 -0.000  0.536  0.000  0.010
 -0.038 -0.001  0.000  0.605  0.000
 -0.002  0.000  0.010  0.000  0.521
atom   10   Tr[ns(na)] =   5.75481
    eigenvalues: 
  0.498  0.517  0.520  0.621  0.721
    eigenvectors:
  0.987  0.011  0.000  0.000  0.001
  0.000  0.000  0.000  1.000  0.000
  0.011  0.984  0.005  0.000  0.000
  0.001  0.000  0.000  0.000  0.999
  0.000  0.005  0.995  0.000  0.000
    occupations:
  0.499  0.000 -0.002 -0.007  0.000
  0.000  0.621 -0.000  0.000  0.000
 -0.002 -0.000  0.517 -0.001 -0.000
 -0.007  0.000 -0.001  0.721  0.000
  0.000  0.000 -0.000  0.000  0.520
atom   16   Tr[ns(na)] =   5.81895
    eigenvalues: 
  0.514  0.514  0.562  0.594  0.726
    eigenvectors:
  0.000  0.015  0.347  0.000  0.638
  0.891  0.106  0.002  0.001  0.000
  0.108  0.859  0.005  0.020  0.009
  0.001  0.000  0.646  0.001  0.352
  0.000  0.020  0.001  0.979  0.000
    occupations:
  0.666  0.003  0.018 -0.077  0.000
  0.003  0.514  0.001  0.001 -0.002
  0.018  0.001  0.518 -0.009 -0.011
 -0.077  0.001 -0.009  0.620 -0.000
  0.000 -0.002 -0.011 -0.000  0.592
atom   17   Tr[ns(na)] =   5.81335
    eigenvalues: 
  0.480  0.523  0.578  0.614  0.712
    eigenvectors:
  0.000  0.000  0.989  0.009  0.002
  0.001  0.000  0.009  0.990  0.000
  0.999  0.000  0.000  0.001  0.000
  0.000  0.000  0.002  0.000  0.998
  0.000  1.000  0.000  0.000  0.000
    occupations:
  0.579  0.003  0.000 -0.006  0.000
  0.003  0.613  0.004 -0.001 -0.001
  0.000  0.004  0.480  0.000  0.000
 -0.006 -0.001  0.000  0.712  0.000
  0.000 -0.001  0.000  0.000  0.523
atom   22   Tr[ns(na)] =   5.81272
    eigenvalues: 
  0.515  0.540  0.584  0.589  0.679
    eigenvectors:
  0.000  0.000  0.218  0.014  0.768
  0.000  0.000  0.055  0.945  0.000
  0.209  0.791  0.000  0.000  0.000
  0.000  0.000  0.727  0.041  0.232
  0.791  0.209  0.000  0.000  0.000
    occupations:
  0.657  0.000 -0.001 -0.040 -0.001
  0.000  0.589 -0.000  0.001 -0.000
 -0.001 -0.000  0.535  0.000 -0.010
 -0.040  0.001  0.000  0.606  0.000
 -0.001 -0.000 -0.010  0.000  0.520
atom   23   Tr[ns(na)] =   5.82917
    eigenvalues: 
  0.527  0.531  0.552  0.575  0.730
    eigenvectors:
  0.000  0.002  0.000  0.988  0.010
  0.022  0.000  0.978  0.000  0.000
  0.000  0.997  0.000  0.002  0.000
  0.000  0.000  0.000  0.009  0.990
  0.978  0.000  0.022  0.000  0.000
    occupations:
  0.576  0.000  0.002 -0.015  0.000
  0.000  0.551  0.000 -0.000 -0.004
  0.002  0.000  0.531  0.002  0.000
 -0.015 -0.000  0.002  0.729 -0.000
  0.000 -0.004  0.000 -0.000  0.527
N of occupied +U levels =  46.4667821
 --- exit write_ns ---

          k = 0.0000 0.0000 0.0000 ( 29769 PWs)   bands (ev):

   -62.1253 -62.0418 -62.0016 -61.9337 -61.9087 -61.8730 -61.8163 -61.7919
   -36.8458 -36.5341 -36.4647 -36.4479 -36.4251 -36.4153 -36.3390 -36.3010
   -36.2422 -36.1751 -36.0877 -36.0664 -36.0625 -36.0550 -36.0532 -36.0297
   -35.8886 -35.8635 -35.8449 -35.8351 -35.7421 -35.4876 -35.3984 -35.3844
   -22.7832 -20.4570 -20.0894 -19.6926 -19.5386 -19.4067 -19.2336 -18.7620
   -18.7584 -18.7341 -18.7021 -18.6912 -18.5504 -18.4810 -18.3709 -18.3671
   -18.2846 -17.6947 -17.4649 -16.5473  -8.5423  -8.2556  -8.1070  -8.0659
    -7.9856  -7.8920  -7.2698  -7.0970  -7.0060  -6.9435  -6.6938  -6.6713
    -6.5740  -6.5320  -6.4737  -6.2604  -6.1449  -6.0352  -5.9543  -5.8662
    -5.8293  -5.7994  -5.6615  -5.5522  -5.3782  -5.0728  -4.9139  -4.8606
    -4.8049  -4.7829  -4.7383  -4.5058  -4.4611  -4.2369  -4.1967  -4.1603
    -4.0246  -3.9755  -3.8345  -3.7882  -3.7338  -3.5379  -3.5096  -3.4190
    -3.3166  -3.1091  -3.0252  -2.9796  -2.8053  -2.7822  -2.7595  -2.7525
    -2.6487  -2.5551  -2.4884  -2.4204  -2.1728  -2.1558  -2.1094  -2.0234
    -1.7475  -1.2264  -0.1980  -0.0932   0.2824   0.4599   0.5842   0.6503
     0.8424   0.9794   1.0947   1.1059   1.1482   1.5229   1.6256   1.6938
     1.8224   2.2950   2.4469   3.0129   3.2479   3.3764   3.3951   3.4089
     3.4643   3.6925   3.9790   4.1133   4.3394   4.4195   4.4526   4.6544
     4.8046   4.8480   4.9256   4.9299   5.1496   5.2022   5.3136   5.3320
     5.5184   5.5291   5.6087   6.1032   6.2636   6.5242   6.6420   6.7143
     7.0822   7.2170   7.3726   7.5406   7.6134   7.6566   7.8788   7.9248
     8.1149   8.2270   8.2517   8.5971   8.8229   8.8699   9.0987   9.1468
     9.1635   9.2579   9.3139   9.3803   9.4891   9.5044   9.7402   9.8591
     9.9699   9.9935  10.0477  10.0935  10.1609  10.2494  10.3745  10.3774
    10.6593  10.6946  10.7562  10.8083  10.9828  11.1399  11.2175  11.2778
    11.3054  11.5500  11.6758  11.7404  11.8443  11.8736  11.9426  12.0828
    12.1091  12.1352  12.1913  12.3928  12.4737  12.4901  12.5241  12.5630
    12.6430  12.6701  12.6946  12.7466  12.7513  12.8256  12.9319  13.0276
    13.1367  13.2118  13.2796  13.3451  13.5053  13.5670  13.5948  13.6940
    13.7402  13.7547  13.8257  13.9060  13.9203  14.0201  14.0462  14.2249
    14.2601  14.3633  14.4081  14.5077  14.5693  14.6054  14.8030  14.9452
    15.0105  15.1425  15.1730  15.1898  15.3226  15.4721  15.4875  15.5483
    15.6944  15.8243  15.8689  16.0119  16.0355  16.0838  16.1170  16.1292
    16.2015  16.2770  16.3574  16.3661  16.3888  16.5220  16.5360  16.6815
    16.7010  16.7625  16.7719  16.8083  16.8749  16.9221  16.9345  16.9957
    17.1119  17.1457  17.3681  17.4699  17.7030  17.7820  17.8096  17.8672
    17.9828  18.0052  18.1283  18.1589  18.2851  18.3476  18.3646  18.4921
    18.6679  18.7359  18.8222  18.9108  18.9810  19.1083  19.2060  19.2959
    19.3257  19.4133  19.4509  19.5160  19.5944  19.6447  19.7664  19.7911
    19.8549  19.8741  19.8982  20.0052  20.0311  20.0827  20.2954  20.3518
    20.3820  20.4254  20.5620  20.5739  20.6100  20.7056  20.8335  20.9588
    21.0964  21.1767  21.2330  21.2796  21.2896  21.3586  21.3877  21.5230
    21.5995  21.6483  21.6748  21.6830  21.7301  21.7671  21.8021  21.8133
    21.8570  21.9895  22.0365  22.0511  22.1295  22.2146  22.2508  22.2833
    22.3168  22.4056  22.4220

          k = 0.0000 0.1950 0.0000 ( 29773 PWs)   bands (ev):

   -62.1252 -62.0418 -62.0016 -61.9336 -61.9087 -61.8729 -61.8163 -61.7919
   -36.8459 -36.5395 -36.4573 -36.4478 -36.4285 -36.4151 -36.3332 -36.3011
   -36.2231 -36.1750 -36.0839 -36.0735 -36.0708 -36.0644 -36.0531 -36.0340
   -35.8883 -35.8634 -35.8449 -35.8351 -35.7420 -35.4876 -35.3969 -35.3860
   -22.7831 -20.4500 -20.0890 -19.5937 -19.4525 -19.3628 -19.1777 -19.0441
   -18.9942 -18.7751 -18.7545 -18.6929 -18.5123 -18.4674 -18.3760 -18.2215
   -18.1504 -17.6948 -17.4650 -16.5463  -8.5315  -8.2695  -8.0987  -8.0651
    -7.6098  -7.5059  -7.3040  -7.2855  -7.1705  -7.1208  -7.0110  -7.0080
    -6.9559  -6.6725  -6.4968  -6.4590  -6.1117  -5.9066  -5.7945  -5.7114
    -5.6378  -5.4972  -5.3110  -5.2836  -5.1629  -4.9856  -4.8767  -4.8180
    -4.8020  -4.7644  -4.7128  -4.7024  -4.6366  -4.5561  -4.4595  -4.1170
    -4.0293  -3.9103  -3.7894  -3.7113  -3.6710  -3.6061  -3.4519  -3.4027
    -3.3158  -3.1031  -3.0852  -3.0304  -2.9748  -2.9477  -2.8602  -2.7971
    -2.7361  -2.5996  -2.4389  -2.3973  -2.2025  -2.0970  -1.7707  -1.6831
    -1.6104  -1.3575  -0.3622  -0.2407  -0.1902   0.0756   0.5062   0.6759
     1.0160   1.2423   1.4720   1.5014   1.5403   1.6085   1.6365   1.7164
     1.8232   2.0804   2.3709   2.8436   3.2952   3.3593   3.4431   3.5328
     3.5482   3.7843   3.9317   4.1074   4.1555   4.3094   4.3431   4.5224
     4.5910   4.6346   4.7005   4.7427   4.8580   4.9789   5.3189   5.5335
     5.5934   5.7677   5.9530   6.2089   6.3640   6.4978   6.5586   6.7046
     6.7397   6.8469   6.9663   7.4135   7.6596   7.8036   7.9904   8.0895
     8.3350   8.4215   8.5373   8.6993   9.0576   9.0761   9.1850   9.2348
     9.2742   9.4048   9.5180   9.5563   9.6462   9.7852   9.8177   9.8907
    10.0795  10.1604  10.2144  10.2738  10.3032  10.3978  10.5065  10.5953
    10.6713  10.7586  10.8645  10.9434  10.9744  11.0193  11.0812  11.1594
    11.3141  11.3456  11.4870  11.5214  11.5316  11.6801  11.7976  11.8199
    11.8764  11.9693  12.0244  12.0652  12.1632  12.3119  12.4411  12.5590
    12.5737  12.6707  12.7874  12.8710  12.9903  13.0150  13.0598  13.2158
    13.2660  13.2811  13.3191  13.3696  13.5546  13.6327  13.6922  13.7123
    13.7539  13.9088  14.0144  14.0330  14.0966  14.1139  14.1845  14.1945
    14.2534  14.3153  14.3469  14.4146  14.4894  14.5895  14.6965  14.8354
    14.8590  15.0073  15.0211  15.1409  15.1761  15.2887  15.3108  15.3862
    15.4431  15.4631  15.6196  15.6708  15.7791  15.8849  15.9326  16.0203
    16.0582  16.0688  16.1287  16.1568  16.3012  16.3423  16.4648  16.5317
    16.6333  16.6927  16.8276  17.0507  17.1236  17.1401  17.1982  17.2549
    17.3634  17.3805  17.5446  17.6225  17.6781  17.8185  17.8363  17.9036
    18.1064  18.1691  18.2277  18.3307  18.3998  18.5248  18.5630  18.5735
    18.6443  18.7755  18.8010  18.8629  18.9373  18.9639  18.9830  19.0703
    19.1067  19.1569  19.2770  19.3523  19.4941  19.5293  19.5738  19.6010
    19.6274  19.7011  19.7297  19.8582  19.8896  19.9573  20.0181  20.0565
    20.1380  20.2224  20.2767  20.2859  20.3937  20.4804  20.5089  20.6163
    20.6789  20.7600  20.9451  20.9858  21.0154  21.2108  21.2353  21.2422
    21.3420  21.4224  21.5048  21.5992  21.7055  21.7342  21.7632  21.8623
    21.9236  21.9585  21.9851  22.0826  22.1154  22.1610  22.2740  22.3525
    22.4050  22.4868  22.6254

          k = 0.0000-0.3900 0.0000 ( 29782 PWs)   bands (ev):

   -62.1250 -62.0418 -62.0016 -61.9335 -61.9087 -61.8730 -61.8164 -61.7919
   -36.8460 -36.5446 -36.4511 -36.4462 -36.4318 -36.4149 -36.3276 -36.3011
   -36.1970 -36.1749 -36.0971 -36.0812 -36.0802 -36.0648 -36.0531 -36.0359
   -35.8880 -35.8634 -35.8449 -35.8351 -35.7420 -35.4877 -35.3947 -35.3881
   -22.7830 -20.4436 -20.0886 -19.4725 -19.4601 -19.1868 -19.1394 -19.0752
   -19.0257 -18.9557 -18.8293 -18.7527 -18.6649 -18.6335 -18.3758 -18.0378
   -17.9638 -17.6951 -17.4651 -16.5452  -8.5219  -8.2875  -8.0915  -8.0633
    -7.5622  -7.5066  -7.4992  -7.3269  -7.2178  -7.0978  -6.9922  -6.7510
    -6.7253  -6.6565  -6.4883  -6.2501  -6.1373  -6.0936  -6.0545  -5.9425
    -5.7306  -5.7101  -5.5641  -5.1391  -5.0972  -4.9198  -4.8568  -4.8065
    -4.8027  -4.7895  -4.7528  -4.6174  -4.5900  -4.2446  -4.2003  -4.1337
    -4.0716  -3.8650  -3.7886  -3.7392  -3.6840  -3.6208  -3.4649  -3.2507
    -3.2284  -3.1865  -3.1711  -3.1391  -3.0332  -2.9937  -2.9628  -2.7922
    -2.7119  -2.5941  -2.3840  -2.3550  -2.2701  -2.1431  -1.7507  -1.5306
    -1.3944  -1.3310  -0.6502  -0.5670  -0.2288  -0.1884   0.4553   0.8509
     1.1727   1.4878   1.5554   1.5733   1.7278   1.8154   1.8469   1.8606
     1.8961   1.9655   2.2324   2.7214   2.9975   3.2459   3.4642   3.5154
     3.6232   3.7301   3.7463   3.9017   4.1762   4.2604   4.3298   4.3475
     4.4054   4.8138   4.8343   4.9214   5.0948   5.1667   5.2564   5.4660
     5.5350   5.5693   5.5906   5.8108   6.0909   6.4264   6.6854   6.8418
     6.8927   7.1154   7.2058   7.2651   7.4930   7.6557   7.7279   8.0579
     8.3259   8.5122   8.6517   8.8125   8.8632   8.9014   9.3338   9.3621
     9.7508   9.7798   9.8460   9.9632  10.0507  10.1063  10.1266  10.2003
    10.2560  10.3417  10.3537  10.4031  10.4449  10.4748  10.6331  10.6452
    10.6980  10.7640  10.8439  10.9157  11.0698  11.0905  11.2682  11.3012
    11.3335  11.3746  11.4664  11.4956  11.5788  11.6180  11.6903  11.8123
    11.8687  11.9662  11.9911  12.0353  12.0573  12.1205  12.1408  12.2041
    12.2554  12.3167  12.3655  12.5674  12.6783  12.8013  12.8711  12.8933
    12.9816  13.0535  13.1775  13.1998  13.2915  13.3277  13.4508  13.5006
    13.5969  13.6678  13.7067  13.9338  14.0946  14.1314  14.1815  14.2381
    14.2867  14.2970  14.3986  14.6460  14.7857  14.8315  14.8620  15.0622
    15.1092  15.1613  15.2803  15.3512  15.4946  15.5131  15.6080  15.7124
    15.7751  15.8110  15.8833  15.9459  16.0278  16.0782  16.0861  16.2108
    16.2732  16.2950  16.3167  16.3719  16.3934  16.4356  16.4733  16.5419
    16.6277  16.7517  16.8123  16.8376  16.8710  16.9594  17.0158  17.0757
    17.1373  17.2260  17.2314  17.3102  17.3828  17.4556  17.5276  17.6309
    17.6804  17.7169  17.8346  17.8720  18.0902  18.1041  18.1116  18.1635
    18.1905  18.3560  18.4349  18.4401  18.5212  18.7456  18.8969  18.9178
    19.0245  19.0400  19.0493  19.1898  19.2251  19.2820  19.2929  19.3681
    19.4901  19.5170  19.6328  19.6629  19.8332  19.8815  19.9122  20.0060
    20.0829  20.3791  20.4299  20.5170  20.5595  20.5647  20.6562  20.7218
    20.8362  20.9757  21.0028  21.0586  21.0741  21.1261  21.2279  21.2442
    21.3112  21.3819  21.7005  21.7348  21.8134  21.8525  21.9915  22.0112
    22.0303  22.1322  22.1926  22.2646  22.2982  22.4997  22.5239  22.5553
    22.6415  22.7989  22.8414

          k = 0.2500 0.0000 0.0000 ( 29757 PWs)   bands (ev):

   -62.1069 -62.0307 -62.0187 -61.9161 -61.8909 -61.8825 -61.8325 -61.8082
   -36.6957 -36.4463 -36.4238 -36.3822 -36.3572 -36.3391 -36.2829 -36.2736
   -36.2186 -36.1566 -36.1093 -36.0714 -36.0406 -36.0381 -36.0317 -36.0037
   -35.9194 -35.9139 -35.8900 -35.8671 -35.8652 -35.6419 -35.5598 -35.5466
   -22.7830 -20.3638 -20.0947 -19.5889 -19.4108 -19.3827 -19.1442 -18.8543
   -18.7561 -18.7061 -18.6759 -18.6459 -18.5894 -18.5800 -18.4184 -18.3594
   -18.3387 -17.7652 -17.6111 -16.5473  -8.3740  -8.2417  -8.1111  -7.7342
    -7.7103  -7.6062  -7.0885  -6.9483  -6.9090  -6.8869  -6.7288  -6.6318
    -6.5508  -6.4780  -6.3931  -6.3073  -6.0596  -6.0022  -5.8488  -5.7954
    -5.7401  -5.7160  -5.6444  -5.4543  -5.4052  -5.3689  -5.3043  -5.1978
    -5.0193  -4.9158  -4.6916  -4.4623  -4.4424  -4.3225  -4.1792  -4.0442
    -3.9020  -3.8285  -3.7711  -3.7113  -3.6947  -3.6107  -3.5669  -3.5403
    -3.4943  -3.4013  -3.3577  -3.0846  -3.0218  -2.9961  -2.9498  -2.8523
    -2.7511  -2.7324  -2.5102  -2.4246  -2.3894  -2.0941  -1.4097  -1.3363
    -1.2810  -1.1380  -0.0905   0.0895   0.2369   0.3306   0.5268   0.6371
     0.8085   0.8568   0.9605   1.1084   1.2433   1.5122   1.5611   1.7558
     1.8420   2.0031   2.1738   2.2362   2.3518   2.3701   2.6248   2.8856
     3.5855   3.6844   4.1668   4.3203   4.4349   4.6336   4.6900   4.7175
     4.7468   4.8321   4.9237   5.0245   5.1354   5.2308   5.2795   5.4059
     5.5301   5.6595   5.8898   6.2343   6.4156   6.4685   6.6749   6.8482
     6.9316   7.1009   7.2610   7.4931   7.5584   7.6669   7.7416   7.8589
     7.9793   8.1272   8.2187   8.3725   8.4143   8.5430   8.8011   8.9838
     9.1549   9.1876   9.2280   9.4389   9.5837   9.5986   9.6745   9.8473
     9.9049   9.9738  10.0605  10.1657  10.2253  10.2760  10.3987  10.4472
    10.5502  10.5823  10.6582  10.7398  10.7542  10.9078  10.9743  11.0428
    11.1202  11.2123  11.4529  11.5721  11.6367  11.7405  11.7702  11.8718
    11.9261  11.9486  12.1661  12.2330  12.3961  12.5384  12.6039  12.6688
    12.7223  12.8561  12.9827  13.0227  13.0297  13.1524  13.2651  13.3673
    13.4357  13.5046  13.7235  13.8622  13.9273  13.9933  14.0159  14.0693
    14.1632  14.2168  14.3249  14.3746  14.4492  14.4884  14.7023  14.7831
    14.8134  14.9368  15.0805  15.1378  15.2015  15.2171  15.2658  15.3369
    15.4066  15.4709  15.5111  15.7352  15.7635  15.8274  15.8473  15.9641
    16.0341  16.0842  16.0905  16.1448  16.2041  16.2333  16.2841  16.4551
    16.5178  16.5427  16.6000  16.6285  16.6952  16.7358  16.8246  16.9108
    16.9281  16.9549  17.0404  17.0612  17.1604  17.2748  17.3075  17.3798
    17.4950  17.5074  17.5684  17.6055  17.7139  17.7977  17.8667  17.9846
    18.0935  18.1354  18.2190  18.2663  18.3033  18.4004  18.4345  18.6146
    18.6634  18.7421  18.8519  18.8992  18.9873  19.0453  19.0919  19.1486
    19.1903  19.2366  19.2727  19.3062  19.4547  19.5062  19.5258  19.5537
    19.6177  19.6635  19.7162  19.7927  19.8501  19.9006  19.9687  19.9857
    20.0061  20.1113  20.1585  20.2181  20.2386  20.3639  20.3901  20.4137
    20.4700  20.5124  20.5773  20.6245  20.6620  20.7629  20.7925  20.9337
    20.9688  21.1533  21.2043  21.2781  21.4075  21.4559  21.5528  21.6044
    21.6434  21.7101  21.8389  21.8720  21.9251  21.9695  22.0021  22.1125
    22.1465  22.1949  22.2708

          k = 0.2500 0.1950 0.0000 ( 29746 PWs)   bands (ev):

   -62.1068 -62.0307 -62.0187 -61.9160 -61.8909 -61.8825 -61.8325 -61.8082
   -36.6958 -36.4411 -36.4288 -36.3937 -36.3399 -36.3374 -36.2880 -36.2742
   -36.2026 -36.1565 -36.1011 -36.0714 -36.0476 -36.0453 -36.0397 -36.0063
   -35.9193 -35.9159 -35.8910 -35.8670 -35.8653 -35.6416 -35.5583 -35.5477
   -22.7829 -20.3592 -20.0944 -19.5293 -19.3846 -19.2719 -19.0942 -19.0206
   -18.9705 -18.8074 -18.7466 -18.6376 -18.5137 -18.4896 -18.3698 -18.3431
   -18.2719 -17.7654 -17.6119 -16.5462  -8.3616  -8.2447  -8.1040  -7.7329
    -7.4042  -7.2950  -7.2839  -7.2034  -7.0261  -6.9177  -6.8734  -6.8364
    -6.7188  -6.5462  -6.4794  -6.2994  -6.0252  -5.9701  -5.8844  -5.7962
    -5.6991  -5.6366  -5.5470  -5.4001  -5.2912  -5.2152  -5.0380  -4.9786
    -4.8677  -4.7572  -4.6584  -4.5783  -4.4297  -4.3116  -4.1554  -4.1134
    -4.0806  -4.0176  -3.9815  -3.9128  -3.8395  -3.7451  -3.6557  -3.5949
    -3.4730  -3.3893  -3.2533  -3.1256  -3.0182  -2.9842  -2.8995  -2.8430
    -2.7479  -2.6862  -2.4801  -2.4170  -2.3582  -2.1336  -1.3351  -1.1790
    -1.0646  -0.9891  -0.2878  -0.0801   0.0726   0.1055   0.5365   0.6257
     0.9543   1.0866   1.1441   1.2768   1.4328   1.5240   1.6792   1.7369
     1.8573   2.0475   2.1600   2.3225   2.3293   2.4348   2.5929   2.8072
     3.6824   3.7443   4.0261   4.0661   4.1940   4.2737   4.3417   4.4549
     4.7013   4.7728   4.9136   4.9618   5.1678   5.2110   5.3518   5.5635
     5.9026   6.0568   6.1567   6.2599   6.3268   6.4303   6.5224   6.5943
     6.7347   6.9451   7.0074   7.2662   7.3412   7.4466   7.7382   7.7921
     8.0921   8.2455   8.4538   8.4828   8.6398   8.7188   8.8784   8.9636
     9.0176   9.1880   9.2479   9.3545   9.5190   9.6112   9.6870   9.7739
     9.8187   9.8864   9.9783  10.0916  10.2237  10.4010  10.5503  10.6368
    10.7028  10.7818  10.8683  10.9285  10.9927  11.0966  11.2971  11.3474
    11.4846  11.6485  11.7250  11.8316  11.9055  11.9384  12.0428  12.1771
    12.2083  12.2568  12.3446  12.3528  12.4601  12.5441  12.6297  12.7945
    12.8965  12.9790  13.0381  13.1388  13.1897  13.2200  13.3494  13.4349
    13.5161  13.5593  13.6382  13.7035  13.7432  13.8365  13.8955  13.9699
    14.0433  14.0815  14.1243  14.1942  14.2312  14.2818  14.3681  14.4001
    14.4514  14.5174  14.6372  14.7429  14.7749  14.8710  14.9103  15.0501
    15.1093  15.2411  15.2711  15.4076  15.4565  15.5142  15.6449  15.6703
    15.7804  15.8729  15.9007  16.0151  16.0643  16.1222  16.2263  16.2874
    16.3325  16.4099  16.4849  16.5638  16.5971  16.6328  16.7093  16.7516
    16.8365  16.9221  16.9711  17.0924  17.1283  17.1830  17.2590  17.3016
    17.3300  17.3737  17.4810  17.5843  17.6764  17.7593  17.8059  17.8769
    18.0566  18.0899  18.1431  18.1861  18.2229  18.3429  18.3946  18.4376
    18.5735  18.6325  18.6774  18.7621  18.9055  18.9489  19.0017  19.0631
    19.1988  19.2556  19.3450  19.4122  19.4341  19.5473  19.6136  19.6926
    19.8229  19.8995  19.9661  20.0270  20.0941  20.1418  20.1786  20.2457
    20.2627  20.3285  20.4031  20.4531  20.4804  20.5158  20.6119  20.7046
    20.7716  20.8121  20.8816  20.9237  20.9829  21.1006  21.1337  21.2167
    21.2973  21.3463  21.3745  21.4515  21.5001  21.5264  21.6027  21.6229
    21.6637  21.7502  21.8110  21.8651  21.9042  21.9486  21.9741  22.0779
    22.1486  22.2306  22.2688

          k = 0.2500-0.3900 0.0000 ( 29726 PWs)   bands (ev):

   -62.1067 -62.0306 -62.0187 -61.9159 -61.8909 -61.8825 -61.8325 -61.8083
   -36.6959 -36.4400 -36.4298 -36.3980 -36.3395 -36.3256 -36.2933 -36.2746
   -36.1817 -36.1564 -36.0924 -36.0715 -36.0677 -36.0535 -36.0399 -36.0076
   -35.9192 -35.9184 -35.8921 -35.8670 -35.8654 -35.6414 -35.5566 -35.5490
   -22.7828 -20.3550 -20.0940 -19.4869 -19.3513 -19.1426 -19.0945 -18.9988
   -18.9554 -18.8766 -18.8184 -18.8041 -18.6965 -18.5447 -18.3633 -18.1961
   -18.1191 -17.7656 -17.6130 -16.5452  -8.3507  -8.2449  -8.0948  -7.7291
    -7.5185  -7.4563  -7.1559  -7.0120  -7.0028  -6.9575  -6.8598  -6.6833
    -6.6339  -6.5562  -6.4196  -6.3873  -6.3208  -6.1773  -6.0081  -5.9726
    -5.7563  -5.6232  -5.4607  -5.1916  -5.1451  -5.0048  -4.9406  -4.9297
    -4.6891  -4.6694  -4.5981  -4.5096  -4.4551  -4.3391  -4.3044  -4.2189
    -4.1777  -4.1320  -4.0849  -4.0153  -3.9530  -3.8316  -3.7780  -3.6301
    -3.4394  -3.3000  -3.2536  -3.0998  -3.0140  -2.9443  -2.8718  -2.7871
    -2.7117  -2.6165  -2.4667  -2.3877  -2.3636  -2.1904  -1.4056  -1.1757
    -0.8630  -0.7978  -0.4613  -0.3248  -0.1797   0.0622   0.5544   0.9007
     1.0299   1.0582   1.4495   1.5125   1.5958   1.6665   1.7675   1.8286
     1.8322   2.0364   2.1605   2.3443   2.3788   2.5526   2.6406   2.8728
     3.3064   3.3124   3.7106   3.7766   3.8462   3.9263   4.3692   4.5156
     4.7581   4.8931   5.0064   5.2270   5.3242   5.3683   5.4998   5.5839
     5.7866   5.8397   5.8946   6.1097   6.3393   6.4534   6.5019   6.7584
     6.7649   6.9093   6.9945   7.0914   7.4459   7.6356   7.6797   7.8708
     7.9759   8.0271   8.0932   8.3076   8.4483   8.6164   8.7213   8.8197
     9.0408   9.1092   9.2349   9.3054   9.4583   9.6729   9.7206   9.8282
    10.0755  10.2029  10.3266  10.4275  10.4909  10.7379  10.7897  10.8149
    10.9433  11.0111  11.0491  11.2291  11.4383  11.5550  11.6021  11.6498
    11.7058  11.9261  11.9382  11.9953  12.0383  12.1271  12.2281  12.2548
    12.3126  12.3353  12.4629  12.4814  12.5086  12.5996  12.7040  12.8666
    12.9087  12.9672  12.9928  13.0395  13.0766  13.1388  13.1710  13.2236
    13.3179  13.3712  13.6172  13.7011  13.7358  13.7896  13.8555  13.8891
    13.9528  13.9894  14.0515  14.0914  14.1284  14.1770  14.1852  14.2627
    14.3560  14.3912  14.5157  14.5859  14.6248  14.6519  14.7288  14.8109
    14.8811  14.9018  15.0471  15.0999  15.1762  15.2326  15.2626  15.3654
    15.4547  15.5094  15.5908  15.6841  15.7485  15.8548  15.8935  16.0267
    16.0972  16.2090  16.2640  16.2914  16.3197  16.4338  16.5284  16.5941
    16.7360  16.9388  17.0188  17.0436  17.0875  17.1275  17.1338  17.2839
    17.3413  17.4984  17.5239  17.5608  17.6511  17.7317  17.8412  17.9966
    18.0499  18.0853  18.1887  18.2345  18.3999  18.4235  18.4845  18.5727
    18.6417  18.6913  18.8032  18.8504  18.9613  19.0724  19.1253  19.1939
    19.2561  19.3338  19.3725  19.4422  19.4532  19.5231  19.6111  19.6708
    19.7066  19.7630  19.8232  19.9313  20.0192  20.0915  20.1060  20.2885
    20.3509  20.4011  20.4801  20.5442  20.5827  20.6014  20.6140  20.7043
    20.7229  20.7416  20.8906  20.9548  20.9962  21.0440  21.0878  21.1113
    21.2028  21.2387  21.3497  21.3704  21.5055  21.5523  21.5871  21.6372
    21.7308  21.7904  21.8464  21.9008  21.9619  22.0064  22.1020  22.1433
    22.1868  22.2640  22.2899

          k =-0.5000 0.0000 0.0000 ( 29752 PWs)   bands (ev):

   -62.0704 -62.0542 -62.0178 -61.8940 -61.8809 -61.8663 -61.8494 -61.8478
   -36.4067 -36.3967 -36.3866 -36.3510 -36.3334 -36.3091 -36.1646 -36.1615
   -36.1334 -36.1184 -36.1076 -35.9975 -35.9850 -35.9680 -35.9631 -35.9455
   -35.9418 -35.9366 -35.9331 -35.9326 -35.9316 -35.9225 -35.9190 -35.9143
   -22.7828 -20.2203 -20.1431 -19.5321 -19.1938 -19.1476 -19.0580 -19.0500
   -18.9130 -18.8882 -18.7306 -18.5595 -18.5441 -18.4780 -18.4766 -18.3406
   -18.3385 -17.8709 -17.8062 -16.5473  -8.1885  -8.1630  -8.1559  -7.2829
    -7.2006  -7.1525  -7.0840  -6.9968  -6.9476  -6.8105  -6.8006  -6.6439
    -6.5153  -6.4375  -6.3773  -6.3213  -6.1753  -6.1286  -5.9656  -5.8226
    -5.7774  -5.5601  -5.1941  -5.1665  -5.1607  -5.1350  -5.0251  -5.0143
    -4.9531  -4.8400  -4.7776  -4.6792  -4.6440  -4.5486  -4.4978  -4.4208
    -4.3480  -4.1875  -4.0613  -3.9920  -3.9295  -3.8735  -3.8259  -3.6945
    -3.6802  -3.4906  -3.4036  -3.0511  -2.9939  -2.9457  -2.9379  -2.6283
    -2.6153  -2.5792  -2.5325  -2.4053  -2.3967  -2.2246  -1.2910  -0.0673
    -0.0118  -0.0060   0.0008   0.0430   0.0986   0.1510   0.1850   0.4333
     0.4627   0.5576   0.5594   0.8497   0.9531   1.0337   1.2677   1.2889
     1.3363   1.3960   1.4083   2.0454   2.0684   2.4117   2.5126   2.5738
     3.5976   4.0779   4.0827   4.4459   4.5613   4.7233   4.7403   4.8428
     4.8474   4.9178   5.1486   5.1661   5.2320   5.2668   5.3278   5.4424
     5.5818   5.7151   5.8404   6.0001   6.0946   6.2453   6.4726   6.7784
     6.8111   6.8238   7.3631   7.4731   7.7140   7.8730   7.9706   8.0597
     8.3027   8.3366   8.3555   8.4924   8.6024   8.6402   8.7333   8.7690
     8.8401   8.8675   8.9616   9.0628   9.1749   9.2343   9.3099   9.4308
     9.5025   9.5309   9.7198  10.0264  10.0419  10.0950  10.2633  10.3995
    10.4112  10.5044  10.5236  10.7149  10.8142  10.9084  10.9687  11.0668
    11.1109  11.1695  11.5413  11.6222  11.7094  11.7813  11.8610  11.9386
    12.0105  12.0902  12.2467  12.3279  12.3855  12.5610  12.6782  12.6981
    12.8936  13.0840  13.1886  13.2909  13.3573  13.4142  13.5198  13.5725
    13.6915  13.7493  14.0410  14.1132  14.1342  14.3861  14.4086  14.6658
    14.7607  14.9136  14.9576  15.0004  15.0258  15.1224  15.1632  15.1762
    15.2213  15.2311  15.3772  15.4243  15.5356  15.5701  15.6127  15.6442
    15.8367  15.8689  15.9174  15.9544  16.0169  16.1015  16.2728  16.3255
    16.3652  16.4093  16.4792  16.5442  16.5958  16.6552  16.7223  16.8754
    16.9057  16.9701  17.0600  17.1335  17.1478  17.1844  17.2404  17.3108
    17.4055  17.4605  17.4931  17.5607  17.6386  17.7416  17.7772  17.8057
    17.8655  17.9043  17.9199  17.9436  18.0439  18.0878  18.0892  18.1639
    18.2005  18.2472  18.2548  18.3280  18.3362  18.4293  18.5076  18.5585
    18.5715  18.6471  18.6737  18.7080  18.7255  18.7535  18.7698  18.8172
    18.9188  18.9340  19.0077  19.0691  19.0835  19.1187  19.1372  19.2359
    19.2768  19.2858  19.3282  19.3597  19.3672  19.4035  19.5045  19.5587
    19.6091  19.6346  19.6679  19.7439  19.8100  20.0367  20.0810  20.1558
    20.2291  20.2776  20.2806  20.3539  20.4908  20.5039  20.5569  20.6248
    20.6496  20.7087  20.7524  20.7885  20.8415  20.8550  20.9249  20.9970
    21.0294  21.1149  21.2139  21.2354  21.2866  21.3899  21.4655  21.4907
    21.6626  21.7989  21.8001

          k =-0.5000 0.1950 0.0000 ( 29720 PWs)   bands (ev):

   -62.0704 -62.0541 -62.0178 -61.8940 -61.8808 -61.8662 -61.8494 -61.8479
   -36.4057 -36.3963 -36.3838 -36.3510 -36.3335 -36.3092 -36.1574 -36.1549
   -36.1311 -36.1184 -36.1075 -36.0021 -35.9966 -35.9783 -35.9634 -35.9455
   -35.9426 -35.9370 -35.9354 -35.9318 -35.9302 -35.9203 -35.9153 -35.9128
   -22.7827 -20.2193 -20.1419 -19.5252 -19.1564 -19.1316 -19.0422 -19.0340
   -18.9509 -18.9146 -18.7559 -18.5610 -18.5431 -18.4838 -18.4780 -18.3370
   -18.3343 -17.8719 -17.8065 -16.5462  -8.1795  -8.1542  -8.1465  -7.2723
    -7.2064  -7.1803  -7.1660  -7.1117  -7.0175  -7.0149  -6.9544  -6.4154
    -6.3860  -6.2701  -6.1646  -6.1411  -6.1094  -5.9720  -5.9255  -5.7055
    -5.6649  -5.5586  -5.3842  -5.3749  -5.3278  -5.3114  -5.0396  -5.0028
    -4.9871  -4.8739  -4.8223  -4.8049  -4.7752  -4.5596  -4.5423  -4.4092
    -4.2969  -4.1146  -4.1017  -4.0255  -4.0034  -3.9590  -3.8555  -3.6571
    -3.6236  -3.4399  -3.4106  -2.9866  -2.9586  -2.9427  -2.8940  -2.6596
    -2.6080  -2.5899  -2.5271  -2.3557  -2.3252  -2.2555  -1.2963  -0.2575
    -0.1061   0.0128   0.0483   0.1502   0.1580   0.2610   0.2942   0.5250
     0.5651   0.6387   0.6641   0.9350   1.0440   1.0741   1.2025   1.2940
     1.4196   1.5817   1.6313   1.9887   2.0014   2.3177   2.3490   2.6699
     3.6115   3.9753   3.9976   4.0553   4.0656   4.1611   4.1945   4.7239
     4.7706   5.0158   5.2844   5.2975   5.4854   5.5637   5.7185   5.7232
     5.8647   5.8678   5.9793   5.9957   6.1736   6.3664   6.5610   6.6907
     6.8224   6.8668   7.1183   7.1373   7.3114   7.3151   7.5290   7.6058
     7.6572   7.8603   7.9772   8.2202   8.2437   8.3534   8.5765   8.6655
     8.9333   9.1870   9.1937   9.3759   9.4337   9.5248   9.5992   9.7265
     9.7866   9.8538  10.1329  10.2220  10.3607  10.4855  10.5038  10.5954
    10.7362  10.7629  10.8492  10.8818  10.9297  11.0271  11.1907  11.3032
    11.4492  11.5777  11.7960  11.8292  11.8821  11.9555  12.0571  12.0866
    12.2158  12.3273  12.3762  12.4538  12.6152  12.7023  12.7634  12.8006
    13.0197  13.0708  13.2444  13.2792  13.3877  13.4193  13.5487  13.7952
    13.8123  14.0570  14.0761  14.1562  14.2276  14.3376  14.4208  14.5624
    14.5907  14.6672  14.7552  14.8043  14.8156  14.8924  14.9463  14.9645
    15.0221  15.0439  15.1099  15.1448  15.2268  15.2609  15.4159  15.4377
    15.5205  15.5716  15.6573  15.7011  15.7645  15.8102  15.8429  15.8927
    15.9387  16.0664  16.1020  16.1583  16.1823  16.1996  16.3533  16.3663
    16.4783  16.5513  16.6223  16.6343  16.7171  16.7389  16.9036  16.9882
    17.0362  17.0811  17.1597  17.2252  17.2950  17.3533  17.3941  17.4099
    17.4388  17.5168  17.5598  17.6375  17.7023  17.7800  17.8184  17.8630
    17.8973  17.9664  17.9922  18.0518  18.1286  18.1798  18.1980  18.2676
    18.3477  18.4159  18.6245  18.7285  18.7546  18.8316  18.8746  18.9049
    18.9864  19.1232  19.1792  19.2443  19.3279  19.3620  19.4261  19.4826
    19.5974  19.6229  19.7356  19.7830  19.8790  19.9149  19.9890  20.0054
    20.2451  20.2665  20.3657  20.4251  20.4381  20.4883  20.4971  20.5563
    20.5667  20.6563  20.6813  20.7983  20.8767  20.9033  20.9732  21.0376
    21.1231  21.1376  21.1842  21.2123  21.2372  21.3069  21.3700  21.4044
    21.4645  21.4771  21.5415  21.5550  21.6922  21.7207  21.8531  21.8588
    21.9627  22.0529  22.0706

          k =-0.5000-0.3900 0.0000 ( 29668 PWs)   bands (ev):

   -62.0703 -62.0540 -62.0178 -61.8940 -61.8808 -61.8661 -61.8494 -61.8479
   -36.4054 -36.3948 -36.3814 -36.3511 -36.3337 -36.3094 -36.1495 -36.1475
   -36.1286 -36.1184 -36.1074 -36.0084 -36.0065 -35.9890 -35.9637 -35.9458
   -35.9429 -35.9381 -35.9373 -35.9296 -35.9288 -35.9175 -35.9140 -35.9121
   -22.7826 -20.2183 -20.1408 -19.5183 -19.1140 -19.0901 -19.0266 -19.0225
   -18.9988 -18.9512 -18.7867 -18.5625 -18.5417 -18.4891 -18.4801 -18.3337
   -18.3303 -17.8729 -17.8068 -16.5452  -8.1691  -8.1438  -8.1368  -7.2524
    -7.2298  -7.1782  -7.1736  -7.1677  -7.1193  -7.1025  -6.9673  -6.4416
    -6.3135  -6.2368  -6.0849  -6.0303  -6.0169  -5.9682  -5.8581  -5.6759
    -5.5581  -5.4988  -5.4794  -5.4674  -5.3404  -5.2899  -5.0077  -5.0007
    -4.9263  -4.9125  -4.8761  -4.7579  -4.6881  -4.5957  -4.5254  -4.4482
    -4.4197  -4.2458  -4.1955  -4.1427  -4.1263  -4.0985  -4.0504  -3.6009
    -3.5476  -3.4152  -3.3156  -2.9867  -2.9411  -2.8953  -2.7505  -2.6792
    -2.6398  -2.5892  -2.5634  -2.4209  -2.2274  -2.1930  -1.2995  -0.2791
    -0.1406  -0.0714  -0.0426   0.0216   0.0777   0.1784   0.2538   0.6686
     0.7129   0.9301   1.0292   1.1825   1.1965   1.3089   1.4054   1.4252
     1.5465   1.7416   1.7750   1.9894   2.0463   2.1016   2.1754   2.7332
     3.3176   3.3416   3.3766   3.4147   3.6642   4.1619   4.2311   4.8692
     4.8815   5.1360   5.3350   5.3666   5.6516   5.7069   5.9419   6.0132
     6.1533   6.2089   6.2499   6.2869   6.4087   6.4120   6.4718   6.4771
     6.5561   6.5616   6.7990   6.8022   6.9547   6.9940   7.2565   7.3722
     7.3992   7.6149   7.7803   8.0729   8.0893   8.4077   8.4615   8.7806
     8.7974   8.9512   8.9919   9.0880   9.4913   9.5274   9.6196   9.8722
     9.9246  10.1083  10.1673  10.2519  10.5148  10.5765  10.8754  10.9254
    11.3106  11.4084  11.4352  11.4721  11.5354  11.6373  11.7146  11.7264
    11.8612  11.9911  12.2554  12.2653  12.4611  12.4692  12.5037  12.5223
    12.5301  12.5789  12.6808  12.7476  12.7805  12.7845  12.8677  12.9459
    12.9594  13.0018  13.0762  13.1533  13.2728  13.3136  13.4395  13.4591
    13.4821  13.5940  13.6066  13.6612  13.8899  13.9048  13.9277  13.9908
    14.0533  14.1250  14.2966  14.4998  14.5266  14.6914  14.6989  14.7991
    14.8144  14.8537  14.8672  14.9041  15.0097  15.0883  15.1732  15.2286
    15.3022  15.3381  15.3997  15.4157  15.5907  15.6790  15.7184  15.7763
    15.8385  15.9050  16.0009  16.1037  16.1662  16.2275  16.2658  16.3523
    16.3745  16.4450  16.4551  16.4881  16.5381  16.5589  16.6454  16.6600
    16.7093  16.7131  16.7667  16.8027  16.9910  17.0041  17.1429  17.2212
    17.2239  17.4181  17.5047  17.5382  17.6042  17.6239  17.7260  17.8272
    17.8781  17.9372  18.0713  18.1453  18.1686  18.1804  18.2362  18.2467
    18.2900  18.3170  18.3809  18.4141  18.5260  18.5408  18.7047  18.7398
    18.7799  18.8870  19.1255  19.1632  19.3185  19.3908  19.4801  19.4842
    19.5461  19.5921  19.6449  19.6708  19.7998  19.8711  19.9635  20.1690
    20.3321  20.3747  20.4177  20.4516  20.4684  20.5537  20.6903  20.7264
    20.7781  20.7925  20.9726  21.1188  21.2711  21.3135  21.3766  21.4222
    21.4592  21.6742  21.6839  21.7453  21.7679  21.8081  21.8887  21.9190
    21.9608  22.0262  22.0934  22.1304  22.1609  22.2496  22.3775  22.3921
    22.4026  22.4928  22.5030

          k =-0.2500 0.1950 0.0000 ( 29746 PWs)   bands (ev):

   -62.1068 -62.0307 -62.0187 -61.9160 -61.8909 -61.8825 -61.8325 -61.8082
   -36.6958 -36.4412 -36.4286 -36.3938 -36.3401 -36.3372 -36.2885 -36.2741
   -36.2023 -36.1565 -36.1002 -36.0714 -36.0479 -36.0453 -36.0398 -36.0063
   -35.9193 -35.9164 -35.8910 -35.8670 -35.8653 -35.6416 -35.5585 -35.5475
   -22.7829 -20.3592 -20.0944 -19.5294 -19.3847 -19.2720 -19.0933 -19.0205
   -18.9699 -18.8092 -18.7465 -18.6376 -18.5139 -18.4897 -18.3695 -18.3431
   -18.2715 -17.7654 -17.6119 -16.5462  -8.3620  -8.2444  -8.1036  -7.7329
    -7.4041  -7.2908  -7.2845  -7.2062  -7.0321  -6.9196  -6.8691  -6.8322
    -6.7245  -6.5507  -6.4773  -6.2971  -6.0200  -5.9726  -5.8778  -5.8095
    -5.6945  -5.6294  -5.5424  -5.4021  -5.2659  -5.2148  -5.0421  -4.9817
    -4.9042  -4.7593  -4.6591  -4.6037  -4.3902  -4.2943  -4.1688  -4.1489
    -4.0812  -4.0099  -3.9595  -3.9130  -3.7950  -3.7563  -3.6767  -3.6178
    -3.4742  -3.3769  -3.2484  -3.1178  -3.0195  -2.9954  -2.9166  -2.8307
    -2.7198  -2.6916  -2.5140  -2.4094  -2.3352  -2.1508  -1.3361  -1.1790
    -1.0650  -0.9882  -0.2857  -0.0615   0.0698   0.1145   0.5238   0.6178
     0.9521   1.0849   1.1363   1.2760   1.4134   1.5254   1.7012   1.7479
     1.8647   2.0455   2.1519   2.3177   2.3355   2.4337   2.5916   2.8065
     3.6831   3.7436   4.0258   4.0657   4.1952   4.2739   4.3431   4.4534
     4.6972   4.7742   4.9157   4.9620   5.1684   5.2202   5.3450   5.5636
     5.9068   6.0532   6.1586   6.2600   6.3288   6.4333   6.5236   6.5868
     6.7341   6.9417   7.0050   7.2721   7.3306   7.4443   7.7394   7.7912
     8.0856   8.2398   8.4507   8.4984   8.6483   8.7334   8.8757   8.9562
     9.0102   9.1965   9.2553   9.3508   9.5123   9.6107   9.6783   9.7758
     9.8191   9.9095   9.9741  10.0894  10.2115  10.4163  10.5339  10.6053
    10.6993  10.7944  10.8760  10.9376  11.0061  11.1163  11.2786  11.3676
    11.4891  11.6445  11.7202  11.8340  11.9003  11.9392  12.0176  12.1620
    12.2005  12.2614  12.3573  12.3671  12.4646  12.5421  12.6175  12.8109
    12.8880  12.9748  13.0141  13.1497  13.1955  13.2226  13.3628  13.4410
    13.5232  13.5556  13.6430  13.6872  13.7432  13.8270  13.8873  13.9584
    14.0328  14.0824  14.1258  14.1977  14.2341  14.2834  14.3661  14.3907
    14.4514  14.5244  14.6197  14.7396  14.7864  14.8765  14.9170  15.0718
    15.1350  15.2278  15.2769  15.4066  15.4778  15.4916  15.6341  15.6787
    15.7844  15.8735  15.9072  16.0044  16.0536  16.1481  16.2335  16.2733
    16.3249  16.4237  16.4958  16.5594  16.5861  16.6175  16.7153  16.7594
    16.8391  16.9211  16.9647  17.0912  17.1081  17.1817  17.2664  17.3039
    17.3349  17.3766  17.4924  17.5817  17.6708  17.7521  17.7960  17.8908
    18.0487  18.0825  18.1284  18.1909  18.2305  18.3393  18.3886  18.4793
    18.5721  18.6112  18.6771  18.7704  18.8929  18.9364  19.0087  19.0569
    19.1790  19.2290  19.3606  19.4012  19.4220  19.5344  19.5953  19.6907
    19.8225  19.8801  19.9870  20.0370  20.0971  20.1409  20.1743  20.2391
    20.2659  20.3332  20.4415  20.4647  20.4842  20.5358  20.6052  20.6748
    20.7528  20.8199  20.8741  20.9264  20.9869  21.0988  21.1380  21.2314
    21.2944  21.3513  21.4022  21.4568  21.5147  21.5454  21.6053  21.6297
    21.6692  21.7407  21.8187  21.8637  21.9023  21.9470  21.9863  22.0776
    22.1447  22.2194  22.2813

     the Fermi energy is     0.4751 ev

!    total energy              =   -1765.36286916 Ry
     Harris-Foulkes estimate   =   -1765.36286970 Ry
     estimated scf accuracy    <       0.00000055 Ry

     The total energy is the sum of the following terms:

     one-electron contribution =  -22644.31432820 Ry
     hartree contribution      =   11351.39373442 Ry
     xc contribution           =    -301.52533231 Ry
     ewald contribution        =    9828.73344598 Ry
     Hubbard energy            =       0.34974314 Ry
     smearing contrib. (-TS)   =      -0.00013219 Ry

     convergence has been achieved in  28 iterations

     Forces acting on atoms (Ry/au):


     negative rho (up, down):  0.334E-02 0.000E+00
     atom    1 type  1   force =    -0.00099052   -0.00535504    0.00161715
     atom    2 type  1   force =    -0.00010613    0.00914808   -0.00005745
     atom    3 type  2   force =    -0.01374587   -0.00825122   -0.00069635
     atom    4 type  2   force =     0.00060407    0.00582257   -0.00080241
     atom    5 type  1   force =     0.00019016   -0.00004977    0.00017260
     atom    6 type  1   force =    -0.00175297   -0.00288384    0.00009693
     atom    7 type  1   force =     0.00031058   -0.00123886    0.00106048
     atom    8 type  1   force =     0.00263459    0.00217581   -0.00086434
     atom    9 type  2   force =    -0.00668245   -0.00370312    0.00010523
     atom   10 type  2   force =    -0.00053500    0.00285861   -0.00111768
     atom   11 type  1   force =    -0.01432530   -0.02593673    0.00039585
     atom   12 type  1   force =    -0.01167321    0.03200221    0.00085185
     atom   13 type  1   force =     0.00010909   -0.00171680   -0.00077870
     atom   14 type  1   force =    -0.00322185   -0.00617596    0.00144669
     atom   15 type  1   force =    -0.00002295    0.01082908    0.00006889
     atom   16 type  2   force =     0.01301150   -0.00816229   -0.00058169
     atom   17 type  2   force =    -0.00097316    0.00447682   -0.00019894
     atom   18 type  1   force =     0.00248950   -0.00046346    0.00018486
     atom   19 type  1   force =     0.00209561   -0.00301287    0.00010068
     atom   20 type  1   force =     0.00025023    0.00100843    0.00099975
     atom   21 type  1   force =     0.00341670    0.00198219   -0.00130107
     atom   22 type  2   force =     0.00274252   -0.00373820    0.00004112
     atom   23 type  2   force =     0.00068300    0.00154642    0.00016756
     atom   24 type  1   force =     0.01435106   -0.02554277    0.00039955
     atom   25 type  1   force =     0.01160301    0.03198626    0.00082300
     atom   26 type  1   force =    -0.00023048   -0.00660704   -0.00086330
     atom   27 type  3   force =     0.00001006   -0.00040858   -0.00027783
     atom   28 type  3   force =     0.00000972   -0.00050033   -0.00027937
     atom   29 type  3   force =    -0.00014094   -0.00007188   -0.00027503
     atom   30 type  3   force =    -0.00018124   -0.00007490   -0.00024033
     atom   31 type  1   force =     0.00012552   -0.00021714   -0.00021273
     atom   32 type  1   force =    -0.00007239    0.00032636    0.00042028
     atom   33 type  3   force =     0.00001754   -0.00005204   -0.00040525

     Total force =     0.004070     Total SCF correction =     0.002914
     SCF correction compared to forces is large: reduce conv_thr to get better values


     entering subroutine stress ...


     negative rho (up, down):  0.334E-02 0.000E+00
          total   stress  (Ry/bohr**3)                   (kbar)     P=   -3.75
   0.00001562  -0.00000048   0.00000192          2.30     -0.07      0.28
  -0.00000048  -0.00005369  -0.00000189         -0.07     -7.90     -0.28
   0.00000192  -0.00000189  -0.00003832          0.28     -0.28     -5.64


     BFGS Geometry Optimization

     number of scf cycles    =   1
     number of bfgs steps    =   0

     energy   new            =   -1765.3628691608 Ry

     new trust radius        =       0.0016171511 bohr
     new conv_thr            =       0.0000010000 Ry


ATOMIC_POSITIONS (crystal)
O0       0.000000000   0.000000000   0.371011694    0   0   1
O0       0.000000000   0.500000000   0.382698874    0   0   1
Mo1      0.250000000   0.500000000   0.440456352    0   0   1
Mo1      0.000000000   0.000000000   0.443444274    0   0   1
O0       0.250000000   0.780000000   0.442823383    0   0   1
O0       0.250000000   0.220000000   0.442691900    0   0   1
O0       0.000000000   0.500000000   0.497630784    0   0   1
O0       0.000000000   0.000000000   0.516783060    0   0   1
Mo1      0.250000000   0.000000000   0.575392062    0   0   1
Mo1      0.000000000   0.500000000   0.565238095    0   0   1
O0       0.250000000   0.720000000   0.570197758    0   0   1
O0       0.250000000   0.280000000   0.571246695    0   0   1
O0       0.000000000   0.000000000   0.625894738    0   0   1
O0       0.500000000   0.000000000   0.371178354    0   0   1
O0       0.500000000   0.500000000   0.382931350    0   0   1
Mo1      0.750000000   0.500000000   0.440448599    0   0   1
Mo1      0.500000000   0.000000000   0.443966101    0   0   1
O0       0.750000000   0.780000000   0.442863623    0   0   1
O0       0.750000000   0.220000000   0.442671973    0   0   1
O0       0.500000000   0.500000000   0.497739594    0   0   1
O0       0.500000000   0.000000000   0.516424500    0   0   1
Mo1      0.750000000   0.000000000   0.575100806    0   0   1
Mo1      0.500000000   0.500000000   0.570463284    0   0   1
O0       0.750000000   0.720000000   0.570167831    0   0   1
O0       0.750000000   0.280000000   0.571206130    0   0   1
O0       0.500000000   0.000000000   0.625503080    0   0   1
H2      -0.000579025   0.611969114   0.360674555
H2       0.499510942   0.617362178   0.362784525
H2       0.167256341   0.018134567   0.356764610
H2       0.665882434   0.019364338   0.356575290
O0       0.500222166   0.519973586   0.642255831
O0       0.499932984   0.356484670   0.675288237
H2       0.500011700   0.424806066   0.707232057


     Check: negative starting charge=   -0.002157
     NEW-OLD atomic charge density approx. for the potential

     Check: negative/imaginary core charge=   -0.000003    0.000000
     Check: negative starting charge=   -0.002157

     negative rho (up, down):  0.334E-02 0.000E+00
 Atomic wfc used for LDA+U Projector are NOT orthogonalized

     total cpu time spent up to now is     6163.6 secs

     per-process dynamical memory:   407.2 Mb

     Self-consistent Calculation

     iteration #  1     ecut=    40.00 Ry     beta=0.70
     Davidson diagonalization with overlap
     ethr =  1.00E-06,  avg # of iterations =  2.0
 --- enter write_ns ---
 LDA+U parameters:
U( 2)     =  0.50000000
alpha( 2) =  0.00000000
atom    3   Tr[ns(na)] =   5.81873
    eigenvalues: 
  0.513  0.515  0.562  0.593  0.725
    eigenvectors:
  0.000  0.015  0.346  0.000  0.638
  0.976  0.021  0.002  0.001  0.000
  0.023  0.945  0.005  0.018  0.009
  0.001  0.000  0.645  0.001  0.353
  0.000  0.019  0.001  0.980  0.000
    occupations:
  0.665 -0.003  0.018 -0.077 -0.000
 -0.003  0.514 -0.001 -0.001 -0.002
  0.018 -0.001  0.519 -0.009  0.010
 -0.077 -0.001 -0.009  0.620  0.000
 -0.000 -0.002  0.010  0.000  0.592
atom    4   Tr[ns(na)] =   5.80405
    eigenvalues: 
  0.473  0.523  0.577  0.615  0.714
    eigenvectors:
  0.000  0.000  0.988  0.011  0.001
  0.001  0.000  0.011  0.988  0.000
  0.999  0.000  0.000  0.001  0.000
  0.000  0.000  0.001  0.000  0.998
  0.000  1.000  0.000  0.000  0.000
    occupations:
  0.577  0.004  0.000 -0.005  0.000
  0.004  0.615  0.005 -0.001  0.000
  0.000  0.005  0.473  0.000  0.000
 -0.005 -0.001  0.000  0.714  0.000
  0.000  0.000  0.000  0.000  0.523
atom    9   Tr[ns(na)] =   5.81219
    eigenvalues: 
  0.515  0.541  0.584  0.590  0.675
    eigenvectors:
  0.000  0.000  0.224  0.006  0.770
  0.000  0.000  0.025  0.975  0.000
  0.196  0.804  0.000  0.000  0.000
  0.000  0.000  0.751  0.019  0.230
  0.804  0.196  0.000  0.000  0.000
    occupations:
  0.654 -0.000 -0.001 -0.038 -0.002
 -0.000  0.590 -0.000 -0.001  0.000
 -0.001 -0.000  0.536  0.000  0.010
 -0.038 -0.001  0.000  0.605  0.000
 -0.002  0.000  0.010  0.000  0.520
atom   10   Tr[ns(na)] =   5.76348
    eigenvalues: 
  0.499  0.518  0.520  0.623  0.722
    eigenvectors:
  0.988  0.011  0.000  0.000  0.001
  0.000  0.000  0.000  1.000  0.000
  0.011  0.980  0.009  0.000  0.000
  0.001  0.000  0.000  0.000  0.999
  0.000  0.009  0.991  0.000  0.000
    occupations:
  0.499  0.000 -0.002 -0.007  0.000
  0.000  0.623 -0.000  0.000  0.000
 -0.002 -0.000  0.518 -0.001 -0.000
 -0.007  0.000 -0.001  0.721  0.000
  0.000  0.000 -0.000  0.000  0.520
atom   16   Tr[ns(na)] =   5.81862
    eigenvalues: 
  0.513  0.514  0.562  0.594  0.725
    eigenvectors:
  0.000  0.015  0.347  0.000  0.638
  0.923  0.074  0.002  0.001  0.000
  0.076  0.891  0.005  0.020  0.009
  0.001  0.000  0.646  0.001  0.352
  0.000  0.020  0.001  0.979  0.000
    occupations:
  0.666  0.003  0.018 -0.077  0.000
  0.003  0.514  0.001  0.001 -0.002
  0.018  0.001  0.518 -0.009 -0.011
 -0.077  0.001 -0.009  0.620 -0.000
  0.000 -0.002 -0.011 -0.000  0.592
atom   17   Tr[ns(na)] =   5.80477
    eigenvalues: 
  0.479  0.523  0.578  0.612  0.711
    eigenvectors:
  0.000  0.000  0.987  0.011  0.002
  0.001  0.000  0.011  0.988  0.000
  0.999  0.000  0.000  0.001  0.000
  0.000  0.000  0.002  0.000  0.998
  0.000  1.000  0.000  0.000  0.000
    occupations:
  0.579  0.004  0.000 -0.005  0.000
  0.004  0.611  0.004 -0.001 -0.001
  0.000  0.004  0.479  0.000  0.000
 -0.005 -0.001  0.000  0.710  0.000
  0.000 -0.001  0.000  0.000  0.523
atom   22   Tr[ns(na)] =   5.81537
    eigenvalues: 
  0.515  0.540  0.584  0.589  0.679
    eigenvectors:
  0.000  0.000  0.218  0.014  0.768
  0.000  0.000  0.056  0.944  0.000
  0.209  0.791  0.000  0.000  0.000
  0.000  0.000  0.726  0.042  0.232
  0.791  0.209  0.000  0.000  0.000
    occupations:
  0.657  0.000 -0.001 -0.040 -0.001
  0.000  0.589 -0.000  0.001 -0.000
 -0.001 -0.000  0.535  0.000 -0.010
 -0.040  0.001  0.000  0.606  0.000
 -0.001 -0.000 -0.010  0.000  0.521
atom   23   Tr[ns(na)] =   5.83341
    eigenvalues: 
  0.527  0.532  0.552  0.575  0.731
    eigenvectors:
  0.000  0.002  0.000  0.988  0.010
  0.021  0.000  0.979  0.000  0.000
  0.000  0.997  0.000  0.002  0.000
  0.000  0.000  0.000  0.009  0.990
  0.979  0.000  0.021  0.000  0.000
    occupations:
  0.577  0.000  0.002 -0.015  0.000
  0.000  0.552  0.000 -0.000 -0.004
  0.002  0.000  0.532  0.002  0.000
 -0.015 -0.000  0.002  0.729 -0.000
  0.000 -0.004  0.000 -0.000  0.527
N of occupied +U levels =  46.4706179
 --- exit write_ns ---

     negative rho (up, down):  0.334E-02 0.000E+00

     total cpu time spent up to now is     6354.9 secs

     total energy              =   -1765.36261491 Ry
     Harris-Foulkes estimate   =   -1765.36289151 Ry
     estimated scf accuracy    <       0.00031231 Ry

     iteration #  2     ecut=    40.00 Ry     beta=0.70
     Davidson diagonalization with overlap
     ethr =  1.32E-07,  avg # of iterations =  4.5

     negative rho (up, down):  0.336E-02 0.000E+00

     total cpu time spent up to now is     6551.3 secs

     total energy              =   -1765.35881629 Ry
     Harris-Foulkes estimate   =   -1765.36718503 Ry
     estimated scf accuracy    <       0.14190913 Ry

     iteration #  3     ecut=    40.00 Ry     beta=0.70
     Davidson diagonalization with overlap
     ethr =  1.32E-07,  avg # of iterations =  4.7

     negative rho (up, down):  0.334E-02 0.000E+00

     total cpu time spent up to now is     6748.3 secs

     total energy              =   -1765.36281810 Ry
     Harris-Foulkes estimate   =   -1765.36294177 Ry
     estimated scf accuracy    <       0.00094080 Ry

     iteration #  4     ecut=    40.00 Ry     beta=0.70
     Davidson diagonalization with overlap
     ethr =  1.32E-07,  avg # of iterations =  1.0

     negative rho (up, down):  0.334E-02 0.000E+00

     total cpu time spent up to now is     6915.5 secs

     total energy              =   -1765.36287589 Ry
     Harris-Foulkes estimate   =   -1765.36288457 Ry
     estimated scf accuracy    <       0.00004703 Ry

     iteration #  5     ecut=    40.00 Ry     beta=0.70
     Davidson diagonalization with overlap
     ethr =  1.98E-08,  avg # of iterations =  1.0

[...]
    14.7624  14.9146  14.9587  15.0015  15.0282  15.1227  15.1640  15.1772
    15.2232  15.2333  15.3793  15.4254  15.5353  15.5712  15.6118  15.6440
    15.8370  15.8696  15.9186  15.9556  16.0167  16.1030  16.2729  16.3257
    16.3653  16.4102  16.4792  16.5445  16.5963  16.6554  16.7228  16.8776
    16.9079  16.9717  17.0605  17.1332  17.1486  17.1850  17.2417  17.3124
    17.4054  17.4605  17.4938  17.5624  17.6405  17.7429  17.7782  17.8073
    17.8656  17.9037  17.9187  17.9434  18.0431  18.0874  18.0904  18.1640
    18.2002  18.2471  18.2547  18.3290  18.3368  18.4287  18.5066  18.5575
    18.5716  18.6468  18.6725  18.7074  18.7255  18.7523  18.7686  18.8165
    18.9182  18.9333  19.0077  19.0687  19.0831  19.1183  19.1369  19.2357
    19.2766  19.2855  19.3279  19.3594  19.3666  19.4031  19.5041  19.5587
    19.6089  19.6346  19.6671  19.7434  19.8103  20.0368  20.0807  20.1557
    20.2282  20.2768  20.2803  20.3533  20.4908  20.5039  20.5565  20.6247
    20.6494  20.7086  20.7519  20.7888  20.8415  20.8555  20.9247  20.9968
    21.0292  21.1160  21.2143  21.2359  21.2867  21.3894  21.4657  21.4902
    21.6621  21.7992  21.8004

          k =-0.5000 0.1950 0.0000 ( 29720 PWs)   bands (ev):

   -62.0672 -62.0510 -62.0154 -61.8934 -61.8782 -61.8623 -61.8459 -61.8444
   -36.4031 -36.3941 -36.3843 -36.3488 -36.3306 -36.3063 -36.1538 -36.1512
   -36.1286 -36.1168 -36.1047 -35.9997 -35.9940 -35.9744 -35.9601 -35.9424
   -35.9397 -35.9344 -35.9337 -35.9282 -35.9264 -35.9173 -35.9123 -35.9104
   -22.7815 -20.2213 -20.1437 -19.5240 -19.1543 -19.1317 -19.0400 -19.0318
   -18.9491 -18.9129 -18.7514 -18.5581 -18.5400 -18.4807 -18.4749 -18.3322
   -18.3289 -17.8716 -17.8058 -16.5457  -8.1808  -8.1553  -8.1463  -7.2715
    -7.2048  -7.1801  -7.1643  -7.1103  -7.0164  -7.0135  -6.9514  -6.4132
    -6.3836  -6.2671  -6.1619  -6.1384  -6.1071  -5.9692  -5.9231  -5.7036
    -5.6630  -5.5578  -5.3815  -5.3723  -5.3255  -5.3089  -5.0374  -5.0007
    -4.9850  -4.8725  -4.8207  -4.8029  -4.7731  -4.5585  -4.5411  -4.4075
    -4.2942  -4.1130  -4.1000  -4.0226  -4.0007  -3.9568  -3.8527  -3.6570
    -3.6225  -3.4386  -3.4087  -2.9848  -2.9568  -2.9409  -2.8919  -2.6576
    -2.6067  -2.5885  -2.5257  -2.3554  -2.3251  -2.2537  -1.2940  -0.2551
    -0.1040   0.0153   0.0511   0.1526   0.1600   0.2638   0.2967   0.5277
     0.5682   0.6422   0.6672   0.9390   1.0472   1.0776   1.2066   1.2975
     1.4244   1.5855   1.6352   1.9922   2.0049   2.3212   2.3526   2.6752
     3.6133   3.9767   4.0000   4.0579   4.0686   4.1627   4.1954   4.7273
     4.7748   5.0194   5.2846   5.2995   5.4872   5.5666   5.7216   5.7245
     5.8659   5.8683   5.9796   5.9973   6.1744   6.3661   6.5618   6.6926
     6.8217   6.8679   7.1176   7.1362   7.3112   7.3152   7.5292   7.6052
     7.6568   7.8597   7.9768   8.2200   8.2441   8.3547   8.5765   8.6649
     8.9341   9.1876   9.1940   9.3752   9.4341   9.5249   9.5989   9.7283
     9.7867   9.8533  10.1341  10.2229  10.3609  10.4846  10.5030  10.5957
    10.7353  10.7633  10.8500  10.8821  10.9292  11.0264  11.1912  11.3034
    11.4493  11.5782  11.7964  11.8307  11.8833  11.9556  12.0577  12.0872
    12.2170  12.3284  12.3763  12.4546  12.6167  12.7027  12.7636  12.8010
    13.0197  13.0710  13.2451  13.2794  13.3886  13.4201  13.5490  13.7961
    13.8135  14.0583  14.0764  14.1570  14.2283  14.3385  14.4218  14.5637
    14.5922  14.6672  14.7555  14.8061  14.8167  14.8947  14.9485  14.9654
    15.0224  15.0446  15.1096  15.1462  15.2278  15.2624  15.4163  15.4383
    15.5209  15.5714  15.6575  15.7014  15.7646  15.8105  15.8436  15.8929
    15.9387  16.0670  16.1024  16.1582  16.1823  16.2000  16.3537  16.3664
    16.4782  16.5513  16.6224  16.6342  16.7174  16.7394  16.9040  16.9880
    17.0364  17.0815  17.1603  17.2264  17.2948  17.3535  17.3947  17.4106
    17.4386  17.5166  17.5598  17.6379  17.7021  17.7805  17.8191  17.8636
    17.8985  17.9676  17.9928  18.0521  18.1286  18.1808  18.1989  18.2680
    18.3479  18.4163  18.6247  18.7284  18.7547  18.8317  18.8747  18.9054
    18.9868  19.1230  19.1790  19.2447  19.3281  19.3623  19.4264  19.4831
    19.5976  19.6229  19.7357  19.7831  19.8789  19.9149  19.9893  20.0057
    20.2447  20.2662  20.3649  20.4253  20.4374  20.4884  20.4970  20.5564
    20.5665  20.6560  20.6812  20.7983  20.8763  20.9031  20.9736  21.0379
    21.1224  21.1367  21.1837  21.2117  21.2371  21.3069  21.3703  21.4044
    21.4649  21.4771  21.5415  21.5551  21.6921  21.7205  21.8534  21.8590
    21.9630  22.0532  22.0707

          k =-0.5000-0.3900 0.0000 ( 29668 PWs)   bands (ev):

   -62.0671 -62.0510 -62.0154 -61.8934 -61.8782 -61.8622 -61.8459 -61.8444
   -36.4032 -36.3925 -36.3815 -36.3489 -36.3309 -36.3065 -36.1459 -36.1438
   -36.1261 -36.1168 -36.1046 -36.0058 -36.0042 -35.9852 -35.9605 -35.9429
   -35.9401 -35.9365 -35.9342 -35.9259 -35.9251 -35.9147 -35.9107 -35.9098
   -22.7814 -20.2204 -20.1426 -19.5171 -19.1142 -19.0887 -19.0257 -19.0189
   -18.9976 -18.9480 -18.7822 -18.5595 -18.5386 -18.4862 -18.4771 -18.3289
   -18.3250 -17.8726 -17.8061 -16.5447  -8.1704  -8.1450  -8.1366  -7.2496
    -7.2271  -7.1769  -7.1703  -7.1655  -7.1221  -7.1043  -6.9642  -6.4394
    -6.3113  -6.2341  -6.0823  -6.0279  -6.0143  -5.9656  -5.8548  -5.6738
    -5.5557  -5.4968  -5.4765  -5.4646  -5.3380  -5.2875  -5.0064  -4.9996
    -4.9251  -4.9112  -4.8753  -4.7557  -4.6852  -4.5944  -4.5236  -4.4463
    -4.4177  -4.2435  -4.1930  -4.1409  -4.1242  -4.0963  -4.0480  -3.6013
    -3.5475  -3.4133  -3.3138  -2.9844  -2.9385  -2.8941  -2.7475  -2.6769
    -2.6374  -2.5881  -2.5615  -2.4181  -2.2286  -2.1931  -1.2972  -0.2771
    -0.1387  -0.0681  -0.0396   0.0243   0.0799   0.1809   0.2556   0.6722
     0.7152   0.9335   1.0328   1.1856   1.1994   1.3130   1.4090   1.4294
     1.5510   1.7453   1.7795   1.9922   2.0496   2.1051   2.1789   2.7385
     3.3189   3.3443   3.3795   3.4182   3.6660   4.1632   4.2315   4.8735
     4.8863   5.1389   5.3375   5.3663   5.6538   5.7096   5.9447   6.0146
     6.1540   6.2086   6.2493   6.2887   6.4089   6.4117   6.4730   6.4780
     6.5571   6.5623   6.7985   6.8016   6.9546   6.9933   7.2565   7.3714
     7.3987   7.6144   7.7803   8.0723   8.0888   8.4072   8.4614   8.7835
     8.7973   8.9519   8.9925   9.0911   9.4916   9.5276   9.6217   9.8744
     9.9258  10.1085  10.1679  10.2530  10.5123  10.5740  10.8761  10.9251
    11.3110  11.4078  11.4348  11.4722  11.5355  11.6382  11.7150  11.7260
    11.8611  11.9919  12.2572  12.2668  12.4619  12.4703  12.5029  12.5223
    12.5292  12.5793  12.6819  12.7479  12.7807  12.7848  12.8675  12.9459
    12.9591  13.0018  13.0767  13.1531  13.2731  13.3140  13.4398  13.4607
    13.4829  13.5943  13.6082  13.6619  13.8900  13.9055  13.9283  13.9909
    14.0534  14.1253  14.2978  14.4996  14.5269  14.6932  14.7003  14.7995
    14.8167  14.8549  14.8691  14.9043  15.0104  15.0893  15.1752  15.2296
    15.3033  15.3400  15.4017  15.4169  15.5917  15.6797  15.7200  15.7776
    15.8385  15.9053  16.0004  16.1034  16.1660  16.2279  16.2655  16.3521
    16.3736  16.4448  16.4553  16.4869  16.5371  16.5590  16.6454  16.6599
    16.7093  16.7132  16.7677  16.8022  16.9909  17.0041  17.1426  17.2209
    17.2236  17.4187  17.5058  17.5380  17.6042  17.6244  17.7259  17.8270
    17.8777  17.9373  18.0727  18.1464  18.1690  18.1807  18.2373  18.2477
    18.2907  18.3174  18.3814  18.4147  18.5269  18.5415  18.7051  18.7401
    18.7800  18.8872  19.1257  19.1634  19.3191  19.3910  19.4811  19.4845
    19.5470  19.5920  19.6449  19.6715  19.8002  19.8713  19.9633  20.1690
    20.3327  20.3758  20.4189  20.4525  20.4695  20.5545  20.6906  20.7262
    20.7785  20.7927  20.9737  21.1197  21.2720  21.3142  21.3775  21.4221
    21.4601  21.6745  21.6841  21.7454  21.7679  21.8084  21.8886  21.9196
    21.9603  22.0265  22.0941  22.1310  22.1617  22.2492  22.3782  22.3924
    22.4019  22.4928  22.5026

          k =-0.2500 0.1950 0.0000 ( 29746 PWs)   bands (ev):

   -62.1037 -62.0284 -62.0156 -61.9128 -61.8874 -61.8817 -61.8291 -61.8047
   -36.6929 -36.4385 -36.4274 -36.3928 -36.3381 -36.3345 -36.2851 -36.2711
   -36.1987 -36.1543 -36.0966 -36.0692 -36.0451 -36.0429 -36.0368 -36.0032
   -35.9163 -35.9131 -35.8896 -35.8637 -35.8622 -35.6400 -35.5548 -35.5440
   -22.7817 -20.3607 -20.0960 -19.5280 -19.3845 -19.2695 -19.0920 -19.0176
   -18.9667 -18.8096 -18.7420 -18.6337 -18.5104 -18.4863 -18.3664 -18.3402
   -18.2683 -17.7641 -17.6105 -16.5457  -8.3630  -8.2451  -8.1037  -7.7356
    -7.4021  -7.2881  -7.2819  -7.2031  -7.0306  -6.9172  -6.8677  -6.8309
    -6.7218  -6.5484  -6.4748  -6.2941  -6.0166  -5.9689  -5.8747  -5.8089
    -5.6931  -5.6264  -5.5412  -5.4000  -5.2641  -5.2132  -5.0408  -4.9804
    -4.9030  -4.7573  -4.6567  -4.6016  -4.3894  -4.2927  -4.1668  -4.1461
    -4.0785  -4.0075  -3.9579  -3.9105  -3.7926  -3.7550  -3.6747  -3.6168
    -3.4738  -3.3750  -3.2455  -3.1171  -3.0179  -2.9932  -2.9148  -2.8295
    -2.7174  -2.6894  -2.5125  -2.4106  -2.3345  -2.1491  -1.3339  -1.1776
    -1.0627  -0.9853  -0.2827  -0.0578   0.0739   0.1178   0.5266   0.6213
     0.9555   1.0883   1.1395   1.2796   1.4169   1.5299   1.7050   1.7516
     1.8683   2.0491   2.1550   2.3206   2.3386   2.4359   2.5953   2.8109
     3.6852   3.7431   4.0278   4.0686   4.1977   4.2761   4.3455   4.4545
     4.6994   4.7767   4.9200   4.9622   5.1702   5.2224   5.3479   5.5644
     5.9070   6.0545   6.1590   6.2611   6.3316   6.4330   6.5238   6.5897
     6.7345   6.9433   7.0063   7.2730   7.3308   7.4429   7.7389   7.7903
     8.0855   8.2388   8.4514   8.4974   8.6493   8.7326   8.8756   8.9566
     9.0102   9.1971   9.2553   9.3525   9.5118   9.6110   9.6787   9.7758
     9.8196   9.9108   9.9732  10.0894  10.2119  10.4167  10.5343  10.6052
    10.6994  10.7949  10.8779  10.9386  11.0071  11.1170  11.2781  11.3688
    11.4897  11.6459  11.7211  11.8346  11.9007  11.9398  12.0173  12.1629
    12.2002  12.2613  12.3575  12.3674  12.4638  12.5422  12.6175  12.8108
    12.8887  12.9757  13.0148  13.1506  13.1964  13.2237  13.3641  13.4411
    13.5238  13.5565  13.6439  13.6874  13.7441  13.8270  13.8873  13.9577
    14.0335  14.0826  14.1258  14.1980  14.2351  14.2837  14.3661  14.3906
    14.4523  14.5243  14.6194  14.7400  14.7863  14.8767  14.9168  15.0720
    15.1351  15.2283  15.2777  15.4079  15.4778  15.4922  15.6343  15.6797
    15.7854  15.8741  15.9083  16.0055  16.0546  16.1491  16.2347  16.2744
    16.3257  16.4243  16.4968  16.5595  16.5859  16.6182  16.7161  16.7597
    16.8389  16.9212  16.9648  17.0914  17.1079  17.1830  17.2674  17.3040
    17.3352  17.3776  17.4926  17.5822  17.6711  17.7522  17.7960  17.8913
    18.0487  18.0834  18.1289  18.1917  18.2304  18.3400  18.3895  18.4799
    18.5725  18.6115  18.6779  18.7705  18.8937  18.9365  19.0094  19.0572
    19.1792  19.2296  19.3609  19.4013  19.4224  19.5346  19.5960  19.6910
    19.8223  19.8809  19.9868  20.0374  20.0976  20.1411  20.1759  20.2388
    20.2660  20.3334  20.4415  20.4649  20.4847  20.5362  20.6049  20.6752
    20.7531  20.8204  20.8745  20.9275  20.9870  21.0986  21.1378  21.2319
    21.2948  21.3516  21.4019  21.4571  21.5160  21.5450  21.6056  21.6292
    21.6689  21.7408  21.8182  21.8638  21.9022  21.9470  21.9864  22.0776
    22.1445  22.2191  22.2815

     the Fermi energy is     0.4784 ev

!    total energy              =   -1765.36288076 Ry
     Harris-Foulkes estimate   =   -1765.36288096 Ry
     estimated scf accuracy    <       0.00000022 Ry

     The total energy is the sum of the following terms:

     one-electron contribution =  -22644.69043219 Ry
     hartree contribution      =   11351.59938601 Ry
     xc contribution           =    -301.52788789 Ry
     ewald contribution        =    9828.90645507 Ry
     Hubbard energy            =       0.34973067 Ry
     smearing contrib. (-TS)   =      -0.00013243 Ry

     convergence has been achieved in   8 iterations

     Forces acting on atoms (Ry/au):


     negative rho (up, down):  0.334E-02 0.000E+00
     atom    1 type  1   force =    -0.00051650   -0.00526505    0.00046627
     atom    2 type  1   force =    -0.00011034    0.00901286   -0.00015344
     atom    3 type  2   force =    -0.01363918   -0.00822629   -0.00010511
     atom    4 type  2   force =     0.00062116    0.00582334    0.00013411
     atom    5 type  1   force =     0.00025574   -0.00005865    0.00009255
     atom    6 type  1   force =    -0.00169645   -0.00288290    0.00003530
     atom    7 type  1   force =     0.00031492   -0.00127413   -0.00015120
     atom    8 type  1   force =     0.00264538    0.00219018   -0.00053249
     atom    9 type  2   force =    -0.00677007   -0.00370921   -0.00053495
     atom   10 type  2   force =    -0.00053627    0.00284634   -0.00009320
     atom   11 type  1   force =    -0.01427391   -0.02585833    0.00029406
     atom   12 type  1   force =    -0.01162730    0.03194728    0.00070080
     atom   13 type  1   force =     0.00011940   -0.00172977   -0.00028515
     atom   14 type  1   force =    -0.00278332   -0.00609208    0.00061626
     atom   15 type  1   force =    -0.00002053    0.01065176   -0.00005175
     atom   16 type  2   force =     0.01289292   -0.00813013   -0.00003742
     atom   17 type  2   force =    -0.00098353    0.00447302    0.00037958
     atom   18 type  1   force =     0.00242013   -0.00047849    0.00010518
     atom   19 type  1   force =     0.00202952   -0.00301761    0.00004395
     atom   20 type  1   force =     0.00024564    0.00098206    0.00051242
     atom   21 type  1   force =     0.00340770    0.00199906   -0.00091773
     atom   22 type  2   force =     0.00282733   -0.00374358   -0.00060972
     atom   23 type  2   force =     0.00067979    0.00153209    0.00006625
     atom   24 type  1   force =     0.01429560   -0.02547361    0.00029634
     atom   25 type  1   force =     0.01154962    0.03194143    0.00066898
     atom   26 type  1   force =    -0.00025210   -0.00660703   -0.00034991
     atom   27 type  3   force =     0.00000586   -0.00029314   -0.00035272
     atom   28 type  3   force =     0.00000745   -0.00034904   -0.00035330
     atom   29 type  3   force =    -0.00056509   -0.00014483    0.00000728
     atom   30 type  3   force =    -0.00060431   -0.00014164    0.00001719
     atom   31 type  1   force =     0.00012471   -0.00013783    0.00007199
     atom   32 type  1   force =    -0.00008014   -0.00023278   -0.00036739
     atom   33 type  3   force =     0.00001614    0.00044674    0.00038698

     Total force =     0.002447     Total SCF correction =     0.001407
     SCF correction compared to forces is large: reduce conv_thr to get better values


     entering subroutine stress ...


     negative rho (up, down):  0.334E-02 0.000E+00
          total   stress  (Ry/bohr**3)                   (kbar)     P=   -3.66
   0.00001548  -0.00000051   0.00000200          2.28     -0.07      0.29
  -0.00000051  -0.00005349  -0.00000180         -0.07     -7.87     -0.26
   0.00000200  -0.00000180  -0.00003658          0.29     -0.26     -5.38


     bfgs converged in   2 scf cycles and   1 bfgs steps
     (criteria: energy < 0.10E-03, force < 0.10E-02)

     End of BFGS Geometry Optimization

     Final energy   =   -1765.3628807628 Ry
Begin final coordinates

ATOMIC_POSITIONS (crystal)
O0       0.000000000   0.000000000   0.371011694    0   0   1
O0       0.000000000   0.500000000   0.382698874    0   0   1
Mo1      0.250000000   0.500000000   0.440456352    0   0   1
Mo1      0.000000000   0.000000000   0.443444274    0   0   1
O0       0.250000000   0.780000000   0.442823383    0   0   1
O0       0.250000000   0.220000000   0.442691900    0   0   1
O0       0.000000000   0.500000000   0.497630784    0   0   1
O0       0.000000000   0.000000000   0.516783060    0   0   1
Mo1      0.250000000   0.000000000   0.575392062    0   0   1
Mo1      0.000000000   0.500000000   0.565238095    0   0   1
O0       0.250000000   0.720000000   0.570197758    0   0   1
O0       0.250000000   0.280000000   0.571246695    0   0   1
O0       0.000000000   0.000000000   0.625894738    0   0   1
O0       0.500000000   0.000000000   0.371178354    0   0   1
O0       0.500000000   0.500000000   0.382931350    0   0   1
Mo1      0.750000000   0.500000000   0.440448599    0   0   1
Mo1      0.500000000   0.000000000   0.443966101    0   0   1
O0       0.750000000   0.780000000   0.442863623    0   0   1
O0       0.750000000   0.220000000   0.442671973    0   0   1
O0       0.500000000   0.500000000   0.497739594    0   0   1
O0       0.500000000   0.000000000   0.516424500    0   0   1
Mo1      0.750000000   0.000000000   0.575100806    0   0   1
Mo1      0.500000000   0.500000000   0.570463284    0   0   1
O0       0.750000000   0.720000000   0.570167831    0   0   1
O0       0.750000000   0.280000000   0.571206130    0   0   1
O0       0.500000000   0.000000000   0.625503080    0   0   1
H2      -0.000579025   0.611969114   0.360674555
H2       0.499510942   0.617362178   0.362784525
H2       0.167256341   0.018134567   0.356764610
H2       0.665882434   0.019364338   0.356575290
O0       0.500222166   0.519973586   0.642255831
O0       0.499932984   0.356484670   0.675288237
H2       0.500011700   0.424806066   0.707232057
End final coordinates



     init_run     :    101.92s CPU    104.10s WALL (       1 calls)
     electrons    :   6445.09s CPU   6607.92s WALL (       2 calls)
     update_pot   :     19.22s CPU     19.56s WALL (       1 calls)
     forces       :    254.57s CPU    258.02s WALL (       2 calls)
     stress       :   1280.17s CPU   1333.16s WALL (       2 calls)

     Called by init_run:
     wfcinit      :     33.94s CPU     34.63s WALL (       1 calls)
     potinit      :      7.27s CPU      7.69s WALL (       1 calls)

     Called by electrons:
     c_bands      :   3553.17s CPU   3650.54s WALL (      36 calls)
     sum_band     :   1218.09s CPU   1249.82s WALL (      36 calls)
     v_of_rho     :     36.35s CPU     38.20s WALL (      38 calls)
     newd         :   1700.07s CPU   1704.20s WALL (      38 calls)
     mix_rho      :      6.74s CPU      6.93s WALL (      36 calls)

     Called by c_bands:
     init_us_2    :     10.73s CPU     10.85s WALL (     297 calls)
     cegterg      :   3515.52s CPU   3605.99s WALL (     108 calls)

     Called by *egterg:
     h_psi        :   1933.13s CPU   1986.42s WALL (     406 calls)
     s_psi        :    249.80s CPU    252.92s WALL (     472 calls)
     g_psi        :      4.31s CPU      4.31s WALL (     295 calls)
     cdiaghg      :    459.90s CPU    461.11s WALL (     400 calls)

     Called by h_psi:
     add_vuspsi   :    198.59s CPU    201.75s WALL (     406 calls)
     vhpsi        :    199.05s CPU    201.22s WALL (     406 calls)

     General routines
     calbec       :    583.26s CPU    588.15s WALL (    3002 calls)
     fft          :     43.51s CPU     50.73s WALL (     651 calls)
     ffts         :      0.64s CPU      0.66s WALL (      74 calls)
     fftw         :   1135.38s CPU   1193.01s WALL (  205550 calls)
     interpolate  :      5.44s CPU      5.52s WALL (      74 calls)
     davcio       :      0.02s CPU      5.52s WALL (     351 calls)

     Parallel routines
     fft_scatter  :    410.25s CPU    472.27s WALL (  206275 calls)
     Hubbard U routines
     new_ns       :     45.29s CPU     47.47s WALL (      36 calls)
     vhpsi        :    199.05s CPU    201.22s WALL (     406 calls)
     force_hub    :     75.05s CPU     75.92s WALL (       2 calls)
     stres_hub    :    700.58s CPU    708.86s WALL (       2 calls)

     PWSCF        :     2h15m CPU        2h19m WALL


   This run was terminated on:   3:33:10  28May2014            

=------------------------------------------------------------------------------=
   JOB DONE.
=------------------------------------------------------------------------------=
