
     Program PWSCF v.5.0.2 (svn rev. 9656) starts on 24Jan2014 at 15:23:41 

     This program is part of the open-source Quantum ESPRESSO suite
     for quantum simulation of materials; please cite
         "P. Giannozzi et al., J. Phys.:Condens. Matter 21 395502 (2009);
          URL http://www.quantum-espresso.org", 
     in publications or presentations arising from this work. More details at
     http://www.quantum-espresso.org/quote.php

     Parallel version (MPI), running on     4 processors
     R & G space division:  proc/nbgrp/npool/nimage =       4

     Current dimensions of program PWSCF are:
     Max number of different atomic species (ntypx) = 10
     Max number of k-points (npk) =  40000
     Max angular momentum in pseudopotentials (lmaxx) =  3
     Reading input from TiO2-v-0.90.in

     Subspace diagonalization in iterative solution of the eigenvalue problem:
     a serial algorithm will be used


     Parallelization info
     --------------------
     sticks:   dense  smooth     PW     G-vecs:    dense   smooth      PW
     Min         715     229     69                18418     3317     553
     Max         716     230     70                18419     3326     556
     Sum        2861     917    277                73675    13281    2217



     bravais-lattice index     =            0
     lattice parameter (alat)  =       8.4608  a.u.
     unit-cell volume          =     390.3135 (a.u.)^3
     number of atoms/cell      =            6
     number of atomic types    =            2
     number of electrons       =        48.00
     number of Kohn-Sham states=           69
     kinetic-energy cutoff     =      40.0000  Ry
     charge density cutoff     =     500.0000  Ry
     convergence threshold     =      1.0E-06
     mixing beta               =       0.3000
     number of iterations used =            8  plain     mixing
     Exchange-correlation      = SLA  PW   PBE  PBE ( 1 4 3 4 0)
     EXX-fraction              =        0.00
     nstep                     =           50


     celldm(1)=   8.460760  celldm(2)=   0.000000  celldm(3)=   0.000000
     celldm(4)=   0.000000  celldm(5)=   0.000000  celldm(6)=   0.000000

     crystal axes: (cart. coord. in units of alat)
               a(1) = (   1.000000   0.000000   0.000000 )  
               a(2) = (   0.000000   1.000000   0.000000 )  
               a(3) = (   0.000000   0.000000   0.644444 )  

     reciprocal axes: (cart. coord. in units 2 pi/alat)
               b(1) = (  1.000000  0.000000  0.000000 )  
               b(2) = (  0.000000  1.000000  0.000000 )  
               b(3) = (  0.000000  0.000000  1.551724 )  


     PseudoPot. # 1 for Ti read from file:
     /home/camp/zhonxu/pseudo/ti_pbe_v1.uspp.F.UPF
     MD5 check sum: bcc8f6961b3b91f0cac3ca967d22d0fb
     Pseudo is Ultrasoft + core correction, Zval = 12.0
     Generated by new atomic code, or converted to UPF format
     Using radial grid of  851 points,  6 beta functions with: 
                l(1) =   0
                l(2) =   0
                l(3) =   1
                l(4) =   1
                l(5) =   2
                l(6) =   2
     Q(r) pseudized with  6 coefficients,  rinner =    1.000   1.000   1.000
                                                       1.000   1.000

     PseudoPot. # 2 for O  read from file:
     /home/camp/zhonxu/pseudo/o_pbe_v1.01.uspp.F.UPF
     MD5 check sum: 2bcb18d16ea4b960afae9ec6d52f22d2
     Pseudo is Ultrasoft + core correction, Zval =  6.0
     Generated by new atomic code, or converted to UPF format
     Using radial grid of  737 points,  5 beta functions with: 
                l(1) =   0
                l(2) =   0
                l(3) =   1
                l(4) =   1
                l(5) =   2
     Q(r) pseudized with  8 coefficients,  rinner =    0.900   0.900   0.900
                                                       0.900   0.900

     atomic species   valence    mass     pseudopotential
        Ti0           12.00    47.88000     Ti( 1.00)
        O1             6.00    15.99940     O ( 1.00)

     Starting magnetic structure 
     atomic species   magnetization
        Ti0          0.600
        O1           0.000

     16 Sym. Ops., with inversion, found ( 8 have fractional translation)



   Cartesian axes

     site n.     atom                  positions (alat units)
         1           Ti0 tau(   1) = (   0.0000000   0.0000000   0.0000000  )
         2           Ti0 tau(   2) = (   0.5000000   0.5000000   0.3222222  )
         3           O1  tau(   3) = (   0.3050000   0.3050000   0.0000000  )
         4           O1  tau(   4) = (  -0.3050000  -0.3050000   0.0000000  )
         5           O1  tau(   5) = (   0.8050000   0.1950000   0.3222222  )
         6           O1  tau(   6) = (   0.1950000   0.8050000   0.3222222  )

     number of k points=    36  Methfessel-Paxton smearing, width (Ry)=  0.0100
                       cart. coord. in units 2pi/alat
        k(    1) = (   0.0000000   0.0000000   0.0000000), wk =   0.0080000
        k(    2) = (   0.0000000   0.0000000   0.3103448), wk =   0.0160000
        k(    3) = (   0.0000000   0.0000000   0.6206897), wk =   0.0160000
        k(    4) = (   0.0000000   0.2000000   0.0000000), wk =   0.0320000
        k(    5) = (   0.0000000   0.2000000   0.3103448), wk =   0.0640000
        k(    6) = (   0.0000000   0.2000000   0.6206897), wk =   0.0640000
        k(    7) = (   0.0000000   0.4000000   0.0000000), wk =   0.0320000
        k(    8) = (   0.0000000   0.4000000   0.3103448), wk =   0.0640000
        k(    9) = (   0.0000000   0.4000000   0.6206897), wk =   0.0640000
        k(   10) = (   0.2000000   0.2000000   0.0000000), wk =   0.0320000
        k(   11) = (   0.2000000   0.2000000   0.3103448), wk =   0.0640000
        k(   12) = (   0.2000000   0.2000000   0.6206897), wk =   0.0640000
        k(   13) = (   0.2000000   0.4000000   0.0000000), wk =   0.0640000
        k(   14) = (   0.2000000   0.4000000   0.3103448), wk =   0.1280000
        k(   15) = (   0.2000000   0.4000000   0.6206897), wk =   0.1280000
        k(   16) = (   0.4000000   0.4000000   0.0000000), wk =   0.0320000
        k(   17) = (   0.4000000   0.4000000   0.3103448), wk =   0.0640000
        k(   18) = (   0.4000000   0.4000000   0.6206897), wk =   0.0640000
        k(   19) = (   0.0000000   0.0000000   0.0000000), wk =   0.0080000
        k(   20) = (   0.0000000   0.0000000   0.3103448), wk =   0.0160000
        k(   21) = (   0.0000000   0.0000000   0.6206897), wk =   0.0160000
        k(   22) = (   0.0000000   0.2000000   0.0000000), wk =   0.0320000
        k(   23) = (   0.0000000   0.2000000   0.3103448), wk =   0.0640000
        k(   24) = (   0.0000000   0.2000000   0.6206897), wk =   0.0640000
        k(   25) = (   0.0000000   0.4000000   0.0000000), wk =   0.0320000
        k(   26) = (   0.0000000   0.4000000   0.3103448), wk =   0.0640000
        k(   27) = (   0.0000000   0.4000000   0.6206897), wk =   0.0640000
        k(   28) = (   0.2000000   0.2000000   0.0000000), wk =   0.0320000
        k(   29) = (   0.2000000   0.2000000   0.3103448), wk =   0.0640000
        k(   30) = (   0.2000000   0.2000000   0.6206897), wk =   0.0640000
        k(   31) = (   0.2000000   0.4000000   0.0000000), wk =   0.0640000
        k(   32) = (   0.2000000   0.4000000   0.3103448), wk =   0.1280000
        k(   33) = (   0.2000000   0.4000000   0.6206897), wk =   0.1280000
        k(   34) = (   0.4000000   0.4000000   0.0000000), wk =   0.0320000
        k(   35) = (   0.4000000   0.4000000   0.3103448), wk =   0.0640000
        k(   36) = (   0.4000000   0.4000000   0.6206897), wk =   0.0640000

     Dense  grid:    73675 G-vectors     FFT dimensions: (  64,  64,  40)

     Smooth grid:    13281 G-vectors     FFT dimensions: (  36,  36,  24)

     Largest allocated arrays     est. size (Mb)     dimensions
        Kohn-Sham Wavefunctions         0.46 Mb     (    433,   69)
        NL pseudopotentials             0.58 Mb     (    433,   88)
        Each V/rho on FFT grid          1.25 Mb     (  40960,   2)
        Each G-vector array             0.14 Mb     (  18419)
        G-vector shells                 0.14 Mb     (  18419)
     Largest temporary arrays     est. size (Mb)     dimensions
        Auxiliary wavefunctions         1.82 Mb     (    433,  276)
        Each subspace H/S matrix        1.16 Mb     ( 276, 276)
        Each <psi_i|beta_j> matrix      0.09 Mb     (     88,   69)
        Arrays for rho mixing           5.00 Mb     (  40960,   8)

     Check: negative/imaginary core charge=   -0.000015    0.000000

     Initial potential from superposition of free atoms
     Check: negative starting charge=(component1):   -0.020153
     Check: negative starting charge=(component2):   -0.004926

     starting charge   45.99991, renormalised to   48.00000

     negative rho (up, down):  0.210E-01 0.514E-02
     Starting wfc are   36 randomized atomic wfcs

     total cpu time spent up to now is        8.9 secs

     per-process dynamical memory:    42.6 Mb

     Self-consistent Calculation

     iteration #  1     ecut=    40.00 Ry     beta=0.30
     Davidson diagonalization with overlap
     ethr =  1.00E-02,  avg # of iterations =  5.2

     negative rho (up, down):  0.190E-01 0.835E-02

     total cpu time spent up to now is       43.1 secs

     total energy              =    -365.43657316 Ry
     Harris-Foulkes estimate   =    -365.17113447 Ry
     estimated scf accuracy    <       2.56248632 Ry

     total magnetization       =     0.00 Bohr mag/cell
     absolute magnetization    =     1.74 Bohr mag/cell

     iteration #  2     ecut=    40.00 Ry     beta=0.30
     Davidson diagonalization with overlap
     ethr =  5.34E-03,  avg # of iterations =  1.0

     negative rho (up, down):  0.161E-01 0.101E-01

     total cpu time spent up to now is       56.5 secs

     total energy              =    -365.99878378 Ry
     Harris-Foulkes estimate   =    -365.69869331 Ry
     estimated scf accuracy    <       0.76531957 Ry

     total magnetization       =     0.05 Bohr mag/cell
     absolute magnetization    =     2.78 Bohr mag/cell

     iteration #  3     ecut=    40.00 Ry     beta=0.30
     Davidson diagonalization with overlap
     ethr =  1.59E-03,  avg # of iterations =  1.0

     negative rho (up, down):  0.108E-01 0.150E-01

     total cpu time spent up to now is       70.0 secs

     total energy              =    -366.40316583 Ry
     Harris-Foulkes estimate   =    -366.04328409 Ry
     estimated scf accuracy    <       0.42949614 Ry

     total magnetization       =    -0.00 Bohr mag/cell
     absolute magnetization    =     1.76 Bohr mag/cell

     iteration #  4     ecut=    40.00 Ry     beta=0.30
     Davidson diagonalization with overlap
     ethr =  8.95E-04,  avg # of iterations =  1.0

     negative rho (up, down):  0.110E-01 0.145E-01

     total cpu time spent up to now is       83.4 secs

     total energy              =    -366.45345403 Ry
     Harris-Foulkes estimate   =    -366.45849411 Ry
     estimated scf accuracy    <       0.03565566 Ry

     total magnetization       =     0.00 Bohr mag/cell
     absolute magnetization    =     0.61 Bohr mag/cell

     iteration #  5     ecut=    40.00 Ry     beta=0.30
     Davidson diagonalization with overlap
     ethr =  7.43E-05,  avg # of iterations =  2.0

     negative rho (up, down):  0.121E-01 0.132E-01

     total cpu time spent up to now is       98.1 secs

     total energy              =    -366.45927814 Ry
     Harris-Foulkes estimate   =    -366.45616906 Ry
     estimated scf accuracy    <       0.00654787 Ry

     total magnetization       =     0.00 Bohr mag/cell
     absolute magnetization    =     0.49 Bohr mag/cell

     iteration #  6     ecut=    40.00 Ry     beta=0.30
     Davidson diagonalization with overlap
     ethr =  1.36E-05,  avg # of iterations =  2.9

     negative rho (up, down):  0.129E-01 0.126E-01

     total cpu time spent up to now is      113.9 secs

     total energy              =    -366.46096389 Ry
     Harris-Foulkes estimate   =    -366.46122361 Ry
     estimated scf accuracy    <       0.00117260 Ry

     total magnetization       =     0.01 Bohr mag/cell
     absolute magnetization    =     0.22 Bohr mag/cell

     iteration #  7     ecut=    40.00 Ry     beta=0.30
     Davidson diagonalization with overlap
     ethr =  2.44E-06,  avg # of iterations =  2.8

     negative rho (up, down):  0.126E-01 0.128E-01

     total cpu time spent up to now is      130.2 secs

     total energy              =    -366.46199378 Ry
     Harris-Foulkes estimate   =    -366.46213465 Ry
     estimated scf accuracy    <       0.00076847 Ry

     total magnetization       =    -0.01 Bohr mag/cell
     absolute magnetization    =     0.07 Bohr mag/cell

     iteration #  8     ecut=    40.00 Ry     beta=0.30
     Davidson diagonalization with overlap
     ethr =  1.60E-06,  avg # of iterations =  1.1

     negative rho (up, down):  0.128E-01 0.127E-01

     total cpu time spent up to now is      143.3 secs

     total energy              =    -366.46231033 Ry
     Harris-Foulkes estimate   =    -366.46233310 Ry
     estimated scf accuracy    <       0.00016496 Ry

     total magnetization       =     0.00 Bohr mag/cell
     absolute magnetization    =     0.04 Bohr mag/cell

     iteration #  9     ecut=    40.00 Ry     beta=0.30
     Davidson diagonalization with overlap
     ethr =  3.44E-07,  avg # of iterations =  1.0

     negative rho (up, down):  0.127E-01 0.127E-01

     total cpu time spent up to now is      156.3 secs

     total energy              =    -366.46232885 Ry
     Harris-Foulkes estimate   =    -366.46233563 Ry
     estimated scf accuracy    <       0.00002925 Ry

     total magnetization       =     0.00 Bohr mag/cell
     absolute magnetization    =     0.00 Bohr mag/cell

     iteration # 10     ecut=    40.00 Ry     beta=0.30
     Davidson diagonalization with overlap
     ethr =  6.09E-08,  avg # of iterations =  1.0

     negative rho (up, down):  0.127E-01 0.127E-01

     total cpu time spent up to now is      169.9 secs

     total energy              =    -366.46233812 Ry
     Harris-Foulkes estimate   =    -366.46233699 Ry
     estimated scf accuracy    <       0.00000400 Ry

     total magnetization       =    -0.00 Bohr mag/cell
     absolute magnetization    =     0.00 Bohr mag/cell

     iteration # 11     ecut=    40.00 Ry     beta=0.30
     Davidson diagonalization with overlap
     ethr =  8.34E-09,  avg # of iterations =  1.0

     negative rho (up, down):  0.127E-01 0.127E-01

     total cpu time spent up to now is      182.8 secs

     End of self-consistent calculation

 ------ SPIN UP ------------


          k = 0.0000 0.0000 0.0000 (  1667 PWs)   bands (ev):

   -46.2838 -46.2582 -22.7020 -22.7020 -22.4711 -22.4711 -22.4101 -22.3587
    -8.2470  -6.9676  -5.9950  -5.9950   4.2019   4.5426   4.8757   6.1914
     6.1914   7.6369   7.6369   8.2771   9.6308   9.8706   9.8706  10.3137
    12.4017  12.7740  12.9916  13.1016  13.1016  15.3513  15.4301  17.7028
    17.7028  18.7776  18.8801  22.5228  22.5228  25.4611  26.6092  27.7644
    30.0340  30.1291  30.8344  30.8344  32.8140  34.2904  35.2639  35.2639
    36.3492  36.9157  36.9157  37.2791  37.6313  37.6313  38.4386  40.3868
    43.5268  43.9787  44.0785  44.0785  44.1441  45.0154  45.8157  45.8157
    47.8874  48.6962  48.7931  48.7931  51.6267

          k = 0.0000 0.0000 0.3103 (  1667 PWs)   bands (ev):

   -46.2612 -46.2405 -22.6448 -22.6448 -22.6217 -22.5831 -22.4619 -22.4619
    -7.7776  -6.6933  -6.2384  -6.2384   4.8087   5.0088   5.3685   5.9229
     5.9229   7.2006   8.2343   8.2779   8.2779   9.1163   9.1163  10.0130
    12.7928  13.0899  13.2327  13.6005  13.6005  15.0716  15.8886  17.2360
    17.2360  18.1375  19.9885  24.0108  24.0108  25.5595  26.0294  28.3086
    28.5595  29.8984  30.1479  30.1479  31.3438  34.4674  34.8187  34.8187
    36.1759  36.1759  37.0096  37.3870  38.2950  40.2055  40.3699  40.3699
    41.7564  41.7564  42.8164  43.1760  46.6492  47.2575  47.5193  47.5193
    47.8957  49.7911  49.7911  50.2097  50.9724

          k = 0.0000 0.0000 0.6207 (  1667 PWs)   bands (ev):

   -46.2221 -46.2141 -22.9454 -22.9324 -22.5364 -22.5364 -22.4611 -22.4611
    -6.8506  -6.6255  -6.6255  -6.3991   5.5727   5.5962   6.1321   6.1321
     6.3468   6.7448   6.7725   7.7883   7.7883   8.6093   8.8017   8.8017
    13.1530  13.5582  13.9878  14.1509  14.3014  14.3014  16.4239  16.7984
    17.1039  17.1039  22.2584  24.3981  25.9926  26.1430  26.1430  26.9305
    28.7579  28.7579  29.0976  29.4487  30.2763  31.9803  34.2246  34.2246
    36.5818  36.5818  38.0939  38.3051  38.7198  40.2958  40.9032  40.9032
    41.5639  43.7207  43.7207  44.4048  46.9570  47.1397  47.1737  47.1737
    49.3636  50.0726  50.0727  50.2059  50.4808

          k = 0.0000 0.2000 0.0000 (  1683 PWs)   bands (ev):

   -46.2813 -46.2606 -22.6840 -22.6821 -22.4937 -22.4916 -22.4052 -22.3636
    -8.0837  -6.9626  -6.1650  -6.0704   4.4725   4.7279   5.1773   6.2096
     6.2210   7.3714   7.5739   8.2929   9.1396   9.3599   9.5347  10.1531
    12.6431  13.0486  13.2771  13.2981  13.3396  15.1984  15.6783  17.5525
    17.5825  18.5314  19.3308  22.4389  22.8627  25.4555  26.3636  27.5389
    29.7753  30.5341  30.6985  31.3374  33.2090  33.7057  33.9064  34.0354
    35.4326  36.8405  37.1796  37.5222  37.8586  38.3904  40.6617  40.9401
    41.7743  43.3682  44.1056  44.6839  44.7453  45.7634  46.1805  46.8257
    47.9794  49.0095  49.0724  49.6047  51.0606

          k = 0.0000 0.2000 0.3103 (  1678 PWs)   bands (ev):

   -46.2592 -46.2424 -22.6543 -22.6311 -22.5953 -22.5930 -22.4766 -22.4710
    -7.6447  -6.6666  -6.3908  -6.2872   5.0020   5.2069   5.4254   5.8833
     6.2533   7.0667   7.5549   8.2503   8.2605   9.0270   9.0664   9.8989
    12.8166  13.3805  13.3969  13.5536  13.8198  14.8993  16.0989  16.8599
    17.1414  18.2129  20.3892  23.6070  24.2520  25.8228  26.1204  27.8779
    28.3740  29.4452  29.7246  31.0038  31.6654  33.3880  33.9077  35.0365
    36.0357  36.0906  37.6068  38.1699  38.3587  39.8157  40.2071  40.7470
    41.6166  42.2576  42.9112  44.4870  46.3552  47.0617  48.0727  48.1063
    48.1596  49.1535  49.3912  50.5010  50.5358

          k = 0.0000 0.2000 0.6207 (  1667 PWs)   bands (ev):

   -46.2213 -46.2149 -22.9504 -22.9396 -22.5275 -22.5248 -22.4666 -22.4642
    -6.9681  -6.8000  -6.4568  -6.2573   5.3771   5.4990   5.7455   6.0752
     6.5933   6.7336   7.3688   7.7681   7.9876   8.5911   8.6925   8.9324
    12.8516  13.5919  13.6817  13.9889  14.4401  14.5358  16.2490  16.3072
    17.3941  17.7432  22.3072  24.1399  25.3621  26.3330  26.5312  26.9003
    28.2059  28.3352  29.4783  29.5695  30.5957  31.6357  33.8510  34.3629
    36.7381  36.9531  38.1313  38.4010  39.0809  40.3020  40.6892  41.1824
    42.1365  43.2510  43.5976  44.5427  45.7490  47.1126  47.7139  47.8551
    48.9962  49.6217  49.7427  50.6469  51.1323

          k = 0.0000 0.4000 0.0000 (  1671 PWs)   bands (ev):

   -46.2748 -46.2669 -22.6386 -22.6346 -22.5453 -22.5412 -22.3922 -22.3764
    -7.6499  -7.1486  -6.3588  -6.2445   4.9443   5.0636   6.1529   6.2485
     6.2610   6.9613   7.2364   7.6975   8.4424   8.8390   9.3586   9.7144
    13.0462  13.2419  13.6111  13.6723  13.9364  14.6302  16.6023  17.3144
    17.3484  17.7076  20.4975  21.7429  23.8373  25.0344  26.4338  27.1191
    29.6025  30.4101  30.7459  31.6449  31.7204  33.0663  34.2209  34.5165
    35.4821  35.5794  37.3181  37.3462  38.5203  39.1354  39.7312  40.1232
    43.6682  44.0417  44.3371  44.8668  45.4868  46.0821  47.3291  48.3335
    48.6802  49.1369  49.7382  49.7405  50.3711

          k = 0.0000 0.4000 0.3103 (  1677 PWs)   bands (ev):

   -46.2540 -46.2476 -22.6493 -22.6282 -22.5838 -22.5628 -22.5071 -22.4954
    -7.2879  -6.8327  -6.5290  -6.4062   5.4060   5.5830   5.6956   5.8299
     6.6785   6.8061   7.1778   7.7054   7.9228   8.5012   9.3351   9.6490
    13.1280  13.4126  13.7094  13.7992  14.1816  14.4977  16.3350  16.4136
    17.2732  17.8772  21.4089  22.5998  25.0243  25.9520  26.4858  27.2437
    28.1552  28.4644  29.6977  30.8311  31.9819  32.8047  33.7244  35.3633
    35.9962  36.1454  37.7266  38.3009  38.3298  38.9891  40.6601  41.0340
    41.3302  42.8555  44.0063  44.8445  46.5394  46.8364  47.8841  49.1016
    49.4548  49.5744  50.1760  50.6468  50.8703

          k = 0.0000 0.4000 0.6207 (  1665 PWs)   bands (ev):

   -46.2193 -46.2168 -22.9566 -22.9524 -22.5073 -22.5014 -22.4808 -22.4751
    -7.0454  -6.9848  -6.2516  -6.1704   5.0600   5.1612   5.8554   6.0446
     6.6843   7.1939   7.2471   7.8690   8.3372   8.3495   8.8324   9.2867
    12.5013  12.8617  13.8700  13.9775  14.5943  14.6202  15.9459  16.0532
    17.9437  18.1583  22.6569  23.4056  25.2228  25.7093  26.9266  27.2584
    27.7032  27.9121  29.5196  30.0423  30.4387  30.8122  34.1906  34.8448
    37.2938  37.4926  38.3756  38.4269  39.5794  39.7058  40.2741  40.5452
    41.6556  42.6306  44.8128  45.0841  46.7035  46.9075  47.9873  48.3067
    48.7142  49.1557  50.7615  50.9606  51.3789

          k = 0.2000 0.2000 0.0000 (  1678 PWs)   bands (ev):

   -46.2793 -46.2625 -22.7088 -22.6322 -22.5468 -22.4670 -22.4011 -22.3675
    -7.9610  -6.9920  -6.3130  -6.0522   4.3730   5.0898   5.4175   6.1634
     6.2652   7.1447   7.6933   8.3406   8.6946   9.2588   9.3644  10.0473
    12.5041  13.1100  13.2214  13.5755  13.6451  15.0657  15.8947  17.3310
    17.6981  18.2516  19.8185  22.6444  22.8980  25.4287  26.0841  27.0945
    29.6878  30.5966  30.9239  31.9733  33.2891  33.5004  33.9031  33.9154
    33.9826  36.1885  36.4959  37.6191  39.0115  39.1838  40.9124  41.5704
    41.6391  43.0975  43.4743  44.7389  45.7488  45.8564  46.7079  47.0703
    47.8373  48.9423  49.5844  49.7653  50.5039

          k = 0.2000 0.2000 0.3103 (  1671 PWs)   bands (ev):

   -46.2576 -46.2440 -22.6506 -22.6398 -22.6042 -22.5682 -22.5026 -22.4586
    -7.5392  -6.6626  -6.5186  -6.2883   4.8865   5.3937   5.5442   5.9861
     6.3915   6.8441   7.7287   7.8717   8.2517   9.0013   9.1218   9.7499
    12.8614  13.1119  13.5289  13.8775  13.8867  14.7634  16.1628  16.7026
    17.2367  18.1005  20.7582  23.5581  24.1405  25.9629  26.1487  27.1857
    28.3750  29.4753  30.4491  30.4668  31.7318  33.0370  33.2833  35.1350
    36.0566  36.1855  37.6322  37.6664  39.1233  40.2430  40.3883  40.7272
    41.6531  42.4227  43.5949  44.4071  46.4936  47.0332  47.6215  48.4386
    48.4437  49.5727  50.2079  50.2564  50.4345

          k = 0.2000 0.2000 0.6207 (  1663 PWs)   bands (ev):

   -46.2207 -46.2155 -22.9540 -22.9391 -22.5392 -22.5024 -22.4791 -22.4605
    -7.0387  -6.6658  -6.5870  -6.1798   5.1755   5.5922   5.7692   5.8627
     6.2335   7.3285   7.4923   7.7848   7.8700   8.6028   8.7760   9.1596
    12.6921  13.6891  13.7063  13.8911  14.0988  14.7333  15.9002  16.8393
    17.0980  18.0014  22.3072  24.1688  24.5052  26.1238  26.7966  27.2849
    27.5842  29.1111  29.2114  29.4899  30.3639  32.2535  32.9444  34.7477
    36.6156  36.9496  37.5921  39.2623  39.7720  40.3200  40.5188  41.4720
    42.9879  43.2062  43.8525  45.0030  45.2400  46.4473  46.9811  48.2953
    48.9315  49.1184  50.1071  50.7561  51.1276

          k = 0.2000 0.4000 0.0000 (  1678 PWs)   bands (ev):

   -46.2740 -46.2676 -22.6935 -22.6444 -22.5368 -22.4857 -22.3907 -22.3778
    -7.6342  -7.2322  -6.3361  -6.1746   4.5964   5.0376   6.1765   6.1945
     6.2387   7.1231   7.4952   8.1783   8.5622   8.9397   9.0379   9.5440
    12.7709  13.1477  13.3154  13.6471  14.1208  14.6683  16.6077  17.3287
    17.5176  17.5629  20.8901  22.0277  23.8475  25.0498  25.9307  26.4509
    29.6171  30.1314  31.7630  31.9768  32.2548  33.2342  33.9566  34.2223
    34.2758  35.3312  36.6947  38.0737  38.2408  39.2502  40.4099  41.2940
    43.5137  43.6732  43.6915  44.7242  44.8222  46.1341  47.8376  48.2083
    48.8109  49.1485  49.3837  49.9620  50.5384

          k = 0.2000 0.4000 0.3103 (  1671 PWs)   bands (ev):

   -46.2533 -46.2481 -22.6521 -22.6370 -22.6031 -22.5695 -22.4978 -22.4687
    -7.2597  -6.9055  -6.4985  -6.3761   5.0893   5.4894   5.5379   5.7248
     6.8406   7.0894   7.4723   7.9640   8.1005   8.6520   9.0869   9.4102
    13.1474  13.3026  13.4997  13.8238  14.1116  14.4276  16.3799  16.7381
    17.2644  17.7320  21.6396  22.6996  24.8403  25.9459  26.2297  26.4142
    28.4967  29.0460  29.8838  30.7416  31.6056  32.2413  33.9403  35.5089
    35.8357  36.0874  37.8018  38.0685  38.9487  39.2661  40.4979  41.1258
    42.3163  43.1059  44.1227  44.8830  45.9266  47.2286  47.4818  48.5258
    49.4337  49.9940  50.1841  50.5527  50.8591

          k = 0.2000 0.4000 0.6207 (  1660 PWs)   bands (ev):

   -46.2190 -46.2170 -22.9535 -22.9454 -22.5303 -22.5071 -22.4762 -22.4641
    -7.0220  -6.8710  -6.3650  -6.1958   5.0280   5.1910   5.8317   5.9881
     6.3497   7.0324   7.6169   7.7751   8.2553   8.6034   9.0683   9.4172
    12.5993  13.0553  13.8300  13.9339  14.2580  14.5885  15.9840  16.4226
    17.6510  18.0590  22.5291  23.2670  24.6198  25.4834  26.8177  27.1568
    28.2575  28.6584  28.9690  29.6024  30.5135  31.4530  33.8635  35.1678
    36.7076  37.2130  37.4890  38.6510  39.8695  40.1139  41.1485  42.1833
    42.4264  43.6181  44.8718  45.0310  46.1550  46.6062  46.8855  48.0804
    48.7156  49.1165  49.6977  50.8773  51.2551

          k = 0.4000 0.4000 0.0000 (  1676 PWs)   bands (ev):

   -46.2720 -46.2696 -22.7198 -22.7000 -22.4814 -22.4604 -22.3867 -22.3818
    -7.5615  -7.4108  -6.2243  -6.1406   4.3947   4.6101   6.1183   6.1528
     6.7296   7.3037   7.8571   8.3430   8.8066   8.8406   9.0181   9.4080
    12.4756  12.7600  13.1247  13.3238  14.4423  14.6433  16.7786  17.1247
    17.5585  17.6903  21.7002  22.2980  24.0522  24.8255  25.3965  25.6687
    29.5869  29.8246  32.5892  32.7926  32.9078  32.9088  33.0876  33.3804
    34.4728  34.8889  37.5972  37.7107  38.1721  39.0553  41.1137  41.6878
    43.2077  43.3423  43.8819  44.3752  44.5469  44.6493  48.4807  49.3029
    49.3134  49.4547  49.6749  50.0348  51.7709

          k = 0.4000 0.4000 0.3103 (  1665 PWs)   bands (ev):

   -46.2517 -46.2497 -22.6600 -22.6535 -22.6061 -22.5921 -22.4656 -22.4533
    -7.1770  -7.0484  -6.4224  -6.3660   4.8953   5.1043   5.4082   5.4956
     7.4736   7.5806   7.7876   8.2027   8.5315   8.5620   8.7812   8.9393
    13.0899  13.3026  13.3356  13.5137  14.1180  14.2503  16.7725  17.0384
    17.2298  17.4207  22.1689  22.6676  24.7542  25.3540  26.1715  26.1719
    28.5859  28.7330  30.2315  30.4583  31.4342  31.9950  34.3129  35.2149
    35.7753  35.9625  38.3185  38.9940  39.1549  39.7862  40.2951  40.4673
    43.1923  43.6377  44.2389  44.4978  46.1176  46.6568  47.4343  47.8313
    50.0637  50.0870  50.6908  50.7126  51.1151

          k = 0.4000 0.4000 0.6207 (  1655 PWs)   bands (ev):

   -46.2183 -46.2176 -22.9434 -22.9385 -22.5437 -22.5328 -22.4634 -22.4595
    -6.8850  -6.7292  -6.5034  -6.3386   5.0622   5.2201   5.6041   5.7447
     6.4644   6.7513   7.6746   7.7192   8.5848   8.7715   9.3907   9.5518
    12.9397  13.3823  13.7511  13.8289  13.8866  14.2178  16.4040  17.0002
    17.0859  17.6535  22.3648  22.6671  24.7725  25.6307  25.8531  26.6083
    28.6759  28.8455  29.2866  29.8119  30.5568  31.1430  34.5899  35.4454
    36.6813  36.7558  37.1997  37.9690  40.3640  40.4498  42.2395  43.0005
    44.3604  44.8050  45.1127  45.5138  45.8556  46.4604  46.5465  47.0843
    48.2741  48.9503  49.5523  50.3863  50.8895

 ------ SPIN DOWN ----------


          k = 0.0000 0.0000 0.0000 (  1667 PWs)   bands (ev):

   -46.2826 -46.2570 -22.7008 -22.7008 -22.4699 -22.4699 -22.4091 -22.3576
    -8.2471  -6.9678  -5.9953  -5.9953   4.2024   4.5429   4.8759   6.1915
     6.1915   7.6369   7.6369   8.2770   9.6305   9.8702   9.8702  10.3132
    12.4032  12.7751  12.9925  13.1027  13.1027  15.3522  15.4308  17.7032
    17.7032  18.7781  18.8807  22.5238  22.5238  25.4614  26.6104  27.7653
    30.0345  30.1299  30.8349  30.8349  32.8149  34.2910  35.2650  35.2650
    36.3503  36.9168  36.9168  37.2799  37.6321  37.6321  38.4396  40.3877
    43.5279  43.9794  44.0791  44.0791  44.1450  45.0161  45.8163  45.8163
    47.8881  48.6970  48.7937  48.7937  51.6275

          k = 0.0000 0.0000 0.3103 (  1667 PWs)   bands (ev):

   -46.2601 -46.2393 -22.6436 -22.6436 -22.6206 -22.5821 -22.4607 -22.4607
    -7.7777  -6.6935  -6.2386  -6.2386   4.8091   5.0090   5.3686   5.9231
     5.9231   7.2007   8.2343   8.2777   8.2777   9.1162   9.1162  10.0125
    12.7938  13.0910  13.2340  13.6013  13.6013  15.0723  15.8894  17.2366
    17.2366  18.1380  19.9891  24.0117  24.0117  25.5599  26.0304  28.3095
    28.5602  29.8989  30.1486  30.1486  31.3447  34.4683  34.8197  34.8197
    36.1768  36.1768  37.0104  37.3878  38.2961  40.2066  40.3707  40.3707
    41.7571  41.7571  42.8172  43.1767  46.6502  47.2584  47.5199  47.5199
    47.8964  49.7918  49.7918  50.2104  50.9733

          k = 0.0000 0.0000 0.6207 (  1667 PWs)   bands (ev):

   -46.2209 -46.2129 -22.9444 -22.9314 -22.5353 -22.5353 -22.4599 -22.4599
    -6.8507  -6.6258  -6.6258  -6.3993   5.5731   5.5965   6.1323   6.1323
     6.3469   6.7448   6.7727   7.7883   7.7883   8.6091   8.8015   8.8015
    13.1538  13.5593  13.9891  14.1516  14.3019  14.3019  16.4247  16.7991
    17.1044  17.1044  22.2590  24.3988  25.9931  26.1438  26.1438  26.9312
    28.7588  28.7588  29.0984  29.4493  30.2771  31.9812  34.2253  34.2253
    36.5825  36.5825  38.0948  38.3059  38.7208  40.2965  40.9041  40.9041
    41.5647  43.7216  43.7216  44.4056  46.9577  47.1405  47.1745  47.1745
    49.3646  50.0734  50.0734  50.4810  50.4813

          k = 0.0000 0.2000 0.0000 (  1683 PWs)   bands (ev):

   -46.2801 -46.2594 -22.6828 -22.6809 -22.4926 -22.4905 -22.4041 -22.3625
    -8.0838  -6.9628  -6.1652  -6.0706   4.4729   4.7282   5.1774   6.2097
     6.2211   7.3714   7.5738   8.2928   9.1394   9.3597   9.5344  10.1525
    12.6444  13.0497  13.2780  13.2990  13.3406  15.1991  15.6790  17.5529
    17.5829  18.5318  19.3314  22.4397  22.8636  25.4560  26.3647  27.5397
    29.7759  30.5349  30.6992  31.3382  33.2099  33.7067  33.9075  34.0359
    35.4337  36.8413  37.1806  37.5232  37.8594  38.3914  40.6626  40.9411
    41.7750  43.3689  44.1062  44.6851  44.7462  45.7641  46.1811  46.8264
    47.9801  49.0101  49.0731  49.6054  51.0570

          k = 0.0000 0.2000 0.3103 (  1678 PWs)   bands (ev):

   -46.2581 -46.2413 -22.6532 -22.6300 -22.5942 -22.5919 -22.4755 -22.4699
    -7.6448  -6.6669  -6.3910  -6.2875   5.0024   5.2071   5.4255   5.8834
     6.2534   7.0668   7.5549   8.2502   8.2605   9.0268   9.0663   9.8984
    12.8176  13.3815  13.3981  13.5544  13.8206  14.9000  16.0996  16.8605
    17.1420  18.2134  20.3898  23.6077  24.2529  25.8235  26.1214  27.8787
    28.3748  29.4460  29.7252  31.0046  31.6663  33.3890  33.9087  35.0373
    36.0365  36.0914  37.6076  38.1707  38.3596  39.8166  40.2081  40.7477
    41.6173  42.2584  42.9122  44.4877  46.3560  47.0627  48.0734  48.1070
    48.1605  49.1541  49.3919  50.5017  50.5364

          k = 0.0000 0.2000 0.6207 (  1667 PWs)   bands (ev):

   -46.2201 -46.2137 -22.9494 -22.9386 -22.5264 -22.5237 -22.4654 -22.4630
    -6.9683  -6.8003  -6.4570  -6.2575   5.3773   5.4992   5.7457   6.0754
     6.5934   6.7337   7.3689   7.7682   7.9877   8.5909   8.6923   8.9321
    12.8525  13.5927  13.6829  13.9902  14.4407  14.5364  16.2497  16.3079
    17.3946  17.7437  22.3077  24.1406  25.3626  26.3337  26.5320  26.9012
    28.2067  28.3360  29.4790  29.5703  30.5965  31.6365  33.8518  34.3637
    36.7388  36.9538  38.1322  38.4019  39.0816  40.3028  40.6901  41.1834
    42.1375  43.2518  43.5984  44.5436  45.7498  47.1135  47.7147  47.8559
    48.9970  49.6225  49.7432  50.6478  51.1330

          k = 0.0000 0.4000 0.0000 (  1671 PWs)   bands (ev):

   -46.2736 -46.2657 -22.6374 -22.6334 -22.5442 -22.5401 -22.3912 -22.3753
    -7.6500  -7.1487  -6.3590  -6.2447   4.9447   5.0639   6.1530   6.2486
     6.2611   6.9613   7.2365   7.6976   8.4423   8.8389   9.3582   9.7140
    13.0475  13.2431  13.6120  13.6732  13.9372  14.6309  16.6029  17.3148
    17.3489  17.7081  20.4980  21.7434  23.8383  25.0353  26.4347  27.1199
    29.6032  30.4110  30.7468  31.6457  31.7214  33.0670  34.2217  34.5174
    35.4828  35.5805  37.3190  37.3471  38.5211  39.1364  39.7319  40.1241
    43.6690  44.0425  44.3378  44.8676  45.4877  46.0829  47.3301  48.3341
    48.6809  49.1376  49.7388  49.7411  50.3719

          k = 0.0000 0.4000 0.3103 (  1677 PWs)   bands (ev):

   -46.2528 -46.2464 -22.6482 -22.6272 -22.5826 -22.5616 -22.5061 -22.4943
    -7.2880  -6.8329  -6.5293  -6.4065   5.4063   5.5833   5.6957   5.8301
     6.6786   6.8062   7.1779   7.7054   7.9228   8.5012   9.3348   9.6486
    13.1290  13.4135  13.7105  13.8001  14.1824  14.4985  16.3356  16.4142
    17.2737  17.8777  21.4094  22.6002  25.0252  25.9529  26.4866  27.2445
    28.1560  28.4652  29.6985  30.8320  31.9828  32.8056  33.7253  35.3642
    35.9970  36.1462  37.7273  38.3016  38.3307  38.9900  40.6609  41.0349
    41.3311  42.8564  44.0072  44.8453  46.5401  46.8373  47.8849  49.1023
    49.4554  49.5751  50.1766  50.6473  50.8710

          k = 0.0000 0.4000 0.6207 (  1665 PWs)   bands (ev):

   -46.2181 -46.2156 -22.9556 -22.9514 -22.5062 -22.5004 -22.4795 -22.4739
    -7.0456  -6.9850  -6.2518  -6.1706   5.0603   5.1615   5.8556   6.0447
     6.6844   7.1940   7.2471   7.8689   8.3371   8.3494   8.8321   9.2863
    12.5023  12.8626  13.8712  13.9788  14.5950  14.6209  15.9465  16.0539
    17.9442  18.1587  22.6575  23.4061  25.2234  25.7100  26.9274  27.2591
    27.7041  27.9130  29.5204  30.0431  30.4395  30.8130  34.1915  34.8457
    37.2945  37.4932  38.3766  38.4278  39.5801  39.7066  40.2749  40.5461
    41.6564  42.6314  44.8138  45.0849  46.7042  46.9082  47.9881  48.3075
    48.7149  49.1563  50.7623  50.9613  51.3797

          k = 0.2000 0.2000 0.0000 (  1678 PWs)   bands (ev):

   -46.2781 -46.2614 -22.7076 -22.6309 -22.5458 -22.4659 -22.4001 -22.3664
    -7.9611  -6.9922  -6.3132  -6.0524   4.3734   5.0901   5.4176   6.1634
     6.2653   7.1448   7.6932   8.3405   8.6943   9.2586   9.3642  10.0468
    12.5054  13.1111  13.2226  13.5763  13.6460  15.0664  15.8954  17.3314
    17.6985  18.2520  19.8191  22.6451  22.8989  25.4294  26.0852  27.0953
    29.6884  30.5973  30.9247  31.9743  33.2901  33.5012  33.9041  33.9160
    33.9837  36.1894  36.4967  37.6199  39.0124  39.1849  40.9131  41.5713
    41.6401  43.0982  43.4750  44.7397  45.7496  45.8575  46.7087  47.0710
    47.8380  48.9430  49.5851  49.7659  50.5045

          k = 0.2000 0.2000 0.3103 (  1671 PWs)   bands (ev):

   -46.2564 -46.2428 -22.6494 -22.6388 -22.6031 -22.5669 -22.5016 -22.4575
    -7.5393  -6.6628  -6.5188  -6.2885   4.8869   5.3939   5.5445   5.9863
     6.3916   6.8442   7.7288   7.8717   8.2515   9.0012   9.1216   9.7494
    12.8623  13.1131  13.5299  13.8782  13.8876  14.7641  16.1635  16.7032
    17.2373  18.1010  20.7588  23.5586  24.1413  25.9637  26.1497  27.1864
    28.3758  29.4759  30.4500  30.4675  31.7327  33.0379  33.2844  35.1358
    36.0574  36.1863  37.6331  37.6672  39.1241  40.2437  40.3891  40.7281
    41.6541  42.4235  43.5957  44.4078  46.4944  47.0341  47.6223  48.4394
    48.4446  49.5735  50.2085  50.2571  50.4352

          k = 0.2000 0.2000 0.6207 (  1663 PWs)   bands (ev):

   -46.2195 -46.2143 -22.9530 -22.9381 -22.5381 -22.5014 -22.4779 -22.4593
    -7.0389  -6.6661  -6.5872  -6.1800   5.1758   5.5924   5.7694   5.8629
     6.2337   7.3286   7.4923   7.7848   7.8700   8.6027   8.7758   9.1593
    12.6930  13.6898  13.7075  13.8922  14.0998  14.7339  15.9009  16.8400
    17.0985  18.0019  22.3078  24.1694  24.5058  26.1245  26.7974  27.2857
    27.5851  29.1118  29.2122  29.4908  30.3647  32.2544  32.9453  34.7486
    36.6164  36.9502  37.5929  39.2630  39.7729  40.3206  40.5197  41.4729
    42.9887  43.2071  43.8533  45.0039  45.2409  46.4481  46.9818  48.2959
    48.9323  49.1191  50.1078  50.7567  51.1284

          k = 0.2000 0.4000 0.0000 (  1678 PWs)   bands (ev):

   -46.2729 -46.2665 -22.6924 -22.6432 -22.5357 -22.4846 -22.3896 -22.3768
    -7.6344  -7.2324  -6.3363  -6.1748   4.5968   5.0380   6.1765   6.1946
     6.2387   7.1232   7.4952   8.1782   8.5621   8.9396   9.0376   9.5436
    12.7722  13.1489  13.3163  13.6480  14.1215  14.6690  16.6083  17.3291
    17.5182  17.5633  20.8907  22.0282  23.8484  25.0507  25.9317  26.4518
    29.6179  30.1323  31.7640  31.9775  32.2558  33.2349  33.9576  34.2233
    34.2766  35.3320  36.6955  38.0745  38.2416  39.2509  40.4109  41.2949
    43.5145  43.6740  43.6923  44.7250  44.8230  46.1349  47.8383  48.2092
    48.8116  49.1494  49.3843  49.9626  50.5390

          k = 0.2000 0.4000 0.3103 (  1671 PWs)   bands (ev):

   -46.2522 -46.2470 -22.6510 -22.6360 -22.6019 -22.5683 -22.4967 -22.4675
    -7.2599  -6.9057  -6.4988  -6.3763   5.0896   5.4895   5.5382   5.7249
     6.8406   7.0895   7.4723   7.9640   8.1004   8.6520   9.0867   9.4098
    13.1483  13.3036  13.5007  13.8247  14.1124  14.4283  16.3804  16.7387
    17.2650  17.7325  21.6400  22.7000  24.8411  25.9467  26.2306  26.4151
    28.4975  29.0467  29.8847  30.7426  31.6065  32.2422  33.9411  35.5097
    35.8365  36.0882  37.8025  38.0692  38.9495  39.2668  40.4986  41.1266
    42.3173  43.1069  44.1236  44.8838  45.9274  47.2295  47.4825  48.5263
    49.4343  49.9948  50.1847  50.5534  50.8597

          k = 0.2000 0.4000 0.6207 (  1660 PWs)   bands (ev):

   -46.2178 -46.2158 -22.9524 -22.9443 -22.5292 -22.5060 -22.4750 -22.4628
    -7.0222  -6.8712  -6.3652  -6.1960   5.0283   5.1912   5.8319   5.9883
     6.3498   7.0325   7.6170   7.7751   8.2552   8.6032   9.0681   9.4168
    12.6003  13.0562  13.8313  13.9351  14.2587  14.5891  15.9847  16.4232
    17.6515  18.0595  22.5298  23.2676  24.6205  25.4840  26.8184  27.1574
    28.2584  28.6593  28.9697  29.6032  30.5143  31.4539  33.8644  35.1686
    36.7085  37.2136  37.4897  38.6520  39.8700  40.1144  41.1494  42.1842
    42.4273  43.6190  44.8727  45.0318  46.1557  46.6069  46.8864  48.0810
    48.7164  49.1172  49.6985  50.8780  51.2558

          k = 0.4000 0.4000 0.0000 (  1676 PWs)   bands (ev):

   -46.2708 -46.2684 -22.7187 -22.6989 -22.4803 -22.4592 -22.3856 -22.3807
    -7.5616  -7.4110  -6.2245  -6.1408   4.3950   4.6105   6.1184   6.1529
     6.7296   7.3036   7.8570   8.3429   8.8064   8.8404   9.0179   9.4077
    12.4769  12.7612  13.1257  13.3248  14.4429  14.6439  16.7792  17.1253
    17.5589  17.6907  21.7006  22.2984  24.0530  24.8262  25.3976  25.6698
    29.5878  29.8255  32.5903  32.7934  32.9089  32.9096  33.0884  33.3811
    34.4736  34.8897  37.5979  37.7115  38.1728  39.0561  41.1146  41.6887
    43.2086  43.3432  43.8828  44.3760  44.5477  44.6502  48.4813  49.3034
    49.3142  49.4553  49.6757  50.0356  51.7719

          k = 0.4000 0.4000 0.3103 (  1665 PWs)   bands (ev):

   -46.2505 -46.2485 -22.6588 -22.6524 -22.6050 -22.5910 -22.4645 -22.4522
    -7.1772  -7.0486  -6.4226  -6.3663   4.8956   5.1046   5.4083   5.4957
     7.4736   7.5805   7.7876   8.2026   8.5314   8.5618   8.7810   8.9391
    13.0911  13.3035  13.3368  13.5146  14.1187  14.2509  16.7731  17.0390
    17.2303  17.4213  22.1693  22.6681  24.7549  25.3547  26.1724  26.1729
    28.5868  28.7338  30.2324  30.4593  31.4351  31.9959  34.3138  35.2157
    35.7762  35.9633  38.3191  38.9947  39.1555  39.7869  40.2959  40.4681
    43.1932  43.6386  44.2399  44.4988  46.1184  46.6575  47.4351  47.8320
    50.0644  50.0876  50.6914  50.7135  51.1157

          k = 0.4000 0.4000 0.6207 (  1655 PWs)   bands (ev):

   -46.2172 -46.2164 -22.9424 -22.9374 -22.5426 -22.5316 -22.4622 -22.4583
    -6.8853  -6.7295  -6.5037  -6.3388   5.0625   5.2204   5.6043   5.7450
     6.4645   6.7514   7.6746   7.7193   8.5845   8.7712   9.3904   9.5514
    12.9406  13.3831  13.7521  13.8301  13.8877  14.2185  16.4046  17.0009
    17.0864  17.6540  22.3656  22.6679  24.7731  25.6316  25.8536  26.6089
    28.6766  28.8462  29.2876  29.8129  30.5577  31.1440  34.5907  35.4462
    36.6821  36.7565  37.2006  37.9699  40.3644  40.4502  42.2404  43.0013
    44.3612  44.8058  45.1136  45.5147  45.8564  46.4611  46.5472  47.0851
    48.2749  48.9512  49.5529  50.3868  50.8902

     the Fermi energy is    12.3820 ev

!    total energy              =    -366.46234038 Ry
     Harris-Foulkes estimate   =    -366.46233906 Ry
     estimated scf accuracy    <       0.00000010 Ry

     The total energy is the sum of the following terms:

     one-electron contribution =    -114.90290222 Ry
     hartree contribution      =      83.23268259 Ry
     xc contribution           =     -63.66971221 Ry
     ewald contribution        =    -271.12259614 Ry
     smearing contrib. (-TS)   =       0.00018760 Ry

     total magnetization       =     0.00 Bohr mag/cell
     absolute magnetization    =     0.00 Bohr mag/cell

     convergence has been achieved in  11 iterations

     Forces acting on atoms (Ry/au):


     negative rho (up, down):  0.127E-01 0.127E-01
     atom    1 type  1   force =     0.00000000    0.00000000    0.00000000
     atom    2 type  1   force =     0.00000000    0.00000000   -0.00000000
     atom    3 type  2   force =    -0.01500214   -0.01500214    0.00000000
     atom    4 type  2   force =     0.01500214    0.01500214   -0.00000000
     atom    5 type  2   force =    -0.01500214    0.01500214    0.00000000
     atom    6 type  2   force =     0.01500214   -0.01500214   -0.00000000

     Total force =     0.042432     Total SCF correction =     0.000096


     entering subroutine stress ...


     negative rho (up, down):  0.127E-01 0.127E-01
          total   stress  (Ry/bohr**3)                   (kbar)     P=  268.05
   0.00170838   0.00000000   0.00000000        251.31      0.00      0.00
   0.00000000   0.00170838   0.00000000          0.00    251.31      0.00
   0.00000000   0.00000000   0.00204965          0.00      0.00    301.51

     Volume is kept fixed: isostatic pressure set to zero

     BFGS Geometry Optimization

     number of scf cycles    =   1
     number of bfgs steps    =   0

     enthalpy new            =    -366.4623403778 Ry

     new trust radius        =       0.0224741372 bohr
     new conv_thr            =       0.0000010000 Ry

     new unit-cell volume =    390.31355 a.u.^3 (    57.83850 Ang^3 )

CELL_PARAMETERS (alat=  8.46076011)
   0.997164137   0.000000000   0.000000000
   0.000000000   0.997164137   0.000000000
   0.000000000   0.000000000   0.648115164

ATOMIC_POSITIONS (crystal)
Ti0      0.000000000   0.000000000   0.000000000    0   0   0
Ti0      0.500000000   0.500000000   0.500000000    0   0   0
O1       0.303226857   0.303226857   0.000000000    1   1   0
O1      -0.303226857  -0.303226857   0.000000000    1   1   0
O1       0.803226857   0.196773143   0.500000000    1   1   0
O1       0.196773143   0.803226857   0.500000000    1   1   0


     Check: negative starting charge=(component1):   -0.025045
     NEW-OLD atomic charge density approx. for the potential
     NEW k-points:
        k(    1) = (   0.0000000   0.0000000   0.0000000), wk =   0.0080000
        k(    2) = (   0.0000000   0.0000000   0.3085871), wk =   0.0160000
        k(    3) = (   0.0000000   0.0000000   0.6171743), wk =   0.0160000
        k(    4) = (   0.0000000   0.2005688   0.0000000), wk =   0.0320000
        k(    5) = (   0.0000000   0.2005688   0.3085871), wk =   0.0640000
        k(    6) = (   0.0000000   0.2005688   0.6171743), wk =   0.0640000
        k(    7) = (   0.0000000   0.4011376   0.0000000), wk =   0.0320000
        k(    8) = (   0.0000000   0.4011376   0.3085871), wk =   0.0640000
        k(    9) = (   0.0000000   0.4011376   0.6171743), wk =   0.0640000
        k(   10) = (   0.2005688   0.2005688   0.0000000), wk =   0.0320000
        k(   11) = (   0.2005688   0.2005688   0.3085871), wk =   0.0640000
        k(   12) = (   0.2005688   0.2005688   0.6171743), wk =   0.0640000
        k(   13) = (   0.2005688   0.4011376   0.0000000), wk =   0.0640000
        k(   14) = (   0.2005688   0.4011376   0.3085871), wk =   0.1280000
        k(   15) = (   0.2005688   0.4011376   0.6171743), wk =   0.1280000
        k(   16) = (   0.4011376   0.4011376   0.0000000), wk =   0.0320000
        k(   17) = (   0.4011376   0.4011376   0.3085871), wk =   0.0640000
        k(   18) = (   0.4011376   0.4011376   0.6171743), wk =   0.0640000
        k(   19) = (   0.0000000   0.0000000   0.0000000), wk =   0.0080000
        k(   20) = (   0.0000000   0.0000000   0.3085871), wk =   0.0160000
        k(   21) = (   0.0000000   0.0000000   0.6171743), wk =   0.0160000
        k(   22) = (   0.0000000   0.2005688   0.0000000), wk =   0.0320000
        k(   23) = (   0.0000000   0.2005688   0.3085871), wk =   0.0640000
        k(   24) = (   0.0000000   0.2005688   0.6171743), wk =   0.0640000
        k(   25) = (   0.0000000   0.4011376   0.0000000), wk =   0.0320000
        k(   26) = (   0.0000000   0.4011376   0.3085871), wk =   0.0640000
        k(   27) = (   0.0000000   0.4011376   0.6171743), wk =   0.0640000
        k(   28) = (   0.2005688   0.2005688   0.0000000), wk =   0.0320000
        k(   29) = (   0.2005688   0.2005688   0.3085871), wk =   0.0640000
        k(   30) = (   0.2005688   0.2005688   0.6171743), wk =   0.0640000
        k(   31) = (   0.2005688   0.4011376   0.0000000), wk =   0.0640000
        k(   32) = (   0.2005688   0.4011376   0.3085871), wk =   0.1280000
        k(   33) = (   0.2005688   0.4011376   0.6171743), wk =   0.1280000
        k(   34) = (   0.4011376   0.4011376   0.0000000), wk =   0.0320000
        k(   35) = (   0.4011376   0.4011376   0.3085871), wk =   0.0640000
        k(   36) = (   0.4011376   0.4011376   0.6171743), wk =   0.0640000

     Check: negative/imaginary core charge=   -0.000015    0.000000
     Check: negative starting charge=(component1):   -0.025038

     negative rho (up, down):  0.127E-01 0.127E-01

     total cpu time spent up to now is      210.9 secs

     per-process dynamical memory:    44.7 Mb

     Self-consistent Calculation

     iteration #  1     ecut=    40.00 Ry     beta=0.30
     Davidson diagonalization with overlap
     ethr =  1.00E-06,  avg # of iterations =  4.9

     negative rho (up, down):  0.127E-01 0.127E-01

     total cpu time spent up to now is      246.9 secs

     total energy              =    -366.46405564 Ry
     Harris-Foulkes estimate   =    -366.46430579 Ry
     estimated scf accuracy    <       0.00070735 Ry

     total magnetization       =     0.00 Bohr mag/cell
     absolute magnetization    =     0.00 Bohr mag/cell

     iteration #  2     ecut=    40.00 Ry     beta=0.30
     Davidson diagonalization with overlap
     ethr =  1.47E-06,  avg # of iterations =  1.0

     negative rho (up, down):  0.127E-01 0.127E-01

     total cpu time spent up to now is      260.1 secs

     total energy              =    -366.46399557 Ry
     Harris-Foulkes estimate   =    -366.46409296 Ry
     estimated scf accuracy    <       0.00020805 Ry

     total magnetization       =     0.00 Bohr mag/cell
     absolute magnetization    =     0.00 Bohr mag/cell

     iteration #  3     ecut=    40.00 Ry     beta=0.30
     Davidson diagonalization with overlap
     ethr =  4.33E-07,  avg # of iterations =  1.0

     negative rho (up, down):  0.127E-01 0.127E-01

     total cpu time spent up to now is      273.1 secs

     total energy              =    -366.46401222 Ry
     Harris-Foulkes estimate   =    -366.46402102 Ry
     estimated scf accuracy    <       0.00003133 Ry

     total magnetization       =     0.00 Bohr mag/cell
     absolute magnetization    =     0.00 Bohr mag/cell

     iteration #  4     ecut=    40.00 Ry     beta=0.30
     Davidson diagonalization with overlap
     ethr =  6.53E-08,  avg # of iterations =  1.4

     negative rho (up, down):  0.127E-01 0.127E-01

     total cpu time spent up to now is      286.6 secs

     total energy              =    -366.46401864 Ry
     Harris-Foulkes estimate   =    -366.46401703 Ry
     estimated scf accuracy    <       0.00000153 Ry

     total magnetization       =     0.00 Bohr mag/cell
     absolute magnetization    =     0.00 Bohr mag/cell

     iteration #  5     ecut=    40.00 Ry     beta=0.30
     Davidson diagonalization with overlap
     ethr =  3.19E-09,  avg # of iterations =  1.9

     negative rho (up, down):  0.127E-01 0.127E-01

     total cpu time spent up to now is      300.7 secs

     End of self-consistent calculation

 ------ SPIN UP ------------


          k = 0.0000 0.0000 0.0000 (  1667 PWs)   bands (ev):

   -46.2980 -46.2719 -22.7141 -22.7141 -22.4863 -22.4863 -22.4293 -22.3762
    -8.2304  -6.9374  -5.9863  -5.9863   4.2270   4.5670   4.8693   6.2319
     6.2319   7.6796   7.6796   8.2239   9.6238   9.8918   9.8918  10.3759
    12.3826  12.7175  12.9331  13.0728  13.0728  15.4038  15.4249  17.5907
    17.5907  18.8165  18.9162  22.4492  22.4492  25.5813  26.5105  27.7093
    29.9581  30.0473  30.9581  30.9581  32.6318  34.2351  35.4138  35.4138
    36.2876  37.0040  37.0040  37.3443  37.5687  37.5687  38.3949  40.3778
    43.5435  43.9023  43.9457  43.9980  43.9980  45.0672  45.9132  45.9132
    47.8780  48.5366  48.9308  48.9308  51.6566

          k = 0.0000 0.0000 0.3086 (  1667 PWs)   bands (ev):

   -46.2768 -46.2557 -22.6605 -22.6605 -22.6273 -22.5873 -22.4778 -22.4778
    -7.7782  -6.6851  -6.2148  -6.2148   4.8142   5.0085   5.3553   5.9640
     5.9640   7.1855   8.2549   8.3153   8.3153   9.1284   9.1284  10.0205
    12.7935  13.0368  13.1983  13.5749  13.5749  15.0789  15.9247  17.1347
    17.1347  18.2319  19.9672  23.9299  23.9299  25.6679  25.9874  28.2260
    28.4765  29.9010  30.2576  30.2576  31.2572  34.3551  34.8457  34.8457
    36.3284  36.3284  36.9132  37.4465  38.2739  40.0383  40.4012  40.4012
    41.7500  41.7500  42.8095  43.1541  46.5463  47.3656  47.5585  47.5585
    47.8002  49.8595  49.8595  49.9523  50.9267

          k = 0.0000 0.0000 0.6172 (  1667 PWs)   bands (ev):

   -46.2399 -46.2318 -22.9307 -22.9171 -22.5604 -22.5604 -22.4757 -22.4757
    -6.8796  -6.5789  -6.5789  -6.4266   5.5529   5.5640   6.1528   6.1528
     6.3631   6.7143   6.8100   7.8189   7.8189   8.5671   8.8371   8.8371
    13.2086  13.5183  13.9317  14.1885  14.2816  14.2816  16.4622  16.8865
    16.9726  16.9726  22.2533  24.4084  26.0607  26.0883  26.0883  26.9326
    28.8624  28.8624  29.0120  29.4315  30.2537  31.9059  34.2617  34.2617
    36.6815  36.6815  37.9547  38.3383  38.7400  40.2857  40.9951  40.9951
    41.4831  43.6973  43.6973  44.0849  46.7986  47.2831  47.2831  47.2892
    49.4284  49.9760  49.9761  50.2320  50.4062

          k = 0.0000 0.2006 0.0000 (  1683 PWs)   bands (ev):

   -46.2954 -46.2744 -22.6954 -22.6933 -22.5099 -22.5076 -22.4242 -22.3812
    -8.0635  -6.9225  -6.1691  -6.0652   4.5086   4.7645   5.1753   6.2522
     6.2659   7.3917   7.5969   8.2347   9.1666   9.3373   9.5593  10.2042
    12.6208  12.9955  13.2477  13.2598  13.3294  15.1868  15.7343  17.4295
    17.4631  18.5718  19.3694  22.3995  22.8058  25.5473  26.2891  27.5063
    29.7930  30.3685  30.7826  31.4437  33.0353  33.7479  33.9260  33.9637
    35.5443  36.7502  37.2476  37.5596  37.8033  38.4022  40.7072  40.9948
    41.7489  43.3524  44.0167  44.5528  44.7417  45.8395  46.2926  46.7401
    48.0434  49.1520  49.1688  49.4474  50.9701

          k = 0.0000 0.2006 0.3086 (  1678 PWs)   bands (ev):

   -46.2748 -46.2577 -22.6674 -22.6470 -22.6027 -22.5975 -22.4933 -22.4867
    -7.6426  -6.6525  -6.3751  -6.2665   5.0141   5.2167   5.4287   5.9212
     6.2879   7.0548   7.5775   8.2428   8.2566   9.0641   9.0966   9.9252
    12.7975  13.3259  13.3567  13.5278  13.8119  14.9027  16.1451  16.7821
    17.0385  18.2649  20.3876  23.5828  24.1860  25.8860  26.0736  27.8309
    28.3120  29.5174  29.7218  31.0162  31.6603  33.3978  33.8665  34.9549
    36.0830  36.2259  37.6510  38.1386  38.2987  39.8394  40.1909  40.7310
    41.6223  42.2432  42.8982  44.4871  46.3717  47.0766  48.0649  48.1311
    48.2381  49.1730  49.4136  50.2271  50.6297

          k = 0.0000 0.2006 0.6172 (  1667 PWs)   bands (ev):

   -46.2391 -46.2326 -22.9366 -22.9253 -22.5510 -22.5483 -22.4809 -22.4784
    -6.9722  -6.7777  -6.4353  -6.2610   5.3888   5.4954   5.7221   6.0588
     6.6263   6.7355   7.3863   7.7705   8.0092   8.6335   8.7397   8.9097
    12.8892  13.5897  13.6479  13.9325  14.4308  14.5375  16.2222  16.2937
    17.3266  17.7246  22.3127  24.1566  25.3947  26.2950  26.5333  26.8743
    28.1769  28.3901  29.4775  29.5900  30.6082  31.6079  33.8680  34.3736
    36.7784  37.0240  38.0695  38.4218  39.1800  40.3346  40.6100  41.1978
    42.1217  43.3095  43.4875  44.4546  45.7061  47.0260  47.7919  47.8870
    48.9096  49.4958  49.6633  50.5976  51.1905

          k = 0.0000 0.4011 0.0000 (  1671 PWs)   bands (ev):

   -46.2888 -46.2808 -22.6458 -22.6409 -22.5666 -22.5615 -22.4109 -22.3944
    -7.6181  -7.0978  -6.3789  -6.2496   5.0077   5.1336   6.1664   6.2964
     6.3113   6.9398   7.2079   7.7107   8.3810   8.7913   9.4000   9.7620
    13.0155  13.1995  13.6194  13.6878  13.8985  14.6046  16.6576  17.1722
    17.2109  17.7557  20.5342  21.7611  23.8124  25.0342  26.4397  27.1169
    29.6171  30.4526  30.7736  31.4969  31.7256  32.9523  34.0694  34.5372
    35.3599  35.6056  37.3935  37.4067  38.4833  39.1544  39.7070  40.1769
    43.7434  44.1359  44.2245  44.7276  45.5547  46.2076  47.4140  48.1695
    48.7555  49.2380  49.6224  49.8592  50.2711

          k = 0.0000 0.4011 0.3086 (  1677 PWs)   bands (ev):

   -46.2694 -46.2629 -22.6612 -22.6403 -22.5918 -22.5675 -22.5274 -22.5117
    -7.2779  -6.8082  -6.5274  -6.3927   5.4389   5.6333   5.7209   5.8521
     6.6988   6.8044   7.1627   7.6754   7.8940   8.5213   9.3841   9.6911
    13.1037  13.3809  13.6634  13.7551  14.1845  14.4967  16.3183  16.3445
    17.2401  17.8989  21.4282  22.6196  24.9907  25.9285  26.5006  27.2312
    28.1187  28.4651  29.6933  30.8457  31.9033  32.7379  33.7690  35.3328
    36.0543  36.1079  37.7788  38.2729  38.3231  38.9662  40.6397  41.0207
    41.3451  42.8616  44.0933  44.8220  46.5771  46.8209  47.9351  49.0514
    49.3103  49.6441  50.1302  50.8076  50.8852

          k = 0.0000 0.4011 0.6172 (  1665 PWs)   bands (ev):

   -46.2370 -46.2345 -22.9440 -22.9395 -22.5311 -22.5265 -22.4921 -22.4878
    -7.0366  -6.9695  -6.2431  -6.1680   5.0698   5.1703   5.8405   6.0328
     6.6865   7.1922   7.2580   7.8747   8.3496   8.3949   8.8833   9.3030
    12.5120  12.8615  13.8199  13.9220  14.5918  14.6189  15.9013  16.0109
    17.9230  18.1508  22.6832  23.4402  25.2366  25.7155  26.9184  27.2527
    27.6713  27.9190  29.4926  30.0201  30.4544  30.7998  34.2450  34.9039
    37.2873  37.5069  38.3357  38.4207  39.6940  39.7781  40.3382  40.5459
    41.5014  42.5677  44.7356  45.1119  46.4929  46.7308  48.0586  48.3927
    48.6012  49.0110  50.6542  50.9238  51.4381

          k = 0.2006 0.2006 0.0000 (  1678 PWs)   bands (ev):

   -46.2934 -46.2763 -22.7212 -22.6380 -22.5686 -22.4821 -22.4201 -22.3853
    -7.9385  -6.9436  -6.3303  -6.0451   4.3969   5.1622   5.4190   6.2018
     6.3154   7.1142   7.7330   8.2801   8.7228   9.2339   9.4090  10.0722
    12.4778  13.0825  13.1761  13.5324  13.6575  15.0511  15.9453  17.1909
    17.5859  18.2976  19.8560  22.6191  22.8697  25.5019  26.0155  27.0852
    29.6892  30.6963  30.7634  32.0248  33.3254  33.3339  33.8344  33.9481
    33.9712  36.2653  36.3976  37.5512  39.0304  39.2625  40.8819  41.6206
    41.7115  43.1057  43.3969  44.8076  45.5634  45.9353  46.5700  47.2050
    47.9167  49.0721  49.5913  49.6909  50.5706

          k = 0.2006 0.2006 0.3086 (  1671 PWs)   bands (ev):

   -46.2731 -46.2593 -22.6665 -22.6512 -22.6101 -22.5745 -22.5205 -22.4744
    -7.5352  -6.6348  -6.5199  -6.2664   4.8888   5.4084   5.5814   6.0283
     6.4088   6.8319   7.7295   7.8433   8.2852   9.0028   9.1658   9.7893
    12.8287  13.0708  13.4833  13.8673  13.8695  14.7647  16.1781  16.6524
    17.1350  18.1434  20.7679  23.5609  24.1021  25.9756  26.0983  27.1687
    28.3466  29.4660  30.4418  30.5460  31.7027  32.9653  33.3142  35.0791
    36.0928  36.2136  37.5784  37.6581  39.1287  40.2524  40.3866  40.7380
    41.6901  42.4292  43.6020  44.3753  46.4954  47.0837  47.6554  48.3847
    48.6183  49.5454  50.0641  50.3603  50.4330

          k = 0.2006 0.2006 0.6172 (  1663 PWs)   bands (ev):

   -46.2385 -46.2332 -22.9411 -22.9243 -22.5632 -22.5272 -22.4908 -22.4752
    -7.0324  -6.6209  -6.6049  -6.1773   5.1874   5.5935   5.7379   5.8535
     6.2455   7.3692   7.4921   7.7989   7.8585   8.6799   8.8060   9.1434
    12.7210  13.6635  13.7208  13.8376  14.0609  14.7346  15.8624  16.9030
    16.9663  17.9828  22.3201  24.1824  24.5400  26.1168  26.7477  27.2752
    27.5898  29.1002  29.1712  29.5703  30.3850  32.2571  32.9609  34.7107
    36.6213  37.0156  37.6124  39.3278  39.6765  40.3842  40.5357  41.4504
    43.0104  43.1436  43.8754  44.8861  45.2459  46.4134  46.9061  48.1683
    48.8857  49.2353  50.0312  50.6414  51.0764

          k = 0.2006 0.4011 0.0000 (  1678 PWs)   bands (ev):

   -46.2880 -46.2815 -22.7054 -22.6525 -22.5563 -22.5014 -22.4092 -22.3960
    -7.6046  -7.1891  -6.3500  -6.1739   4.6301   5.1039   6.2045   6.2169
     6.2862   7.1214   7.4923   8.2040   8.5078   8.9018   9.0727   9.5670
    12.7420  13.1110  13.3027  13.6598  14.0877  14.6454  16.6549  17.1887
    17.4417  17.5652  20.9292  22.0525  23.8390  25.0446  25.9304  26.4550
    29.6211  30.1772  31.7820  31.8330  32.2636  33.1215  33.9547  34.1289
    34.2122  35.2084  36.7707  38.0157  38.2953  39.2092  40.4571  41.3267
    43.5963  43.5970  43.7822  44.6979  44.8144  46.2380  47.6802  48.2929
    48.9405  49.2365  49.2405  50.1010  50.7326

          k = 0.2006 0.4011 0.3086 (  1671 PWs)   bands (ev):

   -46.2688 -46.2635 -22.6664 -22.6503 -22.6093 -22.5753 -22.5156 -22.4847
    -7.2506  -6.8875  -6.4914  -6.3590   5.0986   5.5144   5.5799   5.7499
     6.8437   7.0972   7.4708   7.9459   8.1016   8.6569   9.1286   9.4554
    13.1149  13.2658  13.4588  13.7940  14.1104  14.4252  16.3377  16.7137
    17.2135  17.7479  21.6641  22.7272  24.8305  25.9320  26.1917  26.3850
    28.5113  29.0634  29.8599  30.7259  31.5797  32.2362  33.8870  35.4573
    35.7986  36.0867  37.8036  38.0219  38.9679  39.2721  40.4994  41.1379
    42.3874  43.1262  44.1125  44.8907  45.9656  47.2266  47.4994  48.4516
    49.5590  50.0073  50.1277  50.4778  50.8694

          k = 0.2006 0.4011 0.6172 (  1660 PWs)   bands (ev):

   -46.2368 -46.2348 -22.9406 -22.9314 -22.5537 -22.5308 -22.4890 -22.4786
    -7.0092  -6.8529  -6.3629  -6.1931   5.0363   5.1949   5.8055   5.9725
     6.3587   7.0519   7.6361   7.7988   8.2591   8.6209   9.1212   9.4376
    12.6105  13.0589  13.7821  13.8814  14.2499  14.5864  15.9395  16.3834
    17.6295  18.0452  22.5534  23.2965  24.6306  25.4877  26.8007  27.1407
    28.2654  28.6614  28.9264  29.6045  30.5356  31.4576  33.8962  35.1886
    36.6534  37.2432  37.5302  38.6098  39.9782  40.1904  41.0472  42.1117
    42.4567  43.6222  44.8324  45.0115  45.9133  46.4586  46.9516  47.9479
    48.6981  49.2361  49.7637  50.8941  51.1694

          k = 0.4011 0.4011 0.0000 (  1676 PWs)   bands (ev):

   -46.2860 -46.2835 -22.7327 -22.7122 -22.4969 -22.4752 -22.4051 -22.4000
    -7.5338  -7.3790  -6.2256  -6.1359   4.4145   4.6412   6.1534   6.1914
     6.7541   7.3378   7.8921   8.3913   8.7959   8.8027   8.9893   9.4042
    12.4481  12.7301  13.0993  13.3123  14.4168  14.6213  16.8187  17.1675
    17.4372  17.5781  21.7456  22.3390  24.0646  24.8207  25.3909  25.6589
    29.6061  29.8731  32.5024  32.6617  32.8193  32.9628  33.1482  33.2649
    34.3362  34.7619  37.5166  37.7629  38.1031  39.1071  41.1092  41.6860
    43.2508  43.3057  43.7770  44.5594  44.6466  44.8348  48.3223  49.1223
    49.3893  49.5605  49.7771  50.2129  51.9900

          k = 0.4011 0.4011 0.3086 (  1665 PWs)   bands (ev):

   -46.2671 -46.2651 -22.6762 -22.6688 -22.6111 -22.5974 -22.4816 -22.4690
    -7.1687  -7.0376  -6.4071  -6.3468   4.8938   5.1109   5.4348   5.5246
     7.4802   7.6015   7.7915   8.2275   8.5230   8.5957   8.7989   8.9618
    13.0496  13.2739  13.2914  13.4955  14.1132  14.2454  16.7453  17.0699
    17.1275  17.4120  22.2020  22.7052  24.7571  25.3574  26.1091  26.1111
    28.6515  28.7787  30.1769  30.3897  31.4570  32.0221  34.2198  35.1469
    35.6898  35.8469  38.3305  38.9976  39.1420  39.8239  40.3266  40.5392
    43.1161  43.5669  44.3552  44.6074  46.1155  46.6657  47.4148  47.8218
    50.0749  50.2568  50.5883  50.7617  51.1923

          k = 0.4011 0.4011 0.6172 (  1655 PWs)   bands (ev):

   -46.2361 -46.2353 -22.9293 -22.9235 -22.5677 -22.5560 -22.4781 -22.4745
    -6.8643  -6.6870  -6.5268  -6.3417   5.0645   5.2179   5.5818   5.7182
     6.4807   6.7761   7.7106   7.7523   8.5777   8.7736   9.4396   9.5860
    12.9520  13.4140  13.7104  13.7813  13.8459  14.2106  16.3642  16.9535
    17.0714  17.6314  22.3806  22.6819  24.7858  25.6284  25.8668  26.6115
    28.6213  28.7985  29.3228  29.8454  30.5817  31.1530  34.5794  35.3934
    36.6156  36.8481  37.2726  37.9394  40.4384  40.5056  42.1395  42.9324
    44.3200  44.7677  44.8854  45.5811  45.6441  46.4419  46.6011  47.1589
    48.1614  48.9259  49.7131  50.5656  51.0200

 ------ SPIN DOWN ----------


          k = 0.0000 0.0000 0.0000 (  1667 PWs)   bands (ev):

   -46.2979 -46.2718 -22.7140 -22.7140 -22.4862 -22.4862 -22.4293 -22.3761
    -8.2305  -6.9375  -5.9864  -5.9864   4.2270   4.5670   4.8693   6.2319
     6.2319   7.6795   7.6795   8.2238   9.6237   9.8917   9.8917  10.3758
    12.3827  12.7175  12.9332  13.0728  13.0728  15.4038  15.4249  17.5907
    17.5907  18.8166  18.9162  22.4492  22.4492  25.5812  26.5105  27.7094
    29.9581  30.0473  30.9581  30.9581  32.6318  34.2351  35.4139  35.4139
    36.2877  37.0040  37.0040  37.3443  37.5687  37.5687  38.3949  40.3779
    43.5435  43.9023  43.9457  43.9980  43.9980  45.0672  45.9132  45.9132
    47.8780  48.5367  48.9308  48.9308  51.6567

          k = 0.0000 0.0000 0.3086 (  1667 PWs)   bands (ev):

   -46.2768 -46.2556 -22.6604 -22.6604 -22.6273 -22.5872 -22.4777 -22.4777
    -7.7782  -6.6852  -6.2149  -6.2149   4.8142   5.0085   5.3553   5.9640
     5.9640   7.1855   8.2549   8.3152   8.3152   9.1284   9.1284  10.0204
    12.7935  13.0369  13.1983  13.5749  13.5749  15.0790  15.9248  17.1347
    17.1347  18.2319  19.9672  23.9299  23.9299  25.6679  25.9874  28.2260
    28.4765  29.9010  30.2576  30.2576  31.2572  34.3551  34.8458  34.8458
    36.3284  36.3284  36.9133  37.4466  38.2740  40.0384  40.4013  40.4013
    41.7500  41.7500  42.8096  43.1541  46.5464  47.3657  47.5586  47.5586
    47.8002  49.8595  49.8595  49.9523  50.9268

          k = 0.0000 0.0000 0.6172 (  1667 PWs)   bands (ev):

   -46.2399 -46.2317 -22.9307 -22.9170 -22.5604 -22.5604 -22.4756 -22.4756
    -6.8797  -6.5790  -6.5790  -6.4267   5.5529   5.5639   6.1528   6.1528
     6.3630   6.7143   6.8100   7.8189   7.8189   8.5670   8.8371   8.8371
    13.2086  13.5184  13.9318  14.1886  14.2817  14.2817  16.4623  16.8865
    16.9726  16.9726  22.2533  24.4084  26.0607  26.0883  26.0883  26.9326
    28.8624  28.8624  29.0120  29.4315  30.2537  31.9060  34.2618  34.2618
    36.6815  36.6815  37.9547  38.3383  38.7401  40.2857  40.9951  40.9951
    41.4831  43.6973  43.6973  44.0850  46.7986  47.2831  47.2831  47.2892
    49.4285  49.9760  49.9761  50.2321  50.4062

          k = 0.0000 0.2006 0.0000 (  1683 PWs)   bands (ev):

   -46.2953 -46.2743 -22.6953 -22.6933 -22.5098 -22.5076 -22.4242 -22.3812
    -8.0635  -6.9226  -6.1691  -6.0652   4.5086   4.7645   5.1753   6.2522
     6.2658   7.3916   7.5968   8.2347   9.1665   9.3372   9.5592  10.2042
    12.6209  12.9956  13.2477  13.2599  13.3295  15.1868  15.7344  17.4295
    17.4631  18.5718  19.3694  22.3995  22.8058  25.5473  26.2891  27.5063
    29.7930  30.3685  30.7827  31.4437  33.0353  33.7480  33.9261  33.9637
    35.5443  36.7502  37.2477  37.5596  37.8033  38.4023  40.7072  40.9949
    41.7489  43.3524  44.0167  44.5528  44.7418  45.8395  46.2927  46.7402
    48.0434  49.1520  49.1688  49.4474  50.9982

          k = 0.0000 0.2006 0.3086 (  1678 PWs)   bands (ev):

   -46.2747 -46.2576 -22.6674 -22.6469 -22.6026 -22.5974 -22.4932 -22.4866
    -7.6427  -6.6525  -6.3752  -6.2665   5.0140   5.2167   5.4287   5.9212
     6.2879   7.0548   7.5775   8.2427   8.2565   9.0641   9.0965   9.9251
    12.7976  13.3260  13.3568  13.5278  13.8120  14.9028  16.1451  16.7821
    17.0385  18.2649  20.3876  23.5828  24.1860  25.8860  26.0737  27.8309
    28.3120  29.5175  29.7219  31.0162  31.6603  33.3979  33.8666  34.9549
    36.0830  36.2259  37.6510  38.1386  38.2987  39.8394  40.1910  40.7310
    41.6224  42.2432  42.8982  44.4871  46.3718  47.0767  48.0649  48.1311
    48.2382  49.1730  49.4136  50.2271  50.6298

          k = 0.0000 0.2006 0.6172 (  1667 PWs)   bands (ev):

   -46.2391 -46.2325 -22.9365 -22.9252 -22.5509 -22.5482 -22.4808 -22.4784
    -6.9722  -6.7777  -6.4354  -6.2611   5.3888   5.4954   5.7221   6.0588
     6.6263   6.7355   7.3862   7.7704   8.0092   8.6335   8.7397   8.9097
    12.8893  13.5898  13.6480  13.9326  14.4308  14.5375  16.2223  16.2937
    17.3266  17.7246  22.3127  24.1566  25.3947  26.2951  26.5333  26.8743
    28.1769  28.3901  29.4776  29.5901  30.6083  31.6080  33.8681  34.3736
    36.7785  37.0240  38.0695  38.4218  39.1800  40.3346  40.6100  41.1979
    42.1217  43.3096  43.4875  44.4547  45.7062  47.0260  47.7919  47.8870
    48.9097  49.4959  49.6633  50.5976  51.1906

          k = 0.0000 0.4011 0.0000 (  1671 PWs)   bands (ev):

   -46.2888 -46.2807 -22.6457 -22.6408 -22.5665 -22.5614 -22.4108 -22.3944
    -7.6181  -7.0979  -6.3790  -6.2496   5.0077   5.1336   6.1663   6.2963
     6.3113   6.9397   7.2079   7.7107   8.3809   8.7913   9.3999   9.7619
    13.0156  13.1996  13.6195  13.6879  13.8985  14.6046  16.6576  17.1723
    17.2110  17.7557  20.5342  21.7611  23.8125  25.0342  26.4398  27.1169
    29.6172  30.4526  30.7736  31.4969  31.7256  32.9524  34.0694  34.5372
    35.3600  35.6056  37.3935  37.4068  38.4833  39.1544  39.7071  40.1770
    43.7434  44.1360  44.2245  44.7277  45.5547  46.2077  47.4141  48.1696
    48.7555  49.2380  49.6224  49.8592  50.2711

          k = 0.0000 0.4011 0.3086 (  1677 PWs)   bands (ev):

   -46.2694 -46.2628 -22.6612 -22.6403 -22.5917 -22.5674 -22.5273 -22.5117
    -7.2779  -6.8082  -6.5275  -6.3927   5.4389   5.6333   5.7208   5.8521
     6.6988   6.8043   7.1627   7.6754   7.8940   8.5213   9.3840   9.6911
    13.1038  13.3810  13.6635  13.7552  14.1845  14.4967  16.3183  16.3445
    17.2401  17.8990  21.4282  22.6196  24.9908  25.9285  26.5006  27.2313
    28.1187  28.4651  29.6933  30.8457  31.9033  32.7379  33.7690  35.3329
    36.0544  36.1079  37.7789  38.2730  38.3231  38.9663  40.6397  41.0208
    41.3452  42.8617  44.0934  44.8220  46.5771  46.8209  47.9351  49.0515
    49.3103  49.6441  50.1302  50.8076  50.8852

          k = 0.0000 0.4011 0.6172 (  1665 PWs)   bands (ev):

   -46.2370 -46.2345 -22.9440 -22.9395 -22.5311 -22.5264 -22.4920 -22.4877
    -7.0367  -6.9695  -6.2431  -6.1680   5.0698   5.1703   5.8405   6.0328
     6.6865   7.1922   7.2580   7.8747   8.3496   8.3949   8.8833   9.3029
    12.5121  12.8615  13.8200  13.9221  14.5918  14.6190  15.9013  16.0109
    17.9231  18.1508  22.6832  23.4402  25.2366  25.7155  26.9184  27.2527
    27.6714  27.9190  29.4926  30.0201  30.4544  30.7999  34.2450  34.9039
    37.2873  37.5069  38.3358  38.4208  39.6941  39.7781  40.3383  40.5459
    41.5015  42.5677  44.7356  45.1119  46.4930  46.7309  48.0586  48.3927
    48.6012  49.0110  50.6542  50.9238  51.4381

          k = 0.2006 0.2006 0.0000 (  1678 PWs)   bands (ev):

   -46.2933 -46.2763 -22.7211 -22.6379 -22.5685 -22.4820 -22.4200 -22.3852
    -7.9385  -6.9437  -6.3303  -6.0452   4.3968   5.1622   5.4190   6.2017
     6.3154   7.1142   7.7330   8.2801   8.7228   9.2339   9.4089  10.0721
    12.4779  13.0826  13.1762  13.5324  13.6575  15.0512  15.9454  17.1909
    17.5859  18.2976  19.8560  22.6191  22.8698  25.5019  26.0155  27.0853
    29.6892  30.6964  30.7635  32.0249  33.3254  33.3340  33.8344  33.9481
    33.9712  36.2654  36.3976  37.5512  39.0304  39.2626  40.8819  41.6206
    41.7116  43.1057  43.3969  44.8077  45.5634  45.9353  46.5700  47.2051
    47.9167  49.0722  49.5913  49.6909  50.5706

          k = 0.2006 0.2006 0.3086 (  1671 PWs)   bands (ev):

   -46.2730 -46.2592 -22.6664 -22.6512 -22.6100 -22.5744 -22.5205 -22.4744
    -7.5353  -6.6349  -6.5200  -6.2665   4.8888   5.4084   5.5814   6.0283
     6.4088   6.8319   7.7294   7.8432   8.2852   9.0028   9.1658   9.7892
    12.8288  13.0709  13.4834  13.8673  13.8696  14.7647  16.1781  16.6524
    17.1351  18.1434  20.7679  23.5609  24.1022  25.9756  26.0984  27.1687
    28.3467  29.4660  30.4418  30.5460  31.7027  32.9653  33.3142  35.0791
    36.0929  36.2136  37.5784  37.6581  39.1287  40.2524  40.3867  40.7381
    41.6901  42.4293  43.6020  44.3753  46.4954  47.0837  47.6555  48.3847
    48.6183  49.5455  50.0641  50.3604  50.4330

          k = 0.2006 0.2006 0.6172 (  1663 PWs)   bands (ev):

   -46.2384 -46.2331 -22.9410 -22.9243 -22.5631 -22.5271 -22.4907 -22.4752
    -7.0325  -6.6210  -6.6049  -6.1773   5.1874   5.5935   5.7379   5.8535
     6.2454   7.3691   7.4920   7.7989   7.8584   8.6799   8.8059   9.1434
    12.7211  13.6636  13.7208  13.8377  14.0610  14.7346  15.8624  16.9031
    16.9663  17.9829  22.3201  24.1824  24.5401  26.1168  26.7478  27.2753
    27.5898  29.1003  29.1713  29.5703  30.3850  32.2571  32.9609  34.7108
    36.6213  37.0156  37.6124  39.3278  39.6766  40.3842  40.5358  41.4505
    43.0104  43.1437  43.8754  44.8862  45.2459  46.4135  46.9062  48.1684
    48.8858  49.2353  50.0313  50.6414  51.0765

          k = 0.2006 0.4011 0.0000 (  1678 PWs)   bands (ev):

   -46.2880 -46.2815 -22.7053 -22.6524 -22.5563 -22.5014 -22.4092 -22.3959
    -7.6047  -7.1892  -6.3501  -6.1739   4.6301   5.1039   6.2044   6.2169
     6.2862   7.1214   7.4923   8.2040   8.5077   8.9018   9.0726   9.5669
    12.7421  13.1111  13.3027  13.6599  14.0878  14.6454  16.6550  17.1887
    17.4418  17.5653  20.9292  22.0525  23.8390  25.0446  25.9304  26.4550
    29.6211  30.1772  31.7820  31.8330  32.2636  33.1215  33.9547  34.1289
    34.2123  35.2084  36.7707  38.0157  38.2953  39.2092  40.4572  41.3267
    43.5963  43.5971  43.7823  44.6979  44.8144  46.2380  47.6802  48.2929
    48.9405  49.2365  49.2406  50.1010  50.7326

          k = 0.2006 0.4011 0.3086 (  1671 PWs)   bands (ev):

   -46.2687 -46.2634 -22.6664 -22.6502 -22.6092 -22.5753 -22.5155 -22.4846
    -7.2506  -6.8876  -6.4915  -6.3591   5.0986   5.5143   5.5799   5.7499
     6.8436   7.0971   7.4708   7.9458   8.1016   8.6569   9.1285   9.4553
    13.1150  13.2659  13.4589  13.7940  14.1104  14.4252  16.3378  16.7137
    17.2135  17.7479  21.6641  22.7272  24.8305  25.9320  26.1917  26.3851
    28.5113  29.0634  29.8599  30.7260  31.5798  32.2363  33.8871  35.4573
    35.7986  36.0868  37.8036  38.0219  38.9679  39.2722  40.4994  41.1380
    42.3875  43.1263  44.1125  44.8908  45.9657  47.2266  47.4994  48.4517
    49.5590  50.0073  50.1277  50.4778  50.8694

          k = 0.2006 0.4011 0.6172 (  1660 PWs)   bands (ev):

   -46.2367 -46.2347 -22.9405 -22.9313 -22.5536 -22.5308 -22.4889 -22.4785
    -7.0093  -6.8530  -6.3630  -6.1932   5.0363   5.1948   5.8055   5.9725
     6.3587   7.0519   7.6360   7.7988   8.2591   8.6208   9.1211   9.4375
    12.6106  13.0589  13.7821  13.8815  14.2500  14.5865  15.9396  16.3834
    17.6295  18.0452  22.5534  23.2965  24.6306  25.4877  26.8007  27.1407
    28.2654  28.6615  28.9264  29.6045  30.5356  31.4577  33.8962  35.1886
    36.6534  37.2432  37.5302  38.6098  39.9782  40.1905  41.0472  42.1118
    42.4567  43.6222  44.8324  45.0116  45.9133  46.4586  46.9517  47.9479
    48.6981  49.2361  49.7637  50.8941  51.1695

          k = 0.4011 0.4011 0.0000 (  1676 PWs)   bands (ev):

   -46.2859 -46.2834 -22.7326 -22.7121 -22.4969 -22.4751 -22.4050 -22.4000
    -7.5339  -7.3791  -6.2256  -6.1360   4.4145   4.6412   6.1534   6.1914
     6.7541   7.3377   7.8921   8.3912   8.7958   8.8026   8.9893   9.4042
    12.4482  12.7302  13.0993  13.3124  14.4168  14.6213  16.8187  17.1676
    17.4373  17.5781  21.7456  22.3390  24.0647  24.8207  25.3910  25.6589
    29.6062  29.8732  32.5024  32.6617  32.8193  32.9628  33.1483  33.2650
    34.3363  34.7620  37.5167  37.7629  38.1032  39.1071  41.1092  41.6861
    43.2509  43.3057  43.7770  44.5594  44.6467  44.8349  48.3223  49.1223
    49.3893  49.5605  49.7771  50.2130  51.9900

          k = 0.4011 0.4011 0.3086 (  1665 PWs)   bands (ev):

   -46.2670 -46.2650 -22.6761 -22.6688 -22.6110 -22.5974 -22.4815 -22.4689
    -7.1687  -7.0376  -6.4072  -6.3468   4.8938   5.1108   5.4348   5.5245
     7.4802   7.6015   7.7914   8.2275   8.5229   8.5956   8.7988   8.9618
    13.0497  13.2740  13.2915  13.4956  14.1133  14.2454  16.7453  17.0699
    17.1275  17.4120  22.2020  22.7052  24.7571  25.3574  26.1091  26.1112
    28.6516  28.7788  30.1770  30.3897  31.4570  32.0222  34.2198  35.1469
    35.6898  35.8469  38.3305  38.9977  39.1421  39.8239  40.3266  40.5393
    43.1161  43.5669  44.3552  44.6075  46.1156  46.6658  47.4148  47.8218
    50.0749  50.2568  50.5883  50.7617  51.1923

          k = 0.4011 0.4011 0.6172 (  1655 PWs)   bands (ev):

   -46.2360 -46.2352 -22.9292 -22.9234 -22.5676 -22.5559 -22.4780 -22.4744
    -6.8644  -6.6870  -6.5269  -6.3418   5.0645   5.2179   5.5817   5.7181
     6.4807   6.7761   7.7105   7.7523   8.5777   8.7736   9.4396   9.5859
    12.9521  13.4141  13.7104  13.7814  13.8460  14.2107  16.3643  16.9535
    17.0714  17.6314  22.3806  22.6819  24.7858  25.6284  25.8668  26.6115
    28.6214  28.7985  29.3229  29.8454  30.5818  31.1530  34.5794  35.3934
    36.6157  36.8481  37.2727  37.9395  40.4384  40.5056  42.1396  42.9325
    44.3200  44.7677  44.8854  45.5811  45.6441  46.4419  46.6011  47.1589
    48.1614  48.9259  49.7131  50.5656  51.0201

     the Fermi energy is    12.3572 ev

!    total energy              =    -366.46402034 Ry
     Harris-Foulkes estimate   =    -366.46401878 Ry
     estimated scf accuracy    <       0.00000009 Ry

     The total energy is the sum of the following terms:

     one-electron contribution =    -114.02221931 Ry
     hartree contribution      =      82.79046966 Ry
     xc contribution           =     -63.65444148 Ry
     ewald contribution        =    -271.57798948 Ry
     smearing contrib. (-TS)   =       0.00016028 Ry

     total magnetization       =     0.00 Bohr mag/cell
     absolute magnetization    =     0.00 Bohr mag/cell

     convergence has been achieved in   5 iterations

     Forces acting on atoms (Ry/au):


     negative rho (up, down):  0.127E-01 0.127E-01
     atom    1 type  1   force =     0.00000000    0.00000000    0.00000000
     atom    2 type  1   force =     0.00000000    0.00000000   -0.00000000
     atom    3 type  2   force =    -0.00526936   -0.00526936    0.00000000
     atom    4 type  2   force =     0.00526936    0.00526936   -0.00000000
     atom    5 type  2   force =    -0.00526936    0.00526936   -0.00000000
     atom    6 type  2   force =     0.00526936   -0.00526936    0.00000000

     Total force =     0.014904     Total SCF correction =     0.000115


     entering subroutine stress ...


     negative rho (up, down):  0.127E-01 0.127E-01
          total   stress  (Ry/bohr**3)                   (kbar)     P=  257.41
   0.00172084   0.00000000   0.00000000        253.14      0.00      0.00
   0.00000000   0.00172084   0.00000000          0.00    253.14      0.00
   0.00000000   0.00000000   0.00180792          0.00      0.00    265.95

     Volume is kept fixed: isostatic pressure set to zero

     number of scf cycles    =   2
     number of bfgs steps    =   1

     enthalpy old            =    -366.4623403778 Ry
     enthalpy new            =    -366.4640203376 Ry

     CASE: enthalpy_new < enthalpy_old

     new trust radius        =       0.0110148174 bohr
     new conv_thr            =       0.0000000527 Ry

     new unit-cell volume =    390.31355 a.u.^3 (    57.83850 Ang^3 )

CELL_PARAMETERS (alat=  8.46076011)
   0.996092484   0.000000000   0.000000000
   0.000000000   0.996092484   0.000000000
   0.000000000   0.000000000   0.649510472

ATOMIC_POSITIONS (crystal)
Ti0      0.000000000   0.000000000   0.000000000    0   0   0
Ti0      0.500000000   0.500000000   0.500000000    0   0   0
O1       0.302303677   0.302303677   0.000000000    1   1   0
O1      -0.302303677  -0.302303677   0.000000000    1   1   0
O1       0.802303677   0.197696323   0.500000000    1   1   0
O1       0.197696323   0.802303677   0.500000000    1   1   0


     Check: negative starting charge=(component1):   -0.025038
     NEW-OLD atomic charge density approx. for the potential
     NEW k-points:
        k(    1) = (   0.0000000   0.0000000   0.0000000), wk =   0.0080000
        k(    2) = (   0.0000000   0.0000000   0.3079242), wk =   0.0160000
        k(    3) = (   0.0000000   0.0000000   0.6158484), wk =   0.0160000
        k(    4) = (   0.0000000   0.2007846   0.0000000), wk =   0.0320000
        k(    5) = (   0.0000000   0.2007846   0.3079242), wk =   0.0640000
        k(    6) = (   0.0000000   0.2007846   0.6158484), wk =   0.0640000
        k(    7) = (   0.0000000   0.4015691   0.0000000), wk =   0.0320000
        k(    8) = (   0.0000000   0.4015691   0.3079242), wk =   0.0640000
        k(    9) = (   0.0000000   0.4015691   0.6158484), wk =   0.0640000
        k(   10) = (   0.2007846   0.2007846   0.0000000), wk =   0.0320000
        k(   11) = (   0.2007846   0.2007846   0.3079242), wk =   0.0640000
        k(   12) = (   0.2007846   0.2007846   0.6158484), wk =   0.0640000
        k(   13) = (   0.2007846   0.4015691   0.0000000), wk =   0.0640000
        k(   14) = (   0.2007846   0.4015691   0.3079242), wk =   0.1280000
        k(   15) = (   0.2007846   0.4015691   0.6158484), wk =   0.1280000
        k(   16) = (   0.4015691   0.4015691   0.0000000), wk =   0.0320000
        k(   17) = (   0.4015691   0.4015691   0.3079242), wk =   0.0640000
        k(   18) = (   0.4015691   0.4015691   0.6158484), wk =   0.0640000
        k(   19) = (   0.0000000   0.0000000   0.0000000), wk =   0.0080000
        k(   20) = (   0.0000000   0.0000000   0.3079242), wk =   0.0160000
        k(   21) = (   0.0000000   0.0000000   0.6158484), wk =   0.0160000
        k(   22) = (   0.0000000   0.2007846   0.0000000), wk =   0.0320000
        k(   23) = (   0.0000000   0.2007846   0.3079242), wk =   0.0640000
        k(   24) = (   0.0000000   0.2007846   0.6158484), wk =   0.0640000
        k(   25) = (   0.0000000   0.4015691   0.0000000), wk =   0.0320000
        k(   26) = (   0.0000000   0.4015691   0.3079242), wk =   0.0640000
        k(   27) = (   0.0000000   0.4015691   0.6158484), wk =   0.0640000
        k(   28) = (   0.2007846   0.2007846   0.0000000), wk =   0.0320000
        k(   29) = (   0.2007846   0.2007846   0.3079242), wk =   0.0640000
        k(   30) = (   0.2007846   0.2007846   0.6158484), wk =   0.0640000
        k(   31) = (   0.2007846   0.4015691   0.0000000), wk =   0.0640000
        k(   32) = (   0.2007846   0.4015691   0.3079242), wk =   0.1280000
        k(   33) = (   0.2007846   0.4015691   0.6158484), wk =   0.1280000
        k(   34) = (   0.4015691   0.4015691   0.0000000), wk =   0.0320000
        k(   35) = (   0.4015691   0.4015691   0.3079242), wk =   0.0640000
[...]
    28.5223  29.0639  29.8413  30.7119  31.5661  32.2297  33.8632  35.4462
    35.7830  36.0867  37.8062  37.9985  38.9703  39.2789  40.5145  41.1521
    42.4120  43.1369  44.1047  44.8965  45.9699  47.2172  47.5099  48.4170
    49.6044  50.0166  50.1054  50.4493  50.8762

          k = 0.2007 0.4014 0.6162 (  1655 PWs)   bands (ev):

   -46.2448 -46.2428 -22.9376 -22.9279 -22.5653 -22.5427 -22.4942 -22.4847
    -7.0075  -6.8489  -6.3608  -6.1904   5.0380   5.1941   5.7890   5.9571
     6.3590   7.0576   7.6423   7.8049   8.2575   8.6250   9.1435   9.4442
    12.6161  13.0592  13.7690  13.8666  14.2459  14.5835  15.9170  16.3636
    17.6307  18.0484  22.5671  23.3125  24.6388  25.4921  26.7854  27.1330
    28.2657  28.6569  28.9064  29.6057  30.5393  31.4480  33.8992  35.1870
    36.6292  37.2536  37.5496  38.5888  40.0196  40.2193  41.0125  42.0797
    42.4712  43.6182  44.8192  45.0098  45.8432  46.4102  46.9723  47.8971
    48.6775  49.2643  49.8077  50.8996  51.1373

          k = 0.4014 0.4014 0.0000 (  1674 PWs)   bands (ev):

   -46.2929 -46.2904 -22.7398 -22.7191 -22.5045 -22.4824 -22.4129 -22.4078
    -7.5226  -7.3658  -6.2293  -6.1370   4.4224   4.6544   6.1768   6.2165
     6.7623   7.3522   7.9005   8.4073   8.7830   8.7893   8.9796   9.3945
    12.4253  12.7068  13.0905  13.3103  14.4091  14.6150  16.8350  17.1846
    17.3756  17.5207  21.7676  22.3573  24.0698  24.8171  25.3892  25.6557
    29.6080  29.8918  32.4526  32.6323  32.7691  32.9757  33.1641  33.2440
    34.2979  34.7281  37.4983  37.7654  38.0913  39.1111  41.1026  41.6875
    43.2250  43.3132  43.7408  44.6201  44.6800  44.9174  48.2914  49.0794
    49.4130  49.6058  49.8045  50.2798  52.0858

          k = 0.4014 0.4014 0.3081 (  1657 PWs)   bands (ev):

   -46.2744 -46.2724 -22.6846 -22.6769 -22.6142 -22.6007 -22.4891 -22.4764
    -7.1658  -7.0338  -6.4028  -6.3410   4.8935   5.1135   5.4472   5.5380
     7.4832   7.6069   7.7930   8.2326   8.5131   8.6120   8.7979   8.9718
    13.0273  13.2606  13.2666  13.4868  14.1144  14.2466  16.7229  17.0787
    17.0863  17.4152  22.2189  22.7232  24.7576  25.3552  26.0882  26.0907
    28.6853  28.7962  30.1564  30.3582  31.4566  32.0226  34.1841  35.1251
    35.6511  35.7919  38.3410  38.9943  39.1424  39.8326  40.3573  40.5803
    43.0855  43.5468  44.3758  44.6450  46.0970  46.6744  47.4131  47.8258
    50.0722  50.3314  50.5535  50.7735  51.2117

          k = 0.4014 0.4014 0.6162 (  1662 PWs)   bands (ev):

   -46.2442 -46.2434 -22.9257 -22.9196 -22.5795 -22.5675 -22.4843 -22.4809
    -6.8590  -6.6708  -6.5376  -6.3420   5.0636   5.2151   5.5693   5.7050
     6.4832   6.7853   7.7148   7.7603   8.5696   8.7695   9.4599   9.5986
    12.9582  13.4310  13.6922  13.7659  13.8340  14.2050  16.3442  16.9006
    17.1067  17.6324  22.3899  22.6904  24.7902  25.6079  25.8842  26.6088
    28.6033  28.7866  29.3401  29.8623  30.5800  31.1439  34.5586  35.3548
    36.5806  36.8849  37.3176  37.9336  40.4666  40.5240  42.1044  42.9072
    44.3097  44.7602  44.8078  45.5858  45.5970  46.4221  46.6043  47.1694
    48.1315  48.9281  49.7546  50.6430  51.0543

 ------ SPIN DOWN ----------


          k = 0.0000 0.0000 0.0000 (  1683 PWs)   bands (ev):

   -46.3049 -46.2787 -22.7209 -22.7209 -22.4937 -22.4937 -22.4373 -22.3836
    -8.2237  -6.9248  -5.9859  -5.9859   4.2381   4.5769   4.8612   6.2570
     6.2570   7.6931   7.6931   8.2063   9.6211   9.8960   9.8960  10.3991
    12.3673  12.6769  12.9094  13.0624  13.0624  15.4252  15.4283  17.5329
    17.5329  18.7814  18.9865  22.4183  22.4183  25.6331  26.4793  27.6603
    29.9107  30.0313  31.0084  31.0084  32.5727  34.2435  35.4662  35.4662
    36.2741  37.0245  37.0245  37.3400  37.5649  37.5649  38.3560  40.3813
    43.5588  43.8272  43.9425  43.9849  43.9849  45.1013  45.9479  45.9479
    47.8415  48.4583  48.9685  48.9685  51.6570

          k = 0.0000 0.0000 0.3081 (  1667 PWs)   bands (ev):

   -46.2841 -46.2629 -22.6687 -22.6687 -22.6305 -22.5900 -22.4851 -22.4851
    -7.7788  -6.6820  -6.2075  -6.2075   4.8176   5.0084   5.3451   5.9814
     5.9814   7.1809   8.2629   8.3302   8.3302   9.1292   9.1292  10.0207
    12.7961  13.0049  13.1803  13.5625  13.5625  15.0848  15.9426  17.0866
    17.0866  18.2793  19.9595  23.8998  23.8998  25.7144  25.9785  28.1627
    28.4514  29.8841  30.3063  30.3063  31.2297  34.3337  34.8482  34.8482
    36.3843  36.3843  36.8732  37.4469  38.2487  39.9909  40.4177  40.4177
    41.7619  41.7619  42.8127  43.1278  46.5197  47.3972  47.5600  47.5600
    47.7870  49.8781  49.8985  49.8985  50.8554

          k = 0.0000 0.0000 0.6162 (  1671 PWs)   bands (ev):

   -46.2479 -46.2398 -22.9268 -22.9129 -22.5723 -22.5723 -22.4817 -22.4817
    -6.8924  -6.5611  -6.5611  -6.4389   5.5409   5.5482   6.1571   6.1571
     6.3729   6.6984   6.8254   7.8214   7.8214   8.5476   8.8511   8.8511
    13.2342  13.5084  13.9177  14.2070  14.2683  14.2683  16.4801  16.9201
    16.9201  16.9288  22.2544  24.4183  26.0775  26.0775  26.0888  26.9345
    28.9102  28.9102  28.9418  29.4021  30.2450  31.8716  34.2623  34.2623
    36.7193  36.7193  37.9010  38.3228  38.7389  40.2523  41.0399  41.0399
    41.4697  43.6899  43.6899  43.9931  46.7547  47.3372  47.3372  47.3394
    49.4640  49.9345  49.9345  50.3679  50.3679

          k = 0.0000 0.2007 0.0000 (  1677 PWs)   bands (ev):

   -46.3023 -46.2811 -22.7020 -22.6998 -22.5176 -22.5153 -22.4322 -22.3887
    -8.0552  -6.9050  -6.1746  -6.0662   4.5246   4.7803   5.1695   6.2790
     6.2938   7.3946   7.6002   8.2143   9.1729   9.3294   9.5669  10.2244
    12.6038  12.9583  13.2278  13.2551  13.3280  15.1842  15.7591  17.3669
    17.4022  18.5806  19.3969  22.3836  22.7820  25.5865  26.2665  27.4724
    29.7790  30.3233  30.8190  31.4834  32.9801  33.7563  33.9236  33.9641
    35.5792  36.7329  37.2595  37.5595  37.8033  38.4045  40.7279  40.9945
    41.7601  43.3541  43.9979  44.4975  44.7677  45.8557  46.3394  46.7084
    48.0617  49.1822  49.1991  49.3746  50.9786

          k = 0.0000 0.2007 0.3081 (  1673 PWs)   bands (ev):

   -46.2821 -46.2649 -22.6745 -22.6553 -22.6067 -22.6003 -22.5009 -22.4939
    -7.6422  -6.6471  -6.3707  -6.2601   5.0193   5.2209   5.4267   5.9369
     6.3015   7.0522   7.5880   8.2348   8.2504   9.0791   9.1072   9.9347
    12.7910  13.2943  13.3365  13.5158  13.8086  14.9070  16.1658  16.7427
    16.9904  18.2928  20.3897  23.5752  24.1620  25.9154  26.0617  27.7894
    28.2945  29.5493  29.7025  31.0194  31.6657  33.3884  33.8481  34.9432
    36.0997  36.2765  37.6501  38.1201  38.2783  39.8446  40.1947  40.7399
    41.6345  42.2347  42.8906  44.4834  46.3652  47.0843  48.0560  48.1574
    48.2806  49.1903  49.4219  50.1514  50.6596

          k = 0.0000 0.2007 0.6162 (  1664 PWs)   bands (ev):

   -46.2471 -46.2405 -22.9331 -22.9215 -22.5626 -22.5599 -22.4867 -22.4843
    -6.9769  -6.7720  -6.4255  -6.2612   5.3909   5.4894   5.7076   6.0516
     6.6328   6.7350   7.3918   7.7636   8.0140   8.6500   8.7600   8.8988
    12.9061  13.5878  13.6398  13.9176  14.4242  14.5370  16.2073  16.2847
    17.3064  17.7276  22.3189  24.1708  25.4109  26.2899  26.5363  26.8710
    28.1410  28.4055  29.4659  29.5967  30.6099  31.5910  33.8600  34.3689
    36.7904  37.0504  38.0416  38.4133  39.2127  40.3373  40.5876  41.2067
    42.1087  43.3428  43.4540  44.4258  45.7161  46.9916  47.7749  47.9680
    48.8659  49.4673  49.6208  50.5826  51.2057

          k = 0.0000 0.4014 0.0000 (  1673 PWs)   bands (ev):

   -46.2957 -46.2876 -22.6509 -22.6455 -22.5763 -22.5708 -22.4187 -22.4021
    -7.6046  -7.0748  -6.3923  -6.2550   5.0366   5.1659   6.1677   6.3259
     6.3420   6.9212   7.1852   7.7109   8.3574   8.7722   9.4171   9.7817
    12.9933  13.1699  13.6273  13.6992  13.8841  14.5957  16.6792  17.0998
    17.1407  17.7731  20.5544  21.7717  23.8017  25.0330  26.4458  27.1070
    29.6029  30.4592  30.7879  31.4593  31.7239  32.9312  34.0245  34.5327
    35.3282  35.6037  37.4074  37.4130  38.4924  39.1637  39.7216  40.1919
    43.7860  44.1648  44.1903  44.6828  45.5752  46.2612  47.4376  48.1054
    48.7760  49.2748  49.5707  49.9145  50.2406

          k = 0.0000 0.4014 0.3081 (  1682 PWs)   bands (ev):

   -46.2767 -46.2702 -22.6678 -22.6474 -22.5958 -22.5702 -22.5369 -22.5192
    -7.2746  -6.7990  -6.5282  -6.3887   5.4525   5.6575   5.7290   5.8568
     6.7090   6.8038   7.1525   7.6585   7.8796   8.5275   9.4042   9.7079
    13.0925  13.3633  13.6424  13.7351  14.1871  14.4986  16.3002  16.3057
    17.2310  17.9121  21.4401  22.6313  24.9797  25.9219  26.5098  27.2178
    28.1071  28.4682  29.6721  30.8405  31.8698  32.7113  33.7879  35.3352
    36.0774  36.0932  37.7871  38.2626  38.3163  38.9684  40.6401  41.0163
    41.3562  42.8650  44.1337  44.8103  46.5965  46.8071  47.9592  49.0162
    49.2416  49.6717  50.1396  50.7924  50.8692

          k = 0.0000 0.4014 0.6162 (  1670 PWs)   bands (ev):

   -46.2450 -46.2425 -22.9410 -22.9364 -22.5430 -22.5389 -22.4967 -22.4928
    -7.0366  -6.9667  -6.2379  -6.1652   5.0722   5.1720   5.8240   6.0154
     6.6869   7.1801   7.2703   7.8759   8.3523   8.4129   8.9049   9.3078
    12.5168  12.8604  13.8062  13.9070  14.5889  14.6167  15.8784  15.9894
    17.9226  18.1567  22.6993  23.4615  25.2456  25.7217  26.9166  27.2438
    27.6460  27.9272  29.4633  30.0025  30.4567  30.7925  34.2575  34.9215
    37.2841  37.5104  38.3200  38.4031  39.7423  39.7979  40.3620  40.5474
    41.4511  42.5506  44.7089  45.1250  46.4391  46.6731  48.0782  48.4348
    48.5491  48.9412  50.6229  50.9189  51.4671

          k = 0.2007 0.2007 0.0000 (  1682 PWs)   bands (ev):

   -46.3002 -46.2831 -22.7281 -22.6424 -22.5784 -22.4894 -22.4280 -22.3928
    -7.9293  -6.9216  -6.3424  -6.0453   4.4070   5.1957   5.4149   6.2266
     6.3460   7.0909   7.7450   8.2578   8.7336   9.2247   9.4208  10.0808
    12.4567  13.0727  13.1448  13.5159  13.6671  15.0474  15.9670  17.1193
    17.5286  18.3130  19.8779  22.6079  22.8590  25.5351  25.9918  27.0684
    29.6703  30.7204  30.7345  32.0434  33.2821  33.3351  33.8302  33.9160
    33.9889  36.2844  36.3771  37.5431  39.0241  39.2925  40.8906  41.6159
    41.7400  43.1224  43.3823  44.8118  45.5156  45.9649  46.5082  47.2668
    47.9489  49.1216  49.5200  49.6911  50.6167

          k = 0.2007 0.2007 0.3081 (  1669 PWs)   bands (ev):

   -46.2804 -46.2665 -22.6747 -22.6576 -22.6135 -22.5780 -22.5287 -22.4818
    -7.5341  -6.6226  -6.5235  -6.2597   4.8903   5.4131   5.5974   6.0443
     6.4135   6.8293   7.7266   7.8312   8.2973   8.9974   9.1835   9.8047
    12.8158  13.0481  13.4573  13.8600  13.8668  14.7680  16.1757  16.6339
    17.0864  18.1664  20.7752  23.5633  24.0902  25.9852  26.0847  27.1481
    28.3427  29.4448  30.4386  30.5774  31.6928  32.9282  33.3148  35.0774
    36.1060  36.2211  37.5514  37.6582  39.1222  40.2628  40.3962  40.7507
    41.7082  42.4242  43.5947  44.3699  46.4815  47.1084  47.6774  48.3662
    48.6969  49.5420  50.0083  50.3824  50.4522

          k = 0.2007 0.2007 0.6162 (  1662 PWs)   bands (ev):

   -46.2465 -46.2411 -22.9380 -22.9204 -22.5750 -22.5394 -22.4955 -22.4813
    -7.0334  -6.6133  -6.6037  -6.1745   5.1901   5.5915   5.7221   5.8434
     6.2440   7.3909   7.4847   7.7979   7.8493   8.7136   8.8167   9.1335
    12.7347  13.6523  13.7366  13.8137  14.0495  14.7332  15.8420  16.9136
    16.9340  17.9838  22.3292  24.1954  24.5565  26.1231  26.7336  27.2532
    27.5950  29.0892  29.1361  29.6030  30.3946  32.2515  32.9524  34.6885
    36.6229  37.0370  37.6155  39.3361  39.6429  40.4001  40.5490  41.4472
    43.0111  43.1205  43.8923  44.8567  45.2422  46.4134  46.8974  48.1135
    48.8742  49.2669  50.0262  50.5972  51.0589

          k = 0.2007 0.4014 0.0000 (  1669 PWs)   bands (ev):

   -46.2949 -46.2883 -22.7121 -22.6578 -22.5653 -22.5090 -22.4170 -22.4036
    -7.5923  -7.1702  -6.3599  -6.1767   4.6448   5.1343   6.2044   6.2428
     6.3157   7.1135   7.4835   8.2094   8.4871   8.8879   9.0846   9.5753
    12.7197  13.0847  13.3002  13.6699  14.0763  14.6382  16.6738  17.1173
    17.3799  17.5833  20.9498  22.0653  23.8351  25.0409  25.9334  26.4537
    29.6079  30.1894  31.7870  31.7973  32.2586  33.1014  33.9414  34.0861
    34.1970  35.1765  36.7857  38.0121  38.2993  39.2140  40.4759  41.3374
    43.5706  43.6127  43.8317  44.6526  44.8451  46.2678  47.6390  48.3192
    48.9930  49.1972  49.2610  50.1511  50.8115

          k = 0.2007 0.4014 0.3081 (  1668 PWs)   bands (ev):

   -46.2760 -46.2707 -22.6741 -22.6576 -22.6127 -22.5787 -22.5237 -22.4920
    -7.2475  -6.8810  -6.4900  -6.3539   5.1024   5.5248   5.5993   5.7586
     6.8444   7.0979   7.4694   7.9353   8.0980   8.6547   9.1458   9.4740
    13.0993  13.2474  13.4358  13.7821  14.1118  14.4268  16.3085  16.6958
    17.1973  17.7590  21.6780  22.7417  24.8280  25.9263  26.1814  26.3722
    28.5225  29.0641  29.8415  30.7121  31.5663  32.2299  33.8633  35.4464
    35.7833  36.0869  37.8064  37.9987  38.9705  39.2791  40.5147  41.1523
    42.4123  43.1371  44.1049  44.8967  45.9702  47.2174  47.5101  48.4171
    49.6046  50.0168  50.1056  50.4495  50.8764

          k = 0.2007 0.4014 0.6162 (  1655 PWs)   bands (ev):

   -46.2448 -46.2427 -22.9375 -22.9278 -22.5652 -22.5427 -22.4940 -22.4846
    -7.0075  -6.8489  -6.3608  -6.1904   5.0382   5.1942   5.7891   5.9572
     6.3591   7.0577   7.6424   7.8050   8.2575   8.6250   9.1435   9.4442
    12.6162  13.0593  13.7693  13.8668  14.2459  14.5835  15.9169  16.3636
    17.6307  18.0485  22.5673  23.3127  24.6390  25.4924  26.7856  27.1332
    28.2659  28.6571  28.9066  29.6059  30.5394  31.4482  33.8994  35.1872
    36.6295  37.2537  37.5498  38.5891  40.0198  40.2194  41.0128  42.0799
    42.4715  43.6184  44.8194  45.0101  45.8434  46.4105  46.9725  47.8973
    48.6777  49.2645  49.8079  50.8998  51.1375

          k = 0.4014 0.4014 0.0000 (  1674 PWs)   bands (ev):

   -46.2928 -46.2903 -22.7398 -22.7190 -22.5044 -22.4824 -22.4128 -22.4077
    -7.5225  -7.3658  -6.2292  -6.1369   4.4226   4.6545   6.1769   6.2165
     6.7623   7.3523   7.9005   8.4073   8.7831   8.7894   8.9796   9.3946
    12.4256  12.7070  13.0905  13.3104  14.4091  14.6150  16.8350  17.1847
    17.3755  17.5206  21.7678  22.3575  24.0700  24.8173  25.3895  25.6560
    29.6082  29.8919  32.4529  32.6325  32.7693  32.9759  33.1643  33.2442
    34.2981  34.7282  37.4984  37.7656  38.0915  39.1113  41.1028  41.6877
    43.2252  43.3134  43.7410  44.6203  44.6803  44.9176  48.2916  49.0795
    49.4132  49.6060  49.8047  50.2800  52.0860

          k = 0.4014 0.4014 0.3081 (  1657 PWs)   bands (ev):

   -46.2743 -46.2723 -22.6845 -22.6768 -22.6141 -22.6006 -22.4890 -22.4763
    -7.1658  -7.0337  -6.4027  -6.3410   4.8936   5.1137   5.4473   5.5381
     7.4832   7.6069   7.7931   8.2326   8.5132   8.6121   8.7980   8.9719
    13.0275  13.2606  13.2669  13.4869  14.1144  14.2466  16.7229  17.0787
    17.0863  17.4152  22.2191  22.7234  24.7579  25.3554  26.0885  26.0910
    28.6855  28.7964  30.1566  30.3584  31.4568  32.0229  34.1843  35.1254
    35.6513  35.7921  38.3411  38.9945  39.1426  39.8329  40.3575  40.5805
    43.0857  43.5470  44.3761  44.6452  46.0972  46.6746  47.4133  47.8260
    50.0724  50.3316  50.5537  50.7737  51.2119

          k = 0.4014 0.4014 0.6162 (  1662 PWs)   bands (ev):

   -46.2441 -46.2433 -22.9256 -22.9195 -22.5794 -22.5675 -22.4842 -22.4807
    -6.8590  -6.6707  -6.5376  -6.3419   5.0637   5.2153   5.5695   5.7051
     6.4832   6.7854   7.7149   7.7604   8.5696   8.7695   9.4599   9.5987
    12.9582  13.4311  13.6924  13.7661  13.8342  14.2050  16.3442  16.9006
    17.1067  17.6324  22.3901  22.6906  24.7904  25.6081  25.8844  26.6090
    28.6035  28.7868  29.3403  29.8626  30.5802  31.1442  34.5589  35.3551
    36.5808  36.8851  37.3178  37.9338  40.4668  40.5241  42.1046  42.9074
    44.3100  44.7604  44.8080  45.5860  45.5972  46.4224  46.6046  47.1697
    48.1318  48.9283  49.7548  50.6432  51.0544

     the Fermi energy is    12.3311 ev

!    total energy              =    -366.46419573 Ry
     Harris-Foulkes estimate   =    -366.46419507 Ry
     estimated scf accuracy    <          4.1E-09 Ry

     The total energy is the sum of the following terms:

     one-electron contribution =    -113.68507979 Ry
     hartree contribution      =      82.61984019 Ry
     xc contribution           =     -63.64862118 Ry
     ewald contribution        =    -271.75046688 Ry
     smearing contrib. (-TS)   =       0.00013194 Ry

     total magnetization       =     0.00 Bohr mag/cell
     absolute magnetization    =     0.00 Bohr mag/cell

     convergence has been achieved in  12 iterations

     Forces acting on atoms (Ry/au):


     negative rho (up, down):  0.127E-01 0.127E-01
     atom    1 type  1   force =     0.00000000    0.00000000    0.00000000
     atom    2 type  1   force =     0.00000000    0.00000000    0.00000000
     atom    3 type  2   force =    -0.00002095   -0.00002095    0.00000000
     atom    4 type  2   force =     0.00002095    0.00002095    0.00000000
     atom    5 type  2   force =    -0.00002095    0.00002095   -0.00000000
     atom    6 type  2   force =     0.00002095   -0.00002095   -0.00000000

     Total force =     0.000059     Total SCF correction =     0.000122
     SCF correction compared to forces is large: reduce conv_thr to get better values


     entering subroutine stress ...


     negative rho (up, down):  0.127E-01 0.127E-01
          total   stress  (Ry/bohr**3)                   (kbar)     P=  254.29
   0.00172855   0.00000000   0.00000000        254.28      0.00      0.00
   0.00000000   0.00172855   0.00000000          0.00    254.28      0.00
   0.00000000   0.00000000   0.00172877          0.00      0.00    254.31


     init_run     :     14.96s CPU     15.20s WALL (       2 calls)
     electrons    :    695.76s CPU    718.26s WALL (       6 calls)
     update_pot   :     14.65s CPU     14.83s WALL (       4 calls)
     forces       :     36.85s CPU     36.89s WALL (       6 calls)
     stress       :     97.88s CPU     98.09s WALL (       6 calls)

     Called by init_run:
     wfcinit      :      7.57s CPU      7.69s WALL (       2 calls)
     potinit      :      1.48s CPU      1.53s WALL (       2 calls)

     Called by electrons:
     c_bands      :    548.52s CPU    567.21s WALL (      43 calls)
     sum_band     :     93.02s CPU     94.33s WALL (      43 calls)
     v_of_rho     :      9.49s CPU      9.57s WALL (      47 calls)
     newd         :     49.88s CPU     49.96s WALL (      47 calls)
     mix_rho      :      0.80s CPU      0.80s WALL (      43 calls)

     Called by c_bands:
     init_us_2    :      3.91s CPU      3.93s WALL (    3600 calls)
     cegterg      :    537.03s CPU    555.59s WALL (    1548 calls)

     Called by *egterg:
     h_psi        :    261.88s CPU    268.59s WALL (    4586 calls)
     s_psi        :     20.41s CPU     20.48s WALL (    4586 calls)
     g_psi        :      1.57s CPU      1.59s WALL (    2966 calls)
     cdiaghg      :    140.89s CPU    141.45s WALL (    4298 calls)

     Called by h_psi:
     add_vuspsi   :     20.35s CPU     20.48s WALL (    4586 calls)

     General routines
     calbec       :     34.94s CPU     37.18s WALL (    6566 calls)
     fft          :      6.60s CPU      6.68s WALL (    1677 calls)
     ffts         :      0.13s CPU      0.13s WALL (     180 calls)
     fftw         :    222.66s CPU    225.73s WALL (  606216 calls)
     interpolate  :      0.92s CPU      0.94s WALL (     180 calls)

     Parallel routines
     fft_scatter  :     67.82s CPU     65.94s WALL (  608073 calls)

     PWSCF        : 14m24.82s CPU    14m48.27s WALL


   This run was terminated on:  15:38:30  24Jan2014            

=------------------------------------------------------------------------------=
   JOB DONE.
=------------------------------------------------------------------------------=
