
     Program PWSCF v.5.0.2 (svn rev. 9656) starts on  1Jun2014 at 11:56:40 

     This program is part of the open-source Quantum ESPRESSO suite
     for quantum simulation of materials; please cite
         "P. Giannozzi et al., J. Phys.:Condens. Matter 21 395502 (2009);
          URL http://www.quantum-espresso.org", 
     in publications or presentations arising from this work. More details at
     http://www.quantum-espresso.org/quote.php

     Parallel version (MPI), running on    16 processors
     K-points division:     npool     =       4
     R & G space division:  proc/nbgrp/npool/nimage =       4

     Current dimensions of program PWSCF are:
     Max number of different atomic species (ntypx) = 10
     Max number of k-points (npk) =  40000
     Max angular momentum in pseudopotentials (lmaxx) =  3
     Reading input from pwscf.in
Warning: card &CELL ignored
Warning: card / ignored

     Subspace diagonalization in iterative solution of the eigenvalue problem:
     a serial algorithm will be used


     Parallelization info
     --------------------
     sticks:   dense  smooth     PW     G-vecs:    dense   smooth      PW
     Min        1333     428    119               322637    58444    8739
     Max        1334     429    120               322642    58462    8748
     Sum        5335    1713    477              1290557   233813   34969



     bravais-lattice index     =            0
     lattice parameter (alat)  =      10.1289  a.u.
     unit-cell volume          =    6836.7721 (a.u.)^3
     number of atoms/cell      =           33
     number of atomic types    =            3
     number of electrons       =       245.00
     number of Kohn-Sham states=          367
     kinetic-energy cutoff     =      40.0000  Ry
     charge density cutoff     =     500.0000  Ry
     convergence threshold     =      1.0E-06
     mixing beta               =       0.7000
     number of iterations used =            8  plain     mixing
     Exchange-correlation      = SLA  PW   PBE  PBE ( 1 4 3 4 0)
     EXX-fraction              =        0.00
     nstep                     =           50


     celldm(1)=  10.128932  celldm(2)=   0.000000  celldm(3)=   0.000000
     celldm(4)=   0.000000  celldm(5)=   0.000000  celldm(6)=   0.000000

     crystal axes: (cart. coord. in units of alat)
               a(1) = (   1.000000   0.000000   0.000000 )  
               a(2) = (   0.000000   1.306037   0.000000 )  
               a(3) = (   0.000000   0.000000   5.037380 )  

     reciprocal axes: (cart. coord. in units 2 pi/alat)
               b(1) = (  1.000000  0.000000  0.000000 )  
               b(2) = (  0.000000  0.765675  0.000000 )  
               b(3) = (  0.000000  0.000000  0.198516 )  


     PseudoPot. # 1 for O  read from file:
     /home/camp/zhonxu/pseudo/o_pbe_v1.01.uspp.F.UPF
     MD5 check sum: 2bcb18d16ea4b960afae9ec6d52f22d2
     Pseudo is Ultrasoft + core correction, Zval =  6.0
     Generated by new atomic code, or converted to UPF format
     Using radial grid of  737 points,  5 beta functions with: 
                l(1) =   0
                l(2) =   0
                l(3) =   1
                l(4) =   1
                l(5) =   2
     Q(r) pseudized with  8 coefficients,  rinner =    0.900   0.900   0.900
                                                       0.900   0.900

     PseudoPot. # 2 for Re read from file:
     /home/camp/zhonxu/pseudo/re_pbe_v1.uspp.F.UPF
     MD5 check sum: 6f5a5dcaf9c96c20d0ffdde0de57afc6
     Pseudo is Ultrasoft + core correction, Zval = 15.0
     Generated by new atomic code, or converted to UPF format
     Using radial grid of  981 points,  8 beta functions with: 
                l(1) =   0
                l(2) =   0
                l(3) =   1
                l(4) =   1
                l(5) =   2
                l(6) =   2
                l(7) =   3
                l(8) =   3
     Q(r) pseudized with  8 coefficients,  rinner =    1.000   1.000   1.000
                                                       1.000   1.000   1.000
                                                       1.000

     PseudoPot. # 3 for H  read from file:
     /home/camp/zhonxu/pseudo/h_pbe_v1.uspp.F.UPF
     MD5 check sum: 3408e3ff4ec8b0a4e358431e7e038a48
     Pseudo is Ultrasoft, Zval =  1.0
     Generated by new atomic code, or converted to UPF format
     Using radial grid of  615 points,  2 beta functions with: 
                l(1) =   0
                l(2) =   0
     Q(r) pseudized with  8 coefficients,  rinner =    0.700

     atomic species   valence    mass     pseudopotential
        O0             6.00    15.99940     O ( 1.00)
        Re1           15.00   186.20700     Re( 1.00)
        H2             1.00     1.00794     H ( 1.00)


     Simplified LDA+U calculation (l_max = 2) with parameters (eV):
     atomic species    L          U    alpha       J0     beta
        Re1            2     2.0000   0.0000   0.0000   0.0000



     No symmetry found



   Cartesian axes

     site n.     atom                  positions (alat units)
         1           O0  tau(   1) = (   0.0000000   0.0000000   1.8623194  )
         2           O0  tau(   2) = (   0.0000000   0.6530184   1.9253370  )
         3           Re1 tau(   3) = (   0.2500000   0.6530184   2.2271768  )
         4           Re1 tau(   4) = (   0.0000000   0.0000000   2.2287384  )
         5           O0  tau(   5) = (   0.2500000   1.0187087   2.2217869  )
         6           O0  tau(   6) = (   0.2500000   0.2873281   2.2210816  )
         7           O0  tau(   7) = (   0.0000000   0.6530184   2.5071544  )
         8           O0  tau(   8) = (   0.0000000   0.0000000   2.5894652  )
         9           Re1 tau(   9) = (   0.2500000   0.0000000   2.8894412  )
        10           Re1 tau(  10) = (   0.0000000   0.6530184   2.8583102  )
        11           O0  tau(  11) = (   0.2500000   0.9403465   2.8756892  )
        12           O0  tau(  12) = (   0.2500000   0.3656903   2.8872751  )
        13           O0  tau(  13) = (   0.0000000   0.0000000   3.1516368  )
        14           O0  tau(  14) = (   0.5000000   0.0000000   1.8624705  )
        15           O0  tau(  15) = (   0.5000000   0.6530184   1.9269994  )
        16           Re1 tau(  16) = (   0.7500000   0.6530184   2.2271768  )
        17           Re1 tau(  17) = (   0.5000000   0.0000000   2.2274287  )
        18           O0  tau(  18) = (   0.7500000   1.0187087   2.2214342  )
        19           O0  tau(  19) = (   0.7500000   0.2873281   2.2214846  )
        20           O0  tau(  20) = (   0.5000000   0.6530184   2.5086153  )
        21           O0  tau(  21) = (   0.5000000   0.0000000   2.5899690  )
        22           Re1 tau(  22) = (   0.7500000   0.0000000   2.8888367  )
        23           Re1 tau(  23) = (   0.5000000   0.6530184   2.9018835  )
        24           O0  tau(  24) = (   0.7500000   0.9403465   2.8756892  )
        25           O0  tau(  25) = (   0.7500000   0.3656903   2.8872248  )
        26           O0  tau(  26) = (   0.5000000   0.0000000   3.1466498  )
        27           H2  tau(  27) = (  -0.0002100   0.8169913   1.8417165  )
        28           H2  tau(  28) = (   0.4996400   0.8147057   1.8388956  )
        29           H2  tau(  29) = (   0.1678400   0.0328729   1.7887233  )
        30           H2  tau(  30) = (   0.6697500   0.0291246   1.7904864  )
        31           O0  tau(  31) = (   0.4996300   0.6876806   3.2307741  )
        32           O0  tau(  32) = (   0.5002900   0.4188329   3.4291461  )
        33           H2  tau(  33) = (   0.4999500   0.5176477   3.5843478  )

     number of k points=    10  Methfessel-Paxton smearing, width (Ry)=  0.0100
                       cart. coord. in units 2pi/alat
        k(    1) = (   0.0000000   0.0000000   0.0000000), wk =   0.1250000
        k(    2) = (   0.0000000   0.1914188   0.0000000), wk =   0.2500000
        k(    3) = (   0.0000000  -0.3828376   0.0000000), wk =   0.1250000
        k(    4) = (   0.2500000   0.0000000   0.0000000), wk =   0.2500000
        k(    5) = (   0.2500000   0.1914188   0.0000000), wk =   0.2500000
        k(    6) = (   0.2500000  -0.3828376   0.0000000), wk =   0.2500000
        k(    7) = (  -0.5000000   0.0000000   0.0000000), wk =   0.1250000
        k(    8) = (  -0.5000000   0.1914188   0.0000000), wk =   0.2500000
        k(    9) = (  -0.5000000  -0.3828376   0.0000000), wk =   0.1250000
        k(   10) = (  -0.2500000   0.1914188   0.0000000), wk =   0.2500000

     Dense  grid:  1290557 G-vectors     FFT dimensions: (  75,  96, 375)

     Smooth grid:   233813 G-vectors     FFT dimensions: (  45,  54, 216)

     Largest allocated arrays     est. size (Mb)     dimensions
        Kohn-Sham Wavefunctions        41.24 Mb     (   7365,  367)
        Atomic wavefunctions           21.24 Mb     (   7365,  189)
        NL pseudopotentials            59.11 Mb     (   7365,  526)
        Each V/rho on FFT grid         10.33 Mb     ( 676800)
        Each G-vector array             2.46 Mb     ( 322642)
        G-vector shells                 1.07 Mb     ( 139625)
     Largest temporary arrays     est. size (Mb)     dimensions
        Auxiliary wavefunctions       164.98 Mb     (   7365, 1468)
        Each subspace H/S matrix       32.88 Mb     (1468,1468)
        Each <psi_i|beta_j> matrix      2.95 Mb     (    526,  367)
        Arrays for rho mixing          82.62 Mb     ( 676800,   8)

     Check: negative/imaginary core charge=   -0.000003    0.000000

     Initial potential from superposition of free atoms
     Check: negative starting charge=   -0.236968

     starting charge  240.99957, renormalised to  245.00000

     negative rho (up, down):  0.241E+00 0.000E+00
     Number of +U iterations with fixed ns =  0
     Starting occupations:
 --- enter write_ns ---
 LDA+U parameters:
U( 2)     =  2.00000000
alpha( 2) =  0.00000000
atom    3   Tr[ns(na)] =   5.00000
    eigenvalues: 
  0.500  0.500  0.500  0.500  0.500
    eigenvectors:
  1.000  0.000  0.000  0.000  0.000
  0.000  1.000  0.000  0.000  0.000
  0.000  0.000  1.000  0.000  0.000
  0.000  0.000  0.000  1.000  0.000
  0.000  0.000  0.000  0.000  1.000
    occupations:
  0.500  0.000  0.000  0.000  0.000
  0.000  0.500  0.000  0.000  0.000
  0.000  0.000  0.500  0.000  0.000
  0.000  0.000  0.000  0.500  0.000
  0.000  0.000  0.000  0.000  0.500
atom    4   Tr[ns(na)] =   5.00000
    eigenvalues: 
  0.500  0.500  0.500  0.500  0.500
    eigenvectors:
  1.000  0.000  0.000  0.000  0.000
  0.000  1.000  0.000  0.000  0.000
  0.000  0.000  1.000  0.000  0.000
  0.000  0.000  0.000  1.000  0.000
  0.000  0.000  0.000  0.000  1.000
    occupations:
  0.500  0.000  0.000  0.000  0.000
  0.000  0.500  0.000  0.000  0.000
  0.000  0.000  0.500  0.000  0.000
  0.000  0.000  0.000  0.500  0.000
  0.000  0.000  0.000  0.000  0.500
atom    9   Tr[ns(na)] =   5.00000
    eigenvalues: 
  0.500  0.500  0.500  0.500  0.500
    eigenvectors:
  1.000  0.000  0.000  0.000  0.000
  0.000  1.000  0.000  0.000  0.000
  0.000  0.000  1.000  0.000  0.000
  0.000  0.000  0.000  1.000  0.000
  0.000  0.000  0.000  0.000  1.000
    occupations:
  0.500  0.000  0.000  0.000  0.000
  0.000  0.500  0.000  0.000  0.000
  0.000  0.000  0.500  0.000  0.000
  0.000  0.000  0.000  0.500  0.000
  0.000  0.000  0.000  0.000  0.500
atom   10   Tr[ns(na)] =   5.00000
    eigenvalues: 
  0.500  0.500  0.500  0.500  0.500
    eigenvectors:
  1.000  0.000  0.000  0.000  0.000
  0.000  1.000  0.000  0.000  0.000
  0.000  0.000  1.000  0.000  0.000
  0.000  0.000  0.000  1.000  0.000
  0.000  0.000  0.000  0.000  1.000
    occupations:
  0.500  0.000  0.000  0.000  0.000
  0.000  0.500  0.000  0.000  0.000
  0.000  0.000  0.500  0.000  0.000
  0.000  0.000  0.000  0.500  0.000
  0.000  0.000  0.000  0.000  0.500
atom   16   Tr[ns(na)] =   5.00000
    eigenvalues: 
  0.500  0.500  0.500  0.500  0.500
    eigenvectors:
  1.000  0.000  0.000  0.000  0.000
  0.000  1.000  0.000  0.000  0.000
  0.000  0.000  1.000  0.000  0.000
  0.000  0.000  0.000  1.000  0.000
  0.000  0.000  0.000  0.000  1.000
    occupations:
  0.500  0.000  0.000  0.000  0.000
  0.000  0.500  0.000  0.000  0.000
  0.000  0.000  0.500  0.000  0.000
  0.000  0.000  0.000  0.500  0.000
  0.000  0.000  0.000  0.000  0.500
atom   17   Tr[ns(na)] =   5.00000
    eigenvalues: 
  0.500  0.500  0.500  0.500  0.500
    eigenvectors:
  1.000  0.000  0.000  0.000  0.000
  0.000  1.000  0.000  0.000  0.000
  0.000  0.000  1.000  0.000  0.000
  0.000  0.000  0.000  1.000  0.000
  0.000  0.000  0.000  0.000  1.000
    occupations:
  0.500  0.000  0.000  0.000  0.000
  0.000  0.500  0.000  0.000  0.000
  0.000  0.000  0.500  0.000  0.000
  0.000  0.000  0.000  0.500  0.000
  0.000  0.000  0.000  0.000  0.500
atom   22   Tr[ns(na)] =   5.00000
    eigenvalues: 
  0.500  0.500  0.500  0.500  0.500
    eigenvectors:
  1.000  0.000  0.000  0.000  0.000
  0.000  1.000  0.000  0.000  0.000
  0.000  0.000  1.000  0.000  0.000
  0.000  0.000  0.000  1.000  0.000
  0.000  0.000  0.000  0.000  1.000
    occupations:
  0.500  0.000  0.000  0.000  0.000
  0.000  0.500  0.000  0.000  0.000
  0.000  0.000  0.500  0.000  0.000
  0.000  0.000  0.000  0.500  0.000
  0.000  0.000  0.000  0.000  0.500
atom   23   Tr[ns(na)] =   5.00000
    eigenvalues: 
  0.500  0.500  0.500  0.500  0.500
    eigenvectors:
  1.000  0.000  0.000  0.000  0.000
  0.000  1.000  0.000  0.000  0.000
  0.000  0.000  1.000  0.000  0.000
  0.000  0.000  0.000  1.000  0.000
  0.000  0.000  0.000  0.000  1.000
    occupations:
  0.500  0.000  0.000  0.000  0.000
  0.000  0.500  0.000  0.000  0.000
  0.000  0.000  0.500  0.000  0.000
  0.000  0.000  0.000  0.500  0.000
  0.000  0.000  0.000  0.000  0.500
N of occupied +U levels =  40.0000000
 --- exit write_ns ---
 Atomic wfc used for LDA+U Projector are NOT orthogonalized
     Starting wfc are  189 randomized atomic wfcs

     total cpu time spent up to now is      159.4 secs

     per-process dynamical memory:   427.2 Mb

     Self-consistent Calculation

     iteration #  1     ecut=    40.00 Ry     beta=0.70
     Davidson diagonalization with overlap
     ethr =  1.00E-02,  avg # of iterations =  6.0
 --- enter write_ns ---
 LDA+U parameters:
U( 2)     =  2.00000000
alpha( 2) =  0.00000000
atom    3   Tr[ns(na)] =   5.55175
    eigenvalues: 
  0.426  0.465  0.498  0.661  0.725
    eigenvectors:
  0.003  0.001  0.455  0.000  0.542
  0.000  0.999  0.000  0.000  0.000
  0.995  0.000  0.002  0.002  0.001
  0.000  0.000  0.544  0.000  0.456
  0.002  0.000  0.000  0.997  0.000
    occupations:
  0.621 -0.004  0.010 -0.113 -0.001
 -0.004  0.465  0.000  0.003 -0.003
  0.010  0.000  0.427 -0.005 -0.011
 -0.113  0.003 -0.005  0.602  0.000
 -0.001 -0.003 -0.011  0.000  0.661
atom    4   Tr[ns(na)] =   5.40655
    eigenvalues: 
  0.391  0.463  0.514  0.609  0.727
    eigenvectors:
  0.000  0.000  0.953  0.001  0.046
  0.001  0.000  0.001  0.999  0.000
  0.999  0.000  0.000  0.001  0.000
  0.000  0.000  0.046  0.000  0.954
  0.000  1.000  0.000  0.000  0.000
    occupations:
  0.524  0.003  0.001 -0.045  0.000
  0.003  0.609  0.005  0.000 -0.000
  0.001  0.005  0.391  0.000  0.000
 -0.045  0.000  0.000  0.717  0.000
  0.000 -0.000  0.000  0.000  0.463
atom    9   Tr[ns(na)] =   5.83868
    eigenvalues: 
  0.487  0.511  0.519  0.675  0.727
    eigenvectors:
  0.000  0.348  0.016  0.000  0.635
  0.000  0.050  0.950  0.000  0.000
  0.998  0.000  0.000  0.001  0.000
  0.000  0.602  0.034  0.000  0.364
  0.001  0.000  0.000  0.999  0.000
    occupations:
  0.648 -0.003  0.001 -0.104  0.000
 -0.003  0.519 -0.001 -0.000 -0.000
  0.001 -0.001  0.488 -0.001 -0.006
 -0.104 -0.000 -0.001  0.590 -0.000
  0.000 -0.000 -0.006 -0.000  0.675
atom   10   Tr[ns(na)] =   6.12437
    eigenvalues: 
  0.413  0.465  0.674  0.723  0.787
    eigenvectors:
  0.986  0.000  0.000  0.014  0.000
  0.000  0.000  0.000  0.000  1.000
  0.000  0.000  0.992  0.008  0.000
  0.014  0.000  0.008  0.978  0.000
  0.000  1.000  0.000  0.000  0.000
    occupations:
  0.418  0.000  0.000 -0.037 -0.000
  0.000  0.786  0.000  0.000 -0.006
  0.000  0.000  0.675  0.005 -0.000
 -0.037  0.000  0.005  0.718  0.000
 -0.000 -0.006 -0.000  0.000  0.465
atom   16   Tr[ns(na)] =   5.55273
    eigenvalues: 
  0.426  0.465  0.498  0.662  0.725
    eigenvectors:
  0.003  0.001  0.454  0.000  0.542
  0.000  0.999  0.000  0.000  0.000
  0.995  0.000  0.002  0.002  0.001
  0.000  0.000  0.544  0.000  0.456
  0.002  0.000  0.000  0.997  0.000
    occupations:
  0.621  0.004  0.010 -0.113  0.001
  0.004  0.465 -0.001 -0.003 -0.003
  0.010 -0.001  0.427 -0.005  0.011
 -0.113 -0.003 -0.005  0.602 -0.000
  0.001 -0.003  0.011 -0.000  0.661
atom   17   Tr[ns(na)] =   5.32077
    eigenvalues: 
  0.382  0.462  0.514  0.582  0.720
    eigenvectors:
  0.000  0.000  0.953  0.002  0.045
  0.000  0.000  0.002  0.998  0.000
  1.000  0.000  0.000  0.000  0.000
  0.000  0.000  0.045  0.000  0.955
  0.000  1.000  0.000  0.000  0.000
    occupations:
  0.524  0.003  0.001 -0.043  0.000
  0.003  0.582  0.004  0.001 -0.000
  0.001  0.004  0.382 -0.000  0.000
 -0.043  0.001 -0.000  0.711  0.000
  0.000 -0.000  0.000  0.000  0.462
atom   22   Tr[ns(na)] =   5.84432
    eigenvalues: 
  0.488  0.510  0.519  0.677  0.728
    eigenvectors:
  0.000  0.342  0.022  0.000  0.636
  0.000  0.067  0.933  0.000  0.000
  0.998  0.000  0.000  0.001  0.000
  0.000  0.591  0.045  0.000  0.364
  0.001  0.000  0.000  0.998  0.000
    occupations:
  0.649  0.003  0.001 -0.104  0.001
  0.003  0.518  0.001  0.001 -0.000
  0.001  0.001  0.489 -0.001  0.007
 -0.104  0.001 -0.001  0.590 -0.000
  0.001 -0.000  0.007 -0.000  0.676
atom   23   Tr[ns(na)] =   5.65723
    eigenvalues: 
  0.463  0.517  0.532  0.592  0.726
    eigenvectors:
  0.000  0.000  0.775  0.168  0.056
  0.016  0.984  0.000  0.000  0.000
  0.000  0.000  0.187  0.810  0.002
  0.000  0.000  0.037  0.021  0.941
  0.984  0.016  0.000  0.000  0.000
    occupations:
  0.553  0.000 -0.024 -0.041 -0.000
  0.000  0.516 -0.000 -0.000 -0.007
 -0.024 -0.000  0.581  0.001  0.000
 -0.041 -0.000  0.001  0.715  0.000
 -0.000 -0.007  0.000  0.000  0.464
N of occupied +U levels =  45.2964031
 --- exit write_ns ---

     negative rho (up, down):  0.294E+00 0.000E+00

     total cpu time spent up to now is      607.7 secs

     total energy              =   -2201.83617863 Ry
     Harris-Foulkes estimate   =   -2208.72149875 Ry
     estimated scf accuracy    <       8.63866258 Ry

     iteration #  2     ecut=    40.00 Ry     beta=0.70
     Davidson diagonalization with overlap
     ethr =  3.53E-03,  avg # of iterations =  5.0

     negative rho (up, down):  0.286E+00 0.000E+00

     total cpu time spent up to now is      946.7 secs

     total energy              =   -2168.82218637 Ry
     Harris-Foulkes estimate   =   -2245.68711107 Ry
     estimated scf accuracy    <     957.12111479 Ry

     iteration #  3     ecut=    40.00 Ry     beta=0.70
     Davidson diagonalization with overlap
     ethr =  3.53E-03,  avg # of iterations =  4.9

     negative rho (up, down):  0.242E+00 0.000E+00

     total cpu time spent up to now is     1306.7 secs

     total energy              =   -2194.84668292 Ry
     Harris-Foulkes estimate   =   -2218.04638688 Ry
     estimated scf accuracy    <     273.53627832 Ry

     iteration #  4     ecut=    40.00 Ry     beta=0.70
     Davidson diagonalization with overlap
     ethr =  3.53E-03,  avg # of iterations =  4.0

     negative rho (up, down):  0.236E+00 0.000E+00

     total cpu time spent up to now is     1586.0 secs

     total energy              =   -2206.03704986 Ry
     Harris-Foulkes estimate   =   -2208.78895705 Ry
     estimated scf accuracy    <      12.72946426 Ry

     iteration #  5     ecut=    40.00 Ry     beta=0.70
     Davidson diagonalization with overlap
     ethr =  3.53E-03,  avg # of iterations =  2.6

     negative rho (up, down):  0.236E+00 0.000E+00

     total cpu time spent up to now is     1837.8 secs

     total energy              =   -2207.16489938 Ry
     Harris-Foulkes estimate   =   -2207.48327947 Ry
     estimated scf accuracy    <       1.48010736 Ry

     iteration #  6     ecut=    40.00 Ry     beta=0.70
     Davidson diagonalization with overlap
     ethr =  6.04E-04,  avg # of iterations =  3.9

     negative rho (up, down):  0.238E+00 0.000E+00

     total cpu time spent up to now is     2100.3 secs

     total energy              =   -2207.22125068 Ry
     Harris-Foulkes estimate   =   -2207.39498939 Ry
     estimated scf accuracy    <       1.10386208 Ry

     iteration #  7     ecut=    40.00 Ry     beta=0.70
     Davidson diagonalization with overlap
     ethr =  4.51E-04,  avg # of iterations =  1.0

     negative rho (up, down):  0.239E+00 0.000E+00

     total cpu time spent up to now is     2337.4 secs

     total energy              =   -2207.26431248 Ry
     Harris-Foulkes estimate   =   -2207.33263334 Ry
     estimated scf accuracy    <       0.56309685 Ry

     iteration #  8     ecut=    40.00 Ry     beta=0.70
     Davidson diagonalization with overlap
     ethr =  2.30E-04,  avg # of iterations =  4.0

     negative rho (up, down):  0.242E+00 0.000E+00

     total cpu time spent up to now is     2588.6 secs

     total energy              =   -2207.26355608 Ry
     Harris-Foulkes estimate   =   -2207.31784587 Ry
     estimated scf accuracy    <       0.28521487 Ry

     iteration #  9     ecut=    40.00 Ry     beta=0.70
     Davidson diagonalization with overlap
     ethr =  1.16E-04,  avg # of iterations =  1.6

     negative rho (up, down):  0.243E+00 0.000E+00

     total cpu time spent up to now is     2826.8 secs

     total energy              =   -2207.26510154 Ry
     Harris-Foulkes estimate   =   -2207.30801780 Ry
     estimated scf accuracy    <       0.18977696 Ry

     iteration # 10     ecut=    40.00 Ry     beta=0.70
     Davidson diagonalization with overlap
     ethr =  7.75E-05,  avg # of iterations =  2.8

     negative rho (up, down):  0.244E+00 0.000E+00

     total cpu time spent up to now is     3070.4 secs

     total energy              =   -2207.27061414 Ry
     Harris-Foulkes estimate   =   -2207.29973695 Ry
     estimated scf accuracy    <       0.18134479 Ry

     iteration # 11     ecut=    40.00 Ry     beta=0.70
     Davidson diagonalization with overlap
     ethr =  7.40E-05,  avg # of iterations =  1.0

     negative rho (up, down):  0.244E+00 0.000E+00

     total cpu time spent up to now is     3305.5 secs

     total energy              =   -2207.28093176 Ry
     Harris-Foulkes estimate   =   -2207.29606704 Ry
     estimated scf accuracy    <       0.11382152 Ry

     iteration # 12     ecut=    40.00 Ry     beta=0.70
     Davidson diagonalization with overlap
     ethr =  4.65E-05,  avg # of iterations =  1.7

     negative rho (up, down):  0.245E+00 0.000E+00

     total cpu time spent up to now is     3544.9 secs

     total energy              =   -2207.28802170 Ry
     Harris-Foulkes estimate   =   -2207.29015774 Ry
     estimated scf accuracy    <       0.02634279 Ry

     iteration # 13     ecut=    40.00 Ry     beta=0.70
     Davidson diagonalization with overlap
     ethr =  1.08E-05,  avg # of iterations =  7.8

     negative rho (up, down):  0.245E+00 0.000E+00

     total cpu time spent up to now is     3812.2 secs

     total energy              =   -2207.28862270 Ry
     Harris-Foulkes estimate   =   -2207.28938428 Ry
     estimated scf accuracy    <       0.00293944 Ry

     iteration # 14     ecut=    40.00 Ry     beta=0.70
     Davidson diagonalization with overlap
     ethr =  1.20E-06,  avg # of iterations =  4.3

     negative rho (up, down):  0.245E+00 0.000E+00

     total cpu time spent up to now is     4069.1 secs

     total energy              =   -2207.28879662 Ry
     Harris-Foulkes estimate   =   -2207.28922452 Ry
     estimated scf accuracy    <       0.00157640 Ry

     iteration # 15     ecut=    40.00 Ry     beta=0.70
     Davidson diagonalization with overlap
     ethr =  6.43E-07,  avg # of iterations =  1.5

     negative rho (up, down):  0.245E+00 0.000E+00

     total cpu time spent up to now is     4309.9 secs

     total energy              =   -2207.28894275 Ry
     Harris-Foulkes estimate   =   -2207.28914398 Ry
     estimated scf accuracy    <       0.00174907 Ry

     iteration # 16     ecut=    40.00 Ry     beta=0.70
     Davidson diagonalization with overlap
     ethr =  6.43E-07,  avg # of iterations =  1.0

     negative rho (up, down):  0.245E+00 0.000E+00

     total cpu time spent up to now is     4543.7 secs

     total energy              =   -2207.28899182 Ry
     Harris-Foulkes estimate   =   -2207.28912958 Ry
     estimated scf accuracy    <       0.00090795 Ry

     iteration # 17     ecut=    40.00 Ry     beta=0.70
     Davidson diagonalization with overlap
     ethr =  3.71E-07,  avg # of iterations =  1.0

     negative rho (up, down):  0.245E+00 0.000E+00

     total cpu time spent up to now is     4774.3 secs

     total energy              =   -2207.28904008 Ry
     Harris-Foulkes estimate   =   -2207.28907763 Ry
     estimated scf accuracy    <       0.00022635 Ry

     iteration # 18     ecut=    40.00 Ry     beta=0.70
     Davidson diagonalization with overlap
     ethr =  9.24E-08,  avg # of iterations =  1.0

     negative rho (up, down):  0.245E+00 0.000E+00

     total cpu time spent up to now is     5004.4 secs

     total energy              =   -2207.28904984 Ry
     Harris-Foulkes estimate   =   -2207.28907527 Ry
     estimated scf accuracy    <       0.00021988 Ry

     iteration # 19     ecut=    40.00 Ry     beta=0.70
     Davidson diagonalization with overlap
     ethr =  8.97E-08,  avg # of iterations =  1.0

     negative rho (up, down):  0.245E+00 0.000E+00

     total cpu time spent up to now is     5237.9 secs

     total energy              =   -2207.28904967 Ry
     Harris-Foulkes estimate   =   -2207.28907952 Ry
     estimated scf accuracy    <       0.00029588 Ry

     iteration # 20     ecut=    40.00 Ry     beta=0.70
     Davidson diagonalization with overlap
     ethr =  8.97E-08,  avg # of iterations =  1.0

     negative rho (up, down):  0.245E+00 0.000E+00

     total cpu time spent up to now is     5471.6 secs

     total energy              =   -2207.28906327 Ry
     Harris-Foulkes estimate   =   -2207.28906532 Ry
     estimated scf accuracy    <       0.00000603 Ry

     iteration # 21     ecut=    40.00 Ry     beta=0.70
     Davidson diagonalization with overlap
     ethr =  2.46E-09,  avg # of iterations =  1.6

     negative rho (up, down):  0.245E+00 0.000E+00

     total cpu time spent up to now is     5705.4 secs

     total energy              =   -2207.28906222 Ry
     Harris-Foulkes estimate   =   -2207.28906663 Ry
     estimated scf accuracy    <       0.00002578 Ry

     iteration # 22     ecut=    40.00 Ry     beta=0.70
     Davidson diagonalization with overlap
     ethr =  2.46E-09,  avg # of iterations =  2.0

     negative rho (up, down):  0.245E+00 0.000E+00

     total cpu time spent up to now is     5940.1 secs

     total energy              =   -2207.28906301 Ry
     Harris-Foulkes estimate   =   -2207.28906553 Ry
     estimated scf accuracy    <       0.00001396 Ry

     iteration # 23     ecut=    40.00 Ry     beta=0.70
     Davidson diagonalization with overlap
     ethr =  2.46E-09,  avg # of iterations =  1.0

     negative rho (up, down):  0.245E+00 0.000E+00

     total cpu time spent up to now is     6170.4 secs

     total energy              =   -2207.28906297 Ry
     Harris-Foulkes estimate   =   -2207.28906636 Ry
     estimated scf accuracy    <       0.00001974 Ry

     iteration # 24     ecut=    40.00 Ry     beta=0.70
     Davidson diagonalization with overlap
     ethr =  2.46E-09,  avg # of iterations =  1.0

     negative rho (up, down):  0.245E+00 0.000E+00

     total cpu time spent up to now is     6402.3 secs

     End of self-consistent calculation
 --- enter write_ns ---
 LDA+U parameters:
U( 2)     =  2.00000000
alpha( 2) =  0.00000000
atom    3   Tr[ns(na)] =   6.54268
    eigenvalues: 
  0.547  0.573  0.616  0.765  0.771
    eigenvectors:
  0.009  0.347  0.002  0.596  0.047
  0.985  0.013  0.000  0.001  0.001
  0.000  0.001  0.981  0.002  0.016
  0.005  0.639  0.005  0.325  0.027
  0.001  0.000  0.012  0.078  0.909
    occupations:
  0.697 -0.007  0.010 -0.092 -0.000
 -0.007  0.548 -0.000  0.002 -0.006
  0.010 -0.000  0.618 -0.006  0.017
 -0.092  0.002 -0.006  0.641 -0.001
 -0.000 -0.006  0.017 -0.001  0.768
atom    4   Tr[ns(na)] =   6.52754
    eigenvalues: 
  0.564  0.602  0.629  0.696  0.774
    eigenvectors:
  0.000  0.983  0.000  0.001  0.016
  0.000  0.001  0.013  0.985  0.000
  0.000  0.000  0.987  0.013  0.000
  0.000  0.016  0.000  0.000  0.984
  1.000  0.000  0.000  0.000  0.000
    occupations:
  0.604  0.003  0.000 -0.021  0.001
  0.003  0.695  0.008 -0.000 -0.002
  0.000  0.008  0.630  0.000 -0.000
 -0.021 -0.000  0.000  0.771 -0.000
  0.001 -0.002 -0.000 -0.000  0.564
atom    9   Tr[ns(na)] =   6.52610
    eigenvalues: 
  0.597  0.610  0.613  0.707  0.736
    eigenvectors:
  0.255  0.000  0.001  0.005  0.738
  0.000  0.961  0.039  0.000  0.000
  0.005  0.037  0.903  0.054  0.000
  0.740  0.000  0.004  0.001  0.255
  0.000  0.002  0.053  0.939  0.006
    occupations:
  0.700  0.001 -0.001 -0.061  0.002
  0.001  0.610 -0.001 -0.001  0.000
 -0.001 -0.001  0.618 -0.001 -0.021
 -0.061 -0.001 -0.001  0.633 -0.002
  0.002  0.000 -0.021 -0.002  0.702
atom   10   Tr[ns(na)] =   6.50497
    eigenvalues: 
  0.485  0.542  0.650  0.741  0.835
    eigenvectors:
  0.999  0.000  0.000  0.001  0.000
  0.000  0.000  0.000  0.000  1.000
  0.000  0.000  0.995  0.004  0.000
  0.001  0.000  0.005  0.994  0.000
  0.000  1.000  0.000  0.000  0.000
    occupations:
  0.485  0.000 -0.002 -0.009  0.000
  0.000  0.835  0.001  0.000 -0.004
 -0.002  0.001  0.650  0.006 -0.000
 -0.009  0.000  0.006  0.740 -0.000
  0.000 -0.004 -0.000 -0.000  0.542
atom   16   Tr[ns(na)] =   6.54266
    eigenvalues: 
  0.547  0.573  0.616  0.765  0.770
    eigenvectors:
  0.009  0.348  0.002  0.580  0.062
  0.985  0.013  0.000  0.000  0.001
  0.000  0.001  0.982  0.001  0.016
  0.005  0.639  0.005  0.316  0.035
  0.001  0.000  0.011  0.102  0.885
    occupations:
  0.696  0.007  0.010 -0.092  0.000
  0.007  0.548 -0.000 -0.002 -0.006
  0.010 -0.000  0.619 -0.006 -0.016
 -0.092 -0.002 -0.006  0.641  0.001
  0.000 -0.006 -0.016  0.001  0.768
atom   17   Tr[ns(na)] =   6.52298
    eigenvalues: 
  0.565  0.602  0.616  0.705  0.774
    eigenvectors:
  0.000  0.986  0.000  0.001  0.013
  0.000  0.001  0.005  0.994  0.000
  0.000  0.000  0.994  0.005  0.000
  0.000  0.013  0.000  0.000  0.987
  1.000  0.000  0.000  0.000  0.000
    occupations:
  0.604  0.003  0.000 -0.019  0.000
  0.003  0.704  0.006 -0.000 -0.001
  0.000  0.006  0.617  0.001 -0.000
 -0.019 -0.000  0.001  0.772 -0.000
  0.000 -0.001 -0.000 -0.000  0.565
atom   22   Tr[ns(na)] =   6.52741
    eigenvalues: 
  0.596  0.609  0.612  0.707  0.739
    eigenvectors:
  0.255  0.002  0.001  0.004  0.738
  0.001  0.903  0.096  0.000  0.000
  0.006  0.089  0.849  0.055  0.000
  0.737  0.002  0.003  0.002  0.256
  0.000  0.004  0.050  0.939  0.005
    occupations:
  0.702 -0.001  0.000 -0.062  0.002
 -0.001  0.609  0.001  0.001  0.000
  0.000  0.001  0.617 -0.001  0.022
 -0.062  0.001 -0.001  0.633 -0.001
  0.002  0.000  0.022 -0.001  0.702
atom   23   Tr[ns(na)] =   6.57141
    eigenvalues: 
  0.555  0.587  0.608  0.753  0.782
    eigenvectors:
  0.000  0.000  0.960  0.003  0.037
  0.021  0.979  0.000  0.000  0.000
  0.000  0.000  0.010  0.942  0.049
  0.000  0.000  0.030  0.055  0.915
  0.979  0.021  0.000  0.000  0.000
    occupations:
  0.615  0.000 -0.015 -0.030 -0.000
  0.000  0.587 -0.001 -0.000 -0.005
 -0.015 -0.001  0.753  0.004  0.000
 -0.030 -0.000  0.004  0.775  0.000
 -0.000 -0.005  0.000  0.000  0.556
N of occupied +U levels =  52.2657519
 --- exit write_ns ---

          k = 0.0000 0.0000 0.0000 ( 29221 PWs)   bands (ev):

   -81.4295 -81.3562 -81.2685 -81.2093 -81.1253 -80.9747 -80.9193 -80.7901
   -43.6437 -43.5660 -43.3933 -43.3366 -43.3359 -43.2494 -43.2350 -43.1803
   -43.1573 -43.1385 -43.1300 -43.1015 -42.9927 -42.9569 -42.9017 -42.8520
   -42.8496 -42.8186 -42.7694 -42.7492 -42.7049 -42.6553 -42.3542 -42.2595
   -21.0309 -20.5950 -20.5403 -20.3373 -20.0849 -19.9635 -19.6846 -19.6785
   -19.6514 -19.5029 -19.4945 -19.4043 -19.2994 -19.2841 -19.1629 -18.9540
   -18.9315 -18.4347 -18.0963 -16.9806  -9.7003  -9.5418  -9.2069  -8.9205
    -8.5178  -8.4802  -8.1727  -8.0667  -7.9783  -7.9476  -7.7784  -7.6866
    -7.4964  -7.3413  -7.3167  -7.1994  -7.0942  -6.9477  -6.9088  -6.7296
    -6.6505  -6.3919  -6.3144  -5.7245  -5.7029  -5.6073  -5.5878  -5.5326
    -5.4242  -5.3769  -5.2221  -5.1744  -5.1219  -4.9412  -4.8603  -4.8136
    -4.5604  -4.4899  -4.4552  -4.3948  -4.3245  -4.1362  -4.0273  -3.8819
    -3.8788  -3.8034  -3.6831  -3.5715  -3.4199  -3.3931  -3.3291  -3.2997
    -3.2096  -3.1646  -3.0762  -2.9652  -2.8864  -2.8617  -2.7117  -2.6184
    -2.4403  -1.2028  -0.9338  -0.8598  -0.6168  -0.2559  -0.1618  -0.0970
     0.1102   0.2848   0.2974   0.4093   0.4635   0.8690   0.9835   1.0301
     1.3007   1.7271   1.7962   2.0887   2.7183   2.7975   2.9829   3.1758
     3.1910   3.2559   3.4763   3.7342   4.1491   4.2065   4.4295   4.5165
     4.6301   4.6623   4.8065   4.8362   4.8749   5.0157   5.0922   5.0995
     5.3434   5.4072   5.5705   6.1708   6.2395   6.3488   6.6505   6.9644
     7.4123   7.6491   7.7561   7.8993   7.9778   8.1151   8.1717   8.2478
     8.3075   8.5381   8.6658   8.7487   8.8720   8.9877   9.0250   9.1633
     9.1723   9.2941   9.3818   9.3927   9.5623   9.7680   9.8122   9.8344
     9.8979  10.0972  10.1051  10.2344  10.2721  10.3576  10.5415  10.6595
    10.6872  10.7614  10.8570  11.0025  11.0799  11.2619  11.3398  11.3775
    11.5361  11.6506  11.7707  11.8472  11.8596  11.9923  12.0636  12.1598
    12.1748  12.3618  12.5877  12.6479  12.7334  12.7513  12.8623  12.8978
    13.0118  13.0935  13.1413  13.1743  13.2547  13.2785  13.3049  13.3492
    13.4373  13.4646  13.5030  13.5645  13.5885  13.7435  13.7743  13.8764
    13.9311  13.9941  14.0325  14.0723  14.1308  14.1756  14.1934  14.3162
    14.3777  14.4612  14.5419  14.6567  14.8073  14.8572  14.9536  15.0562
    15.0684  15.1322  15.1909  15.2716  15.3684  15.4836  15.5086  15.5434
    15.7287  15.7735  15.8480  16.0184  16.0319  16.0906  16.1511  16.2434
    16.3782  16.5070  16.5768  16.6183  16.6379  16.8186  16.9096  16.9657
    17.0243  17.1182  17.2058  17.2674  17.3193  17.3342  17.4485  17.5348
    17.5926  17.6589  17.7313  17.9078  17.9184  17.9764  18.0669  18.2100
    18.3043  18.3932  18.4593  18.5664  18.6176  18.6276  18.8789  18.9058
    18.9380  18.9977  19.0080  19.2203  19.2644  19.2987  19.3321  19.4186
    19.5031  19.5793  19.7357  19.8372  19.9611  19.9774  20.0208  20.0794
    20.1150  20.1730  20.2060  20.2879  20.4304  20.4526  20.6162  20.6850
    20.7712  20.8291  20.9289  20.9331  21.0206  21.0623  21.1987  21.2186
    21.4252  21.4691  21.4784  21.5548  21.6405  21.7008  21.7620  21.7822
    21.9841  22.0418  22.0983  22.1404  22.1988  22.2296  22.2626  22.3821
    22.3997  22.4592  22.4679  22.4987  22.5644  22.5738  22.6116  22.7115
    22.7891  22.8230  22.8616  22.9118  23.0007  23.0568  23.0901  23.1187
    23.1301  23.1914  23.2227  23.2317  23.2900  23.4113  23.4691

          k = 0.0000 0.1914 0.0000 ( 29141 PWs)   bands (ev):

   -81.4295 -81.3563 -81.2684 -81.2094 -81.1253 -80.9745 -80.9193 -80.7901
   -43.6438 -43.5659 -43.3940 -43.3365 -43.3345 -43.2477 -43.2350 -43.1812
   -43.1563 -43.1378 -43.1294 -43.1016 -42.9927 -42.9568 -42.9040 -42.8520
   -42.8518 -42.8181 -42.7694 -42.7492 -42.7046 -42.6552 -42.3542 -42.2594
   -20.9604 -20.5397 -20.4281 -20.3227 -20.0838 -19.9539 -19.9429 -19.7904
   -19.6972 -19.6594 -19.5103 -19.4773 -19.3378 -19.0827 -18.9517 -18.9437
   -18.9275 -18.4331 -18.0962 -16.9792  -9.3524  -9.1625  -9.0624  -8.9309
    -8.7748  -8.4792  -8.4237  -8.3540  -8.2654  -8.1833  -8.1116  -7.8468
    -7.8044  -7.3529  -7.3254  -7.0547  -6.7126  -6.5829  -6.4538  -6.4001
    -6.3568  -6.2784  -6.0833  -5.9628  -5.8183  -5.7814  -5.6671  -5.6058
    -5.5523  -5.4335  -5.4176  -5.3775  -5.2347  -5.0722  -4.9061  -4.6374
    -4.5870  -4.4823  -4.4540  -4.3804  -4.1642  -4.1383  -3.9831  -3.8304
    -3.7999  -3.6901  -3.6050  -3.5597  -3.4934  -3.3824  -3.2873  -3.2453
    -3.2307  -3.1549  -3.0053  -2.9182  -2.8931  -2.8128  -2.7391  -2.6067
    -2.5154  -1.3325  -1.2463  -1.1708  -1.0090  -0.4982  -0.2465  -0.0799
     0.2034   0.6326   0.7903   0.8464   0.8679   0.9081   0.9751   1.0368
     1.3885   1.4175   1.7536   2.0723   2.5374   2.9657   3.1143   3.1687
     3.2407   3.4254   3.4525   3.7425   3.7843   4.1424   4.1713   4.2345
     4.2484   4.3682   4.4202   4.6679   4.9298   5.0987   5.1225   5.4176
     5.6242   5.8404   6.2865   6.3323   6.4706   6.5655   6.6436   6.7138
     6.9174   7.1168   7.2979   7.6191   7.7261   7.9435   7.9492   8.3231
     8.3360   8.3820   8.7102   8.8032   9.0324   9.2254   9.2417   9.4026
     9.4539   9.6105   9.6612   9.7039   9.7695   9.9672  10.0309  10.0619
    10.1759  10.2741  10.2812  10.3895  10.5186  10.5564  10.6908  10.7637
    10.8736  10.9114  10.9545  11.1125  11.2012  11.3246  11.4022  11.4971
    11.5210  11.6028  11.6270  11.8274  11.8652  11.9115  11.9592  11.9722
    12.0723  12.2128  12.3121  12.3344  12.3953  12.4732  12.4847  12.5379
    12.6249  12.7459  12.8430  12.9547  13.0194  13.1068  13.2274  13.2779
    13.2922  13.5083  13.6004  13.6241  13.7250  13.7772  13.8137  13.9090
    13.9259  14.0122  14.0556  14.1561  14.1949  14.2900  14.4223  14.4639
    14.5499  14.6162  14.6914  14.7088  14.7548  14.8676  14.9435  14.9472
    14.9828  15.1209  15.1585  15.2357  15.2837  15.3463  15.4737  15.5403
    15.6082  15.7080  15.7192  15.8341  15.8495  15.9430  15.9928  16.0663
    16.1714  16.3010  16.3965  16.5645  16.5844  16.7152  16.7940  16.8714
    17.0059  17.1380  17.2721  17.2997  17.3530  17.3699  17.4265  17.5466
    17.6171  17.8020  17.8323  17.9274  18.0398  18.0964  18.1609  18.2956
    18.3866  18.4325  18.6114  18.6418  18.7667  18.8589  18.9058  18.9226
    19.0347  19.0559  19.0754  19.1671  19.2471  19.2915  19.3635  19.4143
    19.4919  19.6142  19.6294  19.6518  19.6942  19.7341  19.8353  19.9646
    20.0486  20.1350  20.1908  20.2389  20.3405  20.3518  20.3642  20.4483
    20.6023  20.6273  20.6971  20.8500  20.8777  20.9158  21.0072  21.0325
    21.0726  21.1459  21.3177  21.4489  21.4850  21.5166  21.6028  21.6612
    21.6962  21.7400  21.7559  21.8591  21.9336  22.0449  22.1257  22.1892
    22.2138  22.3641  22.4021  22.4450  22.5168  22.5529  22.5742  22.6157
    22.6446  22.7493  22.8490  22.9576  23.0148  23.0800  23.2033  23.2577
    23.3129  23.3522  23.4432  23.5072  23.5721  23.6417  23.7668

          k = 0.0000-0.3828 0.0000 ( 29262 PWs)   bands (ev):

   -81.4294 -81.3564 -81.2683 -81.2094 -81.1253 -80.9744 -80.9194 -80.7902
   -43.6440 -43.5659 -43.3948 -43.3365 -43.3329 -43.2460 -43.2351 -43.1821
   -43.1554 -43.1372 -43.1287 -43.1017 -42.9928 -42.9569 -42.9065 -42.8542
   -42.8520 -42.8177 -42.7694 -42.7493 -42.7044 -42.6552 -42.3542 -42.2595
   -20.8912 -20.4788 -20.3549 -20.1590 -20.0986 -20.0382 -19.9358 -19.9066
   -19.7885 -19.7549 -19.6693 -19.5393 -19.4807 -18.9551 -18.9429 -18.8692
   -18.7504 -18.4326 -18.0962 -16.9778  -9.2541  -9.0076  -8.8927  -8.8117
    -8.6864  -8.6715  -8.5471  -8.4670  -8.3056  -8.1792  -8.1473  -7.8780
    -7.6160  -7.3454  -7.2644  -7.2386  -7.0891  -6.8839  -6.8535  -6.6290
    -6.3814  -6.0147  -5.8914  -5.8275  -5.7842  -5.7003  -5.4976  -5.4642
    -5.4474  -5.4056  -5.2898  -5.2705  -5.1448  -5.0882  -4.8561  -4.7688
    -4.6740  -4.6078  -4.5418  -4.1917  -4.0955  -3.9809  -3.8656  -3.8557
    -3.8199  -3.8106  -3.7608  -3.6704  -3.5235  -3.4991  -3.3629  -3.2653
    -3.1174  -2.9443  -2.9015  -2.8650  -2.8490  -2.8304  -2.6958  -2.5853
    -2.4721  -1.6810  -1.5175  -1.4302  -1.1900  -0.5642  -0.2904  -0.0183
     0.5657   0.7350   0.8027   1.0155   1.0189   1.1218   1.1711   1.2043
     1.3997   1.5324   1.5565   2.1767   2.3244   2.7432   2.7506   3.0862
     3.2607   3.3142   3.3845   3.7072   3.7619   3.9849   3.9954   4.2215
     4.3195   4.4990   4.7651   4.8660   5.0764   5.1021   5.1754   5.5053
     5.6307   5.7792   6.0812   6.2507   6.5263   6.5407   6.6141   6.7931
     6.9847   7.0351   7.1757   7.3086   7.4068   7.7680   7.7810   8.0746
     8.5233   8.6138   8.7143   8.7655   8.8597   9.0964   9.1698   9.3949
     9.6003   9.7425   9.9874  10.0366  10.1325  10.2794  10.3455  10.4977
    10.5275  10.6017  10.6381  10.6572  10.7741  10.8364  11.0095  11.0636
    11.0929  11.1254  11.2434  11.2675  11.3945  11.4047  11.4923  11.5482
    11.5748  11.6174  11.6319  11.6446  11.7043  11.7441  11.8164  11.9607
    12.0225  12.1162  12.1263  12.1520  12.2163  12.2515  12.3078  12.3542
    12.4534  12.5017  12.5725  12.6549  12.6724  12.8391  12.9508  13.0077
    13.0845  13.2387  13.2442  13.4132  13.5077  13.6002  13.6647  13.7278
    13.7669  13.7835  13.8974  13.9446  14.0257  14.0547  14.1399  14.2365
    14.3961  14.4483  14.4954  14.5588  14.6896  14.8035  14.8182  14.8573
    14.9331  15.1383  15.3045  15.4745  15.5962  15.6600  15.7364  15.7381
    15.9541  15.9839  15.9951  16.1987  16.2782  16.3627  16.5439  16.6156
    16.6334  16.7430  16.7855  16.8029  16.8587  16.8898  16.9418  17.0852
    17.1149  17.1260  17.1970  17.2005  17.3938  17.4035  17.4412  17.4786
    17.5446  17.5904  17.6613  17.7435  17.7696  17.8035  17.8924  17.9651
    18.0304  18.1328  18.2179  18.2765  18.3205  18.3645  18.4965  18.5155
    18.6306  18.6992  18.7067  18.7330  18.8558  18.9466  19.0269  19.1026
    19.1321  19.2235  19.3611  19.4643  19.5548  19.7547  19.8178  19.9273
    19.9615  20.0605  20.0902  20.1243  20.1850  20.2607  20.3512  20.4956
    20.5152  20.5554  20.7068  20.8402  20.8513  20.9084  20.9145  21.0546
    21.2188  21.3060  21.3318  21.3841  21.4480  21.5432  21.6248  21.7785
    21.8033  21.8320  21.9573  22.1484  22.1728  22.2084  22.2604  22.3437
    22.3801  22.4372  22.5375  22.6184  22.7171  22.8209  22.8654  22.8968
    22.9774  23.0854  23.1545  23.2104  23.2159  23.3341  23.3592  23.4371
    23.4586  23.5609  23.6048  23.6603  23.8181  23.9274  23.9536

          k = 0.2500 0.0000 0.0000 ( 29190 PWs)   bands (ev):

   -81.4206 -81.3588 -81.2579 -81.2148 -81.1221 -80.9636 -80.9245 -80.7881
   -43.5268 -43.4455 -43.3263 -43.3176 -43.3092 -43.2465 -43.2369 -43.2003
   -43.1713 -43.1333 -43.0802 -43.0180 -42.9826 -42.9720 -42.9088 -42.8903
   -42.8734 -42.8316 -42.8307 -42.7948 -42.7541 -42.7209 -42.4580 -42.3986
   -20.8654 -20.4547 -20.3971 -20.3157 -20.1027 -19.9214 -19.7537 -19.6227
   -19.5614 -19.5428 -19.5231 -19.4461 -19.4120 -19.3479 -19.2059 -19.0347
   -18.9901 -18.4690 -18.2152 -16.9806  -9.2999  -9.1793  -8.9156  -8.6012
    -8.5397  -8.3046  -8.0046  -7.8699  -7.8019  -7.7458  -7.7076  -7.5894
    -7.5256  -7.4901  -7.2846  -7.0874  -6.9723  -6.8198  -6.6773  -6.6337
    -6.5978  -6.4569  -6.3191  -6.2782  -6.0066  -5.9660  -5.7725  -5.5866
    -5.5497  -5.3943  -5.1676  -5.0477  -4.9812  -4.8866  -4.8076  -4.6925
    -4.6190  -4.5902  -4.5396  -4.4362  -4.3893  -4.3174  -4.2473  -4.1622
    -3.9212  -3.8784  -3.8153  -3.7033  -3.6258  -3.4953  -3.4508  -3.3966
    -3.1933  -3.1470  -3.0239  -2.8650  -2.7927  -2.7513  -2.5391  -2.4797
    -1.9573  -0.9924  -0.9163  -0.8455  -0.5993  -0.5378  -0.2971  -0.1913
     0.0129   0.0464   0.2716   0.4971   0.6851   0.7372   0.8276   1.0542
     1.1863   1.2272   1.5629   1.7090   1.7240   1.8202   2.0445   2.1370
     2.6558   3.4673   3.7723   4.1328   4.2046   4.2676   4.4030   4.4932
     4.5580   4.6925   4.8256   4.9182   4.9819   5.1005   5.2138   5.2282
     5.3637   5.7756   5.9142   6.2309   6.3904   6.5368   6.7066   7.0139
     7.2501   7.6313   7.6893   7.7090   8.0279   8.1520   8.2693   8.3337
     8.3416   8.4713   8.4999   8.6355   8.7195   8.8900   8.9785   9.0080
     9.1669   9.2286   9.3457   9.4664   9.5622   9.6195   9.7426   9.7866
     9.8947   9.9546  10.0465  10.1348  10.2477  10.3398  10.4227  10.5345
    10.6759  10.7765  10.8764  10.9713  11.0230  11.0396  11.1382  11.2719
    11.2869  11.3858  11.4565  11.5940  11.7020  11.9128  12.0308  12.0990
    12.2615  12.3822  12.4191  12.5126  12.5423  12.5970  12.7437  12.8045
    12.9768  13.0413  13.1626  13.2568  13.3228  13.3745  13.4439  13.5982
    13.6684  13.7220  13.8087  13.8120  13.8620  14.0156  14.0748  14.2161
    14.3062  14.3992  14.4676  14.5122  14.6351  14.6871  14.8253  14.8692
    14.9333  14.9553  14.9785  15.1940  15.2493  15.3456  15.3875  15.4958
    15.5623  15.6980  15.7361  15.8422  15.8632  15.9593  16.0351  16.1190
    16.1869  16.2437  16.3382  16.3651  16.4510  16.5401  16.6560  16.6958
    16.7727  16.8794  16.9741  16.9958  17.0948  17.2041  17.2237  17.2497
    17.2912  17.4143  17.4425  17.4992  17.5332  17.5961  17.6482  17.8069
    17.8291  17.8945  17.9820  18.0521  18.1002  18.1409  18.1884  18.2680
    18.3541  18.4040  18.4621  18.5595  18.6931  18.7421  18.8103  18.8895
    18.9477  19.0491  19.1764  19.2697  19.2905  19.3099  19.3775  19.4355
    19.5485  19.5690  19.6405  19.6676  19.7551  19.8440  19.8874  20.0003
    20.0217  20.1076  20.1530  20.2017  20.2487  20.3130  20.3874  20.4444
    20.4960  20.5468  20.5909  20.6508  20.7034  20.7720  20.8332  20.9255
    20.9334  21.0262  21.0840  21.1264  21.1882  21.2906  21.3923  21.4609
    21.4755  21.5947  21.6739  21.7925  21.8218  21.8785  21.9970  22.0342
    22.1434  22.2033  22.2619  22.2958  22.3152  22.3743  22.4002  22.4166
    22.5183  22.5864  22.6972  22.7869  22.8364  22.8657  22.9546  23.0027
    23.0862  23.1294  23.1470  23.2164  23.3017  23.3967  23.4663

          k = 0.2500 0.1914 0.0000 ( 29229 PWs)   bands (ev):

   -81.4205 -81.3589 -81.2578 -81.2148 -81.1221 -80.9634 -80.9245 -80.7881
   -43.5270 -43.4455 -43.3263 -43.3161 -43.3103 -43.2465 -43.2355 -43.1999
   -43.1698 -43.1333 -43.0803 -43.0177 -42.9826 -42.9720 -42.9098 -42.8913
   -42.8734 -42.8330 -42.8315 -42.7945 -42.7542 -42.7209 -42.4579 -42.3986
   -20.8095 -20.4011 -20.3542 -20.2485 -20.1055 -19.9373 -19.8773 -19.7992
   -19.6785 -19.5764 -19.5273 -19.4882 -19.3500 -19.2423 -19.1039 -19.0256
   -18.9847 -18.4688 -18.2162 -16.9793  -9.0033  -8.8431  -8.7650  -8.6802
    -8.5729  -8.3966  -8.3353  -8.3009  -7.9753  -7.8860  -7.8079  -7.6540
    -7.4608  -7.3551  -7.1952  -7.1360  -6.8857  -6.8076  -6.6599  -6.6241
    -6.5059  -6.3103  -6.1680  -6.0772  -5.8540  -5.8192  -5.6823  -5.5901
    -5.5090  -5.4169  -5.2667  -5.2151  -5.0685  -4.9703  -4.9185  -4.8374
    -4.7769  -4.7011  -4.6139  -4.5521  -4.4735  -4.3332  -4.2519  -4.0502
    -3.9677  -3.8401  -3.8261  -3.7047  -3.6245  -3.5281  -3.4696  -3.3567
    -3.3158  -3.0899  -3.0016  -2.8506  -2.7878  -2.6304  -2.3017  -2.0662
    -1.9336  -1.2348  -1.1340  -0.9573  -0.8979  -0.5912  -0.2171  -0.0740
     0.0983   0.3445   0.4817   0.6573   0.7290   0.7538   0.9584   1.0700
     1.2700   1.4231   1.4908   1.6252   1.7391   1.8817   1.9515   2.2330
     2.5196   3.5737   3.6383   3.7241   3.8019   3.9783   4.1041   4.3536
     4.4723   4.5173   4.7370   4.8685   4.9941   5.3657   5.4306   5.6685
     5.8364   5.9523   6.1164   6.2565   6.3859   6.5368   6.7479   6.9215
     7.0588   7.2289   7.4271   7.6090   7.7545   7.8584   8.0545   8.1757
     8.3008   8.3737   8.5296   8.7011   8.7195   8.7739   8.9887   9.0687
     9.1967   9.4614   9.5436   9.6179   9.6971   9.8356   9.8941   9.9641
    10.0064  10.0716  10.1682  10.1992  10.2671  10.4288  10.4571  10.5100
    10.5732  10.7222  10.9070  10.9758  11.0862  11.1604  11.3578  11.4353
    11.5029  11.6063  11.7318  11.8140  11.9377  12.0621  12.2351  12.3110
    12.4424  12.5541  12.6136  12.6733  12.7383  12.7929  12.8928  12.9482
    12.9651  13.0864  13.1983  13.2227  13.3762  13.4807  13.5491  13.6475
    13.7429  13.7882  13.8646  13.9072  13.9474  14.0566  14.0993  14.1549
    14.2170  14.2745  14.3884  14.4308  14.5231  14.5980  14.6201  14.6467
    14.7607  14.8112  14.8619  14.9273  14.9689  15.0326  15.1098  15.1876
    15.2289  15.2963  15.3626  15.5053  15.5397  15.6199  15.7116  15.8519
    15.9547  16.1120  16.1463  16.2061  16.2652  16.3498  16.4559  16.5044
    16.5547  16.6327  16.7478  16.7855  16.8611  16.9767  17.0295  17.1005
    17.1598  17.2708  17.3441  17.3914  17.4613  17.5377  17.5659  17.7374
    17.7962  17.8381  17.8967  17.9526  18.0352  18.1168  18.1827  18.2585
    18.3666  18.3927  18.4362  18.4877  18.5554  18.6359  18.6995  18.7823
    18.8392  18.9408  19.0179  19.0761  19.1198  19.2360  19.3195  19.4445
    19.5284  19.5753  19.6667  19.7426  19.8701  19.8902  20.0093  20.0917
    20.1403  20.2188  20.3139  20.4036  20.4543  20.5237  20.6129  20.6742
    20.7117  20.7723  20.8360  20.8802  20.9128  21.0276  21.0842  21.1584
    21.2050  21.2641  21.3285  21.4333  21.4726  21.5640  21.5869  21.6522
    21.7031  21.7913  21.8367  21.8800  21.9933  22.0277  22.1095  22.1683
    22.2333  22.2824  22.3502  22.4018  22.4329  22.4992  22.5460  22.5906
    22.6841  22.7167  22.7738  22.8098  22.8300  22.9024  22.9387  23.0317
    23.0847  23.1149  23.1395  23.1922  23.2519  23.3117  23.3758

          k = 0.2500-0.3828 0.0000 ( 29202 PWs)   bands (ev):

   -81.4205 -81.3590 -81.2577 -81.2148 -81.1221 -80.9633 -80.9245 -80.7881
   -43.5272 -43.4454 -43.3263 -43.3146 -43.3114 -43.2465 -43.2340 -43.1995
   -43.1684 -43.1333 -43.0803 -43.0173 -42.9826 -42.9721 -42.9122 -42.8909
   -42.8734 -42.8350 -42.8316 -42.7943 -42.7542 -42.7210 -42.4578 -42.3986
   -20.7563 -20.3512 -20.3163 -20.1838 -20.0331 -19.9158 -19.9104 -19.8354
   -19.8078 -19.7013 -19.6873 -19.4948 -19.4772 -19.1156 -19.0068 -18.9958
   -18.9289 -18.4694 -18.2176 -16.9779  -8.9400  -8.7591  -8.6667  -8.6401
    -8.5566  -8.3178  -8.1591  -8.1400  -8.0610  -7.8796  -7.7959  -7.7501
    -7.6940  -7.6763  -7.4144  -7.1867  -7.1630  -6.8872  -6.8144  -6.5580
    -6.1782  -6.0993  -5.9437  -5.8693  -5.7995  -5.7102  -5.6613  -5.5989
    -5.5100  -5.3831  -5.3455  -5.1770  -5.1489  -5.0505  -4.9805  -4.9357
    -4.9012  -4.7819  -4.7256  -4.6672  -4.5089  -4.2767  -4.1197  -4.0653
    -3.9320  -3.8988  -3.8180  -3.7627  -3.6598  -3.6429  -3.4554  -3.3290
    -3.1745  -3.0525  -2.9500  -2.8779  -2.7502  -2.6735  -2.1838  -1.9271
    -1.8156  -1.4541  -1.3054  -1.2664  -0.9495  -0.6433  -0.1452   0.0330
     0.3247   0.4490   0.7501   0.7819   0.9034   0.9395   1.0923   1.1362
     1.3561   1.3818   1.5897   1.7123   1.8217   1.8526   2.0415   2.3363
     2.4254   2.7329   2.8887   3.3066   3.5119   3.8397   4.1831   4.3068
     4.5725   4.6092   4.9351   5.1055   5.3489   5.4316   5.5606   5.7301
     5.9622   6.1038   6.1853   6.2559   6.4146   6.6083   6.7551   6.8731
     6.8986   6.9139   7.2207   7.3077   7.7239   7.7444   7.8338   8.1031
     8.1582   8.4116   8.4965   8.6566   8.7934   8.8355   9.0005   9.0235
     9.1111   9.2165   9.2935   9.4347   9.6010   9.7292   9.9035   9.9572
    10.1650  10.3013  10.4472  10.4875  10.5544  10.6363  10.7194  10.7556
    10.8683  10.9800  11.2338  11.2589  11.3504  11.4249  11.5499  11.6761
    11.8309  11.9542  12.0174  12.0705  12.1032  12.1888  12.2374  12.3392
    12.4686  12.4985  12.5155  12.6030  12.7011  12.7715  12.8465  12.9247
    13.0119  13.1156  13.1992  13.3237  13.4133  13.5245  13.6346  13.6594
    13.7599  13.8087  13.8568  13.9708  14.0160  14.0641  14.0927  14.1345
    14.1743  14.2146  14.2710  14.4013  14.4509  14.4678  14.5275  14.5919
    14.6374  14.6701  14.7209  14.7551  14.7674  14.8416  14.9229  14.9943
    15.0897  15.2123  15.3407  15.3793  15.4732  15.4954  15.5241  15.6016
    15.6906  15.7401  15.8609  15.9271  16.0462  16.1056  16.1413  16.1804
    16.2799  16.3308  16.4644  16.5458  16.6300  16.6668  16.7226  16.8636
    16.9154  16.9432  17.0773  17.1560  17.3086  17.4477  17.4866  17.5771
    17.6486  17.7555  17.7929  17.8148  17.8678  17.9210  18.0673  18.0998
    18.2249  18.2486  18.4067  18.5300  18.6013  18.7546  18.8486  18.9083
    19.0081  19.0703  19.1464  19.3710  19.4174  19.4571  19.5936  19.6466
    19.7339  19.7865  19.8452  19.9124  19.9744  20.0007  20.0778  20.1263
    20.1514  20.2864  20.3394  20.3738  20.4037  20.4682  20.5318  20.6878
    20.7020  20.8087  20.8686  20.9626  21.0218  21.0508  21.1532  21.2449
    21.2794  21.3284  21.4068  21.4119  21.5128  21.5495  21.6402  21.6926
    21.7131  21.7992  21.8417  21.8727  21.9444  22.0109  22.0541  22.1133
    22.1596  22.2398  22.3230  22.3408  22.3941  22.4918  22.5168  22.6218
    22.6374  22.6973  22.7313  22.8101  22.8689  22.9527  22.9952  23.0896
    23.1346  23.1913  23.3226  23.3881  23.4506  23.5205  23.5740

          k =-0.5000 0.0000 0.0000 ( 29180 PWs)   bands (ev):

   -81.4104 -81.3628 -81.2413 -81.2263 -81.1189 -80.9413 -80.9409 -80.7861
   -43.3126 -43.2909 -43.2637 -43.2426 -43.2370 -43.2106 -43.2053 -43.1997
   -43.1968 -43.1570 -43.1361 -43.1348 -43.0300 -43.0013 -42.9267 -42.9233
   -42.8620 -42.8615 -42.7919 -42.7800 -42.7402 -42.7149 -42.7138 -42.5901
   -20.4954 -20.4831 -20.3077 -20.1419 -20.0393 -19.9651 -19.9135 -19.7268
   -19.6704 -19.4917 -19.4733 -19.4702 -19.3233 -19.3123 -19.2801 -19.2451
   -19.0341 -18.5181 -18.3379 -16.9807  -8.5288  -8.4574  -8.4484  -8.4451
    -8.3665  -8.3422  -8.1948  -8.1871  -8.1202  -7.6134  -7.5809  -7.4505
    -7.3821  -7.3692  -7.1175  -7.0889  -6.9049  -6.8074  -6.5320  -6.3606
    -6.2350  -6.1283  -6.0899  -6.0430  -6.0253  -6.0168  -5.9670  -5.7351
    -5.4328  -5.3654  -5.3447  -5.3287  -5.2368  -5.2255  -5.1298  -5.0963
    -4.9979  -4.9087  -4.8104  -4.7819  -4.6535  -4.6446  -4.3770  -4.3598
    -4.0082  -3.9935  -3.7236  -3.6400  -3.5336  -3.4734  -3.3869  -3.2709
    -3.1950  -3.0577  -2.9737  -2.8631  -2.8583  -2.5995  -1.2155  -1.2027
    -1.1810  -1.0110  -0.8786  -0.8549  -0.7700  -0.6995  -0.6772  -0.6455
    -0.5418  -0.3189  -0.3166   0.0803   0.2174   0.2704   0.4639   0.5520
     0.6588   0.7254   1.1219   1.3784   1.4120   1.6055   1.9704   2.0588
     2.4934   3.7943   3.9651   4.0156   4.2752   4.3922   4.4087   4.5210
     4.6711   4.8041   4.8386   4.8791   4.9367   5.1233   5.2436   5.7288
     5.8702   6.0733   6.1694   6.1749   6.4511   6.6642   6.7789   6.8235
     6.9348   7.1683   7.3999   7.4063   7.7930   7.9605   7.9677   8.2338
     8.5365   8.5451   8.7251   8.9376   8.9946   9.1302   9.2054   9.2739
     9.2782   9.3272   9.3512   9.4085   9.4616   9.6650   9.7062   9.8068
     9.8161   9.8302   9.8592   9.9736   9.9920  10.0296  10.3556  10.4425
    10.5639  10.6318  10.6412  10.7386  10.7501  10.7781  10.7997  10.8825
    10.9670  11.2605  11.5187  11.5544  11.6526  11.7574  12.0130  12.0596
    12.0867  12.1777  12.2079  12.3399  12.3930  12.5618  12.8363  12.9751
    13.2007  13.2108  13.3194  13.4510  13.4780  13.5455  13.6298  13.7413
    13.8704  13.9047  13.9505  14.2188  14.4296  14.4720  14.5291  14.5549
    14.6710  14.7313  14.9506  15.0103  15.1171  15.2603  15.2993  15.3257
    15.4610  15.5476  15.5856  15.6077  15.6308  15.6907  15.7401  15.8255
    15.8903  16.0450  16.0910  16.2357  16.2985  16.3928  16.4182  16.4791
    16.5016  16.5737  16.6608  16.6952  16.7986  16.8786  16.9421  16.9884
    17.0508  17.1517  17.1830  17.2351  17.2859  17.4567  17.5198  17.5575
    17.5970  17.7089  17.7695  17.7964  17.9892  18.0948  18.1081  18.2621
    18.3027  18.3120  18.3236  18.3714  18.5425  18.5909  18.6422  18.6951
    18.7363  18.7471  18.8283  18.8742  18.9382  18.9807  19.0100  19.0723
    19.1104  19.1789  19.2280  19.3715  19.3832  19.4529  19.4739  19.5013
    19.5422  19.5662  19.6277  19.6413  19.7008  19.7377  19.7706  19.8116
    19.8237  19.8935  19.9133  19.9955  20.0292  20.0569  20.0660  20.1953
    20.2069  20.3114  20.3685  20.3831  20.4490  20.4909  20.6417  20.7066
    20.7397  20.7971  20.8824  20.9278  20.9572  20.9876  21.0618  21.0958
    21.1140  21.2020  21.2883  21.3058  21.3484  21.3800  21.4339  21.4646
    21.4770  21.5015  21.5876  21.7072  21.7624  21.9872  21.9958  22.0730
    22.1627  22.2449  22.3197  22.4032  22.4273  22.4694  22.5437  22.5825
    22.7483  22.7579  22.8654  22.9190  22.9500  22.9992  23.1090

          k =-0.5000 0.1914 0.0000 ( 29244 PWs)   bands (ev):

   -81.4104 -81.3628 -81.2412 -81.2262 -81.1189 -80.9412 -80.9408 -80.7861
   -43.3127 -43.2899 -43.2637 -43.2419 -43.2371 -43.2135 -43.2052 -43.2031
   -43.1890 -43.1571 -43.1362 -43.1348 -43.0300 -43.0014 -42.9267 -42.9233
   -42.8631 -42.8625 -42.7927 -42.7809 -42.7404 -42.7149 -42.7137 -42.5899
   -20.4781 -20.4718 -20.2955 -20.0962 -20.0179 -19.9187 -19.9029 -19.7854
   -19.7219 -19.5579 -19.4673 -19.4651 -19.3513 -19.3099 -19.2763 -19.2415
   -19.0304 -18.5207 -18.3381 -16.9794  -8.5452  -8.5079  -8.4112  -8.3906
    -8.3581  -8.3385  -8.2089  -8.1973  -8.1254  -7.5816  -7.4116  -7.2940
    -7.1986  -7.1782  -7.0844  -7.0478  -6.7936  -6.7412  -6.5299  -6.4600
    -6.4033  -6.3590  -6.3282  -6.3014  -6.1072  -5.9894  -5.9349  -5.6912
    -5.6482  -5.5618  -5.4692  -5.3917  -5.2564  -5.2387  -5.1300  -5.0720
    -4.9441  -4.9198  -4.8536  -4.7725  -4.6133  -4.5465  -4.4245  -4.2835
    -4.0424  -3.9536  -3.7382  -3.6480  -3.5873  -3.4532  -3.4139  -3.2921
    -3.2154  -3.1434  -2.8249  -2.7855  -2.7616  -2.6959  -1.3006  -1.1593
    -1.1082  -1.0064  -0.8728  -0.7494  -0.6781  -0.5963  -0.5329  -0.4034
    -0.3836  -0.2004  -0.1664   0.0998   0.2180   0.2657   0.4871   0.5291
     0.7945   0.8399   1.0887   1.3515   1.3758   1.5727   1.8002   2.1441
     2.4216   3.5561   3.5637   3.6803   3.7673   3.8392   4.0983   4.3530
     4.4445   4.9576   5.1298   5.3557   5.3649   5.4267   5.5813   5.7223
     5.8682   6.2066   6.3429   6.3469   6.5542   6.6095   6.8095   6.8255
     7.0199   7.1309   7.2108   7.4266   7.7503   7.8186   7.9435   7.9740
     8.0278   8.2214   8.3039   8.3618   8.5102   8.7112   8.7559   8.9624
     9.0482   9.1933   9.2539   9.4386   9.5343   9.6568   9.7116   9.7861
     9.8781  10.0322  10.2062  10.4905  10.5283  10.6247  10.6476  10.7311
    10.7966  10.9213  10.9666  11.0016  11.0479  11.1208  11.1746  11.2120
    11.3854  11.5586  11.6161  11.7950  11.8689  11.9085  12.0544  12.1083
    12.3013  12.4301  12.4686  12.5390  12.7570  12.8020  12.8550  12.9191
    13.0652  13.1531  13.4464  13.4849  13.5578  13.6064  13.8300  13.8641
    13.9449  14.0290  14.1822  14.2465  14.3629  14.4243  14.5090  14.5172
    14.7007  14.7287  14.7657  14.8421  14.8973  14.9517  15.0149  15.1023
    15.1614  15.2931  15.4014  15.5033  15.5329  15.6146  15.6712  15.7347
    15.7685  15.8719  15.9842  16.0407  16.0942  16.1478  16.1794  16.2431
    16.2604  16.4079  16.4292  16.4701  16.5813  16.6213  16.6785  16.7267
    16.8318  16.8901  16.9850  17.0079  17.1187  17.1497  17.1811  17.2050
    17.2736  17.3269  17.3647  17.4574  17.5106  17.6470  17.6778  17.7362
    17.8059  17.8327  17.9733  18.0017  18.0556  18.1465  18.2402  18.2832
    18.4019  18.4150  18.4339  18.5156  18.5332  18.6591  18.7204  18.8323
    18.9324  18.9848  19.0279  19.1194  19.2150  19.2841  19.3379  19.3606
    19.4836  19.5851  19.6258  19.7583  19.7982  19.8623  19.8778  19.9867
    20.0313  20.0864  20.1650  20.2037  20.2964  20.3568  20.4518  20.4859
    20.5784  20.7316  20.7680  20.8095  20.8488  20.9767  21.0535  21.0769
    21.1689  21.2105  21.2471  21.3273  21.4089  21.4177  21.4364  21.5615
    21.6025  21.6595  21.7018  21.7830  21.8132  21.8604  21.9048  21.9517
    22.0133  22.0310  22.0736  22.1054  22.2459  22.2676  22.3671  22.3901
    22.4339  22.4795  22.5438  22.5816  22.6759  22.7388  22.7467  22.7931
    22.8190  22.9059  22.9433  23.0011  23.0655  23.1083  23.1372

          k =-0.5000-0.3828 0.0000 ( 29192 PWs)   bands (ev):

   -81.4104 -81.3628 -81.2412 -81.2262 -81.1189 -80.9412 -80.9407 -80.7861
   -43.3127 -43.2890 -43.2637 -43.2411 -43.2373 -43.2160 -43.2049 -43.2032
   -43.1846 -43.1572 -43.1361 -43.1348 -43.0300 -43.0014 -42.9267 -42.9233
   -42.8641 -42.8633 -42.7934 -42.7818 -42.7405 -42.7148 -42.7137 -42.5897
   -20.4612 -20.4611 -20.2807 -19.9991 -19.9924 -19.9403 -19.8832 -19.7848
   -19.7832 -19.6654 -19.4620 -19.4617 -19.3809 -19.3080 -19.2730 -19.2385
   -19.0271 -18.5234 -18.3383 -16.9781  -8.5075  -8.4772  -8.4102  -8.3675
    -8.3596  -8.3327  -8.1901  -8.1828  -8.1177  -7.5784  -7.3143  -7.2225
    -7.0386  -7.0244  -6.9822  -6.9208  -6.7900  -6.7738  -6.7270  -6.6585
    -6.5435  -6.4599  -6.3833  -6.3063  -6.0625  -6.0070  -5.7795  -5.7408
    -5.6947  -5.6517  -5.6024  -5.4761  -5.4313  -5.3005  -5.1159  -5.0710
    -5.0247  -4.9472  -4.8661  -4.8491  -4.5040  -4.4518  -4.3859  -4.2468
    -4.1824  -3.9093  -3.8636  -3.7047  -3.6615  -3.4627  -3.3598  -3.2453
    -3.1616  -3.1106  -2.9231  -2.7292  -2.7011  -2.6424  -1.3358  -1.3038
    -1.2615  -1.0404  -0.9127  -0.8084  -0.7105  -0.5642  -0.4458  -0.0684
    -0.0060   0.0835   0.1418   0.3351   0.3483   0.4570   0.5194   0.7891
     0.9333   1.0161   1.0313   1.2774   1.4058   1.5797   1.6008   2.1973
     2.3405   2.8095   2.8146   2.9300   3.0383   3.8486   4.1674   4.4778
     4.5142   5.0714   5.3186   5.4530   5.4788   5.7975   5.9007   6.1508
     6.1874   6.2597   6.3732   6.3861   6.4122   6.5819   6.9001   6.9038
     7.0570   7.0743   7.2782   7.3628   7.4091   7.5482   7.5752   7.8865
     7.9014   8.0052   8.0320   8.2310   8.2981   8.4672   8.6504   8.8166
     8.8204   8.8580   8.9926   9.2998   9.3347   9.6824   9.7549   9.9654
    10.0036  10.0480  10.2050  10.4286  10.5676  10.6942  10.8336  11.0398
    11.0575  11.1433  11.2231  11.2961  11.3314  11.4480  11.6501  11.6682
    11.7788  11.9390  12.1194  12.1378  12.4128  12.4173  12.5441  12.6880
    12.7414  12.8730  12.9256  13.0445  13.0697  13.1494  13.2186  13.2350
    13.3249  13.3632  13.3862  13.4350  13.4641  13.4847  13.6571  13.7017
    13.7562  13.8208  13.8384  13.9534  14.0315  14.0972  14.2030  14.2380
    14.3366  14.4540  14.5222  14.5581  14.5949  14.6728  14.6765  14.7379
    14.7818  15.0583  15.1537  15.2005  15.2568  15.3375  15.3921  15.4265
    15.4872  15.6079  15.7115  15.7787  15.7931  15.8464  16.0527  16.0961
    16.1392  16.2666  16.2908  16.3687  16.3931  16.4880  16.5594  16.7253
    16.7382  16.7893  16.8264  16.9116  16.9988  17.0751  17.1229  17.1843
    17.3140  17.3397  17.3467  17.4816  17.5624  17.6583  17.6932  17.7127
    17.7397  17.7896  17.8218  17.8546  18.0436  18.0585  18.1548  18.1969
    18.2138  18.2321  18.2938  18.3193  18.3286  18.3554  18.3975  18.5930
    18.6067  18.6142  18.6329  18.7713  18.8604  18.9423  18.9993  19.0217
    19.1576  19.3239  19.4021  19.5315  19.5672  19.7323  19.7347  19.7862
    20.0021  20.0742  20.1686  20.2591  20.2944  20.3034  20.5715  20.6367
    20.6468  20.7347  20.7939  20.8604  20.8652  20.9731  21.2423  21.2522
    21.2836  21.3373  21.3768  21.5039  21.5344  21.7125  21.7321  21.8107
    21.8395  22.0602  22.0989  22.1103  22.1451  22.2309  22.2556  22.3200
    22.3419  22.3954  22.4426  22.4794  22.5287  22.7366  22.7827  22.8592
    22.8817  22.9530  22.9766  22.9971  23.1671  23.2099  23.3143  23.3263
    23.3940  23.4307  23.4499  23.5257  23.6154  23.6637  23.7088

          k =-0.2500 0.1914 0.0000 ( 29229 PWs)   bands (ev):

   -81.4205 -81.3589 -81.2578 -81.2148 -81.1221 -80.9634 -80.9245 -80.7881
   -43.5270 -43.4455 -43.3263 -43.3161 -43.3103 -43.2465 -43.2355 -43.1999
   -43.1698 -43.1333 -43.0803 -43.0177 -42.9826 -42.9720 -42.9110 -42.8901
   -42.8734 -42.8329 -42.8315 -42.7946 -42.7541 -42.7209 -42.4579 -42.3986
   -20.8095 -20.4014 -20.3539 -20.2484 -20.1054 -19.9362 -19.8771 -19.7998
   -19.6797 -19.5770 -19.5257 -19.4897 -19.3503 -19.2419 -19.1039 -19.0261
   -18.9835 -18.4688 -18.2162 -16.9793  -9.0004  -8.8440  -8.7635  -8.6819
    -8.5769  -8.3987  -8.3331  -8.3024  -7.9759  -7.8793  -7.8172  -7.6455
    -7.4672  -7.3616  -7.2114  -7.1190  -6.8780  -6.8116  -6.6509  -6.6229
    -6.4909  -6.2969  -6.1714  -6.0676  -5.8732  -5.8358  -5.6870  -5.6148
    -5.5045  -5.4254  -5.2396  -5.2067  -5.0675  -4.9760  -4.8920  -4.8786
    -4.7674  -4.6919  -4.6131  -4.5589  -4.4843  -4.3081  -4.2663  -4.0541
    -3.9483  -3.8383  -3.8140  -3.7400  -3.6833  -3.4911  -3.4351  -3.3303
    -3.3106  -3.1047  -3.0314  -2.8437  -2.7686  -2.6582  -2.3033  -2.0687
    -1.9340  -1.2380  -1.0922  -0.9517  -0.8931  -0.5963  -0.2384  -0.0859
     0.0911   0.3421   0.4643   0.6511   0.7177   0.7840   0.9741   1.0819
     1.2725   1.4225   1.4830   1.6234   1.7391   1.8795   1.9509   2.2336
     2.5187   3.5725   3.6414   3.7250   3.8037   3.9772   4.1000   4.3530
     4.4729   4.5192   4.7370   4.8680   4.9958   5.3657   5.4301   5.6706
     5.8388   5.9584   6.1200   6.2515   6.3860   6.5322   6.7435   6.9213
     7.0598   7.2293   7.4195   7.6211   7.7338   7.8533   8.0639   8.1719
     8.2985   8.3739   8.5407   8.6896   8.7132   8.7910   9.0102   9.0534
     9.1896   9.4622   9.5162   9.6468   9.6993   9.8491   9.8851   9.9736
    10.0090  10.0733  10.1552  10.1895  10.3023  10.4086  10.4752  10.5110
    10.5631  10.7006  10.8891  10.9929  11.1062  11.1731  11.3467  11.4590
    11.5041  11.5899  11.7227  11.8183  11.9262  12.0603  12.2209  12.3224
    12.4411  12.5499  12.6245  12.6571  12.7427  12.7870  12.8849  12.9465
    12.9702  13.0931  13.1974  13.2252  13.3757  13.4736  13.5527  13.6383
    13.7590  13.7740  13.8595  13.9049  13.9392  14.0462  14.0876  14.1529
    14.2226  14.2885  14.3949  14.4327  14.5396  14.5941  14.6229  14.6517
    14.7281  14.8130  14.8636  14.9296  14.9811  15.0476  15.1065  15.1806
    15.2326  15.2947  15.3989  15.5021  15.5628  15.6445  15.6893  15.8454
    15.9477  16.1024  16.1288  16.2126  16.2839  16.3485  16.4439  16.4868
    16.5651  16.6406  16.7478  16.7855  16.8380  16.9784  17.0152  17.1077
    17.1787  17.2784  17.3272  17.4007  17.4675  17.5289  17.5810  17.7194
    17.7924  17.8502  17.9194  17.9538  18.0409  18.1010  18.1463  18.2591
    18.3608  18.3783  18.4510  18.4932  18.5559  18.6236  18.7044  18.7740
    18.8373  18.9344  19.0148  19.0901  19.1224  19.2195  19.3183  19.4402
    19.5190  19.5576  19.6740  19.7377  19.8498  19.9107  20.0059  20.0859
    20.1546  20.2289  20.2976  20.3938  20.4607  20.5313  20.5888  20.6872
    20.7077  20.7881  20.8400  20.8960  20.9202  21.0122  21.0854  21.1567
    21.2296  21.2638  21.3198  21.4183  21.4804  21.5625  21.5894  21.6618
    21.7221  21.7936  21.8516  21.9008  21.9909  22.0344  22.1278  22.1774
    22.2540  22.2780  22.3736  22.3914  22.4390  22.5015  22.5332  22.5974
    22.6730  22.7246  22.7706  22.8054  22.8316  22.8924  22.9449  23.0212
    23.0917  23.1231  23.1519  23.1881  23.2463  23.3154  23.3672

     the Fermi energy is     0.3500 ev

!    total energy              =   -2207.28906388 Ry
     Harris-Foulkes estimate   =   -2207.28906474 Ry
     estimated scf accuracy    <       0.00000099 Ry

     The total energy is the sum of the following terms:

     one-electron contribution =  -24598.65835234 Ry
     hartree contribution      =   12319.17954298 Ry
     xc contribution           =    -601.90301854 Ry
     ewald contribution        =   10672.80590672 Ry
     Hubbard energy            =       1.28690554 Ry
     smearing contrib. (-TS)   =      -0.00004824 Ry

     convergence has been achieved in  24 iterations

     Forces acting on atoms (Ry/au):


     negative rho (up, down):  0.245E+00 0.000E+00
     atom    1 type  1   force =    -0.00649732   -0.00701822    0.00533815
     atom    2 type  1   force =     0.00006478    0.00600780    0.00221661
     atom    3 type  2   force =     0.01718053   -0.00277881   -0.00036846
     atom    4 type  2   force =     0.00148824    0.00757302    0.00208845
     atom    5 type  1   force =     0.00305086    0.00621616    0.00062743
     atom    6 type  1   force =     0.00164393   -0.00720513    0.00022136
     atom    7 type  1   force =    -0.00022375   -0.00252049    0.00001202
     atom    8 type  1   force =     0.00322475    0.00257795   -0.00692691
     atom    9 type  2   force =    -0.04125954   -0.00352032    0.00157263
     atom   10 type  2   force =    -0.00003590    0.00212656    0.00015746
     atom   11 type  1   force =    -0.02078494   -0.00670996   -0.00037954
     atom   12 type  1   force =    -0.01216218    0.01842982   -0.00059588
     atom   13 type  1   force =    -0.00020371   -0.00494747   -0.00079044
     atom   14 type  1   force =    -0.00346410   -0.00599558    0.00510557
     atom   15 type  1   force =    -0.00002221    0.00442936    0.00026905
     atom   16 type  2   force =    -0.01719230   -0.00264898   -0.00044501
     atom   17 type  2   force =     0.00206776    0.00757370   -0.00234166
     atom   18 type  1   force =     0.00018533    0.00612881    0.00064131
     atom   19 type  1   force =    -0.00115063   -0.00705732    0.00037725
     atom   20 type  1   force =    -0.00024340    0.00018325    0.00148543
     atom   21 type  1   force =     0.00262663    0.00201766   -0.00310500
     atom   22 type  2   force =     0.03775111   -0.00251224    0.00132530
     atom   23 type  2   force =     0.00026989   -0.00706636    0.00056290
     atom   24 type  1   force =     0.02084693   -0.00737761   -0.00042814
     atom   25 type  1   force =     0.01187233    0.01813003   -0.00064912
     atom   26 type  1   force =    -0.00077630   -0.01243621   -0.00135007
     atom   27 type  3   force =    -0.00001063   -0.00072366   -0.00061293
     atom   28 type  3   force =    -0.00000986   -0.00068350    0.00010761
     atom   29 type  3   force =     0.00105606    0.00011529    0.00044579
     atom   30 type  3   force =     0.00062635   -0.00002623    0.00065106
     atom   31 type  1   force =    -0.00002131   -0.00447956   -0.00239137
     atom   32 type  1   force =     0.00011407    0.00403353   -0.00317793
     atom   33 type  3   force =    -0.00001145    0.00016472    0.00035708

     Total force =     0.013947     Total SCF correction =     0.001905
     SCF correction compared to forces is large: reduce conv_thr to get better values


     entering subroutine stress ...


     negative rho (up, down):  0.245E+00 0.000E+00
          total   stress  (Ry/bohr**3)                   (kbar)     P=  -10.09
  -0.00005591   0.00000021   0.00000239         -8.22      0.03      0.35
   0.00000021  -0.00008177  -0.00000728          0.03    -12.03     -1.07
   0.00000239  -0.00000728  -0.00006800          0.35     -1.07    -10.00


     BFGS Geometry Optimization

     number of scf cycles    =   1
     number of bfgs steps    =   0

     energy   new            =   -2207.2890638827 Ry

     new trust radius        =       0.0069269077 bohr
     new conv_thr            =       0.0000010000 Ry


ATOMIC_POSITIONS (crystal)
O0       0.000000000   0.000000000   0.369804622    0   0   1
O0       0.000000000   0.500000000   0.382253443    0   0   1
Re1      0.250000000   0.500000000   0.442122779    0   0   1
Re1      0.000000000   0.000000000   0.442480931    0   0   1
O0       0.250000000   0.780000000   0.441072297    0   0   1
O0       0.250000000   0.220000000   0.440924338    0   0   1
O0       0.000000000   0.500000000   0.497710236    0   0   1
O0       0.000000000   0.000000000   0.513914240    0   0   1
Re1      0.250000000   0.000000000   0.573630822    0   0   1
Re1      0.000000000   0.500000000   0.567423086    0   0   1
O0       0.250000000   0.720000000   0.570862561    0   0   1
O0       0.250000000   0.280000000   0.573158321    0   0   1
O0       0.000000000   0.000000000   0.625634508    0   0   1
O0       0.500000000   0.000000000   0.369830063    0   0   1
O0       0.500000000   0.500000000   0.382545273    0   0   1
Re1      0.750000000   0.500000000   0.442121278    0   0   1
Re1      0.500000000   0.000000000   0.442134106    0   0   1
O0       0.750000000   0.780000000   0.441002569    0   0   1
O0       0.750000000   0.220000000   0.441007394    0   0   1
O0       0.500000000   0.500000000   0.498029113    0   0   1
O0       0.500000000   0.000000000   0.514089145    0   0   1
Re1      0.750000000   0.000000000   0.573505974    0   0   1
Re1      0.500000000   0.500000000   0.576081032    0   0   1
O0       0.750000000   0.720000000   0.570861609    0   0   1
O0       0.750000000   0.280000000   0.573147278    0   0   1
O0       0.500000000   0.000000000   0.624633540    0   0   1
H2      -0.000211050   0.625495296   0.365597987
H2       0.499639027   0.623748332   0.365052109
H2       0.167944262   0.025178715   0.355098737
H2       0.669811838   0.022298017   0.355452760
O0       0.499627896   0.526201377   0.641313132
O0       0.500301261   0.320994906   0.680677716
H2       0.499948869   0.396362451   0.711556998


     Check: negative starting charge=   -0.236968
     NEW-OLD atomic charge density approx. for the potential

     Check: negative/imaginary core charge=   -0.000003    0.000000
     Check: negative starting charge=   -0.236833

     negative rho (up, down):  0.245E+00 0.000E+00
 Atomic wfc used for LDA+U Projector are NOT orthogonalized

     total cpu time spent up to now is     7599.8 secs

     per-process dynamical memory:   452.9 Mb

     Self-consistent Calculation

     iteration #  1     ecut=    40.00 Ry     beta=0.70
     Davidson diagonalization with overlap
     ethr =  1.00E-06,  avg # of iterations =  2.3
 --- enter write_ns ---
 LDA+U parameters:
U( 2)     =  2.00000000
alpha( 2) =  0.00000000
atom    3   Tr[ns(na)] =   6.54559
    eigenvalues: 
  0.547  0.573  0.616  0.765  0.772
    eigenvectors:
  0.009  0.347  0.002  0.607  0.035
  0.985  0.013  0.000  0.001  0.001
  0.000  0.001  0.980  0.002  0.016
  0.005  0.639  0.005  0.331  0.020
  0.001  0.000  0.013  0.059  0.928
    occupations:
  0.697 -0.007  0.010 -0.092 -0.000
 -0.007  0.548 -0.000  0.002 -0.006
  0.010 -0.000  0.619 -0.006  0.018
 -0.092  0.002 -0.006  0.641 -0.001
 -0.000 -0.006  0.018 -0.001  0.769
atom    4   Tr[ns(na)] =   6.51734
    eigenvalues: 
  0.564  0.602  0.626  0.694  0.773
    eigenvectors:
  0.000  0.983  0.000  0.001  0.016
  0.000  0.001  0.012  0.986  0.000
  0.000  0.000  0.988  0.012  0.000
  0.000  0.016  0.000  0.000  0.984
  1.000  0.000  0.000  0.000  0.000
    occupations:
  0.605  0.003  0.000 -0.021  0.001
  0.003  0.693  0.007 -0.000 -0.002
  0.000  0.007  0.627  0.000 -0.000
 -0.021 -0.000  0.000  0.770 -0.000
  0.001 -0.002 -0.000 -0.000  0.564
atom    9   Tr[ns(na)] =   6.52865
    eigenvalues: 
  0.597  0.610  0.613  0.708  0.737
    eigenvectors:
  0.255  0.000  0.001  0.005  0.738
  0.000  0.966  0.033  0.000  0.000
  0.005  0.032  0.908  0.056  0.000
  0.740  0.000  0.004  0.001  0.255
  0.000  0.001  0.054  0.938  0.006
    occupations:
  0.701  0.001 -0.001 -0.061  0.002
  0.001  0.610 -0.001 -0.001  0.000
 -0.001 -0.001  0.618 -0.001 -0.022
 -0.061 -0.001 -0.001  0.633 -0.002
  0.002  0.000 -0.022 -0.002  0.703
atom   10   Tr[ns(na)] =   6.50991
    eigenvalues: 
  0.485  0.542  0.651  0.741  0.836
    eigenvectors:
  0.999  0.000  0.000  0.001  0.000
  0.000  0.000  0.000  0.000  1.000
  0.000  0.000  0.995  0.005  0.000
  0.001  0.000  0.005  0.994  0.000
  0.000  1.000  0.000  0.000  0.000
    occupations:
  0.485  0.000 -0.002 -0.009  0.000
  0.000  0.836  0.001  0.000 -0.004
 -0.002  0.001  0.651  0.006 -0.000
 -0.009  0.000  0.006  0.740 -0.000
  0.000 -0.004 -0.000 -0.000  0.542
atom   16   Tr[ns(na)] =   6.54436
    eigenvalues: 
  0.547  0.573  0.616  0.765  0.771
    eigenvectors:
  0.009  0.348  0.002  0.594  0.048
  0.985  0.013  0.000  0.001  0.001
  0.000  0.001  0.981  0.002  0.016
  0.005  0.639  0.005  0.324  0.027
  0.001  0.000  0.012  0.079  0.908
    occupations:
  0.697  0.007  0.010 -0.092  0.000
  0.007  0.548 -0.000 -0.002 -0.006
  0.010 -0.000  0.619 -0.006 -0.017
 -0.092 -0.002 -0.006  0.641  0.001
  0.000 -0.006 -0.017  0.001  0.768
atom   17   Tr[ns(na)] =   6.52382
    eigenvalues: 
  0.565  0.602  0.615  0.705  0.774
    eigenvectors:
  0.000  0.986  0.001  0.001  0.013
  0.000  0.001  0.005  0.994  0.000
  0.000  0.001  0.994  0.005  0.000
  0.000  0.013  0.000  0.000  0.987
  1.000  0.000  0.000  0.000  0.000
    occupations:
  0.605  0.003  0.000 -0.019  0.000
  0.003  0.705  0.006 -0.000 -0.001
  0.000  0.006  0.616  0.001 -0.000
 -0.019 -0.000  0.001  0.772 -0.000
  0.000 -0.001 -0.000 -0.000  0.565
atom   22   Tr[ns(na)] =   6.53367
    eigenvalues: 
  0.596  0.609  0.613  0.709  0.740
    eigenvectors:
  0.256  0.001  0.001  0.005  0.737
  0.001  0.927  0.072  0.000  0.000
  0.006  0.067  0.871  0.056  0.000
  0.737  0.002  0.003  0.002  0.257
  0.000  0.003  0.053  0.938  0.006
    occupations:
  0.703 -0.001  0.000 -0.063  0.002
 -0.001  0.609  0.001  0.001  0.000
  0.000  0.001  0.618 -0.001  0.022
 -0.063  0.001 -0.001  0.633 -0.001
  0.002  0.000  0.022 -0.001  0.704
atom   23   Tr[ns(na)] =   6.57115
    eigenvalues: 
  0.555  0.587  0.609  0.753  0.782
    eigenvectors:
  0.000  0.000  0.960  0.003  0.037
  0.021  0.979  0.000  0.000  0.000
  0.000  0.000  0.010  0.938  0.052
  0.000  0.000  0.030  0.059  0.911
  0.979  0.021  0.000  0.000  0.000
    occupations:
  0.615  0.000 -0.016 -0.030 -0.000
  0.000  0.586 -0.001 -0.000 -0.005
 -0.016 -0.001  0.753  0.004  0.000
 -0.030 -0.000  0.004  0.775  0.000
 -0.000 -0.005  0.000  0.000  0.556
N of occupied +U levels =  52.2744856
 --- exit write_ns ---

     negative rho (up, down):  0.245E+00 0.000E+00

     total cpu time spent up to now is     7873.6 secs

     total energy              =   -2207.28895808 Ry
     Harris-Foulkes estimate   =   -2207.28922122 Ry
     estimated scf accuracy    <       0.00031936 Ry

     iteration #  2     ecut=    40.00 Ry     beta=0.70
     Davidson diagonalization with overlap
     ethr =  1.30E-07,  avg # of iterations =  4.4

     negative rho (up, down):  0.245E+00 0.000E+00

     total cpu time spent up to now is     8140.3 secs

     total energy              =   -2207.28544576 Ry
     Harris-Foulkes estimate   =   -2207.29272904 Ry
     estimated scf accuracy    <       0.14936729 Ry

     iteration #  3     ecut=    40.00 Ry     beta=0.70
     Davidson diagonalization with overlap
     ethr =  1.30E-07,  avg # of iterations =  4.4

     negative rho (up, down):  0.245E+00 0.000E+00

     total cpu time spent up to now is     8405.1 secs

     total energy              =   -2207.28877449 Ry
     Harris-Foulkes estimate   =   -2207.28961873 Ry
     estimated scf accuracy    <       0.00964851 Ry

     iteration #  4     ecut=    40.00 Ry     beta=0.70
     Davidson diagonalization with overlap
     ethr =  1.30E-07,  avg # of iterations =  1.9

     negative rho (up, down):  0.245E+00 0.000E+00

     total cpu time spent up to now is     8644.4 secs

     total energy              =   -2207.28917675 Ry
     Harris-Foulkes estimate   =   -2207.28921748 Ry
     estimated scf accuracy    <       0.00018623 Ry

     iteration #  5     ecut=    40.00 Ry     beta=0.70
     Davidson diagonalization with overlap
     ethr =  7.60E-08,  avg # of iterations =  1.0

     negative rho (up, down):  0.245E+00 0.000E+00

     total cpu time spent up to now is     8877.1 secs

     total energy              =   -2207.28919284 Ry
     Harris-Foulkes estimate   =   -2207.28920720 Ry
     estimated scf accuracy    <       0.00007303 Ry

     iteration #  6     ecut=    40.00 Ry     beta=0.70
     Davidson diagonalization with overlap
     ethr =  2.98E-08,  avg # of iterations =  1.0

     negative rho (up, down):  0.245E+00 0.000E+00

[...]
    18.3001  18.3165  18.3258  18.3726  18.5334  18.5790  18.6290  18.6991
    18.7117  18.7303  18.8222  18.8731  18.9271  18.9479  18.9924  19.0888
    19.1218  19.1756  19.2348  19.3744  19.3855  19.4453  19.4713  19.4881
    19.5171  19.5430  19.6140  19.6358  19.6799  19.7269  19.7546  19.7947
    19.8238  19.8827  19.8988  19.9828  20.0201  20.0401  20.0641  20.1729
    20.1847  20.2897  20.3535  20.3754  20.4272  20.4846  20.6719  20.6832
    20.7207  20.8052  20.8835  20.9308  20.9644  20.9850  21.0582  21.1026
    21.1206  21.2016  21.2741  21.2853  21.3362  21.3650  21.4290  21.4701
    21.4769  21.5082  21.6074  21.7026  21.7699  21.9859  21.9957  22.0774
    22.1809  22.2642  22.3209  22.3956  22.4236  22.4625  22.5363  22.5978
    22.7578  22.7766  22.8655  22.9163  22.9537  23.0183  23.1176

          k =-0.5000 0.1914 0.0000 ( 29244 PWs)   bands (ev):

   -81.3228 -81.2881 -81.1379 -81.1199 -80.9836 -80.8454 -80.8451 -80.6869
   -43.2348 -43.2045 -43.2032 -43.1654 -43.1482 -43.1281 -43.1092 -43.0967
   -43.0782 -43.0536 -43.0291 -42.9883 -42.9269 -42.8957 -42.8372 -42.8338
   -42.7647 -42.7643 -42.6912 -42.6434 -42.6381 -42.6204 -42.6192 -42.4962
   -20.4166 -20.3987 -20.2141 -20.0331 -19.9481 -19.8843 -19.8124 -19.7758
   -19.6480 -19.6449 -19.3807 -19.3779 -19.2647 -19.2570 -19.2113 -19.1788
   -19.0560 -18.4228 -18.2513 -16.9695  -8.4665  -8.4390  -8.3293  -8.3174
    -8.2676  -8.2614  -8.1468  -8.1415  -8.0367  -7.5370  -7.3321  -7.2244
    -7.1122  -7.0900  -7.0185  -6.9815  -6.7577  -6.6975  -6.5027  -6.3835
    -6.3422  -6.2721  -6.2388  -6.2243  -6.0679  -5.9547  -5.8820  -5.6115
    -5.5695  -5.4764  -5.4238  -5.3155  -5.2129  -5.1799  -5.0843  -4.9949
    -4.9174  -4.8334  -4.7735  -4.6907  -4.5623  -4.5361  -4.3939  -4.2249
    -3.9773  -3.8864  -3.6735  -3.5676  -3.5011  -3.3734  -3.3337  -3.2164
    -3.1413  -3.0734  -2.7665  -2.7301  -2.7018  -2.6283  -1.2017  -1.0906
    -1.0195  -1.0061  -0.9019  -0.6709  -0.5962  -0.5184  -0.4494  -0.3215
    -0.3062  -0.1136  -0.0873   0.1832   0.3060   0.3648   0.5875   0.6229
     0.8934   0.9343   1.1648   1.4434   1.4616   1.7007   1.8899   2.2334
     2.6073   3.6417   3.6532   3.7974   3.8647   3.9272   4.1831   4.4560
     4.5458   5.0397   5.2104   5.4258   5.4313   5.5329   5.6732   5.8088
     5.9556   6.1078   6.3494   6.3522   6.5446   6.6918   6.8388   6.8514
     7.0281   7.1379   7.2187   7.4528   7.7507   7.8276   7.9454   7.9546
     8.0366   8.2083   8.2826   8.3461   8.5255   8.7122   8.7591   8.9832
     9.0680   9.2401   9.2985   9.4641   9.5556   9.6766   9.7214   9.7862
     9.9139  10.0765  10.2572  10.5162  10.5319  10.6746  10.6850  10.7882
    10.8275  10.9371  10.9865  11.0029  11.0481  11.0992  11.1812  11.2324
    11.3714  11.5586  11.6343  11.8131  11.8746  11.9459  12.0765  12.1181
    12.3079  12.4250  12.4708  12.5229  12.7668  12.8180  12.8744  12.9384
    13.1058  13.1813  13.4688  13.4998  13.5554  13.6214  13.8405  13.8818
    13.9711  14.0296  14.2283  14.2865  14.4154  14.4586  14.5906  14.6016
    14.7593  14.7901  14.8315  14.8726  14.9020  14.9618  15.0362  15.1275
    15.1904  15.3056  15.4144  15.5145  15.5397  15.6275  15.6896  15.7649
    15.7959  15.8938  16.0037  16.0708  16.0973  16.1712  16.1875  16.2490
    16.2876  16.4198  16.4621  16.4995  16.5996  16.6373  16.7177  16.7431
    16.8391  16.8725  16.9908  17.0191  17.1086  17.1500  17.1936  17.2170
    17.2981  17.3404  17.3687  17.4685  17.5402  17.6594  17.6980  17.7584
    17.8061  17.8421  17.9844  18.0110  18.0641  18.1474  18.2542  18.2786
    18.3895  18.4064  18.4264  18.4952  18.5157  18.6597  18.7096  18.8130
    18.9244  18.9685  19.0425  19.1289  19.2295  19.2855  19.3392  19.3703
    19.4793  19.5679  19.6331  19.7599  19.7862  19.8553  19.8977  19.9793
    20.0319  20.0914  20.1694  20.2168  20.3097  20.3590  20.4683  20.5040
    20.5905  20.7524  20.7903  20.8251  20.8662  20.9732  21.0670  21.0694
    21.1717  21.2174  21.2464  21.3191  21.3840  21.4254  21.4461  21.5473
    21.6013  21.6539  21.7066  21.7817  21.8003  21.8508  21.8949  21.9466
    22.0043  22.0182  22.0644  22.1042  22.2385  22.2682  22.3574  22.3839
    22.4306  22.4939  22.5597  22.5881  22.6845  22.7494  22.7659  22.8077
    22.8214  22.9001  22.9510  22.9991  23.0647  23.1270  23.1381

          k =-0.5000-0.3828 0.0000 ( 29192 PWs)   bands (ev):

   -81.3229 -81.2881 -81.1378 -81.1198 -80.9836 -80.8453 -80.8451 -80.6869
   -43.2349 -43.2042 -43.2025 -43.1646 -43.1483 -43.1280 -43.1106 -43.0974
   -43.0743 -43.0537 -43.0291 -42.9882 -42.9269 -42.8957 -42.8372 -42.8338
   -42.7657 -42.7651 -42.6919 -42.6436 -42.6390 -42.6203 -42.6191 -42.4960
   -20.4022 -20.3884 -20.1957 -19.9308 -19.9283 -19.8918 -19.8086 -19.7937
   -19.7015 -19.6970 -19.3784 -19.3767 -19.3085 -19.2856 -19.2082 -19.1760
   -19.0464 -18.4249 -18.2515 -16.9680  -8.4294  -8.4031  -8.3247  -8.3125
    -8.2797  -8.2493  -8.1247  -8.1207  -8.0282  -7.5319  -7.2441  -7.1640
    -6.9513  -6.9307  -6.9006  -6.8537  -6.7173  -6.7006  -6.6463  -6.5612
    -6.5271  -6.4170  -6.3803  -6.2315  -6.0489  -5.9375  -5.7144  -5.6657
    -5.6231  -5.5662  -5.5325  -5.4003  -5.3703  -5.2211  -5.0871  -5.0287
    -4.9488  -4.8708  -4.7931  -4.7685  -4.5006  -4.4674  -4.3160  -4.1784
    -4.1043  -3.8358  -3.8024  -3.6268  -3.5697  -3.3791  -3.2844  -3.1709
    -3.0927  -3.0334  -2.8644  -2.6894  -2.6342  -2.5783  -1.2331  -1.2145
    -1.1687  -1.0478  -0.9437  -0.7432  -0.6359  -0.5002  -0.3623   0.0143
     0.0771   0.1698   0.2204   0.4210   0.4355   0.5575   0.6287   0.8832
     1.0142   1.1184   1.1327   1.3753   1.4997   1.6775   1.6804   2.2864
     2.5405   2.8989   2.8991   3.0466   3.1352   3.9371   4.2514   4.5809
     4.6155   5.1556   5.3877   5.5426   5.5706   5.8793   5.9764   6.2323
     6.2754   6.3019   6.3406   6.4305   6.4476   6.6306   6.8951   6.9011
     7.0313   7.0549   7.2492   7.3277   7.3690   7.5187   7.5661   7.8592
     7.8709   8.0185   8.0594   8.2863   8.3213   8.5273   8.6809   8.8132
     8.8396   8.8615   9.0279   9.3254   9.3597   9.7328   9.7470   9.9566
    10.0433  10.0995  10.2320  10.4349  10.6126  10.7342  10.8729  11.1101
    11.1317  11.1841  11.2645  11.3360  11.3774  11.4683  11.6644  11.6802
    11.7732  11.9829  12.1635  12.1688  12.3971  12.4497  12.5530  12.7024
    12.7432  12.8957  12.9312  13.0465  13.0684  13.1426  13.2082  13.2172
    13.3538  13.3626  13.3803  13.4384  13.4538  13.4887  13.6547  13.6914
    13.7716  13.8138  13.8415  13.9454  14.0723  14.1200  14.2426  14.2786
    14.3413  14.4266  14.5163  14.6206  14.6346  14.7069  14.7256  14.7513
    14.8321  15.0795  15.1651  15.2206  15.2769  15.3707  15.4158  15.4450
    15.5133  15.6339  15.7244  15.7954  15.7978  15.8807  16.0858  16.1337
    16.1678  16.2885  16.3295  16.3911  16.4069  16.5075  16.5755  16.7556
    16.7685  16.8224  16.8329  16.9550  17.0221  17.0758  17.0974  17.1785
    17.3198  17.3508  17.3672  17.4761  17.5537  17.6451  17.6873  17.7115
    17.7249  17.7870  17.8371  17.8435  18.0558  18.0698  18.1819  18.2040
    18.2389  18.2587  18.3088  18.3406  18.3534  18.3658  18.4231  18.5962
    18.6011  18.6091  18.6169  18.7376  18.8760  18.9481  18.9898  19.0254
    19.1574  19.3229  19.4199  19.5233  19.5517  19.7259  19.7344  19.8061
    20.0075  20.0681  20.1680  20.2430  20.2875  20.3013  20.5870  20.6308
    20.6552  20.7326  20.7910  20.8792  20.8810  20.9691  21.2463  21.2528
    21.3060  21.3368  21.3868  21.5268  21.5922  21.7258  21.8005  21.8531
    21.8632  22.0801  22.1090  22.1458  22.1896  22.2654  22.3026  22.3331
    22.3491  22.3791  22.4629  22.5124  22.5503  22.7457  22.8265  22.8914
    22.9077  22.9801  23.0016  23.0104  23.1847  23.2321  23.3094  23.3486
    23.3832  23.4534  23.4644  23.5532  23.6466  23.6931  23.6972

          k =-0.2500 0.1914 0.0000 ( 29229 PWs)   bands (ev):

   -81.3348 -81.2824 -81.1535 -81.1094 -80.9870 -80.8677 -80.8288 -80.6888
   -43.4429 -43.3394 -43.2528 -43.2332 -43.2013 -43.1826 -43.1316 -43.1214
   -43.0655 -42.9879 -42.9767 -42.9257 -42.8808 -42.8796 -42.8263 -42.7929
   -42.7837 -42.7332 -42.7167 -42.6880 -42.6468 -42.6011 -42.3597 -42.3046
   -20.7380 -20.3321 -20.2874 -20.1758 -20.0221 -19.8780 -19.8002 -19.7541
   -19.7049 -19.6108 -19.4908 -19.4111 -19.2666 -19.1547 -19.0547 -18.9773
   -18.9578 -18.3786 -18.1299 -16.9693  -8.9238  -8.7584  -8.6717  -8.6244
    -8.5363  -8.3095  -8.2582  -8.2363  -7.8930  -7.7989  -7.7343  -7.5752
    -7.4066  -7.2992  -7.1662  -7.0640  -6.7967  -6.7441  -6.5784  -6.5411
    -6.4243  -6.2907  -6.1015  -6.0035  -5.8077  -5.7605  -5.6600  -5.5460
    -5.4531  -5.3642  -5.1802  -5.1560  -4.9936  -4.9040  -4.8517  -4.7917
    -4.6892  -4.6308  -4.5811  -4.4958  -4.4296  -4.2568  -4.1895  -3.9912
    -3.8783  -3.7714  -3.7473  -3.6719  -3.6153  -3.4225  -3.3612  -3.2546
    -3.2349  -3.0416  -2.9665  -2.7788  -2.7079  -2.5862  -2.2194  -1.9786
    -1.8571  -1.2260  -1.0251  -0.9171  -0.8631  -0.5723  -0.1602   0.0027
     0.1921   0.4325   0.5630   0.7559   0.8142   0.8844   1.0836   1.1750
     1.3636   1.5088   1.5715   1.7095   1.8300   1.9782   2.0612   2.3381
     2.6744   3.6601   3.7225   3.8339   3.8902   4.0759   4.1981   4.4444
     4.5593   4.6229   4.8262   4.9602   5.0624   5.3769   5.3995   5.7439
     5.8858   5.9761   6.1720   6.3022   6.4733   6.5994   6.7466   6.9368
     7.0933   7.2090   7.4307   7.6119   7.7697   7.8464   8.0450   8.1739
     8.3153   8.4174   8.6022   8.6984   8.7161   8.8065   9.0425   9.1041
     9.2088   9.4571   9.5298   9.6670   9.7241   9.8692   9.9126   9.9771
    10.0100  10.0784  10.1652  10.2166  10.3490  10.4330  10.5180  10.5439
    10.5744  10.7011  10.9092  11.0060  11.1320  11.1872  11.3787  11.4749
    11.5388  11.5953  11.7359  11.8220  11.9498  12.0659  12.2463  12.3546
    12.4596  12.5652  12.6391  12.6646  12.7427  12.8085  12.8920  12.9436
    12.9813  13.1073  13.2062  13.2467  13.3972  13.4891  13.5751  13.6702
    13.7540  13.7978  13.8845  13.9232  13.9664  14.0654  14.1152  14.1726
    14.2642  14.3244  14.4178  14.4350  14.5481  14.6111  14.6439  14.6863
    14.7495  14.8169  14.8694  14.9411  14.9894  15.0503  15.1030  15.1874
    15.2390  15.3218  15.4038  15.4883  15.5874  15.6626  15.7041  15.8625
    15.9647  16.1003  16.1348  16.2132  16.2973  16.3541  16.4424  16.4902
    16.5758  16.6633  16.7568  16.8038  16.8624  16.9871  17.0303  17.1420
    17.1897  17.2875  17.3406  17.3969  17.4640  17.5380  17.5979  17.7216
    17.7936  17.8415  17.9155  17.9652  18.0491  18.0975  18.1692  18.2857
    18.3586  18.4027  18.4637  18.5254  18.5664  18.6427  18.7080  18.7857
    18.8468  18.9397  19.0393  19.0995  19.1366  19.2186  19.3332  19.4435
    19.5400  19.5628  19.6679  19.7469  19.8453  19.9292  20.0077  20.0883
    20.1679  20.2684  20.3233  20.4101  20.4691  20.5492  20.5955  20.6872
    20.7246  20.8176  20.8576  20.8905  20.9165  21.0047  21.0883  21.1749
    21.2217  21.2697  21.3210  21.4112  21.4955  21.5736  21.5880  21.6843
    21.7258  21.8007  21.8613  21.9126  22.0054  22.0412  22.1203  22.1839
    22.2587  22.2987  22.3781  22.3981  22.4501  22.4987  22.5364  22.6023
    22.6850  22.7255  22.7856  22.8047  22.8363  22.9221  22.9501  23.0058
    23.1023  23.1357  23.1647  23.1878  23.2614  23.3295  23.3733

     the Fermi energy is     0.4433 ev

!    total energy              =   -2207.28958868 Ry
     Harris-Foulkes estimate   =   -2207.28958869 Ry
     estimated scf accuracy    <          7.4E-09 Ry

     The total energy is the sum of the following terms:

     one-electron contribution =  -24651.41520476 Ry
     hartree contribution      =   12346.24277002 Ry
     xc contribution           =    -601.95830593 Ry
     ewald contribution        =   10698.55568783 Ry
     Hubbard energy            =       1.28567914 Ry
     smearing contrib. (-TS)   =      -0.00021498 Ry

     convergence has been achieved in  15 iterations

     Forces acting on atoms (Ry/au):


     negative rho (up, down):  0.245E+00 0.000E+00
     atom    1 type  1   force =    -0.00549042   -0.00678245    0.00009958
     atom    2 type  1   force =     0.00003756    0.00452858    0.00011875
     atom    3 type  2   force =     0.01772328   -0.00237239   -0.00030209
     atom    4 type  2   force =     0.00104854    0.00727691    0.00097219
     atom    5 type  1   force =     0.00305850    0.00690012   -0.00010467
     atom    6 type  1   force =     0.00157258   -0.00791511   -0.00015211
     atom    7 type  1   force =    -0.00031343   -0.00253365   -0.00006537
     atom    8 type  1   force =     0.00334225    0.00254836    0.00071868
     atom    9 type  2   force =    -0.04026390   -0.00376149    0.00007115
     atom   10 type  2   force =    -0.00010645    0.00221056   -0.00016220
     atom   11 type  1   force =    -0.02092988   -0.00568507   -0.00008490
     atom   12 type  1   force =    -0.01232519    0.01736394   -0.00021493
     atom   13 type  1   force =    -0.00018075   -0.00460105   -0.00035372
     atom   14 type  1   force =    -0.00303280   -0.00603493    0.00024581
     atom   15 type  1   force =    -0.00002944    0.00378125   -0.00046336
     atom   16 type  2   force =    -0.01759600   -0.00241017   -0.00028263
     atom   17 type  2   force =     0.00177171    0.00740018   -0.00027736
     atom   18 type  1   force =     0.00022205    0.00681972   -0.00010843
     atom   19 type  1   force =    -0.00113630   -0.00779030   -0.00014012
     atom   20 type  1   force =    -0.00042421    0.00051330    0.00005808
     atom   21 type  1   force =     0.00252978    0.00194684    0.00062718
     atom   22 type  2   force =     0.03668724   -0.00227116    0.00013303
     atom   23 type  2   force =     0.00057678   -0.00817952    0.00063416
     atom   24 type  1   force =     0.02070111   -0.00672953   -0.00005092
     atom   25 type  1   force =     0.01217547    0.01684610   -0.00013233
     atom   26 type  1   force =    -0.00072988   -0.01205771   -0.00020036
     atom   27 type  3   force =     0.00000596    0.00006144    0.00017040
     atom   28 type  3   force =     0.00000021    0.00007893   -0.00009266
     atom   29 type  3   force =     0.00054645    0.00010439   -0.00062532
     atom   30 type  3   force =     0.00037339    0.00015806   -0.00048821
     atom   31 type  1   force =    -0.00007678   -0.00020344    0.00038005
     atom   32 type  1   force =     0.00024596    0.00065163    0.00002327
     atom   33 type  3   force =     0.00001661    0.00013769    0.00004936

     Total force =     0.002239     Total SCF correction =     0.000451
     SCF correction compared to forces is large: reduce conv_thr to get better values


     entering subroutine stress ...


     negative rho (up, down):  0.245E+00 0.000E+00
          total   stress  (Ry/bohr**3)                   (kbar)     P=   -8.66
  -0.00005552  -0.00000012   0.00000224         -8.17     -0.02      0.33
  -0.00000012  -0.00007691  -0.00000778         -0.02    -11.31     -1.15
   0.00000224  -0.00000778  -0.00004412          0.33     -1.15     -6.49


     bfgs converged in  14 scf cycles and  13 bfgs steps
     (criteria: energy < 0.10E-03, force < 0.10E-02)

     End of BFGS Geometry Optimization

     Final energy   =   -2207.2895886799 Ry
Begin final coordinates

ATOMIC_POSITIONS (crystal)
O0       0.000000000   0.000000000   0.370253168    0   0   1
O0       0.000000000   0.500000000   0.382457821    0   0   1
Re1      0.250000000   0.500000000   0.442194401    0   0   1
Re1      0.000000000   0.000000000   0.442756356    0   0   1
O0       0.250000000   0.780000000   0.441333850    0   0   1
O0       0.250000000   0.220000000   0.441139256    0   0   1
O0       0.000000000   0.500000000   0.497722294    0   0   1
O0       0.000000000   0.000000000   0.513930031    0   0   1
Re1      0.250000000   0.000000000   0.573723851    0   0   1
Re1      0.000000000   0.500000000   0.567427507    0   0   1
O0       0.250000000   0.720000000   0.570897522    0   0   1
O0       0.250000000   0.280000000   0.573093547    0   0   1
O0       0.000000000   0.000000000   0.625762170    0   0   1
O0       0.500000000   0.000000000   0.370208557    0   0   1
O0       0.500000000   0.500000000   0.382616937    0   0   1
Re1      0.750000000   0.500000000   0.442189089    0   0   1
Re1      0.500000000   0.000000000   0.442455894    0   0   1
O0       0.750000000   0.780000000   0.441268640    0   0   1
O0       0.750000000   0.220000000   0.441238734    0   0   1
O0       0.500000000   0.500000000   0.498025784    0   0   1
O0       0.500000000   0.000000000   0.514161624    0   0   1
Re1      0.750000000   0.000000000   0.573554302    0   0   1
Re1      0.500000000   0.500000000   0.575392736    0   0   1
O0       0.750000000   0.720000000   0.570861781    0   0   1
O0       0.750000000   0.280000000   0.573063329    0   0   1
O0       0.500000000   0.000000000   0.624792350    0   0   1
H2      -0.000249753   0.624428312   0.365334933
H2       0.499577634   0.623741788   0.365137901
H2       0.168301365   0.024807641   0.355780633
H2       0.670193447   0.021790401   0.356072254
O0       0.499315847   0.526196746   0.641110658
O0       0.501383012   0.326250088   0.678783658
H2       0.499898321   0.399533383   0.709988432
End final coordinates



     init_run     :    150.33s CPU    158.83s WALL (       1 calls)
     electrons    :  53879.03s CPU  55225.16s WALL (      14 calls)
     update_pot   :    250.32s CPU    255.87s WALL (      13 calls)
     forces       :   2659.62s CPU   2718.22s WALL (      14 calls)
     stress       :  13458.21s CPU  13959.90s WALL (      14 calls)

     Called by init_run:
     wfcinit      :     38.92s CPU     43.07s WALL (       1 calls)
     potinit      :      6.90s CPU      7.17s WALL (       1 calls)

     Called by electrons:
     c_bands      :  22602.33s CPU  23299.86s WALL (     225 calls)
     sum_band     :  11909.64s CPU  12203.25s WALL (     225 calls)
     v_of_rho     :    231.57s CPU    254.12s WALL (     232 calls)
     newd         :  20269.46s CPU  20428.88s WALL (     232 calls)
     mix_rho      :     39.91s CPU     41.02s WALL (     225 calls)

     Called by c_bands:
     init_us_2    :     76.65s CPU     77.72s WALL (    1899 calls)
     cegterg      :  22136.47s CPU  22748.70s WALL (     675 calls)

     Called by *egterg:
     h_psi        :  13120.32s CPU  13524.72s WALL (    1793 calls)
     s_psi        :   1974.82s CPU   1995.53s WALL (    2255 calls)
     g_psi        :     25.64s CPU     25.66s WALL (    1115 calls)
     cdiaghg      :   1845.26s CPU   1849.62s WALL (    1730 calls)

     Called by h_psi:
     add_vuspsi   :   1508.91s CPU   1526.88s WALL (    1793 calls)
     vhpsi        :   1263.97s CPU   1284.67s WALL (    1793 calls)

     General routines
     calbec       :   4366.56s CPU   4443.63s WALL (   18754 calls)
     fft          :    326.54s CPU    425.07s WALL (    4047 calls)
     ffts         :      3.79s CPU      3.91s WALL (     457 calls)
     fftw         :   7349.35s CPU   7779.65s WALL ( 1281395 calls)
     interpolate  :     32.98s CPU     33.52s WALL (     457 calls)
     davcio       :      0.20s CPU     33.20s WALL (    2277 calls)

     Parallel routines
     fft_scatter  :   2819.43s CPU   3330.60s WALL ( 1285899 calls)
     Hubbard U routines
     new_ns       :    288.88s CPU    304.94s WALL (     225 calls)
     vhpsi        :   1263.97s CPU   1284.67s WALL (    1793 calls)
     force_hub    :    590.21s CPU    602.99s WALL (      14 calls)
     stres_hub    :   6339.90s CPU   6500.70s WALL (      14 calls)

     PWSCF        :    19h54m CPU       20h27m WALL


   This run was terminated on:   8:24: 9   2Jun2014            

=------------------------------------------------------------------------------=
   JOB DONE.
=------------------------------------------------------------------------------=
