
     Program PWSCF v.5.0.2 (svn rev. 9656) starts on 30Apr2014 at  3:59:52 

     This program is part of the open-source Quantum ESPRESSO suite
     for quantum simulation of materials; please cite
         "P. Giannozzi et al., J. Phys.:Condens. Matter 21 395502 (2009);
          URL http://www.quantum-espresso.org", 
     in publications or presentations arising from this work. More details at
     http://www.quantum-espresso.org/quote.php

     Parallel version (MPI), running on    16 processors
     K-points division:     npool     =       4
     R & G space division:  proc/nbgrp/npool/nimage =       4

     Current dimensions of program PWSCF are:
     Max number of different atomic species (ntypx) = 10
     Max number of k-points (npk) =  40000
     Max angular momentum in pseudopotentials (lmaxx) =  3
     Reading input from pwscf.in
Warning: card &CELL ignored
Warning: card / ignored

     Subspace diagonalization in iterative solution of the eigenvalue problem:
     a serial algorithm will be used


     Parallelization info
     --------------------
     sticks:   dense  smooth     PW     G-vecs:    dense   smooth      PW
     Min        1424     456    126               337026    61014    9038
     Max        1425     457    127               337029    61047    9044
     Sum        5697    1827    505              1348107   244131   36167



     bravais-lattice index     =            0
     lattice parameter (alat)  =      11.7541  a.u.
     unit-cell volume          =    7139.8207 (a.u.)^3
     number of atoms/cell      =           31
     number of atomic types    =            3
     number of electrons       =       238.00
     number of Kohn-Sham states=          357
     kinetic-energy cutoff     =      40.0000  Ry
     charge density cutoff     =     500.0000  Ry
     convergence threshold     =      1.0E-06
     mixing beta               =       0.7000
     number of iterations used =            8  plain     mixing
     Exchange-correlation      = SLA  PW   PBE  PBE ( 1 4 3 4 0)
     EXX-fraction              =        0.00
     nstep                     =           50


     celldm(1)=  11.754097  celldm(2)=   0.000000  celldm(3)=   0.000000
     celldm(4)=   0.000000  celldm(5)=   0.000000  celldm(6)=   0.000000

     crystal axes: (cart. coord. in units of alat)
               a(1) = (   1.000000   0.000000   0.000000 )  
               a(2) = (   0.000000   1.034513   0.000000 )  
               a(3) = (   0.000000   0.000000   4.249947 )  

     reciprocal axes: (cart. coord. in units 2 pi/alat)
               b(1) = (  1.000000  0.000000  0.000000 )  
               b(2) = (  0.000000  0.966638  0.000000 )  
               b(3) = (  0.000000  0.000000  0.235297 )  


     PseudoPot. # 1 for O  read from file:
     /home/camp/zhonxu/pseudo/o_pbe_v1.01.uspp.F.UPF
     MD5 check sum: 2bcb18d16ea4b960afae9ec6d52f22d2
     Pseudo is Ultrasoft + core correction, Zval =  6.0
     Generated by new atomic code, or converted to UPF format
     Using radial grid of  737 points,  5 beta functions with: 
                l(1) =   0
                l(2) =   0
                l(3) =   1
                l(4) =   1
                l(5) =   2
     Q(r) pseudized with  8 coefficients,  rinner =    0.900   0.900   0.900
                                                       0.900   0.900

     PseudoPot. # 2 for Rh read from file:
     /home/camp/zhonxu/pseudo/rh_pbe_v1.uspp.F.UPF
     MD5 check sum: 37b626987ad0dd8ec6bf4cc9ef289918
     Pseudo is Ultrasoft + core correction, Zval = 15.0
     Generated by new atomic code, or converted to UPF format
     Using radial grid of  969 points,  7 beta functions with: 
                l(1) =   0
                l(2) =   0
                l(3) =   1
                l(4) =   1
                l(5) =   2
                l(6) =   2
                l(7) =   2
     Q(r) pseudized with  6 coefficients,  rinner =    1.050   1.050   1.050
                                                       1.050   1.050

     PseudoPot. # 3 for H  read from file:
     /home/camp/zhonxu/pseudo/h_pbe_v1.uspp.F.UPF
     MD5 check sum: 3408e3ff4ec8b0a4e358431e7e038a48
     Pseudo is Ultrasoft, Zval =  1.0
     Generated by new atomic code, or converted to UPF format
     Using radial grid of  615 points,  2 beta functions with: 
                l(1) =   0
                l(2) =   0
     Q(r) pseudized with  8 coefficients,  rinner =    0.700

     atomic species   valence    mass     pseudopotential
        O0             6.00    15.99940     O ( 1.00)
        Rh1           15.00   102.90550     Rh( 1.00)
        H2             1.00     1.00794     H ( 1.00)


     Simplified LDA+U calculation (l_max = 2) with parameters (eV):
     atomic species    L          U    alpha       J0     beta
        Rh1            2     3.5000   0.0000   0.0000   0.0000



     No symmetry found



   Cartesian axes

     site n.     atom                  positions (alat units)
         1           O0  tau(   1) = (   0.0000000   0.0000000   1.6064375  )
         2           O0  tau(   2) = (   0.0000000   0.5172566   1.7091588  )
         3           Rh1 tau(   3) = (   0.2500000   0.5172566   1.9262886  )
         4           Rh1 tau(   4) = (   0.0000000   0.0000000   1.9228036  )
         5           O0  tau(   5) = (   0.2500000   0.8379556   1.9220386  )
         6           O0  tau(   6) = (   0.2500000   0.1965575   1.9215286  )
         7           O0  tau(   7) = (   0.0000000   0.5172566   2.1200437  )
         8           O0  tau(   8) = (   0.0000000   0.0000000   2.2432071  )
         9           Rh1 tau(   9) = (   0.2500000   0.0000000   2.4439746  )
        10           Rh1 tau(  10) = (   0.0000000   0.5172566   2.4253174  )
        11           O0  tau(  11) = (   0.2500000   0.7138141   2.4432947  )
        12           O0  tau(  12) = (   0.2500000   0.3206991   2.4432097  )
        13           O0  tau(  13) = (   0.0000000   0.0000000   2.6356898  )
        14           O0  tau(  14) = (   0.5000000   0.0000000   1.6064375  )
        15           O0  tau(  15) = (   0.5000000   0.5172566   1.7079263  )
        16           Rh1 tau(  16) = (   0.7500000   0.5172566   1.9262886  )
        17           Rh1 tau(  17) = (   0.5000000   0.0000000   1.9227611  )
        18           O0  tau(  18) = (   0.7500000   0.8379556   1.9219536  )
        19           O0  tau(  19) = (   0.7500000   0.1965575   1.9216136  )
        20           O0  tau(  20) = (   0.5000000   0.5172566   2.1284161  )
        21           O0  tau(  21) = (   0.5000000   0.0000000   2.2423572  )
        22           Rh1 tau(  22) = (   0.7500000   0.0000000   2.4439321  )
        23           Rh1 tau(  23) = (   0.5000000   0.5172566   2.4652244  )
        24           O0  tau(  24) = (   0.7500000   0.7138141   2.4431672  )
        25           O0  tau(  25) = (   0.7500000   0.3206991   2.4432097  )
        26           O0  tau(  26) = (   0.5000000   0.0000000   2.6354348  )
        27           H2  tau(  27) = (  -0.0000700   0.6590056   1.6354222  )
        28           H2  tau(  28) = (   0.4999300   0.6605366   1.6368247  )
        29           H2  tau(  29) = (   0.1480800   0.0354838   1.5606656  )
        30           H2  tau(  30) = (   0.6481100   0.0354321   1.5605806  )
        31           O0  tau(  31) = (   0.5000800   0.5160462   2.7479734  )

     number of k points=    10  Methfessel-Paxton smearing, width (Ry)=  0.0100
                       cart. coord. in units 2pi/alat
        k(    1) = (   0.0000000   0.0000000   0.0000000), wk =   0.1250000
        k(    2) = (   0.0000000   0.2416596   0.0000000), wk =   0.2500000
        k(    3) = (   0.0000000  -0.4833191   0.0000000), wk =   0.1250000
        k(    4) = (   0.2500000   0.0000000   0.0000000), wk =   0.2500000
        k(    5) = (   0.2500000   0.2416596   0.0000000), wk =   0.2500000
        k(    6) = (   0.2500000  -0.4833191   0.0000000), wk =   0.2500000
        k(    7) = (  -0.5000000   0.0000000   0.0000000), wk =   0.1250000
        k(    8) = (  -0.5000000   0.2416596   0.0000000), wk =   0.2500000
        k(    9) = (  -0.5000000  -0.4833191   0.0000000), wk =   0.1250000
        k(   10) = (  -0.2500000   0.2416596   0.0000000), wk =   0.2500000

     Dense  grid:  1348107 G-vectors     FFT dimensions: (  90,  90, 360)

     Smooth grid:   244131 G-vectors     FFT dimensions: (  48,  50, 216)

     Largest allocated arrays     est. size (Mb)     dimensions
        Kohn-Sham Wavefunctions        41.82 Mb     (   7677,  357)
        Atomic wavefunctions           20.62 Mb     (   7677,  176)
        NL pseudopotentials            51.43 Mb     (   7677,  439)
        Each V/rho on FFT grid         11.12 Mb     ( 729000)
        Each G-vector array             2.57 Mb     ( 337026)
        G-vector shells                 1.12 Mb     ( 146445)
     Largest temporary arrays     est. size (Mb)     dimensions
        Auxiliary wavefunctions       167.28 Mb     (   7677, 1428)
        Each subspace H/S matrix       31.12 Mb     (1428,1428)
        Each <psi_i|beta_j> matrix      2.39 Mb     (    439,  357)
        Arrays for rho mixing          88.99 Mb     ( 729000,   8)

     Check: negative/imaginary core charge=   -0.000003    0.000000

     Initial potential from superposition of free atoms
     Check: negative starting charge=   -0.645358

     starting charge  233.99915, renormalised to  238.00000

     negative rho (up, down):  0.656E+00 0.000E+00
     Number of +U iterations with fixed ns =  0
     Starting occupations:
 --- enter write_ns ---
 LDA+U parameters:
U( 2)     =  3.50000000
alpha( 2) =  0.00000000
atom    3   Tr[ns(na)] =   7.00000
    eigenvalues: 
  0.700  0.700  0.700  0.700  0.700
    eigenvectors:
  1.000  0.000  0.000  0.000  0.000
  0.000  1.000  0.000  0.000  0.000
  0.000  0.000  1.000  0.000  0.000
  0.000  0.000  0.000  1.000  0.000
  0.000  0.000  0.000  0.000  1.000
    occupations:
  0.700  0.000  0.000  0.000  0.000
  0.000  0.700  0.000  0.000  0.000
  0.000  0.000  0.700  0.000  0.000
  0.000  0.000  0.000  0.700  0.000
  0.000  0.000  0.000  0.000  0.700
atom    4   Tr[ns(na)] =   7.00000
    eigenvalues: 
  0.700  0.700  0.700  0.700  0.700
    eigenvectors:
  1.000  0.000  0.000  0.000  0.000
  0.000  1.000  0.000  0.000  0.000
  0.000  0.000  1.000  0.000  0.000
  0.000  0.000  0.000  1.000  0.000
  0.000  0.000  0.000  0.000  1.000
    occupations:
  0.700  0.000  0.000  0.000  0.000
  0.000  0.700  0.000  0.000  0.000
  0.000  0.000  0.700  0.000  0.000
  0.000  0.000  0.000  0.700  0.000
  0.000  0.000  0.000  0.000  0.700
atom    9   Tr[ns(na)] =   7.00000
    eigenvalues: 
  0.700  0.700  0.700  0.700  0.700
    eigenvectors:
  1.000  0.000  0.000  0.000  0.000
  0.000  1.000  0.000  0.000  0.000
  0.000  0.000  1.000  0.000  0.000
  0.000  0.000  0.000  1.000  0.000
  0.000  0.000  0.000  0.000  1.000
    occupations:
  0.700  0.000  0.000  0.000  0.000
  0.000  0.700  0.000  0.000  0.000
  0.000  0.000  0.700  0.000  0.000
  0.000  0.000  0.000  0.700  0.000
  0.000  0.000  0.000  0.000  0.700
atom   10   Tr[ns(na)] =   7.00000
    eigenvalues: 
  0.700  0.700  0.700  0.700  0.700
    eigenvectors:
  1.000  0.000  0.000  0.000  0.000
  0.000  1.000  0.000  0.000  0.000
  0.000  0.000  1.000  0.000  0.000
  0.000  0.000  0.000  1.000  0.000
  0.000  0.000  0.000  0.000  1.000
    occupations:
  0.700  0.000  0.000  0.000  0.000
  0.000  0.700  0.000  0.000  0.000
  0.000  0.000  0.700  0.000  0.000
  0.000  0.000  0.000  0.700  0.000
  0.000  0.000  0.000  0.000  0.700
atom   16   Tr[ns(na)] =   7.00000
    eigenvalues: 
  0.700  0.700  0.700  0.700  0.700
    eigenvectors:
  1.000  0.000  0.000  0.000  0.000
  0.000  1.000  0.000  0.000  0.000
  0.000  0.000  1.000  0.000  0.000
  0.000  0.000  0.000  1.000  0.000
  0.000  0.000  0.000  0.000  1.000
    occupations:
  0.700  0.000  0.000  0.000  0.000
  0.000  0.700  0.000  0.000  0.000
  0.000  0.000  0.700  0.000  0.000
  0.000  0.000  0.000  0.700  0.000
  0.000  0.000  0.000  0.000  0.700
atom   17   Tr[ns(na)] =   7.00000
    eigenvalues: 
  0.700  0.700  0.700  0.700  0.700
    eigenvectors:
  1.000  0.000  0.000  0.000  0.000
  0.000  1.000  0.000  0.000  0.000
  0.000  0.000  1.000  0.000  0.000
  0.000  0.000  0.000  1.000  0.000
  0.000  0.000  0.000  0.000  1.000
    occupations:
  0.700  0.000  0.000  0.000  0.000
  0.000  0.700  0.000  0.000  0.000
  0.000  0.000  0.700  0.000  0.000
  0.000  0.000  0.000  0.700  0.000
  0.000  0.000  0.000  0.000  0.700
atom   22   Tr[ns(na)] =   7.00000
    eigenvalues: 
  0.700  0.700  0.700  0.700  0.700
    eigenvectors:
  1.000  0.000  0.000  0.000  0.000
  0.000  1.000  0.000  0.000  0.000
  0.000  0.000  1.000  0.000  0.000
  0.000  0.000  0.000  1.000  0.000
  0.000  0.000  0.000  0.000  1.000
    occupations:
  0.700  0.000  0.000  0.000  0.000
  0.000  0.700  0.000  0.000  0.000
  0.000  0.000  0.700  0.000  0.000
  0.000  0.000  0.000  0.700  0.000
  0.000  0.000  0.000  0.000  0.700
atom   23   Tr[ns(na)] =   7.00000
    eigenvalues: 
  0.700  0.700  0.700  0.700  0.700
    eigenvectors:
  1.000  0.000  0.000  0.000  0.000
  0.000  1.000  0.000  0.000  0.000
  0.000  0.000  1.000  0.000  0.000
  0.000  0.000  0.000  1.000  0.000
  0.000  0.000  0.000  0.000  1.000
    occupations:
  0.700  0.000  0.000  0.000  0.000
  0.000  0.700  0.000  0.000  0.000
  0.000  0.000  0.700  0.000  0.000
  0.000  0.000  0.000  0.700  0.000
  0.000  0.000  0.000  0.000  0.700
N of occupied +U levels =  56.0000000
 --- exit write_ns ---
 Atomic wfc used for LDA+U Projector are NOT orthogonalized
     Starting wfc are  176 randomized atomic wfcs

     total cpu time spent up to now is      148.0 secs

     per-process dynamical memory:   411.8 Mb

     Self-consistent Calculation

     iteration #  1     ecut=    40.00 Ry     beta=0.70
     Davidson diagonalization with overlap
     ethr =  1.00E-02,  avg # of iterations =  5.8
 --- enter write_ns ---
 LDA+U parameters:
U( 2)     =  3.50000000
alpha( 2) =  0.00000000
atom    3   Tr[ns(na)] =   6.68551
    eigenvalues: 
  0.427  0.463  0.687  0.841  0.925
    eigenvectors:
  0.000  0.210  0.002  0.000  0.788
  1.000  0.000  0.000  0.000  0.000
  0.000  0.000  0.991  0.007  0.003
  0.000  0.790  0.001  0.000  0.209
  0.000  0.000  0.007  0.993  0.000
    occupations:
  0.827 -0.005  0.011 -0.188  0.000
 -0.005  0.427  0.001  0.003 -0.003
  0.011  0.001  0.689 -0.005 -0.013
 -0.188  0.003 -0.005  0.559  0.001
  0.000 -0.003 -0.013  0.001  0.840
atom    4   Tr[ns(na)] =   6.03593
    eigenvalues: 
  0.452  0.471  0.476  0.686  0.933
    eigenvectors:
  0.000  0.019  0.974  0.000  0.007
  0.000  0.009  0.000  0.990  0.000
  0.001  0.971  0.019  0.010  0.000
  0.000  0.000  0.007  0.000  0.993
  0.999  0.001  0.000  0.000  0.000
    occupations:
  0.479 -0.001  0.001  0.038  0.000
 -0.001  0.684  0.021 -0.000 -0.001
  0.001  0.021  0.473  0.002  0.000
  0.038 -0.000  0.002  0.930 -0.000
  0.000 -0.001  0.000 -0.000  0.452
atom    9   Tr[ns(na)] =   7.45477
    eigenvalues: 
  0.469  0.483  0.890  0.917  0.969
    eigenvectors:
  0.000  0.157  0.000  0.000  0.843
  0.998  0.002  0.000  0.000  0.000
  0.000  0.000  0.374  0.626  0.000
  0.001  0.842  0.000  0.000  0.157
  0.000  0.000  0.626  0.374  0.000
    occupations:
  0.893 -0.001 -0.000 -0.177  0.000
 -0.001  0.469  0.000 -0.000 -0.000
 -0.000  0.000  0.907 -0.000 -0.013
 -0.177 -0.000 -0.000  0.559  0.000
  0.000 -0.000 -0.013  0.000  0.900
atom   10   Tr[ns(na)] =   7.55182
    eigenvalues: 
  0.457  0.500  0.909  0.944  0.965
    eigenvectors:
  0.000  0.989  0.000  0.000  0.011
  0.000  0.000  0.000  1.000  0.000
  0.000  0.000  1.000  0.000  0.000
  0.000  0.011  0.000  0.000  0.989
  1.000  0.000  0.000  0.000  0.000
    occupations:
  0.505 -0.000  0.001  0.049  0.000
 -0.000  0.944 -0.000  0.000  0.000
  0.001 -0.000  0.909  0.000  0.000
  0.049  0.000  0.000  0.960  0.000
  0.000  0.000  0.000  0.000  0.457
atom   16   Tr[ns(na)] =   6.68405
    eigenvalues: 
  0.427  0.463  0.687  0.841  0.925
    eigenvectors:
  0.000  0.210  0.002  0.000  0.788
  1.000  0.000  0.000  0.000  0.000
  0.000  0.000  0.988  0.009  0.003
  0.000  0.790  0.001  0.000  0.209
  0.000  0.000  0.009  0.991  0.000
    occupations:
  0.827  0.005  0.012 -0.188 -0.000
  0.005  0.427 -0.001 -0.003 -0.003
  0.012 -0.001  0.689 -0.005  0.014
 -0.188 -0.003 -0.005  0.559 -0.000
 -0.000 -0.003  0.014 -0.000  0.840
atom   17   Tr[ns(na)] =   5.99762
    eigenvalues: 
  0.451  0.452  0.476  0.689  0.929
    eigenvectors:
  0.001  0.001  0.992  0.000  0.007
  0.006  0.004  0.000  0.990  0.000
  0.589  0.400  0.001  0.010  0.000
  0.000  0.000  0.007  0.000  0.993
  0.404  0.596  0.000  0.000  0.000
    occupations:
  0.479 -0.000  0.001  0.037  0.000
 -0.000  0.687  0.024  0.000 -0.000
  0.001  0.024  0.454  0.003  0.000
  0.037  0.000  0.003  0.926 -0.000
  0.000 -0.000  0.000 -0.000  0.452
atom   22   Tr[ns(na)] =   7.45478
    eigenvalues: 
  0.469  0.483  0.890  0.917  0.969
    eigenvectors:
  0.001  0.156  0.000  0.000  0.843
  0.992  0.008  0.000  0.000  0.000
  0.000  0.000  0.373  0.627  0.000
  0.006  0.837  0.000  0.000  0.157
  0.000  0.000  0.627  0.373  0.000
    occupations:
  0.893  0.001 -0.000 -0.177  0.000
  0.001  0.469  0.000  0.001 -0.000
 -0.000  0.000  0.907 -0.000  0.013
 -0.177  0.001 -0.000  0.559  0.000
  0.000 -0.000  0.013  0.000  0.900
atom   23   Tr[ns(na)] =   6.92314
    eigenvalues: 
  0.448  0.523  0.742  0.791  0.958
    eigenvectors:
  0.000  0.993  0.000  0.000  0.007
  0.000  0.000  0.000  1.000  0.000
  0.000  0.000  1.000  0.000  0.000
  0.000  0.007  0.000  0.000  0.993
  1.000  0.000  0.000  0.000  0.000
    occupations:
  0.526  0.000 -0.001  0.036 -0.000
  0.000  0.791  0.000  0.000 -0.001
 -0.001  0.000  0.742 -0.001 -0.000
  0.036  0.000 -0.001  0.955 -0.000
 -0.000 -0.001 -0.000 -0.000  0.448
N of occupied +U levels =  54.7876179
 --- exit write_ns ---

     negative rho (up, down):  0.678E+00 0.000E+00

     total cpu time spent up to now is      579.7 secs

     total energy              =   -1965.00063112 Ry
     Harris-Foulkes estimate   =   -1981.50063086 Ry
     estimated scf accuracy    <      20.10183795 Ry

     iteration #  2     ecut=    40.00 Ry     beta=0.70
     Davidson diagonalization with overlap
     ethr =  8.45E-03,  avg # of iterations =  5.0

     negative rho (up, down):  0.630E+00 0.000E+00

     total cpu time spent up to now is      940.8 secs

     total energy              =   -1887.17949249 Ry
     Harris-Foulkes estimate   =   -2061.65075015 Ry
     estimated scf accuracy    <    2054.61918636 Ry

     iteration #  3     ecut=    40.00 Ry     beta=0.70
     Davidson diagonalization with overlap
     ethr =  8.45E-03,  avg # of iterations =  5.0

     negative rho (up, down):  0.606E+00 0.000E+00

     total cpu time spent up to now is     1319.4 secs

     total energy              =   -1962.09057009 Ry
     Harris-Foulkes estimate   =   -2001.40594588 Ry
     estimated scf accuracy    <     315.52904687 Ry

     iteration #  4     ecut=    40.00 Ry     beta=0.70
     Davidson diagonalization with overlap
     ethr =  8.45E-03,  avg # of iterations =  3.3

     negative rho (up, down):  0.611E+00 0.000E+00

     total cpu time spent up to now is     1572.1 secs

     total energy              =   -1975.92344405 Ry
     Harris-Foulkes estimate   =   -1981.72800158 Ry
     estimated scf accuracy    <      29.35655535 Ry

     iteration #  5     ecut=    40.00 Ry     beta=0.70
     Davidson diagonalization with overlap
     ethr =  8.45E-03,  avg # of iterations =  2.4

     negative rho (up, down):  0.621E+00 0.000E+00

     total cpu time spent up to now is     1800.2 secs

     total energy              =   -1978.55449371 Ry
     Harris-Foulkes estimate   =   -1980.03056469 Ry
     estimated scf accuracy    <      23.94801140 Ry

     iteration #  6     ecut=    40.00 Ry     beta=0.70
     Davidson diagonalization with overlap
     ethr =  8.45E-03,  avg # of iterations =  1.1

     negative rho (up, down):  0.635E+00 0.000E+00

     total cpu time spent up to now is     2032.6 secs

     total energy              =   -1978.83010138 Ry
     Harris-Foulkes estimate   =   -1979.14837445 Ry
     estimated scf accuracy    <       3.82855636 Ry

     iteration #  7     ecut=    40.00 Ry     beta=0.70
     Davidson diagonalization with overlap
     ethr =  1.61E-03,  avg # of iterations =  2.2

     negative rho (up, down):  0.644E+00 0.000E+00

     total cpu time spent up to now is     2271.1 secs

     total energy              =   -1978.89111081 Ry
     Harris-Foulkes estimate   =   -1979.02699739 Ry
     estimated scf accuracy    <       5.08930992 Ry

     iteration #  8     ecut=    40.00 Ry     beta=0.70
     Davidson diagonalization with overlap
     ethr =  1.61E-03,  avg # of iterations =  1.2

     negative rho (up, down):  0.654E+00 0.000E+00

     total cpu time spent up to now is     2516.0 secs

     total energy              =   -1978.81342223 Ry
     Harris-Foulkes estimate   =   -1978.97109658 Ry
     estimated scf accuracy    <       1.93804944 Ry

     iteration #  9     ecut=    40.00 Ry     beta=0.70
     Davidson diagonalization with overlap
     ethr =  8.14E-04,  avg # of iterations =  3.6

     negative rho (up, down):  0.669E+00 0.000E+00

     total cpu time spent up to now is     2763.2 secs

     total energy              =   -1978.73619653 Ry
     Harris-Foulkes estimate   =   -1979.03885982 Ry
     estimated scf accuracy    <       3.19190084 Ry

     iteration # 10     ecut=    40.00 Ry     beta=0.70
     Davidson diagonalization with overlap
     ethr =  8.14E-04,  avg # of iterations =  2.2

     negative rho (up, down):  0.680E+00 0.000E+00

     total cpu time spent up to now is     3002.9 secs

     total energy              =   -1978.79242668 Ry
     Harris-Foulkes estimate   =   -1978.96514330 Ry
     estimated scf accuracy    <       1.39687971 Ry

     iteration # 11     ecut=    40.00 Ry     beta=0.70
     Davidson diagonalization with overlap
     ethr =  5.87E-04,  avg # of iterations =  3.5

     negative rho (up, down):  0.686E+00 0.000E+00

     total cpu time spent up to now is     3248.3 secs

     total energy              =   -1978.82914358 Ry
     Harris-Foulkes estimate   =   -1978.94106075 Ry
     estimated scf accuracy    <       0.81766784 Ry

     iteration # 12     ecut=    40.00 Ry     beta=0.70
     Davidson diagonalization with overlap
     ethr =  3.44E-04,  avg # of iterations =  5.3

     negative rho (up, down):  0.689E+00 0.000E+00

     total cpu time spent up to now is     3502.4 secs

     total energy              =   -1978.84689068 Ry
     Harris-Foulkes estimate   =   -1978.92179327 Ry
     estimated scf accuracy    <       0.50309723 Ry

     iteration # 13     ecut=    40.00 Ry     beta=0.70
     Davidson diagonalization with overlap
     ethr =  2.11E-04,  avg # of iterations =  3.3

     negative rho (up, down):  0.686E+00 0.000E+00

     total cpu time spent up to now is     3742.9 secs

     total energy              =   -1978.83097529 Ry
     Harris-Foulkes estimate   =   -1978.91965147 Ry
     estimated scf accuracy    <       0.94172176 Ry

     iteration # 14     ecut=    40.00 Ry     beta=0.70
     Davidson diagonalization with overlap
     ethr =  2.11E-04,  avg # of iterations =  1.0

     negative rho (up, down):  0.688E+00 0.000E+00

     total cpu time spent up to now is     3978.9 secs

     total energy              =   -1978.83289734 Ry
     Harris-Foulkes estimate   =   -1978.92680581 Ry
     estimated scf accuracy    <       0.57838870 Ry

     iteration # 15     ecut=    40.00 Ry     beta=0.70
     Davidson diagonalization with overlap
     ethr =  2.11E-04,  avg # of iterations =  3.4

     negative rho (up, down):  0.689E+00 0.000E+00

     total cpu time spent up to now is     4226.6 secs

     total energy              =   -1978.85606835 Ry
     Harris-Foulkes estimate   =   -1978.92458304 Ry
     estimated scf accuracy    <       0.37118830 Ry

     iteration # 16     ecut=    40.00 Ry     beta=0.70
     Davidson diagonalization with overlap
     ethr =  1.56E-04,  avg # of iterations =  1.2

     negative rho (up, down):  0.690E+00 0.000E+00

     total cpu time spent up to now is     4460.7 secs

     total energy              =   -1978.87723430 Ry
     Harris-Foulkes estimate   =   -1978.89593871 Ry
     estimated scf accuracy    <       0.12118970 Ry

     iteration # 17     ecut=    40.00 Ry     beta=0.70
     Davidson diagonalization with overlap
     ethr =  5.09E-05,  avg # of iterations =  2.8

     negative rho (up, down):  0.691E+00 0.000E+00

     total cpu time spent up to now is     4698.6 secs

     total energy              =   -1978.88426824 Ry
     Harris-Foulkes estimate   =   -1978.88996608 Ry
     estimated scf accuracy    <       0.09840265 Ry

     iteration # 18     ecut=    40.00 Ry     beta=0.70
     Davidson diagonalization with overlap
     ethr =  4.13E-05,  avg # of iterations =  1.0

     negative rho (up, down):  0.691E+00 0.000E+00

     total cpu time spent up to now is     4929.4 secs

     total energy              =   -1978.88510067 Ry
     Harris-Foulkes estimate   =   -1978.88944435 Ry
     estimated scf accuracy    <       0.04297923 Ry

     iteration # 19     ecut=    40.00 Ry     beta=0.70
     Davidson diagonalization with overlap
     ethr =  1.81E-05,  avg # of iterations =  1.7

     negative rho (up, down):  0.691E+00 0.000E+00

     total cpu time spent up to now is     5169.2 secs

     total energy              =   -1978.88626548 Ry
     Harris-Foulkes estimate   =   -1978.88863314 Ry
     estimated scf accuracy    <       0.02423673 Ry

     iteration # 20     ecut=    40.00 Ry     beta=0.70
     Davidson diagonalization with overlap
     ethr =  1.02E-05,  avg # of iterations =  2.2

     negative rho (up, down):  0.691E+00 0.000E+00

     total cpu time spent up to now is     5406.6 secs

     total energy              =   -1978.88700587 Ry
     Harris-Foulkes estimate   =   -1978.88815769 Ry
     estimated scf accuracy    <       0.01383044 Ry

     iteration # 21     ecut=    40.00 Ry     beta=0.70
     Davidson diagonalization with overlap
     ethr =  5.81E-06,  avg # of iterations =  5.4

     negative rho (up, down):  0.692E+00 0.000E+00

     total cpu time spent up to now is     5664.6 secs

     total energy              =   -1978.88730595 Ry
     Harris-Foulkes estimate   =   -1978.88778415 Ry
     estimated scf accuracy    <       0.00222059 Ry

     iteration # 22     ecut=    40.00 Ry     beta=0.70
     Davidson diagonalization with overlap
     ethr =  9.33E-07,  avg # of iterations =  4.9

     negative rho (up, down):  0.692E+00 0.000E+00

     total cpu time spent up to now is     5923.9 secs

     total energy              =   -1978.88701116 Ry
     Harris-Foulkes estimate   =   -1978.88806806 Ry
     estimated scf accuracy    <       0.00770573 Ry

     iteration # 23     ecut=    40.00 Ry     beta=0.70
     Davidson diagonalization with overlap
     ethr =  9.33E-07,  avg # of iterations =  5.6

     negative rho (up, down):  0.692E+00 0.000E+00

     total cpu time spent up to now is     6180.6 secs

     total energy              =   -1978.88657512 Ry
     Harris-Foulkes estimate   =   -1978.88865665 Ry
     estimated scf accuracy    <       0.02571643 Ry

     iteration # 24     ecut=    40.00 Ry     beta=0.70
     Davidson diagonalization with overlap
     ethr =  9.33E-07,  avg # of iterations =  2.7

     negative rho (up, down):  0.692E+00 0.000E+00

     total cpu time spent up to now is     6422.4 secs

     total energy              =   -1978.88756991 Ry
     Harris-Foulkes estimate   =   -1978.88765353 Ry
     estimated scf accuracy    <       0.00096496 Ry

     iteration # 25     ecut=    40.00 Ry     beta=0.70
     Davidson diagonalization with overlap
     ethr =  4.05E-07,  avg # of iterations =  1.0

     negative rho (up, down):  0.692E+00 0.000E+00

     total cpu time spent up to now is     6651.8 secs

     total energy              =   -1978.88756301 Ry
     Harris-Foulkes estimate   =   -1978.88767901 Ry
     estimated scf accuracy    <       0.00073273 Ry

     iteration # 26     ecut=    40.00 Ry     beta=0.70
     Davidson diagonalization with overlap
     ethr =  3.08E-07,  avg # of iterations =  1.0

     negative rho (up, down):  0.692E+00 0.000E+00

     total cpu time spent up to now is     6882.1 secs

     total energy              =   -1978.88760301 Ry
     Harris-Foulkes estimate   =   -1978.88764136 Ry
     estimated scf accuracy    <       0.00023739 Ry

     iteration # 27     ecut=    40.00 Ry     beta=0.70
     Davidson diagonalization with overlap
     ethr =  9.97E-08,  avg # of iterations =  1.0

     negative rho (up, down):  0.692E+00 0.000E+00

     total cpu time spent up to now is     7113.1 secs

     total energy              =   -1978.88761161 Ry
     Harris-Foulkes estimate   =   -1978.88763330 Ry
     estimated scf accuracy    <       0.00015900 Ry

     iteration # 28     ecut=    40.00 Ry     beta=0.70
     Davidson diagonalization with overlap
     ethr =  6.68E-08,  avg # of iterations =  1.0

     negative rho (up, down):  0.692E+00 0.000E+00

     total cpu time spent up to now is     7347.2 secs

     total energy              =   -1978.88759616 Ry
     Harris-Foulkes estimate   =   -1978.88765336 Ry
     estimated scf accuracy    <       0.00049708 Ry

     iteration # 29     ecut=    40.00 Ry     beta=0.70
     Davidson diagonalization with overlap
     ethr =  6.68E-08,  avg # of iterations =  1.0

     negative rho (up, down):  0.692E+00 0.000E+00

     total cpu time spent up to now is     7579.1 secs

     total energy              =   -1978.88761871 Ry
     Harris-Foulkes estimate   =   -1978.88762986 Ry
     estimated scf accuracy    <       0.00013671 Ry

     iteration # 30     ecut=    40.00 Ry     beta=0.70
     Davidson diagonalization with overlap
     ethr =  5.74E-08,  avg # of iterations =  1.0

     negative rho (up, down):  0.692E+00 0.000E+00

     total cpu time spent up to now is     7814.5 secs

     total energy              =   -1978.88761870 Ry
     Harris-Foulkes estimate   =   -1978.88762885 Ry
     estimated scf accuracy    <       0.00009563 Ry

     iteration # 31     ecut=    40.00 Ry     beta=0.70
     Davidson diagonalization with overlap
     ethr =  4.02E-08,  avg # of iterations =  1.0

     negative rho (up, down):  0.692E+00 0.000E+00

     total cpu time spent up to now is     8047.8 secs

     total energy              =   -1978.88760558 Ry
     Harris-Foulkes estimate   =   -1978.88764585 Ry
     estimated scf accuracy    <       0.00068789 Ry

     iteration # 32     ecut=    40.00 Ry     beta=0.70
     Davidson diagonalization with overlap
     ethr =  4.02E-08,  avg # of iterations =  1.0

     negative rho (up, down):  0.692E+00 0.000E+00

     total cpu time spent up to now is     8285.6 secs

     total energy              =   -1978.88762349 Ry
     Harris-Foulkes estimate   =   -1978.88762665 Ry
     estimated scf accuracy    <       0.00001907 Ry

     iteration # 33     ecut=    40.00 Ry     beta=0.70
     Davidson diagonalization with overlap
     ethr =  8.01E-09,  avg # of iterations =  1.0

     negative rho (up, down):  0.692E+00 0.000E+00

     total cpu time spent up to now is     8521.7 secs

     total energy              =   -1978.88761940 Ry
     Harris-Foulkes estimate   =   -1978.88763170 Ry
     estimated scf accuracy    <       0.00015835 Ry

     iteration # 34     ecut=    40.00 Ry     beta=0.70
     Davidson diagonalization with overlap
     ethr =  8.01E-09,  avg # of iterations =  1.0

     negative rho (up, down):  0.692E+00 0.000E+00

     total cpu time spent up to now is     8752.9 secs

     total energy              =   -1978.88762183 Ry
     Harris-Foulkes estimate   =   -1978.88762852 Ry
     estimated scf accuracy    <       0.00008902 Ry

     iteration # 35     ecut=    40.00 Ry     beta=0.70
     Davidson diagonalization with overlap
     ethr =  8.01E-09,  avg # of iterations =  1.0

     negative rho (up, down):  0.692E+00 0.000E+00

     total cpu time spent up to now is     8983.2 secs

     total energy              =   -1978.88762444 Ry
     Harris-Foulkes estimate   =   -1978.88762656 Ry
     estimated scf accuracy    <       0.00001184 Ry

     iteration # 36     ecut=    40.00 Ry     beta=0.70
     Davidson diagonalization with overlap
     ethr =  4.98E-09,  avg # of iterations =  1.0

     negative rho (up, down):  0.692E+00 0.000E+00

     total cpu time spent up to now is     9218.5 secs

     total energy              =   -1978.88762457 Ry
     Harris-Foulkes estimate   =   -1978.88762638 Ry
     estimated scf accuracy    <       0.00001658 Ry

     iteration # 37     ecut=    40.00 Ry     beta=0.70
     Davidson diagonalization with overlap
     ethr =  4.98E-09,  avg # of iterations =  1.0

     negative rho (up, down):  0.692E+00 0.000E+00

     total cpu time spent up to now is     9447.7 secs

     total energy              =   -1978.88762436 Ry
     Harris-Foulkes estimate   =   -1978.88762669 Ry
     estimated scf accuracy    <       0.00001751 Ry

     iteration # 38     ecut=    40.00 Ry     beta=0.70
     Davidson diagonalization with overlap
     ethr =  4.98E-09,  avg # of iterations =  1.0

     negative rho (up, down):  0.692E+00 0.000E+00

     total cpu time spent up to now is     9679.3 secs

     total energy              =   -1978.88762508 Ry
     Harris-Foulkes estimate   =   -1978.88762585 Ry
     estimated scf accuracy    <       0.00000613 Ry

     iteration # 39     ecut=    40.00 Ry     beta=0.70
     Davidson diagonalization with overlap
     ethr =  2.58E-09,  avg # of iterations =  1.0

     negative rho (up, down):  0.692E+00 0.000E+00

     total cpu time spent up to now is     9909.9 secs

     total energy              =   -1978.88762397 Ry
     Harris-Foulkes estimate   =   -1978.88762701 Ry
     estimated scf accuracy    <       0.00004395 Ry

     iteration # 40     ecut=    40.00 Ry     beta=0.70
     Davidson diagonalization with overlap
     ethr =  2.58E-09,  avg # of iterations =  1.0

     negative rho (up, down):  0.692E+00 0.000E+00

     total cpu time spent up to now is    10139.3 secs

     total energy              =   -1978.88762473 Ry
     Harris-Foulkes estimate   =   -1978.88762630 Ry
     estimated scf accuracy    <       0.00001770 Ry

     iteration # 41     ecut=    40.00 Ry     beta=0.70
     Davidson diagonalization with overlap
     ethr =  2.58E-09,  avg # of iterations =  1.0

     negative rho (up, down):  0.692E+00 0.000E+00

     total cpu time spent up to now is    10366.7 secs

     total energy              =   -1978.88762499 Ry
     Harris-Foulkes estimate   =   -1978.88762601 Ry
     estimated scf accuracy    <       0.00001630 Ry

     iteration # 42     ecut=    40.00 Ry     beta=0.70
     Davidson diagonalization with overlap
     ethr =  2.58E-09,  avg # of iterations =  1.0

     negative rho (up, down):  0.692E+00 0.000E+00

     total cpu time spent up to now is    10599.2 secs

     total energy              =   -1978.88762490 Ry
     Harris-Foulkes estimate   =   -1978.88762614 Ry
     estimated scf accuracy    <       0.00000850 Ry

     iteration # 43     ecut=    40.00 Ry     beta=0.70
     Davidson diagonalization with overlap
     ethr =  2.58E-09,  avg # of iterations =  1.0

     negative rho (up, down):  0.692E+00 0.000E+00

     total cpu time spent up to now is    10829.3 secs

     total energy              =   -1978.88762469 Ry
     Harris-Foulkes estimate   =   -1978.88762639 Ry
     estimated scf accuracy    <       0.00002515 Ry

     iteration # 44     ecut=    40.00 Ry     beta=0.70
     Davidson diagonalization with overlap
     ethr =  2.58E-09,  avg # of iterations =  1.0

     negative rho (up, down):  0.692E+00 0.000E+00

     total cpu time spent up to now is    11065.8 secs

     total energy              =   -1978.88762416 Ry
     Harris-Foulkes estimate   =   -1978.88762692 Ry
     estimated scf accuracy    <       0.00003866 Ry

     iteration # 45     ecut=    40.00 Ry     beta=0.70
     Davidson diagonalization with overlap
     ethr =  2.58E-09,  avg # of iterations =  1.0

     negative rho (up, down):  0.692E+00 0.000E+00

     total cpu time spent up to now is    11292.8 secs

     total energy              =   -1978.88762537 Ry
     Harris-Foulkes estimate   =   -1978.88762573 Ry
     estimated scf accuracy    <       0.00000232 Ry

     iteration # 46     ecut=    40.00 Ry     beta=0.70
     Davidson diagonalization with overlap
     ethr =  9.73E-10,  avg # of iterations =  1.0

     negative rho (up, down):  0.692E+00 0.000E+00

     total cpu time spent up to now is    11526.0 secs

     total energy              =   -1978.88762536 Ry
     Harris-Foulkes estimate   =   -1978.88762572 Ry
     estimated scf accuracy    <       0.00000330 Ry

     iteration # 47     ecut=    40.00 Ry     beta=0.70
     Davidson diagonalization with overlap
     ethr =  9.73E-10,  avg # of iterations =  1.0

     negative rho (up, down):  0.692E+00 0.000E+00

     total cpu time spent up to now is    11764.6 secs

     total energy              =   -1978.88762525 Ry
     Harris-Foulkes estimate   =   -1978.88762576 Ry
     estimated scf accuracy    <       0.00000330 Ry

     iteration # 48     ecut=    40.00 Ry     beta=0.70
     Davidson diagonalization with overlap
     ethr =  9.73E-10,  avg # of iterations =  1.0

     negative rho (up, down):  0.692E+00 0.000E+00

     total cpu time spent up to now is    12000.7 secs

     total energy              =   -1978.88762505 Ry
     Harris-Foulkes estimate   =   -1978.88762605 Ry
     estimated scf accuracy    <       0.00000844 Ry

     iteration # 49     ecut=    40.00 Ry     beta=0.70
     Davidson diagonalization with overlap
     ethr =  9.73E-10,  avg # of iterations =  1.0

     negative rho (up, down):  0.692E+00 0.000E+00

     total cpu time spent up to now is    12233.2 secs

     total energy              =   -1978.88762525 Ry
     Harris-Foulkes estimate   =   -1978.88762580 Ry
     estimated scf accuracy    <       0.00000656 Ry

     iteration # 50     ecut=    40.00 Ry     beta=0.70
     Davidson diagonalization with overlap
     ethr =  9.73E-10,  avg # of iterations =  1.0

     negative rho (up, down):  0.692E+00 0.000E+00

     total cpu time spent up to now is    12470.5 secs

     total energy              =   -1978.88762508 Ry
     Harris-Foulkes estimate   =   -1978.88762594 Ry
     estimated scf accuracy    <       0.00001080 Ry

     iteration # 51     ecut=    40.00 Ry     beta=0.70
     Davidson diagonalization with overlap
     ethr =  9.73E-10,  avg # of iterations =  1.0

     negative rho (up, down):  0.692E+00 0.000E+00

     total cpu time spent up to now is    12701.0 secs

     total energy              =   -1978.88762486 Ry
     Harris-Foulkes estimate   =   -1978.88762625 Ry
     estimated scf accuracy    <       0.00002091 Ry

     iteration # 52     ecut=    40.00 Ry     beta=0.70
     Davidson diagonalization with overlap
     ethr =  9.73E-10,  avg # of iterations =  1.0

     negative rho (up, down):  0.692E+00 0.000E+00

     total cpu time spent up to now is    12937.0 secs

     total energy              =   -1978.88762538 Ry
     Harris-Foulkes estimate   =   -1978.88762569 Ry
     estimated scf accuracy    <       0.00000217 Ry

     iteration # 53     ecut=    40.00 Ry     beta=0.70
     Davidson diagonalization with overlap
     ethr =  9.12E-10,  avg # of iterations =  1.0

     negative rho (up, down):  0.692E+00 0.000E+00

     total cpu time spent up to now is    13174.3 secs

     total energy              =   -1978.88762523 Ry
     Harris-Foulkes estimate   =   -1978.88762589 Ry
     estimated scf accuracy    <       0.00001120 Ry

     iteration # 54     ecut=    40.00 Ry     beta=0.70
     Davidson diagonalization with overlap
     ethr =  9.12E-10,  avg # of iterations =  1.0

     negative rho (up, down):  0.692E+00 0.000E+00

     total cpu time spent up to now is    13404.9 secs

     total energy              =   -1978.88762538 Ry
     Harris-Foulkes estimate   =   -1978.88762569 Ry
     estimated scf accuracy    <       0.00000333 Ry

     iteration # 55     ecut=    40.00 Ry     beta=0.70
     Davidson diagonalization with overlap
     ethr =  9.12E-10,  avg # of iterations =  1.0

     negative rho (up, down):  0.692E+00 0.000E+00

     total cpu time spent up to now is    13639.8 secs

     total energy              =   -1978.88762538 Ry
     Harris-Foulkes estimate   =   -1978.88762572 Ry
     estimated scf accuracy    <       0.00000252 Ry

     iteration # 56     ecut=    40.00 Ry     beta=0.70
     Davidson diagonalization with overlap
     ethr =  9.12E-10,  avg # of iterations =  1.0

     negative rho (up, down):  0.692E+00 0.000E+00

     total cpu time spent up to now is    13877.0 secs

     total energy              =   -1978.88762524 Ry
     Harris-Foulkes estimate   =   -1978.88762584 Ry
     estimated scf accuracy    <       0.00000694 Ry

     iteration # 57     ecut=    40.00 Ry     beta=0.70
     Davidson diagonalization with overlap
     ethr =  9.12E-10,  avg # of iterations =  1.0

     negative rho (up, down):  0.692E+00 0.000E+00

     total cpu time spent up to now is    14112.0 secs

     total energy              =   -1978.88762535 Ry
     Harris-Foulkes estimate   =   -1978.88762575 Ry
     estimated scf accuracy    <       0.00000274 Ry

     iteration # 58     ecut=    40.00 Ry     beta=0.70
     Davidson diagonalization with overlap
     ethr =  9.12E-10,  avg # of iterations =  1.0

     negative rho (up, down):  0.692E+00 0.000E+00

     total cpu time spent up to now is    14344.9 secs

     total energy              =   -1978.88762543 Ry
     Harris-Foulkes estimate   =   -1978.88762564 Ry
     estimated scf accuracy    <       0.00000157 Ry

     iteration # 59     ecut=    40.00 Ry     beta=0.70
     Davidson diagonalization with overlap
     ethr =  6.61E-10,  avg # of iterations =  1.0

     negative rho (up, down):  0.692E+00 0.000E+00

     total cpu time spent up to now is    14587.2 secs

     total energy              =   -1978.88762517 Ry
     Harris-Foulkes estimate   =   -1978.88762591 Ry
     estimated scf accuracy    <       0.00001042 Ry

     iteration # 60     ecut=    40.00 Ry     beta=0.70
     Davidson diagonalization with overlap
     ethr =  6.61E-10,  avg # of iterations =  1.0

     negative rho (up, down):  0.692E+00 0.000E+00

     total cpu time spent up to now is    14820.0 secs

     total energy              =   -1978.88762535 Ry
     Harris-Foulkes estimate   =   -1978.88762574 Ry
     estimated scf accuracy    <       0.00000492 Ry

     iteration # 61     ecut=    40.00 Ry     beta=0.70
     Davidson diagonalization with overlap
     ethr =  6.61E-10,  avg # of iterations =  1.0

     negative rho (up, down):  0.692E+00 0.000E+00

     total cpu time spent up to now is    15058.7 secs

     total energy              =   -1978.88762541 Ry
     Harris-Foulkes estimate   =   -1978.88762567 Ry
     estimated scf accuracy    <       0.00000349 Ry

     iteration # 62     ecut=    40.00 Ry     beta=0.70
     Davidson diagonalization with overlap
     ethr =  6.61E-10,  avg # of iterations =  1.0

     negative rho (up, down):  0.692E+00 0.000E+00

     total cpu time spent up to now is    15295.3 secs

     total energy              =   -1978.88762534 Ry
     Harris-Foulkes estimate   =   -1978.88762575 Ry
     estimated scf accuracy    <       0.00000329 Ry

     iteration # 63     ecut=    40.00 Ry     beta=0.70
     Davidson diagonalization with overlap
     ethr =  6.61E-10,  avg # of iterations =  1.0

     negative rho (up, down):  0.692E+00 0.000E+00

     total cpu time spent up to now is    15528.0 secs

     total energy              =   -1978.88762533 Ry
     Harris-Foulkes estimate   =   -1978.88762577 Ry
     estimated scf accuracy    <       0.00000695 Ry

     iteration # 64     ecut=    40.00 Ry     beta=0.70
     Davidson diagonalization with overlap
     ethr =  6.61E-10,  avg # of iterations =  1.0

     negative rho (up, down):  0.692E+00 0.000E+00

     total cpu time spent up to now is    15762.6 secs

     total energy              =   -1978.88762526 Ry
     Harris-Foulkes estimate   =   -1978.88762583 Ry
     estimated scf accuracy    <       0.00000657 Ry

     iteration # 65     ecut=    40.00 Ry     beta=0.70
     Davidson diagonalization with overlap
     ethr =  6.61E-10,  avg # of iterations =  1.0

     negative rho (up, down):  0.692E+00 0.000E+00

     total cpu time spent up to now is    15996.5 secs

     total energy              =   -1978.88762545 Ry
     Harris-Foulkes estimate   =   -1978.88762567 Ry
     estimated scf accuracy    <       0.00000192 Ry

     iteration # 66     ecut=    40.00 Ry     beta=0.70
     Davidson diagonalization with overlap
     ethr =  6.61E-10,  avg # of iterations =  1.0

     negative rho (up, down):  0.692E+00 0.000E+00

     total cpu time spent up to now is    16233.9 secs

     total energy              =   -1978.88762547 Ry
     Harris-Foulkes estimate   =   -1978.88762563 Ry
     estimated scf accuracy    <       0.00000173 Ry

     iteration # 67     ecut=    40.00 Ry     beta=0.70
     Davidson diagonalization with overlap
     ethr =  6.61E-10,  avg # of iterations =  1.0

     negative rho (up, down):  0.692E+00 0.000E+00

     total cpu time spent up to now is    16466.8 secs

     total energy              =   -1978.88762545 Ry
     Harris-Foulkes estimate   =   -1978.88762563 Ry
     estimated scf accuracy    <       0.00000113 Ry

     iteration # 68     ecut=    40.00 Ry     beta=0.70
     Davidson diagonalization with overlap
     ethr =  4.73E-10,  avg # of iterations =  1.0

     negative rho (up, down):  0.692E+00 0.000E+00

     total cpu time spent up to now is    16702.9 secs

     total energy              =   -1978.88762538 Ry
     Harris-Foulkes estimate   =   -1978.88762573 Ry
     estimated scf accuracy    <       0.00000279 Ry

     iteration # 69     ecut=    40.00 Ry     beta=0.70
     Davidson diagonalization with overlap
     ethr =  4.73E-10,  avg # of iterations =  1.0

     negative rho (up, down):  0.692E+00 0.000E+00

     total cpu time spent up to now is    16934.3 secs

     total energy              =   -1978.88762542 Ry
     Harris-Foulkes estimate   =   -1978.88762565 Ry
     estimated scf accuracy    <       0.00000271 Ry

     iteration # 70     ecut=    40.00 Ry     beta=0.70
     Davidson diagonalization with overlap
     ethr =  4.73E-10,  avg # of iterations =  1.0

     negative rho (up, down):  0.692E+00 0.000E+00

     total cpu time spent up to now is    17169.6 secs

     total energy              =   -1978.88762530 Ry
     Harris-Foulkes estimate   =   -1978.88762577 Ry
     estimated scf accuracy    <       0.00000662 Ry

     iteration # 71     ecut=    40.00 Ry     beta=0.70
     Davidson diagonalization with overlap
     ethr =  4.73E-10,  avg # of iterations =  1.0

     negative rho (up, down):  0.692E+00 0.000E+00

     total cpu time spent up to now is    17412.9 secs

     total energy              =   -1978.88762524 Ry
     Harris-Foulkes estimate   =   -1978.88762586 Ry
     estimated scf accuracy    <       0.00000834 Ry

     iteration # 72     ecut=    40.00 Ry     beta=0.70
     Davidson diagonalization with overlap
     ethr =  4.73E-10,  avg # of iterations =  1.0

     negative rho (up, down):  0.692E+00 0.000E+00

     total cpu time spent up to now is    17650.5 secs

     total energy              =   -1978.88762545 Ry
     Harris-Foulkes estimate   =   -1978.88762564 Ry
     estimated scf accuracy    <       0.00000158 Ry

     iteration # 73     ecut=    40.00 Ry     beta=0.70
     Davidson diagonalization with overlap
     ethr =  4.73E-10,  avg # of iterations =  1.0

     negative rho (up, down):  0.692E+00 0.000E+00

     total cpu time spent up to now is    17889.3 secs

     total energy              =   -1978.88762537 Ry
     Harris-Foulkes estimate   =   -1978.88762575 Ry
     estimated scf accuracy    <       0.00000657 Ry

     iteration # 74     ecut=    40.00 Ry     beta=0.70
     Davidson diagonalization with overlap
     ethr =  4.73E-10,  avg # of iterations =  1.0

     negative rho (up, down):  0.692E+00 0.000E+00

     total cpu time spent up to now is    18121.6 secs

     total energy              =   -1978.88762548 Ry
     Harris-Foulkes estimate   =   -1978.88762561 Ry
     estimated scf accuracy    <       0.00000129 Ry

     iteration # 75     ecut=    40.00 Ry     beta=0.70
     Davidson diagonalization with overlap
     ethr =  4.73E-10,  avg # of iterations =  1.0

     negative rho (up, down):  0.692E+00 0.000E+00

     total cpu time spent up to now is    18351.9 secs

     total energy              =   -1978.88762548 Ry
     Harris-Foulkes estimate   =   -1978.88762562 Ry
     estimated scf accuracy    <       0.00000128 Ry

     iteration # 76     ecut=    40.00 Ry     beta=0.70
     Davidson diagonalization with overlap
     ethr =  4.73E-10,  avg # of iterations =  1.0

     negative rho (up, down):  0.692E+00 0.000E+00

     total cpu time spent up to now is    18584.4 secs

     total energy              =   -1978.88762538 Ry
     Harris-Foulkes estimate   =   -1978.88762571 Ry
     estimated scf accuracy    <       0.00000396 Ry

     iteration # 77     ecut=    40.00 Ry     beta=0.70
     Davidson diagonalization with overlap
     ethr =  4.73E-10,  avg # of iterations =  1.0

     negative rho (up, down):  0.692E+00 0.000E+00

     total cpu time spent up to now is    18817.4 secs

     total energy              =   -1978.88762544 Ry
     Harris-Foulkes estimate   =   -1978.88762566 Ry
     estimated scf accuracy    <       0.00000152 Ry

     iteration # 78     ecut=    40.00 Ry     beta=0.70
     Davidson diagonalization with overlap
     ethr =  4.73E-10,  avg # of iterations =  1.0

     negative rho (up, down):  0.692E+00 0.000E+00

     total cpu time spent up to now is    19050.1 secs

     total energy              =   -1978.88762547 Ry
     Harris-Foulkes estimate   =   -1978.88762561 Ry
     estimated scf accuracy    <       0.00000107 Ry

     iteration # 79     ecut=    40.00 Ry     beta=0.70
     Davidson diagonalization with overlap
     ethr =  4.51E-10,  avg # of iterations =  1.0

     negative rho (up, down):  0.692E+00 0.000E+00

     total cpu time spent up to now is    19280.6 secs

     total energy              =   -1978.88762531 Ry
     Harris-Foulkes estimate   =   -1978.88762578 Ry
     estimated scf accuracy    <       0.00000638 Ry

     iteration # 80     ecut=    40.00 Ry     beta=0.70
     Davidson diagonalization with overlap
     ethr =  4.51E-10,  avg # of iterations =  1.0

     negative rho (up, down):  0.692E+00 0.000E+00

     total cpu time spent up to now is    19515.3 secs

     total energy              =   -1978.88762543 Ry
     Harris-Foulkes estimate   =   -1978.88762567 Ry
     estimated scf accuracy    <       0.00000336 Ry

     iteration # 81     ecut=    40.00 Ry     beta=0.70
     Davidson diagonalization with overlap
     ethr =  4.51E-10,  avg # of iterations =  1.0

     negative rho (up, down):  0.692E+00 0.000E+00

     total cpu time spent up to now is    19749.9 secs

     total energy              =   -1978.88762548 Ry
     Harris-Foulkes estimate   =   -1978.88762561 Ry
     estimated scf accuracy    <       0.00000165 Ry

     iteration # 82     ecut=    40.00 Ry     beta=0.70
     Davidson diagonalization with overlap
     ethr =  4.51E-10,  avg # of iterations =  1.0

     negative rho (up, down):  0.692E+00 0.000E+00

     total cpu time spent up to now is    19981.5 secs

     total energy              =   -1978.88762545 Ry
     Harris-Foulkes estimate   =   -1978.88762566 Ry
     estimated scf accuracy    <       0.00000181 Ry

     iteration # 83     ecut=    40.00 Ry     beta=0.70
     Davidson diagonalization with overlap
     ethr =  4.51E-10,  avg # of iterations =  1.0

     negative rho (up, down):  0.692E+00 0.000E+00

     total cpu time spent up to now is    20219.1 secs

     total energy              =   -1978.88762544 Ry
     Harris-Foulkes estimate   =   -1978.88762566 Ry
     estimated scf accuracy    <       0.00000347 Ry

     iteration # 84     ecut=    40.00 Ry     beta=0.70
     Davidson diagonalization with overlap
     ethr =  4.51E-10,  avg # of iterations =  1.0

     negative rho (up, down):  0.692E+00 0.000E+00

     total cpu time spent up to now is    20455.3 secs

     total energy              =   -1978.88762539 Ry
     Harris-Foulkes estimate   =   -1978.88762571 Ry
     estimated scf accuracy    <       0.00000319 Ry

     iteration # 85     ecut=    40.00 Ry     beta=0.70
     Davidson diagonalization with overlap
     ethr =  4.51E-10,  avg # of iterations =  1.0

     negative rho (up, down):  0.692E+00 0.000E+00

     total cpu time spent up to now is    20686.4 secs

     total energy              =   -1978.88762544 Ry
     Harris-Foulkes estimate   =   -1978.88762567 Ry
     estimated scf accuracy    <       0.00000243 Ry

     iteration # 86     ecut=    40.00 Ry     beta=0.70
     Davidson diagonalization with overlap
     ethr =  4.51E-10,  avg # of iterations =  1.0

     negative rho (up, down):  0.692E+00 0.000E+00

     total cpu time spent up to now is    20918.2 secs

     total energy              =   -1978.88762547 Ry
     Harris-Foulkes estimate   =   -1978.88762563 Ry
     estimated scf accuracy    <       0.00000192 Ry

     iteration # 87     ecut=    40.00 Ry     beta=0.70
     Davidson diagonalization with overlap
     ethr =  4.51E-10,  avg # of iterations =  1.0

     negative rho (up, down):  0.692E+00 0.000E+00

     total cpu time spent up to now is    21158.6 secs

     End of self-consistent calculation
 --- enter write_ns ---
 LDA+U parameters:
U( 2)     =  3.50000000
alpha( 2) =  0.00000000
atom    3   Tr[ns(na)] =   8.03930
    eigenvalues: 
  0.586  0.607  0.895  0.957  0.975
    eigenvectors:
  0.015  0.184  0.002  0.000  0.798
  0.937  0.063  0.000  0.000  0.000
  0.000  0.000  0.975  0.023  0.002
  0.048  0.752  0.000  0.000  0.199
  0.000  0.000  0.023  0.976  0.001
    occupations:
  0.901 -0.006  0.002 -0.147 -0.001
 -0.006  0.587 -0.001 -0.003 -0.005
  0.002 -0.001  0.896 -0.004  0.009
 -0.147 -0.003 -0.004  0.679 -0.000
 -0.001 -0.005  0.009 -0.000  0.956
atom    4   Tr[ns(na)] =   8.03781
    eigenvalues: 
  0.600  0.649  0.871  0.921  0.977
    eigenvectors:
  0.001  0.992  0.000  0.000  0.008
  0.000  0.000  0.053  0.947  0.000
  0.000  0.000  0.947  0.053  0.000
  0.000  0.008  0.000  0.000  0.992
  0.999  0.001  0.000  0.000  0.000
    occupations:
  0.652 -0.004 -0.001  0.028  0.001
 -0.004  0.918  0.011  0.001 -0.000
 -0.001  0.011  0.874 -0.001  0.001
  0.028  0.001 -0.001  0.975  0.000
  0.001 -0.000  0.001  0.000  0.600
atom    9   Tr[ns(na)] =   8.03443
    eigenvalues: 
  0.636  0.645  0.862  0.897  0.977
    eigenvectors:
  0.004  0.147  0.000  0.000  0.849
  0.976  0.024  0.000  0.000  0.000
  0.000  0.000  0.921  0.079  0.000
  0.020  0.829  0.000  0.000  0.151
  0.000  0.000  0.079  0.921  0.000
    occupations:
  0.927  0.001 -0.000 -0.119 -0.000
  0.001  0.636  0.001  0.001 -0.000
 -0.000  0.001  0.865  0.000 -0.009
 -0.119  0.001  0.000  0.695  0.001
 -0.000 -0.000 -0.009  0.001  0.895
atom   10   Tr[ns(na)] =   8.02648
    eigenvalues: 
  0.591  0.591  0.922  0.933  0.976
    eigenvectors:
  0.983  0.007  0.000  0.000  0.010
  0.000  0.000  0.000  1.000  0.000
  0.000  0.000  1.000  0.000  0.000
  0.009  0.000  0.000  0.000  0.990
  0.007  0.993  0.000  0.000  0.000
    occupations:
  0.595  0.000  0.001  0.037 -0.000
  0.000  0.933 -0.000  0.000 -0.000
  0.001 -0.000  0.922  0.000  0.000
  0.037  0.000  0.000  0.973 -0.000
 -0.000 -0.000  0.000 -0.000  0.591
atom   16   Tr[ns(na)] =   8.03898
    eigenvalues: 
  0.586  0.607  0.895  0.957  0.975
    eigenvectors:
  0.014  0.185  0.002  0.000  0.798
  0.941  0.059  0.000  0.000  0.000
  0.000  0.000  0.981  0.017  0.002
  0.045  0.756  0.000  0.000  0.199
  0.000  0.000  0.017  0.982  0.001
    occupations:
  0.901  0.006  0.002 -0.147  0.001
  0.006  0.587  0.001  0.002 -0.006
  0.002  0.001  0.896 -0.004 -0.008
 -0.147  0.002 -0.004  0.679  0.000
  0.001 -0.006 -0.008  0.000  0.956
atom   17   Tr[ns(na)] =   8.03565
    eigenvalues: 
  0.601  0.650  0.871  0.919  0.978
    eigenvectors:
  0.001  0.991  0.000  0.000  0.008
  0.000  0.000  0.067  0.933  0.000
  0.000  0.000  0.933  0.067  0.000
  0.000  0.008  0.000  0.000  0.992
  0.999  0.001  0.000  0.000  0.000
    occupations:
  0.652 -0.004 -0.001  0.028  0.001
 -0.004  0.915  0.012  0.001 -0.000
 -0.001  0.012  0.874 -0.000  0.001
  0.028  0.001 -0.000  0.975  0.000
  0.001 -0.000  0.001  0.000  0.601
atom   22   Tr[ns(na)] =   8.03432
    eigenvalues: 
  0.636  0.644  0.862  0.897  0.977
    eigenvectors:
  0.000  0.151  0.000  0.000  0.849
  0.998  0.002  0.000  0.000  0.000
  0.000  0.000  0.926  0.074  0.000
  0.002  0.847  0.000  0.000  0.151
  0.000  0.000  0.074  0.926  0.000
    occupations:
  0.927 -0.000  0.000 -0.119 -0.000
 -0.000  0.636  0.001 -0.000 -0.000
  0.000  0.001  0.865 -0.000  0.009
 -0.119 -0.000 -0.000  0.695  0.000
 -0.000 -0.000  0.009  0.000  0.895
atom   23   Tr[ns(na)] =   8.01659
    eigenvalues: 
  0.636  0.699  0.827  0.866  0.980
    eigenvectors:
  0.000  0.993  0.000  0.000  0.007
  0.000  0.000  0.000  1.000  0.000
  0.000  0.000  1.000  0.000  0.000
  0.000  0.007  0.000  0.000  0.993
  1.000  0.000  0.000  0.000  0.000
    occupations:
  0.701  0.000 -0.000  0.023 -0.000
  0.000  0.866 -0.000  0.000 -0.000
 -0.000 -0.000  0.827  0.001  0.000
  0.023  0.000  0.001  0.978  0.000
 -0.000 -0.000  0.000  0.000  0.636
N of occupied +U levels =  64.2635566
 --- exit write_ns ---

          k = 0.0000 0.0000 0.0000 ( 30479 PWs)   bands (ev):

   -50.2355 -49.9208 -49.8158 -49.1662 -49.1643 -49.1563 -49.1070 -49.0901
   -49.0860 -49.0809 -49.0752 -49.0502 -48.9686 -48.9663 -48.9523 -48.8341
   -48.8290 -48.8108 -48.7947 -48.7386 -48.7263 -48.7194 -48.7093 -48.7004
   -21.7033 -21.4026 -21.2326 -21.1930 -20.7629 -20.6103 -20.5543 -20.4978
   -20.4762 -20.4191 -20.3592 -20.2961 -20.1477 -19.9822 -19.9487 -19.8688
   -19.4566 -19.2648 -19.1123 -10.6865 -10.5363 -10.1320  -9.5335  -9.4315
    -9.3777  -9.2518  -9.1132  -9.0677  -8.9344  -8.8870  -8.8464  -8.7245
    -8.5633  -8.4876  -8.4560  -8.3240  -8.2850  -8.1105  -7.9103  -7.6824
    -7.5442  -7.4317  -7.3751  -7.2874  -6.8397  -6.7367  -6.7170  -6.6396
    -6.6057  -6.5575  -6.3538  -6.2608  -6.1442  -6.1181  -6.0176  -5.6823
    -5.5603  -5.5470  -5.4526  -5.4040  -5.3365  -5.2296  -5.1828  -5.0173
    -4.9813  -4.9377  -4.9267  -4.8755  -4.8620  -4.8342  -4.8199  -4.7855
    -4.6336  -4.5756  -4.4338  -4.3968  -4.3701  -4.3513  -4.2922  -4.0855
    -4.0632  -3.9266  -3.7350  -3.6617  -3.4834  -3.2316  -3.1585  -3.0820
    -2.9391  -2.9214  -2.7620  -2.7435  -2.5677  -2.2968  -2.1445  -1.9946
    -1.9620  -1.8039  -1.5881  -1.4386  -1.3922  -0.4315  -0.1164  -0.0127
     0.0580   0.2519   0.4457   0.5465   0.6931   1.1915   1.3651   1.5873
     1.6400   1.8076   2.0461   2.2380   2.9018   3.9029   4.1197   4.6276
     4.9354   5.6985   5.9150   5.9449   6.0861   6.7057   6.7419   6.9815
     7.3294   7.6067   7.6491   7.7609   7.8255   7.8456   7.8546   7.9473
     7.9822   8.0810   8.1339   8.2396   8.2696   8.3522   8.4333   8.4838
     8.5859   8.6742   8.7459   8.9273   8.9817   9.0119   9.1111   9.1859
     9.3623   9.4707   9.5083   9.6856   9.6901   9.7743   9.9494  10.0126
    10.3665  10.4010  10.4397  10.5886  10.6941  10.7584  10.9308  10.9852
    11.0008  11.0168  11.0787  11.1528  11.2170  11.3398  11.3723  11.3786
    11.5763  11.6417  11.6633  11.7080  11.7497  11.8165  11.8396  11.9665
    11.9721  12.0707  12.1011  12.1441  12.1980  12.2281  12.3277  12.3723
    12.4565  12.4938  12.5424  12.6015  12.7424  12.7543  12.7950  12.8290
    12.8679  13.0292  13.0351  13.2893  13.5317  13.5371  13.5545  13.6289
    13.6963  13.7611  13.8532  13.9282  14.0793  14.1144  14.2200  14.2504
    14.3727  14.5146  14.5572  14.6671  14.8062  14.8231  15.0168  15.1680
    15.2062  15.2512  15.2928  15.4535  15.5202  15.5759  15.6946  15.7561
    15.8149  15.8269  15.8922  16.1529  16.2797  16.3276  16.5123  16.5922
    16.6441  16.7738  16.8683  16.9324  16.9595  17.0221  17.1048  17.1675
    17.2463  17.4655  17.5648  17.5922  17.6209  17.7269  17.8875  17.9321
    18.1226  18.1336  18.1668  18.2648  18.3351  18.3653  18.3912  18.4035
    18.4579  18.5122  18.6120  18.6873  18.7401  18.8007  18.9514  18.9735
    19.0731  19.1169  19.1374  19.2047  19.3271  19.3471  19.4543  19.4891
    19.5242  19.5544  19.6390  19.6571  19.7226  19.8157  19.9147  19.9469
    19.9715  20.0467  20.0763  20.1352  20.1493  20.2791  20.3562  20.4020
    20.4399  20.4949  20.5651  20.5843  20.7457  20.8944  21.0157  21.0231
    21.0652  21.1125  21.1608  21.3116  21.3900  21.4390  21.5093  21.5812
    21.5890  21.6357  21.6744  21.8227  21.8876  21.9036  22.0037  22.0744
    22.0984  22.1877  22.2977  22.3439  22.3471  22.3698  22.3999  22.4652
    22.4797  22.5096  22.5410  22.6106  22.7051

          k = 0.0000 0.2417 0.0000 ( 30538 PWs)   bands (ev):

   -50.2356 -49.9209 -49.8157 -49.1666 -49.1644 -49.1570 -49.1071 -49.0902
   -49.0861 -49.0802 -49.0752 -49.0501 -48.9677 -48.9662 -48.9522 -48.8357
   -48.8289 -48.8106 -48.7950 -48.7386 -48.7264 -48.7195 -48.7094 -48.7004
   -21.6408 -21.3001 -21.2275 -21.1745 -20.7606 -20.7044 -20.6421 -20.6410
   -20.3699 -20.3241 -20.3070 -20.2616 -20.1685 -20.0413 -19.9934 -19.9814
   -19.4523 -19.2657 -19.1125 -10.3225 -10.2551 -10.0519  -9.7266  -9.5228
    -9.4726  -9.3808  -9.2896  -9.0449  -8.8816  -8.8435  -8.7119  -8.5447
    -8.4742  -8.4535  -8.3001  -8.2656  -8.1693  -8.0793  -7.6657  -7.5886
    -7.5515  -7.4672  -7.4063  -7.1166  -6.9889  -6.8418  -6.7757  -6.6778
    -6.6088  -6.5692  -6.4731  -6.3596  -6.2310  -6.1280  -6.0994  -6.0855
    -6.0283  -5.9416  -5.9037  -5.8611  -5.3978  -5.3333  -5.1608  -5.0940
    -5.0639  -4.9541  -4.8826  -4.8004  -4.7181  -4.6454  -4.5795  -4.5402
    -4.4610  -4.4171  -4.3582  -4.3025  -4.1387  -4.0888  -4.0252  -3.9790
    -3.9352  -3.8283  -3.7707  -3.7179  -3.6911  -3.5052  -3.4662  -3.2873
    -3.2007  -2.7738  -2.7313  -2.6750  -2.5954  -2.2146  -2.0379  -2.0149
    -1.8934  -1.7363  -1.6728  -1.5801  -1.1623  -0.9601  -0.7066  -0.1703
     0.0189   0.3576   0.7269   1.1836   1.2826   1.2919   1.4815   1.5975
     1.6317   1.6832   2.0475   2.0688   3.1920   4.1548   4.3461   4.8204
     5.0819   5.2034   5.9045   6.1091   6.1889   6.2427   6.2989   6.6586
     6.8348   6.9902   7.2089   7.4775   7.5459   7.6197   7.7796   8.0392
     8.1041   8.1172   8.2793   8.2880   8.4686   8.4986   8.7026   8.7489
     8.8849   8.9712   9.0068   9.0802   9.1338   9.2700   9.4179   9.5088
     9.5364   9.5916   9.6889   9.7621   9.8661   9.8817   9.9845  10.1233
    10.1372  10.2048  10.2540  10.3907  10.4327  10.4504  10.5983  10.7085
    10.7595  10.8057  10.8729  10.9569  11.1423  11.1771  11.2076  11.2471
    11.3296  11.4083  11.4500  11.5665  11.7650  11.9581  12.0547  12.1277
    12.1535  12.2269  12.3228  12.3541  12.3757  12.5315  12.5503  12.6477
    12.6853  12.8421  12.8582  12.8914  12.9441  13.1206  13.1868  13.3466
    13.4221  13.5082  13.5428  13.6786  13.7756  13.7846  13.8563  13.9027
    13.9295  14.0030  14.0967  14.1225  14.1939  14.3273  14.3584  14.4075
    14.4677  14.5882  14.6703  14.7098  14.8050  14.8844  14.9321  15.1869
    15.2060  15.2787  15.2936  15.4264  15.4743  15.5778  15.7060  15.7343
    15.7886  15.8727  15.9390  15.9904  16.0502  16.0899  16.2636  16.3656
    16.3926  16.5118  16.5549  16.6043  16.7111  16.8518  16.8928  16.9343
    17.0369  17.0722  17.1212  17.1918  17.3072  17.4063  17.4978  17.6254
    17.7751  17.8264  17.9456  17.9991  18.0340  18.1249  18.2428  18.3157
    18.3235  18.3940  18.4348  18.5015  18.5759  18.7203  18.7725  18.8161
    18.8338  18.8684  19.0348  19.0857  19.1477  19.2602  19.3013  19.3650
    19.4118  19.5131  19.5236  19.5496  19.6040  19.7064  19.7582  19.7830
    19.8770  19.9154  19.9773  20.0096  20.0256  20.0541  20.1206  20.1876
    20.2674  20.3133  20.4009  20.4412  20.4980  20.5629  20.6823  20.7106
    20.7930  20.8837  20.9026  21.0105  21.0484  21.1028  21.1128  21.1595
    21.1943  21.2646  21.3148  21.3778  21.4373  21.5686  21.6315  21.7208
    21.7322  21.7768  21.8492  21.9515  21.9921  22.0058  22.0829  22.1016
    22.2375  22.2665  22.3461  22.4184  22.4370

          k = 0.0000-0.4833 0.0000 ( 30492 PWs)   bands (ev):

   -50.2355 -49.9208 -49.8155 -49.1668 -49.1643 -49.1575 -49.1070 -49.0902
   -49.0859 -49.0795 -49.0752 -49.0498 -48.9669 -48.9657 -48.9519 -48.8373
   -48.8286 -48.8102 -48.7951 -48.7386 -48.7264 -48.7195 -48.7094 -48.7004
   -21.5744 -21.2242 -21.1764 -21.1232 -20.7784 -20.7468 -20.7262 -20.7142
   -20.3692 -20.3218 -20.2461 -20.2259 -20.1887 -20.1380 -20.0845 -19.9800
   -19.4482 -19.2667 -19.1133 -10.1591  -9.9103  -9.8288  -9.7274  -9.6833
    -9.5218  -9.3823  -9.3321  -8.9791  -8.7389  -8.6520  -8.5326  -8.4547
    -8.4486  -8.4422  -8.3181  -8.2461  -8.1389  -8.0329  -7.8779  -7.6082
    -7.5283  -7.5115  -7.4366  -7.2489  -7.0344  -7.0076  -6.8483  -6.8340
    -6.6813  -6.5199  -6.4863  -6.4786  -6.4284  -6.3058  -6.2216  -6.2104
    -6.0215  -5.9479  -5.7927  -5.7669  -5.6243  -5.5445  -5.2117  -5.1709
    -5.0834  -5.0500  -4.8173  -4.7123  -4.6837  -4.5909  -4.5327  -4.5228
    -4.4740  -4.4368  -4.3775  -4.2767  -4.0465  -4.0445  -4.0114  -3.9792
    -3.8895  -3.7698  -3.7280  -3.6818  -3.5589  -3.5212  -3.4109  -3.3738
    -3.1352  -2.7629  -2.6260  -2.6057  -2.5991  -2.4912  -2.2519  -2.0157
    -1.8272  -1.6630  -1.6164  -1.6121  -1.4387  -1.1629  -0.9999   0.0426
     0.0850   0.5687   0.9723   1.1781   1.1806   1.4457   1.5383   1.5506
     1.7290   1.9511   1.9892   2.0568   3.7281   4.2660   4.6419   5.0133
     5.0997   5.2490   5.4985   5.6701   5.8471   6.0541   6.4242   6.5062
     6.6906   6.7471   6.9627   7.1703   7.1969   7.5210   7.8936   8.0005
     8.1743   8.3382   8.4426   8.6492   8.6693   8.7576   8.7671   8.9097
     8.9213   8.9557   9.0580   9.0962   9.1134   9.1445   9.2823   9.3310
     9.3381   9.4823   9.5214   9.5879   9.6535   9.7595   9.8683   9.9836
    10.1321  10.2069  10.2324  10.3686  10.4593  10.5425  10.5619  10.7767
    10.8703  10.9907  11.0609  11.2463  11.3207  11.3612  11.4046  11.5161
    11.5562  11.6772  11.7635  11.8813  11.8962  12.0169  12.0557  12.2274
    12.2613  12.2892  12.3813  12.4636  12.5632  12.7163  12.8031  12.8769
    12.9004  12.9373  12.9755  13.0690  13.1017  13.1819  13.2241  13.3607
    13.3743  13.4011  13.4880  13.5544  13.5694  13.7506  13.7755  13.8457
    14.0280  14.1502  14.1768  14.3079  14.3117  14.3874  14.4448  14.4938
    14.6890  14.7760  14.8772  14.9533  15.0734  15.1659  15.2170  15.2340
    15.3187  15.3662  15.4711  15.4894  15.5125  15.7431  15.8034  15.8543
    15.9424  16.0290  16.1156  16.2287  16.2820  16.3052  16.3320  16.3890
    16.4156  16.4623  16.4884  16.5371  16.5639  16.7705  16.7899  16.8293
    16.9301  16.9575  17.0964  17.1260  17.2074  17.2882  17.3455  17.4227
    17.5021  17.5317  17.5863  17.6041  17.7468  17.7624  17.8257  17.8532
    17.8817  17.9570  18.0037  18.1259  18.1914  18.2187  18.2754  18.3219
    18.3679  18.4246  18.4541  18.4817  18.5190  18.5908  18.7161  18.8671
    18.8981  19.1433  19.2835  19.3482  19.4704  19.5030  19.5461  19.6138
    19.6215  19.7103  19.8527  19.9052  20.0786  20.1008  20.2219  20.2525
    20.2952  20.3160  20.3858  20.4474  20.5093  20.5145  20.5297  20.5718
    20.5890  20.6899  20.7179  20.7829  20.7882  20.8032  20.8473  20.8882
    20.9003  21.1058  21.1987  21.2184  21.2357  21.2483  21.2795  21.4577
    21.4713  21.5234  21.5425  21.5913  21.5971  21.6184  21.6423  21.7453
    21.8405  22.0190  22.0533  22.1957  22.2376

          k = 0.2500 0.0000 0.0000 ( 30502 PWs)   bands (ev):

   -50.2356 -49.9199 -49.8158 -49.1633 -49.1576 -49.1516 -49.1063 -49.0902
   -49.0840 -49.0822 -49.0662 -49.0626 -48.9845 -48.9687 -48.9547 -48.8334
   -48.8298 -48.7960 -48.7948 -48.7358 -48.7246 -48.7224 -48.7171 -48.7115
   -21.5990 -21.2956 -21.2434 -21.1065 -20.8385 -20.6730 -20.5993 -20.5326
   -20.4207 -20.3535 -20.3292 -20.2499 -20.1597 -20.0331 -20.0111 -19.9546
   -19.4624 -19.3042 -19.1811 -10.4618 -10.2985  -9.9459  -9.4865  -9.3182
    -9.2671  -9.1732  -9.1221  -9.0338  -8.9771  -8.9325  -8.8659  -8.8404
    -8.6632  -8.4724  -8.3496  -8.2458  -8.2180  -8.0555  -7.9191  -7.6745
    -7.6479  -7.4567  -7.3521  -7.2688  -7.1277  -6.8378  -6.7653  -6.6430
    -6.6108  -6.5291  -6.5115  -6.4554  -6.3291  -6.1728  -6.1030  -6.0390
    -5.8435  -5.8165  -5.7051  -5.6871  -5.5374  -5.4622  -5.4024  -5.2004
    -5.1658  -5.0918  -5.0468  -4.9866  -4.9085  -4.8858  -4.7616  -4.5143
    -4.4233  -4.3517  -4.3171  -4.2863  -4.1763  -4.1478  -3.9086  -3.7923
    -3.7306  -3.6369  -3.4652  -3.3964  -3.3375  -3.3218  -3.1183  -2.9811
    -2.8733  -2.8357  -2.6085  -2.5385  -2.4629  -2.4392  -2.1898  -2.1268
    -2.0534  -1.9358  -1.7572  -1.5597  -1.2460  -0.3120   0.0289   0.1070
     0.1634   0.3907   0.4202   0.5440   0.7508   0.8750   1.2789   1.3535
     1.4778   1.6004   1.6632   2.1230   3.2422   4.2144   4.3707   4.8732
     5.1307   5.2037   5.8967   6.1420   6.2127   6.2737   6.4791   6.7006
     7.0036   7.1597   7.3199   7.5355   7.6471   7.7809   7.9078   7.9339
     8.0334   8.0856   8.1351   8.3462   8.3631   8.4461   8.5371   8.6936
     8.8097   8.8497   8.9447   9.1403   9.1863   9.1986   9.3243   9.4065
     9.5499   9.6489   9.7265   9.9104   9.9354   9.9681  10.0426  10.1150
    10.1309  10.2789  10.3098  10.3871  10.4312  10.5417  10.6031  10.7005
    10.8151  10.8961  10.9289  10.9657  11.0435  11.1804  11.2216  11.2579
    11.3256  11.3876  11.4685  11.5119  11.6328  11.7399  11.8930  11.9205
    12.0448  12.1253  12.1876  12.3162  12.3931  12.4766  12.5140  12.5429
    12.7029  12.7605  12.8083  12.8745  13.0468  13.1670  13.2740  13.3320
    13.4704  13.6103  13.7125  13.7213  13.8092  13.8489  13.8787  13.9248
    13.9832  14.0649  14.1362  14.2094  14.2582  14.2938  14.3880  14.4470
    14.4630  14.5957  14.6717  14.7382  14.8229  14.9075  15.1631  15.2225
    15.2506  15.3177  15.4292  15.4778  15.5576  15.6262  15.6909  15.7870
    15.8277  15.8997  15.9604  15.9938  16.0618  16.0849  16.1827  16.2724
    16.3319  16.3820  16.5144  16.5533  16.6191  16.7076  16.9035  16.9945
    17.0856  17.1756  17.1983  17.2883  17.3702  17.4001  17.5949  17.6798
    17.8046  17.8556  17.9401  18.0127  18.0482  18.0710  18.1794  18.2574
    18.4899  18.5623  18.5825  18.7791  18.8206  18.8675  18.9488  18.9941
    19.0315  19.0716  19.0866  19.1394  19.2395  19.2853  19.3156  19.3258
    19.3946  19.4626  19.5371  19.5764  19.6096  19.6533  19.7327  19.7492
    19.7767  19.8195  19.8680  19.9080  19.9368  20.0809  20.1971  20.2625
    20.3205  20.3327  20.3855  20.4189  20.4412  20.4660  20.5714  20.5983
    20.7013  20.7155  20.7409  20.7872  20.8521  20.8954  20.9378  21.0461
    21.1563  21.2068  21.2193  21.2752  21.3505  21.3798  21.4820  21.5033
    21.5782  21.5895  21.6399  21.7149  21.8604  21.8934  21.9364  22.0348
    22.0796  22.1155  22.1458  22.1877  22.2757

          k = 0.2500 0.2417 0.0000 ( 30481 PWs)   bands (ev):

   -50.2356 -49.9199 -49.8156 -49.1633 -49.1581 -49.1517 -49.1064 -49.0902
   -49.0833 -49.0822 -49.0661 -49.0626 -48.9846 -48.9675 -48.9542 -48.8348
   -48.8298 -48.7956 -48.7949 -48.7358 -48.7247 -48.7224 -48.7171 -48.7115
   -21.5484 -21.2415 -21.1988 -21.0695 -20.8273 -20.6975 -20.6158 -20.5625
   -20.4199 -20.3916 -20.2763 -20.2680 -20.1890 -20.1011 -20.0655 -20.0113
   -19.4571 -19.3068 -19.1816 -10.1076 -10.0386  -9.8461  -9.5987  -9.3441
    -9.2757  -9.2454  -9.1572  -9.0329  -8.9284  -8.8424  -8.7772  -8.7343
    -8.5588  -8.4477  -8.3458  -8.2164  -8.1678  -7.9202  -7.7549  -7.7143
    -7.5495  -7.4561  -7.3488  -7.2703  -7.1908  -7.0482  -6.8713  -6.7821
    -6.7409  -6.6206  -6.5728  -6.5327  -6.4592  -6.3530  -6.2477  -6.2233
    -6.1203  -6.0623  -6.0041  -5.7704  -5.7355  -5.6350  -5.3487  -5.2916
    -5.2187  -5.0532  -4.9905  -4.9690  -4.8295  -4.6857  -4.5922  -4.5117
    -4.3743  -4.2121  -4.1724  -4.0288  -3.9610  -3.8351  -3.7605  -3.7155
    -3.6196  -3.5891  -3.5125  -3.4702  -3.3961  -3.3683  -3.2811  -3.2420
    -3.1147  -2.7753  -2.6361  -2.5559  -2.4512  -2.2821  -2.1411  -2.0822
    -2.0338  -1.9030  -1.8347  -1.7169  -1.0654  -0.7271  -0.4835  -0.0753
     0.1456   0.3774   0.6024   0.8641   1.0748   1.2005   1.2817   1.3960
     1.4901   1.6651   1.7100   2.0469   3.5125   4.4407   4.5969   5.0540
     5.2981   5.3206   5.4958   6.0717   6.3696   6.4355   6.4531   6.5486
     6.6868   6.8267   6.9371   7.1529   7.2930   7.4706   7.5955   7.7214
     7.8739   7.9842   8.0564   8.1367   8.2701   8.3586   8.4607   8.4985
     8.7840   8.8345   8.8645   8.9815   9.2112   9.3758   9.4778   9.5496
     9.5946   9.7629   9.8089   9.8417   9.9380  10.0896  10.1592  10.2576
    10.3301  10.4330  10.4955  10.6357  10.7112  10.7716  10.8489  10.9261
    10.9694  11.0732  11.1330  11.2013  11.3215  11.4144  11.5000  11.5628
    11.5999  11.7195  11.7560  11.7777  11.8684  11.9763  12.0904  12.1570
    12.2299  12.2644  12.3454  12.4373  12.5068  12.6111  12.6972  12.7423
    12.7809  12.8812  12.9351  13.0416  13.0773  13.1199  13.1907  13.2666
    13.3198  13.4201  13.4968  13.5587  13.7472  13.7806  13.8136  13.8435
    13.9764  14.0995  14.1504  14.1851  14.2568  14.3554  14.4167  14.4755
    14.5810  14.6334  14.7601  14.8216  14.9973  15.1349  15.2205  15.2897
    15.3937  15.4354  15.5316  15.5378  15.5973  15.6429  15.7445  15.8132
    15.9204  15.9585  15.9772  16.0534  16.1115  16.1700  16.2636  16.3240
    16.3792  16.4012  16.4494  16.5000  16.6002  16.6227  16.6860  16.7202
    16.8109  16.8913  16.9586  17.0060  17.1584  17.1972  17.2487  17.3141
    17.3962  17.4892  17.5264  17.5868  17.6315  17.7550  17.7972  17.8292
    17.8849  18.0207  18.1014  18.1301  18.1745  18.2857  18.3272  18.3440
    18.4333  18.5917  18.6628  18.6990  18.7316  18.8322  18.8735  18.9582
    19.0101  19.0758  19.1137  19.1663  19.2508  19.2856  19.3494  19.4629
    19.5279  19.6043  19.6508  19.7588  19.7920  19.8694  20.0432  20.0809
    20.1096  20.2181  20.2715  20.4299  20.4783  20.5451  20.6255  20.6665
    20.7113  20.7592  20.8907  20.9207  20.9670  21.0068  21.0575  21.2031
    21.2586  21.3273  21.3396  21.3964  21.4471  21.5752  21.6485  21.7214
    21.7497  21.8440  21.8887  21.9012  21.9395  22.0128  22.0827  22.1628
    22.1996  22.3002  22.4381  22.4690  22.5494

          k = 0.2500-0.4833 0.0000 ( 30510 PWs)   bands (ev):

   -50.2356 -49.9199 -49.8155 -49.1635 -49.1587 -49.1520 -49.1063 -49.0902
   -49.0825 -49.0822 -49.0661 -49.0625 -48.9846 -48.9667 -48.9537 -48.8362
   -48.8300 -48.7954 -48.7952 -48.7358 -48.7247 -48.7224 -48.7171 -48.7114
   -21.4977 -21.2383 -21.0603 -21.0208 -20.7970 -20.7235 -20.6519 -20.6237
   -20.4453 -20.3864 -20.3113 -20.2696 -20.2446 -20.1677 -20.1164 -20.0113
   -19.4516 -19.3096 -19.1825  -9.9637  -9.6966  -9.5997  -9.4486  -9.4385
    -9.3310  -9.2782  -9.1420  -9.0042  -8.7904  -8.7009  -8.6911  -8.5411
    -8.5309  -8.4283  -8.3417  -8.2062  -8.0626  -7.9446  -7.8211  -7.6928
    -7.6171  -7.5465  -7.3433  -7.2754  -7.1908  -7.1740  -7.1273  -7.0370
    -6.9707  -6.8232  -6.7438  -6.6733  -6.5808  -6.4432  -6.3661  -6.3226
    -6.1324  -6.1257  -6.0893  -5.8691  -5.8302  -5.5810  -5.4494  -5.3810
    -5.2888  -5.0583  -4.9171  -4.7849  -4.7537  -4.5735  -4.5247  -4.3931
    -4.2912  -4.1282  -4.0709  -4.0142  -3.9011  -3.8732  -3.8061  -3.7332
    -3.6152  -3.5706  -3.5249  -3.4183  -3.3583  -3.2915  -3.2705  -3.1686
    -3.0579  -2.6482  -2.6245  -2.5574  -2.4902  -2.4217  -2.3340  -2.0642
    -1.9601  -1.8674  -1.7896  -1.7730  -1.1951  -0.9637  -0.8973   0.1166
     0.1739   0.4610   0.6759   0.8198   0.8918   1.2251   1.5089   1.5930
     1.6074   1.7885   1.8568   1.9256   4.0031   4.5370   4.8511   5.2623
     5.3528   5.5105   5.5965   5.7395   5.9327   6.1164   6.3194   6.3458
     6.6970   6.9734   7.0474   7.1247   7.2063   7.2733   7.2843   7.4203
     7.5742   7.8073   7.9088   8.0153   8.1744   8.2119   8.2789   8.3946
     8.4943   8.6820   8.7641   8.9484   8.9955   9.0700   9.4181   9.4603
     9.6071   9.7612   9.9596  10.0296  10.0396  10.1851  10.3778  10.4605
    10.5978  10.7381  10.8511  10.8797  10.9804  11.0436  11.1221  11.2127
    11.2950  11.3696  11.4402  11.4782  11.5732  11.6040  11.6555  11.8154
    11.8597  11.9089  11.9514  12.0618  12.1779  12.1982  12.3009  12.3222
    12.4224  12.4850  12.6094  12.6186  12.6653  12.7278  12.8482  12.8953
    12.9221  13.0520  13.0949  13.2013  13.2188  13.2729  13.3263  13.3986
    13.4455  13.4505  13.5771  13.6374  13.7109  13.7463  13.8170  13.9173
    14.0104  14.1207  14.3053  14.3368  14.3802  14.4201  14.5132  14.5366
    14.5601  14.5997  14.6453  14.7023  14.7414  14.8575  14.8871  14.9536
    15.0174  15.0403  15.1432  15.2489  15.2684  15.3795  15.4337  15.5005
    15.5569  15.6167  15.8434  15.8749  15.9936  16.0627  16.0869  16.1187
    16.2401  16.3331  16.3776  16.4685  16.5471  16.6169  16.6878  16.7218
    16.8168  16.8891  16.9103  16.9410  17.0585  17.1135  17.1763  17.2201
    17.2716  17.3493  17.3772  17.4102  17.4393  17.5310  17.6837  17.7646
    17.8255  17.8838  17.9423  18.0239  18.0998  18.1255  18.2250  18.3209
    18.4015  18.4358  18.4647  18.5117  18.5601  18.6369  18.6694  18.6849
    18.7463  18.8698  18.9218  18.9481  19.0267  19.0671  19.1153  19.2374
    19.3644  19.3780  19.5004  19.5503  19.6432  19.6758  19.7346  19.7675
    19.8321  19.8756  19.8956  19.9368  20.0409  20.1596  20.3065  20.4112
    20.4646  20.5614  20.6190  20.6666  20.7606  20.8515  20.9079  20.9397
    21.0424  21.1035  21.1960  21.2576  21.3297  21.3640  21.4771  21.5850
    21.7059  21.7454  21.8445  21.9141  21.9923  22.0310  22.1069  22.1370
    22.1752  22.2585  22.2924  22.4805  22.5141

          k =-0.5000 0.0000 0.0000 ( 30524 PWs)   bands (ev):

   -50.2356 -49.9190 -49.8158 -49.1612 -49.1600 -49.1261 -49.1014 -49.1011
   -49.0902 -49.0869 -49.0743 -49.0271 -49.0265 -48.9680 -48.9575 -48.8322
   -48.8311 -48.7949 -48.7602 -48.7564 -48.7294 -48.7290 -48.7181 -48.7170
   -21.3878 -21.3601 -21.0548 -21.0445 -20.8769 -20.8702 -20.7743 -20.4004
   -20.3846 -20.2454 -20.2188 -20.1892 -20.1608 -20.1544 -20.1129 -20.1048
   -19.4693 -19.3041 -19.2919  -9.9139  -9.8059  -9.6820  -9.6780  -9.6112
    -9.4993  -9.1546  -9.1057  -9.0670  -8.9756  -8.9552  -8.8780  -8.6706
    -8.6354  -8.3790  -8.3406  -8.2752  -8.2426  -7.9418  -7.9224  -7.5573
    -7.4414  -7.3555  -7.2532  -7.1476  -7.1090  -7.0771  -7.0669  -6.9022
    -6.8694  -6.7308  -6.7076  -6.5060  -6.4610  -6.4041  -6.1971  -6.1940
    -6.1197  -6.1090  -6.0326  -5.9416  -5.7887  -5.6105  -5.4578  -5.4411
    -5.0772  -5.0526  -4.9846  -4.9686  -4.8180  -4.7571  -4.5939  -4.3960
    -4.3163  -4.2813  -4.1256  -4.1138  -4.0617  -4.0158  -3.9495  -3.6897
    -3.6795  -3.4589  -3.4155  -3.2520  -3.1736  -3.0303  -2.8891  -2.8122
    -2.7919  -2.6798  -2.4687  -2.4672  -2.4272  -2.3221  -2.3174  -2.2451
    -2.1714  -2.1190  -1.8716  -1.8514  -1.0996  -0.0665   0.1935   0.2758
[...]
    12.2982  12.3517  12.5117  12.5353  12.5846  12.6994  12.8278  12.8331
    13.0235  13.0299  13.0702  13.0848  13.2877  13.3236  13.3892  13.4547
    13.4948  13.5298  13.5910  13.6599  13.7619  13.7829  13.9063  13.9699
    14.0103  14.1029  14.1256  14.2724  14.3012  14.3191  14.4132  14.6512
    14.6580  14.7261  14.7895  14.8802  14.9131  14.9979  15.0481  15.0636
    15.1492  15.1843  15.3700  15.4770  15.7561  15.9090  16.0322  16.0950
    16.1377  16.1621  16.2240  16.2595  16.3311  16.3616  16.3884  16.4247
    16.5071  16.5301  16.6150  16.6573  16.6993  16.7327  16.7559  16.7747
    16.7906  16.8590  16.8671  16.9567  17.1371  17.1718  17.2920  17.4042
    17.4845  17.6455  17.6811  17.7112  17.8410  17.8596  17.9674  18.0554
    18.1196  18.2794  18.2862  18.3452  18.4316  18.4505  18.4781  18.5984
    18.6238  18.6828  18.7936  18.8913  18.9828  19.0301  19.0571  19.1322
    19.1671  19.1783  19.2026  19.2600  19.3459  19.3730  19.4157  19.5542
    19.6364  19.6567  19.7590  19.7774  19.8407  19.8791  19.8811  19.9985
    20.1074  20.1156  20.1276  20.2508  20.2692  20.2901  20.3393  20.3485
    20.3790  20.4430  20.4880  20.5017  20.6355  20.6497  20.8455  20.9039
    20.9068  20.9501  20.9694  21.0851  21.1007  21.1244  21.1897  21.2887
    21.2970  21.3194  21.3445  21.3797  21.4317  21.4504  21.4906  21.5385
    21.7741  21.7982  21.8805  21.9323  22.0619

          k =-0.5000 0.2417 0.0000 ( 30500 PWs)   bands (ev):

   -50.2556 -49.9217 -49.8384 -49.1541 -49.1532 -49.1233 -49.1066 -49.1024
   -49.1009 -49.0883 -49.0806 -49.0149 -49.0141 -48.9642 -48.9604 -48.8164
   -48.8144 -48.7966 -48.7399 -48.7364 -48.7227 -48.7224 -48.7054 -48.7036
   -21.3803 -21.3712 -20.9924 -20.9558 -20.8050 -20.7951 -20.7510 -20.4614
   -20.4279 -20.3156 -20.3039 -20.2694 -20.2478 -20.1929 -20.1222 -20.1130
   -19.4346 -19.2788 -19.2754  -9.6337  -9.5962  -9.5365  -9.5049  -9.3458
    -9.3315  -9.1312  -9.1124  -9.0409  -8.9681  -8.9470  -8.9142  -8.6794
    -8.6333  -8.4657  -8.4123  -8.2259  -8.1152  -7.9591  -7.8134  -7.6592
    -7.6225  -7.5377  -7.4731  -7.3891  -7.2953  -7.2435  -7.0070  -6.9779
    -6.8821  -6.8274  -6.7031  -6.5708  -6.5446  -6.4353  -6.3340  -6.2158
    -6.1858  -6.0881  -6.0285  -5.9640  -5.8977  -5.7613  -5.6855  -5.5195
    -5.3101  -5.2660  -5.1426  -4.9947  -4.8286  -4.7487  -4.4182  -4.2284
    -4.0917  -4.0833  -4.0005  -3.8438  -3.7599  -3.7261  -3.6481  -3.6189
    -3.5650  -3.5374  -3.4374  -3.3201  -3.2165  -3.1497  -3.0119  -2.9465
    -2.6640  -2.6579  -2.5119  -2.4880  -2.3688  -2.3173  -2.2516  -2.2282
    -2.1914  -2.1831  -1.9756  -1.9347  -0.9366  -0.2354  -0.0376   0.1029
     0.1113   0.3051   0.4276   0.5626   0.6270   0.9857   1.1222   1.2779
     1.3068   1.5458   1.7973   1.9651   4.2522   4.2657   4.9319   5.3136
     5.3198   5.5663   5.7125   5.8474   5.9877   6.1218   6.2616   6.4064
     6.7220   7.0539   7.0824   7.1352   7.1969   7.2128   7.2672   7.4014
     7.6247   7.7458   7.8945   8.0882   8.1548   8.3273   8.3712   8.5384
     8.6131   8.7351   8.7978   8.9499   9.0404   9.1754   9.5211   9.6991
     9.7287   9.8761   9.9407   9.9941  10.0574  10.1612  10.2273  10.3201
    10.4430  10.6547  10.6770  10.7085  10.7952  10.8171  10.9076  11.0099
    11.2302  11.2593  11.3156  11.3797  11.4692  11.4960  11.6636  11.7150
    11.8237  11.8776  11.9803  12.0535  12.1711  12.1748  12.2233  12.2767
    12.4770  12.5238  12.5667  12.6705  12.6965  12.8599  13.0335  13.1044
    13.1360  13.1755  13.1952  13.2083  13.3056  13.4094  13.4295  13.5509
    13.6509  13.6706  13.7335  13.8013  13.8760  13.9225  14.0034  14.0786
    14.0995  14.1953  14.2539  14.2741  14.3566  14.4122  14.4465  14.4853
    14.5611  14.6450  14.7432  14.8207  14.9012  14.9134  14.9682  15.0042
    15.0307  15.0747  15.1511  15.1909  15.3068  15.3706  15.3789  15.4757
    15.5214  15.5678  15.8057  15.8875  15.9368  16.0026  16.1430  16.1851
    16.1972  16.3152  16.3761  16.4246  16.4416  16.4855  16.5498  16.5711
    16.5766  16.6840  16.7651  16.7964  16.9063  16.9750  17.0304  17.0872
    17.1727  17.2776  17.3092  17.3301  17.5644  17.6575  17.6977  17.7192
    17.8188  17.8345  17.8777  17.9351  17.9991  18.1216  18.3399  18.3973
    18.4585  18.4854  18.5079  18.5702  18.6201  18.7062  18.7614  18.8291
    18.8653  18.9511  18.9767  19.0411  19.0771  19.1741  19.2014  19.3449
    19.3823  19.4330  19.4932  19.5094  19.5696  19.6415  19.7300  19.7828
    19.8683  19.9475  20.1348  20.1489  20.2006  20.3181  20.3510  20.4104
    20.4374  20.5838  20.6342  20.7173  20.7569  20.8598  20.9190  21.0772
    21.1055  21.2518  21.3119  21.4439  21.4716  21.5084  21.5819  21.6445
    21.6756  21.6922  21.8095  21.8879  21.9404  22.0505  22.1421  22.1866
    22.2139  22.2817  22.3280  22.4013  22.4324

          k =-0.5000-0.4833 0.0000 ( 30496 PWs)   bands (ev):

   -50.2556 -49.9217 -49.8382 -49.1549 -49.1531 -49.1234 -49.1066 -49.1025
   -49.1010 -49.0875 -49.0807 -49.0148 -49.0140 -48.9635 -48.9597 -48.8170
   -48.8151 -48.7968 -48.7397 -48.7362 -48.7227 -48.7224 -48.7055 -48.7036
   -21.3618 -21.3564 -20.9078 -20.7754 -20.7748 -20.7466 -20.5981 -20.5713
   -20.5490 -20.4581 -20.4140 -20.3239 -20.3215 -20.1913 -20.1267 -20.1133
   -19.4271 -19.2852 -19.2745  -9.6174  -9.5269  -9.1475  -9.1168  -9.1036
    -9.0938  -9.0451  -9.0253  -8.9271  -8.7748  -8.6935  -8.6849  -8.6772
    -8.6590  -8.5301  -8.5089  -8.3881  -8.3642  -8.0835  -8.0725  -7.9530
    -7.8150  -7.6589  -7.4993  -7.3456  -7.2768  -7.2580  -7.1941  -7.0402
    -6.9435  -6.8414  -6.7153  -6.6372  -6.6005  -6.5860  -6.5817  -6.5439
    -6.4320  -6.3044  -6.2302  -6.0072  -5.9993  -5.7093  -5.6168  -5.4261
    -5.3973  -5.2552  -5.1511  -4.9323  -4.7700  -4.6508  -4.3244  -4.1320
    -4.1077  -3.9665  -3.8063  -3.7294  -3.7013  -3.6739  -3.6318  -3.5414
    -3.4422  -3.4264  -3.3529  -3.2891  -3.2040  -3.1486  -3.0667  -3.0388
    -2.6240  -2.5458  -2.5365  -2.4186  -2.3959  -2.3282  -2.2737  -2.2195
    -2.1581  -2.1028  -2.0968  -2.0579  -0.8381  -0.6483  -0.2526  -0.2199
    -0.2019   0.2649   0.5121   0.6147   0.6170   1.2767   1.2912   1.3491
     1.6087   1.7736   1.7885   1.8468   4.6574   4.6581   5.1671   5.2419
     5.2449   5.9725   5.9764   6.0765   6.0806   6.1833   6.2383   6.3209
     6.4336   6.5976   6.6411   6.7647   6.8291   6.9920   7.0905   7.1998
     7.4407   7.6786   7.7339   7.7988   7.8242   7.8397   7.9424   8.0773
     8.4362   8.7651   8.8563   8.9925   9.0717   9.2491   9.2772   9.2999
     9.5007   9.5537  10.1117  10.2221  10.2368  10.4726  10.4913  10.6638
    10.7201  10.7973  10.9938  11.1167  11.1952  11.2128  11.3222  11.3923
    11.5125  11.5326  11.8033  11.8252  11.8887  11.9954  12.1938  12.2188
    12.2947  12.3976  12.4759  12.5564  12.6924  12.7363  12.7969  12.8760
    12.8989  12.9255  12.9727  13.1040  13.1202  13.1473  13.1954  13.2269
    13.3177  13.3399  13.4907  13.5027  13.5125  13.5716  13.6232  13.6309
    13.6499  13.6760  13.7255  13.7985  13.8138  13.8287  13.8686  13.8734
    14.0862  14.1074  14.1283  14.1589  14.1738  14.1853  14.2504  14.3023
    14.3863  14.3947  14.4182  14.4471  14.5058  14.6028  14.6828  14.7705
    14.8353  14.9180  15.0122  15.0744  15.1289  15.1317  15.1612  15.2145
    15.2355  15.2749  15.3033  15.3520  15.4270  15.4623  15.5792  15.6574
    15.7253  15.7459  15.8596  15.9117  15.9429  15.9785  16.0302  16.1500
    16.2217  16.2538  16.3938  16.4565  16.5497  16.6189  16.7052  16.7509
    16.8811  16.9421  16.9806  17.0386  17.0945  17.1550  17.1985  17.3132
    17.5416  17.6323  17.6802  17.8117  17.9664  17.9968  18.0588  18.1302
    18.1625  18.1909  18.2208  18.2931  18.4754  18.5395  18.5858  18.7609
    18.8329  19.1015  19.1835  19.2583  19.2810  19.3890  19.4503  19.4588
    19.5166  19.6487  19.7458  20.0613  20.1112  20.1531  20.1959  20.2329
    20.2518  20.3327  20.5258  20.6130  20.6532  20.7191  20.7421  20.7729
    20.7883  20.8799  21.0430  21.1329  21.1562  21.2110  21.2281  21.2724
    21.3204  21.3492  21.4025  21.4736  21.5236  21.5348  21.5669  21.6122
    21.6165  21.6441  21.6820  21.7047  21.7658  21.9186  21.9373  21.9872
    22.0302  22.0985  22.1211  22.2600  22.3179

          k =-0.2500 0.2417 0.0000 ( 30481 PWs)   bands (ev):

   -50.2556 -49.9225 -49.8384 -49.1561 -49.1510 -49.1493 -49.1068 -49.1066
   -49.0879 -49.0853 -49.0633 -49.0538 -48.9723 -48.9657 -48.9567 -48.8179
   -48.8128 -48.7965 -48.7754 -48.7291 -48.7157 -48.7111 -48.6988 -48.6976
   -21.5605 -21.2693 -21.1977 -21.0668 -20.8140 -20.6874 -20.6101 -20.5663
   -20.4309 -20.3863 -20.2841 -20.2710 -20.2249 -20.1002 -20.0646 -20.0262
   -19.4297 -19.2812 -19.1623 -10.1070 -10.0388  -9.8512  -9.6026  -9.3589
    -9.2896  -9.2742  -9.1401  -9.0354  -8.9284  -8.8499  -8.7927  -8.7422
    -8.5629  -8.4574  -8.3732  -8.2221  -8.1847  -7.9463  -7.7548  -7.6536
    -7.5916  -7.4442  -7.3417  -7.2654  -7.1871  -7.0338  -6.8820  -6.8310
    -6.7084  -6.6815  -6.5361  -6.4818  -6.4338  -6.3505  -6.3006  -6.2237
    -6.0937  -6.0553  -5.9779  -5.8118  -5.7378  -5.5986  -5.3833  -5.3036
    -5.2399  -5.0500  -4.9828  -4.8628  -4.8375  -4.6853  -4.5681  -4.4911
    -4.3556  -4.2030  -4.1668  -4.0434  -3.9369  -3.8218  -3.7720  -3.6879
    -3.6616  -3.6041  -3.5102  -3.4485  -3.4349  -3.3653  -3.2785  -3.2437
    -3.0917  -2.7548  -2.6257  -2.5474  -2.4533  -2.2885  -2.1501  -2.0637
    -2.0251  -1.8916  -1.8246  -1.7107  -1.0346  -0.7171  -0.4823  -0.0735
     0.1672   0.3992   0.6121   0.8419   1.0786   1.2360   1.2882   1.4256
     1.5011   1.6831   1.7193   2.0905   3.4924   4.4555   4.5908   5.0606
     5.3057   5.3310   5.4864   6.0733   6.3738   6.4054   6.4458   6.5492
     6.6730   6.7943   6.9378   7.1485   7.3045   7.4802   7.6039   7.7147
     7.8551   7.9976   8.0779   8.1540   8.2582   8.3445   8.4423   8.5294
     8.7639   8.8332   8.8812   9.0001   9.2207   9.3947   9.4777   9.5570
     9.6336   9.7505   9.7977   9.8566   9.9294  10.1076  10.1721  10.2395
    10.3322  10.4233  10.4614  10.6078  10.7337  10.7844  10.8433  10.9396
    10.9807  11.1057  11.1452  11.2151  11.3403  11.4621  11.5085  11.5534
    11.5922  11.7253  11.7527  11.7886  11.8732  12.0222  12.1132  12.1859
    12.2322  12.2714  12.3533  12.4415  12.5064  12.6307  12.6813  12.7502
    12.7991  12.8539  12.9521  13.0351  13.0879  13.1344  13.1758  13.2740
    13.3053  13.4167  13.5129  13.5564  13.7315  13.7953  13.8296  13.8678
    13.9270  14.1171  14.1626  14.1969  14.2657  14.3642  14.3967  14.4902
    14.5930  14.6140  14.7265  14.8073  15.0039  15.1286  15.2749  15.3069
    15.3661  15.4332  15.4988  15.5269  15.5741  15.6472  15.7202  15.7687
    15.8719  15.9434  16.0215  16.0456  16.1188  16.1804  16.2621  16.3238
    16.3878  16.4146  16.4650  16.4903  16.5689  16.6183  16.6633  16.7338
    16.7991  16.8857  16.9974  17.0480  17.1249  17.2098  17.2567  17.3343
    17.3864  17.4861  17.5469  17.5918  17.6309  17.7454  17.8152  17.8495
    17.9211  18.0189  18.0845  18.1521  18.1645  18.2929  18.3114  18.3872
    18.4604  18.5691  18.6592  18.7152  18.7895  18.8445  18.8947  18.9661
    19.0150  19.0566  19.1051  19.2005  19.2523  19.2810  19.3417  19.4765
    19.5410  19.6008  19.6616  19.7335  19.7836  19.8901  20.0259  20.0617
    20.1929  20.2447  20.2752  20.3333  20.5084  20.5585  20.6228  20.6794
    20.7067  20.7803  20.8540  20.9073  20.9392  21.0255  21.0930  21.2008
    21.2795  21.3302  21.3517  21.3922  21.4365  21.5245  21.6743  21.7404
    21.7790  21.8435  21.8891  21.9136  21.9445  22.0411  22.0962  22.1750
    22.2042  22.3074  22.4061  22.4646  22.5322

     the Fermi energy is    -2.1725 ev

!    total energy              =   -1978.88828839 Ry
     Harris-Foulkes estimate   =   -1978.88828839 Ry
     estimated scf accuracy    <          5.1E-09 Ry

     The total energy is the sum of the following terms:

     one-electron contribution =  -23286.93316924 Ry
     hartree contribution      =   11690.26240445 Ry
     xc contribution           =    -372.06715143 Ry
     ewald contribution        =    9988.46638287 Ry
     Hubbard energy            =       1.38360300 Ry
     smearing contrib. (-TS)   =      -0.00035805 Ry

     convergence has been achieved in  19 iterations

     Forces acting on atoms (Ry/au):


     negative rho (up, down):  0.690E+00 0.000E+00
     atom    1 type  1   force =    -0.00753402   -0.01268749   -0.00031604
     atom    2 type  1   force =     0.00008557    0.00407777    0.00097112
     atom    3 type  2   force =     0.03828600    0.00758601   -0.00062375
     atom    4 type  2   force =     0.00875701    0.00926549   -0.00002814
     atom    5 type  1   force =    -0.00265544   -0.02999895    0.00030468
     atom    6 type  1   force =     0.00307504    0.02671143    0.00032014
     atom    7 type  1   force =    -0.00028945   -0.00178289    0.00058712
     atom    8 type  1   force =    -0.00312467   -0.00108267    0.00024393
     atom    9 type  2   force =     0.00291102    0.00037058   -0.00031481
     atom   10 type  2   force =    -0.00003069   -0.00121000   -0.00052364
     atom   11 type  1   force =    -0.00115096    0.01091504   -0.00052301
     atom   12 type  1   force =    -0.00166832   -0.01158441   -0.00057986
     atom   13 type  1   force =    -0.00077808    0.00010681    0.00018007
     atom   14 type  1   force =    -0.00677194   -0.01263943    0.00001491
     atom   15 type  1   force =     0.00013495    0.00384962    0.00047248
     atom   16 type  2   force =    -0.03862568    0.00634811   -0.00062075
     atom   17 type  2   force =     0.00849745    0.00945911   -0.00027465
     atom   18 type  1   force =    -0.00181753   -0.02968859    0.00029554
     atom   19 type  1   force =     0.00366823    0.02714869    0.00032602
     atom   20 type  1   force =    -0.00018277   -0.00472833   -0.00092684
     atom   21 type  1   force =    -0.00301631   -0.00069501    0.00014430
     atom   22 type  2   force =    -0.00022960    0.00056296   -0.00030965
     atom   23 type  2   force =    -0.00011461    0.00099182    0.00035289
     atom   24 type  1   force =     0.00080789    0.01097954   -0.00051808
     atom   25 type  1   force =     0.00245028   -0.01165062   -0.00057531
     atom   26 type  1   force =    -0.00073860   -0.00003325   -0.00038106
     atom   27 type  3   force =    -0.00001945   -0.00049533    0.00076896
     atom   28 type  3   force =    -0.00001552   -0.00028940    0.00069394
     atom   29 type  3   force =     0.00017697    0.00016450    0.00017194
     atom   30 type  3   force =    -0.00007497    0.00018784    0.00010265
     atom   31 type  1   force =    -0.00001182   -0.00015895    0.00056489

     Total force =     0.002767     Total SCF correction =     0.000171

     bfgs converged in   7 scf cycles and   6 bfgs steps
     (criteria: energy < 0.10E-03, force < 0.10E-02)

     End of BFGS Geometry Optimization

     Final energy   =   -1978.8882883910 Ry
Begin final coordinates

ATOMIC_POSITIONS (crystal)
O0       0.000000000   0.000000000   0.378200960    0   0   1
O0       0.000000000   0.500000000   0.402327240    0   0   1
Rh1      0.250000000   0.500000000   0.453339962    0   0   1
Rh1      0.000000000   0.000000000   0.452433154    0   0   1
O0       0.250000000   0.810000000   0.452394657    0   0   1
O0       0.250000000   0.190000000   0.452183260    0   0   1
O0       0.000000000   0.500000000   0.499403243    0   0   1
O0       0.000000000   0.000000000   0.527631602    0   0   1
Rh1      0.250000000   0.000000000   0.574768780    0   0   1
Rh1      0.000000000   0.500000000   0.570834727    0   0   1
O0       0.250000000   0.690000000   0.574809345    0   0   1
O0       0.250000000   0.310000000   0.574762226    0   0   1
O0       0.000000000   0.000000000   0.619940787    0   0   1
O0       0.500000000   0.000000000   0.378101932    0   0   1
O0       0.500000000   0.500000000   0.402184491    0   0   1
Rh1      0.750000000   0.500000000   0.453342447    0   0   1
Rh1      0.500000000   0.000000000   0.452325235    0   0   1
O0       0.750000000   0.810000000   0.452370651    0   0   1
O0       0.750000000   0.190000000   0.452198163    0   0   1
O0       0.500000000   0.500000000   0.501438704    0   0   1
O0       0.500000000   0.000000000   0.527516750    0   0   1
Rh1      0.750000000   0.000000000   0.574764929    0   0   1
Rh1      0.500000000   0.500000000   0.579327239    0   0   1
O0       0.750000000   0.690000000   0.574774922    0   0   1
O0       0.750000000   0.310000000   0.574777405    0   0   1
O0       0.500000000   0.000000000   0.620034435    0   0   1
H2      -0.000133460   0.636678379   0.384899931
H2       0.499852415   0.637919002   0.385307159
H2       0.147882501   0.034460252   0.367308032
H2       0.647994730   0.034528401   0.367259218
O0       0.500069792   0.498635349   0.645858415
End final coordinates



     init_run     :    139.96s CPU    147.55s WALL (       1 calls)
     electrons    :  47584.39s CPU  48905.31s WALL (       7 calls)
     update_pot   :    120.51s CPU    122.92s WALL (       6 calls)
     forces       :   1135.52s CPU   1152.19s WALL (       7 calls)

     Called by init_run:
     wfcinit      :     44.02s CPU     46.14s WALL (       1 calls)
     potinit      :      7.55s CPU      7.64s WALL (       1 calls)

     Called by electrons:
     c_bands      :  21518.77s CPU  22141.54s WALL (     203 calls)
     sum_band     :  10274.05s CPU  10505.16s WALL (     203 calls)
     v_of_rho     :    264.03s CPU    295.66s WALL (     206 calls)
     newd         :  15953.23s CPU  16263.25s WALL (     206 calls)
     mix_rho      :     51.28s CPU     52.20s WALL (     203 calls)

     Called by c_bands:
     init_us_2    :     63.18s CPU     63.86s WALL (    1284 calls)
     cegterg      :  21239.63s CPU  21831.02s WALL (     609 calls)

     Called by *egterg:
     h_psi        :  13366.73s CPU  13704.74s WALL (    1576 calls)
     s_psi        :   1178.26s CPU   1192.62s WALL (    1618 calls)
     g_psi        :     23.84s CPU     23.87s WALL (     964 calls)
     cdiaghg      :   1525.54s CPU   1529.69s WALL (    1543 calls)

     Called by h_psi:
     add_vuspsi   :   1166.30s CPU   1182.95s WALL (    1576 calls)
     vhpsi        :   1190.72s CPU   1205.88s WALL (    1576 calls)

     General routines
     calbec       :   2685.80s CPU   2714.45s WALL (   10313 calls)
     fft          :    379.03s CPU    496.03s WALL (    3367 calls)
     ffts         :      4.41s CPU      4.62s WALL (     409 calls)
     fftw         :   7018.73s CPU   7380.32s WALL ( 1118847 calls)
     interpolate  :     41.54s CPU     42.14s WALL (     409 calls)
     davcio       :      0.08s CPU     22.77s WALL (    1305 calls)

     Parallel routines
     fft_scatter  :   3174.74s CPU   3639.63s WALL ( 1122623 calls)
     Hubbard U routines
     new_ns       :    253.26s CPU    265.48s WALL (     203 calls)
     vhpsi        :   1190.72s CPU   1205.88s WALL (    1576 calls)
     force_hub    :    273.81s CPU    280.02s WALL (       7 calls)

     PWSCF        :    13h45m CPU       14h 7m WALL


   This run was terminated on:  18: 7:38  30Apr2014            

=------------------------------------------------------------------------------=
   JOB DONE.
=------------------------------------------------------------------------------=
---------------------------------------
Running PBS batch system epilogue script
Job id: 340542.audhumbla.fysik.dtu.dk
Username: zhonxu
Groupname: campgst
Jobname: RhO2/Eads-2-layers/O-U-3.5
Sessionid: 15711
Resources limits: neednodes=2:ppn=8:xeon8,nodes=2:ppn=8:xeon8,walltime=48:00:00
Resources used: cput=225:54:28,mem=17531920kb,vmem=21505684kb,walltime=14:07:47
Queuename: verylong
Accounting:
This job has allocated the following 16 nodes:
b007 b007 b007 b007 b007 b007 b007 b007 b001 b001 b001 b001 b001 b001 b001 b001
Finished epilogue job 340542.audhumbla.fysik.dtu.dk for zhonxu
