
     Program PWSCF v.5.0.2 (svn rev. 9656) starts on 28Apr2014 at  2: 9:39 

     This program is part of the open-source Quantum ESPRESSO suite
     for quantum simulation of materials; please cite
         "P. Giannozzi et al., J. Phys.:Condens. Matter 21 395502 (2009);
          URL http://www.quantum-espresso.org", 
     in publications or presentations arising from this work. More details at
     http://www.quantum-espresso.org/quote.php

     Parallel version (MPI), running on    16 processors
     K-points division:     npool     =       4
     R & G space division:  proc/nbgrp/npool/nimage =       4

     Current dimensions of program PWSCF are:
     Max number of different atomic species (ntypx) = 10
     Max number of k-points (npk) =  40000
     Max angular momentum in pseudopotentials (lmaxx) =  3
     Reading input from pwscf.in
Warning: card &CELL ignored
Warning: card / ignored

     Subspace diagonalization in iterative solution of the eigenvalue problem:
     a serial algorithm will be used


     Parallelization info
     --------------------
     sticks:   dense  smooth     PW     G-vecs:    dense   smooth      PW
     Min        1491     475    132               353925    64028    9441
     Max        1492     476    134               353934    64061    9444
     Sum        5965    1901    531              1415713   256153   37769



     bravais-lattice index     =            0
     lattice parameter (alat)  =      12.2076  a.u.
     unit-cell volume          =    7496.5096 (a.u.)^3
     number of atoms/cell      =           31
     number of atomic types    =            3
     number of electrons       =       246.00
     number of Kohn-Sham states=          369
     kinetic-energy cutoff     =      40.0000  Ry
     charge density cutoff     =     500.0000  Ry
     convergence threshold     =      1.0E-06
     mixing beta               =       0.7000
     number of iterations used =            8  plain     mixing
     Exchange-correlation      = SLA  PW   PBE  PBE ( 1 4 3 4 0)
     EXX-fraction              =        0.00
     nstep                     =           50


     celldm(1)=  12.207631  celldm(2)=   0.000000  celldm(3)=   0.000000
     celldm(4)=   0.000000  celldm(5)=   0.000000  celldm(6)=   0.000000

     crystal axes: (cart. coord. in units of alat)
               a(1) = (   1.000000   0.000000   0.000000 )  
               a(2) = (   0.000000   1.004836   0.000000 )  
               a(3) = (   0.000000   0.000000   4.100811 )  

     reciprocal axes: (cart. coord. in units 2 pi/alat)
               b(1) = (  1.000000  0.000000  0.000000 )  
               b(2) = (  0.000000  0.995187  0.000000 )  
               b(3) = (  0.000000  0.000000  0.243854 )  


     PseudoPot. # 1 for O  read from file:
     /home/camp/zhonxu/pseudo/o_pbe_v1.01.uspp.F.UPF
     MD5 check sum: 2bcb18d16ea4b960afae9ec6d52f22d2
     Pseudo is Ultrasoft + core correction, Zval =  6.0
     Generated by new atomic code, or converted to UPF format
     Using radial grid of  737 points,  5 beta functions with: 
                l(1) =   0
                l(2) =   0
                l(3) =   1
                l(4) =   1
                l(5) =   2
     Q(r) pseudized with  8 coefficients,  rinner =    0.900   0.900   0.900
                                                       0.900   0.900

     PseudoPot. # 2 for Pt read from file:
     /home/camp/zhonxu/pseudo/pt_pbe_v1.uspp.F.UPF
     MD5 check sum: 4c71d6ad5ef119f1eb26a4d0b7884226
     Pseudo is Ultrasoft + core correction, Zval = 16.0
     Generated by new atomic code, or converted to UPF format
     Using radial grid of  985 points,  6 beta functions with: 
                l(1) =   0
                l(2) =   0
                l(3) =   1
                l(4) =   1
                l(5) =   2
                l(6) =   2
     Q(r) pseudized with  8 coefficients,  rinner =    1.300   1.300   1.300
                                                       1.300   1.300

     PseudoPot. # 3 for H  read from file:
     /home/camp/zhonxu/pseudo/h_pbe_v1.uspp.F.UPF
     MD5 check sum: 3408e3ff4ec8b0a4e358431e7e038a48
     Pseudo is Ultrasoft, Zval =  1.0
     Generated by new atomic code, or converted to UPF format
     Using radial grid of  615 points,  2 beta functions with: 
                l(1) =   0
                l(2) =   0
     Q(r) pseudized with  8 coefficients,  rinner =    0.700

     atomic species   valence    mass     pseudopotential
        O0             6.00    15.99940     O ( 1.00)
        Pt1           16.00   195.08000     Pt( 1.00)
        H2             1.00     1.00794     H ( 1.00)


     Simplified LDA+U calculation (l_max = 2) with parameters (eV):
     atomic species    L          U    alpha       J0     beta
        Pt1            2     1.5000   0.0000   0.0000   0.0000



     No symmetry found



   Cartesian axes

     site n.     atom                  positions (alat units)
         1           O0  tau(   1) = (   0.0000000   0.0000000   1.5489174  )
         2           O0  tau(   2) = (   0.0000000   0.5024180   1.6470088  )
         3           Pt1 tau(   3) = (   0.2500000   0.5024180   1.8504500  )
         4           Pt1 tau(   4) = (   0.0000000   0.0000000   1.8564782  )
         5           O0  tau(   5) = (   0.2500000   0.8139171   1.8182587  )
         6           O0  tau(   6) = (   0.2500000   0.1909188   1.8867012  )
         7           O0  tau(   7) = (   0.0000000   0.5024180   2.0373240  )
         8           O0  tau(   8) = (   0.0000000   0.0000000   2.1721997  )
         9           Pt1 tau(   9) = (   0.2500000   0.0000000   2.3623543  )
        10           Pt1 tau(  10) = (   0.0000000   0.5024180   2.3594017  )
        11           O0  tau(  11) = (   0.2500000   0.6933368   2.3215512  )
        12           O0  tau(  12) = (   0.2500000   0.3114991   2.4021322  )
        13           O0  tau(  13) = (   0.0000000   0.0000000   2.5481621  )
        14           O0  tau(  14) = (   0.5000000   0.0000000   1.5492455  )
        15           O0  tau(  15) = (   0.5000000   0.5024180   1.6439332  )
        16           Pt1 tau(  16) = (   0.7500000   0.5024180   1.8504910  )
        17           Pt1 tau(  17) = (   0.5000000   0.0000000   1.8565192  )
        18           O0  tau(  18) = (   0.7500000   0.8139171   1.8184227  )
        19           O0  tau(  19) = (   0.7500000   0.1909188   1.8866602  )
        20           O0  tau(  20) = (   0.5000000   0.5024180   2.0431061  )
        21           O0  tau(  21) = (   0.5000000   0.0000000   2.1716256  )
        22           Pt1 tau(  22) = (   0.7500000   0.0000000   2.3623953  )
        23           Pt1 tau(  23) = (   0.5000000   0.5024180   2.3697358  )
        24           O0  tau(  24) = (   0.7500000   0.6933368   2.3215102  )
        25           O0  tau(  25) = (   0.7500000   0.3114991   2.4021732  )
        26           O0  tau(  26) = (   0.5000000   0.0000000   2.5480390  )
        27           H2  tau(  27) = (   0.0001100   0.6425926   1.5814778  )
        28           H2  tau(  28) = (   0.5001800   0.6431151   1.5801656  )
        29           H2  tau(  29) = (   0.1426600   0.0364956   1.5073762  )
        30           H2  tau(  30) = (   0.6419200   0.0388771   1.5073762  )
        31           O0  tau(  31) = (   0.5000900   0.5753691   2.6428088  )

     number of k points=    10  Methfessel-Paxton smearing, width (Ry)=  0.0100
                       cart. coord. in units 2pi/alat
        k(    1) = (   0.0000000   0.0000000   0.0000000), wk =   0.1250000
        k(    2) = (   0.0000000   0.2487968   0.0000000), wk =   0.2500000
        k(    3) = (   0.0000000  -0.4975937   0.0000000), wk =   0.1250000
        k(    4) = (   0.2500000   0.0000000   0.0000000), wk =   0.2500000
        k(    5) = (   0.2500000   0.2487968   0.0000000), wk =   0.2500000
        k(    6) = (   0.2500000  -0.4975937   0.0000000), wk =   0.2500000
        k(    7) = (  -0.5000000   0.0000000   0.0000000), wk =   0.1250000
        k(    8) = (  -0.5000000   0.2487968   0.0000000), wk =   0.2500000
        k(    9) = (  -0.5000000  -0.4975937   0.0000000), wk =   0.1250000
        k(   10) = (  -0.2500000   0.2487968   0.0000000), wk =   0.2500000

     Dense  grid:  1415713 G-vectors     FFT dimensions: (  90,  90, 360)

     Smooth grid:   256153 G-vectors     FFT dimensions: (  50,  50, 216)

     Largest allocated arrays     est. size (Mb)     dimensions
        Kohn-Sham Wavefunctions        45.60 Mb     (   8098,  369)
        Atomic wavefunctions           21.75 Mb     (   8098,  176)
        NL pseudopotentials            49.30 Mb     (   8098,  399)
        Each V/rho on FFT grid         11.12 Mb     ( 729000)
        Each G-vector array             2.70 Mb     ( 353934)
        G-vector shells                 1.17 Mb     ( 153301)
     Largest temporary arrays     est. size (Mb)     dimensions
        Auxiliary wavefunctions       182.38 Mb     (   8098, 1476)
        Each subspace H/S matrix       33.24 Mb     (1476,1476)
        Each <psi_i|beta_j> matrix      2.25 Mb     (    399,  369)
        Arrays for rho mixing          88.99 Mb     ( 729000,   8)

     Check: negative/imaginary core charge=   -0.000003    0.000000

     Initial potential from superposition of free atoms
     Check: negative starting charge=   -1.533958

     starting charge  241.99985, renormalised to  246.00000

     negative rho (up, down):  0.156E+01 0.000E+00
     Number of +U iterations with fixed ns =  0
     Starting occupations:
 --- enter write_ns ---
 LDA+U parameters:
U( 2)     =  1.50000000
alpha( 2) =  0.00000000
atom    3   Tr[ns(na)] =   8.00000
    eigenvalues: 
  0.800  0.800  0.800  0.800  0.800
    eigenvectors:
  1.000  0.000  0.000  0.000  0.000
  0.000  1.000  0.000  0.000  0.000
  0.000  0.000  1.000  0.000  0.000
  0.000  0.000  0.000  1.000  0.000
  0.000  0.000  0.000  0.000  1.000
    occupations:
  0.800  0.000  0.000  0.000  0.000
  0.000  0.800  0.000  0.000  0.000
  0.000  0.000  0.800  0.000  0.000
  0.000  0.000  0.000  0.800  0.000
  0.000  0.000  0.000  0.000  0.800
atom    4   Tr[ns(na)] =   8.00000
    eigenvalues: 
  0.800  0.800  0.800  0.800  0.800
    eigenvectors:
  1.000  0.000  0.000  0.000  0.000
  0.000  1.000  0.000  0.000  0.000
  0.000  0.000  1.000  0.000  0.000
  0.000  0.000  0.000  1.000  0.000
  0.000  0.000  0.000  0.000  1.000
    occupations:
  0.800  0.000  0.000  0.000  0.000
  0.000  0.800  0.000  0.000  0.000
  0.000  0.000  0.800  0.000  0.000
  0.000  0.000  0.000  0.800  0.000
  0.000  0.000  0.000  0.000  0.800
atom    9   Tr[ns(na)] =   8.00000
    eigenvalues: 
  0.800  0.800  0.800  0.800  0.800
    eigenvectors:
  1.000  0.000  0.000  0.000  0.000
  0.000  1.000  0.000  0.000  0.000
  0.000  0.000  1.000  0.000  0.000
  0.000  0.000  0.000  1.000  0.000
  0.000  0.000  0.000  0.000  1.000
    occupations:
  0.800  0.000  0.000  0.000  0.000
  0.000  0.800  0.000  0.000  0.000
  0.000  0.000  0.800  0.000  0.000
  0.000  0.000  0.000  0.800  0.000
  0.000  0.000  0.000  0.000  0.800
atom   10   Tr[ns(na)] =   8.00000
    eigenvalues: 
  0.800  0.800  0.800  0.800  0.800
    eigenvectors:
  1.000  0.000  0.000  0.000  0.000
  0.000  1.000  0.000  0.000  0.000
  0.000  0.000  1.000  0.000  0.000
  0.000  0.000  0.000  1.000  0.000
  0.000  0.000  0.000  0.000  1.000
    occupations:
  0.800  0.000  0.000  0.000  0.000
  0.000  0.800  0.000  0.000  0.000
  0.000  0.000  0.800  0.000  0.000
  0.000  0.000  0.000  0.800  0.000
  0.000  0.000  0.000  0.000  0.800
atom   16   Tr[ns(na)] =   8.00000
    eigenvalues: 
  0.800  0.800  0.800  0.800  0.800
    eigenvectors:
  1.000  0.000  0.000  0.000  0.000
  0.000  1.000  0.000  0.000  0.000
  0.000  0.000  1.000  0.000  0.000
  0.000  0.000  0.000  1.000  0.000
  0.000  0.000  0.000  0.000  1.000
    occupations:
  0.800  0.000  0.000  0.000  0.000
  0.000  0.800  0.000  0.000  0.000
  0.000  0.000  0.800  0.000  0.000
  0.000  0.000  0.000  0.800  0.000
  0.000  0.000  0.000  0.000  0.800
atom   17   Tr[ns(na)] =   8.00000
    eigenvalues: 
  0.800  0.800  0.800  0.800  0.800
    eigenvectors:
  1.000  0.000  0.000  0.000  0.000
  0.000  1.000  0.000  0.000  0.000
  0.000  0.000  1.000  0.000  0.000
  0.000  0.000  0.000  1.000  0.000
  0.000  0.000  0.000  0.000  1.000
    occupations:
  0.800  0.000  0.000  0.000  0.000
  0.000  0.800  0.000  0.000  0.000
  0.000  0.000  0.800  0.000  0.000
  0.000  0.000  0.000  0.800  0.000
  0.000  0.000  0.000  0.000  0.800
atom   22   Tr[ns(na)] =   8.00000
    eigenvalues: 
  0.800  0.800  0.800  0.800  0.800
    eigenvectors:
  1.000  0.000  0.000  0.000  0.000
  0.000  1.000  0.000  0.000  0.000
  0.000  0.000  1.000  0.000  0.000
  0.000  0.000  0.000  1.000  0.000
  0.000  0.000  0.000  0.000  1.000
    occupations:
  0.800  0.000  0.000  0.000  0.000
  0.000  0.800  0.000  0.000  0.000
  0.000  0.000  0.800  0.000  0.000
  0.000  0.000  0.000  0.800  0.000
  0.000  0.000  0.000  0.000  0.800
atom   23   Tr[ns(na)] =   8.00000
    eigenvalues: 
  0.800  0.800  0.800  0.800  0.800
    eigenvectors:
  1.000  0.000  0.000  0.000  0.000
  0.000  1.000  0.000  0.000  0.000
  0.000  0.000  1.000  0.000  0.000
  0.000  0.000  0.000  1.000  0.000
  0.000  0.000  0.000  0.000  1.000
    occupations:
  0.800  0.000  0.000  0.000  0.000
  0.000  0.800  0.000  0.000  0.000
  0.000  0.000  0.800  0.000  0.000
  0.000  0.000  0.000  0.800  0.000
  0.000  0.000  0.000  0.000  0.800
N of occupied +U levels =  64.0000000
 --- exit write_ns ---
 Atomic wfc used for LDA+U Projector are NOT orthogonalized
     Starting wfc are  176 randomized atomic wfcs

     total cpu time spent up to now is      156.3 secs

     per-process dynamical memory:   423.6 Mb

     Self-consistent Calculation

     iteration #  1     ecut=    40.00 Ry     beta=0.70
     Davidson diagonalization with overlap
     ethr =  1.00E-02,  avg # of iterations =  5.1
 --- enter write_ns ---
 LDA+U parameters:
U( 2)     =  1.50000000
alpha( 2) =  0.00000000
atom    3   Tr[ns(na)] =   7.03698
    eigenvalues: 
  0.412  0.453  0.754  0.942  0.957
    eigenvectors:
  0.002  0.144  0.043  0.797  0.014
  0.989  0.011  0.000  0.000  0.000
  0.000  0.023  0.951  0.024  0.002
  0.009  0.822  0.006  0.160  0.003
  0.000  0.000  0.000  0.019  0.981
    occupations:
  0.863  0.005 -0.009 -0.174 -0.001
  0.005  0.413 -0.000  0.003 -0.005
 -0.009 -0.000  0.752  0.054  0.004
 -0.174  0.003  0.054  0.534  0.001
 -0.001 -0.005  0.004  0.001  0.956
atom    4   Tr[ns(na)] =   6.93045
    eigenvalues: 
  0.431  0.453  0.786  0.838  0.957
    eigenvectors:
  0.000  0.974  0.008  0.001  0.017
  0.032  0.000  0.086  0.882  0.000
  0.000  0.012  0.894  0.087  0.007
  0.000  0.014  0.009  0.001  0.976
  0.968  0.000  0.003  0.029  0.000
    occupations:
  0.465 -0.004 -0.038  0.061 -0.001
 -0.004  0.821  0.014  0.001  0.071
 -0.038  0.014  0.788 -0.010  0.002
  0.061  0.001 -0.010  0.948  0.000
 -0.001  0.071  0.002  0.000  0.444
atom    9   Tr[ns(na)] =   7.63264
    eigenvalues: 
  0.448  0.468  0.959  0.969  0.973
    eigenvectors:
  0.000  0.134  0.231  0.095  0.541
  1.000  0.000  0.000  0.000  0.000
  0.000  0.019  0.664  0.016  0.301
  0.000  0.847  0.098  0.011  0.043
  0.000  0.000  0.007  0.878  0.115
    occupations:
  0.902 -0.000 -0.031 -0.168  0.001
 -0.000  0.448  0.000 -0.000 -0.001
 -0.031  0.000  0.954 -0.061 -0.001
 -0.168 -0.000 -0.061  0.544  0.001
  0.001 -0.001 -0.001  0.001  0.970
atom   10   Tr[ns(na)] =   8.33991
    eigenvalues: 
  0.435  0.802  0.970  0.979  0.984
    eigenvectors:
  0.000  0.908  0.085  0.007  0.000
  0.035  0.000  0.000  0.000  0.965
  0.000  0.018  0.428  0.554  0.000
  0.000  0.073  0.487  0.440  0.000
  0.965  0.000  0.000  0.000  0.035
    occupations:
  0.817  0.000  0.021  0.044 -0.000
  0.000  0.964  0.000 -0.000 -0.101
  0.021  0.000  0.972 -0.011  0.000
  0.044 -0.000 -0.011  0.962 -0.000
 -0.000 -0.101  0.000 -0.000  0.455
atom   16   Tr[ns(na)] =   7.03632
    eigenvalues: 
  0.412  0.453  0.754  0.942  0.957
    eigenvectors:
  0.002  0.144  0.042  0.793  0.019
  0.989  0.011  0.000  0.000  0.000
  0.000  0.023  0.952  0.024  0.001
  0.009  0.822  0.006  0.160  0.004
  0.000  0.000  0.000  0.024  0.976
    occupations:
  0.863 -0.005 -0.009 -0.174  0.002
 -0.005  0.413  0.000 -0.002 -0.005
 -0.009  0.000  0.752  0.054 -0.001
 -0.174 -0.002  0.054  0.534 -0.001
  0.002 -0.005 -0.001 -0.001  0.956
atom   17   Tr[ns(na)] =   6.91840
    eigenvalues: 
  0.431  0.454  0.787  0.832  0.956
    eigenvectors:
  0.000  0.974  0.008  0.002  0.016
  0.033  0.000  0.144  0.824  0.000
  0.000  0.012  0.835  0.145  0.007
  0.000  0.014  0.008  0.002  0.976
  0.967  0.000  0.005  0.028  0.000
    occupations:
  0.466 -0.004 -0.039  0.060 -0.001
 -0.004  0.812  0.015  0.001  0.070
 -0.039  0.015  0.791 -0.009  0.002
  0.060  0.001 -0.009  0.947  0.000
 -0.001  0.070  0.002  0.000  0.443
atom   22   Tr[ns(na)] =   7.63278
    eigenvalues: 
  0.448  0.468  0.959  0.970  0.972
    eigenvectors:
  0.000  0.133  0.237  0.029  0.600
  0.999  0.001  0.000  0.000  0.000
  0.000  0.019  0.657  0.001  0.323
  0.001  0.846  0.100  0.004  0.049
  0.000  0.000  0.007  0.966  0.028
    occupations:
  0.902  0.001 -0.031 -0.168 -0.000
  0.001  0.448  0.001  0.000 -0.001
 -0.031  0.001  0.954 -0.061  0.001
 -0.168  0.000 -0.061  0.544 -0.001
 -0.000 -0.001  0.001 -0.001  0.970
atom   23   Tr[ns(na)] =   7.62386
    eigenvalues: 
  0.430  0.491  0.952  0.969  0.970
    eigenvectors:
  0.000  0.907  0.081  0.012  0.000
  0.031  0.000  0.000  0.000  0.968
  0.000  0.073  0.911  0.016  0.000
  0.000  0.020  0.008  0.972  0.000
  0.969  0.000  0.000  0.000  0.031
    occupations:
  0.534  0.000  0.119  0.064 -0.000
  0.000  0.953 -0.000 -0.000 -0.094
  0.119 -0.000  0.918 -0.020  0.000
  0.064 -0.000 -0.020  0.959 -0.000
 -0.000 -0.094  0.000 -0.000  0.447
N of occupied +U levels =  59.1513374
 --- exit write_ns ---

     negative rho (up, down):  0.151E+01 0.000E+00

     total cpu time spent up to now is      570.5 secs

     total energy              =   -2262.00414375 Ry
     Harris-Foulkes estimate   =   -2286.31080861 Ry
     estimated scf accuracy    <      29.26756776 Ry

     iteration #  2     ecut=    40.00 Ry     beta=0.70
     Davidson diagonalization with overlap
     ethr =  1.00E-02,  avg # of iterations =  5.0

     negative rho (up, down):  0.126E+01 0.000E+00

     total cpu time spent up to now is      959.8 secs

     total energy              =   -2188.21850629 Ry
     Harris-Foulkes estimate   =   -2361.44833314 Ry
     estimated scf accuracy    <    1508.51508977 Ry

     iteration #  3     ecut=    40.00 Ry     beta=0.70
     Davidson diagonalization with overlap
     ethr =  1.00E-02,  avg # of iterations =  5.0

     negative rho (up, down):  0.678E+00 0.000E+00

     total cpu time spent up to now is     1382.3 secs

     total energy              =   -2242.48359754 Ry
     Harris-Foulkes estimate   =   -2313.61325656 Ry
     estimated scf accuracy    <     632.16049171 Ry

     iteration #  4     ecut=    40.00 Ry     beta=0.70
     Davidson diagonalization with overlap
     ethr =  1.00E-02,  avg # of iterations =  3.8

     negative rho (up, down):  0.809E+00 0.000E+00

     total cpu time spent up to now is     1647.8 secs

     total energy              =   -2277.82102218 Ry
     Harris-Foulkes estimate   =   -2282.38272353 Ry
     estimated scf accuracy    <      14.73913305 Ry

     iteration #  5     ecut=    40.00 Ry     beta=0.70
     Davidson diagonalization with overlap
     ethr =  5.99E-03,  avg # of iterations =  1.2

     negative rho (up, down):  0.965E+00 0.000E+00

     total cpu time spent up to now is     1874.1 secs

     total energy              =   -2279.64778972 Ry
     Harris-Foulkes estimate   =   -2282.16591366 Ry
     estimated scf accuracy    <      17.97626426 Ry

     iteration #  6     ecut=    40.00 Ry     beta=0.70
     Davidson diagonalization with overlap
     ethr =  5.99E-03,  avg # of iterations =  1.2

     negative rho (up, down):  0.104E+01 0.000E+00

     total cpu time spent up to now is     2099.3 secs

     total energy              =   -2280.27398772 Ry
     Harris-Foulkes estimate   =   -2281.29185708 Ry
     estimated scf accuracy    <       4.54825058 Ry

     iteration #  7     ecut=    40.00 Ry     beta=0.70
     Davidson diagonalization with overlap
     ethr =  1.85E-03,  avg # of iterations =  2.4

     negative rho (up, down):  0.107E+01 0.000E+00

     total cpu time spent up to now is     2335.4 secs

     total energy              =   -2280.48270157 Ry
     Harris-Foulkes estimate   =   -2280.81245864 Ry
     estimated scf accuracy    <       2.18317548 Ry

     iteration #  8     ecut=    40.00 Ry     beta=0.70
     Davidson diagonalization with overlap
     ethr =  8.87E-04,  avg # of iterations =  3.8

     negative rho (up, down):  0.110E+01 0.000E+00

     total cpu time spent up to now is     2576.5 secs

     total energy              =   -2280.48900709 Ry
     Harris-Foulkes estimate   =   -2280.72844659 Ry
     estimated scf accuracy    <       3.05670390 Ry

     iteration #  9     ecut=    40.00 Ry     beta=0.70
     Davidson diagonalization with overlap
     ethr =  8.87E-04,  avg # of iterations =  1.0

     negative rho (up, down):  0.116E+01 0.000E+00

     total cpu time spent up to now is     2797.0 secs

     total energy              =   -2280.42822059 Ry
     Harris-Foulkes estimate   =   -2280.68853653 Ry
     estimated scf accuracy    <       2.24132753 Ry

     iteration # 10     ecut=    40.00 Ry     beta=0.70
     Davidson diagonalization with overlap
     ethr =  8.87E-04,  avg # of iterations =  1.0

     negative rho (up, down):  0.130E+01 0.000E+00

     total cpu time spent up to now is     3015.7 secs

     total energy              =   -2280.40329300 Ry
     Harris-Foulkes estimate   =   -2280.60051912 Ry
     estimated scf accuracy    <       0.91817359 Ry

     iteration # 11     ecut=    40.00 Ry     beta=0.70
     Davidson diagonalization with overlap
     ethr =  3.73E-04,  avg # of iterations =  4.2

     negative rho (up, down):  0.146E+01 0.000E+00

     total cpu time spent up to now is     3262.9 secs

     total energy              =   -2280.36970432 Ry
     Harris-Foulkes estimate   =   -2280.49894962 Ry
     estimated scf accuracy    <       0.51931140 Ry

     iteration # 12     ecut=    40.00 Ry     beta=0.70
     Davidson diagonalization with overlap
     ethr =  2.11E-04,  avg # of iterations =  5.5

     negative rho (up, down):  0.155E+01 0.000E+00

     total cpu time spent up to now is     3554.2 secs

     total energy              =   -2280.15236691 Ry
     Harris-Foulkes estimate   =   -2280.56856975 Ry
     estimated scf accuracy    <       2.10358883 Ry

     iteration # 13     ecut=    40.00 Ry     beta=0.70
     Davidson diagonalization with overlap
     ethr =  2.11E-04,  avg # of iterations =  5.0

     negative rho (up, down):  0.150E+01 0.000E+00

     total cpu time spent up to now is     3817.2 secs

     total energy              =   -2279.80509950 Ry
     Harris-Foulkes estimate   =   -2280.83641866 Ry
     estimated scf accuracy    <      15.84343264 Ry

     iteration # 14     ecut=    40.00 Ry     beta=0.70
     Davidson diagonalization with overlap
     ethr =  2.11E-04,  avg # of iterations =  4.6

     negative rho (up, down):  0.155E+01 0.000E+00

     total cpu time spent up to now is     4074.5 secs

     total energy              =   -2280.37878673 Ry
     Harris-Foulkes estimate   =   -2280.45452186 Ry
     estimated scf accuracy    <       0.27331211 Ry

     iteration # 15     ecut=    40.00 Ry     beta=0.70
     Davidson diagonalization with overlap
     ethr =  1.11E-04,  avg # of iterations =  1.6

     negative rho (up, down):  0.155E+01 0.000E+00

     total cpu time spent up to now is     4296.9 secs

     total energy              =   -2280.36721926 Ry
     Harris-Foulkes estimate   =   -2280.44351291 Ry
     estimated scf accuracy    <       0.44426548 Ry

     iteration # 16     ecut=    40.00 Ry     beta=0.70
     Davidson diagonalization with overlap
     ethr =  1.11E-04,  avg # of iterations =  1.2

     negative rho (up, down):  0.157E+01 0.000E+00

     total cpu time spent up to now is     4518.8 secs

     total energy              =   -2280.39597099 Ry
     Harris-Foulkes estimate   =   -2280.42804616 Ry
     estimated scf accuracy    <       0.42237270 Ry

     iteration # 17     ecut=    40.00 Ry     beta=0.70
     Davidson diagonalization with overlap
     ethr =  1.11E-04,  avg # of iterations =  1.0

     negative rho (up, down):  0.157E+01 0.000E+00

     total cpu time spent up to now is     4733.9 secs

     total energy              =   -2280.40821278 Ry
     Harris-Foulkes estimate   =   -2280.41654067 Ry
     estimated scf accuracy    <       0.06342676 Ry

     iteration # 18     ecut=    40.00 Ry     beta=0.70
     Davidson diagonalization with overlap
     ethr =  2.58E-05,  avg # of iterations =  1.5

     negative rho (up, down):  0.157E+01 0.000E+00

     total cpu time spent up to now is     4951.5 secs

     total energy              =   -2280.40458223 Ry
     Harris-Foulkes estimate   =   -2280.41469199 Ry
     estimated scf accuracy    <       0.07071152 Ry

     iteration # 19     ecut=    40.00 Ry     beta=0.70
     Davidson diagonalization with overlap
     ethr =  2.58E-05,  avg # of iterations =  1.0

     negative rho (up, down):  0.157E+01 0.000E+00

     total cpu time spent up to now is     5165.0 secs

     total energy              =   -2280.39607087 Ry
     Harris-Foulkes estimate   =   -2280.42860934 Ry
     estimated scf accuracy    <       0.47122996 Ry

     iteration # 20     ecut=    40.00 Ry     beta=0.70
     Davidson diagonalization with overlap
     ethr =  2.58E-05,  avg # of iterations =  1.0

     negative rho (up, down):  0.158E+01 0.000E+00

     total cpu time spent up to now is     5383.6 secs

     total energy              =   -2280.41076240 Ry
     Harris-Foulkes estimate   =   -2280.41181313 Ry
     estimated scf accuracy    <       0.01265382 Ry

     iteration # 21     ecut=    40.00 Ry     beta=0.70
     Davidson diagonalization with overlap
     ethr =  5.14E-06,  avg # of iterations =  5.6

     negative rho (up, down):  0.158E+01 0.000E+00

     total cpu time spent up to now is     5626.2 secs

     total energy              =   -2280.41072269 Ry
     Harris-Foulkes estimate   =   -2280.41134266 Ry
     estimated scf accuracy    <       0.00872024 Ry

     iteration # 22     ecut=    40.00 Ry     beta=0.70
     Davidson diagonalization with overlap
     ethr =  3.54E-06,  avg # of iterations =  2.7

     negative rho (up, down):  0.158E+01 0.000E+00

     total cpu time spent up to now is     5855.2 secs

     total energy              =   -2280.40802062 Ry
     Harris-Foulkes estimate   =   -2280.41119439 Ry
     estimated scf accuracy    <       0.00780476 Ry

     iteration # 23     ecut=    40.00 Ry     beta=0.70
     Davidson diagonalization with overlap
     ethr =  3.17E-06,  avg # of iterations =  5.4

     negative rho (up, down):  0.158E+01 0.000E+00

     total cpu time spent up to now is     6126.7 secs

     total energy              =   -2280.40617109 Ry
     Harris-Foulkes estimate   =   -2280.41416577 Ry
     estimated scf accuracy    <       0.07528537 Ry

     iteration # 24     ecut=    40.00 Ry     beta=0.70
     Davidson diagonalization with overlap
     ethr =  3.17E-06,  avg # of iterations =  4.7

     negative rho (up, down):  0.158E+01 0.000E+00

     total cpu time spent up to now is     6371.9 secs

     total energy              =   -2280.41024135 Ry
     Harris-Foulkes estimate   =   -2280.41059525 Ry
     estimated scf accuracy    <       0.00130738 Ry

     iteration # 25     ecut=    40.00 Ry     beta=0.70
     Davidson diagonalization with overlap
     ethr =  5.31E-07,  avg # of iterations =  1.0

     negative rho (up, down):  0.158E+01 0.000E+00

     total cpu time spent up to now is     6592.1 secs

     total energy              =   -2280.41033801 Ry
     Harris-Foulkes estimate   =   -2280.41052304 Ry
     estimated scf accuracy    <       0.00092140 Ry

     iteration # 26     ecut=    40.00 Ry     beta=0.70
     Davidson diagonalization with overlap
     ethr =  3.75E-07,  avg # of iterations =  1.0

     negative rho (up, down):  0.158E+01 0.000E+00

     total cpu time spent up to now is     6810.0 secs

     total energy              =   -2280.41034391 Ry
     Harris-Foulkes estimate   =   -2280.41050389 Ry
     estimated scf accuracy    <       0.00179769 Ry

     iteration # 27     ecut=    40.00 Ry     beta=0.70
     Davidson diagonalization with overlap
     ethr =  3.75E-07,  avg # of iterations =  1.0

     negative rho (up, down):  0.158E+01 0.000E+00

     total cpu time spent up to now is     7029.2 secs

     total energy              =   -2280.41037585 Ry
     Harris-Foulkes estimate   =   -2280.41047832 Ry
     estimated scf accuracy    <       0.00062223 Ry

     iteration # 28     ecut=    40.00 Ry     beta=0.70
     Davidson diagonalization with overlap
     ethr =  2.53E-07,  avg # of iterations =  1.0

     negative rho (up, down):  0.158E+01 0.000E+00

     total cpu time spent up to now is     7244.9 secs

     total energy              =   -2280.41040639 Ry
     Harris-Foulkes estimate   =   -2280.41045780 Ry
     estimated scf accuracy    <       0.00046452 Ry

     iteration # 29     ecut=    40.00 Ry     beta=0.70
     Davidson diagonalization with overlap
     ethr =  1.89E-07,  avg # of iterations =  1.0

     negative rho (up, down):  0.158E+01 0.000E+00

     total cpu time spent up to now is     7461.8 secs

     total energy              =   -2280.41042912 Ry
     Harris-Foulkes estimate   =   -2280.41043631 Ry
     estimated scf accuracy    <       0.00003354 Ry

     iteration # 30     ecut=    40.00 Ry     beta=0.70
     Davidson diagonalization with overlap
     ethr =  1.36E-08,  avg # of iterations =  1.0

     negative rho (up, down):  0.158E+01 0.000E+00

     total cpu time spent up to now is     7677.8 secs

     total energy              =   -2280.41042948 Ry
     Harris-Foulkes estimate   =   -2280.41043380 Ry
     estimated scf accuracy    <       0.00002820 Ry

     iteration # 31     ecut=    40.00 Ry     beta=0.70
     Davidson diagonalization with overlap
     ethr =  1.15E-08,  avg # of iterations =  1.0

     negative rho (up, down):  0.158E+01 0.000E+00

     total cpu time spent up to now is     7892.8 secs

     total energy              =   -2280.41042628 Ry
     Harris-Foulkes estimate   =   -2280.41043855 Ry
     estimated scf accuracy    <       0.00014497 Ry

     iteration # 32     ecut=    40.00 Ry     beta=0.70
     Davidson diagonalization with overlap
     ethr =  1.15E-08,  avg # of iterations =  1.0

     negative rho (up, down):  0.158E+01 0.000E+00

     total cpu time spent up to now is     8110.7 secs

     total energy              =   -2280.41043218 Ry
     Harris-Foulkes estimate   =   -2280.41043267 Ry
     estimated scf accuracy    <       0.00000454 Ry

     iteration # 33     ecut=    40.00 Ry     beta=0.70
     Davidson diagonalization with overlap
     ethr =  1.85E-09,  avg # of iterations =  1.0

     negative rho (up, down):  0.158E+01 0.000E+00

     total cpu time spent up to now is     8326.8 secs

     total energy              =   -2280.41043234 Ry
     Harris-Foulkes estimate   =   -2280.41043261 Ry
     estimated scf accuracy    <       0.00000141 Ry

     iteration # 34     ecut=    40.00 Ry     beta=0.70
     Davidson diagonalization with overlap
     ethr =  5.72E-10,  avg # of iterations =  1.0

     negative rho (up, down):  0.158E+01 0.000E+00

     total cpu time spent up to now is     8542.6 secs

     End of self-consistent calculation
 --- enter write_ns ---
 LDA+U parameters:
U( 2)     =  1.50000000
alpha( 2) =  0.00000000
atom    3   Tr[ns(na)] =   8.67399
    eigenvalues: 
  0.686  0.698  0.982  0.984  0.987
    eigenvectors:
  0.045  0.131  0.497  0.314  0.013
  0.754  0.246  0.000  0.000  0.000
  0.000  0.003  0.005  0.105  0.886
  0.200  0.620  0.109  0.057  0.013
  0.000  0.000  0.389  0.523  0.088
    occupations:
  0.932  0.003  0.007 -0.109 -0.000
  0.003  0.689  0.002  0.004 -0.004
  0.007  0.002  0.985  0.016  0.001
 -0.109  0.004  0.016  0.747  0.001
 -0.000 -0.004  0.001  0.001  0.983
atom    4   Tr[ns(na)] =   8.66246
    eigenvalues: 
  0.684  0.704  0.978  0.982  0.984
    eigenvectors:
  0.000  0.987  0.006  0.003  0.005
  0.008  0.000  0.096  0.884  0.013
  0.000  0.004  0.853  0.074  0.069
  0.000  0.009  0.045  0.033  0.913
  0.992  0.000  0.001  0.007  0.000
    occupations:
  0.707 -0.005 -0.018  0.026 -0.001
 -0.005  0.979  0.001  0.000  0.026
 -0.018  0.001  0.978  0.003  0.000
  0.026  0.000  0.003  0.981  0.000
 -0.001  0.026  0.000  0.000  0.686
atom    9   Tr[ns(na)] =   8.63432
    eigenvalues: 
  0.705  0.718  0.951  0.959  0.984
    eigenvectors:
  0.002  0.134  0.001  0.010  0.853
  0.984  0.016  0.000  0.000  0.000
  0.000  0.010  0.008  0.978  0.004
  0.014  0.840  0.001  0.005  0.141
  0.000  0.000  0.990  0.008  0.002
    occupations:
  0.947  0.001 -0.008 -0.091  0.001
  0.001  0.706  0.001  0.001 -0.004
 -0.008  0.001  0.956 -0.023  0.001
 -0.091  0.001 -0.023  0.756 -0.000
  0.001 -0.004  0.001 -0.000  0.951
atom   10   Tr[ns(na)] =   8.70995
    eigenvalues: 
  0.662  0.752  0.974  0.981  0.986
    eigenvectors:
  0.000  0.980  0.000  0.007  0.012
  0.010  0.000  0.990  0.000  0.000
  0.000  0.001  0.000  0.369  0.630
  0.000  0.018  0.000  0.623  0.358
  0.990  0.000  0.010  0.000  0.000
    occupations:
  0.757  0.000 -0.009  0.031  0.000
  0.000  0.971  0.000 -0.000 -0.032
 -0.009  0.000  0.984 -0.001 -0.000
  0.031 -0.000 -0.001  0.978 -0.000
  0.000 -0.032 -0.000 -0.000  0.665
atom   16   Tr[ns(na)] =   8.67406
    eigenvalues: 
  0.686  0.698  0.982  0.984  0.987
    eigenvectors:
  0.045  0.131  0.504  0.305  0.014
  0.754  0.245  0.000  0.000  0.000
  0.000  0.003  0.003  0.103  0.890
  0.200  0.620  0.110  0.056  0.014
  0.000  0.000  0.382  0.536  0.082
    occupations:
  0.932 -0.004  0.007 -0.109  0.001
 -0.004  0.689 -0.002 -0.004 -0.004
  0.007 -0.002  0.985  0.016 -0.001
 -0.109 -0.004  0.016  0.747 -0.001
  0.001 -0.004 -0.001 -0.001  0.983
atom   17   Tr[ns(na)] =   8.66063
    eigenvalues: 
  0.685  0.705  0.975  0.982  0.984
    eigenvectors:
  0.000  0.986  0.005  0.002  0.007
  0.008  0.000  0.040  0.946  0.006
  0.000  0.004  0.940  0.035  0.021
  0.000  0.009  0.015  0.010  0.966
  0.992  0.000  0.000  0.008  0.000
    occupations:
  0.708 -0.005 -0.018  0.026 -0.001
 -0.005  0.979  0.001  0.000  0.026
 -0.018  0.001  0.974  0.003  0.000
  0.026  0.000  0.003  0.981  0.000
 -0.001  0.026  0.000  0.000  0.687
atom   22   Tr[ns(na)] =   8.63424
    eigenvalues: 
  0.706  0.717  0.951  0.959  0.984
    eigenvectors:
  0.000  0.136  0.001  0.010  0.853
  0.996  0.003  0.000  0.000  0.000
  0.000  0.010  0.013  0.973  0.004
  0.003  0.850  0.001  0.005  0.141
  0.000  0.000  0.985  0.013  0.002
    occupations:
  0.947  0.000 -0.008 -0.091 -0.001
  0.000  0.706 -0.001 -0.001 -0.004
 -0.008 -0.001  0.956 -0.023 -0.001
 -0.091 -0.001 -0.023  0.756  0.000
 -0.001 -0.004 -0.001  0.000  0.951
atom   23   Tr[ns(na)] =   8.61209
    eigenvalues: 
  0.714  0.736  0.917  0.953  0.986
    eigenvectors:
  0.000  0.897  0.097  0.000  0.007
  0.014  0.000  0.000  0.986  0.000
  0.000  0.089  0.892  0.000  0.020
  0.000  0.014  0.012  0.000  0.974
  0.986  0.000  0.000  0.014  0.000
    occupations:
  0.755  0.000  0.050  0.026 -0.000
  0.000  0.950 -0.000  0.000 -0.028
  0.050 -0.000  0.902 -0.016 -0.000
  0.026  0.000 -0.016  0.982 -0.000
 -0.000 -0.028 -0.000 -0.000  0.717
N of occupied +U levels =  69.2617312
 --- exit write_ns ---

          k = 0.0000 0.0000 0.0000 ( 32157 PWs)   bands (ev):

   -56.2465 -56.1561 -56.0320 -55.8733 -55.8173 -55.7976 -55.7447 -55.7285
   -55.7185 -55.7151 -55.6690 -55.6185 -55.6127 -55.5191 -55.4790 -55.4420
   -55.4348 -55.4343 -55.4274 -55.4264 -55.3893 -55.0971 -54.8446 -54.5358
   -22.2134 -21.8412 -21.4766 -21.3206 -20.6977 -20.6317 -20.5634 -20.4737
   -20.4443 -20.4025 -20.3542 -20.3173 -20.2389 -20.0094 -19.9445 -19.8530
   -19.2975 -19.0373 -18.9349 -10.8601 -10.7351 -10.4640  -9.7819  -9.6252
    -9.4402  -9.4298  -9.3247  -9.3046  -9.1642  -9.1098  -9.0380  -9.0010
    -8.9417  -8.9002  -8.8671  -8.7662  -8.5454  -8.2257  -8.1350  -7.9965
    -7.9516  -7.8034  -7.7617  -7.3288  -7.1468  -7.0858  -6.7947  -6.7029
    -6.6526  -6.3382  -6.3174  -6.2423  -6.2393  -6.1695  -6.0505  -5.9247
    -5.7096  -5.6546  -5.5679  -5.4770  -5.4335  -5.4043  -5.3519  -5.3248
    -5.3022  -5.2211  -5.1776  -5.1279  -5.0622  -5.0116  -4.9666  -4.9373
    -4.9237  -4.8671  -4.8318  -4.6913  -4.6436  -4.5571  -4.5001  -4.3822
    -4.2508  -4.1223  -3.9024  -3.6845  -3.4659  -3.2747  -3.1539  -3.0635
    -3.0550  -2.9815  -2.6903  -2.6402  -2.4795  -2.3783  -2.3544  -2.2165
    -1.9644  -1.8475  -1.7208  -1.6021  -1.4720  -1.0281  -0.6330  -0.6099
    -0.6022  -0.5822  -0.2302   0.0319   0.3724   0.7299   0.9411   1.2202
     1.2414   1.2488   1.7781   1.9434   2.3025   3.3144   4.1797   4.6684
     4.8687   5.4878   5.5987   5.6981   5.8197   6.3447   6.4204   6.5701
     6.7755   6.8284   6.8393   6.9522   7.2383   7.3662   7.4143   7.4917
     7.5541   7.6424   7.7020   7.7462   7.8721   7.9484   8.1932   8.1944
     8.2105   8.2344   8.3152   8.3923   8.5271   8.5584   8.5694   8.7680
     8.9002   8.9337   8.9993   9.1009   9.1705   9.1944   9.4379   9.4808
     9.5934   9.7880   9.7911   9.8932   9.9627   9.9879  10.0780  10.2490
    10.4306  10.4918  10.6414  10.7324  10.8275  10.8442  10.8601  10.9457
    10.9950  11.0839  11.2317  11.2535  11.3513  11.4157  11.5219  11.5336
    11.5926  11.6932  11.8130  11.9178  11.9860  12.0243  12.0530  12.1013
    12.1934  12.2277  12.2418  12.2705  12.3790  12.4043  12.6123  12.6306
    12.6976  12.7857  12.7986  12.9976  13.1113  13.1834  13.2753  13.3757
    13.3880  13.5703  13.6399  13.6859  13.7267  13.8347  13.9515  14.0542
    14.0659  14.2035  14.2614  14.3199  14.4429  14.4690  14.5238  14.6203
    14.6874  14.8372  14.8755  15.0514  15.1610  15.3192  15.3334  15.3636
    15.4476  15.5058  15.5508  15.6351  15.7221  15.8079  15.8399  15.8934
    15.9720  15.9791  16.0716  16.3208  16.3724  16.4084  16.4404  16.4860
    16.5050  16.5238  16.5912  16.6314  16.6357  16.7053  16.8155  16.8192
    16.8900  16.9217  17.0715  17.1847  17.1997  17.2750  17.3168  17.4203
    17.4569  17.5801  17.6708  17.8249  17.8567  17.9059  17.9928  18.0551
    18.1306  18.2159  18.2496  18.3394  18.3474  18.3803  18.4337  18.5833
    18.6311  18.6567  18.6981  18.7569  18.7611  18.8533  18.9631  19.0290
    19.0730  19.0846  19.1109  19.2013  19.2872  19.3371  19.3843  19.4465
    19.4523  19.5265  19.5609  19.6199  19.6954  19.7266  19.8156  19.8679
    19.9452  19.9866  20.0272  20.1071  20.1372  20.1828  20.3033  20.3723
    20.5412  20.5894  20.6291  20.8077  20.8843  20.9278  20.9549  20.9812
    21.0155  21.0810  21.1845  21.2529  21.3549  21.4446  21.4941  21.5437
    21.5677  21.5989  21.6308  21.6920  21.7066  21.7380  21.7441  21.7845
    21.8800  21.8949  21.9291  21.9796  22.0257  22.0642  22.1502  22.2620
    22.2880

          k = 0.0000 0.2488 0.0000 ( 32033 PWs)   bands (ev):

   -56.2465 -56.1561 -56.0319 -55.8732 -55.8173 -55.7975 -55.7447 -55.7286
   -55.7187 -55.7149 -55.6690 -55.6183 -55.6124 -55.5192 -55.4789 -55.4417
   -55.4348 -55.4344 -55.4276 -55.4264 -55.3894 -55.0971 -54.8445 -54.5358
   -22.1928 -21.8370 -21.3870 -21.2284 -20.7457 -20.7175 -20.6579 -20.4752
   -20.4135 -20.3456 -20.3280 -20.2641 -20.2583 -20.0409 -20.0091 -19.9740
   -19.2956 -19.0406 -18.9344 -10.5606 -10.3403 -10.2748 -10.0362  -9.6242
    -9.5362  -9.5002  -9.3644  -9.3405  -9.2360  -9.1154  -9.0826  -9.0132
    -8.9009  -8.8649  -8.7754  -8.6550  -8.2131  -8.0774  -8.0194  -7.9430
    -7.8241  -7.7623  -7.4377  -7.3326  -7.1225  -7.0948  -7.0023  -6.8860
    -6.8172  -6.7531  -6.5191  -6.4320  -6.3597  -6.3157  -6.2056  -6.1450
    -6.1316  -6.1157  -5.9653  -5.7688  -5.6748  -5.5349  -5.3218  -5.2479
    -5.2213  -5.0494  -4.9967  -4.9518  -4.9360  -4.9174  -4.9052  -4.7980
    -4.7455  -4.6862  -4.5552  -4.5191  -4.4440  -4.3489  -4.2913  -4.2414
    -4.1945  -4.0573  -3.9304  -3.7514  -3.6667  -3.5285  -3.4854  -3.2590
    -3.0792  -3.0019  -2.7387  -2.5043  -2.4816  -2.3538  -2.2652  -2.2082
    -1.9734  -1.8962  -1.8186  -1.6308  -1.5127  -1.3418  -1.2132  -0.8280
    -0.5786  -0.2525   0.1351   0.7206   0.8729   0.9197   0.9988   1.0235
     1.2448   1.3070   1.7745   1.7814   2.6804   3.5361   4.3835   4.8162
     4.8841   5.0922   5.5423   5.8411   5.8772   5.9465   6.2103   6.3946
     6.5269   6.6955   6.8118   6.9818   7.0734   7.2040   7.2526   7.3280
     7.4509   7.5387   7.6221   7.6726   7.7616   7.8967   8.0329   8.1504
     8.2758   8.3449   8.4077   8.4672   8.5442   8.5635   8.6881   8.8575
     8.9282   9.0287   9.0685   9.1637   9.2734   9.4142   9.5010   9.5311
     9.8213   9.8399   9.9661  10.0116  10.0791  10.1239  10.1653  10.1828
    10.3630  10.3843  10.4328  10.5844  10.6240  10.6472  10.8578  10.9057
    10.9197  11.0058  11.0464  11.2088  11.3257  11.3591  11.4664  11.5546
    11.5899  11.7596  11.8247  11.8951  12.0862  12.1522  12.2232  12.2802
    12.3038  12.4086  12.4330  12.5125  12.5875  12.6729  12.7397  12.8840
    13.0284  13.2148  13.2863  13.3648  13.4463  13.5226  13.5903  13.6096
    13.7022  13.7389  13.7505  13.8185  13.8989  14.0743  14.1501  14.2347
    14.2635  14.3668  14.4026  14.5522  14.5733  14.6420  14.6914  14.7553
    14.8282  14.9052  14.9616  15.1467  15.2324  15.2867  15.3392  15.3948
    15.4664  15.5655  15.6444  15.6868  15.7122  15.7498  15.8486  15.8805
    15.9007  15.9808  16.0204  16.0790  16.1495  16.2372  16.2589  16.3448
    16.4055  16.4380  16.4692  16.5037  16.5764  16.5954  16.6116  16.6322
    16.6717  16.6973  16.7657  16.7930  16.9115  16.9948  17.0898  17.1414
    17.2550  17.2977  17.3650  17.4476  17.5273  17.6618  17.7072  17.7859
    17.9626  18.0156  18.0615  18.1832  18.2025  18.2936  18.3693  18.4216
    18.4581  18.5262  18.5689  18.5958  18.6268  18.6844  18.7934  18.8556
    18.9514  18.9844  19.0091  19.0309  19.0942  19.1260  19.1726  19.1953
    19.3032  19.3355  19.3484  19.4468  19.5001  19.5125  19.6086  19.6401
    19.6511  19.6978  19.7797  19.8229  19.8562  19.9352  20.0784  20.1827
    20.2113  20.2455  20.3022  20.3652  20.3968  20.4286  20.4739  20.5384
    20.6223  20.7707  20.8113  20.8253  20.8543  20.9107  20.9778  21.0181
    21.0713  21.1400  21.2156  21.2477  21.2675  21.3731  21.4220  21.4620
    21.4728  21.4988  21.5861  21.6645  21.6877  21.7465  21.8688  21.9219
    21.9449

          k = 0.0000-0.4976 0.0000 ( 31948 PWs)   bands (ev):

   -56.2465 -56.1561 -56.0318 -55.8730 -55.8173 -55.7974 -55.7446 -55.7287
   -55.7188 -55.7148 -55.6691 -55.6181 -55.6121 -55.5193 -55.4789 -55.4414
   -55.4347 -55.4346 -55.4279 -55.4264 -55.3894 -55.0970 -54.8445 -54.5358
   -22.1733 -21.8328 -21.2670 -21.0821 -20.8478 -20.7748 -20.7173 -20.5016
   -20.4113 -20.3634 -20.2910 -20.2816 -20.2024 -20.1268 -20.0831 -20.0084
   -19.2933 -19.0430 -18.9349 -10.5024 -10.2101  -9.7639  -9.7082  -9.6364
    -9.5756  -9.5713  -9.3932  -9.2370  -9.2214  -9.0862  -9.0334  -8.9877
    -8.8685  -8.8207  -8.6937  -8.6140  -8.1970  -8.1082  -8.0318  -8.0268
    -7.9996  -7.8244  -7.6362  -7.5047  -7.1068  -6.9326  -6.9232  -6.8972
    -6.8658  -6.8311  -6.8132  -6.7491  -6.7235  -6.4021  -6.1969  -6.1824
    -6.1414  -6.1107  -6.0030  -5.7649  -5.7268  -5.6875  -5.4896  -5.3087
    -5.2067  -5.0952  -4.9827  -4.9591  -4.9327  -4.9115  -4.8722  -4.7910
    -4.7185  -4.5659  -4.5496  -4.4146  -4.3861  -4.2999  -4.1453  -4.0736
    -3.9967  -3.9342  -3.8417  -3.8016  -3.7002  -3.6663  -3.5448  -3.1667
    -3.0590  -3.0409  -2.7857  -2.5865  -2.5622  -2.5199  -2.4248  -2.3447
    -2.0498  -1.9559  -1.9327  -1.6494  -1.5621  -1.4420  -1.2795  -0.7277
    -0.5601   0.2207   0.4234   0.7018   0.8188   0.8342   1.1450   1.2659
     1.3641   1.4279   1.6785   1.7790   3.5013   3.8548   4.0524   4.7409
     4.9395   5.1939   5.4059   5.6645   5.7241   5.7345   6.0557   6.2159
     6.3694   6.5179   6.7034   6.7242   6.9937   7.0374   7.3205   7.4501
     7.4654   7.5554   7.6079   7.7217   7.9468   7.9984   8.0527   8.0763
     8.2440   8.3688   8.3820   8.5859   8.6475   8.7163   8.7836   8.8267
     8.8542   8.8922   9.0089   9.1234   9.1614   9.1999   9.2319   9.4497
     9.5407   9.5669   9.7050   9.7975   9.9706   9.9966  10.0219  10.0566
    10.2408  10.7144  10.7644  10.8327  10.8967  10.9403  11.0128  11.0928
    11.1513  11.2423  11.2853  11.3736  11.5132  11.5527  11.6100  11.6748
    12.0054  12.0214  12.0749  12.1110  12.1998  12.3036  12.3660  12.3802
    12.4934  12.5355  12.7137  12.7778  12.8192  12.8786  12.9282  12.9393
    12.9636  13.0204  13.0403  13.1445  13.2753  13.2917  13.5342  13.6467
    13.6968  13.8317  13.9173  14.1151  14.1450  14.2508  14.3030  14.3207
    14.3920  14.5418  14.5839  14.6600  14.8251  14.8991  14.9336  14.9474
    15.0604  15.1029  15.1339  15.1517  15.1928  15.4477  15.5551  15.6146
    15.6285  15.6416  15.7328  15.7514  15.8302  15.9227  15.9482  15.9697
    16.0369  16.0450  16.1355  16.1921  16.2269  16.2971  16.3428  16.3519
    16.3559  16.3995  16.4159  16.4453  16.5001  16.5456  16.5592  16.5663
    16.5787  16.6412  16.6688  16.7043  16.7772  16.7799  16.8221  16.8600
    17.0318  17.0782  17.1964  17.2247  17.3017  17.3668  17.4247  17.4398
    17.5141  17.5423  17.6286  17.7511  17.7654  17.8107  17.8488  17.9232
    18.0042  18.0185  18.1344  18.1555  18.2329  18.3369  18.3775  18.4625
    18.5365  18.6257  18.6426  18.7593  18.7858  18.9230  18.9526  19.0326
    19.1357  19.1549  19.2315  19.2411  19.3180  19.3351  19.4606  19.5375
    19.5719  19.6607  19.7157  19.7501  19.7690  19.8759  19.9027  19.9453
    19.9813  20.0389  20.1244  20.2037  20.2479  20.2674  20.2995  20.3534
    20.3958  20.4385  20.4661  20.4978  20.5355  20.6104  20.6638  20.6870
    20.7056  20.7909  20.8441  20.8701  20.8730  20.9646  21.0172  21.2141
    21.2599  21.2813  21.3155  21.4485  21.5198  21.5593  21.6733  21.7797
    21.7864

          k = 0.2500 0.0000 0.0000 ( 32013 PWs)   bands (ev):

   -56.2466 -56.1563 -56.0320 -55.8656 -55.8259 -55.7903 -55.7529 -55.7220
   -55.7180 -55.7156 -55.6764 -55.6178 -55.6135 -55.5191 -55.4791 -55.4411
   -55.4360 -55.4333 -55.4282 -55.4266 -55.3894 -55.0979 -54.8446 -54.5358
   -22.1508 -21.8550 -21.3754 -21.2173 -20.8127 -20.6771 -20.6182 -20.4675
   -20.3996 -20.3771 -20.3454 -20.2619 -20.2244 -20.0293 -20.0136 -19.9246
   -19.3333 -19.1013 -18.9428 -10.6748 -10.5441 -10.3168  -9.8604  -9.5839
    -9.5273  -9.4422  -9.3264  -9.2788  -9.2387  -9.1583  -8.9442  -8.8784
    -8.7571  -8.7319  -8.6649  -8.6190  -8.4166  -8.4120  -8.2166  -7.9553
    -7.8343  -7.7751  -7.6250  -7.3820  -7.1759  -7.1295  -6.9838  -6.8747
    -6.7370  -6.7078  -6.6789  -6.5120  -6.3938  -6.3628  -6.2850  -6.1709
    -6.0745  -5.9520  -5.8936  -5.8299  -5.7554  -5.6368  -5.6004  -5.4744
    -5.3513  -5.2510  -5.2190  -5.1571  -5.0944  -4.9541  -4.8537  -4.8293
    -4.6986  -4.6203  -4.5445  -4.4590  -4.4119  -4.2998  -4.1355  -4.0304
    -3.8885  -3.7004  -3.6829  -3.5439  -3.5132  -3.1516  -3.0706  -2.9433
    -2.8703  -2.7949  -2.7453  -2.6471  -2.5179  -2.4416  -2.3157  -2.2320
    -2.0429  -1.8732  -1.7992  -1.6911  -1.5380  -0.8815  -0.5111  -0.4852
    -0.4036  -0.3241  -0.1720   0.0209   0.3419   0.3910   0.8592   0.9027
     0.9813   1.2278   1.3367   1.8218   2.7091   3.6160   4.3944   4.8195
     4.8621   5.0959   5.5603   5.8241   5.9768   6.0527   6.1959   6.4797
     6.6480   6.7444   6.8491   6.9521   7.1109   7.1336   7.2529   7.3102
     7.4789   7.5577   7.6461   7.7180   7.8791   7.9430   8.0889   8.1279
     8.4228   8.4378   8.4671   8.6051   8.6491   8.7170   8.7672   8.8763
     8.9173   9.0588   9.1875   9.2719   9.3253   9.4237   9.6535   9.7079
     9.7673   9.8000   9.9680   9.9829  10.0259  10.1383  10.1525  10.2216
    10.2606  10.3485  10.3679  10.4373  10.5977  10.7256  10.7792  10.8788
    10.8859  10.9179  10.9556  11.0725  11.1829  11.2158  11.2977  11.4096
    11.5511  11.6099  11.7335  11.8152  12.0133  12.1218  12.1584  12.2446
    12.2812  12.3160  12.4621  12.5630  12.7143  12.7820  12.8205  12.9307
    13.0569  13.1125  13.2116  13.3091  13.4463  13.4954  13.5288  13.6215
    13.6464  13.6743  13.7249  13.7498  13.8152  13.9103  13.9505  14.0700
    14.0919  14.2024  14.2374  14.2523  14.3672  14.4525  14.5166  14.6123
    14.7404  14.8329  14.8961  15.0167  15.1635  15.2340  15.2988  15.4015
    15.4304  15.4342  15.4918  15.6028  15.6861  15.7918  15.9075  15.9202
    15.9280  15.9624  15.9784  16.1264  16.1815  16.3183  16.3596  16.4017
    16.4192  16.4356  16.5530  16.5618  16.5908  16.6004  16.6425  16.6649
    16.8279  16.8801  16.9249  17.0154  17.0947  17.1630  17.1890  17.2988
    17.4111  17.4633  17.5714  17.5978  17.6244  17.7023  17.8095  17.8696
    17.9293  18.0391  18.1199  18.2522  18.3601  18.3890  18.4454  18.5602
    18.6000  18.6601  18.6822  18.7520  18.8035  18.8561  18.8806  18.9018
    18.9482  18.9966  19.0423  19.0524  19.1137  19.1996  19.2198  19.2612
    19.3322  19.3688  19.4124  19.4786  19.5227  19.5555  19.6148  19.6633
    19.7088  19.7554  19.8092  19.8523  19.9120  20.0007  20.0127  20.0724
    20.1207  20.1569  20.2566  20.3352  20.4040  20.4640  20.5063  20.5417
    20.5867  20.6823  20.7200  20.7682  20.9111  20.9292  21.0101  21.0393
    21.1373  21.1735  21.1971  21.2289  21.2884  21.3434  21.3832  21.4559
    21.5343  21.5471  21.6262  21.6853  21.7965  21.8745  21.9379  21.9728
    22.0125

          k = 0.2500 0.2488 0.0000 ( 32025 PWs)   bands (ev):

   -56.2466 -56.1562 -56.0319 -55.8654 -55.8259 -55.7902 -55.7528 -55.7221
   -55.7182 -55.7155 -55.6765 -55.6176 -55.6133 -55.5192 -55.4791 -55.4408
   -55.4358 -55.4334 -55.4283 -55.4268 -55.3895 -55.0979 -54.8446 -54.5358
   -22.1361 -21.8503 -21.2853 -21.1216 -20.7830 -20.6762 -20.6654 -20.4917
   -20.4713 -20.3892 -20.3099 -20.2663 -20.2446 -20.0919 -20.0348 -20.0289
   -19.3325 -19.1026 -18.9425 -10.4037 -10.1737 -10.1153  -9.9622  -9.5807
    -9.4827  -9.4382  -9.2506  -9.2401  -9.1986  -9.1256  -9.0803  -8.8776
    -8.7476  -8.7289  -8.6915  -8.5109  -8.4773  -8.1292  -7.9849  -7.9391
    -7.8674  -7.8089  -7.7034  -7.3690  -7.2115  -7.0947  -7.0549  -6.9793
    -6.9095  -6.8262  -6.7786  -6.7415  -6.6243  -6.5806  -6.5120  -6.3840
    -6.2688  -6.2233  -6.1233  -5.9443  -5.8805  -5.6898  -5.6318  -5.4615
    -5.3971  -5.3154  -5.1615  -5.1232  -5.0089  -4.9185  -4.8234  -4.6290
    -4.5293  -4.4968  -4.3956  -4.2667  -4.1298  -3.9856  -3.9526  -3.8780
    -3.7880  -3.7672  -3.6751  -3.5933  -3.5412  -3.4306  -3.2616  -3.2074
    -3.0426  -2.7973  -2.6946  -2.5396  -2.4701  -2.3748  -2.3151  -2.2333
    -2.0493  -1.9231  -1.8152  -1.7158  -1.5835  -1.1535  -1.0561  -0.7043
    -0.3756  -0.1994   0.0853   0.3605   0.6042   0.7462   0.7767   0.9221
     1.1109   1.3108   1.3424   1.7380   3.0631   3.8226   4.5994   5.0039
     5.0314   5.0890   5.3226   5.6555   6.0714   6.1620   6.1877   6.3692
     6.4605   6.5528   6.6980   6.8606   6.9466   7.0071   7.1204   7.2261
     7.3658   7.4795   7.5200   7.5723   7.6772   7.8740   7.9122   7.9828
     8.1464   8.2364   8.2969   8.4614   8.5583   8.6379   8.6656   8.7633
     8.8742   8.9963   9.0987   9.2785   9.3405   9.4662   9.5182   9.6081
     9.6944   9.9227  10.0137  10.0759  10.2033  10.2599  10.3295  10.3751
    10.5238  10.6152  10.6732  10.7734  10.8061  10.9132  11.0357  11.0780
    11.1663  11.2032  11.3404  11.4635  11.4914  11.7023  11.7239  11.7677
    11.8487  11.9334  11.9645  12.0615  12.1130  12.2038  12.2443  12.3124
    12.4073  12.4771  12.4998  12.5368  12.6142  12.7386  12.8161  12.8431
    12.9154  12.9915  13.1557  13.1765  13.2350  13.4494  13.4924  13.5572
    13.6754  13.7012  13.7446  13.8666  13.8995  13.9636  14.0345  14.1097
    14.1882  14.2932  14.4243  14.4880  14.5617  14.6350  14.7045  14.8163
    14.8666  14.9969  15.0966  15.2422  15.2998  15.3428  15.3873  15.4322
    15.5294  15.5614  15.6301  15.6813  15.7342  15.7762  15.8100  15.9065
    15.9564  15.9832  16.0372  16.0967  16.1439  16.1897  16.2689  16.3234
    16.4007  16.4238  16.4482  16.5322  16.5635  16.5764  16.5909  16.6119
    16.6498  16.7225  16.7568  16.8418  16.9146  16.9355  16.9725  17.0877
    17.1362  17.1639  17.1928  17.2142  17.2632  17.3583  17.4411  17.4680
    17.4890  17.5448  17.5712  17.6189  17.7021  17.7688  17.9020  17.9394
    18.0276  18.0720  18.1219  18.2090  18.2750  18.3392  18.4318  18.5018
    18.5392  18.5884  18.6240  18.7116  18.7592  18.8328  18.8740  18.9551
    19.0164  19.1464  19.1963  19.2425  19.3188  19.3947  19.4422  19.5004
    19.6182  19.7483  19.8069  19.8961  19.9178  19.9512  20.0002  20.0658
    20.1150  20.2110  20.2555  20.2953  20.3296  20.3809  20.4300  20.4751
    20.6241  20.7026  20.8274  20.8949  20.9313  20.9705  21.0171  21.0770
    21.1700  21.2209  21.2705  21.3019  21.4199  21.4339  21.4986  21.5625
    21.6140  21.6589  21.7681  21.8121  21.8641  21.9548  22.0072  22.0577
    22.1358

          k = 0.2500-0.4976 0.0000 ( 32026 PWs)   bands (ev):

   -56.2465 -56.1562 -56.0318 -55.8653 -55.8259 -55.7902 -55.7528 -55.7222
   -55.7183 -55.7155 -55.6766 -55.6174 -55.6130 -55.5192 -55.4791 -55.4405
   -55.4357 -55.4336 -55.4285 -55.4269 -55.3895 -55.0978 -54.8446 -54.5358
   -22.1223 -21.8457 -21.1532 -20.9795 -20.7616 -20.7331 -20.6934 -20.5356
   -20.5207 -20.4355 -20.3057 -20.2933 -20.2574 -20.1555 -20.1181 -20.0295
   -19.3315 -19.1036 -18.9427 -10.3486 -10.0299  -9.5901  -9.5103  -9.4629
    -9.4421  -9.3708  -9.3384  -9.2726  -9.1953  -9.0976  -9.0397  -8.9279
    -8.7705  -8.7374  -8.6349  -8.5226  -8.3799  -8.0408  -8.0272  -7.8626
    -7.8094  -7.7607  -7.6913  -7.6180  -7.5955  -7.4547  -7.3849  -7.2140
    -7.0363  -6.9430  -6.8559  -6.8296  -6.6522  -6.5941  -6.5448  -6.4408
    -6.3959  -6.3450  -6.1925  -5.9935  -5.8806  -5.7819  -5.7303  -5.6324
    -5.5684  -5.1655  -5.0674  -4.9936  -4.9263  -4.8030  -4.7123  -4.5041
    -4.4682  -4.3242  -4.2853  -4.2646  -4.0491  -3.9818  -3.9472  -3.9120
    -3.8331  -3.6120  -3.5445  -3.4850  -3.4521  -3.4249  -3.3111  -3.2046
    -3.1400  -2.8853  -2.6732  -2.5845  -2.5411  -2.4520  -2.3835  -2.2618
    -2.0793  -2.0180  -1.8550  -1.7521  -1.6251  -1.4150  -1.2869  -0.6330
    -0.3674   0.0526   0.1310   0.3750   0.4721   0.6764   1.1789   1.2094
     1.2286   1.3548   1.4240   1.5902   3.7992   4.1221   4.2680   5.0541
     5.1863   5.3752   5.4432   5.6258   5.9023   5.9308   5.9614   5.9863
     6.2354   6.5970   6.6628   6.8010   6.8566   6.9294   6.9872   7.1981
     7.3420   7.4786   7.5101   7.6241   7.6518   7.7019   7.8180   7.9051
     7.9462   8.0709   8.2035   8.3010   8.4383   8.4819   8.5712   8.6697
     8.7094   8.8333   8.8754   9.0537   9.0854   9.3211   9.3474   9.6058
     9.7995   9.9614   9.9880  10.1044  10.2545  10.6067  10.6796  10.7434
    10.7739  10.9311  11.0143  11.0791  11.1285  11.2642  11.3302  11.3421
    11.4340  11.4899  11.5330  11.6467  11.6579  11.7543  11.8312  11.9792
    12.0529  12.1298  12.1945  12.2527  12.3038  12.3846  12.4594  12.5240
    12.5765  12.6972  12.8306  12.8648  12.9034  12.9543  13.0281  13.0641
    13.1354  13.1518  13.2351  13.3956  13.4679  13.5572  13.6371  13.6547
    13.6970  13.8016  13.8283  13.9382  13.9818  14.0556  14.0977  14.1266
    14.2267  14.2763  14.3135  14.4066  14.5092  14.5927  14.6194  14.6568
    14.7289  14.7745  14.8070  14.9214  15.0025  15.0391  15.1498  15.1847
    15.2737  15.3791  15.4235  15.5316  15.6632  15.7005  15.7722  15.7862
    15.8616  15.9020  15.9805  16.0091  16.0307  16.1129  16.1496  16.1979
    16.2590  16.3697  16.3935  16.4298  16.4516  16.4913  16.5113  16.5351
    16.5783  16.5910  16.6340  16.6484  16.6850  16.7038  16.7314  16.7847
    16.8965  16.9746  16.9986  17.1360  17.1564  17.1886  17.2923  17.3123
    17.3819  17.4700  17.5009  17.5662  17.6622  17.7203  17.7598  17.8238
    17.8924  18.0077  18.0852  18.1404  18.1597  18.2263  18.2878  18.3461
    18.3744  18.4015  18.4238  18.5068  18.6180  18.6555  18.6900  18.8193
    18.8726  18.9157  18.9911  19.0215  19.0611  19.1458  19.1959  19.2662
    19.3115  19.3766  19.4250  19.4864  19.5625  19.6142  19.7090  19.8073
    19.9523  20.0536  20.0725  20.1434  20.2254  20.2776  20.3292  20.3974
    20.4590  20.5034  20.5688  20.6420  20.7032  20.7812  20.8449  20.8560
    20.9437  21.0147  21.1783  21.2181  21.2974  21.4018  21.4537  21.4772
    21.5395  21.6149  21.6590  21.8321  21.8391  21.9851  22.0085  22.1186
    22.1512

          k =-0.5000 0.0000 0.0000 ( 31984 PWs)   bands (ev):

   -56.2466 -56.1564 -56.0320 -55.8466 -55.8459 -55.7728 -55.7713 -55.7171
   -55.7167 -55.7119 -55.6874 -55.6167 -55.6148 -55.5190 -55.4792 -55.4391
   -55.4381 -55.4313 -55.4301 -55.4266 -55.3894 -55.0988 -54.8446 -54.5359
   -22.0692 -21.8859 -21.1220 -21.1168 -20.9637 -20.9460 -20.5055 -20.4643
   -20.4282 -20.3535 -20.2412 -20.2358 -20.1440 -20.1159 -20.0643 -20.0609
   -19.3526 -19.1850 -18.9475 -10.2246 -10.1845 -10.0989 -10.0197  -9.9663
    -9.9208  -9.3633  -9.3453  -9.1686  -9.1113  -9.0600  -9.0438  -8.9389
    -8.9035  -8.4475  -8.4378  -8.2232  -8.2049  -8.0156  -7.9965  -7.7645
    -7.7210  -7.6985  -7.6233  -7.5881  -7.4616  -7.3639  -7.3225  -7.1692
    -7.1455  -7.0532  -6.9763  -6.7168  -6.5811  -6.5212  -6.4543  -6.3815
    -6.3548  -6.2984  -6.1256  -6.0379  -5.8421  -5.7985  -5.6599  -5.5798
    -5.2667  -5.2210  -5.0895  -5.0689  -4.9903  -4.9373  -4.8921  -4.6946
    -4.6757  -4.6568  -4.4309  -4.3206  -4.1408  -4.1158  -3.9058  -3.7382
    -3.6619  -3.6125  -3.5478  -3.2620  -3.2294  -3.1299  -2.9294  -2.8367
    -2.7934  -2.7413  -2.7310  -2.5830  -2.5043  -2.4874  -2.2601  -2.1765
    -2.1186  -2.0873  -1.9830  -1.7046  -1.5590  -0.5245  -0.3242  -0.3113
    -0.1894  -0.0891   0.0502   0.1539   0.1547   0.2642   0.3038   0.3971
     0.4861   1.1909   1.3231   1.5583   3.6734   3.6779   4.1597   4.7816
     5.0150   5.2118   5.4695   5.6828   5.7215   5.7926   6.1756   6.3627
     6.3896   6.5763   6.6469   6.7370   6.9901   7.1330   7.4155   7.4330
     7.5235   7.7039   7.7353   7.9466   7.9561   8.0818   8.1933   8.3232
     8.3794   8.5745   8.6117   8.7217   8.7405   8.8631   8.9102   8.9989
     9.0340   9.1147   9.1665   9.1939   9.2714   9.3330   9.3797   9.4056
     9.4790   9.5737   9.6348   9.7324   9.8350   9.8601  10.1053  10.1426
    10.2928  10.3612  10.6391  10.6900  10.7714  10.7849  10.8155  10.8425
    11.1842  11.2157  11.2980  11.4394  11.5057  11.5195  11.5537  11.5662
    11.7645  11.8058  11.9111  11.9225  12.0176  12.1125  12.2708  12.4040
    12.4442  12.4862  12.5177  12.5394  12.7066  12.7333  12.8722  12.8781
    12.9068  12.9437  13.0053  13.0408  13.0982  13.1318  13.2735  13.3119
    13.5207  13.5938  13.6890  13.7709  13.8152  13.9175  14.0142  14.1254
    14.2150  14.2388  14.3315  14.4253  14.5578  14.5871  14.6778  14.7711
    15.0212  15.0405  15.1059  15.2831  15.4032  15.5314  15.5380  15.6244
    15.6607  15.6798  15.7761  15.7848  15.9229  15.9362  15.9838  16.0581
    16.1455  16.1538  16.1665  16.2154  16.2805  16.3160  16.3633  16.3700
    16.4102  16.4329  16.4362  16.4607  16.5175  16.5865  16.5895  16.5985
    16.6315  16.6694  16.6871  16.8198  16.8365  16.9363  17.0915  17.1384
    17.2014  17.2249  17.2525  17.3454  17.4290  17.5490  17.6153  17.6361
    17.7630  17.8027  17.8380  17.9204  17.9580  18.0030  18.0683  18.1756
    18.2142  18.3157  18.3412  18.4097  18.4416  18.4815  18.6121  18.6508
    18.7631  18.7884  18.8178  18.8342  18.8601  18.9742  19.0862  19.1102
    19.1590  19.2684  19.3139  19.3526  19.4252  19.4724  19.5438  19.5584
    19.5770  19.5979  19.6641  19.7554  19.8131  19.8360  19.9316  19.9590
    19.9862  20.0377  20.0937  20.1624  20.2425  20.2809  20.3320  20.3944
    20.4205  20.4414  20.5067  20.5254  20.5832  20.5996  20.6387  20.6741
    20.7401  20.7544  20.8504  20.8523  20.9413  21.1490  21.1650  21.2830
    21.3166  21.3684  21.4257  21.4373  21.6304  21.6759  21.7116  21.8118
    21.8426

          k =-0.5000 0.2488 0.0000 ( 32052 PWs)   bands (ev):

   -56.2466 -56.1564 -56.0319 -55.8465 -55.8458 -55.7727 -55.7713 -55.7171
   -55.7168 -55.7120 -55.6876 -55.6165 -55.6146 -55.5191 -55.4792 -55.4389
   -55.4379 -55.4315 -55.4301 -55.4268 -55.3895 -55.0987 -54.8446 -54.5359
   -22.0635 -21.8784 -21.0362 -21.0326 -20.8726 -20.8558 -20.5676 -20.5301
   -20.4456 -20.4008 -20.2955 -20.2779 -20.2265 -20.1629 -20.0924 -20.0796
   -19.3521 -19.1844 -18.9471 -10.1200  -9.9946  -9.7985  -9.7800  -9.7573
    -9.7069  -9.3537  -9.3325  -9.1047  -9.0645  -8.9743  -8.9536  -8.8599
    -8.8401  -8.5359  -8.5229  -8.2212  -8.2010  -8.1597  -8.1076  -8.0211
    -8.0050  -7.7812  -7.7218  -7.6259  -7.5950  -7.3805  -7.3393  -7.1833
    -7.1587  -6.9963  -6.9497  -6.8144  -6.6386  -6.6128  -6.5244  -6.4570
    -6.4240  -6.3609  -6.3037  -6.1916  -6.0603  -5.9474  -5.7175  -5.6396
    -5.5926  -5.5053  -5.2793  -5.1584  -5.0458  -4.9591  -4.7944  -4.4683
    -4.2559  -4.1749  -4.1308  -4.0295  -4.0108  -3.8503  -3.7492  -3.6872
    -3.6499  -3.5916  -3.5335  -3.4740  -3.3331  -3.2021  -3.0457  -2.9073
    -2.8394  -2.7770  -2.6287  -2.6033  -2.4618  -2.4265  -2.3461  -2.2460
    -2.1429  -2.1010  -2.0412  -1.7292  -1.5350  -0.6507  -0.6096  -0.4999
    -0.3408  -0.2393  -0.1845   0.1367   0.1705   0.4820   0.5727   0.8009
     0.8234   1.1416   1.3604   1.6223   3.9408   3.9551   4.2786   5.0234
     5.2361   5.4227   5.6356   5.6712   5.7312   5.9477   5.9652   6.0166
     6.3002   6.6446   6.6969   6.7434   6.7952   6.8974   7.0824   7.1738
     7.3130   7.5397   7.5688   7.6289   7.6760   7.7871   7.8630   7.9739
     8.0737   8.1723   8.1938   8.4104   8.4629   8.5552   8.5858   8.7521
     8.8280   9.0439   9.1871   9.2074   9.3415   9.4179   9.5417   9.5628
     9.6940   9.8937  10.0093  10.0314  10.3717  10.4638  10.5354  10.5679
    10.7768  10.7867  10.9353  10.9483  11.0210  11.0458  11.1573  11.2216
    11.3291  11.3977  11.5284  11.5725  11.6845  11.7739  11.8163  11.8629
    12.0659  12.0980  12.1567  12.2066  12.2747  12.3903  12.5087  12.5590
    12.6065  12.6708  12.7016  12.7537  12.8749  12.8797  12.9406  13.0138
    13.0930  13.1450  13.2319  13.2799  13.3114  13.3691  13.4034  13.5194
    13.5421  13.6318  13.7582  13.8781  13.9310  14.0183  14.0565  14.0737
    14.1685  14.2523  14.2796  14.3653  14.4401  14.4902  14.5423  14.5566
    14.6018  14.7302  14.7923  14.8821  14.9258  15.0060  15.1310  15.2364
    15.2833  15.3200  15.5532  15.6184  15.7012  15.7316  15.7625  15.8534
    15.9146  15.9328  15.9958  16.0444  16.0964  16.1561  16.2168  16.2546
    16.2929  16.3599  16.3981  16.4040  16.4334  16.5112  16.5289  16.5695
    16.5790  16.6029  16.6158  16.6601  16.6704  16.7301  16.8266  16.8638
    17.0013  17.0866  17.1144  17.1556  17.2441  17.2988  17.3493  17.3844
    17.4051  17.4693  17.5701  17.5988  17.6487  17.8081  17.8865  17.9467
    18.0246  18.0390  18.0967  18.1145  18.1790  18.2302  18.2536  18.3763
    18.4080  18.4792  18.5098  18.6106  18.6214  18.7422  18.7789  18.8538
    18.9024  18.9376  19.0343  19.0662  19.2231  19.2529  19.3034  19.3363
    19.3882  19.4856  19.5279  19.6164  19.6581  19.7246  19.8074  19.8512
    19.8864  19.9509  20.0038  20.1113  20.2742  20.3228  20.3474  20.4823
    20.5432  20.5911  20.6903  20.7607  20.8052  20.8906  20.9769  21.0299
    21.0567  21.1007  21.1381  21.2570  21.2888  21.4167  21.4919  21.5508
    21.6902  21.7127  21.7452  21.7948  21.8614  21.8967  21.9569  22.0263
    22.0776

          k =-0.5000-0.4976 0.0000 ( 31956 PWs)   bands (ev):

   -56.2466 -56.1564 -56.0318 -55.8464 -55.8457 -55.7726 -55.7712 -55.7171
   -55.7168 -55.7121 -55.6877 -55.6162 -55.6143 -55.5192 -55.4792 -55.4386
   -55.4376 -55.4318 -55.4301 -55.4271 -55.3896 -55.0987 -54.8446 -54.5359
   -22.0579 -21.8712 -20.8771 -20.8718 -20.7526 -20.7491 -20.6319 -20.6131
   -20.5714 -20.5700 -20.3463 -20.3190 -20.2912 -20.2000 -20.1055 -20.0889
   -19.3514 -19.1839 -18.9470 -10.0859  -9.9416  -9.4224  -9.4113  -9.3584
    -9.2461  -9.2372  -9.1918  -9.0158  -8.9932  -8.8659  -8.8049  -8.7603
    -8.6821  -8.6782  -8.6597  -8.6409  -8.5331  -8.5008  -8.3940  -8.1630
    -7.9660  -7.7622  -7.7322  -7.5922  -7.5140  -7.3746  -7.3713  -7.2758
    -7.1550  -7.1247  -7.0443  -7.0383  -6.9368  -6.9309  -6.8170  -6.6970
    -6.6450  -6.6321  -6.3375  -6.1847  -6.0231  -5.9503  -5.8139  -5.6152
    -5.5795  -5.3635  -5.2801  -5.1343  -4.9946  -4.8722  -4.6947  -4.4101
    -4.1280  -4.0769  -3.9293  -3.8389  -3.7629  -3.6902  -3.6847  -3.6420
    -3.5912  -3.5052  -3.4517  -3.4221  -3.3468  -3.3104  -3.2473  -2.9201
    -2.8457  -2.8420  -2.5995  -2.5937  -2.4548  -2.3717  -2.3524  -2.3214
    -2.2037  -2.1879  -2.0385  -1.7593  -1.5251  -0.9971  -0.8640  -0.8411
    -0.5374  -0.3401  -0.1467   0.1970   0.2169   0.7838   0.9055   0.9412
     1.0169   1.3383   1.3777   1.4744   4.3999   4.5066   4.5144   4.9170
     4.9396   5.6255   5.7806   5.8718   5.8877   6.0592   6.1249   6.1712
     6.3115   6.5032   6.5137   6.6079   6.6286   6.6357   6.6481   6.7461
     7.0635   7.1788   7.2904   7.3490   7.4606   7.5201   7.5685   7.5755
     7.8994   8.0366   8.2758   8.3269   8.3457   8.5401   8.5515   8.8590
     8.8688   8.9747   8.9965   9.2819   9.3179   9.3797   9.4154   9.5058
     9.6129   9.7511  10.1252  10.2190  10.3630  10.5963  10.6445  10.6582
    10.7709  10.8081  11.2212  11.2632  11.4402  11.5571  11.6758  11.7074
    11.8764  11.9298  11.9345  11.9825  12.1142  12.1740  12.3332  12.3674
    12.5418  12.6116  12.6363  12.7372  12.7986  12.8068  12.8757  12.8803
    13.0825  13.1109  13.1190  13.1363  13.2043  13.2615  13.2813  13.3080
    13.3260  13.3406  13.5253  13.5415  13.5716  13.5937  13.6324  13.6445
    13.6763  13.7298  13.7645  13.7981  13.8263  13.8352  13.8566  13.9073
    13.9561  13.9764  14.0226  14.0631  14.2831  14.3287  14.3855  14.4623
    14.5028  14.6320  14.6745  14.7143  14.7245  14.7751  14.8042  14.8249
    14.8954  14.8997  14.9529  14.9708  15.0223  15.0859  15.2327  15.2566
    15.2958  15.3360  15.4291  15.4441  15.5172  15.5703  15.6326  15.7472
    15.7674  15.7940  15.9907  16.1082  16.1772  16.3380  16.3496  16.3960
    16.4207  16.4667  16.4809  16.5232  16.5364  16.5610  16.5872  16.6035
    16.6195  16.6394  16.6477  16.7089  16.7887  17.0249  17.0995  17.1930
    17.2736  17.3996  17.4203  17.5367  17.6112  17.6723  17.7614  17.8108
    17.8875  17.9289  17.9676  17.9821  18.1497  18.2732  18.3810  18.4813
    18.5417  18.5905  18.6268  18.7763  18.8418  18.8985  18.9462  18.9846
    19.1233  19.1994  19.2629  19.3413  19.3742  19.5155  19.6189  19.6890
    19.7038  19.7721  19.8537  19.9382  19.9876  20.0378  20.1166  20.1896
    20.2652  20.3349  20.4393  20.4941  20.5140  20.5160  20.5673  20.6670
    20.6754  20.7290  20.7950  20.8240  20.8621  20.8863  21.0060  21.0356
    21.0570  21.1001  21.1483  21.1726  21.2463  21.2597  21.2995  21.3048
    21.3575  21.4023  21.4383  21.4985  21.5206  21.6264  21.6547  21.7129
    21.7360

          k =-0.2500 0.2488 0.0000 ( 32025 PWs)   bands (ev):

   -56.2466 -56.1562 -56.0319 -55.8654 -55.8259 -55.7902 -55.7528 -55.7221
   -55.7182 -55.7155 -55.6765 -55.6176 -55.6132 -55.5191 -55.4791 -55.4408
   -55.4359 -55.4334 -55.4283 -55.4268 -55.3894 -55.0979 -54.8446 -54.5358
   -22.1361 -21.8503 -21.2852 -21.1213 -20.7855 -20.6753 -20.6666 -20.4878
   -20.4651 -20.3907 -20.3173 -20.2679 -20.2429 -20.0948 -20.0331 -20.0263
   -19.3325 -19.1026 -18.9425 -10.4028 -10.1727 -10.1155  -9.9565  -9.5812
    -9.5088  -9.4415  -9.2556  -9.2199  -9.1808  -9.1041  -9.0779  -8.9178
    -8.7605  -8.7381  -8.6754  -8.5192  -8.4821  -8.1506  -7.9857  -7.9192
    -7.8273  -7.8134  -7.6527  -7.3489  -7.2369  -7.1614  -7.0592  -6.9745
    -6.9233  -6.8605  -6.7903  -6.6551  -6.6228  -6.5841  -6.5240  -6.3448
    -6.2943  -6.2313  -6.1116  -5.9486  -5.8795  -5.7468  -5.6269  -5.5088
    -5.3898  -5.2616  -5.1693  -5.0799  -5.0207  -4.9314  -4.8074  -4.5897
    -4.5381  -4.4890  -4.4242  -4.2640  -4.1321  -4.0011  -3.9193  -3.8765
    -3.7859  -3.7635  -3.6846  -3.6074  -3.5337  -3.4941  -3.2273  -3.1976
    -3.0554  -2.8009  -2.6834  -2.5325  -2.4755  -2.3909  -2.3196  -2.2007
    -2.0511  -1.9235  -1.8145  -1.7183  -1.5843  -1.1627  -1.0563  -0.7041
    -0.3776  -0.1966   0.0849   0.3600   0.6019   0.7489   0.7793   0.9220
     1.1113   1.3092   1.3427   1.7381   3.0611   3.8214   4.6011   5.0153
     5.0444   5.1201   5.3257   5.6546   6.0701   6.1589   6.1829   6.3160
     6.4442   6.5346   6.6785   6.8524   6.9531   7.0030   7.1084   7.2174
     7.3687   7.4815   7.5510   7.5891   7.6790   7.8651   7.9289   8.0233
     8.1484   8.2437   8.2967   8.4405   8.5500   8.6429   8.6677   8.7558
     8.8480   8.9887   9.1336   9.2919   9.3467   9.4654   9.5304   9.5905
     9.7026   9.8679  10.0050  10.1168  10.1975  10.2596  10.3195  10.3827
    10.5268  10.5827  10.6552  10.7748  10.8040  10.9488  11.0489  11.0806
    11.1760  11.2071  11.3616  11.4533  11.4810  11.7056  11.7239  11.7747
    11.8521  11.9415  11.9838  12.0608  12.1301  12.2201  12.2579  12.3250
    12.4042  12.4500  12.5102  12.5679  12.6337  12.7321  12.8172  12.8819
    12.9277  13.0211  13.1498  13.1687  13.2180  13.4152  13.5014  13.5406
    13.6190  13.6909  13.7575  13.8496  13.8960  13.9572  14.0286  14.1139
    14.1777  14.2773  14.4066  14.4814  14.5390  14.6255  14.7360  14.8102
    14.8630  14.9329  15.0701  15.2041  15.2363  15.3193  15.4018  15.4426
    15.5197  15.5727  15.6255  15.6632  15.7491  15.7600  15.8168  15.8658
    15.9494  16.0011  16.0485  16.0884  16.1480  16.1861  16.2420  16.3439
    16.3979  16.4246  16.4501  16.4950  16.5635  16.5673  16.5861  16.6108
    16.6448  16.7426  16.7967  16.8535  16.9053  16.9196  17.0160  17.1019
    17.1327  17.1857  17.2022  17.2412  17.2680  17.3464  17.4507  17.4769
    17.5064  17.5501  17.5857  17.6117  17.7274  17.7717  17.8866  17.9470
    18.0444  18.0830  18.1278  18.2165  18.2671  18.3728  18.4663  18.5076
    18.5882  18.6143  18.6896  18.7133  18.8093  18.8374  18.8950  19.0121
    19.0360  19.1485  19.1739  19.2018  19.3172  19.3588  19.4303  19.4466
    19.6384  19.7585  19.8224  19.8816  19.9414  19.9550  19.9843  20.0602
    20.1147  20.2047  20.2359  20.2968  20.3586  20.3667  20.4939  20.5711
    20.6467  20.6879  20.7573  20.8333  20.9151  20.9723  21.0158  21.0665
    21.0796  21.2278  21.2679  21.3766  21.4152  21.4685  21.5151  21.5583
    21.6083  21.6566  21.7272  21.7842  21.8261  21.8882  21.9883  22.0964
    22.1280

     the Fermi energy is    -1.7679 ev

!    total energy              =   -2280.41043174 Ry
     Harris-Foulkes estimate   =   -2280.41043257 Ry
     estimated scf accuracy    <       0.00000089 Ry

     The total energy is the sum of the following terms:

     one-electron contribution =  -23637.15904099 Ry
     hartree contribution      =   11859.19751411 Ry
     xc contribution           =    -572.03473575 Ry
     ewald contribution        =   10069.15257164 Ry
     Hubbard energy            =       0.43354517 Ry
     smearing contrib. (-TS)   =      -0.00028593 Ry

     convergence has been achieved in  34 iterations

     Forces acting on atoms (Ry/au):


     negative rho (up, down):  0.158E+01 0.000E+00
     atom    1 type  1   force =    -0.00867659   -0.00471482   -0.00027184
     atom    2 type  1   force =     0.00013238    0.00385336    0.00100448
     atom    3 type  2   force =     0.01479590    0.00699101   -0.00058425
     atom    4 type  2   force =     0.01095412    0.00457591   -0.00064411
     atom    5 type  1   force =     0.00123761   -0.00432363   -0.00079618
     atom    6 type  1   force =    -0.00014877   -0.00225164    0.00072383
     atom    7 type  1   force =     0.00009820   -0.00013997    0.00059077
     atom    8 type  1   force =    -0.00424531    0.00251432    0.00198307
     atom    9 type  2   force =     0.00518701   -0.00457974   -0.00199411
     atom   10 type  2   force =    -0.00004139   -0.01739466   -0.00309351
     atom   11 type  1   force =    -0.00449928    0.00182418   -0.00100461
     atom   12 type  1   force =    -0.00910207    0.01280481    0.00080872
     atom   13 type  1   force =    -0.00113312   -0.00796434    0.00102718
     atom   14 type  1   force =    -0.00902243   -0.00354726   -0.00021929
     atom   15 type  1   force =     0.00024562    0.00104269    0.00179293
     atom   16 type  2   force =    -0.01555015    0.00693185   -0.00072975
     atom   17 type  2   force =     0.01089420    0.00488129   -0.00066162
     atom   18 type  1   force =     0.00111555   -0.00428624   -0.00077213
     atom   19 type  1   force =     0.00002007   -0.00218043    0.00073289
     atom   20 type  1   force =     0.00007643   -0.00342748    0.00070812
     atom   21 type  1   force =    -0.00402618    0.00255704    0.00183194
     atom   22 type  2   force =    -0.00137037   -0.00444371   -0.00218894
     atom   23 type  2   force =    -0.00022395    0.01073288   -0.00681869
     atom   24 type  1   force =     0.00459062    0.00186934   -0.00100751
     atom   25 type  1   force =     0.00923055    0.01277516    0.00080478
     atom   26 type  1   force =    -0.00112694   -0.01505562    0.00158202
     atom   27 type  3   force =    -0.00001260   -0.00012767    0.00089546
     atom   28 type  3   force =    -0.00003198    0.00053856    0.00053044
     atom   29 type  3   force =     0.00019298   -0.00039698    0.00057382
     atom   30 type  3   force =     0.00042139   -0.00069462    0.00058354
     atom   31 type  1   force =     0.00001848    0.00163642    0.00461258

     Total force =     0.010728     Total SCF correction =     0.003663
     SCF correction compared to forces is large: reduce conv_thr to get better values

     BFGS Geometry Optimization

     number of scf cycles    =   1
     number of bfgs steps    =   0

     energy   new            =   -2280.4104317384 Ry

     new trust radius        =       0.0068186915 bohr
     new conv_thr            =       0.0000010000 Ry


ATOMIC_POSITIONS (crystal)
O0       0.000000000   0.000000000   0.377704570    0   0   1
O0       0.000000000   0.500000000   0.401650065    0   0   1
Pt1      0.250000000   0.500000000   0.451228329    0   0   1
Pt1      0.000000000   0.000000000   0.452697133    0   0   1
O0       0.250000000   0.810000000   0.443374096    0   0   1
O0       0.250000000   0.190000000   0.460094459    0   0   1
O0       0.000000000   0.500000000   0.496821801    0   0   1
O0       0.000000000   0.000000000   0.529739613    0   0   1
Pt1      0.250000000   0.000000000   0.576030166    0   0   1
Pt1      0.000000000   0.500000000   0.575288205    0   0   1
O0       0.250000000   0.690000000   0.566099932    0   0   1
O0       0.250000000   0.310000000   0.585786155    0   0   1
O0       0.000000000   0.000000000   0.621400518    0   0   1
O0       0.500000000   0.000000000   0.377785620    0   0   1
O0       0.500000000   0.500000000   0.400915815    0   0   1
Pt1      0.750000000   0.500000000   0.451235423    0   0   1
Pt1      0.500000000   0.000000000   0.452706784    0   0   1
O0       0.750000000   0.810000000   0.443414576    0   0   1
O0       0.750000000   0.190000000   0.460084640    0   0   1
O0       0.500000000   0.500000000   0.498234145    0   0   1
O0       0.500000000   0.000000000   0.529596594    0   0   1
Pt1      0.750000000   0.000000000   0.576036275    0   0   1
Pt1      0.500000000   0.500000000   0.577733793    0   0   1
O0       0.750000000   0.690000000   0.566089874    0   0   1
O0       0.750000000   0.310000000   0.585796076    0   0   1
O0       0.500000000   0.000000000   0.621381602    0   0   1
H2       0.000108968   0.639489592   0.385667887
H2       0.500177381   0.640063904   0.385340596
H2       0.142675808   0.036287638   0.367591462
H2       0.641954518   0.038633373   0.367591656
O0       0.500091514   0.572733404   0.644552139


     Check: negative starting charge=   -1.533958
     NEW-OLD atomic charge density approx. for the potential

     Check: negative/imaginary core charge=   -0.000003    0.000000
     Check: negative starting charge=   -1.533973

     negative rho (up, down):  0.158E+01 0.000E+00
 Atomic wfc used for LDA+U Projector are NOT orthogonalized

     total cpu time spent up to now is     8791.1 secs

     per-process dynamical memory:   438.2 Mb

     Self-consistent Calculation

     iteration #  1     ecut=    40.00 Ry     beta=0.70
     Davidson diagonalization with overlap
     ethr =  1.00E-06,  avg # of iterations =  3.0
 --- enter write_ns ---
 LDA+U parameters:
U( 2)     =  1.50000000
alpha( 2) =  0.00000000
atom    3   Tr[ns(na)] =   8.67547
    eigenvalues: 
  0.686  0.699  0.983  0.984  0.987
    eigenvectors:
  0.047  0.129  0.473  0.338  0.013
  0.743  0.257  0.000  0.000  0.000
  0.001  0.003  0.006  0.101  0.890
  0.210  0.611  0.104  0.062  0.013
  0.000  0.000  0.417  0.498  0.084
    occupations:
  0.932  0.004  0.007 -0.109 -0.000
  0.004  0.690  0.002  0.004 -0.004
  0.007  0.002  0.985  0.016  0.001
 -0.109  0.004  0.016  0.747  0.001
 -0.000 -0.004  0.001  0.001  0.983
atom    4   Tr[ns(na)] =   8.66368
    eigenvalues: 
  0.684  0.704  0.979  0.982  0.984
    eigenvectors:
  0.000  0.987  0.006  0.003  0.005
  0.008  0.000  0.117  0.860  0.015
  0.000  0.004  0.822  0.087  0.087
  0.000  0.009  0.054  0.043  0.894
  0.992  0.000  0.001  0.007  0.000
    occupations:
  0.707 -0.005 -0.018  0.026 -0.001
 -0.005  0.979  0.001  0.000  0.026
 -0.018  0.001  0.978  0.003  0.000
  0.026  0.000  0.003  0.981  0.000
 -0.001  0.026  0.000  0.000  0.686
atom    9   Tr[ns(na)] =   8.63460
    eigenvalues: 
  0.706  0.718  0.951  0.959  0.984
    eigenvectors:
  0.002  0.134  0.001  0.010  0.853
  0.984  0.016  0.000  0.000  0.000
  0.000  0.010  0.016  0.970  0.004
  0.013  0.840  0.001  0.005  0.142
  0.000  0.000  0.982  0.015  0.002
    occupations:
  0.947  0.001 -0.008 -0.091  0.001
  0.001  0.706  0.001  0.001 -0.004
 -0.008  0.001  0.956 -0.023  0.001
 -0.091  0.001 -0.023  0.756 -0.000
  0.001 -0.004  0.001 -0.000  0.951
atom   10   Tr[ns(na)] =   8.70764
    eigenvalues: 
  0.662  0.751  0.974  0.981  0.986
    eigenvectors:
  0.000  0.981  0.000  0.007  0.012
  0.011  0.000  0.989  0.000  0.000
  0.000  0.001  0.000  0.365  0.634
  0.000  0.018  0.000  0.628  0.354
  0.989  0.000  0.011  0.000  0.000
    occupations:
  0.756  0.000 -0.008  0.031  0.000
  0.000  0.971  0.000 -0.000 -0.032
 -0.008  0.000  0.984 -0.001 -0.000
  0.031 -0.000 -0.001  0.978 -0.000
  0.000 -0.032 -0.000 -0.000  0.665
atom   16   Tr[ns(na)] =   8.67558
    eigenvalues: 
  0.686  0.699  0.983  0.984  0.987
    eigenvectors:
  0.047  0.129  0.480  0.329  0.014
  0.743  0.257  0.000  0.000  0.000
  0.001  0.003  0.004  0.099  0.893
  0.210  0.611  0.105  0.060  0.014
  0.000  0.000  0.410  0.511  0.079
    occupations:
  0.932 -0.004  0.007 -0.109  0.000
 -0.004  0.689 -0.002 -0.004 -0.004
  0.007 -0.002  0.985  0.016 -0.001
 -0.109 -0.004  0.016  0.747 -0.001
  0.000 -0.004 -0.001 -0.001  0.983
atom   17   Tr[ns(na)] =   8.66447
    eigenvalues: 
  0.685  0.705  0.976  0.982  0.984
    eigenvectors:
  0.000  0.986  0.005  0.002  0.006
  0.008  0.000  0.047  0.938  0.007
[...]
    11.1800  11.2101  11.2955  11.4431  11.5026  11.5254  11.5550  11.5680
    11.7641  11.8031  11.9092  11.9214  12.0207  12.1102  12.2660  12.3962
    12.4446  12.4819  12.5189  12.5337  12.7084  12.7370  12.8706  12.8757
    12.8993  12.9388  13.0029  13.0417  13.0996  13.1346  13.2701  13.3094
    13.5177  13.5919  13.6930  13.7734  13.8169  13.9181  14.0165  14.1253
    14.2120  14.2382  14.3463  14.4336  14.5613  14.5895  14.6778  14.7743
    15.0279  15.0491  15.1039  15.2881  15.3947  15.5315  15.5369  15.6255
    15.6645  15.6832  15.7842  15.7931  15.9285  15.9441  15.9938  16.0599
    16.1549  16.1576  16.1720  16.2193  16.2822  16.3208  16.3665  16.3741
    16.4138  16.4366  16.4387  16.4655  16.5151  16.5767  16.5792  16.5978
    16.6340  16.6717  16.6919  16.8263  16.8422  16.9372  17.0915  17.1284
    17.2008  17.2258  17.2506  17.3384  17.4051  17.5509  17.6122  17.6304
    17.7635  17.7978  17.8317  17.9179  17.9623  18.0005  18.0669  18.1687
    18.2106  18.3114  18.3337  18.4078  18.4291  18.4760  18.6151  18.6546
    18.7642  18.7879  18.8214  18.8332  18.8598  18.9743  19.0918  19.1099
    19.1606  19.2623  19.3082  19.3451  19.4191  19.4747  19.5420  19.5563
    19.5775  19.5959  19.6616  19.7579  19.8137  19.8365  19.9314  19.9609
    19.9858  20.0368  20.0944  20.1656  20.2447  20.2828  20.3282  20.3898
    20.4149  20.4414  20.5092  20.5277  20.5836  20.5977  20.6381  20.6715
    20.7405  20.7541  20.8464  20.8566  20.9422  21.1598  21.1767  21.2873
    21.3191  21.3705  21.4219  21.4360  21.6302  21.6783  21.7125  21.8052
    21.8365

          k =-0.5000 0.2488 0.0000 ( 32052 PWs)   bands (ev):

   -56.2300 -56.1451 -56.0272 -55.8444 -55.8438 -55.7903 -55.7889 -55.7143
   -55.7135 -55.7133 -55.6878 -55.6321 -55.6305 -55.5247 -55.4823 -55.4514
   -55.4506 -55.4272 -55.4251 -55.4227 -55.3835 -55.1200 -54.8718 -54.5679
   -22.0910 -21.9145 -21.0435 -21.0413 -20.8736 -20.8570 -20.5947 -20.5413
   -20.4564 -20.4166 -20.3072 -20.2884 -20.2305 -20.1741 -20.0968 -20.0833
   -19.3498 -19.1794 -18.9162 -10.1448 -10.0248  -9.8005  -9.7852  -9.7456
    -9.6986  -9.3513  -9.3283  -9.1365  -9.0929  -8.9840  -8.9646  -8.8699
    -8.8446  -8.5432  -8.5283  -8.2357  -8.2129  -8.1784  -8.1248  -8.0217
    -8.0049  -7.7861  -7.7305  -7.6382  -7.6030  -7.3848  -7.3487  -7.1824
    -7.1589  -6.9986  -6.9553  -6.8203  -6.6438  -6.6156  -6.5308  -6.4641
    -6.4294  -6.3721  -6.2998  -6.1911  -6.0596  -5.9487  -5.7294  -5.6404
    -5.5975  -5.5058  -5.2837  -5.1588  -5.0486  -4.9627  -4.8097  -4.4789
    -4.2597  -4.1792  -4.1342  -4.0380  -4.0201  -3.8626  -3.7658  -3.7006
    -3.6572  -3.6009  -3.5416  -3.4782  -3.3408  -3.2108  -3.0564  -2.9156
    -2.8501  -2.7885  -2.6400  -2.6191  -2.4764  -2.4431  -2.3565  -2.2515
    -2.1537  -2.1061  -2.0463  -1.7303  -1.5306  -0.6586  -0.6202  -0.5115
    -0.3513  -0.2478  -0.1861   0.1293   0.1647   0.4736   0.5612   0.7844
     0.8128   1.1289   1.3429   1.6062   3.9388   3.9525   4.2641   5.0203
     5.2360   5.4231   5.6342   5.6724   5.7313   5.9460   5.9646   6.0179
     6.2939   6.6322   6.6940   6.7366   6.7925   6.8955   7.0781   7.1731
     7.3068   7.5343   7.5652   7.6222   7.6715   7.7816   7.8574   7.9668
     8.0609   8.1628   8.1816   8.4066   8.4571   8.5461   8.5832   8.7418
     8.8195   9.0340   9.1876   9.2066   9.3385   9.4207   9.5383   9.5558
     9.6976   9.8953  10.0065  10.0297  10.3718  10.4616  10.5335  10.5672
    10.7739  10.7840  10.9351  10.9458  11.0182  11.0428  11.1571  11.2225
    11.3292  11.4003  11.5324  11.5723  11.6807  11.7717  11.8120  11.8582
    12.0666  12.0964  12.1576  12.2072  12.2760  12.3870  12.5078  12.5593
    12.6022  12.6709  12.7010  12.7528  12.8743  12.8808  12.9400  13.0109
    13.0926  13.1430  13.2316  13.2778  13.3119  13.3668  13.4028  13.5263
    13.5520  13.6369  13.7640  13.8779  13.9382  14.0246  14.0615  14.0809
    14.1667  14.2524  14.2813  14.3626  14.4406  14.4918  14.5460  14.5595
    14.6058  14.7330  14.7936  14.8860  14.9307  15.0183  15.1374  15.2441
    15.2856  15.3236  15.5566  15.6195  15.7004  15.7335  15.7641  15.8577
    15.9165  15.9384  16.0002  16.0470  16.0996  16.1582  16.2218  16.2582
    16.2959  16.3621  16.4010  16.4074  16.4369  16.5124  16.5287  16.5688
    16.5771  16.5982  16.6121  16.6641  16.6709  16.7330  16.8321  16.8664
    16.9995  17.0894  17.1178  17.1585  17.2461  17.2968  17.3475  17.3779
    17.3884  17.4713  17.5732  17.6039  17.6478  17.8081  17.8803  17.9436
    18.0221  18.0361  18.0984  18.1153  18.1791  18.2299  18.2527  18.3755
    18.4066  18.4755  18.5115  18.6108  18.6205  18.7405  18.7781  18.8558
    18.9000  18.9359  19.0323  19.0647  19.2228  19.2547  19.3049  19.3360
    19.3879  19.4822  19.5252  19.6110  19.6512  19.7207  19.8079  19.8452
    19.8856  19.9460  20.0015  20.1091  20.2723  20.3171  20.3484  20.4844
    20.5426  20.5934  20.6890  20.7565  20.7985  20.8862  20.9719  21.0241
    21.0588  21.0997  21.1385  21.2507  21.2815  21.4166  21.4933  21.5487
    21.6906  21.7151  21.7462  21.7939  21.8577  21.8959  21.9546  22.0242
    22.0746

          k =-0.5000-0.4976 0.0000 ( 31956 PWs)   bands (ev):

   -56.2300 -56.1451 -56.0271 -55.8443 -55.8437 -55.7902 -55.7888 -55.7144
   -55.7135 -55.7133 -55.6879 -55.6319 -55.6302 -55.5247 -55.4823 -55.4513
   -55.4505 -55.4273 -55.4251 -55.4228 -55.3836 -55.1200 -54.8717 -54.5679
   -22.0855 -21.9076 -20.8850 -20.8790 -20.7734 -20.7568 -20.6361 -20.6195
   -20.5785 -20.5776 -20.3661 -20.3248 -20.2944 -20.2189 -20.1111 -20.0934
   -19.3493 -19.1790 -18.9160 -10.1117  -9.9764  -9.4287  -9.4170  -9.3571
    -9.2541  -9.2380  -9.2081  -9.0479  -9.0008  -8.8659  -8.8193  -8.7685
    -8.6864  -8.6824  -8.6621  -8.6404  -8.5370  -8.5009  -8.3892  -8.1795
    -7.9919  -7.7675  -7.7385  -7.6051  -7.5268  -7.3894  -7.3775  -7.2701
    -7.1620  -7.1250  -7.0498  -7.0422  -6.9411  -6.9319  -6.8096  -6.6940
    -6.6550  -6.6359  -6.3513  -6.1820  -6.0225  -5.9428  -5.8204  -5.6276
    -5.5855  -5.3663  -5.2822  -5.1357  -5.0016  -4.8734  -4.7054  -4.4184
    -4.1315  -4.0800  -3.9313  -3.8523  -3.7759  -3.7004  -3.6939  -3.6494
    -3.6034  -3.5022  -3.4688  -3.4346  -3.3509  -3.3198  -3.2636  -2.9257
    -2.8563  -2.8498  -2.6139  -2.6067  -2.4741  -2.3901  -2.3685  -2.3283
    -2.2096  -2.1974  -2.0403  -1.7593  -1.5246  -0.9978  -0.8729  -0.8498
    -0.5515  -0.3419  -0.1472   0.1909   0.2129   0.7703   0.8972   0.9291
     0.9994   1.3229   1.3571   1.4545   4.3822   4.5046   4.5149   4.9157
     4.9366   5.6216   5.7708   5.8614   5.8861   6.0570   6.1251   6.1715
     6.3103   6.5005   6.5114   6.6049   6.6288   6.6369   6.6482   6.7430
     7.0587   7.1756   7.2859   7.3396   7.4559   7.5181   7.5645   7.5744
     7.8855   8.0204   8.2675   8.3245   8.3387   8.5293   8.5434   8.8477
     8.8597   8.9674   8.9943   9.2674   9.3083   9.3749   9.4058   9.4986
     9.6133   9.7466  10.1333  10.2196  10.3581  10.5860  10.6408  10.6598
    10.7656  10.8028  11.2129  11.2553  11.4388  11.5520  11.6824  11.7107
    11.8735  11.9283  11.9391  11.9816  12.1099  12.1700  12.3335  12.3675
    12.5461  12.6118  12.6366  12.7396  12.7960  12.8036  12.8770  12.8828
    13.0826  13.1115  13.1216  13.1400  13.2039  13.2659  13.2852  13.3090
    13.3287  13.3443  13.5243  13.5407  13.5744  13.5969  13.6358  13.6479
    13.6780  13.7284  13.7652  13.7987  13.8301  13.8364  13.8572  13.9111
    13.9585  13.9776  14.0226  14.0659  14.2895  14.3343  14.3930  14.4713
    14.5021  14.6292  14.6811  14.7177  14.7324  14.7814  14.8049  14.8262
    14.8958  14.9056  14.9527  14.9705  15.0226  15.0880  15.2400  15.2604
    15.2977  15.3470  15.4346  15.4501  15.5211  15.5743  15.6399  15.7511
    15.7720  15.7979  15.9987  16.1131  16.1838  16.3413  16.3499  16.3969
    16.4221  16.4726  16.4898  16.5263  16.5317  16.5555  16.5889  16.6059
    16.6182  16.6399  16.6536  16.7068  16.7863  17.0313  17.1064  17.1927
    17.2677  17.3914  17.4055  17.5310  17.6138  17.6703  17.7683  17.8175
    17.8951  17.9272  17.9721  17.9849  18.1529  18.2786  18.3775  18.4845
    18.5420  18.5876  18.6301  18.7677  18.8387  18.8959  18.9435  18.9767
    19.1247  19.1964  19.2661  19.3357  19.3686  19.5073  19.6150  19.6858
    19.7048  19.7709  19.8474  19.9342  19.9853  20.0341  20.1143  20.1886
    20.2642  20.3350  20.4349  20.4938  20.5093  20.5127  20.5671  20.6645
    20.6743  20.7225  20.7965  20.8257  20.8597  20.8770  20.9977  21.0366
    21.0558  21.1029  21.1464  21.1731  21.2425  21.2566  21.2939  21.3026
    21.3586  21.4023  21.4391  21.4957  21.5183  21.6217  21.6489  21.7111
    21.7335

          k =-0.2500 0.2488 0.0000 ( 32025 PWs)   bands (ev):

   -56.2300 -56.1449 -56.0271 -55.8634 -55.8238 -55.8079 -55.7703 -55.7237
   -55.7147 -55.7121 -55.6772 -55.6334 -55.6291 -55.5247 -55.4822 -55.4533
   -55.4486 -55.4288 -55.4241 -55.4221 -55.3834 -55.1192 -54.8717 -54.5678
   -22.1668 -21.8837 -21.2910 -21.1222 -20.7958 -20.6755 -20.6732 -20.5186
   -20.4731 -20.4100 -20.3257 -20.2767 -20.2550 -20.1031 -20.0366 -20.0317
   -19.3297 -19.0975 -18.9122 -10.4304 -10.1781 -10.1046  -9.9830  -9.5804
    -9.5154  -9.4407  -9.2673  -9.2336  -9.2001  -9.1058  -9.0820  -8.9205
    -8.7699  -8.7424  -8.6852  -8.5386  -8.5105  -8.1565  -7.9976  -7.9235
    -7.8354  -7.8114  -7.6581  -7.3492  -7.2473  -7.1657  -7.0742  -6.9761
    -6.9320  -6.8634  -6.7978  -6.6544  -6.6253  -6.5871  -6.5319  -6.3484
    -6.2972  -6.2373  -6.1142  -5.9489  -5.8809  -5.7583  -5.6314  -5.5168
    -5.3924  -5.2654  -5.1699  -5.0822  -5.0243  -4.9422  -4.8132  -4.5963
    -4.5459  -4.4935  -4.4288  -4.2780  -4.1409  -4.0155  -3.9282  -3.8846
    -3.7915  -3.7697  -3.6884  -3.6149  -3.5418  -3.5007  -3.2373  -3.2069
    -3.0700  -2.8134  -2.6944  -2.5429  -2.4909  -2.4060  -2.3378  -2.2234
    -2.0590  -1.9308  -1.8189  -1.7219  -1.5823  -1.1671  -1.0567  -0.7098
    -0.3765  -0.2051   0.0734   0.3605   0.5839   0.7323   0.7619   0.9080
     1.0972   1.2920   1.3397   1.7230   3.0559   3.8124   4.6007   5.0141
     5.0436   5.1183   5.3269   5.6470   6.0626   6.1578   6.1806   6.3141
     6.4395   6.5313   6.6769   6.8473   6.9511   7.0019   7.1007   7.2091
     7.3599   7.4734   7.5445   7.5831   7.6740   7.8629   7.9214   8.0146
     8.1389   8.2355   8.2893   8.4347   8.5447   8.6425   8.6669   8.7531
     8.8444   8.9822   9.1307   9.2874   9.3484   9.4611   9.5275   9.5864
     9.6980   9.8686  10.0057  10.1155  10.1954  10.2574  10.3191  10.3827
    10.5260  10.5822  10.6556  10.7728  10.8054  10.9488  11.0444  11.0771
    11.1691  11.2030  11.3605  11.4510  11.4808  11.7044  11.7284  11.7762
    11.8523  11.9444  11.9841  12.0630  12.1314  12.2149  12.2576  12.3255
    12.4046  12.4503  12.5120  12.5660  12.6353  12.7332  12.8158  12.8850
    12.9306  13.0229  13.1587  13.1747  13.2190  13.4183  13.4994  13.5409
    13.6176  13.6899  13.7588  13.8499  13.9004  13.9541  14.0235  14.1162
    14.1749  14.2765  14.4095  14.4859  14.5399  14.6264  14.7387  14.8145
    14.8666  14.9347  15.0768  15.2046  15.2398  15.3260  15.4039  15.4467
    15.5232  15.5757  15.6282  15.6666  15.7547  15.7642  15.8177  15.8722
    15.9555  16.0028  16.0504  16.0898  16.1526  16.1880  16.2450  16.3483
    16.4029  16.4279  16.4548  16.4975  16.5533  16.5637  16.5788  16.6105
    16.6463  16.7426  16.7998  16.8558  16.9065  16.9200  17.0182  17.1012
    17.1343  17.1910  17.2040  17.2417  17.2676  17.3402  17.4434  17.4690
    17.5042  17.5479  17.5866  17.6154  17.7279  17.7744  17.8888  17.9460
    18.0412  18.0813  18.1285  18.2176  18.2635  18.3705  18.4687  18.5081
    18.5865  18.6157  18.6906  18.7124  18.8091  18.8386  18.8951  19.0139
    19.0341  19.1483  19.1701  19.2017  19.3135  19.3574  19.4300  19.4445
    19.6344  19.7565  19.8159  19.8775  19.9384  19.9510  19.9798  20.0599
    20.1093  20.2067  20.2347  20.2976  20.3643  20.3697  20.4886  20.5701
    20.6396  20.6880  20.7527  20.8324  20.9143  20.9710  21.0157  21.0688
    21.0778  21.2260  21.2671  21.3735  21.4137  21.4686  21.5139  21.5560
    21.6053  21.6549  21.7242  21.7817  21.8229  21.8860  21.9870  22.0910
    22.1246

     the Fermi energy is    -1.7715 ev

!    total energy              =   -2280.41062417 Ry
     Harris-Foulkes estimate   =   -2280.41062417 Ry
     estimated scf accuracy    <          2.5E-09 Ry

     The total energy is the sum of the following terms:

     one-electron contribution =  -23652.54514991 Ry
     hartree contribution      =   11866.83451825 Ry
     xc contribution           =    -572.03268447 Ry
     ewald contribution        =   10076.89970442 Ry
     Hubbard energy            =       0.43324280 Ry
     smearing contrib. (-TS)   =      -0.00025526 Ry

     convergence has been achieved in  16 iterations

     Forces acting on atoms (Ry/au):


     negative rho (up, down):  0.158E+01 0.000E+00
     atom    1 type  1   force =    -0.00826524   -0.00429973    0.00005939
     atom    2 type  1   force =     0.00014455    0.00377287   -0.00026684
     atom    3 type  2   force =     0.01531833    0.00648740   -0.00002063
     atom    4 type  2   force =     0.01057050    0.00457177    0.00015100
     atom    5 type  1   force =     0.00119181   -0.00430748    0.00031744
     atom    6 type  1   force =    -0.00021692   -0.00255021    0.00005277
     atom    7 type  1   force =     0.00009458   -0.00005861    0.00059706
     atom    8 type  1   force =    -0.00412645    0.00266345    0.00020149
     atom    9 type  2   force =     0.00506321   -0.00469172   -0.00012450
     atom   10 type  2   force =    -0.00002335   -0.01876861   -0.00007717
     atom   11 type  1   force =    -0.00422911    0.00207504    0.00041470
     atom   12 type  1   force =    -0.00977628    0.01384940    0.00017621
     atom   13 type  1   force =    -0.00110846   -0.00833667   -0.00045230
     atom   14 type  1   force =    -0.00837530   -0.00313114    0.00004034
     atom   15 type  1   force =     0.00019252    0.00141651   -0.00042876
     atom   16 type  2   force =    -0.01605233    0.00639734   -0.00007425
     atom   17 type  2   force =     0.01048012    0.00477845    0.00008553
     atom   18 type  1   force =     0.00123228   -0.00424687    0.00029797
     atom   19 type  1   force =     0.00015094   -0.00246874    0.00007643
     atom   20 type  1   force =     0.00007057   -0.00362129   -0.00030668
     atom   21 type  1   force =    -0.00399291    0.00265417    0.00003074
     atom   22 type  2   force =    -0.00132694   -0.00458346   -0.00018218
     atom   23 type  2   force =    -0.00019723    0.01212094   -0.00017266
     atom   24 type  1   force =     0.00433756    0.00212229    0.00043027
     atom   25 type  1   force =     0.00991402    0.01381410    0.00018051
     atom   26 type  1   force =    -0.00108989   -0.01602576   -0.00035859
     atom   27 type  3   force =    -0.00001033    0.00010345   -0.00009930
     atom   28 type  3   force =    -0.00001637    0.00022106   -0.00007977
     atom   29 type  3   force =    -0.00000816   -0.00029742   -0.00017738
     atom   30 type  3   force =     0.00005573   -0.00051950   -0.00012882
     atom   31 type  1   force =    -0.00000144    0.00085897   -0.00016203

     Total force =     0.001753     Total SCF correction =     0.000187
     SCF correction compared to forces is large: reduce conv_thr to get better values

     bfgs converged in   9 scf cycles and   8 bfgs steps
     (criteria: energy < 0.10E-03, force < 0.10E-02)

     End of BFGS Geometry Optimization

     Final energy   =   -2280.4106241655 Ry
Begin final coordinates

ATOMIC_POSITIONS (crystal)
O0       0.000000000   0.000000000   0.377703932    0   0   1
O0       0.000000000   0.500000000   0.401782794    0   0   1
Pt1      0.250000000   0.500000000   0.451275747    0   0   1
Pt1      0.000000000   0.000000000   0.452719789    0   0   1
O0       0.250000000   0.810000000   0.443031593    0   0   1
O0       0.250000000   0.190000000   0.460470862    0   0   1
O0       0.000000000   0.500000000   0.496746419    0   0   1
O0       0.000000000   0.000000000   0.529797630    0   0   1
Pt1      0.250000000   0.000000000   0.576087145    0   0   1
Pt1      0.000000000   0.500000000   0.574973865    0   0   1
O0       0.250000000   0.690000000   0.565471517    0   0   1
O0       0.250000000   0.310000000   0.585926835    0   0   1
O0       0.000000000   0.000000000   0.621460086    0   0   1
O0       0.500000000   0.000000000   0.377788896    0   0   1
O0       0.500000000   0.500000000   0.401132156    0   0   1
Pt1      0.750000000   0.500000000   0.451280813    0   0   1
Pt1      0.500000000   0.000000000   0.452735388    0   0   1
O0       0.750000000   0.810000000   0.443067274    0   0   1
O0       0.750000000   0.190000000   0.460463066    0   0   1
O0       0.500000000   0.500000000   0.498202127    0   0   1
O0       0.500000000   0.000000000   0.529668511    0   0   1
Pt1      0.750000000   0.000000000   0.576091074    0   0   1
Pt1      0.500000000   0.500000000   0.577554845    0   0   1
O0       0.750000000   0.690000000   0.565451500    0   0   1
O0       0.750000000   0.310000000   0.585931736    0   0   1
O0       0.500000000   0.000000000   0.621469501    0   0   1
H2       0.000104073   0.639831099   0.385991624
H2       0.500114937   0.640267042   0.385694356
H2       0.143088421   0.035336072   0.367722347
H2       0.642627178   0.036881857   0.367741587
O0       0.500125809   0.574108884   0.644234981
End final coordinates



     init_run     :    150.81s CPU    153.17s WALL (       1 calls)
     electrons    :  33237.65s CPU  34686.65s WALL (       9 calls)
     update_pot   :    171.25s CPU    175.10s WALL (       8 calls)
     forces       :   1360.30s CPU   1409.86s WALL (       9 calls)

     Called by init_run:
     wfcinit      :     45.22s CPU     46.77s WALL (       1 calls)
     potinit      :      8.07s CPU      8.26s WALL (       1 calls)

     Called by electrons:
     c_bands      :  17031.96s CPU  17750.31s WALL (     152 calls)
     sum_band     :   6826.92s CPU   7142.19s WALL (     152 calls)
     v_of_rho     :    190.52s CPU    201.19s WALL (     154 calls)
     newd         :   9667.71s CPU   9949.99s WALL (     154 calls)
     mix_rho      :     36.65s CPU     37.89s WALL (     152 calls)

     Called by c_bands:
     init_us_2    :     44.11s CPU     44.55s WALL (     996 calls)
     cegterg      :  16829.90s CPU  17492.13s WALL (     456 calls)

     Called by *egterg:
     h_psi        :  10197.63s CPU  10650.22s WALL (    1227 calls)
     s_psi        :    903.41s CPU    915.56s WALL (    1281 calls)
     g_psi        :     19.70s CPU     19.71s WALL (     768 calls)
     cdiaghg      :   1338.04s CPU   1343.05s WALL (    1179 calls)

     Called by h_psi:
     add_vuspsi   :    877.41s CPU    890.34s WALL (    1227 calls)
     vhpsi        :    968.64s CPU    986.74s WALL (    1227 calls)

     General routines
     calbec       :   2197.81s CPU   2232.26s WALL (   11007 calls)
     fft          :    363.33s CPU    519.59s WALL (    2563 calls)
     ffts         :      3.35s CPU      3.53s WALL (     306 calls)
     fftw         :   5811.97s CPU   6332.39s WALL (  875954 calls)
     interpolate  :     31.95s CPU     32.71s WALL (     306 calls)
     davcio       :      0.08s CPU     22.22s WALL (    1023 calls)

     Parallel routines
     fft_scatter  :   2697.73s CPU   3361.06s WALL (  878823 calls)
     Hubbard U routines
     new_ns       :    207.61s CPU    220.39s WALL (     152 calls)
     vhpsi        :    968.64s CPU    986.74s WALL (    1227 calls)
     force_hub    :    353.30s CPU    362.46s WALL (       9 calls)

     PWSCF        :     9h51m CPU       10h17m WALL


   This run was terminated on:  12:26:41  28Apr2014            

=------------------------------------------------------------------------------=
   JOB DONE.
=------------------------------------------------------------------------------=
