
     Program PWSCF v.5.0.2 (svn rev. 9656) starts on 16May2014 at  0: 2: 4 

     This program is part of the open-source Quantum ESPRESSO suite
     for quantum simulation of materials; please cite
         "P. Giannozzi et al., J. Phys.:Condens. Matter 21 395502 (2009);
          URL http://www.quantum-espresso.org", 
     in publications or presentations arising from this work. More details at
     http://www.quantum-espresso.org/quote.php

     Parallel version (MPI), running on    16 processors
     K-points division:     npool     =       4
     R & G space division:  proc/nbgrp/npool/nimage =       4

     Current dimensions of program PWSCF are:
     Max number of different atomic species (ntypx) = 10
     Max number of k-points (npk) =  40000
     Max angular momentum in pseudopotentials (lmaxx) =  3
     Reading input from pwscf.in
Warning: card &CELL ignored
Warning: card / ignored

     Subspace diagonalization in iterative solution of the eigenvalue problem:
     a serial algorithm will be used


     Parallelization info
     --------------------
     sticks:   dense  smooth     PW     G-vecs:    dense   smooth      PW
     Min        1274     408    116               299662    54238    8133
     Max        1275     409    117               299663    54251    8135
     Sum        5097    1635    467              1198649   216969   32535



     bravais-lattice index     =            0
     lattice parameter (alat)  =      10.9604  a.u.
     unit-cell volume          =    6350.6732 (a.u.)^3
     number of atoms/cell      =           30
     number of atomic types    =            3
     number of electrons       =       224.00 (up: 120.00, down: 104.00)
     number of Kohn-Sham states=          324
     kinetic-energy cutoff     =      40.0000  Ry
     charge density cutoff     =     500.0000  Ry
     convergence threshold     =      1.0E-06
     mixing beta               =       0.7000
     number of iterations used =            8  plain     mixing
     Exchange-correlation      = SLA  PW   PBE  PBE ( 1 4 3 4 0)
     EXX-fraction              =        0.00
     nstep                     =           50


     celldm(1)=  10.960412  celldm(2)=   0.000000  celldm(3)=   0.000000
     celldm(4)=   0.000000  celldm(5)=   0.000000  celldm(6)=   0.000000

     crystal axes: (cart. coord. in units of alat)
               a(1) = (   1.000000   0.000000   0.000000 )  
               a(2) = (   0.000000   1.067975   0.000000 )  
               a(3) = (   0.000000   0.000000   4.516251 )  

     reciprocal axes: (cart. coord. in units 2 pi/alat)
               b(1) = (  1.000000  0.000000  0.000000 )  
               b(2) = (  0.000000  0.936351  0.000000 )  
               b(3) = (  0.000000  0.000000  0.221423 )  


     PseudoPot. # 1 for O  read from file:
     /home/camp/zhonxu/pseudo/o_pbe_v1.01.uspp.F.UPF
     MD5 check sum: 2bcb18d16ea4b960afae9ec6d52f22d2
     Pseudo is Ultrasoft + core correction, Zval =  6.0
     Generated by new atomic code, or converted to UPF format
     Using radial grid of  737 points,  5 beta functions with: 
                l(1) =   0
                l(2) =   0
                l(3) =   1
                l(4) =   1
                l(5) =   2
     Q(r) pseudized with  8 coefficients,  rinner =    0.900   0.900   0.900
                                                       0.900   0.900

     PseudoPot. # 2 for Cr read from file:
     /home/camp/zhonxu/pseudo/cr_pbe_v1.uspp.F.UPF
     MD5 check sum: 68b6f918d1762dccfb11451fe85b0e0e
     Pseudo is Ultrasoft + core correction, Zval = 14.0
     Generated by new atomic code, or converted to UPF format
     Using radial grid of  857 points,  6 beta functions with: 
                l(1) =   0
                l(2) =   0
                l(3) =   1
                l(4) =   1
                l(5) =   2
                l(6) =   2
     Q(r) pseudized with  6 coefficients,  rinner =    1.000   1.000   1.000
                                                       1.000   1.000

     PseudoPot. # 3 for H  read from file:
     /home/camp/zhonxu/pseudo/h_pbe_v1.uspp.F.UPF
     MD5 check sum: 3408e3ff4ec8b0a4e358431e7e038a48
     Pseudo is Ultrasoft, Zval =  1.0
     Generated by new atomic code, or converted to UPF format
     Using radial grid of  615 points,  2 beta functions with: 
                l(1) =   0
                l(2) =   0
     Q(r) pseudized with  8 coefficients,  rinner =    0.700

     atomic species   valence    mass     pseudopotential
        O0             6.00    15.99940     O ( 1.00)
        Cr1           14.00    51.99600     Cr( 1.00)
        H2             1.00     1.00794     H ( 1.00)

     Starting magnetic structure 
     atomic species   magnetization
        O0           0.000
        Cr1          0.600
        H2           0.000


     Simplified LDA+U calculation (l_max = 2) with parameters (eV):
     atomic species    L          U    alpha       J0     beta
        Cr1            2     0.0000   0.0000   0.0000   0.0000



     No symmetry found



   Cartesian axes

     site n.     atom                  positions (alat units)
         1           O0  tau(   1) = (   0.0000000   0.0000000   1.7181625  )
         2           O0  tau(   2) = (   0.0000000   0.5339875   1.8008551  )
         3           Cr1 tau(   3) = (   0.2500000   0.5339875   2.0300096  )
         4           Cr1 tau(   4) = (   0.0000000   0.0000000   2.0413454  )
         5           O0  tau(   5) = (   0.2500000   0.8543801   2.0369195  )
         6           O0  tau(   6) = (   0.2500000   0.2135950   2.0378227  )
         7           O0  tau(   7) = (   0.0000000   0.5339875   2.2471058  )
         8           O0  tau(   8) = (   0.0000000   0.0000000   2.3700833  )
         9           Cr1 tau(   9) = (   0.2500000   0.0000000   2.6079543  )
        10           Cr1 tau(  10) = (   0.0000000   0.5339875   2.5535334  )
        11           O0  tau(  11) = (   0.2500000   0.7475825   2.5983798  )
        12           O0  tau(  12) = (   0.2500000   0.3203925   2.5982895  )
        13           O0  tau(  13) = (   0.0000000   0.0000000   2.7910882  )
        14           O0  tau(  14) = (   0.5000000   0.0000000   1.7181625  )
        15           O0  tau(  15) = (   0.5000000   0.5339875   1.8008551  )
        16           Cr1 tau(  16) = (   0.7500000   0.5339875   2.0300096  )
        17           Cr1 tau(  17) = (   0.5000000   0.0000000   2.0413454  )
        18           O0  tau(  18) = (   0.7500000   0.8543801   2.0369195  )
        19           O0  tau(  19) = (   0.7500000   0.2135950   2.0378227  )
        20           O0  tau(  20) = (   0.5000000   0.5339875   2.2471058  )
        21           O0  tau(  21) = (   0.5000000   0.0000000   2.3700833  )
        22           Cr1 tau(  22) = (   0.7500000   0.0000000   2.6079543  )
        23           Cr1 tau(  23) = (   0.5000000   0.5339875   2.5535334  )
        24           O0  tau(  24) = (   0.7500000   0.7475825   2.5983798  )
        25           O0  tau(  25) = (   0.7500000   0.3203925   2.5982895  )
        26           O0  tau(  26) = (   0.5000000   0.0000000   2.7910882  )
        27           H2  tau(  27) = (  -0.0006900   0.6851274   1.7196980  )
        28           H2  tau(  28) = (   0.4993100   0.6851274   1.7196980  )
        29           H2  tau(  29) = (   0.1573400   0.0316548   1.6594512  )
        30           H2  tau(  30) = (   0.6573500   0.0316548   1.6594512  )

     number of k points=    20  Methfessel-Paxton smearing, width (Ry)=  0.0100
                       cart. coord. in units 2pi/alat
        k(    1) = (   0.0000000   0.0000000   0.0000000), wk =   0.0625000
        k(    2) = (   0.0000000   0.2340879   0.0000000), wk =   0.1250000
        k(    3) = (   0.0000000  -0.4681757   0.0000000), wk =   0.0625000
        k(    4) = (   0.2500000   0.0000000   0.0000000), wk =   0.1250000
        k(    5) = (   0.2500000   0.2340879   0.0000000), wk =   0.1250000
        k(    6) = (   0.2500000  -0.4681757   0.0000000), wk =   0.1250000
        k(    7) = (  -0.5000000   0.0000000   0.0000000), wk =   0.0625000
        k(    8) = (  -0.5000000   0.2340879   0.0000000), wk =   0.1250000
        k(    9) = (  -0.5000000  -0.4681757   0.0000000), wk =   0.0625000
        k(   10) = (  -0.2500000   0.2340879   0.0000000), wk =   0.1250000
        k(   11) = (   0.0000000   0.0000000   0.0000000), wk =   0.0625000
        k(   12) = (   0.0000000   0.2340879   0.0000000), wk =   0.1250000
        k(   13) = (   0.0000000  -0.4681757   0.0000000), wk =   0.0625000
        k(   14) = (   0.2500000   0.0000000   0.0000000), wk =   0.1250000
        k(   15) = (   0.2500000   0.2340879   0.0000000), wk =   0.1250000
        k(   16) = (   0.2500000  -0.4681757   0.0000000), wk =   0.1250000
        k(   17) = (  -0.5000000   0.0000000   0.0000000), wk =   0.0625000
        k(   18) = (  -0.5000000   0.2340879   0.0000000), wk =   0.1250000
        k(   19) = (  -0.5000000  -0.4681757   0.0000000), wk =   0.0625000
        k(   20) = (  -0.2500000   0.2340879   0.0000000), wk =   0.1250000

     Dense  grid:  1198649 G-vectors     FFT dimensions: (  80,  90, 360)

     Smooth grid:   216969 G-vectors     FFT dimensions: (  45,  48, 200)

     Largest allocated arrays     est. size (Mb)     dimensions
        Kohn-Sham Wavefunctions        34.03 Mb     (   6884,  324)
        Atomic wavefunctions           16.39 Mb     (   6884,  156)
        NL pseudopotentials            40.55 Mb     (   6884,  386)
        Each V/rho on FFT grid         19.78 Mb     ( 648000,   2)
        Each G-vector array             2.29 Mb     ( 299662)
        G-vector shells                 0.99 Mb     ( 129803)
     Largest temporary arrays     est. size (Mb)     dimensions
        Auxiliary wavefunctions       136.13 Mb     (   6884, 1296)
        Each subspace H/S matrix       25.63 Mb     (1296,1296)
        Each <psi_i|beta_j> matrix      1.91 Mb     (    386,  324)
        Arrays for rho mixing          79.10 Mb     ( 648000,   8)

     Check: negative/imaginary core charge=   -0.000012    0.000000

     Initial potential from superposition of free atoms
     Check: negative starting charge=(component1):   -0.001590
     Check: negative starting charge=(component2):   -0.000511

     starting charge  215.99984, renormalised to  224.00000

     negative rho (up, down):  0.165E-02 0.530E-03
     Number of +U iterations with fixed ns =  0
     Starting occupations:
 --- enter write_ns ---
 LDA+U parameters:
U( 2)     =  0.00000000
alpha( 2) =  0.00000000
atom    3   Tr[ns(na)] (up, down, total) =   5.00000  0.00000  5.00000
   spin  1
    eigenvalues: 
  1.000  1.000  1.000  1.000  1.000
    eigenvectors:
  1.000  0.000  0.000  0.000  0.000
  0.000  1.000  0.000  0.000  0.000
  0.000  0.000  1.000  0.000  0.000
  0.000  0.000  0.000  1.000  0.000
  0.000  0.000  0.000  0.000  1.000
    occupations:
  1.000  0.000  0.000  0.000  0.000
  0.000  1.000  0.000  0.000  0.000
  0.000  0.000  1.000  0.000  0.000
  0.000  0.000  0.000  1.000  0.000
  0.000  0.000  0.000  0.000  1.000
   spin  2
    eigenvalues: 
  0.000  0.000  0.000  0.000  0.000
    eigenvectors:
  1.000  0.000  0.000  0.000  0.000
  0.000  1.000  0.000  0.000  0.000
  0.000  0.000  1.000  0.000  0.000
  0.000  0.000  0.000  1.000  0.000
  0.000  0.000  0.000  0.000  1.000
    occupations:
  0.000  0.000  0.000  0.000  0.000
  0.000  0.000  0.000  0.000  0.000
  0.000  0.000  0.000  0.000  0.000
  0.000  0.000  0.000  0.000  0.000
  0.000  0.000  0.000  0.000  0.000
atomic mag. moment =     5.000000
atom    4   Tr[ns(na)] (up, down, total) =   5.00000  0.00000  5.00000
   spin  1
    eigenvalues: 
  1.000  1.000  1.000  1.000  1.000
    eigenvectors:
  1.000  0.000  0.000  0.000  0.000
  0.000  1.000  0.000  0.000  0.000
  0.000  0.000  1.000  0.000  0.000
  0.000  0.000  0.000  1.000  0.000
  0.000  0.000  0.000  0.000  1.000
    occupations:
  1.000  0.000  0.000  0.000  0.000
  0.000  1.000  0.000  0.000  0.000
  0.000  0.000  1.000  0.000  0.000
  0.000  0.000  0.000  1.000  0.000
  0.000  0.000  0.000  0.000  1.000
   spin  2
    eigenvalues: 
  0.000  0.000  0.000  0.000  0.000
    eigenvectors:
  1.000  0.000  0.000  0.000  0.000
  0.000  1.000  0.000  0.000  0.000
  0.000  0.000  1.000  0.000  0.000
  0.000  0.000  0.000  1.000  0.000
  0.000  0.000  0.000  0.000  1.000
    occupations:
  0.000  0.000  0.000  0.000  0.000
  0.000  0.000  0.000  0.000  0.000
  0.000  0.000  0.000  0.000  0.000
  0.000  0.000  0.000  0.000  0.000
  0.000  0.000  0.000  0.000  0.000
atomic mag. moment =     5.000000
atom    9   Tr[ns(na)] (up, down, total) =   5.00000  0.00000  5.00000
   spin  1
    eigenvalues: 
  1.000  1.000  1.000  1.000  1.000
    eigenvectors:
  1.000  0.000  0.000  0.000  0.000
  0.000  1.000  0.000  0.000  0.000
  0.000  0.000  1.000  0.000  0.000
  0.000  0.000  0.000  1.000  0.000
  0.000  0.000  0.000  0.000  1.000
    occupations:
  1.000  0.000  0.000  0.000  0.000
  0.000  1.000  0.000  0.000  0.000
  0.000  0.000  1.000  0.000  0.000
  0.000  0.000  0.000  1.000  0.000
  0.000  0.000  0.000  0.000  1.000
   spin  2
    eigenvalues: 
  0.000  0.000  0.000  0.000  0.000
    eigenvectors:
  1.000  0.000  0.000  0.000  0.000
  0.000  1.000  0.000  0.000  0.000
  0.000  0.000  1.000  0.000  0.000
  0.000  0.000  0.000  1.000  0.000
  0.000  0.000  0.000  0.000  1.000
    occupations:
  0.000  0.000  0.000  0.000  0.000
  0.000  0.000  0.000  0.000  0.000
  0.000  0.000  0.000  0.000  0.000
  0.000  0.000  0.000  0.000  0.000
  0.000  0.000  0.000  0.000  0.000
atomic mag. moment =     5.000000
atom   10   Tr[ns(na)] (up, down, total) =   5.00000  0.00000  5.00000
   spin  1
    eigenvalues: 
  1.000  1.000  1.000  1.000  1.000
    eigenvectors:
  1.000  0.000  0.000  0.000  0.000
  0.000  1.000  0.000  0.000  0.000
  0.000  0.000  1.000  0.000  0.000
  0.000  0.000  0.000  1.000  0.000
  0.000  0.000  0.000  0.000  1.000
    occupations:
  1.000  0.000  0.000  0.000  0.000
  0.000  1.000  0.000  0.000  0.000
  0.000  0.000  1.000  0.000  0.000
  0.000  0.000  0.000  1.000  0.000
  0.000  0.000  0.000  0.000  1.000
   spin  2
    eigenvalues: 
  0.000  0.000  0.000  0.000  0.000
    eigenvectors:
  1.000  0.000  0.000  0.000  0.000
  0.000  1.000  0.000  0.000  0.000
  0.000  0.000  1.000  0.000  0.000
  0.000  0.000  0.000  1.000  0.000
  0.000  0.000  0.000  0.000  1.000
    occupations:
  0.000  0.000  0.000  0.000  0.000
  0.000  0.000  0.000  0.000  0.000
  0.000  0.000  0.000  0.000  0.000
  0.000  0.000  0.000  0.000  0.000
  0.000  0.000  0.000  0.000  0.000
atomic mag. moment =     5.000000
atom   16   Tr[ns(na)] (up, down, total) =   5.00000  0.00000  5.00000
   spin  1
    eigenvalues: 
  1.000  1.000  1.000  1.000  1.000
    eigenvectors:
  1.000  0.000  0.000  0.000  0.000
  0.000  1.000  0.000  0.000  0.000
  0.000  0.000  1.000  0.000  0.000
  0.000  0.000  0.000  1.000  0.000
  0.000  0.000  0.000  0.000  1.000
    occupations:
  1.000  0.000  0.000  0.000  0.000
  0.000  1.000  0.000  0.000  0.000
  0.000  0.000  1.000  0.000  0.000
  0.000  0.000  0.000  1.000  0.000
  0.000  0.000  0.000  0.000  1.000
   spin  2
    eigenvalues: 
  0.000  0.000  0.000  0.000  0.000
    eigenvectors:
  1.000  0.000  0.000  0.000  0.000
  0.000  1.000  0.000  0.000  0.000
  0.000  0.000  1.000  0.000  0.000
  0.000  0.000  0.000  1.000  0.000
  0.000  0.000  0.000  0.000  1.000
    occupations:
  0.000  0.000  0.000  0.000  0.000
  0.000  0.000  0.000  0.000  0.000
  0.000  0.000  0.000  0.000  0.000
  0.000  0.000  0.000  0.000  0.000
  0.000  0.000  0.000  0.000  0.000
atomic mag. moment =     5.000000
atom   17   Tr[ns(na)] (up, down, total) =   5.00000  0.00000  5.00000
   spin  1
    eigenvalues: 
  1.000  1.000  1.000  1.000  1.000
    eigenvectors:
  1.000  0.000  0.000  0.000  0.000
  0.000  1.000  0.000  0.000  0.000
  0.000  0.000  1.000  0.000  0.000
  0.000  0.000  0.000  1.000  0.000
  0.000  0.000  0.000  0.000  1.000
    occupations:
  1.000  0.000  0.000  0.000  0.000
  0.000  1.000  0.000  0.000  0.000
  0.000  0.000  1.000  0.000  0.000
  0.000  0.000  0.000  1.000  0.000
  0.000  0.000  0.000  0.000  1.000
   spin  2
    eigenvalues: 
  0.000  0.000  0.000  0.000  0.000
    eigenvectors:
  1.000  0.000  0.000  0.000  0.000
  0.000  1.000  0.000  0.000  0.000
  0.000  0.000  1.000  0.000  0.000
  0.000  0.000  0.000  1.000  0.000
  0.000  0.000  0.000  0.000  1.000
    occupations:
  0.000  0.000  0.000  0.000  0.000
  0.000  0.000  0.000  0.000  0.000
  0.000  0.000  0.000  0.000  0.000
  0.000  0.000  0.000  0.000  0.000
  0.000  0.000  0.000  0.000  0.000
atomic mag. moment =     5.000000
atom   22   Tr[ns(na)] (up, down, total) =   5.00000  0.00000  5.00000
   spin  1
    eigenvalues: 
  1.000  1.000  1.000  1.000  1.000
    eigenvectors:
  1.000  0.000  0.000  0.000  0.000
  0.000  1.000  0.000  0.000  0.000
  0.000  0.000  1.000  0.000  0.000
  0.000  0.000  0.000  1.000  0.000
  0.000  0.000  0.000  0.000  1.000
    occupations:
  1.000  0.000  0.000  0.000  0.000
  0.000  1.000  0.000  0.000  0.000
  0.000  0.000  1.000  0.000  0.000
  0.000  0.000  0.000  1.000  0.000
  0.000  0.000  0.000  0.000  1.000
   spin  2
    eigenvalues: 
  0.000  0.000  0.000  0.000  0.000
    eigenvectors:
  1.000  0.000  0.000  0.000  0.000
  0.000  1.000  0.000  0.000  0.000
  0.000  0.000  1.000  0.000  0.000
  0.000  0.000  0.000  1.000  0.000
  0.000  0.000  0.000  0.000  1.000
    occupations:
  0.000  0.000  0.000  0.000  0.000
  0.000  0.000  0.000  0.000  0.000
  0.000  0.000  0.000  0.000  0.000
  0.000  0.000  0.000  0.000  0.000
  0.000  0.000  0.000  0.000  0.000
atomic mag. moment =     5.000000
atom   23   Tr[ns(na)] (up, down, total) =   5.00000  0.00000  5.00000
   spin  1
    eigenvalues: 
  1.000  1.000  1.000  1.000  1.000
    eigenvectors:
  1.000  0.000  0.000  0.000  0.000
  0.000  1.000  0.000  0.000  0.000
  0.000  0.000  1.000  0.000  0.000
  0.000  0.000  0.000  1.000  0.000
  0.000  0.000  0.000  0.000  1.000
    occupations:
  1.000  0.000  0.000  0.000  0.000
  0.000  1.000  0.000  0.000  0.000
  0.000  0.000  1.000  0.000  0.000
  0.000  0.000  0.000  1.000  0.000
  0.000  0.000  0.000  0.000  1.000
   spin  2
    eigenvalues: 
  0.000  0.000  0.000  0.000  0.000
    eigenvectors:
  1.000  0.000  0.000  0.000  0.000
  0.000  1.000  0.000  0.000  0.000
  0.000  0.000  1.000  0.000  0.000
  0.000  0.000  0.000  1.000  0.000
  0.000  0.000  0.000  0.000  1.000
    occupations:
  0.000  0.000  0.000  0.000  0.000
  0.000  0.000  0.000  0.000  0.000
  0.000  0.000  0.000  0.000  0.000
  0.000  0.000  0.000  0.000  0.000
  0.000  0.000  0.000  0.000  0.000
atomic mag. moment =     5.000000
N of occupied +U levels =  40.0000000
 --- exit write_ns ---
 Atomic wfc used for LDA+U Projector are NOT orthogonalized
     Starting wfc are  156 randomized atomic wfcs

     total cpu time spent up to now is      115.4 secs

     per-process dynamical memory:   460.3 Mb

     Self-consistent Calculation

     iteration #  1     ecut=    40.00 Ry     beta=0.70
     Davidson diagonalization with overlap
     ethr =  1.00E-02,  avg # of iterations =  5.2
 --- enter write_ns ---
 LDA+U parameters:
U( 2)     =  0.00000000
alpha( 2) =  0.00000000
atom    3   Tr[ns(na)] (up, down, total) =   2.25349  0.70650  2.95999
   spin  1
    eigenvalues: 
  0.382  0.406  0.458  0.498  0.510
    eigenvectors:
  0.655  0.002  0.273  0.066  0.004
  0.000  0.186  0.000  0.069  0.745
  0.001  0.001  0.173  0.761  0.064
  0.342  0.000  0.554  0.098  0.006
  0.002  0.810  0.000  0.006  0.181
    occupations:
  0.411  0.000  0.012  0.039 -0.000
  0.000  0.490 -0.001  0.000  0.040
  0.012 -0.001  0.492  0.011 -0.005
  0.039  0.000  0.011  0.436 -0.002
 -0.000  0.040 -0.005 -0.002  0.425
   spin  2
    eigenvalues: 
  0.075  0.084  0.088  0.219  0.240
    eigenvectors:
  0.607  0.000  0.206  0.000  0.187
  0.000  0.001  0.000  0.999  0.000
  0.246  0.000  0.753  0.000  0.000
  0.147  0.000  0.041  0.000  0.812
  0.000  0.999  0.000  0.001  0.000
    occupations:
  0.109 -0.000 -0.004  0.063 -0.000
 -0.000  0.219 -0.000  0.000  0.005
 -0.004 -0.000  0.085  0.005  0.000
  0.063  0.000  0.005  0.210 -0.000
 -0.000  0.005  0.000 -0.000  0.084
atomic mag. moment =     1.546986
atom    4   Tr[ns(na)] (up, down, total) =   2.39452  0.75927  3.15379
   spin  1
    eigenvalues: 
  0.338  0.429  0.432  0.579  0.616
    eigenvectors:
  0.003  0.112  0.314  0.002  0.569
  0.001  0.149  0.400  0.030  0.421
  0.004  0.010  0.017  0.965  0.006
  0.992  0.000  0.000  0.003  0.004
  0.000  0.730  0.270  0.000  0.000
    occupations:
  0.536  0.089  0.017  0.015  0.000
  0.089  0.513 -0.016  0.009  0.001
  0.017 -0.016  0.574  0.015  0.003
  0.015  0.009  0.015  0.340  0.000
  0.000  0.001  0.003  0.000  0.430
   spin  2
    eigenvalues: 
  0.076  0.092  0.110  0.224  0.257
    eigenvectors:
  0.008  0.003  0.000  0.000  0.989
  0.006  0.915  0.076  0.000  0.003
  0.000  0.075  0.924  0.000  0.000
  0.985  0.007  0.000  0.000  0.008
  0.000  0.000  0.000  1.000  0.000
    occupations:
  0.255  0.009  0.002 -0.016  0.000
  0.009  0.094 -0.005  0.000 -0.000
  0.002 -0.005  0.109  0.000  0.000
 -0.016  0.000  0.000  0.078  0.000
  0.000 -0.000  0.000  0.000  0.224
atomic mag. moment =     1.635243
atom    9   Tr[ns(na)] (up, down, total) =   4.11416  0.80823  4.92240
   spin  1
    eigenvalues: 
  0.572  0.589  0.977  0.982  0.995
    eigenvectors:
  0.145  0.004  0.850  0.001  0.000
  0.025  0.975  0.000  0.000  0.000
  0.000  0.000  0.000  0.000  1.000
  0.829  0.021  0.149  0.000  0.000
  0.000  0.000  0.001  0.999  0.000
    occupations:
  0.916 -0.000 -0.000 -0.144  0.000
 -0.000  0.589 -0.000 -0.003 -0.000
 -0.000 -0.000  0.995 -0.000  0.000
 -0.144 -0.003 -0.000  0.633 -0.000
  0.000 -0.000  0.000 -0.000  0.981
   spin  2
    eigenvalues: 
  0.092  0.106  0.109  0.250  0.251
    eigenvectors:
  0.000  0.882  0.000  0.000  0.118
  0.000  0.000  0.000  0.999  0.001
  1.000  0.000  0.000  0.000  0.000
  0.000  0.118  0.000  0.001  0.881
  0.000  0.000  1.000  0.000  0.000
    occupations:
  0.123 -0.000 -0.000  0.047  0.000
 -0.000  0.250  0.000 -0.000  0.000
 -0.000  0.000  0.092 -0.000 -0.000
  0.047 -0.000 -0.000  0.234 -0.000
  0.000  0.000 -0.000 -0.000  0.109
atomic mag. moment =     3.305929
atom   10   Tr[ns(na)] (up, down, total) =   4.78532  0.68084  5.46616
   spin  1
    eigenvalues: 
  0.885  0.934  0.986  0.989  0.991
    eigenvectors:
  0.001  0.941  0.054  0.004  0.000
  0.000  0.000  0.000  0.016  0.984
  0.000  0.001  0.024  0.960  0.015
  0.000  0.057  0.922  0.020  0.001
  0.999  0.001  0.000  0.000  0.000
    occupations:
  0.937  0.000 -0.002  0.012  0.002
  0.000  0.991  0.000 -0.000  0.000
 -0.002  0.000  0.989 -0.000  0.001
  0.012 -0.000 -0.000  0.983 -0.000
  0.002  0.000  0.001 -0.000  0.885
   spin  2
    eigenvalues: 
  0.072  0.095  0.100  0.196  0.217
    eigenvectors:
  0.014  0.000  0.000  0.986  0.000
  0.000  0.000  1.000  0.000  0.000
  0.000  1.000  0.000  0.000  0.000
  0.986  0.000  0.000  0.014  0.000
  0.000  0.000  0.000  0.000  1.000
    occupations:
  0.194 -0.000 -0.000 -0.014 -0.000
 -0.000  0.100 -0.000 -0.000 -0.000
 -0.000 -0.000  0.095  0.000  0.000
 -0.014 -0.000  0.000  0.074  0.000
 -0.000 -0.000  0.000  0.000  0.217
atomic mag. moment =     4.104487
atom   16   Tr[ns(na)] (up, down, total) =   2.25349  0.70650  2.95998
   spin  1
    eigenvalues: 
  0.382  0.406  0.458  0.498  0.510
    eigenvectors:
  0.655  0.002  0.273  0.066  0.004
  0.000  0.186  0.000  0.069  0.745
  0.001  0.001  0.173  0.761  0.064
  0.342  0.000  0.554  0.098  0.006
  0.002  0.810  0.000  0.006  0.181
    occupations:
  0.411  0.000  0.012  0.039 -0.000
  0.000  0.490 -0.001  0.000  0.040
  0.012 -0.001  0.492  0.011 -0.005
  0.039  0.000  0.011  0.436 -0.002
 -0.000  0.040 -0.005 -0.002  0.425
   spin  2
    eigenvalues: 
  0.075  0.084  0.088  0.219  0.240
    eigenvectors:
  0.607  0.000  0.206  0.000  0.187
  0.000  0.001  0.000  0.999  0.000
  0.246  0.000  0.753  0.000  0.000
  0.147  0.000  0.041  0.000  0.812
  0.000  0.999  0.000  0.001  0.000
    occupations:
  0.109 -0.000 -0.004  0.063 -0.000
 -0.000  0.219 -0.000  0.000  0.005
 -0.004 -0.000  0.085  0.005  0.000
  0.063  0.000  0.005  0.210 -0.000
 -0.000  0.005  0.000 -0.000  0.084
atomic mag. moment =     1.546988
atom   17   Tr[ns(na)] (up, down, total) =   2.39454  0.75928  3.15382
   spin  1
    eigenvalues: 
  0.338  0.429  0.432  0.579  0.616
    eigenvectors:
  0.003  0.111  0.315  0.002  0.569
  0.001  0.148  0.401  0.030  0.421
  0.004  0.009  0.017  0.965  0.006
  0.992  0.000  0.000  0.003  0.004
  0.000  0.732  0.268  0.000  0.000
    occupations:
  0.536  0.089  0.017  0.015  0.000
  0.089  0.513 -0.016  0.009  0.001
  0.017 -0.016  0.574  0.015  0.003
  0.015  0.009  0.015  0.340  0.000
  0.000  0.001  0.003  0.000  0.430
   spin  2
    eigenvalues: 
  0.076  0.092  0.110  0.224  0.257
    eigenvectors:
  0.008  0.003  0.000  0.000  0.989
  0.006  0.915  0.076  0.000  0.003
  0.000  0.075  0.924  0.000  0.000
  0.985  0.007  0.000  0.000  0.008
  0.000  0.000  0.000  1.000  0.000
    occupations:
  0.255  0.009  0.002 -0.016  0.000
  0.009  0.094 -0.005  0.000 -0.000
  0.002 -0.005  0.109  0.000  0.000
 -0.016  0.000  0.000  0.078  0.000
  0.000 -0.000  0.000  0.000  0.224
atomic mag. moment =     1.635260
atom   22   Tr[ns(na)] (up, down, total) =   4.11417  0.80824  4.92241
   spin  1
    eigenvalues: 
  0.572  0.589  0.977  0.982  0.995
    eigenvectors:
  0.145  0.004  0.850  0.001  0.000
  0.025  0.975  0.000  0.000  0.000
  0.000  0.000  0.000  0.000  1.000
  0.829  0.021  0.149  0.000  0.000
  0.000  0.000  0.001  0.999  0.000
    occupations:
  0.916 -0.000 -0.000 -0.144  0.000
 -0.000  0.589 -0.000 -0.003 -0.000
 -0.000 -0.000  0.995 -0.000  0.000
 -0.144 -0.003 -0.000  0.633 -0.000
  0.000 -0.000  0.000 -0.000  0.982
   spin  2
    eigenvalues: 
  0.092  0.106  0.109  0.250  0.251
    eigenvectors:
  0.000  0.882  0.000  0.000  0.118
  0.000  0.000  0.000  0.999  0.001
  1.000  0.000  0.000  0.000  0.000
  0.000  0.118  0.000  0.001  0.881
  0.000  0.000  1.000  0.000  0.000
    occupations:
  0.123 -0.000 -0.000  0.047  0.000
 -0.000  0.250  0.000 -0.000  0.000
 -0.000  0.000  0.092 -0.000 -0.000
  0.047 -0.000 -0.000  0.234 -0.000
  0.000  0.000 -0.000 -0.000  0.109
atomic mag. moment =     3.305936
atom   23   Tr[ns(na)] (up, down, total) =   4.78532  0.68084  5.46615
   spin  1
    eigenvalues: 
  0.885  0.934  0.986  0.989  0.991
    eigenvectors:
  0.001  0.941  0.054  0.004  0.000
  0.000  0.000  0.000  0.016  0.984
  0.000  0.001  0.024  0.960  0.015
  0.000  0.057  0.922  0.020  0.001
  0.999  0.001  0.000  0.000  0.000
    occupations:
  0.937  0.000 -0.002  0.012  0.002
  0.000  0.991  0.000 -0.000  0.000
 -0.002  0.000  0.989 -0.000  0.001
  0.012 -0.000 -0.000  0.983 -0.000
  0.002  0.000  0.001 -0.000  0.885
   spin  2
    eigenvalues: 
  0.072  0.095  0.100  0.196  0.217
    eigenvectors:
  0.014  0.000  0.000  0.986  0.000
  0.000  0.000  1.000  0.000  0.000
  0.000  1.000  0.000  0.000  0.000
  0.986  0.000  0.000  0.014  0.000
  0.000  0.000  0.000  0.000  1.000
    occupations:
  0.194  0.000 -0.000 -0.014 -0.000
  0.000  0.100 -0.000 -0.000 -0.000
 -0.000 -0.000  0.095  0.000  0.000
 -0.014 -0.000  0.000  0.074  0.000
 -0.000 -0.000  0.000  0.000  0.217
atomic mag. moment =     4.104479
N of occupied +U levels =  33.0046976
 --- exit write_ns ---

     negative rho (up, down):  0.244E-02 0.124E-02

     total cpu time spent up to now is      577.8 secs

     total energy              =   -1956.96568943 Ry
     Harris-Foulkes estimate   =   -1991.22460045 Ry
     estimated scf accuracy    <      49.50041850 Ry

     total magnetization       =    16.00 Bohr mag/cell
     absolute magnetization    =    28.10 Bohr mag/cell

     iteration #  2     ecut=    40.00 Ry     beta=0.70
     Davidson diagonalization with overlap
     ethr =  1.00E-02,  avg # of iterations =  7.0

     negative rho (up, down):  0.186E-01 0.120E-01

     total cpu time spent up to now is     1070.3 secs

     total energy              =   -1767.65594068 Ry
     Harris-Foulkes estimate   =   -2383.74360349 Ry
     estimated scf accuracy    <    6304.73197543 Ry

     total magnetization       =    16.00 Bohr mag/cell
     absolute magnetization    =    16.08 Bohr mag/cell

     iteration #  3     ecut=    40.00 Ry     beta=0.70
     Davidson diagonalization with overlap
     ethr =  1.00E-02,  avg # of iterations =  6.0

     negative rho (up, down):  0.119E-01 0.102E-01

     total cpu time spent up to now is     1600.4 secs

     total energy              =   -1977.35565296 Ry
     Harris-Foulkes estimate   =   -2011.35449991 Ry
     estimated scf accuracy    <     295.92241321 Ry

     total magnetization       =    16.00 Bohr mag/cell
     absolute magnetization    =    17.03 Bohr mag/cell

     iteration #  4     ecut=    40.00 Ry     beta=0.70
     Davidson diagonalization with overlap
     ethr =  1.00E-02,  avg # of iterations =  3.8

     negative rho (up, down):  0.100E-01 0.521E-02

     total cpu time spent up to now is     1853.8 secs

     total energy              =   -1989.49457331 Ry
     Harris-Foulkes estimate   =   -1995.68686643 Ry
     estimated scf accuracy    <      20.79432047 Ry

     total magnetization       =    16.00 Bohr mag/cell
     absolute magnetization    =    26.28 Bohr mag/cell

     iteration #  5     ecut=    40.00 Ry     beta=0.70
     Davidson diagonalization with overlap
     ethr =  9.28E-03,  avg # of iterations =  2.4

     negative rho (up, down):  0.134E-01 0.368E-02

     total cpu time spent up to now is     2080.8 secs

     total energy              =   -1991.39794803 Ry
     Harris-Foulkes estimate   =   -1995.22254010 Ry
     estimated scf accuracy    <      18.82551786 Ry

     total magnetization       =    16.00 Bohr mag/cell
     absolute magnetization    =    19.12 Bohr mag/cell

     iteration #  6     ecut=    40.00 Ry     beta=0.70
     Davidson diagonalization with overlap
     ethr =  8.40E-03,  avg # of iterations =  1.4

     negative rho (up, down):  0.832E-02 0.249E-02

     total cpu time spent up to now is     2297.7 secs

     total energy              =   -1992.07847889 Ry
     Harris-Foulkes estimate   =   -1995.34847851 Ry
     estimated scf accuracy    <      19.96149024 Ry

     total magnetization       =    16.00 Bohr mag/cell
     absolute magnetization    =    18.26 Bohr mag/cell

     iteration #  7     ecut=    40.00 Ry     beta=0.70
     Davidson diagonalization with overlap
     ethr =  8.40E-03,  avg # of iterations =  1.1

     negative rho (up, down):  0.556E-02 0.230E-02

     total cpu time spent up to now is     2513.2 secs

     total energy              =   -1992.60390987 Ry
     Harris-Foulkes estimate   =   -1994.14120125 Ry
     estimated scf accuracy    <      13.27360931 Ry

     total magnetization       =    16.00 Bohr mag/cell
     absolute magnetization    =    21.46 Bohr mag/cell

     iteration #  8     ecut=    40.00 Ry     beta=0.70
     Davidson diagonalization with overlap
     ethr =  5.93E-03,  avg # of iterations =  1.2

     negative rho (up, down):  0.135E-01 0.200E-02

     total cpu time spent up to now is     2740.2 secs

     total energy              =   -1993.41269699 Ry
     Harris-Foulkes estimate   =   -1994.26073562 Ry
     estimated scf accuracy    <       8.49898123 Ry

     total magnetization       =    16.00 Bohr mag/cell
     absolute magnetization    =    18.42 Bohr mag/cell

     iteration #  9     ecut=    40.00 Ry     beta=0.70
     Davidson diagonalization with overlap
     ethr =  3.79E-03,  avg # of iterations =  1.4

     negative rho (up, down):  0.931E-02 0.175E-02

     total cpu time spent up to now is     2955.5 secs

     total energy              =   -1993.64175818 Ry
     Harris-Foulkes estimate   =   -1993.91178024 Ry
     estimated scf accuracy    <       3.68399388 Ry

     total magnetization       =    16.00 Bohr mag/cell
     absolute magnetization    =    18.83 Bohr mag/cell

     iteration # 10     ecut=    40.00 Ry     beta=0.70
     Davidson diagonalization with overlap
     ethr =  1.64E-03,  avg # of iterations =  4.7

     negative rho (up, down):  0.720E-02 0.167E-02

     total cpu time spent up to now is     3194.6 secs

     total energy              =   -1993.68138004 Ry
     Harris-Foulkes estimate   =   -1993.81707321 Ry
     estimated scf accuracy    <       1.62677585 Ry

     total magnetization       =    16.00 Bohr mag/cell
     absolute magnetization    =    19.44 Bohr mag/cell

     iteration # 11     ecut=    40.00 Ry     beta=0.70
     Davidson diagonalization with overlap
     ethr =  7.26E-04,  avg # of iterations =  3.8

     negative rho (up, down):  0.558E-02 0.164E-02

     total cpu time spent up to now is     3441.7 secs

     total energy              =   -1993.67530457 Ry
     Harris-Foulkes estimate   =   -1993.76257757 Ry
     estimated scf accuracy    <       1.25455358 Ry

     total magnetization       =    16.00 Bohr mag/cell
     absolute magnetization    =    18.92 Bohr mag/cell

     iteration # 12     ecut=    40.00 Ry     beta=0.70
     Davidson diagonalization with overlap
     ethr =  5.60E-04,  avg # of iterations =  4.2

     negative rho (up, down):  0.521E-02 0.164E-02

     total cpu time spent up to now is     3691.3 secs

     total energy              =   -1993.69519290 Ry
     Harris-Foulkes estimate   =   -1993.72669858 Ry
     estimated scf accuracy    <       0.19145616 Ry

     total magnetization       =    16.00 Bohr mag/cell
     absolute magnetization    =    18.95 Bohr mag/cell

     iteration # 13     ecut=    40.00 Ry     beta=0.70
     Davidson diagonalization with overlap
     ethr =  8.55E-05,  avg # of iterations =  4.9

     negative rho (up, down):  0.652E-02 0.163E-02

     total cpu time spent up to now is     3957.6 secs

     total energy              =   -1993.68078334 Ry
     Harris-Foulkes estimate   =   -1993.74107786 Ry
     estimated scf accuracy    <       0.58080485 Ry

     total magnetization       =    16.00 Bohr mag/cell
     absolute magnetization    =    18.55 Bohr mag/cell

     iteration # 14     ecut=    40.00 Ry     beta=0.70
     Davidson diagonalization with overlap
     ethr =  8.55E-05,  avg # of iterations =  1.0

     negative rho (up, down):  0.578E-02 0.162E-02

     total cpu time spent up to now is     4184.0 secs

     total energy              =   -1993.70210874 Ry
     Harris-Foulkes estimate   =   -1993.72094983 Ry
     estimated scf accuracy    <       0.16182843 Ry

     total magnetization       =    16.00 Bohr mag/cell
     absolute magnetization    =    18.62 Bohr mag/cell

     iteration # 15     ecut=    40.00 Ry     beta=0.70
     Davidson diagonalization with overlap
     ethr =  7.22E-05,  avg # of iterations =  1.0

     negative rho (up, down):  0.495E-02 0.163E-02

     total cpu time spent up to now is     4414.0 secs

     total energy              =   -1993.70856511 Ry
     Harris-Foulkes estimate   =   -1993.71581800 Ry
     estimated scf accuracy    <       0.08458519 Ry

     total magnetization       =    16.00 Bohr mag/cell
     absolute magnetization    =    18.70 Bohr mag/cell

     iteration # 16     ecut=    40.00 Ry     beta=0.70
     Davidson diagonalization with overlap
     ethr =  3.78E-05,  avg # of iterations =  1.0

     negative rho (up, down):  0.549E-02 0.184E-02

     total cpu time spent up to now is     4644.0 secs

     total energy              =   -1993.69941961 Ry
     Harris-Foulkes estimate   =   -1993.71873362 Ry
     estimated scf accuracy    <       0.14519453 Ry

     total magnetization       =    16.00 Bohr mag/cell
     absolute magnetization    =    18.64 Bohr mag/cell

     iteration # 17     ecut=    40.00 Ry     beta=0.70
     Davidson diagonalization with overlap
     ethr =  3.78E-05,  avg # of iterations =  4.4

     negative rho (up, down):  0.917E-02 0.185E-02

     total cpu time spent up to now is     4908.2 secs

     total energy              =   -1993.64656938 Ry
     Harris-Foulkes estimate   =   -1993.77665900 Ry
     estimated scf accuracy    <       1.35211227 Ry

     total magnetization       =    16.00 Bohr mag/cell
     absolute magnetization    =    18.31 Bohr mag/cell

     iteration # 18     ecut=    40.00 Ry     beta=0.70
     Davidson diagonalization with overlap
     ethr =  3.78E-05,  avg # of iterations =  3.8

     negative rho (up, down):  0.529E-02 0.180E-02

     total cpu time spent up to now is     5151.1 secs

     total energy              =   -1993.70864036 Ry
     Harris-Foulkes estimate   =   -1993.71856723 Ry
     estimated scf accuracy    <       0.08332770 Ry

     total magnetization       =    16.00 Bohr mag/cell
     absolute magnetization    =    18.50 Bohr mag/cell

     iteration # 19     ecut=    40.00 Ry     beta=0.70
     Davidson diagonalization with overlap
     ethr =  3.72E-05,  avg # of iterations =  1.0

     negative rho (up, down):  0.479E-02 0.178E-02

     total cpu time spent up to now is     5378.0 secs

     total energy              =   -1993.71370231 Ry
     Harris-Foulkes estimate   =   -1993.71421466 Ry
     estimated scf accuracy    <       0.00301226 Ry

     total magnetization       =    16.00 Bohr mag/cell
     absolute magnetization    =    18.46 Bohr mag/cell

     iteration # 20     ecut=    40.00 Ry     beta=0.70
     Davidson diagonalization with overlap
     ethr =  1.34E-06,  avg # of iterations =  5.5

     negative rho (up, down):  0.491E-02 0.179E-02

     total cpu time spent up to now is     5647.4 secs

     total energy              =   -1993.71305372 Ry
     Harris-Foulkes estimate   =   -1993.71547339 Ry
     estimated scf accuracy    <       0.02009834 Ry

     total magnetization       =    16.00 Bohr mag/cell
     absolute magnetization    =    18.44 Bohr mag/cell

     iteration # 21     ecut=    40.00 Ry     beta=0.70
     Davidson diagonalization with overlap
     ethr =  1.34E-06,  avg # of iterations =  3.1

     negative rho (up, down):  0.490E-02 0.181E-02

     total cpu time spent up to now is     5886.3 secs

     total energy              =   -1993.71402969 Ry
     Harris-Foulkes estimate   =   -1993.71447061 Ry
     estimated scf accuracy    <       0.00357712 Ry

     total magnetization       =    16.00 Bohr mag/cell
     absolute magnetization    =    18.41 Bohr mag/cell

     iteration # 22     ecut=    40.00 Ry     beta=0.70
     Davidson diagonalization with overlap
     ethr =  1.34E-06,  avg # of iterations =  1.0

     negative rho (up, down):  0.490E-02 0.181E-02

     total cpu time spent up to now is     6112.7 secs

     total energy              =   -1993.71413025 Ry
     Harris-Foulkes estimate   =   -1993.71447361 Ry
     estimated scf accuracy    <       0.00252657 Ry

     total magnetization       =    16.00 Bohr mag/cell
     absolute magnetization    =    18.38 Bohr mag/cell

     iteration # 23     ecut=    40.00 Ry     beta=0.70
     Davidson diagonalization with overlap
     ethr =  1.13E-06,  avg # of iterations =  1.0

     negative rho (up, down):  0.486E-02 0.180E-02

     total cpu time spent up to now is     6340.7 secs

     total energy              =   -1993.71392511 Ry
     Harris-Foulkes estimate   =   -1993.71457977 Ry
     estimated scf accuracy    <       0.00380263 Ry

     total magnetization       =    16.00 Bohr mag/cell
     absolute magnetization    =    18.39 Bohr mag/cell

     iteration # 24     ecut=    40.00 Ry     beta=0.70
     Davidson diagonalization with overlap
     ethr =  1.13E-06,  avg # of iterations =  1.0

     negative rho (up, down):  0.486E-02 0.180E-02

     total cpu time spent up to now is     6570.2 secs

     total energy              =   -1993.71402162 Ry
     Harris-Foulkes estimate   =   -1993.71460598 Ry
     estimated scf accuracy    <       0.00531875 Ry

     total magnetization       =    16.00 Bohr mag/cell
     absolute magnetization    =    18.39 Bohr mag/cell

     iteration # 25     ecut=    40.00 Ry     beta=0.70
     Davidson diagonalization with overlap
     ethr =  1.13E-06,  avg # of iterations =  1.0

     negative rho (up, down):  0.487E-02 0.180E-02

     total cpu time spent up to now is     6798.5 secs

     total energy              =   -1993.71416167 Ry
     Harris-Foulkes estimate   =   -1993.71450738 Ry
     estimated scf accuracy    <       0.00557038 Ry

     total magnetization       =    16.00 Bohr mag/cell
     absolute magnetization    =    18.36 Bohr mag/cell

     iteration # 26     ecut=    40.00 Ry     beta=0.70
     Davidson diagonalization with overlap
     ethr =  1.13E-06,  avg # of iterations =  1.0

     negative rho (up, down):  0.485E-02 0.180E-02

     total cpu time spent up to now is     7023.9 secs

     total energy              =   -1993.71432445 Ry
     Harris-Foulkes estimate   =   -1993.71437913 Ry
     estimated scf accuracy    <       0.00050214 Ry

     total magnetization       =    16.00 Bohr mag/cell
     absolute magnetization    =    18.36 Bohr mag/cell

     iteration # 27     ecut=    40.00 Ry     beta=0.70
     Davidson diagonalization with overlap
     ethr =  2.24E-07,  avg # of iterations =  1.0

     negative rho (up, down):  0.485E-02 0.180E-02

     total cpu time spent up to now is     7251.8 secs

     total energy              =   -1993.71432936 Ry
     Harris-Foulkes estimate   =   -1993.71438665 Ry
     estimated scf accuracy    <       0.00057124 Ry

     total magnetization       =    16.00 Bohr mag/cell
     absolute magnetization    =    18.34 Bohr mag/cell

     iteration # 28     ecut=    40.00 Ry     beta=0.70
     Davidson diagonalization with overlap
     ethr =  2.24E-07,  avg # of iterations =  1.0

     negative rho (up, down):  0.485E-02 0.180E-02

     total cpu time spent up to now is     7483.7 secs

     total energy              =   -1993.71432526 Ry
     Harris-Foulkes estimate   =   -1993.71437868 Ry
     estimated scf accuracy    <       0.00036597 Ry

     total magnetization       =    16.00 Bohr mag/cell
     absolute magnetization    =    18.35 Bohr mag/cell

     iteration # 29     ecut=    40.00 Ry     beta=0.70
     Davidson diagonalization with overlap
     ethr =  1.63E-07,  avg # of iterations =  1.0

     negative rho (up, down):  0.484E-02 0.180E-02

     total cpu time spent up to now is     7718.4 secs

     total energy              =   -1993.71429301 Ry
     Harris-Foulkes estimate   =   -1993.71442211 Ry
     estimated scf accuracy    <       0.00088182 Ry

     total magnetization       =    16.00 Bohr mag/cell
     absolute magnetization    =    18.35 Bohr mag/cell

     iteration # 30     ecut=    40.00 Ry     beta=0.70
     Davidson diagonalization with overlap
     ethr =  1.63E-07,  avg # of iterations =  1.0

     negative rho (up, down):  0.484E-02 0.180E-02

     total cpu time spent up to now is     7960.6 secs

     total energy              =   -1993.71433698 Ry
     Harris-Foulkes estimate   =   -1993.71438335 Ry
     estimated scf accuracy    <       0.00041304 Ry

     total magnetization       =    16.00 Bohr mag/cell
     absolute magnetization    =    18.34 Bohr mag/cell

     iteration # 31     ecut=    40.00 Ry     beta=0.70
     Davidson diagonalization with overlap
     ethr =  1.63E-07,  avg # of iterations =  1.0

     negative rho (up, down):  0.484E-02 0.180E-02

     total cpu time spent up to now is     8193.3 secs

     total energy              =   -1993.71435851 Ry
     Harris-Foulkes estimate   =   -1993.71436734 Ry
     estimated scf accuracy    <       0.00008564 Ry

     total magnetization       =    16.00 Bohr mag/cell
     absolute magnetization    =    18.34 Bohr mag/cell

     iteration # 32     ecut=    40.00 Ry     beta=0.70
     Davidson diagonalization with overlap
     ethr =  3.82E-08,  avg # of iterations =  1.0

     negative rho (up, down):  0.484E-02 0.180E-02

     total cpu time spent up to now is     8422.3 secs

     total energy              =   -1993.71435586 Ry
     Harris-Foulkes estimate   =   -1993.71437284 Ry
     estimated scf accuracy    <       0.00014465 Ry

     total magnetization       =    16.00 Bohr mag/cell
     absolute magnetization    =    18.33 Bohr mag/cell

     iteration # 33     ecut=    40.00 Ry     beta=0.70
     Davidson diagonalization with overlap
     ethr =  3.82E-08,  avg # of iterations =  1.0

     negative rho (up, down):  0.484E-02 0.180E-02

     total cpu time spent up to now is     8656.9 secs

     total energy              =   -1993.71436381 Ry
     Harris-Foulkes estimate   =   -1993.71436608 Ry
     estimated scf accuracy    <       0.00002001 Ry

     total magnetization       =    16.00 Bohr mag/cell
     absolute magnetization    =    18.33 Bohr mag/cell

     iteration # 34     ecut=    40.00 Ry     beta=0.70
     Davidson diagonalization with overlap
     ethr =  8.93E-09,  avg # of iterations =  1.0

     negative rho (up, down):  0.484E-02 0.180E-02

     total cpu time spent up to now is     8885.4 secs

     total energy              =   -1993.71435897 Ry
     Harris-Foulkes estimate   =   -1993.71436908 Ry
     estimated scf accuracy    <       0.00006223 Ry

     total magnetization       =    16.00 Bohr mag/cell
     absolute magnetization    =    18.33 Bohr mag/cell

     iteration # 35     ecut=    40.00 Ry     beta=0.70
     Davidson diagonalization with overlap
     ethr =  8.93E-09,  avg # of iterations =  1.8

     negative rho (up, down):  0.484E-02 0.180E-02

     total cpu time spent up to now is     9121.3 secs

     total energy              =   -1993.71433238 Ry
     Harris-Foulkes estimate   =   -1993.71439746 Ry
     estimated scf accuracy    <       0.00096757 Ry

     total magnetization       =    16.00 Bohr mag/cell
     absolute magnetization    =    18.34 Bohr mag/cell

     iteration # 36     ecut=    40.00 Ry     beta=0.70
     Davidson diagonalization with overlap
     ethr =  8.93E-09,  avg # of iterations =  1.5

     negative rho (up, down):  0.484E-02 0.180E-02

     total cpu time spent up to now is     9355.0 secs

     total energy              =   -1993.71436510 Ry
     Harris-Foulkes estimate   =   -1993.71436606 Ry
     estimated scf accuracy    <       0.00001578 Ry

     total magnetization       =    16.00 Bohr mag/cell
     absolute magnetization    =    18.33 Bohr mag/cell

     iteration # 37     ecut=    40.00 Ry     beta=0.70
     Davidson diagonalization with overlap
     ethr =  7.05E-09,  avg # of iterations =  1.0

     negative rho (up, down):  0.484E-02 0.180E-02

     total cpu time spent up to now is     9583.7 secs

     total energy              =   -1993.71436563 Ry
     Harris-Foulkes estimate   =   -1993.71436645 Ry
     estimated scf accuracy    <       0.00000559 Ry

     total magnetization       =    16.00 Bohr mag/cell
     absolute magnetization    =    18.33 Bohr mag/cell

     iteration # 38     ecut=    40.00 Ry     beta=0.70
     Davidson diagonalization with overlap
     ethr =  2.50E-09,  avg # of iterations =  1.0

     negative rho (up, down):  0.484E-02 0.180E-02

     total cpu time spent up to now is     9813.0 secs

     total energy              =   -1993.71436592 Ry
     Harris-Foulkes estimate   =   -1993.71436644 Ry
     estimated scf accuracy    <       0.00000590 Ry

     total magnetization       =    16.00 Bohr mag/cell
     absolute magnetization    =    18.33 Bohr mag/cell

     iteration # 39     ecut=    40.00 Ry     beta=0.70
     Davidson diagonalization with overlap
     ethr =  2.50E-09,  avg # of iterations =  1.0

     negative rho (up, down):  0.484E-02 0.180E-02

     total cpu time spent up to now is    10041.1 secs

     total energy              =   -1993.71436563 Ry
     Harris-Foulkes estimate   =   -1993.71436683 Ry
     estimated scf accuracy    <       0.00000935 Ry

     total magnetization       =    16.00 Bohr mag/cell
     absolute magnetization    =    18.33 Bohr mag/cell

     iteration # 40     ecut=    40.00 Ry     beta=0.70
     Davidson diagonalization with overlap
     ethr =  2.50E-09,  avg # of iterations =  1.0

     negative rho (up, down):  0.484E-02 0.180E-02

     total cpu time spent up to now is    10286.3 secs

     total energy              =   -1993.71436552 Ry
     Harris-Foulkes estimate   =   -1993.71436681 Ry
     estimated scf accuracy    <       0.00001014 Ry

     total magnetization       =    16.00 Bohr mag/cell
     absolute magnetization    =    18.33 Bohr mag/cell

     iteration # 41     ecut=    40.00 Ry     beta=0.70
     Davidson diagonalization with overlap
     ethr =  2.50E-09,  avg # of iterations =  1.1

     negative rho (up, down):  0.484E-02 0.180E-02

     total cpu time spent up to now is    10516.9 secs

     total energy              =   -1993.71436407 Ry
     Harris-Foulkes estimate   =   -1993.71436854 Ry
     estimated scf accuracy    <       0.00003752 Ry

     total magnetization       =    16.00 Bohr mag/cell
     absolute magnetization    =    18.33 Bohr mag/cell

     iteration # 42     ecut=    40.00 Ry     beta=0.70
     Davidson diagonalization with overlap
     ethr =  2.50E-09,  avg # of iterations =  1.1

     negative rho (up, down):  0.484E-02 0.180E-02

     total cpu time spent up to now is    10744.3 secs

     total energy              =   -1993.71436605 Ry
     Harris-Foulkes estimate   =   -1993.71436675 Ry
     estimated scf accuracy    <       0.00000560 Ry

     total magnetization       =    16.00 Bohr mag/cell
     absolute magnetization    =    18.33 Bohr mag/cell

     iteration # 43     ecut=    40.00 Ry     beta=0.70
     Davidson diagonalization with overlap
     ethr =  2.50E-09,  avg # of iterations =  1.0

     negative rho (up, down):  0.484E-02 0.180E-02

     total cpu time spent up to now is    10969.6 secs

     total energy              =   -1993.71436630 Ry
     Harris-Foulkes estimate   =   -1993.71436653 Ry
     estimated scf accuracy    <       0.00000161 Ry

     total magnetization       =    16.00 Bohr mag/cell
     absolute magnetization    =    18.33 Bohr mag/cell

     iteration # 44     ecut=    40.00 Ry     beta=0.70
     Davidson diagonalization with overlap
     ethr =  7.19E-10,  avg # of iterations =  1.0

     negative rho (up, down):  0.484E-02 0.180E-02

     total cpu time spent up to now is    11198.6 secs

     total energy              =   -1993.71436641 Ry
     Harris-Foulkes estimate   =   -1993.71436650 Ry
     estimated scf accuracy    <       0.00000114 Ry

     total magnetization       =    16.00 Bohr mag/cell
     absolute magnetization    =    18.33 Bohr mag/cell

     iteration # 45     ecut=    40.00 Ry     beta=0.70
     Davidson diagonalization with overlap
     ethr =  5.10E-10,  avg # of iterations =  1.0

     negative rho (up, down):  0.484E-02 0.180E-02

     total cpu time spent up to now is    11435.7 secs

     total energy              =   -1993.71436626 Ry
     Harris-Foulkes estimate   =   -1993.71436659 Ry
     estimated scf accuracy    <       0.00000209 Ry

     total magnetization       =    16.00 Bohr mag/cell
     absolute magnetization    =    18.32 Bohr mag/cell

     iteration # 46     ecut=    40.00 Ry     beta=0.70
     Davidson diagonalization with overlap
     ethr =  5.10E-10,  avg # of iterations =  1.0

     negative rho (up, down):  0.484E-02 0.180E-02

     total cpu time spent up to now is    11683.6 secs

     total energy              =   -1993.71436571 Ry
     Harris-Foulkes estimate   =   -1993.71436720 Ry
     estimated scf accuracy    <       0.00002223 Ry

     total magnetization       =    16.00 Bohr mag/cell
     absolute magnetization    =    18.33 Bohr mag/cell

     iteration # 47     ecut=    40.00 Ry     beta=0.70
     Davidson diagonalization with overlap
     ethr =  5.10E-10,  avg # of iterations =  1.0

     negative rho (up, down):  0.484E-02 0.180E-02

     total cpu time spent up to now is    11926.8 secs

     total energy              =   -1993.71436643 Ry
     Harris-Foulkes estimate   =   -1993.71436652 Ry
     estimated scf accuracy    <       0.00000106 Ry

     total magnetization       =    16.00 Bohr mag/cell
     absolute magnetization    =    18.32 Bohr mag/cell

     iteration # 48     ecut=    40.00 Ry     beta=0.70
     Davidson diagonalization with overlap
     ethr =  4.71E-10,  avg # of iterations =  1.0

     negative rho (up, down):  0.484E-02 0.180E-02

     total cpu time spent up to now is    12168.4 secs

     End of self-consistent calculation
 --- enter write_ns ---
 LDA+U parameters:
U( 2)     =  0.00000000
alpha( 2) =  0.00000000
atom    3   Tr[ns(na)] (up, down, total) =   3.48986  1.21531  4.70517
   spin  1
    eigenvalues: 
  0.457  0.500  0.697  0.882  0.955
    eigenvectors:
  0.000  0.231  0.003  0.000  0.766
  0.999  0.000  0.000  0.001  0.000
  0.000  0.000  0.995  0.000  0.005
  0.000  0.769  0.001  0.000  0.230
  0.001  0.000  0.000  0.999  0.000
    occupations:
  0.849 -0.000  0.015 -0.191 -0.000
 -0.000  0.457 -0.000 -0.000 -0.011
  0.015 -0.000  0.698 -0.008  0.001
 -0.191 -0.000 -0.008  0.605 -0.000
 -0.000 -0.011  0.001 -0.000  0.882
   spin  2
    eigenvalues: 
  0.123  0.154  0.198  0.356  0.385
    eigenvectors:
  0.764  0.000  0.012  0.000  0.224
  0.000  0.003  0.000  0.997  0.000
  0.013  0.000  0.987  0.000  0.001
  0.223  0.000  0.001  0.000  0.776
  0.000  0.997  0.000  0.003  0.000
    occupations:
  0.182 -0.000 -0.005  0.109 -0.000
 -0.000  0.355 -0.000 -0.000  0.011
 -0.005 -0.000  0.197  0.008  0.000
  0.109 -0.000  0.008  0.326 -0.000
 -0.000  0.011  0.000 -0.000  0.154
atomic mag. moment =     2.274555
atom    4   Tr[ns(na)] (up, down, total) =   3.34259  1.37341  4.71601
   spin  1
    eigenvalues: 
  0.478  0.521  0.600  0.771  0.973
    eigenvectors:
  0.000  0.996  0.001  0.001  0.002
  0.000  0.001  0.013  0.986  0.000
  0.000  0.001  0.986  0.013  0.000
  0.000  0.002  0.000  0.000  0.998
  1.000  0.000  0.000  0.000  0.000
    occupations:
  0.522 -0.007 -0.003  0.022  0.001
 -0.007  0.768  0.019  0.001  0.001
 -0.003  0.019  0.602  0.002 -0.000
  0.022  0.001  0.002  0.972  0.000
  0.001  0.001 -0.000  0.000  0.478
   spin  2
    eigenvalues: 
  0.135  0.186  0.242  0.389  0.422
    eigenvectors:
  0.002  0.004  0.000  0.000  0.993
  0.001  0.967  0.028  0.000  0.004
  0.000  0.028  0.971  0.000  0.000
  0.997  0.001  0.000  0.000  0.002
  0.000  0.000  0.000  1.000  0.000
    occupations:
  0.420  0.016  0.003 -0.013  0.000
  0.016  0.188 -0.009  0.001 -0.000
  0.003 -0.009  0.240  0.000 -0.000
 -0.013  0.001  0.000  0.136 -0.000
  0.000 -0.000 -0.000 -0.000  0.389
atomic mag. moment =     1.969180
atom    9   Tr[ns(na)] (up, down, total) =   3.24669  1.53196  4.77865
   spin  1
    eigenvalues: 
  0.518  0.528  0.679  0.750  0.771
    eigenvectors:
  0.001  0.184  0.001  0.809  0.006
  0.995  0.005  0.000  0.000  0.000
  0.000  0.000  0.999  0.001  0.000
  0.004  0.811  0.000  0.183  0.001
  0.000  0.000  0.000  0.007  0.993
    occupations:
  0.709  0.001 -0.002 -0.086  0.002
  0.001  0.518  0.001  0.000  0.000
 -0.002  0.001  0.679  0.001 -0.000
 -0.086  0.000  0.001  0.569 -0.001
  0.002  0.000 -0.000 -0.001  0.771
   spin  2
    eigenvalues: 
  0.224  0.226  0.231  0.420  0.431
    eigenvectors:
  0.837  0.016  0.000  0.146  0.000
  0.000  0.000  0.000  0.000  1.000
  0.019  0.981  0.000  0.000  0.000
  0.143  0.003  0.000  0.854  0.000
  0.000  0.000  0.999  0.000  0.000
    occupations:
  0.253 -0.000  0.000  0.069 -0.000
 -0.000  0.431 -0.000 -0.000  0.000
  0.000 -0.000  0.226 -0.000  0.000
  0.069 -0.000 -0.000  0.392  0.000
 -0.000  0.000  0.000  0.000  0.231
atomic mag. moment =     1.714736
atom   10   Tr[ns(na)] (up, down, total) =   3.49954  1.18995  4.68949
   spin  1
    eigenvalues: 
  0.471  0.484  0.740  0.850  0.954
    eigenvectors:
  0.000  0.998  0.000  0.000  0.002
  0.000  0.000  0.000  1.000  0.000
  0.000  0.000  1.000  0.000  0.000
  0.000  0.002  0.000  0.000  0.998
  1.000  0.000  0.000  0.000  0.000
    occupations:
  0.484  0.000  0.001  0.021 -0.000
  0.000  0.850 -0.000 -0.000 -0.001
  0.001 -0.000  0.740 -0.003  0.000
  0.021 -0.000 -0.003  0.953 -0.000
 -0.000 -0.001  0.000 -0.000  0.471
   spin  2
    eigenvalues: 
  0.122  0.180  0.200  0.316  0.371
    eigenvectors:
  0.006  0.000  0.000  0.994  0.000
  0.000  1.000  0.000  0.000  0.000
  0.000  0.000  1.000  0.000  0.000
  0.994  0.000  0.000  0.006  0.000
  0.000  0.000  0.000  0.000  1.000
    occupations:
  0.315 -0.000 -0.000 -0.015 -0.000
 -0.000  0.180 -0.000 -0.000 -0.000
 -0.000 -0.000  0.200  0.000  0.000
 -0.015 -0.000  0.000  0.124  0.000
 -0.000 -0.000  0.000  0.000  0.371
atomic mag. moment =     2.309593
atom   16   Tr[ns(na)] (up, down, total) =   3.49013  1.21537  4.70550
   spin  1
    eigenvalues: 
  0.457  0.500  0.697  0.882  0.955
    eigenvectors:
  0.000  0.231  0.003  0.000  0.766
  0.999  0.000  0.000  0.001  0.000
  0.000  0.000  0.995  0.000  0.005
  0.000  0.769  0.001  0.000  0.230
  0.001  0.000  0.000  0.999  0.000
    occupations:
  0.849 -0.000  0.015 -0.191 -0.000
 -0.000  0.457 -0.000 -0.000 -0.011
  0.015 -0.000  0.698 -0.008  0.001
 -0.191 -0.000 -0.008  0.605 -0.000
 -0.000 -0.011  0.001 -0.000  0.882
   spin  2
    eigenvalues: 
  0.123  0.154  0.198  0.356  0.385
    eigenvectors:
  0.764  0.000  0.012  0.000  0.224
  0.000  0.003  0.000  0.997  0.000
  0.013  0.000  0.987  0.000  0.001
  0.223  0.000  0.001  0.000  0.776
  0.000  0.997  0.000  0.003  0.000
    occupations:
  0.182 -0.000 -0.005  0.109 -0.000
 -0.000  0.356 -0.000 -0.000  0.011
 -0.005 -0.000  0.197  0.008  0.000
  0.109 -0.000  0.008  0.326 -0.000
 -0.000  0.011  0.000 -0.000  0.154
atomic mag. moment =     2.274757
atom   17   Tr[ns(na)] (up, down, total) =   3.34246  1.37339  4.71585
   spin  1
    eigenvalues: 
  0.478  0.521  0.600  0.771  0.973
    eigenvectors:
  0.000  0.996  0.001  0.001  0.002
  0.000  0.001  0.013  0.986  0.000
  0.000  0.001  0.986  0.013  0.000
  0.000  0.002  0.000  0.000  0.998
  1.000  0.000  0.000  0.000  0.000
    occupations:
  0.522 -0.007 -0.003  0.022  0.001
 -0.007  0.768  0.019  0.001  0.001
 -0.003  0.019  0.602  0.002 -0.000
  0.022  0.001  0.002  0.972  0.000
  0.001  0.001 -0.000  0.000  0.478
   spin  2
    eigenvalues: 
  0.135  0.186  0.242  0.389  0.422
    eigenvectors:
  0.002  0.004  0.000  0.000  0.993
  0.001  0.967  0.028  0.000  0.004
  0.000  0.028  0.971  0.000  0.000
  0.997  0.001  0.000  0.000  0.002
  0.000  0.000  0.000  1.000  0.000
    occupations:
  0.420  0.016  0.003 -0.013  0.000
  0.016  0.188 -0.009  0.001 -0.000
  0.003 -0.009  0.240  0.000 -0.000
 -0.013  0.001  0.000  0.136 -0.000
  0.000 -0.000 -0.000 -0.000  0.389
atomic mag. moment =     1.969064
atom   22   Tr[ns(na)] (up, down, total) =   3.24662  1.53194  4.77856
   spin  1
    eigenvalues: 
  0.518  0.528  0.679  0.750  0.771
    eigenvectors:
  0.001  0.184  0.001  0.809  0.006
  0.995  0.005  0.000  0.000  0.000
  0.000  0.000  0.999  0.001  0.000
  0.004  0.811  0.000  0.183  0.001
  0.000  0.000  0.000  0.007  0.993
    occupations:
  0.709  0.001 -0.002 -0.086  0.002
  0.001  0.518  0.001  0.000  0.000
 -0.002  0.001  0.679  0.001 -0.000
 -0.086  0.000  0.001  0.569 -0.001
  0.002  0.000 -0.000 -0.001  0.771
   spin  2
    eigenvalues: 
  0.224  0.226  0.231  0.420  0.431
    eigenvectors:
  0.837  0.016  0.000  0.146  0.000
  0.000  0.000  0.000  0.000  1.000
  0.019  0.981  0.000  0.000  0.000
  0.143  0.003  0.000  0.854  0.000
  0.000  0.000  0.999  0.000  0.000
    occupations:
  0.253 -0.000  0.000  0.069 -0.000
 -0.000  0.431 -0.000 -0.000  0.000
  0.000 -0.000  0.226 -0.000 -0.000
  0.069 -0.000 -0.000  0.392  0.000
 -0.000  0.000 -0.000  0.000  0.231
atomic mag. moment =     1.714684
atom   23   Tr[ns(na)] (up, down, total) =   3.49949  1.18994  4.68942
   spin  1
    eigenvalues: 
  0.471  0.484  0.740  0.850  0.954
    eigenvectors:
  0.000  0.998  0.000  0.000  0.002
  0.000  0.000  0.000  1.000  0.000
  0.000  0.000  1.000  0.000  0.000
  0.000  0.002  0.000  0.000  0.998
  1.000  0.000  0.000  0.000  0.000
    occupations:
  0.484  0.000  0.001  0.021 -0.000
  0.000  0.850 -0.000 -0.000 -0.001
  0.001 -0.000  0.740 -0.003  0.000
  0.021 -0.000 -0.003  0.953 -0.000
 -0.000 -0.001  0.000 -0.000  0.471
   spin  2
    eigenvalues: 
  0.122  0.180  0.200  0.316  0.371
    eigenvectors:
  0.006  0.000  0.000  0.994  0.000
  0.000  1.000  0.000  0.000  0.000
  0.000  0.000  1.000  0.000  0.000
  0.994  0.000  0.000  0.006  0.000
  0.000  0.000  0.000  0.000  1.000
    occupations:
  0.315 -0.000 -0.000 -0.015 -0.000
 -0.000  0.180 -0.000 -0.000 -0.000
 -0.000 -0.000  0.200  0.000  0.000
 -0.015 -0.000  0.000  0.124  0.000
 -0.000 -0.000  0.000  0.000  0.371
atomic mag. moment =     2.309550
N of occupied +U levels =  37.7786452
 --- exit write_ns ---

 ------ SPIN UP ------------


          k = 0.0000 0.0000 0.0000 ( 27003 PWs)   bands (ev):

   -75.1953 -75.1799 -75.1483 -75.1340 -75.0351 -75.0209 -74.9789 -74.9644
   -46.6200 -46.6060 -46.5864 -46.5425 -46.5235 -46.4944 -46.4785 -46.4486
   -46.4148 -46.4013 -46.3897 -46.3827 -46.3728 -46.3661 -46.3615 -46.3507
   -46.3254 -46.3228 -46.2795 -46.2654 -46.2629 -46.2519 -46.2411 -46.1994
   -21.5231 -20.9788 -20.8547 -20.5709 -20.3440 -20.2765 -19.9839 -19.8240
   -19.8038 -19.7152 -19.6806 -19.5562 -19.5378 -19.5281 -19.3426 -19.2680
   -19.0314 -18.8942  -9.3680  -9.0759  -8.9366  -8.7919  -8.6323  -8.1830
    -7.9386  -7.9202  -7.9023  -7.7971  -7.7648  -7.7344  -7.6053  -7.3841
    -7.2511  -7.0170  -6.9977  -6.9892  -6.9520  -6.9174  -6.8741  -6.8223
    -6.5831  -6.2917  -6.1878  -6.0227  -5.8219  -5.7691  -5.5800  -5.4674
    -5.3967  -5.2945  -5.2522  -5.1741  -5.1091  -4.9195  -4.8628  -4.8121
    -4.7919  -4.5550  -4.4954  -4.3655  -4.2716  -4.0754  -4.0189  -4.0075
    -3.9327  -3.7468  -3.7398  -3.5608  -3.4260  -3.2245  -3.2093  -3.0488
    -2.9875  -2.7687  -2.7260  -2.6617  -2.6056  -2.2306  -2.1815  -2.1421
    -2.1176  -2.1011  -2.0577  -2.0104  -1.7355  -1.7118  -1.6364  -1.5512
    -1.5273  -1.4514  -1.0770  -1.0672  -1.0108  -0.7318  -0.6373  -0.6226
    -0.4419  -0.2099   0.5705   0.7884   1.1811   1.2527   1.2853   1.4581
     1.4721   1.6310   1.6637   1.8245   2.2438   2.2482   2.3409   2.5683
     3.1643   3.2697   3.6743   4.1534   4.6577   5.4385   6.0002   6.3405
     6.7303   6.9651   7.0748   7.1266   7.1905   7.1919   7.2795   7.5072
     7.5904   7.5931   7.7498   8.0331   8.0448   8.1288   8.1391   8.2989
     8.4249   8.4747   8.5820   8.7309   8.7404   8.8935   9.1837   9.2112
     9.3400   9.3461   9.3533   9.5013   9.6490   9.8159   9.8309   9.9325
    10.1244  10.2468  10.2518  10.4551  10.6118  10.6183  11.0200  11.0239
    11.1060  11.1765  11.2599  11.2774  11.3288  11.3343  11.4954  11.4976
    11.6100  11.7620  11.8462  11.9852  12.0019  12.0228  12.0339  12.1249
    12.2711  12.2863  12.3448  12.4015  12.4424  12.4429  12.5008  12.6031
    12.6742  12.8521  12.9028  12.9338  12.9444  13.0287  13.1053  13.1169
    13.2680  13.2916  13.4175  13.4272  13.5276  13.6757  13.7145  13.8024
    13.8530  14.0241  14.0427  14.2719  14.2804  14.4246  14.4666  14.5129
    14.8087  14.8203  14.8875  14.8903  14.9159  14.9736  15.0063  15.0610
    15.2360  15.2780  15.4145  15.4204  15.4541  15.5454  15.7073  15.8292
    16.0855  16.1051  16.2113  16.3351  16.4186  16.4400  16.6985  16.7469
    16.9065  16.9349  17.0244  17.0408  17.1190  17.1474  17.3184  17.5432
    17.5482  17.6304  17.7665  17.8319  17.8948  18.0740  18.1001  18.1735
    18.2960  18.3532  18.4841  18.4881  18.6979  18.7584  18.8028  18.8392
    18.9191  18.9671  19.0280  19.2011  19.2375  19.3218  19.3365  19.4328
    19.5117  19.6137  19.6721  19.7282  19.7559  19.8640  19.8912  19.9374
    20.0771  20.1923  20.1995  20.3570  20.3660  20.4290  20.4779  20.4934
    20.5876  20.8130  20.9585  21.0156  21.0692  21.1424  21.1611  21.1833
    21.2795  21.3226  21.3254  21.4132

          k = 0.0000 0.2341 0.0000 ( 27088 PWs)   bands (ev):

   -75.1953 -75.1799 -75.1483 -75.1340 -75.0351 -75.0209 -74.9790 -74.9644
   -46.6201 -46.6060 -46.5867 -46.5398 -46.5288 -46.4891 -46.4786 -46.4486
   -46.4152 -46.4011 -46.3923 -46.3825 -46.3789 -46.3658 -46.3518 -46.3506
   -46.3255 -46.3228 -46.2798 -46.2668 -46.2654 -46.2517 -46.2408 -46.1996
   -21.4605 -20.8784 -20.8518 -20.5655 -20.3784 -20.2738 -19.9830 -19.9721
   -19.8389 -19.7863 -19.6784 -19.5857 -19.4777 -19.4470 -19.4203 -19.2678
   -19.0338 -18.8898  -9.3298  -8.8948  -8.7333  -8.6236  -8.5823  -8.2607
    -8.1859  -7.8546  -7.8528  -7.7479  -7.7303  -7.6189  -7.4716  -7.2405
    -7.1696  -7.0003  -6.9801  -6.9771  -6.8822  -6.8536  -6.8230  -6.5568
    -6.4211  -6.3915  -6.2386  -6.1678  -6.0606  -6.0583  -5.7881  -5.7565
    -5.4566  -5.3135  -5.2699  -5.1905  -5.0374  -4.9566  -4.9247  -4.7700
    -4.6456  -4.5499  -4.5349  -4.4989  -4.4053  -4.2909  -4.2872  -4.2186
    -4.0938  -3.8737  -3.6732  -3.6187  -3.5350  -3.3280  -3.1667  -2.8310
    -2.6959  -2.6178  -2.6101  -2.4931  -2.4661  -2.3018  -2.2487  -2.2319
    -2.1347  -2.1048  -2.0870  -2.0444  -1.9659  -1.8734  -1.7184  -1.5989
    -1.4316  -1.1406  -1.1055  -0.9951  -0.8941  -0.7370  -0.6599  -0.6165
    -0.5954   0.0120   0.3844   0.5414   0.6011   1.1084   1.2637   1.4715
     1.6489   1.7306   2.0771   2.2977   2.3144   2.3549   2.4545   2.4656
     3.4368   3.4953   3.9237   4.3785   4.8858   5.3364   5.5737   5.7885
     6.0067   6.2724   6.4853   6.9047   7.0184   7.0848   7.3420   7.3481
     7.5715   7.7388   7.8309   8.2157   8.2642   8.2783   8.3578   8.5140
     8.5415   8.7687   8.7944   8.9363   9.0160   9.2035   9.2206   9.4945
     9.5134   9.6217   9.6376   9.7796  10.0009  10.0225  10.0582  10.0954
    10.1058  10.1812  10.2423  10.2425  10.3458  10.3938  10.5797  10.6236
    10.7035  10.7627  10.9790  11.0409  11.1849  11.3018  11.3318  11.3323
    11.4709  11.4829  11.5348  11.6384  11.7433  11.8183  11.8791  12.2614
    12.3016  12.3522  12.4977  12.5699  12.6658  12.7000  12.8020  12.8203
    12.8389  13.0016  13.1976  13.3214  13.3254  13.5224  13.5858  13.6199
    13.6576  13.7698  13.9276  13.9304  14.0464  14.0714  14.1843  14.2066
    14.3225  14.3263  14.3758  14.4676  14.5075  14.5235  14.5848  14.6140
    14.8469  14.8478  14.9940  15.0299  15.0391  15.0651  15.1717  15.1881
    15.3470  15.3677  15.4493  15.4626  15.5346  15.5853  15.7785  15.8512
    15.8716  15.8873  16.0060  16.0682  16.1500  16.2048  16.3985  16.4266
    16.5510  16.5798  16.8006  16.8911  16.9296  17.0520  17.0864  17.2089
    17.2529  17.3070  17.3986  17.4886  17.5908  17.6468  17.7484  17.9921
    18.0207  18.0885  18.1275  18.1390  18.3902  18.5722  18.6002  18.6543
    18.8479  18.9346  18.9499  18.9778  19.0323  19.1503  19.1677  19.2053
    19.2778  19.5490  19.6080  19.6529  19.7382  19.9026  19.9318  19.9565
    20.0858  20.1451  20.1714  20.1823  20.2298  20.2964  20.3772  20.4580
    20.4820  20.6477  20.6541  20.7280  20.7739  20.8052  20.8809  20.9306
    20.9734  21.0884  21.2131  21.2298

          k = 0.0000-0.4682 0.0000 ( 27136 PWs)   bands (ev):

   -75.1952 -75.1799 -75.1483 -75.1340 -75.0351 -75.0209 -74.9790 -74.9644
   -46.6202 -46.6059 -46.5869 -46.5369 -46.5329 -46.4849 -46.4786 -46.4487
   -46.4155 -46.4010 -46.3951 -46.3881 -46.3747 -46.3656 -46.3505 -46.3462
   -46.3256 -46.3228 -46.2802 -46.2708 -46.2653 -46.2515 -46.2404 -46.1998
   -21.3892 -20.8489 -20.7019 -20.6330 -20.3469 -20.2711 -20.2200 -19.9815
   -19.8693 -19.7784 -19.6785 -19.5988 -19.5122 -19.4467 -19.3967 -19.2675
   -19.0361 -18.8869  -9.3015  -8.9737  -8.5429  -8.4626  -8.2359  -8.2080
    -8.2033  -7.7972  -7.7969  -7.6668  -7.5825  -7.4694  -7.3561  -7.3350
    -7.0083  -6.9879  -6.9800  -6.8770  -6.8025  -6.7798  -6.7681  -6.6201
    -6.5300  -6.5227  -6.3524  -6.3523  -6.2951  -5.9940  -5.9370  -5.8499
    -5.6869  -5.4659  -5.2944  -5.2796  -5.2465  -5.0708  -4.9373  -4.8159
    -4.7573  -4.6641  -4.5379  -4.5374  -4.4512  -4.4065  -4.0984  -4.0861
    -4.0735  -3.8033  -3.7686  -3.7423  -3.5471  -3.2223  -3.0701  -2.8274
    -2.7612  -2.7358  -2.6876  -2.6808  -2.5755  -2.4299  -2.3061  -2.2337
    -2.1405  -2.1060  -2.0886  -1.8057  -1.7190  -1.6399  -1.5620  -1.5216
    -1.3767  -1.3196  -1.2391  -1.1291  -0.8088  -0.7895  -0.7474  -0.5615
    -0.4620   0.0421   0.1485   0.2088   0.6252   1.2747   1.4279   1.4538
     1.4751   1.8774   1.8879   2.2554   2.3642   2.3643   2.7878   2.8124
     3.9100   3.9954   4.3889   4.5239   4.6564   4.8304   5.0910   5.3385
     5.6771   5.9613   6.4018   6.7518   7.0205   7.1033   7.2299   7.3921
     7.7022   7.8487   7.8719   7.9574   8.0059   8.2234   8.5765   8.7567
     8.8917   8.9547   8.9892   9.0367   9.0492   9.1196   9.2119   9.3927
     9.4166   9.4840   9.5038   9.5844   9.6515   9.7663   9.8361   9.9357
    10.0330  10.1818  10.2526  10.3684  10.5646  10.6164  10.7512  10.9369
    10.9481  10.9866  10.9890  11.1197  11.1308  11.3924  11.5245  11.5597
    11.7091  11.8533  11.9381  11.9549  12.0096  12.1143  12.1833  12.3689
    12.3691  12.4408  12.5701  12.6615  12.6765  12.7596  12.8096  12.8896
    12.9884  13.1161  13.2502  13.2813  13.3552  13.3611  13.4882  13.5109
    13.5637  13.6489  13.7338  13.8386  13.9910  14.0832  14.1687  14.2114
    14.2923  14.3232  14.4123  14.5101  14.5852  14.5896  14.6295  14.6952
    14.7821  14.8067  14.9617  14.9842  15.2177  15.2972  15.3403  15.3660
    15.4782  15.4945  15.5836  15.7528  15.8658  15.9196  15.9427  15.9506
    15.9849  16.2621  16.2796  16.3848  16.5140  16.5580  16.6119  16.6834
    16.7793  16.8537  16.8633  16.9431  16.9963  17.0211  17.0624  17.0995
    17.2411  17.3932  17.4027  17.5336  17.5854  17.6816  17.7519  17.8206
    17.8719  17.9189  18.0688  18.0868  18.2029  18.2051  18.2289  18.3131
    18.4114  18.4262  18.4465  18.4548  18.4924  18.5591  18.7340  18.7811
    18.8023  18.9413  18.9891  19.1245  19.1381  19.2215  19.2667  19.3746
    19.5571  19.6510  19.7652  19.8961  19.9522  20.0324  20.0971  20.1469
    20.2378  20.2997  20.3262  20.3725  20.5370  20.6393  20.7374  20.7657
    20.8325  20.8761  20.9382  21.0659

          k = 0.2500 0.0000 0.0000 ( 27178 PWs)   bands (ev):

   -75.1930 -75.1821 -75.1462 -75.1361 -75.0330 -75.0230 -74.9768 -74.9665
   -46.6179 -46.6080 -46.5600 -46.5397 -46.5263 -46.4750 -46.4700 -46.4525
   -46.4278 -46.3913 -46.3863 -46.3795 -46.3696 -46.3645 -46.3518 -46.3481
   -46.3452 -46.3269 -46.2782 -46.2758 -46.2670 -46.2599 -46.2444 -46.2243
   -21.4088 -20.9144 -20.8783 -20.4956 -20.4117 -20.3064 -20.0923 -19.9260
   -19.7639 -19.6590 -19.6413 -19.5577 -19.5552 -19.5084 -19.3715 -19.2950
   -19.0496 -18.9277  -9.2263  -8.9213  -8.8300  -8.7905  -8.4197  -8.1302
    -8.0066  -7.9031  -7.8749  -7.8465  -7.7215  -7.7141  -7.6318  -7.3863
    -7.3414  -7.3105  -7.1311  -6.9845  -6.9648  -6.8444  -6.7832  -6.6749
    -6.6050  -6.1238  -6.0609  -5.9839  -5.7518  -5.6997  -5.6295  -5.4950
    -5.4090  -5.3393  -5.2550  -5.2297  -5.1863  -5.0828  -4.9884  -4.8240
    -4.7416  -4.6768  -4.5735  -4.5484  -4.3828  -4.2103  -4.1543  -4.1216
    -4.0903  -4.0265  -3.8715  -3.7056  -3.4843  -3.2480  -3.1538  -3.0513
    -2.9383  -2.6326  -2.5825  -2.5106  -2.3362  -2.2753  -2.2070  -2.1504
    -2.1137  -2.0098  -1.8813  -1.8142  -1.7954  -1.7258  -1.6167  -1.5108
    -1.4327  -1.1969  -1.1802  -1.1459  -1.0306  -0.7279  -0.7238  -0.5371
    -0.4876  -0.1454   0.7021   0.8948   1.1063   1.1869   1.2116   1.3548
     1.4608   1.6298   1.7082   1.7237   1.9185   2.0021   2.2505   2.5706
     3.4849   3.5758   3.9678   4.4415   4.9642   5.5205   5.6605   5.7111
     6.1714   6.2864   6.5598   6.6824   7.0647   7.3554   7.3883   7.4545
     7.5143   7.5830   7.7923   7.8651   8.0369   8.0406   8.3265   8.4274
     8.6141   8.7083   8.8120   8.9703   9.0354   9.2117   9.3411   9.3824
     9.4621   9.6761   9.6766   9.7895   9.8974   9.9138   9.9716   9.9847
    10.0249  10.1430  10.2385  10.3813  10.4828  10.5167  10.5197  10.6438
    10.8778  10.8918  10.9153  11.1754  11.2741  11.2901  11.3767  11.4027
    11.4350  11.5663  11.6143  11.7465  11.7569  11.8244  12.0075  12.1671
    12.2720  12.3977  12.5172  12.5283  12.6305  12.6572  12.7395  12.8156
    12.8618  13.0059  13.1100  13.2432  13.2470  13.3195  13.4205  13.4801
    13.6358  13.7207  13.8547  13.9354  13.9941  14.1338  14.3400  14.3908
    14.4198  14.4508  14.4814  14.4908  14.6070  14.6444  14.7656  14.7814
    14.8109  14.9216  14.9728  15.1381  15.2274  15.2451  15.2894  15.3141
    15.4383  15.5357  15.6348  15.7221  15.7398  15.8071  15.9636  16.0097
    16.0694  16.2671  16.2827  16.3665  16.4499  16.5207  16.5795  16.7226
    16.7647  16.8758  16.9210  16.9303  17.0958  17.1788  17.2365  17.2471
    17.4467  17.5040  17.5281  17.5606  17.6102  17.7043  17.7552  17.8476
    17.9678  17.9790  17.9990  18.2728  18.4415  18.5082  18.6225  18.7506
    18.7599  18.8480  18.9009  18.9584  19.0012  19.0649  19.1831  19.2599
    19.4938  19.5311  19.5678  19.6425  19.6426  19.6786  19.6994  19.7511
    19.8936  19.8960  20.0242  20.0953  20.1502  20.2367  20.3308  20.4091
    20.4593  20.5522  20.5998  20.6386  20.7194  20.7643  20.8129  21.0277
    21.0661  21.1353  21.1798  21.2358

          k = 0.2500 0.2341 0.0000 ( 27132 PWs)   bands (ev):

   -75.1930 -75.1821 -75.1462 -75.1361 -75.0330 -75.0230 -74.9768 -74.9665
   -46.6180 -46.6080 -46.5602 -46.5375 -46.5285 -46.4750 -46.4673 -46.4526
   -46.4279 -46.3916 -46.3884 -46.3765 -46.3715 -46.3696 -46.3517 -46.3452
   -46.3409 -46.3268 -46.2782 -46.2765 -46.2671 -46.2624 -46.2445 -46.2244
   -21.3559 -20.9088 -20.7870 -20.4633 -20.3912 -20.3487 -20.0633 -19.9032
   -19.8950 -19.7378 -19.7167 -19.6486 -19.4679 -19.4603 -19.4335 -19.2922
   -19.0476 -18.9230  -9.2001  -8.8410  -8.5741  -8.4650  -8.3907  -8.0893
    -8.0086  -7.8478  -7.8380  -7.7972  -7.7458  -7.6755  -7.4700  -7.3928
    -7.2340  -7.2205  -7.1066  -6.9934  -6.8891  -6.8426  -6.6777  -6.6525
    -6.5856  -6.2670  -6.1958  -6.1079  -5.8110  -5.7924  -5.6732  -5.6353
    -5.5977  -5.5125  -5.4504  -5.3230  -5.3074  -5.2025  -5.1064  -4.9693
    -4.8102  -4.7517  -4.6753  -4.5479  -4.4275  -4.3737  -4.2878  -4.1550
    -4.1227  -3.9092  -3.8076  -3.5725  -3.5250  -3.1830  -3.1558  -2.9425
    -2.8002  -2.5796  -2.4708  -2.4075  -2.3080  -2.2493  -2.2172  -2.1499
    -2.0362  -2.0172  -1.9956  -1.9539  -1.8262  -1.7317  -1.6600  -1.5264
    -1.2639  -1.1922  -1.1566  -1.1299  -0.9444  -0.8020  -0.7752  -0.6931
    -0.3696   0.0459   0.4688   0.6577   0.7467   1.1174   1.1785   1.2465
     1.3636   1.7097   1.9163   1.9975   2.0509   2.3716   2.4386   2.5361
     3.7370   3.7879   4.2102   4.6607   5.1704   5.5959   5.7111   5.8144
     5.8506   6.0809   6.2908   6.3955   6.5847   6.7508   6.7921   7.1556
     7.3065   7.4902   7.6372   7.8762   7.9035   8.1483   8.2368   8.3498
     8.5155   8.6530   8.8395   8.8700   9.0584   9.1307   9.1406   9.3713
     9.3939   9.5568   9.6498   9.7933   9.9488  10.0018  10.0973  10.2135
    10.3234  10.3556  10.4528  10.5519  10.7371  10.8411  10.9730  10.9972
    11.0820  11.2718  11.3368  11.3769  11.4661  11.4930  11.6063  11.6825
    11.7677  11.7766  11.9923  12.0332  12.1056  12.2058  12.2426  12.4526
    12.5249  12.5356  12.6840  12.7206  12.7776  12.8181  12.8615  12.8987
    12.9767  13.0646  13.1337  13.1674  13.3569  13.4291  13.4387  13.6217
    13.7100  13.7122  13.8368  13.8632  13.9481  14.0344  14.1448  14.2259
    14.3536  14.3782  14.4451  14.4867  14.5674  14.6835  14.7017  14.7420
    14.9096  15.0112  15.0285  15.0522  15.1165  15.2140  15.4002  15.4087
    15.5022  15.5363  15.7203  15.7438  15.7697  15.8804  15.9726  16.0240
    16.1097  16.1700  16.2168  16.3256  16.4038  16.4750  16.6376  16.6869
    16.7308  16.7360  16.7824  16.9128  16.9835  17.0703  17.1688  17.1812
    17.2685  17.3135  17.3824  17.4458  17.4785  17.5091  17.6120  17.6220
    17.7607  17.8213  17.9061  17.9358  18.0827  18.1162  18.1747  18.1803
    18.2752  18.4430  18.4432  18.5539  18.6500  18.7343  18.8279  18.8348
    18.9569  18.9703  19.1209  19.1837  19.2894  19.3084  19.3795  19.4153
    19.4901  19.5218  19.6073  19.6357  19.7033  19.7948  19.8470  19.9696
    19.9724  20.1432  20.2466  20.3059  20.3827  20.4186  20.4628  20.6294
    20.6426  20.7326  20.9040  20.9459

          k = 0.2500-0.4682 0.0000 ( 27150 PWs)   bands (ev):

   -75.1930 -75.1821 -75.1462 -75.1361 -75.0330 -75.0230 -74.9768 -74.9665
   -46.6180 -46.6080 -46.5604 -46.5353 -46.5306 -46.4750 -46.4648 -46.4527
   -46.4281 -46.3919 -46.3904 -46.3760 -46.3731 -46.3698 -46.3517 -46.3451
   -46.3358 -46.3267 -46.2790 -46.2766 -46.2670 -46.2652 -46.2448 -46.2243
   -21.2982 -20.9027 -20.6179 -20.5419 -20.3695 -20.2595 -20.1745 -20.0238
   -19.8060 -19.7853 -19.7795 -19.7187 -19.5490 -19.4483 -19.3942 -19.2899
   -19.0459 -18.9198  -9.1745  -8.8693  -8.3376  -8.1577  -8.0858  -8.0277
    -8.0137  -7.8460  -7.8063  -7.7026  -7.5658  -7.5004  -7.3470  -7.2024
    -7.1633  -7.1550  -7.1549  -6.9754  -6.9640  -6.8366  -6.7123  -6.6200
    -6.4711  -6.3942  -6.3748  -6.2376  -6.1085  -6.0226  -5.9775  -5.7941
    -5.7250  -5.7064  -5.5991  -5.5990  -5.3728  -5.2482  -5.1887  -5.1229
    -4.9448  -4.9093  -4.6477  -4.5633  -4.5271  -4.3626  -4.2152  -4.0236
    -3.8849  -3.7803  -3.6363  -3.5994  -3.3766  -3.2330  -3.2254  -2.8594
    -2.7866  -2.7555  -2.6179  -2.5404  -2.3665  -2.3270  -2.2487  -2.1394
    -2.0621  -2.0578  -1.9078  -1.7239  -1.6017  -1.5527  -1.4428  -1.4172
    -1.3541  -1.2863  -1.1534  -1.1215  -1.0901  -0.8988  -0.8437  -0.5889
    -0.2763   0.1223   0.2056   0.2527   0.7661   1.0794   1.1903   1.2664
     1.3731   1.5043   1.9695   2.1223   2.2275   2.4291   2.6746   2.7486
     4.1605   4.2613   4.6685   4.8030   4.9306   5.1152   5.3664   5.6297
     5.9501   6.0284   6.0449   6.2675   6.6854   6.7325   6.9766   7.0668
     7.1070   7.2735   7.3366   7.4721   7.7447   7.7667   7.9969   8.1817
     8.3368   8.3868   8.5863   8.6028   8.9130   9.0190   9.2716   9.2740
     9.2967   9.4827   9.7483   9.8567   9.9022  10.1049  10.1668  10.3293
    10.4534  10.6152  10.8480  10.9620  11.1840  11.2990  11.3158  11.4526
    11.5533  11.6422  11.7074  11.7232  11.8313  11.8330  11.8837  11.9867
    12.0224  12.2484  12.2600  12.2702  12.4231  12.4682  12.6245  12.6270
    12.7033  12.7826  12.8127  12.8254  12.9057  12.9508  13.0498  13.1431
    13.1681  13.1734  13.4055  13.4726  13.4990  13.5533  13.6401  13.6644
    13.7010  13.8112  13.8472  13.9372  13.9674  14.0165  14.1521  14.1851
    14.2015  14.2626  14.3398  14.6177  14.6539  14.7092  14.8028  14.8281
    14.8671  14.9187  14.9368  14.9954  15.1045  15.1504  15.1923  15.2399
    15.2477  15.2930  15.3373  15.4272  15.4696  15.4761  15.6137  15.6580
    15.7405  15.7628  15.8473  15.8691  16.0887  16.2151  16.2423  16.2480
    16.4109  16.4176  16.5185  16.6009  16.6626  16.7834  16.8466  16.9954
    17.0430  17.1860  17.3847  17.4292  17.4913  17.5415  17.6094  17.6806
    17.8116  17.8246  17.9856  18.0210  18.0625  18.1937  18.2428  18.2946
    18.3271  18.3941  18.4909  18.5029  18.5920  18.6499  18.6842  18.7761
    18.8036  18.8571  18.9256  18.9649  19.2217  19.2946  19.3063  19.3204
    19.3723  19.3785  19.5026  19.5389  19.5936  19.7182  19.7380  19.8040
    19.8597  19.8794  19.8968  19.9766  20.0035  20.1341  20.2298  20.3168
    20.5418  20.5715  20.6013  20.6755

          k =-0.5000 0.0000 0.0000 ( 27158 PWs)   bands (ev):

   -75.1876 -75.1875 -75.1412 -75.1411 -75.0283 -75.0278 -74.9718 -74.9716
   -46.6129 -46.6128 -46.5330 -46.5330 -46.4969 -46.4968 -46.4612 -46.4612
[...]
   -43.9016 -43.9014 -43.8652 -43.8651 -43.8085 -43.8085 -43.6797 -43.6792
   -21.1104 -21.1104 -20.6696 -20.6696 -20.3381 -20.3381 -20.1903 -20.1903
   -19.6517 -19.6514 -19.6184 -19.6184 -19.5625 -19.5624 -19.4813 -19.4812
   -19.1667 -19.1666  -8.7636  -8.7636  -8.1699  -8.1699  -8.0543  -8.0542
    -7.6867  -7.6867  -7.5505  -7.5504  -7.4061  -7.4061  -7.2145  -7.2145
    -7.0332  -7.0332  -6.8427  -6.8427  -6.4316  -6.4316  -6.3020  -6.3020
    -5.9408  -5.9408  -5.8321  -5.8321  -5.5766  -5.5766  -5.3990  -5.3990
    -5.2065  -5.2065  -4.9503  -4.9503  -4.7329  -4.7329  -4.6968  -4.6968
    -4.5859  -4.5859  -4.5408  -4.5408  -4.2608  -4.2608  -4.1078  -4.1078
    -3.9643  -3.9643  -3.3832  -3.3832  -3.1924  -3.1923  -3.0699  -3.0698
    -0.5237  -0.5236  -0.1965  -0.1965  -0.1114  -0.1114  -0.0494  -0.0494
     0.0927   0.0928   0.1789   0.1789   0.1880   0.1881   0.3294   0.3296
     0.5004   0.5005   0.5913   0.5914   0.6881   0.6882   0.9881   0.9881
     1.2834   1.2835   2.0903   2.0903   2.1995   2.1997   2.5204   2.5205
     2.5735   2.5735   2.7733   2.7734   2.9307   2.9307   3.4356   3.4357
     4.3813   4.3813   4.5044   4.5044   4.8638   4.8638   5.3186   5.3186
     5.8877   5.8877   6.5467   6.5467   7.1139   7.1140   7.6039   7.6040
     8.1792   8.1793   8.2151   8.2151   8.2902   8.2902   8.4806   8.4806
     8.6607   8.6607   8.6951   8.6951   8.8723   8.8723   9.1580   9.1580
     9.2876   9.2876   9.5123   9.5123   9.8108   9.8108  10.1169  10.1170
    10.2096  10.2096  10.4391  10.4391  10.6120  10.6121  10.9153  10.9154
    11.0979  11.0979  11.3093  11.3093  11.5488  11.5488  11.7461  11.7461
    11.9272  11.9272  11.9888  11.9888  12.3306  12.3306  12.5729  12.5729
    12.7388  12.7388  12.8664  12.8664  13.0511  13.0511  13.2544  13.2544
    13.3582  13.3582  13.5951  13.5951  13.7121  13.7122  13.7446  13.7446
    14.1275  14.1275  14.2172  14.2172  14.3239  14.3239  14.4197  14.4198
    14.7991  14.7991  14.8785  14.8785  15.0321  15.0321  15.1422  15.1422
    15.2336  15.2336  15.3034  15.3034  15.4339  15.4339  15.7416  15.7416
    15.8608  15.8608  16.1460  16.1460  16.1856  16.1856  16.4900  16.4900
    16.6704  16.6704  16.8175  16.8175  17.0062  17.0062  17.2275  17.2275
    17.3244  17.3244  17.4408  17.4408  17.5245  17.5245  17.5446  17.5446
    17.5904  17.5904  17.6392  17.6392  17.7759  17.7760  17.9477  17.9477
    18.0157  18.0157  18.0975  18.0975  18.2294  18.2294  18.5356  18.5356
    18.6179  18.6179  18.7631  18.7631  19.0695  19.0695  19.1256  19.1256
    19.2060  19.2060  19.2393  19.2393  19.4307  19.4308  19.6266  19.6267
    19.7256  19.7257  19.9709  19.9709  20.0782  20.0782  20.2820  20.2820
    20.3041  20.3041  20.4164  20.4164  20.4508  20.4508  20.5779  20.5779
    20.6642  20.6642  20.6891  20.6891

          k =-0.5000 0.2341 0.0000 ( 27132 PWs)   bands (ev):

   -73.2389 -73.2388 -72.7735 -72.7734 -72.5827 -72.5826 -72.5119 -72.5115
   -44.6319 -44.6318 -44.5985 -44.5984 -44.5615 -44.5615 -44.3948 -44.3947
   -44.2317 -44.2316 -44.0911 -44.0864 -44.0538 -44.0480 -43.9184 -43.9180
   -43.9011 -43.9000 -43.8655 -43.8655 -43.8084 -43.8083 -43.6796 -43.6792
   -21.0823 -21.0816 -20.6178 -20.6174 -20.2914 -20.2907 -20.1941 -20.1936
   -19.7955 -19.7954 -19.6703 -19.6654 -19.5402 -19.5356 -19.4828 -19.4826
   -19.1605 -19.1604  -8.7422  -8.7349  -7.8698  -7.8671  -7.8306  -7.7976
    -7.6696  -7.6465  -7.5138  -7.4998  -7.3137  -7.3094  -7.1657  -7.1488
    -7.0491  -7.0258  -6.7822  -6.7622  -6.4379  -6.4311  -6.3427  -6.2696
    -6.1330  -6.0681  -5.9030  -5.8805  -5.7922  -5.7490  -5.6409  -5.6382
    -5.2871  -5.2696  -5.1064  -5.1041  -4.9922  -4.9426  -4.8917  -4.8866
    -4.7538  -4.7323  -4.5421  -4.5374  -4.2408  -4.1990  -3.9616  -3.9113
    -3.8314  -3.8270  -3.4325  -3.4054  -3.2559  -3.2279  -3.0036  -2.9139
    -0.6051  -0.5975  -0.2321  -0.2199  -0.1355  -0.1315  -0.0643  -0.0619
     0.1695   0.1765   0.2550   0.2554   0.3333   0.3341   0.3973   0.3978
     0.4441   0.4448   0.6116   0.6132   0.8135   0.8173   0.9447   0.9534
     1.4054   1.4057   2.0611   2.0612   2.1446   2.1460   2.2884   2.2921
     2.3453   2.3455   2.7516   2.7579   3.2120   3.2127   3.5289   3.5330
     4.6014   4.6052   4.7037   4.7038   5.0875   5.0884   5.5271   5.5273
     6.0307   6.0402   6.3897   6.4103   6.6815   6.6878   6.9536   6.9589
     7.1205   7.1323   7.4853   7.5060   7.6817   7.7109   8.1648   8.1970
     8.4936   8.5220   8.7364   8.7381   9.0409   9.0702   9.3523   9.3591
     9.7004   9.7266   9.9017   9.9472  10.3532  10.3625  10.4715  10.4734
    10.6055  10.6080  10.8588  10.8601  11.0023  11.0124  11.2158  11.2174
    11.4424  11.4662  11.5787  11.5842  11.7570  11.7707  11.9591  11.9745
    12.2403  12.2408  12.4301  12.4324  12.6336  12.6370  12.7980  12.8323
    12.9189  12.9189  13.0473  13.0928  13.2037  13.2160  13.4311  13.4415
    13.4946  13.5634  13.7066  13.7565  13.8805  13.8956  13.9943  14.0066
    14.1440  14.1778  14.3462  14.3513  14.4312  14.4563  14.5417  14.5634
    14.6279  14.6399  14.8190  14.8426  14.9652  14.9816  15.0401  15.0447
    15.3347  15.3561  15.4733  15.4922  15.6421  15.6703  15.7809  15.7863
    15.8383  15.8387  15.9134  15.9314  16.0082  16.0199  16.0884  16.0899
    16.1857  16.2073  16.3513  16.3517  16.5334  16.5524  16.5902  16.5940
    16.6753  16.6797  16.7759  16.8141  16.8488  16.8509  16.9665  16.9960
    17.2042  17.2266  17.2810  17.3102  17.3788  17.4101  17.5249  17.5310
    17.6790  17.6798  17.8318  17.8431  17.8644  17.9357  18.0006  18.0252
    18.2624  18.2658  18.4366  18.4478  18.4916  18.4979  18.6421  18.6533
    18.9262  18.9402  19.0553  19.0670  19.2431  19.2767  19.5064  19.5109
    19.6168  19.6170  19.6799  19.6890  19.8330  19.8358  19.9002  19.9112
    19.9858  20.0031  20.1252  20.1334  20.1693  20.1792  20.3837  20.3974
    20.4514  20.4713  20.6755  20.6941

          k =-0.5000-0.4682 0.0000 ( 27168 PWs)   bands (ev):

   -73.2389 -73.2388 -72.7736 -72.7734 -72.5827 -72.5826 -72.5119 -72.5115
   -44.6317 -44.6316 -44.5985 -44.5985 -44.5615 -44.5615 -44.3948 -44.3947
   -44.2317 -44.2316 -44.0763 -44.0762 -44.0647 -44.0643 -43.9184 -43.9180
   -43.8997 -43.8995 -43.8659 -43.8658 -43.8082 -43.8081 -43.6795 -43.6791
   -21.0528 -21.0528 -20.5483 -20.5483 -20.2885 -20.2885 -20.0809 -20.0809
   -20.0071 -20.0071 -19.6960 -19.6959 -19.5828 -19.5826 -19.4563 -19.4562
   -19.1559 -19.1559  -8.7135  -8.7135  -7.7479  -7.7478  -7.6601  -7.6600
    -7.3046  -7.3046  -7.2716  -7.2716  -7.1323  -7.1323  -7.0084  -7.0084
    -6.9028  -6.9027  -6.7557  -6.7556  -6.6111  -6.6111  -6.5203  -6.5203
    -6.2884  -6.2884  -6.1504  -6.1503  -5.8969  -5.8969  -5.7835  -5.7835
    -5.5095  -5.5095  -5.3727  -5.3727  -5.1194  -5.1194  -4.9974  -4.9974
    -4.8621  -4.8620  -4.5312  -4.5312  -4.1366  -4.1366  -3.7144  -3.7144
    -3.6658  -3.6658  -3.4627  -3.4627  -3.3753  -3.3753  -2.8454  -2.8453
    -0.6635  -0.6635  -0.4015  -0.4014  -0.1123  -0.1123  -0.0440  -0.0439
     0.2280   0.2281   0.3036   0.3036   0.3846   0.3847   0.4796   0.4797
     0.5636   0.5636   0.7431   0.7432   0.9362   0.9362   0.9908   0.9909
     1.4905   1.4905   1.7460   1.7461   1.8884   1.8885   2.1788   2.1788
     2.3203   2.3206   2.8908   2.8909   3.4584   3.4586   3.4923   3.4923
     5.0477   5.0477   5.0841   5.0841   5.5076   5.5076   5.6408   5.6408
     5.7795   5.7795   5.9606   5.9606   6.2128   6.2128   6.4771   6.4771
     6.7986   6.7986   7.1427   7.1427   7.5374   7.5374   7.9574   7.9574
     8.2528   8.2528   8.7053   8.7053   9.0968   9.0968   9.2690   9.2690
     9.5064   9.5064   9.8315   9.8315  10.1014  10.1015  10.7731  10.7732
    10.9657  10.9658  11.1790  11.1790  11.3119  11.3119  11.7876  11.7876
    12.2065  12.2066  12.4541  12.4542  12.6088  12.6088  12.8300  12.8301
    12.8654  12.8654  12.9934  12.9934  13.1272  13.1273  13.2400  13.2400
    13.5090  13.5090  13.5643  13.5643  13.5955  13.5955  13.6111  13.6111
    13.7142  13.7142  13.8223  13.8223  13.9371  13.9371  14.0256  14.0257
    14.1123  14.1123  14.2862  14.2862  14.4580  14.4580  14.5826  14.5826
    14.6261  14.6261  14.7081  14.7081  14.7242  14.7242  14.7790  14.7791
    14.9002  14.9002  15.0589  15.0589  15.1874  15.1874  15.2333  15.2334
    15.3288  15.3288  15.3999  15.4000  15.5713  15.5713  15.5830  15.5830
    15.7236  15.7237  15.9128  15.9128  15.9447  15.9447  16.1035  16.1035
    16.2307  16.2307  16.3881  16.3881  16.6413  16.6413  16.7506  16.7506
    16.8383  16.8383  17.0025  17.0025  17.0506  17.0506  17.1389  17.1390
    17.2531  17.2531  17.5643  17.5643  17.7595  17.7595  17.8697  17.8697
    17.9569  17.9569  18.0336  18.0336  18.1836  18.1837  18.3686  18.3686
    18.7215  18.7215  18.7578  18.7578  19.0235  19.0235  19.0579  19.0579
    19.1220  19.1220  19.4041  19.4041  19.7223  19.7223  20.0763  20.0764
    20.1312  20.1312  20.2761  20.2761  20.3297  20.3297  20.7606  20.7606
    20.9193  20.9193  21.2520  21.2520

          k =-0.2500 0.2341 0.0000 ( 27132 PWs)   bands (ev):

   -73.2448 -73.2330 -72.7790 -72.7679 -72.5882 -72.5770 -72.5171 -72.5063
   -44.6695 -44.6373 -44.6263 -44.5789 -44.5517 -44.5191 -44.3996 -44.3900
   -44.2376 -44.2258 -44.1021 -44.0797 -44.0529 -44.0482 -43.9634 -43.9300
   -43.9076 -43.8782 -43.8755 -43.8528 -43.8335 -43.7461 -43.7392 -43.6119
   -21.3363 -20.8723 -20.7948 -20.4672 -20.4555 -20.4042 -20.0752 -19.9432
   -19.9148 -19.7525 -19.7287 -19.6800 -19.5067 -19.4857 -19.4848 -19.4136
   -19.2086 -19.0847  -8.9503  -8.6508  -8.1739  -8.1667  -8.0536  -7.7614
    -7.6322  -7.5741  -7.5647  -7.4581  -7.4130  -7.3187  -7.1469  -7.0676
    -6.9640  -6.8611  -6.8033  -6.6746  -6.6290  -6.5596  -6.4614  -6.3015
    -6.2982  -6.0049  -5.9053  -5.8963  -5.5856  -5.4937  -5.3976  -5.3701
    -5.3165  -5.2602  -5.1786  -5.0999  -5.0027  -4.9812  -4.8553  -4.6574
    -4.5768  -4.5464  -4.4354  -4.3164  -4.2133  -4.1636  -4.0052  -3.9616
    -3.8857  -3.7220  -3.6453  -3.5021  -3.3584  -3.1062  -3.0949  -2.7753
    -0.6235  -0.5104  -0.3497  -0.3445  -0.2473  -0.1716  -0.1299  -0.0253
    -0.0056   0.0636   0.1219   0.2425   0.3062   0.3280   0.4323   0.4675
     0.5023   0.5818   0.6132   0.7041   0.7892   0.8887   0.9812   1.0434
     1.2256   1.3893   1.7124   1.8976   1.9828   2.2644   2.3850   2.4347
     2.5572   2.7831   2.8532   3.0142   3.0560   3.3633   3.4851   3.5502
     3.8252   3.9303   4.2639   4.7289   5.2526   5.6691   5.7793   5.8862
     5.9658   6.1243   6.3200   6.4336   6.6661   6.8036   6.8408   7.1894
     7.3677   7.5476   7.7183   7.9600   7.9938   8.2241   8.2726   8.4077
     8.5993   8.7036   8.9282   8.9920   9.2195   9.2529   9.2800   9.4264
     9.5326   9.6928   9.7822   9.8491  10.0295  10.0797  10.2657  10.2681
    10.4150  10.4744  10.6159  10.7204  10.7617  10.9510  11.0410  11.0915
    11.1615  11.3442  11.5012  11.5461  11.5853  11.6232  11.7970  11.8349
    11.8850  12.0207  12.0737  12.1617  12.2755  12.3127  12.4086  12.5792
    12.6640  12.6986  12.8118  12.9053  12.9238  12.9988  13.0727  13.1022
    13.1073  13.1916  13.2482  13.3232  13.5552  13.6445  13.7137  13.8045
    13.8551  13.9076  13.9809  14.0129  14.1182  14.2646  14.3593  14.4485
    14.5342  14.5634  14.6289  14.7031  14.7925  14.8662  14.9069  15.0542
    15.1810  15.2761  15.3879  15.4506  15.5013  15.5054  15.5947  15.6251
    15.7805  15.8130  15.9145  15.9170  16.0311  16.0889  16.1665  16.1713
    16.2504  16.2919  16.3966  16.5576  16.6205  16.6628  16.8105  16.8316
    16.8844  16.9516  17.0029  17.1115  17.1946  17.2242  17.3844  17.3912
    17.4396  17.4562  17.5409  17.6208  17.6345  17.7254  17.7556  17.8522
    17.9142  18.0061  18.0516  18.1452  18.2196  18.2859  18.3530  18.3658
    18.4311  18.6249  18.6295  18.7536  18.7885  18.8646  18.9257  19.0699
    19.1031  19.1678  19.2726  19.3457  19.3764  19.4144  19.4886  19.5659
    19.6204  19.6526  19.7352  19.7833  19.8258  19.9452  20.1088  20.1234
    20.2622  20.3367  20.4007  20.4681  20.5157  20.6554  20.7097  20.8226
    20.8514  20.9085  21.1050  21.1060

     the spin up/dw Fermi energies are    -1.4096   -2.6363 ev

!    total energy              =   -1993.71436637 Ry
     Harris-Foulkes estimate   =   -1993.71436650 Ry
     estimated scf accuracy    <       0.00000017 Ry

     The total energy is the sum of the following terms:

     one-electron contribution =  -23569.24729749 Ry
     hartree contribution      =   11801.32107092 Ry
     xc contribution           =    -314.92159333 Ry
     ewald contribution        =   10089.13234520 Ry
     Hubbard energy            =       0.00000000 Ry
     smearing contrib. (-TS)   =       0.00110832 Ry

     total magnetization       =    16.00 Bohr mag/cell
     absolute magnetization    =    18.32 Bohr mag/cell

     convergence has been achieved in  48 iterations

     Forces acting on atoms (Ry/au):


     negative rho (up, down):  0.484E-02 0.180E-02
     atom    1 type  1   force =    -0.00359724   -0.01482559   -0.00004291
     atom    2 type  1   force =    -0.00004584    0.01365732    0.00027337
     atom    3 type  2   force =    -0.00014276   -0.00572679   -0.00020738
     atom    4 type  2   force =     0.00075877    0.00801573   -0.00052803
     atom    5 type  1   force =     0.00346725    0.00633775    0.00018653
     atom    6 type  1   force =    -0.00074286   -0.00586147    0.00013146
     atom    7 type  1   force =    -0.00005731   -0.00063878   -0.00059378
     atom    8 type  1   force =     0.00070265   -0.00068701    0.00031936
     atom    9 type  2   force =     0.00043448   -0.00018074   -0.00005501
     atom   10 type  2   force =     0.00003709   -0.00051181   -0.00025370
     atom   11 type  1   force =    -0.00003543   -0.05980465    0.00029768
     atom   12 type  1   force =     0.00015214    0.06025657    0.00031677
     atom   13 type  1   force =    -0.00064674    0.00015101    0.00039354
     atom   14 type  1   force =    -0.00351176   -0.01480655   -0.00004609
     atom   15 type  1   force =    -0.00010548    0.01365939    0.00027729
     atom   16 type  2   force =    -0.00016702   -0.00572516   -0.00021517
     atom   17 type  2   force =     0.00070998    0.00801495   -0.00052937
     atom   18 type  1   force =     0.00342867    0.00637646    0.00019002
     atom   19 type  1   force =    -0.00078061   -0.00590057    0.00013539
     atom   20 type  1   force =    -0.00012894   -0.00063869   -0.00058105
     atom   21 type  1   force =     0.00071056   -0.00068694    0.00029898
     atom   22 type  2   force =     0.00042121   -0.00018130   -0.00004658
     atom   23 type  2   force =     0.00002596   -0.00051175   -0.00025409
     atom   24 type  1   force =    -0.00005715   -0.05979292    0.00030320
     atom   25 type  1   force =     0.00013047    0.06024482    0.00032231
     atom   26 type  1   force =    -0.00062231    0.00015095    0.00039047
     atom   27 type  3   force =     0.00010167   -0.00056295   -0.00009677
     atom   28 type  3   force =     0.00010131   -0.00056309   -0.00009642
     atom   29 type  3   force =    -0.00022799    0.00037994   -0.00016102
     atom   30 type  3   force =    -0.00031276    0.00036184   -0.00012902

     Total force =     0.001939     Total SCF correction =     0.000722
     SCF correction compared to forces is large: reduce conv_thr to get better values

     BFGS Geometry Optimization

     bfgs converged in   1 scf cycles and   0 bfgs steps
     (criteria: energy < 0.10E-03, force < 0.10E-02)

     End of BFGS Geometry Optimization

     Final energy   =   -1993.7143663733 Ry
Begin final coordinates

ATOMIC_POSITIONS (crystal)
O0       0.000000000   0.000000000   0.380440000    0   0   1
O0       0.000000000   0.500000000   0.398750000    0   0   1
Cr1      0.250000000   0.500000000   0.449490000    0   0   1
Cr1      0.000000000   0.000000000   0.452000000    0   0   1
O0       0.250000000   0.800000000   0.451020000    0   0   1
O0       0.250000000   0.200000000   0.451220000    0   0   1
O0       0.000000000   0.500000000   0.497560000    0   0   1
O0       0.000000000   0.000000000   0.524790000    0   0   1
Cr1      0.250000000   0.000000000   0.577460000    0   0   1
Cr1      0.000000000   0.500000000   0.565410000    0   0   1
O0       0.250000000   0.700000000   0.575340000    0   0   1
O0       0.250000000   0.300000000   0.575320000    0   0   1
O0       0.000000000   0.000000000   0.618010000    0   0   1
O0       0.500000000   0.000000000   0.380440000    0   0   1
O0       0.500000000   0.500000000   0.398750000    0   0   1
Cr1      0.750000000   0.500000000   0.449490000    0   0   1
Cr1      0.500000000   0.000000000   0.452000000    0   0   1
O0       0.750000000   0.800000000   0.451020000    0   0   1
O0       0.750000000   0.200000000   0.451220000    0   0   1
O0       0.500000000   0.500000000   0.497560000    0   0   1
O0       0.500000000   0.000000000   0.524790000    0   0   1
Cr1      0.750000000   0.000000000   0.577460000    0   0   1
Cr1      0.500000000   0.500000000   0.565410000    0   0   1
O0       0.750000000   0.700000000   0.575340000    0   0   1
O0       0.750000000   0.300000000   0.575320000    0   0   1
O0       0.500000000   0.000000000   0.618010000    0   0   1
H2      -0.000690000   0.641520000   0.380780000
H2       0.499310000   0.641520000   0.380780000
H2       0.157340000   0.029640000   0.367440000
H2       0.657350000   0.029640000   0.367440000
End final coordinates



     init_run     :    109.90s CPU    112.67s WALL (       1 calls)
     electrons    :  11432.25s CPU  12053.01s WALL (       1 calls)
     forces       :    224.30s CPU    227.45s WALL (       1 calls)

     Called by init_run:
     wfcinit      :     47.08s CPU     48.36s WALL (       1 calls)
     potinit      :      7.76s CPU      8.25s WALL (       1 calls)

     Called by electrons:
     c_bands      :   6454.59s CPU   6709.14s WALL (      48 calls)
     sum_band     :   2528.32s CPU   2713.55s WALL (      48 calls)
     v_of_rho     :    100.25s CPU    112.69s WALL (      49 calls)
     newd         :   2261.72s CPU   2296.85s WALL (      49 calls)
     mix_rho      :     20.35s CPU     20.78s WALL (      48 calls)

     Called by c_bands:
     init_us_2    :     15.87s CPU     16.03s WALL (     500 calls)
     cegterg      :   6264.86s CPU   6392.65s WALL (     240 calls)

     Called by *egterg:
     h_psi        :   3646.06s CPU   3710.53s WALL (     750 calls)
     s_psi        :    354.42s CPU    359.59s WALL (     760 calls)
     g_psi        :      8.21s CPU      8.21s WALL (     505 calls)
     cdiaghg      :    606.18s CPU    607.70s WALL (     745 calls)

     Called by h_psi:
     add_vuspsi   :    352.30s CPU    357.98s WALL (     750 calls)
     vhpsi        :    372.77s CPU    375.17s WALL (     750 calls)

     General routines
     calbec       :    762.64s CPU    768.74s WALL (    3350 calls)
     fft          :    144.11s CPU    201.70s WALL (    1528 calls)
     ffts         :      1.46s CPU      1.55s WALL (     194 calls)
     fftw         :   1943.46s CPU   2010.17s WALL (  420912 calls)
     interpolate  :     13.75s CPU     14.01s WALL (     194 calls)
     davcio       :      0.02s CPU      6.09s WALL (     505 calls)

     Parallel routines
     fft_scatter  :    789.80s CPU    911.74s WALL (  422634 calls)
     Hubbard U routines
     new_ns       :     72.08s CPU     77.05s WALL (      48 calls)
     vhpsi        :    372.77s CPU    375.17s WALL (     750 calls)
     force_hub    :     54.87s CPU     55.50s WALL (       1 calls)

     PWSCF        :     3h16m CPU        3h26m WALL


   This run was terminated on:   3:28:41  16May2014            

=------------------------------------------------------------------------------=
   JOB DONE.
=------------------------------------------------------------------------------=
