
     Program PWSCF v.5.0.2 (svn rev. 9656) starts on  1Jun2014 at  6:50:50 

     This program is part of the open-source Quantum ESPRESSO suite
     for quantum simulation of materials; please cite
         "P. Giannozzi et al., J. Phys.:Condens. Matter 21 395502 (2009);
          URL http://www.quantum-espresso.org", 
     in publications or presentations arising from this work. More details at
     http://www.quantum-espresso.org/quote.php

     Parallel version (MPI), running on    16 processors
     K-points division:     npool     =       4
     R & G space division:  proc/nbgrp/npool/nimage =       4

     Current dimensions of program PWSCF are:
     Max number of different atomic species (ntypx) = 10
     Max number of k-points (npk) =  40000
     Max angular momentum in pseudopotentials (lmaxx) =  3
     Reading input from pwscf.in
Warning: card &CELL ignored
Warning: card / ignored

     Subspace diagonalization in iterative solution of the eigenvalue problem:
     a serial algorithm will be used


     Parallelization info
     --------------------
     sticks:   dense  smooth     PW     G-vecs:    dense   smooth      PW
     Min        1467     469    131               355494    64365    9519
     Max        1469     470    132               355497    64388    9524
     Sum        5871    1877    527              1421981   257505   38087



     bravais-lattice index     =            0
     lattice parameter (alat)  =      11.1872  a.u.
     unit-cell volume          =    7531.8600 (a.u.)^3
     number of atoms/cell      =           33
     number of atomic types    =            3
     number of electrons       =       229.00
     number of Kohn-Sham states=          343
     kinetic-energy cutoff     =      40.0000  Ry
     charge density cutoff     =     500.0000  Ry
     convergence threshold     =      1.0E-06
     mixing beta               =       0.7000
     number of iterations used =            8  plain     mixing
     Exchange-correlation      = SLA  PW   PBE  PBE ( 1 4 3 4 0)
     EXX-fraction              =        0.00
     nstep                     =           50


     celldm(1)=  11.187179  celldm(2)=   0.000000  celldm(3)=   0.000000
     celldm(4)=   0.000000  celldm(5)=   0.000000  celldm(6)=   0.000000

     crystal axes: (cart. coord. in units of alat)
               a(1) = (   1.000000   0.000000   0.000000 )  
               a(2) = (   0.000000   1.180104   0.000000 )  
               a(3) = (   0.000000   0.000000   4.558482 )  

     reciprocal axes: (cart. coord. in units 2 pi/alat)
               b(1) = (  1.000000  0.000000  0.000000 )  
               b(2) = (  0.000000  0.847383  0.000000 )  
               b(3) = (  0.000000  0.000000  0.219371 )  


     PseudoPot. # 1 for O  read from file:
     /home/camp/zhonxu/pseudo/o_pbe_v1.01.uspp.F.UPF
     MD5 check sum: 2bcb18d16ea4b960afae9ec6d52f22d2
     Pseudo is Ultrasoft + core correction, Zval =  6.0
     Generated by new atomic code, or converted to UPF format
     Using radial grid of  737 points,  5 beta functions with: 
                l(1) =   0
                l(2) =   0
                l(3) =   1
                l(4) =   1
                l(5) =   2
     Q(r) pseudized with  8 coefficients,  rinner =    0.900   0.900   0.900
                                                       0.900   0.900

     PseudoPot. # 2 for Nb read from file:
     /home/camp/zhonxu/pseudo/nb_pbe_v1.uspp.F.UPF
     MD5 check sum: 573aab8a2fa660278ed4a62cd769473f
     Pseudo is Ultrasoft + core correction, Zval = 13.0
     Generated by new atomic code, or converted to UPF format
     Using radial grid of  887 points,  6 beta functions with: 
                l(1) =   0
                l(2) =   0
                l(3) =   1
                l(4) =   1
                l(5) =   2
                l(6) =   2
     Q(r) pseudized with  6 coefficients,  rinner =    1.000   1.000   1.000
                                                       1.000   1.000

     PseudoPot. # 3 for H  read from file:
     /home/camp/zhonxu/pseudo/h_pbe_v1.uspp.F.UPF
     MD5 check sum: 3408e3ff4ec8b0a4e358431e7e038a48
     Pseudo is Ultrasoft, Zval =  1.0
     Generated by new atomic code, or converted to UPF format
     Using radial grid of  615 points,  2 beta functions with: 
                l(1) =   0
                l(2) =   0
     Q(r) pseudized with  8 coefficients,  rinner =    0.700

     atomic species   valence    mass     pseudopotential
        O0             6.00    15.99940     O ( 1.00)
        Nb1           13.00    92.90640     Nb( 1.00)
        H2             1.00     1.00794     H ( 1.00)


     Simplified LDA+U calculation (l_max = 2) with parameters (eV):
     atomic species    L          U    alpha       J0     beta
        Nb1            2     2.5000   0.0000   0.0000   0.0000



     No symmetry found



   Cartesian axes

     site n.     atom                  positions (alat units)
         1           O0  tau(   1) = (   0.0000000   0.0000000   1.6962113  )
         2           O0  tau(   2) = (   0.0000000   0.5900519   1.7723835  )
         3           Nb1 tau(   3) = (   0.2500000   0.5900519   2.0257895  )
         4           Nb1 tau(   4) = (   0.0000000   0.0000000   2.0274306  )
         5           O0  tau(   5) = (   0.2500000   0.9322821   2.0383253  )
         6           O0  tau(   6) = (   0.2500000   0.2478218   2.0381886  )
         7           O0  tau(   7) = (   0.0000000   0.5900519   2.2790132  )
         8           O0  tau(   8) = (   0.0000000   0.0000000   2.3853170  )
         9           Nb1 tau(   9) = (   0.2500000   0.0000000   2.6318397  )
        10           Nb1 tau(  10) = (   0.0000000   0.5900519   2.5956910  )
        11           O0  tau(  11) = (   0.2500000   0.8378738   2.6232242  )
        12           O0  tau(  12) = (   0.2500000   0.3422301   2.6255034  )
        13           O0  tau(  13) = (   0.0000000   0.0000000   2.8344187  )
        14           O0  tau(  14) = (   0.5000000   0.0000000   1.6974420  )
        15           O0  tau(  15) = (   0.5000000   0.5900519   1.7789021  )
        16           Nb1 tau(  16) = (   0.7500000   0.5900519   2.0259719  )
        17           Nb1 tau(  17) = (   0.5000000   0.0000000   2.0298010  )
        18           O0  tau(  18) = (   0.7500000   0.9322821   2.0382798  )
        19           O0  tau(  19) = (   0.7500000   0.2478218   2.0381886  )
        20           O0  tau(  20) = (   0.5000000   0.5900519   2.2737254  )
        21           O0  tau(  21) = (   0.5000000   0.0000000   2.3845421  )
        22           Nb1 tau(  22) = (   0.7500000   0.0000000   2.6318397  )
        23           Nb1 tau(  23) = (   0.5000000   0.5900519   2.6269166  )
        24           O0  tau(  24) = (   0.7500000   0.8378738   2.6231786  )
        25           O0  tau(  25) = (   0.7500000   0.3422301   2.6254579  )
        26           O0  tau(  26) = (   0.5000000   0.0000000   2.8332335  )
        27           H2  tau(  27) = (  -0.0005200   0.5958463   1.6070929  )
        28           H2  tau(  28) = (   0.4994400   0.5914445   1.6138395  )
        29           H2  tau(  29) = (   0.1507700   0.0008261   1.6243240  )
        30           H2  tau(  30) = (   0.6503900   0.0006019   1.6249166  )
        31           O0  tau(  31) = (   0.5000000   0.6010623   2.9587285  )
        32           O0  tau(  32) = (   0.5000000   0.4103103   3.1155403  )
        33           H2  tau(  33) = (   0.5000000   0.4955964   3.2584031  )

     number of k points=    10  Methfessel-Paxton smearing, width (Ry)=  0.0100
                       cart. coord. in units 2pi/alat
        k(    1) = (   0.0000000   0.0000000   0.0000000), wk =   0.1250000
        k(    2) = (   0.0000000   0.2118458   0.0000000), wk =   0.2500000
        k(    3) = (   0.0000000  -0.4236915   0.0000000), wk =   0.1250000
        k(    4) = (   0.2500000   0.0000000   0.0000000), wk =   0.2500000
        k(    5) = (   0.2500000   0.2118458   0.0000000), wk =   0.2500000
        k(    6) = (   0.2500000  -0.4236915   0.0000000), wk =   0.2500000
        k(    7) = (  -0.5000000   0.0000000   0.0000000), wk =   0.1250000
        k(    8) = (  -0.5000000   0.2118458   0.0000000), wk =   0.2500000
        k(    9) = (  -0.5000000  -0.4236915   0.0000000), wk =   0.1250000
        k(   10) = (  -0.2500000   0.2118458   0.0000000), wk =   0.2500000

     Dense  grid:  1421981 G-vectors     FFT dimensions: (  80,  96, 375)

     Smooth grid:   257505 G-vectors     FFT dimensions: (  45,  54, 216)

     Largest allocated arrays     est. size (Mb)     dimensions
        Kohn-Sham Wavefunctions        42.32 Mb     (   8086,  343)
        Atomic wavefunctions           23.32 Mb     (   8086,  189)
        NL pseudopotentials            51.08 Mb     (   8086,  414)
        Each V/rho on FFT grid         11.02 Mb     ( 721920)
        Each G-vector array             2.71 Mb     ( 355495)
        G-vector shells                 1.17 Mb     ( 153576)
     Largest temporary arrays     est. size (Mb)     dimensions
        Auxiliary wavefunctions       169.28 Mb     (   8086, 1372)
        Each subspace H/S matrix       28.72 Mb     (1372,1372)
        Each <psi_i|beta_j> matrix      2.17 Mb     (    414,  343)
        Arrays for rho mixing          88.13 Mb     ( 721920,   8)

     Check: negative/imaginary core charge=   -0.000003    0.000000

     Initial potential from superposition of free atoms
     Check: negative starting charge=   -0.003307

     starting charge  228.97806, renormalised to  229.00000

     negative rho (up, down):  0.331E-02 0.000E+00
     Number of +U iterations with fixed ns =  0
     Starting occupations:
 --- enter write_ns ---
 LDA+U parameters:
U( 2)     =  2.50000000
alpha( 2) =  0.00000000
atom    3   Tr[ns(na)] =   3.00000
    eigenvalues: 
  0.300  0.300  0.300  0.300  0.300
    eigenvectors:
  1.000  0.000  0.000  0.000  0.000
  0.000  1.000  0.000  0.000  0.000
  0.000  0.000  1.000  0.000  0.000
  0.000  0.000  0.000  1.000  0.000
  0.000  0.000  0.000  0.000  1.000
    occupations:
  0.300  0.000  0.000  0.000  0.000
  0.000  0.300  0.000  0.000  0.000
  0.000  0.000  0.300  0.000  0.000
  0.000  0.000  0.000  0.300  0.000
  0.000  0.000  0.000  0.000  0.300
atom    4   Tr[ns(na)] =   3.00000
    eigenvalues: 
  0.300  0.300  0.300  0.300  0.300
    eigenvectors:
  1.000  0.000  0.000  0.000  0.000
  0.000  1.000  0.000  0.000  0.000
  0.000  0.000  1.000  0.000  0.000
  0.000  0.000  0.000  1.000  0.000
  0.000  0.000  0.000  0.000  1.000
    occupations:
  0.300  0.000  0.000  0.000  0.000
  0.000  0.300  0.000  0.000  0.000
  0.000  0.000  0.300  0.000  0.000
  0.000  0.000  0.000  0.300  0.000
  0.000  0.000  0.000  0.000  0.300
atom    9   Tr[ns(na)] =   3.00000
    eigenvalues: 
  0.300  0.300  0.300  0.300  0.300
    eigenvectors:
  1.000  0.000  0.000  0.000  0.000
  0.000  1.000  0.000  0.000  0.000
  0.000  0.000  1.000  0.000  0.000
  0.000  0.000  0.000  1.000  0.000
  0.000  0.000  0.000  0.000  1.000
    occupations:
  0.300  0.000  0.000  0.000  0.000
  0.000  0.300  0.000  0.000  0.000
  0.000  0.000  0.300  0.000  0.000
  0.000  0.000  0.000  0.300  0.000
  0.000  0.000  0.000  0.000  0.300
atom   10   Tr[ns(na)] =   3.00000
    eigenvalues: 
  0.300  0.300  0.300  0.300  0.300
    eigenvectors:
  1.000  0.000  0.000  0.000  0.000
  0.000  1.000  0.000  0.000  0.000
  0.000  0.000  1.000  0.000  0.000
  0.000  0.000  0.000  1.000  0.000
  0.000  0.000  0.000  0.000  1.000
    occupations:
  0.300  0.000  0.000  0.000  0.000
  0.000  0.300  0.000  0.000  0.000
  0.000  0.000  0.300  0.000  0.000
  0.000  0.000  0.000  0.300  0.000
  0.000  0.000  0.000  0.000  0.300
atom   16   Tr[ns(na)] =   3.00000
    eigenvalues: 
  0.300  0.300  0.300  0.300  0.300
    eigenvectors:
  1.000  0.000  0.000  0.000  0.000
  0.000  1.000  0.000  0.000  0.000
  0.000  0.000  1.000  0.000  0.000
  0.000  0.000  0.000  1.000  0.000
  0.000  0.000  0.000  0.000  1.000
    occupations:
  0.300  0.000  0.000  0.000  0.000
  0.000  0.300  0.000  0.000  0.000
  0.000  0.000  0.300  0.000  0.000
  0.000  0.000  0.000  0.300  0.000
  0.000  0.000  0.000  0.000  0.300
atom   17   Tr[ns(na)] =   3.00000
    eigenvalues: 
  0.300  0.300  0.300  0.300  0.300
    eigenvectors:
  1.000  0.000  0.000  0.000  0.000
  0.000  1.000  0.000  0.000  0.000
  0.000  0.000  1.000  0.000  0.000
  0.000  0.000  0.000  1.000  0.000
  0.000  0.000  0.000  0.000  1.000
    occupations:
  0.300  0.000  0.000  0.000  0.000
  0.000  0.300  0.000  0.000  0.000
  0.000  0.000  0.300  0.000  0.000
  0.000  0.000  0.000  0.300  0.000
  0.000  0.000  0.000  0.000  0.300
atom   22   Tr[ns(na)] =   3.00000
    eigenvalues: 
  0.300  0.300  0.300  0.300  0.300
    eigenvectors:
  1.000  0.000  0.000  0.000  0.000
  0.000  1.000  0.000  0.000  0.000
  0.000  0.000  1.000  0.000  0.000
  0.000  0.000  0.000  1.000  0.000
  0.000  0.000  0.000  0.000  1.000
    occupations:
  0.300  0.000  0.000  0.000  0.000
  0.000  0.300  0.000  0.000  0.000
  0.000  0.000  0.300  0.000  0.000
  0.000  0.000  0.000  0.300  0.000
  0.000  0.000  0.000  0.000  0.300
atom   23   Tr[ns(na)] =   3.00000
    eigenvalues: 
  0.300  0.300  0.300  0.300  0.300
    eigenvectors:
  1.000  0.000  0.000  0.000  0.000
  0.000  1.000  0.000  0.000  0.000
  0.000  0.000  1.000  0.000  0.000
  0.000  0.000  0.000  1.000  0.000
  0.000  0.000  0.000  0.000  1.000
    occupations:
  0.300  0.000  0.000  0.000  0.000
  0.000  0.300  0.000  0.000  0.000
  0.000  0.000  0.300  0.000  0.000
  0.000  0.000  0.000  0.300  0.000
  0.000  0.000  0.000  0.000  0.300
N of occupied +U levels =  24.0000000
 --- exit write_ns ---
 Atomic wfc used for LDA+U Projector are NOT orthogonalized
     Starting wfc are  189 randomized atomic wfcs

     total cpu time spent up to now is      110.6 secs

     per-process dynamical memory:   427.1 Mb

     Self-consistent Calculation

     iteration #  1     ecut=    40.00 Ry     beta=0.70
     Davidson diagonalization with overlap
     ethr =  1.00E-02,  avg # of iterations =  6.0
 --- enter write_ns ---
 LDA+U parameters:
U( 2)     =  2.50000000
alpha( 2) =  0.00000000
atom    3   Tr[ns(na)] =   3.76752
    eigenvalues: 
  0.244  0.256  0.413  0.448  0.524
    eigenvectors:
  0.000  0.000  0.002  0.622  0.377
  0.000  0.000  0.998  0.002  0.000
  0.716  0.284  0.000  0.000  0.000
  0.000  0.000  0.000  0.377  0.623
  0.284  0.715  0.000  0.000  0.000
    occupations:
  0.476 -0.002  0.001 -0.037  0.003
 -0.002  0.413  0.000  0.000 -0.001
  0.001  0.000  0.247 -0.001 -0.005
 -0.037  0.000 -0.001  0.495 -0.000
  0.003 -0.001 -0.005 -0.000  0.252
atom    4   Tr[ns(na)] =   3.90631
    eigenvalues: 
  0.234  0.300  0.427  0.451  0.541
    eigenvectors:
  0.000  0.001  0.000  0.967  0.033
  0.000  0.999  0.000  0.000  0.000
  1.000  0.000  0.000  0.000  0.000
  0.000  0.000  0.000  0.033  0.967
  0.000  0.000  1.000  0.000  0.000
    occupations:
  0.454  0.004  0.000 -0.016 -0.000
  0.004  0.300 -0.000 -0.002  0.000
  0.000 -0.000  0.234 -0.000  0.001
 -0.016 -0.002 -0.000  0.538  0.000
 -0.000  0.000  0.001  0.000  0.427
atom    9   Tr[ns(na)] =   3.59119
    eigenvalues: 
  0.251  0.283  0.291  0.485  0.486
    eigenvectors:
  0.000  0.881  0.000  0.050  0.068
  0.000  0.000  0.000  0.580  0.420
  0.999  0.001  0.000  0.000  0.000
  0.000  0.118  0.000  0.370  0.512
  0.000  0.000  1.000  0.000  0.000
    occupations:
  0.307 -0.000 -0.000  0.066  0.000
 -0.000  0.486  0.000 -0.001  0.000
 -0.000  0.000  0.251  0.001 -0.000
  0.066 -0.001  0.001  0.462 -0.000
  0.000  0.000 -0.000 -0.000  0.291
atom   10   Tr[ns(na)] =   3.56091
    eigenvalues: 
  0.217  0.234  0.368  0.421  0.540
    eigenvectors:
  0.000  0.000  0.996  0.000  0.004
  0.000  1.000  0.000  0.000  0.000
  1.000  0.000  0.000  0.000  0.000
  0.000  0.000  0.004  0.000  0.996
  0.000  0.000  0.000  1.000  0.000
    occupations:
  0.369  0.000 -0.001 -0.010 -0.000
  0.000  0.234 -0.000  0.000  0.001
 -0.001 -0.000  0.217  0.004 -0.000
 -0.010  0.000  0.004  0.540  0.000
 -0.000  0.001 -0.000  0.000  0.421
atom   16   Tr[ns(na)] =   3.76788
    eigenvalues: 
  0.246  0.254  0.413  0.448  0.524
    eigenvectors:
  0.000  0.000  0.002  0.622  0.376
  0.000  0.000  0.998  0.002  0.000
  0.797  0.203  0.000  0.000  0.000
  0.000  0.000  0.000  0.376  0.623
  0.203  0.797  0.000  0.000  0.000
    occupations:
  0.476  0.002  0.001 -0.037 -0.003
  0.002  0.413 -0.000 -0.000 -0.001
  0.001 -0.000  0.247 -0.001  0.003
 -0.037 -0.000 -0.001  0.495  0.000
 -0.003 -0.001  0.003  0.000  0.252
atom   17   Tr[ns(na)] =   3.91423
    eigenvalues: 
  0.234  0.301  0.427  0.453  0.541
    eigenvectors:
  0.000  0.001  0.000  0.966  0.033
  0.000  0.999  0.000  0.000  0.000
  1.000  0.000  0.000  0.000  0.000
  0.000  0.000  0.000  0.033  0.967
  0.000  0.000  1.000  0.000  0.000
    occupations:
  0.456  0.004 -0.000 -0.016  0.000
  0.004  0.301 -0.000 -0.002  0.000
 -0.000 -0.000  0.234  0.000  0.001
 -0.016 -0.002  0.000  0.538  0.000
  0.000  0.000  0.001  0.000  0.427
atom   22   Tr[ns(na)] =   3.59116
    eigenvalues: 
  0.251  0.283  0.291  0.485  0.486
    eigenvectors:
  0.000  0.881  0.000  0.050  0.068
  0.000  0.000  0.000  0.576  0.424
  0.999  0.001  0.000  0.000  0.000
  0.000  0.118  0.000  0.374  0.508
  0.000  0.000  1.000  0.000  0.000
    occupations:
  0.307  0.000 -0.000  0.066 -0.000
  0.000  0.486 -0.000  0.001  0.000
 -0.000 -0.000  0.251  0.001  0.000
  0.066  0.001  0.001  0.462  0.000
 -0.000  0.000  0.000  0.000  0.291
atom   23   Tr[ns(na)] =   4.36123
    eigenvalues: 
  0.278  0.422  0.427  0.504  0.549
    eigenvectors:
  0.000  0.424  0.000  0.381  0.195
  1.000  0.000  0.000  0.000  0.000
  0.000  0.576  0.000  0.291  0.133
  0.000  0.000  0.000  0.328  0.672
  0.000  0.000  1.000  0.000  0.000
    occupations:
  0.478 -0.000 -0.048 -0.017  0.000
 -0.000  0.279  0.000 -0.000 -0.002
 -0.048  0.000  0.463  0.013  0.000
 -0.017 -0.000  0.013  0.534 -0.000
  0.000 -0.002  0.000 -0.000  0.427
N of occupied +U levels =  30.4604366
 --- exit write_ns ---

     negative rho (up, down):  0.304E-02 0.000E+00

     total cpu time spent up to now is      464.2 secs

     total energy              =   -1584.28127205 Ry
     Harris-Foulkes estimate   =   -1597.62300257 Ry
     estimated scf accuracy    <      16.94202067 Ry

     iteration #  2     ecut=    40.00 Ry     beta=0.70
     Davidson diagonalization with overlap
     ethr =  7.40E-03,  avg # of iterations =  3.2

     negative rho (up, down):  0.147E-01 0.000E+00

     total cpu time spent up to now is      679.6 secs

     total energy              =   -1549.77032157 Ry
     Harris-Foulkes estimate   =   -1622.76096821 Ry
     estimated scf accuracy    <     463.56339379 Ry

     iteration #  3     ecut=    40.00 Ry     beta=0.70
     Davidson diagonalization with overlap
     ethr =  7.40E-03,  avg # of iterations =  4.2

     negative rho (up, down):  0.961E-02 0.000E+00

     total cpu time spent up to now is      951.8 secs

     total energy              =   -1544.33295115 Ry
     Harris-Foulkes estimate   =   -1639.91125817 Ry
     estimated scf accuracy    <    1590.77023595 Ry

     iteration #  4     ecut=    40.00 Ry     beta=0.70
     Davidson diagonalization with overlap
     ethr =  7.40E-03,  avg # of iterations =  4.0

     negative rho (up, down):  0.210E-02 0.000E+00

     total cpu time spent up to now is     1197.6 secs

     total energy              =   -1592.67631999 Ry
     Harris-Foulkes estimate   =   -1595.48292572 Ry
     estimated scf accuracy    <      12.08602956 Ry

     iteration #  5     ecut=    40.00 Ry     beta=0.70
     Davidson diagonalization with overlap
     ethr =  5.28E-03,  avg # of iterations =  3.0

     negative rho (up, down):  0.185E-02 0.000E+00

     total cpu time spent up to now is     1383.3 secs

     total energy              =   -1594.00746692 Ry
     Harris-Foulkes estimate   =   -1594.34429410 Ry
     estimated scf accuracy    <       1.55865212 Ry

     iteration #  6     ecut=    40.00 Ry     beta=0.70
     Davidson diagonalization with overlap
     ethr =  6.81E-04,  avg # of iterations =  3.4

     negative rho (up, down):  0.180E-02 0.000E+00

     total cpu time spent up to now is     1572.3 secs

     total energy              =   -1594.01536289 Ry
     Harris-Foulkes estimate   =   -1594.15124161 Ry
     estimated scf accuracy    <       0.97329781 Ry

     iteration #  7     ecut=    40.00 Ry     beta=0.70
     Davidson diagonalization with overlap
     ethr =  4.25E-04,  avg # of iterations =  1.0

     negative rho (up, down):  0.168E-02 0.000E+00

     total cpu time spent up to now is     1747.6 secs

     total energy              =   -1593.97609804 Ry
     Harris-Foulkes estimate   =   -1594.06746037 Ry
     estimated scf accuracy    <       0.79563843 Ry

     iteration #  8     ecut=    40.00 Ry     beta=0.70
     Davidson diagonalization with overlap
     ethr =  3.47E-04,  avg # of iterations =  4.8

     negative rho (up, down):  0.168E-02 0.000E+00

     total cpu time spent up to now is     1948.1 secs

     total energy              =   -1593.91279067 Ry
     Harris-Foulkes estimate   =   -1594.05732291 Ry
     estimated scf accuracy    <       0.70423642 Ry

     iteration #  9     ecut=    40.00 Ry     beta=0.70
     Davidson diagonalization with overlap
     ethr =  3.08E-04,  avg # of iterations =  5.2

     negative rho (up, down):  0.199E-02 0.000E+00

     total cpu time spent up to now is     2152.3 secs

     total energy              =   -1593.92411456 Ry
     Harris-Foulkes estimate   =   -1593.96421357 Ry
     estimated scf accuracy    <       0.16018600 Ry

     iteration # 10     ecut=    40.00 Ry     beta=0.70
     Davidson diagonalization with overlap
     ethr =  7.00E-05,  avg # of iterations =  5.9

     negative rho (up, down):  0.557E-02 0.000E+00

     total cpu time spent up to now is     2361.8 secs

     total energy              =   -1593.92704483 Ry
     Harris-Foulkes estimate   =   -1593.95053758 Ry
     estimated scf accuracy    <       0.20688978 Ry

     iteration # 11     ecut=    40.00 Ry     beta=0.70
     Davidson diagonalization with overlap
     ethr =  7.00E-05,  avg # of iterations =  5.0

     negative rho (up, down):  0.426E-02 0.000E+00

     total cpu time spent up to now is     2558.5 secs

     total energy              =   -1593.93405025 Ry
     Harris-Foulkes estimate   =   -1593.93872083 Ry
     estimated scf accuracy    <       0.03294309 Ry

     iteration # 12     ecut=    40.00 Ry     beta=0.70
     Davidson diagonalization with overlap
     ethr =  1.44E-05,  avg # of iterations =  7.1

     negative rho (up, down):  0.422E-02 0.000E+00

     total cpu time spent up to now is     2767.0 secs

     total energy              =   -1593.92844087 Ry
     Harris-Foulkes estimate   =   -1593.93586427 Ry
     estimated scf accuracy    <       0.03338809 Ry

     iteration # 13     ecut=    40.00 Ry     beta=0.70
     Davidson diagonalization with overlap
     ethr =  1.44E-05,  avg # of iterations =  5.5

     negative rho (up, down):  0.330E-02 0.000E+00

     total cpu time spent up to now is     2983.2 secs

     total energy              =   -1593.93183490 Ry
     Harris-Foulkes estimate   =   -1593.93705133 Ry
     estimated scf accuracy    <       0.05761850 Ry

     iteration # 14     ecut=    40.00 Ry     beta=0.70
     Davidson diagonalization with overlap
     ethr =  1.44E-05,  avg # of iterations =  4.0

     negative rho (up, down):  0.314E-02 0.000E+00

     total cpu time spent up to now is     3188.2 secs

     total energy              =   -1593.93345482 Ry
     Harris-Foulkes estimate   =   -1593.93461750 Ry
     estimated scf accuracy    <       0.00563490 Ry

     iteration # 15     ecut=    40.00 Ry     beta=0.70
     Davidson diagonalization with overlap
     ethr =  2.46E-06,  avg # of iterations =  5.6

     negative rho (up, down):  0.304E-02 0.000E+00

     total cpu time spent up to now is     3407.2 secs

     total energy              =   -1593.93388259 Ry
     Harris-Foulkes estimate   =   -1593.93446518 Ry
     estimated scf accuracy    <       0.00698848 Ry

     iteration # 16     ecut=    40.00 Ry     beta=0.70
     Davidson diagonalization with overlap
     ethr =  2.46E-06,  avg # of iterations =  1.0

     negative rho (up, down):  0.319E-02 0.000E+00

     total cpu time spent up to now is     3589.2 secs

     total energy              =   -1593.93403582 Ry
     Harris-Foulkes estimate   =   -1593.93424722 Ry
     estimated scf accuracy    <       0.00127694 Ry

     iteration # 17     ecut=    40.00 Ry     beta=0.70
     Davidson diagonalization with overlap
     ethr =  5.58E-07,  avg # of iterations =  2.5

     negative rho (up, down):  0.337E-02 0.000E+00

     total cpu time spent up to now is     3780.8 secs

     total energy              =   -1593.93409543 Ry
     Harris-Foulkes estimate   =   -1593.93423356 Ry
     estimated scf accuracy    <       0.00084392 Ry

     iteration # 18     ecut=    40.00 Ry     beta=0.70
     Davidson diagonalization with overlap
     ethr =  3.69E-07,  avg # of iterations =  1.0

     negative rho (up, down):  0.338E-02 0.000E+00

     total cpu time spent up to now is     3960.8 secs

     total energy              =   -1593.93415263 Ry
     Harris-Foulkes estimate   =   -1593.93418719 Ry
     estimated scf accuracy    <       0.00018647 Ry

     iteration # 19     ecut=    40.00 Ry     beta=0.70
     Davidson diagonalization with overlap
     ethr =  8.14E-08,  avg # of iterations =  1.0

     negative rho (up, down):  0.340E-02 0.000E+00

     total cpu time spent up to now is     4140.7 secs

     total energy              =   -1593.93416294 Ry
     Harris-Foulkes estimate   =   -1593.93418403 Ry
     estimated scf accuracy    <       0.00018975 Ry

     iteration # 20     ecut=    40.00 Ry     beta=0.70
     Davidson diagonalization with overlap
     ethr =  8.14E-08,  avg # of iterations =  1.0

     negative rho (up, down):  0.337E-02 0.000E+00

     total cpu time spent up to now is     4322.9 secs

     total energy              =   -1593.93417256 Ry
     Harris-Foulkes estimate   =   -1593.93417695 Ry
     estimated scf accuracy    <       0.00001778 Ry

     iteration # 21     ecut=    40.00 Ry     beta=0.70
     Davidson diagonalization with overlap
     ethr =  7.76E-09,  avg # of iterations =  1.0

     negative rho (up, down):  0.336E-02 0.000E+00

     total cpu time spent up to now is     4505.2 secs

     total energy              =   -1593.93417459 Ry
     Harris-Foulkes estimate   =   -1593.93417566 Ry
     estimated scf accuracy    <       0.00000528 Ry

     iteration # 22     ecut=    40.00 Ry     beta=0.70
     Davidson diagonalization with overlap
     ethr =  2.31E-09,  avg # of iterations =  1.0

     negative rho (up, down):  0.335E-02 0.000E+00

     total cpu time spent up to now is     4687.5 secs

     total energy              =   -1593.93417503 Ry
     Harris-Foulkes estimate   =   -1593.93417558 Ry
     estimated scf accuracy    <       0.00000304 Ry

     iteration # 23     ecut=    40.00 Ry     beta=0.70
     Davidson diagonalization with overlap
     ethr =  1.33E-09,  avg # of iterations =  1.0

     negative rho (up, down):  0.334E-02 0.000E+00

     total cpu time spent up to now is     4870.4 secs

     End of self-consistent calculation
 --- enter write_ns ---
 LDA+U parameters:
U( 2)     =  2.50000000
alpha( 2) =  0.00000000
atom    3   Tr[ns(na)] =   5.22700
    eigenvalues: 
  0.390  0.423  0.524  0.576  0.701
    eigenvectors:
  0.000  0.001  0.003  0.420  0.576
  0.000  0.000  0.995  0.005  0.000
  0.071  0.928  0.000  0.000  0.000
  0.000  0.000  0.002  0.574  0.423
  0.929  0.071  0.000  0.000  0.000
    occupations:
  0.648 -0.004  0.005 -0.062 -0.005
 -0.004  0.524 -0.001 -0.002  0.000
  0.005 -0.001  0.420 -0.003 -0.008
 -0.062 -0.002 -0.003  0.629  0.004
 -0.005  0.000 -0.008  0.004  0.393
atom    4   Tr[ns(na)] =   5.23811
    eigenvalues: 
  0.407  0.442  0.551  0.583  0.635
    eigenvectors:
  0.000  0.005  0.000  0.994  0.001
  0.000  0.995  0.000  0.005  0.001
  1.000  0.000  0.000  0.000  0.000
  0.000  0.001  0.000  0.001  0.998
  0.000  0.000  1.000  0.000  0.000
    occupations:
  0.583  0.009 -0.000  0.002 -0.000
  0.009  0.443 -0.000 -0.006 -0.000
 -0.000 -0.000  0.407 -0.000  0.001
  0.002 -0.006 -0.000  0.635  0.000
 -0.000 -0.000  0.001  0.000  0.551
atom    9   Tr[ns(na)] =   5.28786
    eigenvalues: 
  0.455  0.466  0.505  0.606  0.612
    eigenvectors:
  0.882  0.000  0.000  0.115  0.003
  0.000  0.000  0.000  0.024  0.976
  0.000  0.096  0.904  0.000  0.000
  0.118  0.000  0.000  0.861  0.021
  0.000  0.903  0.096  0.000  0.000
    occupations:
  0.473 -0.000  0.000  0.049  0.000
 -0.000  0.612  0.000 -0.001 -0.000
  0.000  0.000  0.501 -0.000  0.012
  0.049 -0.001 -0.000  0.589 -0.001
  0.000 -0.000  0.012 -0.001  0.469
atom   10   Tr[ns(na)] =   5.11121
    eigenvalues: 
  0.380  0.491  0.507  0.546  0.631
    eigenvectors:
  0.000  0.000  0.992  0.000  0.008
  0.000  1.000  0.000  0.000  0.000
  1.000  0.000  0.000  0.000  0.000
  0.000  0.000  0.008  0.000  0.992
  0.000  0.000  0.000  1.000  0.000
    occupations:
  0.508 -0.000  0.000  0.011 -0.000
 -0.000  0.491 -0.000 -0.000  0.001
  0.000 -0.000  0.380 -0.001  0.000
  0.011 -0.000 -0.001  0.630  0.000
 -0.000  0.001  0.000  0.000  0.546
atom   16   Tr[ns(na)] =   5.22766
    eigenvalues: 
  0.393  0.421  0.524  0.576  0.700
    eigenvectors:
  0.000  0.000  0.003  0.420  0.576
  0.000  0.000  0.994  0.006  0.000
  0.001  0.999  0.000  0.000  0.000
  0.000  0.000  0.003  0.574  0.423
  0.999  0.001  0.000  0.000  0.000
    occupations:
  0.647  0.004  0.005 -0.061  0.005
  0.004  0.524  0.001  0.002  0.000
  0.005  0.001  0.421 -0.003  0.001
 -0.061  0.002 -0.003  0.628 -0.004
  0.005  0.000  0.001 -0.004  0.393
atom   17   Tr[ns(na)] =   5.24140
    eigenvalues: 
  0.412  0.442  0.550  0.584  0.633
    eigenvectors:
  0.000  0.004  0.000  0.995  0.000
  0.000  0.995  0.000  0.004  0.001
  1.000  0.000  0.000  0.000  0.000
  0.000  0.001  0.000  0.000  0.999
  0.000  0.000  1.000  0.000  0.000
    occupations:
  0.583  0.009 -0.000  0.001 -0.000
  0.009  0.443 -0.000 -0.006  0.000
 -0.000 -0.000  0.412  0.003  0.001
  0.001 -0.006  0.003  0.633  0.000
 -0.000  0.000  0.001  0.000  0.550
atom   22   Tr[ns(na)] =   5.28780
    eigenvalues: 
  0.455  0.466  0.505  0.606  0.612
    eigenvectors:
  0.882  0.000  0.000  0.115  0.002
  0.000  0.000  0.000  0.020  0.980
  0.000  0.098  0.902  0.000  0.000
  0.118  0.000  0.000  0.865  0.017
  0.000  0.902  0.098  0.000  0.000
    occupations:
  0.473  0.000 -0.000  0.049 -0.000
  0.000  0.612 -0.000  0.001 -0.000
 -0.000 -0.000  0.501 -0.000 -0.012
  0.049  0.001 -0.000  0.589  0.001
 -0.000 -0.000 -0.012  0.001  0.469
atom   23   Tr[ns(na)] =   5.24426
    eigenvalues: 
  0.387  0.485  0.550  0.585  0.615
    eigenvectors:
  0.002  0.000  0.000  0.988  0.010
  0.000  0.996  0.004  0.000  0.000
  0.997  0.000  0.000  0.002  0.001
  0.001  0.000  0.000  0.010  0.989
  0.000  0.004  0.996  0.000  0.000
    occupations:
  0.585  0.000  0.009  0.003 -0.000
  0.000  0.485 -0.000 -0.000 -0.004
  0.009 -0.000  0.388  0.006  0.000
  0.003 -0.000  0.006  0.615 -0.000
 -0.000 -0.004  0.000 -0.000  0.550
N of occupied +U levels =  41.8652996
 --- exit write_ns ---

          k = 0.0000 0.0000 0.0000 ( 32167 PWs)   bands (ev):

   -56.0100 -55.9156 -55.6771 -55.6105 -55.5911 -55.5639 -55.5053 -55.4810
   -32.9494 -32.2225 -32.1941 -32.1595 -32.1282 -32.0728 -32.0407 -32.0128
   -32.0065 -31.9770 -31.9543 -31.9002 -31.8935 -31.8768 -31.8345 -31.6587
   -31.6255 -31.5510 -31.5041 -31.4520 -31.3598 -31.3411 -31.2324 -31.1993
   -22.3788 -20.2816 -19.9576 -19.2541 -19.0027 -18.9584 -18.8995 -18.7554
   -18.6345 -18.5934 -18.3816 -18.3359 -18.0617 -18.0257 -17.9068 -17.6547
   -17.6177 -17.4920 -17.3169 -16.2356  -8.8216  -8.2735  -7.8017  -7.5717
    -7.3086  -7.2756  -6.7276  -6.3921  -6.3261  -6.0772  -5.9950  -5.9813
    -5.9141  -5.8908  -5.8667  -5.7653  -5.6205  -5.4868  -5.4718  -5.3212
    -5.1139  -5.0139  -4.9867  -4.9655  -4.9356  -4.9077  -4.8675  -4.7989
    -4.7652  -4.5101  -4.2348  -4.0769  -3.9546  -3.9057  -3.6903  -3.5949
    -3.5516  -3.4952  -3.4866  -3.2984  -3.2705  -3.2325  -3.1348  -3.0897
    -2.9824  -2.8896  -2.8380  -2.8302  -2.6952  -2.6843  -2.6652  -2.5912
    -2.5730  -2.4810  -2.3982  -2.3692  -2.1328  -1.8049  -0.9021  -0.5165
    -0.2906  -0.2165   1.4020   1.7238   1.7608   1.8011   1.8765   1.8951
     1.9066   1.9923   2.1844   2.2190   2.5232   2.5979   2.6228   2.7438
     2.8228   3.0944   3.1063   3.1624   3.5478   3.6564   3.6674   3.7114
     3.7754   3.9432   4.1288   4.3941   4.5626   4.6141   5.0335   5.1261
     5.2424   5.3953   5.5585   5.7637   5.9595   6.0000   6.2737   6.2739
     6.2867   6.3555   6.4080   6.4517   6.4780   6.5001   6.7987   6.8867
     6.9987   7.0141   7.0764   7.2589   7.3742   7.4059   7.4623   7.5182
     7.6324   7.7809   8.0384   8.1192   8.1466   8.1945   8.3044   8.3075
     8.4367   8.6602   8.8417   8.8555   8.9551   9.0094   9.0384   9.1123
     9.1419   9.3474   9.4515   9.5363   9.5990   9.6806   9.8252  10.0133
    10.0409  10.1362  10.1672  10.2808  10.3190  10.3360  10.3736  10.4928
    10.6688  10.7461  10.8204  10.8349  10.9697  11.0997  11.1596  11.2465
    11.2664  11.3034  11.4040  11.4210  11.4938  11.5605  11.6109  11.6304
    11.6858  11.7926  11.8358  11.9076  11.9901  12.0911  12.1995  12.2696
    12.3640  12.3930  12.4261  12.4566  12.5861  12.6094  12.6527  12.7432
    12.8308  13.0079  13.0788  13.1273  13.2264  13.3058  13.3343  13.4962
    13.5802  13.6222  13.8075  13.8398  13.8979  14.0029  14.0751  14.1184
    14.2255  14.2746  14.3559  14.4328  14.6096  14.6721  14.7508  14.8206
    14.9105  14.9945  15.1757  15.2207  15.3037  15.3188  15.4455  15.4812
    15.6109  15.6767  15.7766  15.8270  15.9032  15.9702  15.9919  15.9975
    16.1663  16.1979  16.2157  16.2580  16.3358  16.3479  16.4496  16.5205
    16.6631  16.6976  16.7431  16.8569  16.9130  16.9470  17.0473  17.2966
    17.3407  17.3820  17.4314  17.5020  17.6081  17.6535  17.6688  17.7314
    17.8494  17.9249  18.0082  18.1806  18.2141  18.3578  18.4342  18.5233
    18.6352  18.6962  18.7254  18.7440  18.8007  18.8870  19.0231  19.0903
    19.1335  19.1845  19.2730  19.2821  19.3192  19.3591  19.4266  19.4715
    19.5038  19.5814  19.6508  19.7311  19.8602  19.9453  19.9620  20.0644
    20.1293  20.1657  20.2083  20.3282  20.3546  20.3656  20.4081  20.4921
    20.5200  20.5372  20.5577  20.5719  20.5759  20.7060  20.7337

          k = 0.0000 0.2118 0.0000 ( 32193 PWs)   bands (ev):

   -56.0084 -55.9160 -55.6758 -55.6092 -55.5901 -55.5621 -55.5049 -55.4815
   -32.9488 -32.2218 -32.2052 -32.1599 -32.1128 -32.1119 -32.0400 -31.9834
   -31.9764 -31.9705 -31.9543 -31.9002 -31.8935 -31.8623 -31.8346 -31.6877
   -31.6448 -31.5509 -31.5042 -31.4521 -31.3596 -31.3408 -31.2325 -31.1997
   -22.3786 -20.2793 -19.9563 -19.2354 -18.8986 -18.8825 -18.8006 -18.7330
   -18.6757 -18.6500 -18.6174 -18.5929 -17.9192 -17.8381 -17.8197 -17.7103
   -17.6957 -17.4895 -17.3159 -16.2352  -8.8204  -8.2709  -7.7957  -7.5717
    -6.9520  -6.9018  -6.6767  -6.5539  -6.4098  -6.3399  -6.2808  -6.1978
    -6.0557  -5.9240  -5.8721  -5.8139  -5.7346  -5.6935  -5.3052  -5.1685
    -5.0475  -4.9393  -4.9312  -4.8856  -4.8597  -4.7707  -4.6968  -4.5541
    -4.5123  -4.3984  -4.3153  -4.1292  -4.0794  -4.0354  -3.8847  -3.7088
    -3.5273  -3.5089  -3.4639  -3.2548  -3.2406  -3.2047  -3.1788  -3.1114
    -3.0028  -2.9499  -2.9287  -2.9154  -2.8699  -2.8428  -2.7100  -2.6285
    -2.5935  -2.4945  -2.4310  -2.3753  -2.1534  -1.8942  -0.9583  -0.4842
     0.1218   0.1926   1.0584   1.2511   1.2879   1.8122   1.8901   2.0433
     2.1215   2.4194   2.4655   2.5129   2.6335   2.7288   2.8193   2.8273
     2.9314   2.9896   3.0548   3.1556   3.4142   3.6581   3.6806   3.7279
     3.8184   4.0114   4.1657   4.3747   4.5549   4.7873   5.0254   5.1775
     5.2198   5.3448   5.3907   5.5642   5.6072   5.6582   5.7662   5.7823
     5.9387   6.0480   6.0626   6.3309   6.4700   6.5022   6.8885   7.0759
     7.1474   7.3082   7.3818   7.4225   7.4309   7.5685   7.5933   7.7130
     7.7404   7.9245   8.1513   8.2788   8.3010   8.3125   8.3635   8.4788
     8.6650   8.7223   8.8101   8.9037   8.9987   9.0192   9.1945   9.2633
     9.3987   9.4480   9.6055   9.6344   9.6586   9.7729   9.8169   9.8883
     9.9107   9.9665  10.0187  10.0603  10.2022  10.2599  10.3478  10.4154
    10.4987  10.5604  10.6312  10.8166  10.8400  10.9453  11.0571  11.0945
    11.2068  11.3556  11.3859  11.4035  11.4950  11.5523  11.6074  11.6635
    11.8042  11.9293  11.9729  12.1711  12.3448  12.3762  12.4571  12.5472
    12.5856  12.7016  12.7681  12.8098  12.8458  12.8483  12.9658  12.9726
    13.1238  13.1699  13.1795  13.2045  13.3203  13.3274  13.3754  13.4453
    13.5403  13.5998  13.6835  13.7937  13.8166  13.8656  13.9256  13.9562
    14.0760  14.1006  14.2136  14.3212  14.3960  14.5321  14.5746  14.7182
    14.7270  14.7915  14.8512  14.8807  15.0308  15.1101  15.1819  15.2650
    15.3165  15.3318  15.4532  15.5232  15.5601  15.6618  15.7186  15.8543
    16.0308  16.1739  16.2991  16.3414  16.4415  16.4517  16.4968  16.5505
    16.6241  16.7354  16.7609  16.8224  16.9607  17.0733  17.1121  17.1659
    17.3464  17.3850  17.4439  17.5372  17.5497  17.6152  17.6885  17.7850
    17.8053  17.9016  17.9297  18.0186  18.0453  18.0853  18.2409  18.2673
    18.3256  18.3991  18.4418  18.4830  18.6338  18.6774  18.7818  18.8398
    18.8647  18.8982  18.9634  18.9985  19.0426  19.1746  19.2136  19.3007
    19.3524  19.4338  19.4433  19.4854  19.5508  19.6033  19.6797  19.7862
    19.8573  19.9710  19.9948  20.0624  20.1337  20.2628  20.2803  20.3637
    20.3998  20.4545  20.5175  20.5472  20.6152  20.6960  20.7037

          k = 0.0000-0.4237 0.0000 ( 32162 PWs)   bands (ev):

   -56.0068 -55.9164 -55.6745 -55.6079 -55.5892 -55.5603 -55.5044 -55.4819
   -32.9482 -32.2210 -32.2154 -32.1601 -32.1350 -32.0964 -32.0395 -31.9767
   -31.9545 -31.9530 -31.9440 -31.9002 -31.8934 -31.8487 -31.8347 -31.7227
   -31.6655 -31.5507 -31.5043 -31.4521 -31.3595 -31.3406 -31.2325 -31.2001
   -22.3784 -20.2770 -19.9550 -19.2245 -18.8976 -18.8387 -18.8143 -18.7973
   -18.6870 -18.5940 -18.4946 -18.4513 -18.1857 -18.1691 -17.8945 -17.5078
   -17.4958 -17.4878 -17.3149 -16.2348  -8.8191  -8.2681  -7.7896  -7.5715
    -6.7831  -6.7732  -6.5109  -6.5013  -6.4874  -6.3557  -6.3066  -6.2339
    -6.1032  -5.9220  -5.8726  -5.8160  -5.8045  -5.4044  -5.2965  -5.2459
    -5.2308  -5.1980  -5.1695  -4.9297  -4.8071  -4.7906  -4.7738  -4.5525
    -4.4049  -4.3829  -4.3393  -4.0922  -4.0162  -3.7589  -3.7389  -3.7256
    -3.5553  -3.5025  -3.4729  -3.4418  -3.3599  -3.1752  -3.1399  -3.1179
    -3.1173  -3.0963  -3.0491  -3.0315  -2.8700  -2.7867  -2.7376  -2.6903
    -2.5141  -2.4444  -2.4200  -2.2666  -2.1367  -2.0764  -1.0292  -0.4730
     0.4342   0.5094   0.8260   0.8299   1.1508   1.8200   1.9052   2.1589
     2.4161   2.5754   2.5931   2.6126   2.6453   2.8502   2.9408   2.9898
     3.0314   3.0398   3.1576   3.1682   3.3595   3.6430   3.6434   3.7030
     3.8311   4.0127   4.0931   4.4683   4.6896   4.7202   4.8290   4.9440
     5.0637   5.1621   5.2236   5.5973   5.6312   5.6767   5.7043   5.7211
     5.7325   5.7897   6.0178   6.0795   6.2920   6.6513   6.7287   7.0050
     7.1320   7.3301   7.3883   7.4142   7.4163   7.5045   7.7090   7.7807
     7.8975   8.1721   8.1862   8.2224   8.4087   8.4727   8.5901   8.6137
     8.9208   8.9476   8.9507   8.9661   9.0600   9.1101   9.1896   9.3263
     9.3996   9.4095   9.4521   9.6062   9.6539   9.6723   9.7242   9.8589
     9.9037  10.0439  10.1128  10.2484  10.2960  10.3668  10.4112  10.5605
    10.7094  10.7545  10.8190  10.9084  11.0357  11.0586  11.1441  11.1749
    11.2939  11.3231  11.4620  11.5629  11.5899  11.6206  11.6686  11.7238
    11.7723  11.8359  11.9196  12.0272  12.0430  12.0997  12.1546  12.2816
    12.3280  12.3547  12.4823  12.5163  12.6681  12.7546  12.8120  12.9551
    12.9714  13.1043  13.1386  13.1839  13.2795  13.2995  13.3880  13.5138
    13.7627  13.8206  13.8834  13.9260  13.9988  14.1308  14.2448  14.2823
    14.3353  14.4570  14.5276  14.5472  14.6768  14.7676  14.8815  14.9062
    15.0067  15.0282  15.0374  15.0487  15.1046  15.1160  15.2742  15.2966
    15.3127  15.4107  15.4290  15.5006  15.5530  15.5870  15.6242  15.6962
    15.7193  15.8572  15.8609  15.9129  15.9399  16.0013  16.1096  16.2124
    16.3521  16.5077  16.5151  16.5853  16.6106  16.7209  16.7763  16.8211
    16.9142  17.1351  17.1625  17.2028  17.2516  17.2651  17.3191  17.3531
    17.3974  17.4416  17.5520  17.7361  17.9492  18.0944  18.0987  18.1650
    18.2272  18.2980  18.3417  18.4198  18.4733  18.5377  18.5744  18.5989
    18.7273  18.7667  18.8041  18.8110  18.8596  18.8905  19.0517  19.1476
    19.2257  19.3342  19.4468  19.4529  19.5078  19.5919  19.6322  19.6485
    19.7882  19.8676  19.9591  20.0543  20.0929  20.1510  20.2545  20.3213
    20.5528  20.5939  20.6746  20.7572  20.7775  20.8481  20.8726

          k = 0.2500 0.0000 0.0000 ( 32181 PWs)   bands (ev):

   -55.9954 -55.9288 -55.6612 -55.5984 -55.5968 -55.5437 -55.5101 -55.4853
   -32.8111 -32.2008 -32.1426 -32.1108 -32.0817 -32.0653 -32.0292 -31.9886
   -31.9860 -31.9615 -31.9593 -31.9433 -31.9028 -31.8939 -31.8348 -31.6393
   -31.6027 -31.5288 -31.5232 -31.4789 -31.4786 -31.4044 -31.3645 -31.3250
   -22.3785 -20.2328 -19.9405 -19.1651 -18.8868 -18.8816 -18.8179 -18.6542
   -18.5431 -18.4974 -18.2737 -18.2307 -18.1977 -18.1596 -17.9214 -17.7595
   -17.7224 -17.6788 -17.5234 -16.2355  -8.7057  -8.2908  -7.8060  -7.3683
    -7.0563  -7.0172  -6.7026  -6.3575  -6.2289  -6.0392  -6.0091  -5.9378
    -5.9153  -5.8325  -5.7621  -5.6548  -5.6350  -5.5958  -5.4273  -5.3913
    -5.3448  -5.3326  -5.2026  -5.1332  -4.9090  -4.7898  -4.5287  -4.4750
    -4.4653  -4.4287  -4.3366  -4.1321  -3.9393  -3.8651  -3.7807  -3.6561
    -3.6385  -3.5731  -3.5124  -3.4536  -3.3247  -3.3105  -3.2616  -3.1744
    -3.1397  -3.0522  -2.9645  -2.9340  -2.9117  -2.7589  -2.6842  -2.6299
    -2.6142  -2.5854  -2.4628  -2.3591  -2.1346  -1.8704  -0.9206  -0.0717
     0.2179   0.2618   1.3011   1.5927   1.7450   1.8533   1.9192   1.9616
     1.9949   2.1161   2.2117   2.3047   2.3915   2.4791   2.5247   2.6252
     2.8113   2.8887   2.9006   3.0314   3.0382   3.0730   3.3255   3.4308
     3.8036   4.0919   4.2394   4.3720   4.6609   4.8355   4.9526   5.3623
     5.3989   5.5829   5.7146   5.7451   6.0243   6.1092   6.1200   6.1810
     6.1915   6.2397   6.2802   6.3150   6.4564   6.5219   6.5338   6.6853
     6.7166   6.9090   6.9946   7.2093   7.2616   7.2727   7.4393   7.4944
     7.5295   7.7846   7.8019   7.9572   8.0096   8.0970   8.2705   8.2990
     8.5396   8.5937   8.6448   8.8344   9.0623   9.1254   9.1554   9.2807
     9.3041   9.3686   9.3994   9.4964   9.5961   9.6178   9.7124   9.7837
     9.9523  10.0172  10.0824  10.0930  10.1480  10.1796  10.3997  10.4260
    10.5799  10.6542  10.7216  10.8363  10.9190  11.0269  11.0604  11.1013
    11.2426  11.3225  11.4832  11.5264  11.5996  11.6786  11.8525  11.8817
    12.0017  12.0799  12.2327  12.3267  12.4100  12.4228  12.5415  12.6168
    12.6602  12.7202  12.8251  12.9215  12.9562  13.0443  13.1495  13.4552
    13.4948  13.5237  13.6295  13.6820  13.7258  13.7745  13.8070  13.8831
    13.9411  13.9762  14.0179  14.0488  14.0802  14.2337  14.3002  14.4133
    14.4864  14.6539  14.7408  14.7501  14.8349  14.8820  14.9041  15.0162
    15.0476  15.1136  15.2863  15.4203  15.4431  15.5065  15.5940  15.6253
    15.7426  15.7576  15.8020  15.8623  16.0138  16.0454  16.1700  16.2512
    16.2869  16.3422  16.3830  16.4026  16.4599  16.4978  16.5494  16.5848
    16.6416  16.7378  16.8395  16.8832  16.9064  16.9679  17.0300  17.0676
    17.0826  17.0953  17.1505  17.3203  17.4345  17.4991  17.5236  17.6369
    17.7079  17.7250  17.7520  17.8767  17.9315  18.0159  18.1011  18.1157
    18.2051  18.2615  18.3456  18.3843  18.4847  18.5572  18.5900  18.6703
    18.7322  18.7606  18.7967  18.8765  18.9307  18.9783  19.0237  19.0855
    19.1287  19.2069  19.2264  19.2657  19.3216  19.3746  19.4415  19.4839
    19.5515  19.6012  19.6339  19.7197  19.7910  19.8349  19.8588  19.8924
    19.9421  19.9954  20.0591  20.0811  20.1158  20.1998  20.2522

          k = 0.2500 0.2118 0.0000 ( 32165 PWs)   bands (ev):

   -55.9942 -55.9289 -55.6599 -55.5970 -55.5958 -55.5423 -55.5095 -55.4855
   -32.8106 -32.2001 -32.1436 -32.0982 -32.0969 -32.0655 -32.0594 -31.9860
   -31.9707 -31.9611 -31.9429 -31.9234 -31.9028 -31.8717 -31.8347 -31.6647
   -31.6193 -31.5332 -31.5227 -31.4814 -31.4764 -31.4045 -31.3634 -31.3250
   -22.3783 -20.2310 -19.9392 -19.1542 -18.8851 -18.7785 -18.6751 -18.6406
   -18.5880 -18.5762 -18.5235 -18.4954 -17.9564 -17.9039 -17.8915 -17.8208
   -17.8058 -17.6761 -17.5219 -16.2351  -8.7043  -8.2886  -7.8001  -7.3679
    -6.8447  -6.6851  -6.5769  -6.4336  -6.3317  -6.3062  -6.1429  -6.0964
    -5.9802  -5.9504  -5.8037  -5.6781  -5.6430  -5.6124  -5.4249  -5.3792
    -5.3656  -5.2502  -5.0505  -4.9437  -4.7880  -4.7093  -4.4721  -4.4592
    -4.3574  -4.2762  -4.1161  -4.0698  -4.0189  -3.9631  -3.8218  -3.7984
    -3.7470  -3.7172  -3.6767  -3.6036  -3.4938  -3.4048  -3.3452  -3.3059
    -3.2286  -3.0822  -3.0048  -2.9191  -2.8712  -2.8321  -2.7236  -2.6151
    -2.5509  -2.5093  -2.3749  -2.3401  -2.1532  -1.9318  -0.9493  -0.0352
     0.5589   0.6197   1.1269   1.2563   1.5410   1.7947   1.9579   2.0105
     2.1299   2.3077   2.3542   2.4085   2.5428   2.5812   2.6393   2.7893
     2.8727   2.9291   2.9870   3.0295   3.0983   3.1881   3.2107   3.4584
     3.7277   4.1199   4.3350   4.4575   4.7163   4.8265   5.0471   5.2764
     5.2830   5.3350   5.5296   5.6078   5.6646   5.7442   5.8590   5.8814
     5.9870   6.0557   6.1580   6.2343   6.4215   6.5617   6.6022   6.7473
     6.7933   6.9088   6.9391   7.0981   7.1875   7.3626   7.4380   7.4812
     7.6151   7.7805   7.8810   8.0134   8.0778   8.1395   8.3086   8.3573
     8.5183   8.6218   8.7255   8.7897   8.9465   8.9954   9.0620   9.2538
     9.3356   9.3977   9.4565   9.5522   9.6609   9.7905   9.8780   9.9559
    10.0225  10.1623  10.2212  10.3120  10.3912  10.4480  10.6068  10.7704
    10.8298  10.9850  11.0358  11.1116  11.1747  11.1907  11.3510  11.3962
    11.4689  11.5864  11.6347  11.6590  11.6824  11.8590  11.8760  12.0081
    12.1150  12.1737  12.2293  12.3208  12.4393  12.5499  12.6327  12.7115
    12.7284  12.7740  12.8675  12.9241  12.9596  13.0035  13.0707  13.1789
    13.2125  13.3323  13.3720  13.4286  13.5021  13.5748  13.6104  13.7135
    13.7574  13.8641  13.9094  13.9985  14.0508  14.1160  14.1377  14.2355
    14.3346  14.3751  14.4121  14.4709  14.6365  14.7347  14.8546  14.8763
    14.9753  15.1227  15.1547  15.2379  15.2995  15.3239  15.4055  15.4444
    15.4961  15.5627  15.6120  15.6929  15.7603  15.8067  15.8433  15.9022
    15.9800  16.0606  16.1323  16.1802  16.2651  16.3557  16.3816  16.4486
    16.5607  16.6725  16.6969  16.7408  16.8069  16.8771  16.9355  17.0210
    17.0570  17.1199  17.1825  17.2223  17.2957  17.3601  17.4365  17.4983
    17.5522  17.6111  17.7111  17.8133  17.8642  17.9089  17.9948  18.0445
    18.1150  18.2301  18.2855  18.3588  18.3900  18.5333  18.5706  18.6298
    18.6486  18.6922  18.8023  18.8798  18.9540  19.0159  19.0842  19.0988
    19.1675  19.2670  19.2903  19.3418  19.4281  19.4549  19.5227  19.6431
    19.6862  19.7249  19.7593  19.8173  19.8799  19.9479  19.9943  20.0378
    20.0694  20.1294  20.1844  20.2465  20.2748  20.3421  20.3952

          k = 0.2500-0.4237 0.0000 ( 32188 PWs)   bands (ev):

   -55.9929 -55.9290 -55.6586 -55.5956 -55.5949 -55.5409 -55.5089 -55.4857
   -32.8101 -32.1995 -32.1446 -32.1101 -32.0852 -32.0778 -32.0655 -31.9860
   -31.9616 -31.9540 -31.9360 -31.9028 -31.8994 -31.8518 -31.8345 -31.6935
   -31.6365 -31.5376 -31.5223 -31.4844 -31.4743 -31.4046 -31.3623 -31.3251
   -22.3781 -20.2293 -19.9379 -19.1471 -18.8835 -18.7524 -18.7216 -18.6879
   -18.5939 -18.4986 -18.3421 -18.3202 -18.2732 -18.2516 -17.9179 -17.6749
   -17.6525 -17.6342 -17.5196 -16.2347  -8.7029  -8.2863  -7.7941  -7.3670
    -6.7827  -6.4844  -6.4650  -6.4475  -6.3531  -6.1818  -6.1730  -6.0662
    -5.9421  -5.8507  -5.8355  -5.7997  -5.7926  -5.6737  -5.6093  -5.4875
    -5.4204  -5.1928  -5.0915  -4.8596  -4.5660  -4.5108  -4.4733  -4.3919
    -4.3059  -4.1787  -4.1727  -4.1487  -4.1342  -4.0158  -3.9593  -3.8894
    -3.7952  -3.7605  -3.7455  -3.6189  -3.5947  -3.5281  -3.4506  -3.4037
    -3.2963  -3.1049  -3.0836  -2.9491  -2.8853  -2.7388  -2.7130  -2.5346
    -2.5211  -2.4285  -2.3565  -2.2201  -2.1278  -2.0776  -0.9831  -0.0278
     0.8272   0.8848   0.9764   0.9816   1.3593   1.9329   1.9940   2.0842
     2.1468   2.3224   2.5259   2.5625   2.6303   2.7379   2.8264   2.8302
     2.8854   3.0560   3.0972   3.1488   3.1710   3.2199   3.3043   3.4807
     3.6845   4.1068   4.3162   4.5603   4.7176   4.7767   4.8590   4.9498
     4.9909   5.2225   5.2518   5.3401   5.4512   5.6107   5.8046   5.8550
     5.8839   5.9368   6.2378   6.3326   6.4130   6.4956   6.5361   6.7669
     6.8385   6.9315   7.1165   7.1316   7.1846   7.1923   7.3918   7.4659
     7.5652   7.6155   7.7501   7.8034   7.9392   8.0182   8.2954   8.4730
     8.5481   8.5928   8.6628   8.8671   8.8894   8.9521   9.1798   9.2364
     9.2960   9.3857   9.4190   9.8455   9.9486   9.9952  10.1111  10.3144
    10.3959  10.4792  10.5044  10.6039  10.7050  10.9838  11.0369  11.0452
    11.0897  11.1624  11.3073  11.4023  11.4134  11.4722  11.5651  11.6122
    11.6441  11.6739  11.7591  11.7835  11.8645  11.9409  11.9500  12.0200
    12.0662  12.0879  12.1802  12.2583  12.3850  12.4369  12.4815  12.5019
    12.6195  12.6986  12.8373  12.8797  12.9002  13.0986  13.1782  13.2110
    13.2293  13.2756  13.3208  13.3399  13.3737  13.4350  13.4704  13.5328
    13.5617  13.5939  13.6545  13.6852  13.7882  13.8590  13.9878  14.0039
    14.1414  14.1716  14.2696  14.3138  14.3596  14.3938  14.4472  14.5485
    14.7035  14.7898  14.8452  14.8863  14.9080  15.1532  15.1967  15.2745
    15.3611  15.4465  15.5013  15.5288  15.5746  15.6126  15.6787  15.7935
    15.8745  15.9559  16.1121  16.2175  16.3037  16.4121  16.4820  16.5897
    16.6316  16.7218  16.8498  16.9051  16.9315  17.0176  17.0338  17.1421
    17.1893  17.2404  17.3059  17.3650  17.3728  17.4124  17.4778  17.5477
    17.5766  17.6351  17.6442  17.7083  17.7677  17.7850  17.8442  17.9008
    17.9866  18.0243  18.0857  18.1551  18.1911  18.2564  18.2903  18.3937
    18.4579  18.5109  18.5827  18.6191  18.7380  18.7715  18.9003  18.9244
    18.9882  19.0544  19.1357  19.2393  19.3041  19.3256  19.4097  19.4825
    19.5084  19.5785  19.6586  19.7053  19.8076  19.8967  19.9274  20.0284
    20.0741  20.1500  20.2303  20.2619  20.3586  20.3808  20.4224

          k =-0.5000 0.0000 0.0000 ( 32166 PWs)   bands (ev):

   -55.9616 -55.9612 -55.6391 -55.6094 -55.5835 -55.5170 -55.5072 -55.5059
   -32.4726 -32.4557 -32.1335 -32.0916 -32.0780 -32.0697 -32.0693 -31.9492
   -31.9401 -31.9373 -31.9132 -31.8500 -31.8015 -31.7801 -31.6864 -31.6723
   -31.6596 -31.6515 -31.5990 -31.5740 -31.5565 -31.5287 -31.4518 -31.4452
   -22.3782 -20.1824 -19.9240 -19.0176 -18.9810 -18.7447 -18.5399 -18.4909
   -18.4800 -18.4756 -18.1216 -18.1097 -18.0356 -18.0196 -18.0179 -18.0132
   -17.9837 -17.9680 -17.9378 -16.2354  -8.5874  -8.3031  -7.8113  -6.9873
    -6.9591  -6.4706  -6.4365  -6.3640  -6.3566  -6.2753  -6.1974  -5.9318
    -5.9188  -5.9095  -5.8537  -5.7829  -5.7119  -5.6910  -5.2339  -5.1912
    -5.1492  -4.9738  -4.9201  -4.9180  -4.7467  -4.6436  -4.6247  -4.5012
    -4.4567  -4.4485  -4.4037  -4.3526  -4.2763  -4.0967  -3.9745  -3.9150
    -3.8424  -3.7407  -3.7209  -3.6178  -3.4841  -3.3972  -3.3073  -3.2166
    -3.1618  -3.0495  -3.0283  -3.0177  -2.9511  -2.8559  -2.8256  -2.5495
    -2.5145  -2.4599  -2.4177  -2.2100  -2.1485  -2.0010  -0.9361   0.8697
     1.1118   1.2784   1.3035   1.3434   1.3462   1.3789   1.4198   1.8930
     1.9084   1.9217   1.9390   2.0350   2.2616   2.3330   2.3977   2.4550
     2.4556   2.6553   2.6764   3.0285   3.1453   3.3559   3.3764   3.5698
     3.7189   3.7943   4.1956   4.7107   4.9475   4.9908   5.1312   5.2920
     5.5091   5.5246   5.5943   5.8280   5.8627   5.9719   6.0319   6.0522
     6.0792   6.0882   6.1343   6.2108   6.2569   6.3465   6.5397   6.5718
     6.7034   7.1953   7.2101   7.2155   7.2297   7.3075   7.4968   7.5514
     7.6115   7.8061   7.9105   8.0289   8.0445   8.0467   8.1104   8.1852
     8.2919   8.3063   8.5844   8.6215   8.6530   8.6948   8.7433   8.7921
     8.9279   9.0349   9.2018   9.3348   9.4308   9.5190   9.8278   9.9769
     9.9839  10.0083  10.0733  10.1143  10.1763  10.3375  10.3799  10.4274
    10.7416  10.7719  11.0115  11.0677  11.1679  11.2151  11.2364  11.3852
    11.4024  11.4559  11.5035  11.6317  11.6961  11.8365  12.1551  12.2817
    12.3614  12.5226  12.5865  12.6138  12.7286  12.8537  12.9981  13.0306
    13.1105  13.1281  13.2834  13.3424  13.3516  13.4516  13.4740  13.4803
    13.6742  13.7440  13.8843  13.9680  14.0553  14.1049  14.1424  14.1479
    14.2473  14.3795  14.4348  14.4463  14.5422  14.6558  14.7179  14.7310
    14.7801  14.8096  14.8451  14.8886  14.9406  14.9542  15.1258  15.2012
    15.4869  15.5020  15.5276  15.6112  15.7792  15.7992  15.8922  15.9417
    15.9910  16.0348  16.0942  16.2086  16.2295  16.2791  16.3865  16.3951
    16.4075  16.4360  16.4937  16.5098  16.5253  16.6206  16.6750  16.7263
    16.7651  16.7844  16.8601  16.8823  16.9004  16.9392  16.9745  17.0237
    17.0912  17.1240  17.1617  17.1904  17.2334  17.2583  17.2640  17.2848
    17.3363  17.4123  17.4909  17.5344  17.6009  17.6327  17.6569  17.6682
    17.6801  17.7099  17.7244  17.7604  17.8212  17.8503  18.0428  18.0613
    18.1838  18.2085  18.2243  18.2969  18.3235  18.4687  18.5703  18.6028
    18.6403  18.6594  18.7291  18.7606  18.7887  18.8312  18.8595  18.8828
    18.9487  19.1232  19.1758  19.2414  19.3312  19.3623  19.4063  19.4418
    19.5571  19.6037  19.7366  19.7620  19.9038  19.9413  19.9924

          k =-0.5000 0.2118 0.0000 ( 32144 PWs)   bands (ev):

   -55.9610 -55.9607 -55.6378 -55.6081 -55.5825 -55.5161 -55.5067 -55.5053
   -32.4723 -32.4554 -32.1342 -32.0916 -32.0777 -32.0668 -32.0656 -31.9495
   -31.9413 -31.9387 -31.9131 -31.8498 -31.7855 -31.7664 -31.6858 -31.6667
   -31.6571 -31.6560 -31.6085 -31.5857 -31.5657 -31.5378 -31.4516 -31.4451
   -22.3780 -20.1813 -19.9227 -19.0146 -18.9776 -18.7369 -18.5266 -18.4958
   -18.4934 -18.4834 -18.1269 -18.1128 -18.0487 -18.0379 -18.0095 -17.9914
   -17.9755 -17.9662 -17.9157 -16.2350  -8.5857  -8.3011  -7.8056  -6.9787
    -6.9494  -6.4390  -6.4198  -6.3590  -6.3506  -6.3127  -6.2454  -5.9552
    -5.9424  -5.7595  -5.6805  -5.6320  -5.5985  -5.4904  -5.3088  -5.0992
    -5.0488  -4.9945  -4.9421  -4.9320  -4.8506  -4.8042  -4.7197  -4.7122
    -4.6586  -4.5554  -4.5238  -4.3081  -4.2437  -4.1134  -4.0828  -3.8286
    -3.7999  -3.7541  -3.6728  -3.6026  -3.5857  -3.4868  -3.4199  -3.3967
    -3.3223  -3.1196  -3.0735  -2.8890  -2.8795  -2.8294  -2.7096  -2.5420
    -2.5233  -2.4158  -2.3902  -2.2047  -2.1563  -2.0403  -0.9387   0.9178
     1.1615   1.2620   1.3027   1.5059   1.6027   1.6312   1.6587   1.7107
     1.7277   1.8624   1.8975   2.1983   2.3403   2.3597   2.4883   2.5987
     2.6531   2.7441   2.7590   3.0290   3.0568   3.3104   3.3219   3.5944
     3.8260   3.9115   4.1786   4.8223   5.0995   5.1100   5.2296   5.2744
     5.3080   5.3327   5.3615   5.3716   5.5872   5.7589   5.8006   5.8469
     5.9500   6.1017   6.2064   6.3293   6.3924   6.5364   6.5666   6.5939
     6.6914   6.6986   6.7842   6.8222   6.9847   7.0364   7.1012   7.4197
     7.4927   7.6039   7.6617   7.7108   7.8041   7.8896   8.1135   8.2124
     8.4099   8.4184   8.7258   8.8278   8.8687   8.9621   9.0015   9.1306
     9.3062   9.3871   9.6284   9.7004   9.7855   9.8762  10.0050  10.1036
    10.1220  10.1823  10.2158  10.3293  10.3600  10.4505  10.6386  10.6888
    10.8242  10.9238  11.0015  11.0911  11.3607  11.4490  11.5399  11.6587
    11.7805  11.7945  11.8378  11.8741  11.9027  12.0105  12.1503  12.3294
    12.4028  12.5128  12.7017  12.7842  12.8429  12.9035  13.0831  13.1547
    13.1836  13.3870  13.4148  13.4762  13.5792  13.5889  13.6657  13.6827
    13.7528  13.7645  13.8191  13.8482  13.9585  13.9762  14.0379  14.0846
    14.1375  14.2162  14.2590  14.2771  14.3582  14.3706  14.4089  14.4185
    14.4824  14.5296  14.5869  14.6183  14.7387  14.7677  14.8820  14.9391
    15.0165  15.0373  15.0537  15.1108  15.1611  15.1854  15.2335  15.2487
    15.2983  15.3302  15.4862  15.4972  15.6265  15.6400  15.7129  15.7530
    15.8193  15.8867  15.9511  15.9969  16.0824  16.1675  16.1889  16.2018
    16.3574  16.3836  16.4521  16.4693  16.5454  16.6148  16.7658  16.8363
    16.9354  17.0049  17.0695  17.1257  17.2109  17.2307  17.2990  17.3991
    17.5040  17.5442  17.5675  17.6291  17.6941  17.7116  17.7840  17.8608
    17.9249  18.0171  18.0767  18.1680  18.1898  18.2304  18.2917  18.3107
    18.3379  18.5090  18.5240  18.6099  18.6332  18.6564  18.7627  18.8166
    18.9248  18.9587  18.9888  19.0661  19.2327  19.2680  19.3466  19.3852
    19.4204  19.5079  19.5539  19.6395  19.7096  19.7775  19.8684  19.9245
    20.0453  20.0631  20.1126  20.1963  20.2351  20.3544  20.4260

          k =-0.5000-0.4237 0.0000 ( 32256 PWs)   bands (ev):

   -55.9605 -55.9602 -55.6365 -55.6069 -55.5816 -55.5151 -55.5061 -55.5047
   -32.4719 -32.4550 -32.1347 -32.0916 -32.0773 -32.0643 -32.0616 -31.9499
   -31.9434 -31.9386 -31.9130 -31.8497 -31.7680 -31.7500 -31.6862 -31.6642
   -31.6593 -31.6520 -31.6184 -31.5991 -31.5763 -31.5481 -31.4514 -31.4450
   -22.3778 -20.1802 -19.9215 -19.0116 -18.9743 -18.7282 -18.5155 -18.5134
   -18.4954 -18.4869 -18.1318 -18.1157 -18.0545 -18.0440 -18.0289 -17.9653
   -17.9618 -17.9572 -17.9046 -16.2347  -8.5841  -8.2992  -7.7998  -6.9710
    -6.9407  -6.3931  -6.3357  -6.3097  -6.3069  -6.3006  -6.2897  -5.9688
    -5.9507  -5.7907  -5.5692  -5.5649  -5.4544  -5.4077  -5.3542  -5.0892
    -5.0563  -5.0051  -4.9289  -4.9275  -4.9153  -4.8700  -4.8590  -4.7913
    -4.7171  -4.5167  -4.4746  -4.2021  -4.1579  -4.1165  -3.9139  -3.9100
    -3.8831  -3.8517  -3.8286  -3.7705  -3.7559  -3.7457  -3.6562  -3.5208
    -3.4416  -3.0656  -3.0103  -2.8169  -2.8137  -2.7304  -2.6291  -2.5129
    -2.4994  -2.4799  -2.2744  -2.1609  -2.1506  -2.1164  -0.9416   0.9420
     1.1399   1.2987   1.3503   1.4102   1.5792   1.6287   1.6498   1.7501
     1.8025   2.0471   2.1483   2.4696   2.5283   2.5487   2.5579   2.6253
     2.8075   2.8882   2.9315   3.0185   3.1248   3.1577   3.2196   3.6451
     3.9551   4.0700   4.1725   4.7572   4.7671   4.7860   4.8212   4.9842
     5.0864   5.0906   5.5474   5.6135   5.7132   5.7556   5.7613   5.7967
     6.0423   6.0944   6.1128   6.1182   6.1602   6.2665   6.3060   6.5536
     6.5627   6.6535   6.7421   6.8424   6.8792   7.0460   7.1139   7.1918
     7.2397   7.3346   7.4955   7.5089   7.6701   8.0951   8.1339   8.2781
     8.3055   8.4193   8.5544   8.6228   9.1413   9.2595   9.3064   9.3987
     9.4757   9.5490   9.6238   9.6608   9.6824   9.7459   9.8892   9.9451
    10.5688  10.7363  10.8946  10.9682  10.9984  11.0431  11.0659  11.1833
    11.3342  11.4802  11.5562  11.6049  11.7860  11.8222  11.8413  11.8845
    11.9635  11.9715  12.1233  12.2797  12.3195  12.3261  12.4269  12.4521
    12.4974  12.5474  12.5718  12.6909  12.7706  12.7728  12.8186  12.8966
    13.0137  13.0156  13.1662  13.1730  13.1939  13.2519  13.3046  13.4349
    13.5034  13.5831  13.6421  13.6853  13.6928  13.7218  13.7775  13.8873
    13.8941  13.9828  14.0281  14.2104  14.2267  14.2608  14.2767  14.3016
    14.3367  14.3496  14.4264  14.4459  14.5072  14.5764  14.5961  14.6134
    14.6648  14.6751  14.7329  14.7977  14.8162  14.8376  14.9235  15.0012
    15.0576  15.0790  15.1674  15.2509  15.3162  15.3863  15.4220  15.5298
    15.5564  15.6179  15.6861  15.7331  15.8040  15.8723  15.9064  15.9691
    16.0342  16.0950  16.1209  16.1633  16.4314  16.5175  16.5626  16.6172
    16.7034  16.8067  17.0916  17.1294  17.1524  17.1857  17.3512  17.3712
    17.4116  17.4398  17.6016  17.6196  17.6563  17.7852  17.7918  17.8058
    17.9508  17.9579  18.0708  18.1543  18.2223  18.3061  18.5453  18.5566
    18.5623  18.7069  18.7229  18.8242  18.8750  18.9059  19.0395  19.0491
    19.1105  19.2468  19.4044  19.4926  19.6059  19.6314  19.7522  19.7852
    19.7876  19.8750  19.9582  20.0858  20.1294  20.1979  20.2379  20.2792
    20.3221  20.3571  20.3976  20.4245  20.4621  20.5056  20.5931

          k =-0.2500 0.2118 0.0000 ( 32165 PWs)   bands (ev):

   -55.9942 -55.9289 -55.6599 -55.5970 -55.5958 -55.5423 -55.5095 -55.4855
   -32.8106 -32.2001 -32.1436 -32.0982 -32.0969 -32.0655 -32.0594 -31.9860
   -31.9707 -31.9611 -31.9429 -31.9234 -31.9028 -31.8717 -31.8347 -31.6647
   -31.6193 -31.5332 -31.5226 -31.4814 -31.4764 -31.4045 -31.3634 -31.3250
   -22.3783 -20.2310 -19.9392 -19.1542 -18.8851 -18.7785 -18.6751 -18.6407
   -18.5880 -18.5762 -18.5235 -18.4953 -17.9564 -17.9039 -17.8915 -17.8208
   -17.8058 -17.6761 -17.5219 -16.2351  -8.7043  -8.2886  -7.8001  -7.3679
    -6.8444  -6.6855  -6.5773  -6.4331  -6.3320  -6.3056  -6.1427  -6.0966
    -5.9803  -5.9504  -5.8039  -5.6794  -5.6406  -5.6110  -5.4256  -5.3819
    -5.3662  -5.2513  -5.0495  -4.9428  -4.7880  -4.7084  -4.4757  -4.4508
    -4.3654  -4.2632  -4.1201  -4.0743  -4.0208  -3.9665  -3.8306  -3.7925
    -3.7453  -3.7164  -3.6740  -3.5982  -3.4996  -3.4074  -3.3492  -3.3008
    -3.2260  -3.0767  -3.0045  -2.9254  -2.8719  -2.8311  -2.7247  -2.6137
    -2.5471  -2.5104  -2.3749  -2.3411  -2.1551  -1.9316  -0.9492  -0.0351
     0.5588   0.6197   1.1273   1.2564   1.5411   1.7955   1.9572   2.0107
     2.1275   2.3086   2.3533   2.4088   2.5438   2.5809   2.6398   2.7892
     2.8725   2.9289   2.9872   3.0287   3.0998   3.1878   3.2109   3.4583
     3.7271   4.1205   4.3349   4.4576   4.7160   4.8273   5.0464   5.2763
     5.2831   5.3349   5.5295   5.6079   5.6642   5.7446   5.8591   5.8820
     5.9872   6.0538   6.1593   6.2336   6.4217   6.5610   6.6021   6.7484
     6.7943   6.9082   6.9387   7.0974   7.1864   7.3628   7.4399   7.4814
     7.6159   7.7782   7.8799   8.0138   8.0758   8.1392   8.3139   8.3560
     8.5225   8.6196   8.7204   8.7897   8.9477   8.9996   9.0586   9.2552
     9.3382   9.3981   9.4563   9.5553   9.6629   9.7784   9.8828   9.9451
    10.0542  10.1238  10.2176  10.3214  10.4101  10.4405  10.6075  10.7681
    10.8343  10.9865  11.0300  11.1092  11.1694  11.2018  11.3287  11.4038
    11.4770  11.5985  11.6344  11.6546  11.6789  11.8462  11.8927  12.0001
    12.1142  12.1718  12.2365  12.3186  12.4493  12.5424  12.6286  12.7034
    12.7351  12.7817  12.8818  12.9140  12.9422  13.0082  13.0656  13.1763
    13.2355  13.3302  13.3690  13.4178  13.4998  13.5858  13.6238  13.7000
    13.7621  13.8644  13.9123  14.0015  14.0393  14.1163  14.1329  14.2407
    14.3021  14.3833  14.4291  14.4716  14.6507  14.7517  14.8401  14.8814
    14.9608  15.1170  15.1550  15.2386  15.2948  15.3292  15.4070  15.4416
    15.4948  15.5642  15.5991  15.7000  15.7579  15.7951  15.8659  15.9022
    15.9901  16.0546  16.1307  16.1918  16.2801  16.3556  16.3686  16.4344
    16.5593  16.6702  16.6924  16.7490  16.7898  16.8704  16.9186  17.0288
    17.0731  17.1103  17.1840  17.2436  17.3076  17.3609  17.4473  17.4686
    17.5614  17.6115  17.6909  17.8243  17.8710  17.9228  17.9675  18.0545
    18.1186  18.2169  18.3076  18.3398  18.4005  18.5299  18.5599  18.6113
    18.6632  18.7282  18.8009  18.8739  18.9483  18.9907  19.0750  19.1035
    19.1780  19.2693  19.3004  19.3495  19.4353  19.4612  19.5082  19.6142
    19.7063  19.7465  19.7687  19.8100  19.8828  19.9197  19.9731  20.0319
    20.0689  20.1510  20.1773  20.2372  20.2816  20.3450  20.4067

     the Fermi energy is     1.1865 ev

!    total energy              =   -1593.93417503 Ry
     Harris-Foulkes estimate   =   -1593.93417543 Ry
     estimated scf accuracy    <       0.00000053 Ry

     The total energy is the sum of the following terms:

     one-electron contribution =  -19410.39642381 Ry
     hartree contribution      =    9738.38508803 Ry
     xc contribution           =    -294.67065630 Ry
     ewald contribution        =    8370.97126204 Ry
     Hubbard energy            =       1.77668832 Ry
     smearing contrib. (-TS)   =      -0.00013331 Ry

     convergence has been achieved in  23 iterations

     Forces acting on atoms (Ry/au):


     negative rho (up, down):  0.334E-02 0.000E+00
     atom    1 type  1   force =     0.00211881   -0.00024239    0.00074172
     atom    2 type  1   force =    -0.00067849   -0.00033663   -0.00253240
     atom    3 type  2   force =    -0.02273923    0.00056503   -0.00817208
     atom    4 type  2   force =    -0.00450923   -0.00045815    0.00246657
     atom    5 type  1   force =    -0.00352902   -0.01211557   -0.00139136
     atom    6 type  1   force =    -0.00248152    0.01273730   -0.00138275
     atom    7 type  1   force =    -0.00017092    0.00021440    0.00935401
     atom    8 type  1   force =     0.00173796    0.00104660    0.00098965
     atom    9 type  2   force =    -0.00014839    0.00034651    0.00007559
     atom   10 type  2   force =     0.00011380    0.00083357    0.00101094
     atom   11 type  1   force =    -0.01386121   -0.01319329    0.00068975
     atom   12 type  1   force =    -0.01164580    0.01478543    0.00038547
     atom   13 type  1   force =     0.00037716   -0.00157328   -0.00167377
     atom   14 type  1   force =     0.00157541    0.00004748    0.00061845
     atom   15 type  1   force =    -0.00062562    0.00003758   -0.00007914
     atom   16 type  2   force =     0.02433609    0.00064343   -0.00846049
     atom   17 type  2   force =    -0.00442407   -0.00036602    0.00134144
     atom   18 type  1   force =     0.00471031   -0.01197630   -0.00140586
     atom   19 type  1   force =     0.00346903    0.01254487   -0.00134934
     atom   20 type  1   force =    -0.00002430   -0.00683978    0.01518518
     atom   21 type  1   force =     0.00180596    0.00050196    0.00003740
     atom   22 type  2   force =    -0.00038291    0.00035748    0.00001599
     atom   23 type  2   force =     0.00005529    0.00655005   -0.00707995
     atom   24 type  1   force =     0.01392914   -0.01317746    0.00074803
     atom   25 type  1   force =     0.01170998    0.01474785    0.00046632
     atom   26 type  1   force =     0.00041491   -0.00413265   -0.00193777
     atom   27 type  3   force =    -0.00000195    0.00011712   -0.00008028
     atom   28 type  3   force =     0.00000467   -0.00038088   -0.00194401
     atom   29 type  3   force =    -0.00036174    0.00005517    0.00022005
     atom   30 type  3   force =    -0.00077642    0.00003044    0.00029484
     atom   31 type  1   force =     0.00000380   -0.00525241    0.00518061
     atom   32 type  1   force =     0.00000205    0.00382249   -0.00252587
     atom   33 type  3   force =    -0.00000354    0.00006006    0.00019308

     Total force =     0.024894     Total SCF correction =     0.001738


     entering subroutine stress ...


     negative rho (up, down):  0.334E-02 0.000E+00
          total   stress  (Ry/bohr**3)                   (kbar)     P=   -2.73
  -0.00001653  -0.00000005   0.00000191         -2.43     -0.01      0.28
  -0.00000005  -0.00001345   0.00000103         -0.01     -1.98      0.15
   0.00000191   0.00000103  -0.00002572          0.28      0.15     -3.78


     BFGS Geometry Optimization

     number of scf cycles    =   1
     number of bfgs steps    =   0

     energy   new            =   -1593.9341750332 Ry

     new trust radius        =       0.0151851813 bohr
     new conv_thr            =       0.0000010000 Ry


ATOMIC_POSITIONS (crystal)
O0       0.000000000   0.000000000   0.372114544    0   0   1
O0       0.000000000   0.500000000   0.388760342    0   0   1
Nb1      0.250000000   0.500000000   0.444239752    0   0   1
Nb1      0.000000000   0.000000000   0.444808367    0   0   1
O0       0.250000000   0.790000000   0.447122716    0   0   1
O0       0.250000000   0.210000000   0.447092885    0   0   1
O0       0.000000000   0.500000000   0.500133424    0   0   1
O0       0.000000000   0.000000000   0.523289406    0   0   1
Nb1      0.250000000   0.000000000   0.577351482    0   0   1
Nb1      0.000000000   0.500000000   0.569439824    0   0   1
O0       0.250000000   0.710000000   0.575473525    0   0   1
O0       0.250000000   0.290000000   0.575967559    0   0   1
O0       0.000000000   0.000000000   0.621757179    0   0   1
O0       0.500000000   0.000000000   0.372382127    0   0   1
O0       0.500000000   0.500000000   0.390238448    0   0   1
Nb1      0.750000000   0.500000000   0.444274097    0   0   1
Nb1      0.500000000   0.000000000   0.445306304    0   0   1
O0       0.750000000   0.790000000   0.447112432    0   0   1
O0       0.750000000   0.210000000   0.447093541    0   0   1
O0       0.500000000   0.500000000   0.499087769    0   0   1
O0       0.500000000   0.000000000   0.523100733    0   0   1
Nb1      0.750000000   0.000000000   0.577350314    0   0   1
Nb1      0.500000000   0.500000000   0.576131168    0   0   1
O0       0.750000000   0.710000000   0.575464668    0   0   1
O0       0.750000000   0.290000000   0.575959144    0   0   1
O0       0.500000000   0.000000000   0.621492002    0   0   1
H2      -0.000520174   0.504918872   0.352548426
H2       0.499440417   0.501151150   0.353991880
H2       0.150737665   0.000704179   0.356334315
H2       0.650320597   0.000512306   0.356465782
O0       0.500000339   0.508932151   0.649161587
O0       0.500000183   0.347979538   0.683410470
H2       0.499999683   0.419964549   0.714803786


     Check: negative starting charge=   -0.003307
     NEW-OLD atomic charge density approx. for the potential

     Check: negative/imaginary core charge=   -0.000003    0.000000
     Check: negative starting charge=   -0.003307

     negative rho (up, down):  0.334E-02 0.000E+00
 Atomic wfc used for LDA+U Projector are NOT orthogonalized

     total cpu time spent up to now is     5822.4 secs

     per-process dynamical memory:   453.0 Mb

     Self-consistent Calculation

     iteration #  1     ecut=    40.00 Ry     beta=0.70
     Davidson diagonalization with overlap
     ethr =  1.00E-06,  avg # of iterations =  4.0
 --- enter write_ns ---
 LDA+U parameters:
U( 2)     =  2.50000000
alpha( 2) =  0.00000000
atom    3   Tr[ns(na)] =   5.23331
    eigenvalues: 
  0.389  0.422  0.522  0.575  0.708
    eigenvectors:
  0.000  0.001  0.003  0.417  0.579
  0.000  0.000  0.995  0.005  0.000
  0.061  0.938  0.000  0.000  0.000
  0.000  0.000  0.002  0.578  0.420
  0.939  0.061  0.000  0.000  0.000
    occupations:
  0.652 -0.004  0.005 -0.065 -0.005
 -0.004  0.523 -0.001 -0.001  0.000
  0.005 -0.001  0.420 -0.003 -0.008
 -0.065 -0.001 -0.003  0.631  0.004
 -0.005  0.000 -0.008  0.004  0.391
atom    4   Tr[ns(na)] =   5.23837
    eigenvalues: 
  0.407  0.443  0.551  0.583  0.635
    eigenvectors:
  0.000  0.004  0.000  0.994  0.001
  0.000  0.995  0.000  0.005  0.001
  1.000  0.000  0.000  0.000  0.000
  0.000  0.001  0.000  0.001  0.998
  0.000  0.000  1.000  0.000  0.000
    occupations:
  0.583  0.009 -0.000  0.002 -0.000
  0.009  0.443 -0.000 -0.006 -0.000
 -0.000 -0.000  0.407 -0.000  0.001
  0.002 -0.006 -0.000  0.635  0.000
 -0.000 -0.000  0.001  0.000  0.551
atom    9   Tr[ns(na)] =   5.28381
    eigenvalues: 
  0.455  0.466  0.502  0.606  0.612
    eigenvectors:
  0.882  0.000  0.000  0.115  0.003
  0.000  0.000  0.000  0.024  0.976
  0.000  0.098  0.902  0.000  0.000
  0.117  0.000  0.000  0.861  0.021
  0.000  0.902  0.098  0.000  0.000
    occupations:
  0.473 -0.000  0.000  0.049  0.000
 -0.000  0.612  0.000 -0.001 -0.000
  0.000  0.000  0.499 -0.000  0.011
  0.049 -0.001 -0.000  0.589 -0.000
  0.000 -0.000  0.011 -0.000  0.469
atom   10   Tr[ns(na)] =   5.10737
    eigenvalues: 
  0.380  0.490  0.508  0.546  0.630
    eigenvectors:
  0.000  0.000  0.992  0.000  0.008
  0.000  1.000  0.000  0.000  0.000
  1.000  0.000  0.000  0.000  0.000
  0.000  0.000  0.008  0.000  0.992
  0.000  0.000  0.000  1.000  0.000
    occupations:
  0.509 -0.000  0.000  0.011 -0.000
 -0.000  0.490 -0.000 -0.000  0.001
  0.000 -0.000  0.380 -0.001  0.000
  0.011 -0.000 -0.001  0.629  0.000
 -0.000  0.001  0.000  0.000  0.546
atom   16   Tr[ns(na)] =   5.23275
    eigenvalues: 
  0.391  0.421  0.522  0.575  0.707
    eigenvectors:
  0.000  0.000  0.003  0.418  0.579
  0.000  0.000  0.995  0.005  0.000
  0.000  0.999  0.000  0.000  0.000
  0.000  0.000  0.002  0.577  0.420
  0.999  0.000  0.000  0.000  0.000
    occupations:
  0.651  0.004  0.005 -0.065  0.005
  0.004  0.522  0.001  0.002  0.000
  0.005  0.001  0.421 -0.003  0.000
 -0.065  0.002 -0.003  0.630 -0.004
  0.005  0.000  0.000 -0.004  0.392
atom   17   Tr[ns(na)] =   5.23856
    eigenvalues: 
  0.411  0.442  0.550  0.584  0.632
    eigenvectors:
  0.000  0.004  0.000  0.995  0.000
  0.000  0.995  0.000  0.004  0.001
  1.000  0.000  0.000  0.000  0.000
  0.000  0.001  0.000  0.000  0.999
  0.000  0.000  1.000  0.000  0.000
    occupations:
  0.583  0.009 -0.000  0.001 -0.000
  0.009  0.443 -0.000 -0.006  0.000
 -0.000 -0.000  0.411  0.003  0.001
  0.001 -0.006  0.003  0.632  0.000
 -0.000  0.000  0.001  0.000  0.550
atom   22   Tr[ns(na)] =   5.28372
    eigenvalues: 
  0.455  0.466  0.502  0.606  0.612
    eigenvectors:
  0.882  0.000  0.000  0.115  0.002
  0.000  0.000  0.000  0.020  0.980
  0.000  0.099  0.901  0.000  0.000
  0.117  0.000  0.000  0.865  0.018
  0.000  0.900  0.099  0.000  0.000
    occupations:
  0.473  0.000 -0.000  0.049 -0.000
  0.000  0.612 -0.000  0.001 -0.000
 -0.000 -0.000  0.499 -0.000 -0.011
  0.049  0.001 -0.000  0.589  0.000
 -0.000 -0.000 -0.011  0.000  0.469
atom   23   Tr[ns(na)] =   5.24533
    eigenvalues: 
  0.386  0.485  0.550  0.586  0.615
    eigenvectors:
  0.002  0.000  0.000  0.988  0.010
  0.000  0.996  0.004  0.000  0.000
  0.997  0.000  0.000  0.002  0.001
  0.001  0.000  0.000  0.010  0.989
  0.000  0.004  0.996  0.000  0.000
    occupations:
  0.586  0.000  0.009  0.003 -0.000
  0.000  0.486 -0.000 -0.000 -0.004
  0.009 -0.000  0.386  0.006  0.000
  0.003 -0.000  0.006  0.615 -0.000
 -0.000 -0.004  0.000 -0.000  0.550
N of occupied +U levels =  41.8632245
 --- exit write_ns ---

     negative rho (up, down):  0.334E-02 0.000E+00

     total cpu time spent up to now is     6086.3 secs

     total energy              =   -1593.93450041 Ry
     Harris-Foulkes estimate   =   -1593.93469558 Ry
     estimated scf accuracy    <       0.00033390 Ry

     iteration #  2     ecut=    40.00 Ry     beta=0.70
     Davidson diagonalization with overlap
     ethr =  1.46E-07,  avg # of iterations =  4.4

     negative rho (up, down):  0.335E-02 0.000E+00

     total cpu time spent up to now is     6295.6 secs

     total energy              =   -1593.93315334 Ry
     Harris-Foulkes estimate   =   -1593.93595611 Ry
     estimated scf accuracy    <       0.02955087 Ry

     iteration #  3     ecut=    40.00 Ry     beta=0.70
     Davidson diagonalization with overlap
     ethr =  1.46E-07,  avg # of iterations =  5.6

     negative rho (up, down):  0.335E-02 0.000E+00

     total cpu time spent up to now is     6516.2 secs

     total energy              =   -1593.93444847 Ry
     Harris-Foulkes estimate   =   -1593.93484599 Ry
     estimated scf accuracy    <       0.00348098 Ry

     iteration #  4     ecut=    40.00 Ry     beta=0.70
     Davidson diagonalization with overlap
     ethr =  1.46E-07,  avg # of iterations =  1.6

     negative rho (up, down):  0.334E-02 0.000E+00

     total cpu time spent up to now is     6702.8 secs

     total energy              =   -1593.93463809 Ry
     Harris-Foulkes estimate   =   -1593.93470582 Ry
     estimated scf accuracy    <       0.00037691 Ry

     iteration #  5     ecut=    40.00 Ry     beta=0.70
     Davidson diagonalization with overlap
     ethr =  1.46E-07,  avg # of iterations =  1.0

     negative rho (up, down):  0.334E-02 0.000E+00

     total cpu time spent up to now is     6881.6 secs

     total energy              =   -1593.93466504 Ry
     Harris-Foulkes estimate   =   -1593.93468085 Ry
     estimated scf accuracy    <       0.00004635 Ry

     iteration #  6     ecut=    40.00 Ry     beta=0.70
     Davidson diagonalization with overlap
     ethr =  2.02E-08,  avg # of iterations =  2.0

     negative rho (up, down):  0.334E-02 0.000E+00

     total cpu time spent up to now is     7057.7 secs

     total energy              =   -1593.93467070 Ry
     Harris-Foulkes estimate   =   -1593.93467760 Ry
     estimated scf accuracy    <       0.00003115 Ry

     iteration #  7     ecut=    40.00 Ry     beta=0.70
     Davidson diagonalization with overlap
     ethr =  1.36E-08,  avg # of iterations =  1.1

     negative rho (up, down):  0.334E-02 0.000E+00

     total cpu time spent up to now is     7230.6 secs

     total energy              =   -1593.93467382 Ry
     Harris-Foulkes estimate   =   -1593.93467515 Ry
     estimated scf accuracy    <       0.00000548 Ry

     iteration #  8     ecut=    40.00 Ry     beta=0.70
     Davidson diagonalization with overlap
     ethr =  2.39E-09,  avg # of iterations =  1.1

     negative rho (up, down):  0.334E-02 0.000E+00

     total cpu time spent up to now is     7402.9 secs

     total energy              =   -1593.93467435 Ry
     Harris-Foulkes estimate   =   -1593.93467491 Ry
     estimated scf accuracy    <       0.00000197 Ry

     iteration #  9     ecut=    40.00 Ry     beta=0.70
     Davidson diagonalization with overlap
     ethr =  8.59E-10,  avg # of iterations =  1.0

     negative rho (up, down):  0.334E-02 0.000E+00

     total cpu time spent up to now is     7575.8 secs

     End of self-consistent calculation
 --- enter write_ns ---
 LDA+U parameters:
U( 2)     =  2.50000000
alpha( 2) =  0.00000000
atom    3   Tr[ns(na)] =   5.22490
    eigenvalues: 
  0.387  0.421  0.522  0.575  0.707
    eigenvectors:
  0.000  0.001  0.003  0.418  0.579
  0.000  0.000  0.995  0.005  0.000
  0.060  0.939  0.000  0.000  0.000
  0.000  0.000  0.002  0.577  0.420
  0.939  0.060  0.000  0.000  0.000
    occupations:
  0.651 -0.004  0.005 -0.065 -0.005
 -0.004  0.522 -0.001 -0.001  0.000
  0.005 -0.001  0.419 -0.003 -0.008
 -0.065 -0.001 -0.003  0.630  0.004
 -0.005  0.000 -0.008  0.004  0.390
atom    4   Tr[ns(na)] =   5.23758
    eigenvalues: 
  0.407  0.442  0.551  0.583  0.635
    eigenvectors:
  0.000  0.005  0.000  0.994  0.002
  0.000  0.995  0.000  0.005  0.001
  1.000  0.000  0.000  0.000  0.000
  0.000  0.001  0.000  0.001  0.998
  0.000  0.000  1.000  0.000  0.000
    occupations:
  0.583  0.009 -0.000  0.002 -0.000
  0.009  0.443 -0.000 -0.006 -0.000
 -0.000 -0.000  0.407 -0.000  0.001
  0.002 -0.006 -0.000  0.634  0.000
 -0.000 -0.000  0.001  0.000  0.551
atom    9   Tr[ns(na)] =   5.28823
    eigenvalues: 
  0.455  0.466  0.504  0.607  0.612
    eigenvectors:
  0.882  0.000  0.000  0.115  0.003
  0.000  0.000  0.000  0.025  0.975
  0.000  0.095  0.905  0.000  0.000
  0.118  0.000  0.000  0.860  0.022
  0.000  0.905  0.094  0.000  0.000
    occupations:
  0.473 -0.000  0.000  0.049  0.000
 -0.000  0.612  0.000 -0.001 -0.000
  0.000  0.000  0.500 -0.000  0.011
  0.049 -0.001 -0.000  0.589 -0.000
  0.000 -0.000  0.011 -0.000  0.469
[...]
     8.3023   8.3075   8.5850   8.6194   8.6501   8.6927   8.7343   8.7842
     8.9456   9.0479   9.2015   9.3417   9.4324   9.5207   9.8329   9.9702
     9.9816   9.9941  10.0672  10.0989  10.1768  10.3387  10.3882  10.4425
    10.7422  10.7692  11.0090  11.0490  11.1690  11.2203  11.2216  11.3757
    11.3881  11.4318  11.5030  11.6293  11.7038  11.8492  12.1636  12.2560
    12.3295  12.5157  12.5831  12.6075  12.7383  12.8367  13.0029  13.0341
    13.1077  13.1206  13.2937  13.3220  13.3237  13.4441  13.4723  13.4792
    13.6781  13.7350  13.8882  13.9698  14.0514  14.0970  14.1422  14.1499
    14.2799  14.3843  14.4282  14.4332  14.5401  14.6388  14.7260  14.7339
    14.7798  14.8024  14.8568  14.8895  14.9496  14.9720  15.1109  15.1964
    15.4656  15.4724  15.5188  15.5989  15.7682  15.8030  15.9006  15.9363
    15.9991  16.0403  16.1002  16.1874  16.2429  16.2733  16.3918  16.4039
    16.4118  16.4472  16.5045  16.5118  16.5274  16.5915  16.6740  16.7267
    16.7750  16.7809  16.8608  16.8801  16.9038  16.9366  16.9762  17.0140
    17.1011  17.1182  17.1579  17.1910  17.2356  17.2598  17.2655  17.2792
    17.3377  17.4100  17.4944  17.5324  17.6060  17.6355  17.6711  17.6738
    17.6804  17.7144  17.7283  17.7682  17.8173  17.8529  18.0615  18.0738
    18.1814  18.2089  18.2258  18.2967  18.3254  18.4661  18.5725  18.5871
    18.6448  18.6538  18.7128  18.7532  18.7834  18.8112  18.8490  18.8839
    18.9668  19.1227  19.1892  19.2409  19.3332  19.3652  19.4003  19.4444
    19.5575  19.5947  19.7523  19.7787  19.9096  19.9364  19.9897

          k =-0.5000 0.2118 0.0000 ( 32144 PWs)   bands (ev):

   -56.0257 -56.0252 -55.6627 -55.6420 -55.6186 -55.5200 -55.4626 -55.4604
   -32.5327 -32.5168 -32.1968 -32.1554 -32.1434 -32.1276 -32.1262 -31.9748
   -31.9491 -31.9414 -31.9389 -31.8521 -31.8071 -31.7947 -31.6889 -31.6722
   -31.6427 -31.6252 -31.5892 -31.5727 -31.5631 -31.5517 -31.3852 -31.3764
   -22.4620 -20.0831 -19.9568 -19.0226 -18.9976 -18.6952 -18.5377 -18.5023
   -18.5004 -18.4898 -18.1713 -18.1572 -18.0897 -18.0762 -18.0145 -18.0129
   -17.9844 -17.9714 -17.8221 -16.1227  -8.4626  -8.3194  -7.8391  -6.9940
    -6.9749  -6.4408  -6.4279  -6.3644  -6.3577  -6.3092  -6.2036  -5.9923
    -5.9738  -5.6889  -5.6657  -5.6416  -5.5999  -5.4697  -5.3297  -5.1125
    -5.0639  -5.0218  -4.9619  -4.9514  -4.8514  -4.8062  -4.7253  -4.7149
    -4.6249  -4.5764  -4.5401  -4.3082  -4.2608  -4.1058  -4.0679  -3.8396
    -3.8143  -3.7531  -3.6700  -3.6233  -3.5989  -3.4977  -3.4343  -3.4114
    -3.3495  -3.1156  -3.0797  -2.9136  -2.8936  -2.8123  -2.7028  -2.5573
    -2.5440  -2.4187  -2.3759  -2.2059  -2.1017  -1.9444  -0.8379   0.9009
     1.0638   1.2450   1.2941   1.4627   1.5865   1.6119   1.6426   1.6974
     1.7187   1.8936   1.8947   2.1985   2.3502   2.4078   2.4814   2.5767
     2.6420   2.7165   2.7556   3.0104   3.0446   3.3038   3.3263   3.6097
     3.8081   3.9038   4.2504   4.8485   5.0874   5.1082   5.2180   5.2512
     5.2831   5.3035   5.3424   5.3526   5.5784   5.7440   5.7892   5.8252
     5.9056   6.0880   6.1928   6.3106   6.3579   6.5284   6.5511   6.6267
     6.6706   6.6815   6.7664   6.8082   6.9756   7.0370   7.0888   7.4278
     7.4870   7.5804   7.6529   7.7390   7.7927   7.9287   8.1144   8.2241
     8.4058   8.4125   8.7245   8.8177   8.8707   8.9624   8.9960   9.1475
     9.2908   9.3787   9.6365   9.6997   9.7867   9.8750  10.0084  10.1007
    10.1184  10.1787  10.2108  10.3265  10.3541  10.4563  10.6412  10.6972
    10.8254  10.9246  10.9985  11.1023  11.3717  11.4480  11.5358  11.6598
    11.7729  11.7798  11.8164  11.8722  11.9096  11.9955  12.1533  12.3179
    12.3890  12.4989  12.7005  12.7821  12.8434  12.9046  13.0745  13.1502
    13.1803  13.3803  13.4306  13.4775  13.5698  13.5851  13.6513  13.6713
    13.7373  13.7467  13.8105  13.8293  13.9364  13.9647  14.0399  14.0810
    14.1406  14.2126  14.2555  14.2635  14.3464  14.3662  14.3994  14.4135
    14.4823  14.5273  14.5848  14.6191  14.7371  14.7762  14.8817  14.9416
    15.0156  15.0413  15.0554  15.1165  15.1679  15.1866  15.2344  15.2503
    15.3018  15.3274  15.4963  15.5073  15.6252  15.6410  15.7127  15.7564
    15.8180  15.8863  15.9455  15.9978  16.0806  16.1615  16.1986  16.2087
    16.3718  16.3843  16.4525  16.4670  16.5439  16.6219  16.7579  16.8369
    16.9352  17.0012  17.0686  17.1271  17.2045  17.2311  17.2888  17.3970
    17.4972  17.5431  17.5656  17.6285  17.6981  17.7194  17.7879  17.8644
    17.9287  18.0167  18.0752  18.1700  18.1844  18.2282  18.2849  18.3069
    18.3353  18.5027  18.5155  18.6141  18.6321  18.6756  18.7677  18.8168
    18.9276  18.9745  18.9984  19.0659  19.2327  19.2701  19.3488  19.3886
    19.4258  19.5074  19.5452  19.6387  19.7144  19.7737  19.8671  19.9258
    20.0377  20.0700  20.1221  20.1946  20.2377  20.3464  20.4185

          k =-0.5000-0.4237 0.0000 ( 32256 PWs)   bands (ev):

   -56.0251 -56.0246 -55.6613 -55.6407 -55.6176 -55.5191 -55.4620 -55.4598
   -32.5324 -32.5165 -32.1974 -32.1554 -32.1431 -32.1253 -32.1223 -31.9748
   -31.9490 -31.9448 -31.9409 -31.8520 -31.7865 -31.7750 -31.6829 -31.6659
   -31.6635 -31.6445 -31.5990 -31.5712 -31.5617 -31.5606 -31.3851 -31.3762
   -22.4618 -20.0820 -19.9556 -19.0193 -18.9942 -18.6849 -18.5333 -18.5191
   -18.4980 -18.4933 -18.1750 -18.1594 -18.0949 -18.0821 -18.0084 -17.9961
   -17.9922 -17.9542 -17.8166 -16.1224  -8.4610  -8.3175  -7.8339  -6.9861
    -6.9665  -6.3786  -6.3498  -6.3265  -6.3208  -6.3023  -6.2349  -6.0064
    -5.9879  -5.6917  -5.5930  -5.5890  -5.4353  -5.4219  -5.3007  -5.1089
    -5.0785  -5.0396  -4.9374  -4.9206  -4.9106  -4.8928  -4.8892  -4.8046
    -4.6507  -4.5336  -4.4740  -4.2328  -4.1609  -4.1073  -3.9441  -3.9117
    -3.9077  -3.8735  -3.8374  -3.7701  -3.7511  -3.7442  -3.6912  -3.5216
    -3.4685  -3.0659  -3.0294  -2.8359  -2.8218  -2.7383  -2.6350  -2.5336
    -2.4893  -2.4865  -2.2221  -2.1576  -2.1558  -1.9711  -0.8441   0.9232
     1.0497   1.2852   1.3246   1.3727   1.5559   1.6318   1.6428   1.7027
     1.7742   2.1349   2.1587   2.4810   2.5287   2.5433   2.5488   2.6310
     2.8115   2.8554   2.8981   3.0056   3.0926   3.1534   3.2238   3.6763
     3.9391   4.0579   4.2560   4.7252   4.7533   4.7585   4.8024   5.0103
     5.0793   5.0817   5.5059   5.5733   5.7094   5.7527   5.7581   5.7885
     6.0373   6.0779   6.0950   6.0988   6.1450   6.2607   6.2808   6.5459
     6.5549   6.6294   6.6887   6.8334   6.8623   7.1058   7.1322   7.2055
     7.2254   7.3099   7.4855   7.5099   7.6603   8.1073   8.1359   8.2787
     8.3089   8.4642   8.5426   8.6025   9.1263   9.2397   9.2972   9.4025
     9.4485   9.5310   9.6245   9.6657   9.6955   9.7541   9.9021   9.9435
    10.5859  10.7424  10.8961  10.9525  10.9922  11.0375  11.0571  11.1948
    11.3541  11.4847  11.5644  11.6065  11.7934  11.8207  11.8441  11.8836
    11.9632  11.9737  12.1291  12.2802  12.3227  12.3279  12.4286  12.4544
    12.4997  12.5308  12.5414  12.6750  12.7557  12.7756  12.8280  12.8865
    12.9920  13.0116  13.1428  13.1834  13.1845  13.2241  13.2937  13.4316
    13.5040  13.5366  13.6312  13.6740  13.6808  13.6915  13.7664  13.8885
    13.9010  13.9793  14.0227  14.2084  14.2219  14.2631  14.2764  14.2965
    14.3420  14.3491  14.4165  14.4346  14.5104  14.5623  14.6103  14.6194
    14.6597  14.6670  14.7324  14.7904  14.8180  14.8408  14.9137  15.0000
    15.0644  15.0824  15.1672  15.2517  15.3240  15.3913  15.4244  15.5387
    15.5548  15.6200  15.6994  15.7335  15.8108  15.8711  15.9027  15.9716
    16.0264  16.0865  16.1199  16.1610  16.4183  16.5333  16.5786  16.6210
    16.7158  16.8061  17.0962  17.1312  17.1507  17.1840  17.3635  17.3783
    17.4109  17.4306  17.6045  17.6152  17.6543  17.7640  17.7981  17.8078
    17.9384  17.9555  18.0615  18.1519  18.2023  18.3115  18.5371  18.5521
    18.5660  18.6902  18.7002  18.8315  18.8736  18.9123  19.0328  19.0454
    19.1173  19.2577  19.4045  19.5047  19.6044  19.6404  19.7540  19.7825
    19.7996  19.8828  19.9657  20.0854  20.1301  20.2032  20.2526  20.2885
    20.3185  20.3687  20.3982  20.4311  20.4755  20.5093  20.6040

          k =-0.2500 0.2118 0.0000 ( 32165 PWs)   bands (ev):

   -56.0588 -55.9935 -55.6875 -55.6301 -55.6271 -55.5165 -55.4982 -55.4426
   -32.8720 -32.2661 -32.2009 -32.1585 -32.1258 -32.1202 -32.1118 -32.0516
   -31.9900 -31.9671 -31.9469 -31.9363 -31.8703 -31.8681 -31.8207 -31.6920
   -31.6393 -31.5640 -31.5041 -31.4991 -31.4544 -31.3782 -31.3323 -31.2454
   -22.4624 -20.1397 -19.9559 -19.1691 -18.9054 -18.7728 -18.6908 -18.6361
   -18.5998 -18.5760 -18.5491 -18.5321 -17.9514 -17.8994 -17.8539 -17.8254
   -17.7899 -17.7195 -17.5641 -16.1228  -8.6171  -8.2862  -7.8325  -7.3830
    -6.8727  -6.7022  -6.5931  -6.4491  -6.3202  -6.2890  -6.1240  -6.0692
    -5.9905  -5.9793  -5.7868  -5.6968  -5.6800  -5.6154  -5.4239  -5.4011
    -5.3699  -5.2202  -5.0315  -4.9385  -4.8030  -4.6970  -4.4719  -4.4250
    -4.3590  -4.2336  -4.1174  -4.0866  -4.0232  -3.9846  -3.8475  -3.8070
    -3.7548  -3.7332  -3.6958  -3.6114  -3.5028  -3.4152  -3.3591  -3.3096
    -3.2336  -3.0984  -3.0196  -2.9355  -2.8869  -2.8286  -2.7454  -2.6090
    -2.5525  -2.5162  -2.3862  -2.3472  -2.0486  -1.8865  -0.8473  -0.1715
     0.5348   0.5984   1.1493   1.2499   1.5607   1.7871   1.9255   1.9827
     2.1463   2.3202   2.3644   2.4402   2.5297   2.5661   2.6373   2.7837
     2.8526   2.9088   2.9770   3.0229   3.1043   3.1689   3.2164   3.4660
     3.7383   4.1439   4.3533   4.4600   4.7185   4.8287   5.0431   5.2454
     5.2721   5.3040   5.4860   5.5423   5.6461   5.7188   5.8521   5.8702
     5.9833   6.0495   6.1246   6.2092   6.4266   6.5473   6.5897   6.7346
     6.7995   6.8671   6.9145   7.0862   7.1790   7.3557   7.4356   7.4719
     7.6477   7.8087   7.8825   8.0102   8.0902   8.1395   8.3163   8.3499
     8.5219   8.6063   8.7174   8.7917   8.9517   8.9875   9.0592   9.2441
     9.3276   9.4021   9.4597   9.5536   9.6653   9.7821   9.8749   9.9414
    10.0518  10.1281  10.2116  10.3197  10.4054  10.4411  10.6064  10.7750
    10.8366  10.9854  11.0273  11.1093  11.1637  11.2024  11.3219  11.3931
    11.4732  11.5874  11.6162  11.6537  11.6816  11.8491  11.8922  12.0057
    12.1191  12.1749  12.2271  12.3103  12.4489  12.5412  12.6122  12.7100
    12.7417  12.7826  12.8749  12.9063  12.9394  13.0015  13.0565  13.1729
    13.2271  13.3152  13.3584  13.4218  13.4972  13.5869  13.6249  13.7034
    13.7639  13.8627  13.9137  14.0005  14.0428  14.0966  14.1302  14.2395
    14.3022  14.3909  14.4307  14.4683  14.6498  14.7399  14.8357  14.8794
    14.9556  15.1140  15.1587  15.2361  15.2964  15.3155  15.4045  15.4462
    15.4869  15.5593  15.5884  15.6970  15.7564  15.7996  15.8604  15.8906
    15.9828  16.0430  16.1245  16.1905  16.2833  16.3526  16.3781  16.4408
    16.5543  16.6748  16.6962  16.7512  16.7764  16.8745  16.9173  17.0255
    17.0627  17.1105  17.1808  17.2368  17.3077  17.3685  17.4547  17.4763
    17.5592  17.6201  17.6888  17.8235  17.8703  17.9179  17.9670  18.0590
    18.1176  18.2178  18.3008  18.3445  18.4049  18.5363  18.5726  18.6194
    18.6575  18.7266  18.8046  18.8726  18.9584  18.9993  19.0724  19.0885
    19.1903  19.2706  19.3037  19.3571  19.4363  19.4592  19.5199  19.6171
    19.6844  19.7463  19.7727  19.8131  19.8794  19.9167  19.9770  20.0290
    20.0682  20.1459  20.1688  20.2367  20.2871  20.3495  20.4099

     the Fermi energy is     1.1768 ev

!    total energy              =   -1593.93584906 Ry
     Harris-Foulkes estimate   =   -1593.93584906 Ry
     estimated scf accuracy    <          4.0E-09 Ry

     The total energy is the sum of the following terms:

     one-electron contribution =  -19371.14053500 Ry
     hartree contribution      =    9718.70500338 Ry
     xc contribution           =    -294.65306136 Ry
     ewald contribution        =    8351.38232192 Ry
     Hubbard energy            =       1.77004995 Ry
     smearing contrib. (-TS)   =       0.00037205 Ry

     convergence has been achieved in  10 iterations

     Forces acting on atoms (Ry/au):


     negative rho (up, down):  0.335E-02 0.000E+00
     atom    1 type  1   force =     0.00175389   -0.00024760    0.00057211
     atom    2 type  1   force =    -0.00062669   -0.00028024    0.00007395
     atom    3 type  2   force =     0.01253599    0.00056882    0.00094414
     atom    4 type  2   force =    -0.00443876   -0.00031431    0.00001951
     atom    5 type  1   force =    -0.00331241   -0.01394423   -0.00009289
     atom    6 type  1   force =    -0.00221114    0.01433897   -0.00008741
     atom    7 type  1   force =    -0.00017175    0.00096996   -0.00083839
     atom    8 type  1   force =     0.00174389    0.00031978   -0.00043965
     atom    9 type  2   force =     0.00039994    0.00140915   -0.00007557
     atom   10 type  2   force =     0.00018089   -0.00044190    0.00012441
     atom   11 type  1   force =    -0.01528032   -0.01232108   -0.00024470
     atom   12 type  1   force =    -0.01487749    0.01250359   -0.00047428
     atom   13 type  1   force =     0.00037387   -0.00093907    0.00013782
     atom   14 type  1   force =     0.00099155    0.00012350    0.00062278
     atom   15 type  1   force =    -0.00066876   -0.00006360    0.00013471
     atom   16 type  2   force =    -0.01071838    0.00059640    0.00094138
     atom   17 type  2   force =    -0.00428512   -0.00020209    0.00001755
     atom   18 type  1   force =     0.00447243   -0.01383144   -0.00008960
     atom   19 type  1   force =     0.00315101    0.01421389   -0.00007886
     atom   20 type  1   force =    -0.00003248   -0.00823334    0.00026230
     atom   21 type  1   force =     0.00182957   -0.00001594    0.00007945
     atom   22 type  2   force =    -0.00093765    0.00140123   -0.00008569
     atom   23 type  2   force =     0.00008244    0.00860601    0.00095320
     atom   24 type  1   force =     0.01526491   -0.01233172   -0.00024456
     atom   25 type  1   force =     0.01486656    0.01251371   -0.00047121
     atom   26 type  1   force =     0.00041942   -0.00370321    0.00017315
     atom   27 type  3   force =     0.00000039    0.00015628   -0.00093852
     atom   28 type  3   force =     0.00000192   -0.00043559   -0.00059483
     atom   29 type  3   force =    -0.00025810    0.00000434    0.00025099
     atom   30 type  3   force =    -0.00024467   -0.00002882    0.00023090
     atom   31 type  1   force =    -0.00000633   -0.00057513   -0.00086599
     atom   32 type  1   force =     0.00000323   -0.00007062    0.00002406
     atom   33 type  3   force =    -0.00000186    0.00025432    0.00005972

     Total force =     0.002814     Total SCF correction =     0.000163


     entering subroutine stress ...


     negative rho (up, down):  0.335E-02 0.000E+00
          total   stress  (Ry/bohr**3)                   (kbar)     P=   -3.52
  -0.00002007  -0.00000006   0.00000187         -2.95     -0.01      0.27
  -0.00000006  -0.00001795   0.00000191         -0.01     -2.64      0.28
   0.00000187   0.00000191  -0.00003374          0.27      0.28     -4.96


     bfgs converged in  15 scf cycles and  14 bfgs steps
     (criteria: energy < 0.10E-03, force < 0.10E-02)

     End of BFGS Geometry Optimization

     Final energy   =   -1593.9358490570 Ry
Begin final coordinates

ATOMIC_POSITIONS (crystal)
O0       0.000000000   0.000000000   0.372348989    0   0   1
O0       0.000000000   0.500000000   0.388220416    0   0   1
Nb1      0.250000000   0.500000000   0.443496642    0   0   1
Nb1      0.000000000   0.000000000   0.445015660    0   0   1
O0       0.250000000   0.790000000   0.446914816    0   0   1
O0       0.250000000   0.210000000   0.446860656    0   0   1
O0       0.000000000   0.500000000   0.500227307    0   0   1
O0       0.000000000   0.000000000   0.523516953    0   0   1
Nb1      0.250000000   0.000000000   0.577585155    0   0   1
Nb1      0.000000000   0.500000000   0.569234539    0   0   1
O0       0.250000000   0.710000000   0.576303503    0   0   1
O0       0.250000000   0.290000000   0.576381023    0   0   1
O0       0.000000000   0.000000000   0.621920635    0   0   1
O0       0.500000000   0.000000000   0.372526085    0   0   1
O0       0.500000000   0.500000000   0.388922541    0   0   1
Nb1      0.750000000   0.500000000   0.443509457    0   0   1
Nb1      0.500000000   0.000000000   0.445354058    0   0   1
O0       0.750000000   0.790000000   0.446895756    0   0   1
O0       0.750000000   0.210000000   0.446865482    0   0   1
O0       0.500000000   0.500000000   0.500417401    0   0   1
O0       0.500000000   0.000000000   0.523360038    0   0   1
Nb1      0.750000000   0.000000000   0.577580038    0   0   1
Nb1      0.500000000   0.500000000   0.575581741    0   0   1
O0       0.750000000   0.710000000   0.576305179    0   0   1
O0       0.750000000   0.290000000   0.576388968    0   0   1
O0       0.500000000   0.000000000   0.621641958    0   0   1
H2      -0.000507696   0.505331684   0.351979408
H2       0.499485054   0.499596008   0.352646313
H2       0.150707812   0.000841067   0.356559068
H2       0.650281750   0.000544305   0.356584891
O0       0.499981361   0.503006328   0.648876535
O0       0.500004873   0.346563050   0.684131729
H2       0.499992499   0.421144820   0.715107058
End final coordinates



     init_run     :    107.56s CPU    109.99s WALL (       1 calls)
     electrons    :  32576.16s CPU  33570.13s WALL (      15 calls)
     update_pot   :    280.69s CPU    287.35s WALL (      14 calls)
     forces       :   1997.61s CPU   2037.70s WALL (      15 calls)
     stress       :  10101.71s CPU  10379.58s WALL (      15 calls)

     Called by init_run:
     wfcinit      :     38.29s CPU     39.54s WALL (       1 calls)
     potinit      :      7.50s CPU      7.83s WALL (       1 calls)

     Called by electrons:
     c_bands      :  17182.00s CPU  17658.42s WALL (     182 calls)
     sum_band     :   6631.89s CPU   6804.55s WALL (     182 calls)
     v_of_rho     :    189.60s CPU    199.37s WALL (     186 calls)
     newd         :   9112.24s CPU   9171.06s WALL (     186 calls)
     mix_rho      :     32.43s CPU     33.09s WALL (     182 calls)

     Called by c_bands:
     init_us_2    :     64.57s CPU     65.05s WALL (    1680 calls)
     cegterg      :  16923.38s CPU  17316.20s WALL (     546 calls)

     Called by *egterg:
     h_psi        :   9911.06s CPU  10126.13s WALL (    1661 calls)
     s_psi        :   1406.94s CPU   1424.90s WALL (    2156 calls)
     g_psi        :     21.65s CPU     21.73s WALL (    1112 calls)
     cdiaghg      :   1496.37s CPU   1500.90s WALL (    1583 calls)

     Called by h_psi:
     add_vuspsi   :   1002.33s CPU   1016.99s WALL (    1661 calls)
     vhpsi        :   1105.63s CPU   1115.70s WALL (    1661 calls)

     General routines
     calbec       :   3441.65s CPU   3487.98s WALL (   19219 calls)
     fft          :    267.54s CPU    331.04s WALL (    3349 calls)
     ffts         :      3.30s CPU      3.38s WALL (     368 calls)
     fftw         :   5487.00s CPU   5714.31s WALL (  975812 calls)
     interpolate  :     28.63s CPU     29.01s WALL (     368 calls)
     davcio       :      0.15s CPU     33.20s WALL (    2085 calls)

     Parallel routines
     fft_scatter  :   2025.64s CPU   2305.39s WALL (  979529 calls)
     Hubbard U routines
     new_ns       :    238.28s CPU    250.46s WALL (     182 calls)
     vhpsi        :   1105.63s CPU   1115.70s WALL (    1661 calls)
     force_hub    :    579.98s CPU    589.66s WALL (      15 calls)
     stres_hub    :   5305.57s CPU   5408.29s WALL (      15 calls)

     PWSCF        :    12h44m CPU       13h 7m WALL


   This run was terminated on:  19:57:58   1Jun2014            

=------------------------------------------------------------------------------=
   JOB DONE.
=------------------------------------------------------------------------------=
