
     Program PWSCF v.5.0.2 (svn rev. 9656) starts on 24Mar2014 at 18:48:30 

     This program is part of the open-source Quantum ESPRESSO suite
     for quantum simulation of materials; please cite
         "P. Giannozzi et al., J. Phys.:Condens. Matter 21 395502 (2009);
          URL http://www.quantum-espresso.org", 
     in publications or presentations arising from this work. More details at
     http://www.quantum-espresso.org/quote.php

     Parallel version (MPI), running on    16 processors
     R & G space division:  proc/nbgrp/npool/nimage =      16

     Current dimensions of program PWSCF are:
     Max number of different atomic species (ntypx) = 10
     Max number of k-points (npk) =  40000
     Max angular momentum in pseudopotentials (lmaxx) =  3
     Reading input from pwscf.in
Warning: card &CELL ignored
Warning: card / ignored

     Subspace diagonalization in iterative solution of the eigenvalue problem:
     a serial algorithm will be used


     Parallelization info
     --------------------
     sticks:   dense  smooth     PW     G-vecs:    dense   smooth      PW
     Min         372     118     33                88474    15968    2355
     Max         373     119     34                88487    16039    2367
     Sum        5965    1901    531              1415713   256153   37769



     bravais-lattice index     =            0
     lattice parameter (alat)  =      12.2076  a.u.
     unit-cell volume          =    7496.5096 (a.u.)^3
     number of atoms/cell      =           31
     number of atomic types    =            3
     number of electrons       =       246.00
     number of Kohn-Sham states=          369
     kinetic-energy cutoff     =      40.0000  Ry
     charge density cutoff     =     500.0000  Ry
     convergence threshold     =      1.0E-06
     mixing beta               =       0.3000
     number of iterations used =            8  plain     mixing
     Exchange-correlation      = SLA  PW   PBE  PBE ( 1 4 3 4 0)
     EXX-fraction              =        0.00
     nstep                     =           50


     celldm(1)=  12.207631  celldm(2)=   0.000000  celldm(3)=   0.000000
     celldm(4)=   0.000000  celldm(5)=   0.000000  celldm(6)=   0.000000

     crystal axes: (cart. coord. in units of alat)
               a(1) = (   1.000000   0.000000   0.000000 )  
               a(2) = (   0.000000   1.004836   0.000000 )  
               a(3) = (   0.000000   0.000000   4.100811 )  

     reciprocal axes: (cart. coord. in units 2 pi/alat)
               b(1) = (  1.000000  0.000000  0.000000 )  
               b(2) = (  0.000000  0.995187  0.000000 )  
               b(3) = (  0.000000  0.000000  0.243854 )  


     PseudoPot. # 1 for O  read from file:
     /home/camp/zhonxu/pseudo/o_pbe_v1.01.uspp.F.UPF
     MD5 check sum: 2bcb18d16ea4b960afae9ec6d52f22d2
     Pseudo is Ultrasoft + core correction, Zval =  6.0
     Generated by new atomic code, or converted to UPF format
     Using radial grid of  737 points,  5 beta functions with: 
                l(1) =   0
                l(2) =   0
                l(3) =   1
                l(4) =   1
                l(5) =   2
     Q(r) pseudized with  8 coefficients,  rinner =    0.900   0.900   0.900
                                                       0.900   0.900

     PseudoPot. # 2 for Pt read from file:
     /home/camp/zhonxu/pseudo/pt_pbe_v1.uspp.F.UPF
     MD5 check sum: 4c71d6ad5ef119f1eb26a4d0b7884226
     Pseudo is Ultrasoft + core correction, Zval = 16.0
     Generated by new atomic code, or converted to UPF format
     Using radial grid of  985 points,  6 beta functions with: 
                l(1) =   0
                l(2) =   0
                l(3) =   1
                l(4) =   1
                l(5) =   2
                l(6) =   2
     Q(r) pseudized with  8 coefficients,  rinner =    1.300   1.300   1.300
                                                       1.300   1.300

     PseudoPot. # 3 for H  read from file:
     /home/camp/zhonxu/pseudo/h_pbe_v1.uspp.F.UPF
     MD5 check sum: 3408e3ff4ec8b0a4e358431e7e038a48
     Pseudo is Ultrasoft, Zval =  1.0
     Generated by new atomic code, or converted to UPF format
     Using radial grid of  615 points,  2 beta functions with: 
                l(1) =   0
                l(2) =   0
     Q(r) pseudized with  8 coefficients,  rinner =    0.700

     atomic species   valence    mass     pseudopotential
        O0             6.00    15.99940     O ( 1.00)
        Pt1           16.00   195.08000     Pt( 1.00)
        H2             1.00     1.00794     H ( 1.00)

     Starting magnetic structure 
     atomic species   magnetization
        O0           0.000
        Pt1          0.000
        H2           0.000

     No symmetry found



   Cartesian axes

     site n.     atom                  positions (alat units)
         1           O0  tau(   1) = (   0.0000000   0.0000000   1.5457188  )
         2           O0  tau(   2) = (   0.0000000   0.5024180   1.6369208  )
         3           Pt1 tau(   3) = (   0.2500000   0.5024180   1.8413872  )
         4           Pt1 tau(   4) = (   0.0000000   0.0000000   1.8534436  )
         5           O0  tau(   5) = (   0.2500000   0.8139171   1.8157162  )
         6           O0  tau(   6) = (   0.2500000   0.1909188   1.8824364  )
         7           O0  tau(   7) = (   0.0000000   0.5024180   2.0315829  )
         8           O0  tau(   8) = (   0.0000000   0.0000000   2.1708464  )
         9           Pt1 tau(   9) = (   0.2500000   0.0000000   2.3625593  )
        10           Pt1 tau(  10) = (   0.0000000   0.5024180   2.3549318  )
        11           O0  tau(  11) = (   0.2500000   0.6933368   2.3911010  )
        12           O0  tau(  12) = (   0.2500000   0.3114991   2.3934384  )
        13           O0  tau(  13) = (   0.0000000   0.0000000   2.5491052  )
        14           O0  tau(  14) = (   0.5000000   0.0000000   1.5457188  )
        15           O0  tau(  15) = (   0.5000000   0.5024180   1.6369208  )
        16           Pt1 tau(  16) = (   0.7500000   0.5024180   1.8413872  )
        17           Pt1 tau(  17) = (   0.5000000   0.0000000   1.8534436  )
        18           O0  tau(  18) = (   0.7500000   0.8139171   1.8157162  )
        19           O0  tau(  19) = (   0.7500000   0.1909188   1.8824364  )
        20           O0  tau(  20) = (   0.5000000   0.5024180   2.0315829  )
        21           O0  tau(  21) = (   0.5000000   0.0000000   2.1708464  )
        22           Pt1 tau(  22) = (   0.7500000   0.0000000   2.3625593  )
        23           Pt1 tau(  23) = (   0.5000000   0.5024180   2.3549318  )
        24           O0  tau(  24) = (   0.7500000   0.6933368   2.3911010  )
        25           O0  tau(  25) = (   0.7500000   0.3114991   2.3934384  )
        26           O0  tau(  26) = (   0.5000000   0.0000000   2.5491052  )
        27           H2  tau(  27) = (  -0.0000500   0.6431553   1.5728661  )
        28           H2  tau(  28) = (   0.4999500   0.6431553   1.5728661  )
        29           H2  tau(  29) = (   0.1440700   0.0315318   1.5048747  )
        30           H2  tau(  30) = (   0.6440700   0.0315318   1.5048747  )
        31           O0  tau(  31) = (   0.5000000   0.5024180   2.5591112  )

     number of k points=    20  Methfessel-Paxton smearing, width (Ry)=  0.0100
                       cart. coord. in units 2pi/alat
        k(    1) = (   0.0000000   0.0000000   0.0000000), wk =   0.0625000
        k(    2) = (   0.0000000   0.2487968   0.0000000), wk =   0.1250000
        k(    3) = (   0.0000000  -0.4975937   0.0000000), wk =   0.0625000
        k(    4) = (   0.2500000   0.0000000   0.0000000), wk =   0.1250000
        k(    5) = (   0.2500000   0.2487968   0.0000000), wk =   0.1250000
        k(    6) = (   0.2500000  -0.4975937   0.0000000), wk =   0.1250000
        k(    7) = (  -0.5000000   0.0000000   0.0000000), wk =   0.0625000
        k(    8) = (  -0.5000000   0.2487968   0.0000000), wk =   0.1250000
        k(    9) = (  -0.5000000  -0.4975937   0.0000000), wk =   0.0625000
        k(   10) = (  -0.2500000   0.2487968   0.0000000), wk =   0.1250000
        k(   11) = (   0.0000000   0.0000000   0.0000000), wk =   0.0625000
        k(   12) = (   0.0000000   0.2487968   0.0000000), wk =   0.1250000
        k(   13) = (   0.0000000  -0.4975937   0.0000000), wk =   0.0625000
        k(   14) = (   0.2500000   0.0000000   0.0000000), wk =   0.1250000
        k(   15) = (   0.2500000   0.2487968   0.0000000), wk =   0.1250000
        k(   16) = (   0.2500000  -0.4975937   0.0000000), wk =   0.1250000
        k(   17) = (  -0.5000000   0.0000000   0.0000000), wk =   0.0625000
        k(   18) = (  -0.5000000   0.2487968   0.0000000), wk =   0.1250000
        k(   19) = (  -0.5000000  -0.4975937   0.0000000), wk =   0.0625000
        k(   20) = (  -0.2500000   0.2487968   0.0000000), wk =   0.1250000

     Dense  grid:  1415713 G-vectors     FFT dimensions: (  90,  90, 360)

     Smooth grid:   256153 G-vectors     FFT dimensions: (  50,  50, 216)

     Largest allocated arrays     est. size (Mb)     dimensions
        Kohn-Sham Wavefunctions        11.48 Mb     (   2039,  369)
        NL pseudopotentials            12.41 Mb     (   2039,  399)
        Each V/rho on FFT grid          5.69 Mb     ( 186300,   2)
        Each G-vector array             0.68 Mb     (  88483)
        G-vector shells                 0.32 Mb     (  42478)
     Largest temporary arrays     est. size (Mb)     dimensions
        Auxiliary wavefunctions        45.92 Mb     (   2039, 1476)
        Each subspace H/S matrix       33.24 Mb     (1476,1476)
        Each <psi_i|beta_j> matrix      2.25 Mb     (    399,  369)
        Arrays for rho mixing          22.74 Mb     ( 186300,   8)

     Check: negative/imaginary core charge=   -0.000003    0.000000

     Initial potential from superposition of free atoms
     Check: negative starting charge=(component1):   -0.767504
     Check: negative starting charge=(component2):   -0.767504

     starting charge  241.99985, renormalised to  246.00000

     negative rho (up, down):  0.780E+00 0.780E+00
     Starting wfc are  176 randomized atomic wfcs

     total cpu time spent up to now is      150.5 secs

     per-process dynamical memory:   318.9 Mb

     Self-consistent Calculation

     iteration #  1     ecut=    40.00 Ry     beta=0.30
     Davidson diagonalization with overlap
     ethr =  1.00E-02,  avg # of iterations =  5.1

     negative rho (up, down):  0.770E+00 0.770E+00

     total cpu time spent up to now is     1185.9 secs

     total energy              =   -2274.31979254 Ry
     Harris-Foulkes estimate   =   -2286.24149933 Ry
     estimated scf accuracy    <      25.72896048 Ry

     total magnetization       =     0.00 Bohr mag/cell
     absolute magnetization    =     0.01 Bohr mag/cell

     iteration #  2     ecut=    40.00 Ry     beta=0.30
     Davidson diagonalization with overlap
     ethr =  1.00E-02,  avg # of iterations =  2.0

     negative rho (up, down):  0.777E+00 0.777E+00

     total cpu time spent up to now is     1598.3 secs

     total energy              =   -2274.49293785 Ry
     Harris-Foulkes estimate   =   -2281.91607482 Ry
     estimated scf accuracy    <      28.99527992 Ry

     total magnetization       =     0.00 Bohr mag/cell
     absolute magnetization    =     0.01 Bohr mag/cell

     iteration #  3     ecut=    40.00 Ry     beta=0.30
     Davidson diagonalization with overlap
     ethr =  1.00E-02,  avg # of iterations =  2.1

     negative rho (up, down):  0.781E+00 0.781E+00

     total cpu time spent up to now is     2031.0 secs

     total energy              =   -2274.59177548 Ry
     Harris-Foulkes estimate   =   -2285.52489920 Ry
     estimated scf accuracy    <     134.92113513 Ry

     total magnetization       =     0.00 Bohr mag/cell
     absolute magnetization    =     0.00 Bohr mag/cell

     iteration #  4     ecut=    40.00 Ry     beta=0.30
     Davidson diagonalization with overlap
     ethr =  1.00E-02,  avg # of iterations =  2.0

     negative rho (up, down):  0.784E+00 0.784E+00

     total cpu time spent up to now is     2462.4 secs

     total energy              =   -2279.93126341 Ry
     Harris-Foulkes estimate   =   -2281.24157917 Ry
     estimated scf accuracy    <       7.80664809 Ry

     total magnetization       =    -0.00 Bohr mag/cell
     absolute magnetization    =     0.00 Bohr mag/cell

     iteration #  5     ecut=    40.00 Ry     beta=0.30
     Davidson diagonalization with overlap
     ethr =  3.17E-03,  avg # of iterations =  1.1

     negative rho (up, down):  0.785E+00 0.785E+00

     total cpu time spent up to now is     2854.4 secs

     total energy              =   -2280.07987607 Ry
     Harris-Foulkes estimate   =   -2280.27351567 Ry
     estimated scf accuracy    <       1.55765051 Ry

     total magnetization       =    -0.00 Bohr mag/cell
     absolute magnetization    =     0.00 Bohr mag/cell

     iteration #  6     ecut=    40.00 Ry     beta=0.30
     Davidson diagonalization with overlap
     ethr =  6.33E-04,  avg # of iterations =  5.3

     negative rho (up, down):  0.787E+00 0.787E+00

     total cpu time spent up to now is     3467.4 secs

     total energy              =   -2280.07519257 Ry
     Harris-Foulkes estimate   =   -2280.13495473 Ry
     estimated scf accuracy    <       0.60809056 Ry

     total magnetization       =    -0.00 Bohr mag/cell
     absolute magnetization    =     0.00 Bohr mag/cell

     iteration #  7     ecut=    40.00 Ry     beta=0.30
     Davidson diagonalization with overlap
     ethr =  2.47E-04,  avg # of iterations =  4.7

     negative rho (up, down):  0.788E+00 0.787E+00

     total cpu time spent up to now is     4085.3 secs

     total energy              =   -2279.98516762 Ry
     Harris-Foulkes estimate   =   -2280.09870737 Ry
     estimated scf accuracy    <       0.48561952 Ry

     total magnetization       =     0.00 Bohr mag/cell
     absolute magnetization    =     0.00 Bohr mag/cell

     iteration #  8     ecut=    40.00 Ry     beta=0.30
     Davidson diagonalization with overlap
     ethr =  1.97E-04,  avg # of iterations =  1.0

     negative rho (up, down):  0.788E+00 0.788E+00

     total cpu time spent up to now is     4473.4 secs

     total energy              =   -2280.01393677 Ry
     Harris-Foulkes estimate   =   -2280.09885506 Ry
     estimated scf accuracy    <       1.64513469 Ry

     total magnetization       =     0.00 Bohr mag/cell
     absolute magnetization    =     0.00 Bohr mag/cell

     iteration #  9     ecut=    40.00 Ry     beta=0.30
     Davidson diagonalization with overlap
     ethr =  1.97E-04,  avg # of iterations =  1.0

     negative rho (up, down):  0.789E+00 0.789E+00

     total cpu time spent up to now is     4860.9 secs

     total energy              =   -2280.02288915 Ry
     Harris-Foulkes estimate   =   -2280.05309146 Ry
     estimated scf accuracy    <       0.15794681 Ry

     total magnetization       =     0.00 Bohr mag/cell
     absolute magnetization    =     0.00 Bohr mag/cell

     iteration # 10     ecut=    40.00 Ry     beta=0.30
     Davidson diagonalization with overlap
     ethr =  6.42E-05,  avg # of iterations =  2.8

     negative rho (up, down):  0.790E+00 0.790E+00

     total cpu time spent up to now is     5301.3 secs

     total energy              =   -2280.03999004 Ry
     Harris-Foulkes estimate   =   -2280.05924538 Ry
     estimated scf accuracy    <       0.45306756 Ry

     total magnetization       =    -0.00 Bohr mag/cell
     absolute magnetization    =     0.00 Bohr mag/cell

     iteration # 11     ecut=    40.00 Ry     beta=0.30
     Davidson diagonalization with overlap
     ethr =  6.42E-05,  avg # of iterations =  1.0

     negative rho (up, down):  0.791E+00 0.791E+00

     total cpu time spent up to now is     5686.8 secs

     total energy              =   -2280.03753559 Ry
     Harris-Foulkes estimate   =   -2280.04734360 Ry
     estimated scf accuracy    <       0.13796104 Ry

     total magnetization       =    -0.00 Bohr mag/cell
     absolute magnetization    =     0.00 Bohr mag/cell

     iteration # 12     ecut=    40.00 Ry     beta=0.30
     Davidson diagonalization with overlap
     ethr =  5.61E-05,  avg # of iterations =  1.0

     negative rho (up, down):  0.791E+00 0.791E+00

     total cpu time spent up to now is     6074.9 secs

     total energy              =   -2280.04116931 Ry
     Harris-Foulkes estimate   =   -2280.04202104 Ry
     estimated scf accuracy    <       0.00534561 Ry

     total magnetization       =     0.00 Bohr mag/cell
     absolute magnetization    =     0.00 Bohr mag/cell

     iteration # 13     ecut=    40.00 Ry     beta=0.30
     Davidson diagonalization with overlap
     ethr =  2.17E-06,  avg # of iterations =  7.7

     negative rho (up, down):  0.791E+00 0.791E+00

     total cpu time spent up to now is     6695.0 secs

     total energy              =   -2280.04051900 Ry
     Harris-Foulkes estimate   =   -2280.04206710 Ry
     estimated scf accuracy    <       0.01890633 Ry

     total magnetization       =     0.00 Bohr mag/cell
     absolute magnetization    =     0.00 Bohr mag/cell

     iteration # 14     ecut=    40.00 Ry     beta=0.30
     Davidson diagonalization with overlap
     ethr =  2.17E-06,  avg # of iterations =  1.0

     negative rho (up, down):  0.791E+00 0.791E+00

     total cpu time spent up to now is     7081.1 secs

     total energy              =   -2280.04118692 Ry
     Harris-Foulkes estimate   =   -2280.04168303 Ry
     estimated scf accuracy    <       0.00685540 Ry

     total magnetization       =     0.00 Bohr mag/cell
     absolute magnetization    =     0.00 Bohr mag/cell

     iteration # 15     ecut=    40.00 Ry     beta=0.30
     Davidson diagonalization with overlap
     ethr =  2.17E-06,  avg # of iterations =  1.0

     negative rho (up, down):  0.791E+00 0.791E+00

     total cpu time spent up to now is     7467.7 secs

     total energy              =   -2280.04134359 Ry
     Harris-Foulkes estimate   =   -2280.04148235 Ry
     estimated scf accuracy    <       0.00078222 Ry

     total magnetization       =     0.00 Bohr mag/cell
     absolute magnetization    =     0.00 Bohr mag/cell

     iteration # 16     ecut=    40.00 Ry     beta=0.30
     Davidson diagonalization with overlap
     ethr =  3.18E-07,  avg # of iterations =  1.0

     negative rho (up, down):  0.792E+00 0.792E+00

     total cpu time spent up to now is     7855.2 secs

     total energy              =   -2280.04139842 Ry
     Harris-Foulkes estimate   =   -2280.04143689 Ry
     estimated scf accuracy    <       0.00030767 Ry

     total magnetization       =     0.00 Bohr mag/cell
     absolute magnetization    =     0.00 Bohr mag/cell

     iteration # 17     ecut=    40.00 Ry     beta=0.30
     Davidson diagonalization with overlap
     ethr =  1.25E-07,  avg # of iterations =  1.0

     negative rho (up, down):  0.792E+00 0.792E+00

     total cpu time spent up to now is     8248.6 secs

     total energy              =   -2280.04141423 Ry
     Harris-Foulkes estimate   =   -2280.04141928 Ry
     estimated scf accuracy    <       0.00003133 Ry

     total magnetization       =     0.00 Bohr mag/cell
     absolute magnetization    =     0.00 Bohr mag/cell

     iteration # 18     ecut=    40.00 Ry     beta=0.30
     Davidson diagonalization with overlap
     ethr =  1.27E-08,  avg # of iterations =  1.0

     negative rho (up, down):  0.792E+00 0.792E+00

     total cpu time spent up to now is     8647.8 secs

     total energy              =   -2280.04141588 Ry
     Harris-Foulkes estimate   =   -2280.04141654 Ry
     estimated scf accuracy    <       0.00000372 Ry

     total magnetization       =     0.00 Bohr mag/cell
     absolute magnetization    =     0.00 Bohr mag/cell

     iteration # 19     ecut=    40.00 Ry     beta=0.30
     Davidson diagonalization with overlap
     ethr =  1.51E-09,  avg # of iterations =  1.0

     negative rho (up, down):  0.792E+00 0.792E+00

     total cpu time spent up to now is     9036.4 secs

     total energy              =   -2280.04141601 Ry
     Harris-Foulkes estimate   =   -2280.04141676 Ry
     estimated scf accuracy    <       0.00000601 Ry

     total magnetization       =     0.00 Bohr mag/cell
     absolute magnetization    =     0.00 Bohr mag/cell

     iteration # 20     ecut=    40.00 Ry     beta=0.30
     Davidson diagonalization with overlap
     ethr =  1.51E-09,  avg # of iterations =  1.0

     negative rho (up, down):  0.792E+00 0.792E+00

     total cpu time spent up to now is     9420.2 secs

     End of self-consistent calculation

 ------ SPIN UP ------------


          k = 0.0000 0.0000 0.0000 ( 32157 PWs)   bands (ev):

   -61.1072 -57.9169 -57.7733 -55.6607 -55.6104 -55.6087 -55.5766 -55.5555
   -55.5206 -55.4769 -55.4718 -55.4517 -55.4483 -55.3546 -55.3277 -55.2956
   -55.2876 -55.2745 -55.2510 -55.1939 -55.1867 -54.7539 -54.5232 -54.2815
   -24.4082 -21.9104 -21.4979 -21.1676 -21.0017 -20.3565 -20.3090 -20.2950
   -20.2082 -20.0920 -20.0597 -20.0539 -19.9486 -19.9094 -19.6805 -19.6504
   -19.6285 -18.7032 -18.5550 -12.9644 -12.9143 -11.5534 -10.3268 -10.2866
    -9.7784  -9.3239  -9.2818  -8.9928  -8.9527  -8.8892  -8.8282  -8.7460
    -8.6417  -8.6018  -8.4710  -8.4475  -8.3731  -8.1214  -8.0605  -7.9836
    -7.6048  -7.4026  -7.3646  -7.1907  -7.0622  -6.8894  -6.8766  -6.5296
    -6.4247  -6.0824  -5.9067  -5.9008  -5.8299  -5.7793  -5.6121  -5.5982
    -5.5614  -5.3985  -5.3640  -5.2460  -5.1088  -5.1007  -5.0267  -4.8983
    -4.8871  -4.6962  -4.6528  -4.5932  -4.5623  -4.5367  -4.5313  -4.4554
    -4.4335  -4.3512  -4.2433  -4.1417  -4.0927  -3.9923  -3.8835  -3.8379
    -3.7734  -3.6576  -3.3788  -3.3357  -3.1831  -2.8639  -2.8271  -2.6532
    -2.6193  -2.5659  -2.3636  -2.3045  -2.0936  -1.9482  -1.8434  -1.7178
    -1.5226  -1.3579  -1.2418  -1.1711  -0.9623  -0.6726  -0.6132  -0.2916
    -0.2322  -0.1896   0.0540   0.3639   0.7539   1.0464   1.3520   1.5329
     1.5467   1.6097   2.1506   2.4143   3.1913   4.0979   4.2904   4.7465
     4.8560   5.6450   5.7516   5.9273   5.9756   6.3813   6.6161   6.6884
     6.8882   7.0056   7.0675   7.1653   7.3146   7.4749   7.5891   7.6311
     7.7322   7.8302   7.8325   7.8918   7.9268   7.9748   8.0232   8.0626
     8.1305   8.2229   8.3266   8.4108   8.4906   8.5520   8.6173   8.8134
     8.9318   8.9768   9.0335   9.1527   9.2155   9.4397   9.6164   9.6409
     9.7473   9.8676   9.9723   9.9936  10.0298  10.2063  10.3220  10.3700
    10.5180  10.5394  10.6423  10.8108  10.9059  10.9272  11.0114  11.0244
    11.1043  11.1496  11.1612  11.2165  11.2909  11.4130  11.4987  11.5637
    11.6193  11.6899  11.8053  11.9272  11.9466  11.9701  12.0006  12.0735
    12.1917  12.2219  12.2782  12.3625  12.4036  12.5299  12.5441  12.6295
    12.6635  12.7839  12.9266  13.0804  13.1868  13.2869  13.3728  13.4007
    13.4811  13.5293  13.6287  13.7940  13.8067  13.8253  13.9981  14.0875
    14.1494  14.1935  14.3145  14.4001  14.4996  14.5530  14.6650  14.6745
    14.7366  14.8217  14.8749  14.9058  15.1462  15.2409  15.3597  15.3950
    15.4092  15.5724  15.6503  15.8076  15.8093  15.8667  15.9235  15.9689
    16.0036  16.1152  16.1853  16.4675  16.5174  16.5497  16.5896  16.6200
    16.6583  16.6763  16.6829  16.7160  16.7541  16.8095  16.8408  16.9030
    16.9339  17.0935  17.1732  17.2130  17.3216  17.3942  17.4712  17.5423
    17.7236  17.7599  17.8209  17.9113  17.9222  17.9701  18.0765  18.1109
    18.1545  18.2153  18.2722  18.4305  18.5336  18.5818  18.6315  18.6648
    18.6845  18.7618  18.7848  18.8848  18.9168  18.9429  18.9635  19.0469
    19.0878  19.1372  19.1643  19.2114  19.2824  19.3601  19.4427  19.4897
    19.5351  19.6354  19.6753  19.6846  19.7482  19.7735  19.8960  19.9926
    20.0443  20.0875  20.1263  20.2293  20.2852  20.4338  20.4745  20.5571
    20.5846  20.6641  20.6904  20.8391  20.8874  20.9347  20.9788  20.9980
    21.1314  21.2812  21.3029  21.3425  21.3672  21.3982  21.4460  21.4929
    21.5142  21.6554  21.7063  21.7759  21.7909  21.8578  21.8852  21.9471
    21.9676  21.9891  22.0333  22.0526  22.0663  22.1262  22.1519  22.2135
    22.2334

          k = 0.0000 0.2488 0.0000 ( 32033 PWs)   bands (ev):

   -61.1070 -57.9169 -57.7733 -55.6607 -55.6104 -55.6087 -55.5769 -55.5555
   -55.5206 -55.4766 -55.4716 -55.4517 -55.4483 -55.3547 -55.3277 -55.2955
   -55.2876 -55.2747 -55.2511 -55.1939 -55.1867 -54.7539 -54.5232 -54.2815
   -24.4078 -21.8892 -21.4918 -21.0687 -20.9372 -20.3648 -20.3434 -20.3170
   -20.2697 -20.0755 -20.0650 -20.0432 -19.9493 -19.9261 -19.7783 -19.7084
   -19.6503 -18.7027 -18.5469 -12.9664 -12.8934 -11.5012 -10.0457  -9.8871
    -9.6955  -9.4841  -9.3733  -8.9685  -8.9483  -8.9082  -8.7712  -8.7554
    -8.6592  -8.5915  -8.5067  -8.4650  -8.4266  -8.1673  -8.0103  -7.5251
    -7.4422  -7.3687  -7.1671  -7.0028  -6.9991  -6.8318  -6.8137  -6.7367
    -6.6034  -6.5045  -6.3130  -6.2014  -6.0153  -5.9052  -5.8947  -5.6446
    -5.5944  -5.4938  -5.4293  -5.3616  -5.3096  -5.2196  -5.0918  -5.0421
    -4.9465  -4.8504  -4.6860  -4.6236  -4.5242  -4.4825  -4.3329  -4.2455
    -4.1349  -4.0989  -4.0544  -4.0092  -3.9632  -3.8877  -3.7889  -3.7648
    -3.6704  -3.5947  -3.3832  -3.3684  -3.3060  -3.1818  -3.1529  -2.9525
    -2.7794  -2.5559  -2.3987  -2.1002  -1.9361  -1.8942  -1.8116  -1.7801
    -1.5259  -1.4317  -1.2588  -1.2361  -1.1939  -1.0396  -0.9736  -0.4071
    -0.1728   0.0580   0.5751   0.9642   1.0285   1.2598   1.3305   1.5325
     1.6079   1.6166   2.1514   2.7294   3.2702   4.2359   4.5069   4.9328
     5.0263   5.1392   5.6936   5.8460   6.0009   6.1094   6.3269   6.5353
     6.6906   6.7722   6.8183   7.1185   7.2226   7.2333   7.4302   7.4634
     7.5263   7.7006   7.7722   7.8680   7.9471   8.0699   8.1142   8.1528
     8.2593   8.3005   8.3978   8.5275   8.6270   8.7210   8.8067   8.9620
     9.0674   9.1877   9.2466   9.3366   9.4388   9.4988   9.5934   9.7333
     9.7720   9.8184   9.9399   9.9707  10.0715  10.1427  10.1781  10.2284
    10.3723  10.3778  10.4679  10.5154  10.6277  10.6760  10.8339  10.8833
    11.0372  11.0925  11.1212  11.2753  11.4035  11.4249  11.5415  11.5899
    11.6579  11.7570  11.8434  11.8922  12.1385  12.1948  12.2406  12.3666
    12.4141  12.5005  12.5147  12.5728  12.6390  12.8617  12.8974  12.9846
    13.1389  13.1515  13.2648  13.3488  13.5069  13.5300  13.6088  13.6601
    13.7010  13.7817  13.8153  13.9591  14.0147  14.0291  14.1187  14.2145
    14.2804  14.3466  14.4318  14.5722  14.6486  14.6783  14.7615  14.8087
    14.8497  14.9343  14.9713  15.0675  15.1682  15.2271  15.2778  15.3874
    15.4369  15.5727  15.5969  15.6899  15.7712  15.7983  15.8990  15.9230
    15.9648  16.0135  16.0883  16.1707  16.2204  16.3060  16.3913  16.4600
    16.5523  16.6225  16.6453  16.6698  16.6923  16.7200  16.7320  16.7436
    16.7656  16.8042  16.8743  16.9192  16.9988  17.1273  17.1794  17.2469
    17.3131  17.3982  17.4546  17.5882  17.6610  17.7525  17.9048  17.9676
    17.9991  18.1205  18.1641  18.2343  18.3338  18.3698  18.4700  18.5239
    18.5652  18.6022  18.6838  18.7293  18.7710  18.8139  18.8680  18.9501
    18.9785  19.0452  19.0752  19.0926  19.1175  19.1796  19.2033  19.2474
    19.3730  19.4008  19.4572  19.5034  19.5241  19.5801  19.6536  19.7355
    19.7446  19.8015  19.8494  19.8907  19.9757  20.0370  20.1627  20.2269
    20.2488  20.2801  20.3936  20.4098  20.4754  20.5330  20.5630  20.6226
    20.7579  20.8123  20.8318  20.8585  20.8731  20.9290  21.0121  21.0465
    21.1157  21.1411  21.1998  21.2585  21.2989  21.3537  21.4430  21.4557
    21.5148  21.5813  21.6266  21.7005  21.7270  21.7699  21.8326  21.9749
    22.0171

          k = 0.0000-0.4976 0.0000 ( 31948 PWs)   bands (ev):

   -61.1069 -57.9169 -57.7733 -55.6607 -55.6103 -55.6087 -55.5771 -55.5554
   -55.5207 -55.4763 -55.4714 -55.4517 -55.4483 -55.3548 -55.3278 -55.2953
   -55.2876 -55.2749 -55.2512 -55.1939 -55.1867 -54.7538 -54.5232 -54.2815
   -24.4074 -21.8688 -21.4856 -20.9372 -20.8340 -20.4196 -20.3860 -20.3569
   -20.3308 -20.0929 -20.0726 -20.0264 -19.9480 -19.9380 -19.8703 -19.7647
   -19.6509 -18.7022 -18.5402 -12.9668 -12.8724 -11.4693  -9.9026  -9.6332
    -9.4118  -9.4105  -9.1372  -8.9847  -8.9532  -8.8664  -8.8248  -8.7726
    -8.5694  -8.5534  -8.4773  -8.4579  -8.3863  -8.1968  -7.9141  -7.6967
    -7.5595  -7.4863  -7.3004  -7.0907  -7.0329  -6.9672  -6.7265  -6.5658
    -6.5225  -6.4453  -6.2905  -6.2626  -6.2148  -6.1113  -6.0648  -5.9504
    -5.8697  -5.7583  -5.5512  -5.3285  -5.2506  -5.2016  -5.1902  -5.0942
    -4.9407  -4.8734  -4.7059  -4.6667  -4.4151  -4.2937  -4.2152  -4.1751
    -4.1524  -4.1092  -4.0905  -4.0031  -3.9235  -3.8487  -3.7402  -3.7379
    -3.6889  -3.5343  -3.3196  -3.3030  -3.2148  -3.1753  -3.1060  -3.0849
    -2.8494  -2.6749  -2.3415  -2.1160  -2.1082  -2.0447  -1.8960  -1.8617
    -1.7584  -1.5580  -1.2543  -1.2014  -1.1977  -1.1305  -1.0470  -0.3361
    -0.1563   0.6158   0.7969   0.8255   1.0064   1.1191   1.5606   1.6746
     1.7275   2.0163   2.1521   3.0943   3.7185   4.1406   4.6444   4.8603
     5.0832   5.2531   5.4596   5.6206   5.6938   5.7989   6.2097   6.3541
     6.4593   6.5988   6.6640   7.0375   7.1356   7.1998   7.3930   7.5775
     7.6388   7.6813   7.7558   7.8809   7.9493   8.1680   8.2360   8.3849
     8.5043   8.5924   8.6647   8.7047   8.8099   8.8157   8.8719   8.9009
     8.9100   8.9622   8.9928   9.1145   9.1236   9.1742   9.3054   9.4075
     9.4914   9.5634   9.6675   9.8838   9.9297   9.9448  10.0029  10.0504
    10.3870  10.7128  10.7624  10.8094  10.9202  10.9407  11.0168  11.2623
    11.2901  11.3808  11.4298  11.4450  11.5499  11.6056  11.7048  11.8174
    12.0018  12.0436  12.1041  12.1864  12.2891  12.3730  12.3854  12.4739
    12.5671  12.5814  12.6264  12.7574  12.8171  12.8699  12.9364  12.9621
    13.0878  13.1215  13.1632  13.2767  13.3645  13.4211  13.6108  13.6533
    13.7465  13.8096  13.9932  14.0231  14.0320  14.1029  14.3108  14.3494
    14.3925  14.5518  14.6359  14.7333  14.9199  14.9247  14.9890  15.0221
    15.1292  15.1760  15.2321  15.2719  15.3845  15.4107  15.4981  15.5178
    15.5587  15.7358  15.7667  15.8246  15.8804  15.9352  15.9441  16.0163
    16.0462  16.0880  16.1285  16.1492  16.2399  16.2710  16.3292  16.3397
    16.3831  16.4324  16.4811  16.4856  16.6469  16.6562  16.6668  16.6918
    16.7121  16.7392  16.7431  16.7651  16.7961  16.8542  16.9650  17.0422
    17.1152  17.2261  17.3093  17.3376  17.3539  17.4258  17.5870  17.6163
    17.6637  17.7091  17.7592  17.7794  17.8091  17.8928  17.9539  18.0081
    18.0498  18.1554  18.2461  18.2974  18.3689  18.4059  18.4680  18.4888
    18.5552  18.5967  18.7044  18.7954  18.8790  19.0068  19.0839  19.1019
    19.1862  19.2887  19.3253  19.3719  19.4844  19.5776  19.6119  19.6373
    19.6935  19.7279  19.7877  19.8163  19.8704  19.9201  19.9782  20.0136
    20.0270  20.1057  20.1218  20.1586  20.1996  20.2255  20.2543  20.2957
    20.4049  20.4863  20.5057  20.5625  20.5979  20.6267  20.6710  20.6795
    20.7244  20.8333  20.9026  20.9641  20.9885  21.0132  21.0987  21.2784
    21.3322  21.3454  21.3809  21.4226  21.5535  21.7009  21.7175  21.7619
    21.8219

          k = 0.2500 0.0000 0.0000 ( 32013 PWs)   bands (ev):

   -61.1070 -57.9168 -57.7732 -55.6531 -55.6163 -55.6023 -55.5692 -55.5635
   -55.5281 -55.4762 -55.4725 -55.4512 -55.4488 -55.3545 -55.3278 -55.2945
   -55.2888 -55.2744 -55.2511 -55.1929 -55.1877 -54.7540 -54.5231 -54.2815
   -24.4076 -21.8496 -21.5188 -21.0678 -20.9166 -20.5159 -20.4421 -20.2869
   -20.1403 -20.0588 -20.0266 -20.0030 -19.9467 -19.8937 -19.7382 -19.6861
   -19.6746 -18.7286 -18.6071 -12.9711 -12.9173 -11.5211 -10.1681 -10.1154
    -9.7207  -9.3860  -9.2631  -9.1642  -9.0110  -8.9535  -8.8519  -8.7182
    -8.6630  -8.3307  -8.2452  -8.2080  -8.1718  -8.1278  -7.9856  -7.9181
    -7.7860  -7.4194  -7.3349  -7.2625  -7.0739  -6.8893  -6.7131  -6.4641
    -6.3913  -6.3560  -6.2777  -6.1789  -6.0535  -5.9808  -5.9161  -5.7674
    -5.6675  -5.6036  -5.5188  -5.3551  -5.2354  -5.2014  -5.1649  -5.0512
    -5.0010  -4.9694  -4.9144  -4.7517  -4.7047  -4.6220  -4.5319  -4.5100
    -4.2083  -4.1237  -4.0874  -3.9868  -3.7863  -3.7331  -3.6766  -3.5269
    -3.4978  -3.3532  -3.2303  -3.1759  -3.0631  -2.9584  -2.6209  -2.5183
    -2.4328  -2.4077  -2.3116  -2.2098  -2.1508  -2.0353  -1.8442  -1.7968
    -1.6259  -1.3587  -1.3094  -1.2199  -1.0479  -0.5037  -0.4630  -0.1712
    -0.0764   0.0036   0.1935   0.3528   0.6559   0.8031   1.1152   1.1807
     1.4303   1.5374   1.8242   2.8079   3.3635   4.1807   4.5160   4.9556
     5.0469   5.0634   5.7088   5.9177   6.1053   6.2162   6.3449   6.5767
     6.6353   6.6956   6.9318   7.1194   7.2045   7.2743   7.4178   7.5191
     7.6610   7.7629   7.7960   7.9181   8.0212   8.0765   8.1307   8.1993
     8.2478   8.4150   8.5163   8.5876   8.6256   8.7796   8.7991   8.9600
     9.0276   9.2018   9.2989   9.3385   9.5536   9.5996   9.7268   9.7643
     9.8888   9.9267   9.9650  10.0153  10.0468  10.0845  10.1171  10.2281
    10.2922  10.3383  10.4146  10.5421  10.6016  10.6877  10.7688  10.8787
    10.9250  10.9656  11.1002  11.1265  11.2653  11.3097  11.3262  11.4113
    11.5050  11.7059  11.7580  11.9270  12.0696  12.1324  12.2018  12.3033
    12.4036  12.4524  12.5746  12.6308  12.7151  12.8385  12.9568  13.0702
    13.1166  13.1625  13.2118  13.3167  13.4280  13.5911  13.6052  13.6332
    13.6905  13.7205  13.7595  13.7736  13.8460  13.9097  14.0094  14.0763
    14.1472  14.2713  14.3540  14.3899  14.4627  14.5744  14.6928  14.7261
    14.7813  14.8257  14.9104  15.0373  15.0898  15.1868  15.2679  15.3193
    15.4077  15.4323  15.4949  15.5826  15.6759  15.7517  15.8617  15.8974
    16.0198  16.0642  16.1256  16.1851  16.2133  16.3490  16.3995  16.5186
    16.5750  16.6405  16.6687  16.6834  16.6962  16.7285  16.7450  16.7650
    16.8913  16.9310  17.0083  17.1449  17.1933  17.2847  17.3696  17.4978
    17.5203  17.6293  17.6436  17.7341  17.8442  17.8961  17.9637  17.9844
    18.0890  18.1457  18.1852  18.2839  18.3729  18.4760  18.5624  18.6068
    18.6606  18.7835  18.8084  18.8333  18.8826  18.9114  18.9676  18.9820
    19.0496  19.0902  19.1211  19.1435  19.1619  19.2110  19.2663  19.3048
    19.3242  19.4199  19.4517  19.5039  19.5530  19.6102  19.6466  19.6706
    19.7063  19.7744  19.8446  19.9100  19.9956  20.0447  20.0794  20.0972
    20.2065  20.2872  20.3473  20.4467  20.4764  20.5377  20.5785  20.6197
    20.6733  20.7158  20.7518  20.8037  20.8651  20.9474  20.9852  21.0136
    21.0642  21.0896  21.2041  21.2769  21.3391  21.3548  21.4052  21.4347
    21.5983  21.6424  21.6844  21.7244  21.8346  21.8847  21.9440  22.0257
    22.0605

          k = 0.2500 0.2488 0.0000 ( 32025 PWs)   bands (ev):

   -61.1071 -57.9168 -57.7732 -55.6531 -55.6163 -55.6024 -55.5694 -55.5635
   -55.5282 -55.4759 -55.4723 -55.4512 -55.4488 -55.3546 -55.3279 -55.2943
   -55.2888 -55.2746 -55.2512 -55.1929 -55.1878 -54.7540 -54.5232 -54.2815
   -24.4072 -21.8342 -21.5123 -20.9704 -20.8430 -20.4660 -20.3991 -20.3045
   -20.2060 -20.1346 -20.0778 -20.0455 -19.9193 -19.9102 -19.8311 -19.7437
   -19.6787 -18.7281 -18.6007 -12.9719 -12.8986 -11.4640  -9.9039  -9.7592
    -9.6161  -9.4545  -9.3419  -9.0182  -8.9469  -8.7910  -8.7758  -8.6983
    -8.6877  -8.4828  -8.3483  -8.1839  -8.1358  -8.1022  -7.8869  -7.8078
    -7.6212  -7.4540  -7.3875  -7.3284  -7.1279  -6.8453  -6.7127  -6.6258
    -6.5044  -6.4706  -6.3790  -6.3397  -6.1625  -6.1311  -6.0098  -5.9730
    -5.9228  -5.8094  -5.6756  -5.5869  -5.4842  -5.2705  -5.2056  -5.1783
    -5.0405  -4.9535  -4.8376  -4.7618  -4.5918  -4.4886  -4.4254  -4.1788
    -4.1405  -4.0039  -3.8974  -3.8356  -3.7197  -3.6485  -3.5365  -3.4443
    -3.4140  -3.2854  -3.2330  -3.1868  -3.0914  -3.0256  -2.9882  -2.8541
    -2.6741  -2.3734  -2.2394  -2.1168  -2.0033  -1.9413  -1.9211  -1.7995
    -1.6399  -1.4032  -1.3628  -1.1745  -1.1113  -1.0051  -0.7894  -0.3128
     0.0085   0.1157   0.4672   0.6839   0.8357   1.0005   1.1030   1.4282
     1.4617   1.6442   1.8079   3.0584   3.4660   4.3575   4.7322   5.1411
     5.2357   5.2476   5.3582   5.7993   6.0385   6.1908   6.3274   6.5331
     6.5649   6.7033   6.7737   6.8822   6.9125   7.0086   7.2066   7.3935
     7.4274   7.5485   7.6828   7.7188   7.8085   7.9290   8.0085   8.1891
     8.3070   8.3659   8.4261   8.4820   8.5356   8.6910   8.7662   8.8386
     8.9199   9.1553   9.2732   9.4037   9.4948   9.5210   9.6332   9.7629
     9.8633   9.9690  10.0577  10.1288  10.1947  10.2946  10.3359  10.4628
    10.5506  10.6382  10.6626  10.7798  10.8277  10.9251  11.0523  11.2272
    11.2996  11.3704  11.4527  11.4860  11.5504  11.6630  11.7619  11.8429
    11.8762  11.9244  12.0156  12.0510  12.1465  12.2217  12.2697  12.3233
    12.4098  12.4818  12.5516  12.6012  12.6896  12.7575  12.8154  12.8720
    12.9730  13.0893  13.1845  13.2425  13.3189  13.4912  13.5077  13.6158
    13.7161  13.7818  13.8568  13.8869  14.0019  14.0626  14.1438  14.2156
    14.3010  14.4333  14.4733  14.5688  14.6103  14.7229  14.7588  14.8188
    14.8911  14.9518  15.0710  15.2277  15.2464  15.3571  15.4208  15.4393
    15.5097  15.5886  15.6240  15.6467  15.6792  15.7410  15.8440  15.9138
    15.9686  16.0096  16.0470  16.1243  16.1626  16.2128  16.3085  16.3690
    16.4424  16.5179  16.6095  16.6541  16.6645  16.6920  16.7125  16.7149
    16.7313  16.7539  16.8050  16.8910  17.0021  17.0467  17.0865  17.1205
    17.2156  17.2644  17.3049  17.3434  17.4193  17.4864  17.5080  17.5599
    17.6096  17.6258  17.6659  17.7495  17.7811  17.8398  17.9747  18.0426
    18.0840  18.1350  18.1963  18.2531  18.3000  18.3734  18.4314  18.4863
    18.5860  18.6066  18.7031  18.7933  18.8737  18.9181  19.0075  19.0170
    19.1016  19.2493  19.2615  19.3945  19.4162  19.5112  19.5481  19.5691
    19.6711  19.7891  19.8701  19.9600  19.9847  20.0100  20.0669  20.1214
    20.1869  20.2315  20.3066  20.3985  20.4180  20.4782  20.5265  20.5567
    20.6788  20.8206  20.8923  20.9354  20.9887  21.0588  21.0783  21.1726
    21.2086  21.2728  21.3262  21.3891  21.4639  21.5201  21.5697  21.6469
    21.6790  21.7655  21.8190  21.8590  21.9180  21.9510  22.0687  22.0930
    22.1876

          k = 0.2500-0.4976 0.0000 ( 32026 PWs)   bands (ev):

   -61.1071 -57.9168 -57.7732 -55.6531 -55.6163 -55.6024 -55.5696 -55.5635
   -55.5283 -55.4756 -55.4720 -55.4512 -55.4488 -55.3547 -55.3279 -55.2942
   -55.2887 -55.2748 -55.2513 -55.1929 -55.1878 -54.7540 -54.5232 -54.2815
   -24.4069 -21.8196 -21.5058 -20.8291 -20.7335 -20.3951 -20.3553 -20.3365
   -20.3171 -20.2181 -20.1777 -20.0919 -19.9334 -19.9109 -19.8993 -19.7815
   -19.6789 -18.7278 -18.5954 -12.9716 -12.8805 -11.4217  -9.7962  -9.4982
    -9.4197  -9.2163  -9.0004  -8.9310  -8.9146  -8.8448  -8.7788  -8.6481
    -8.5497  -8.5167  -8.4470  -8.2173  -8.1499  -8.0771  -7.8370  -7.6448
    -7.5904  -7.5123  -7.4557  -7.3040  -7.2116  -7.1539  -7.0364  -6.8751
    -6.7062  -6.6379  -6.4830  -6.3804  -6.3011  -6.2027  -6.1523  -6.0559
    -5.9474  -5.8547  -5.8268  -5.6935  -5.5904  -5.3696  -5.2730  -5.1832
    -5.0427  -4.9428  -4.8174  -4.6194  -4.4765  -4.4320  -4.2663  -4.1650
    -3.9657  -3.8401  -3.8058  -3.6955  -3.6559  -3.6174  -3.5858  -3.5404
    -3.4633  -3.2235  -3.1706  -3.1122  -3.0476  -3.0221  -2.9866  -2.8838
    -2.8003  -2.5228  -2.1967  -2.1480  -2.0813  -2.0636  -1.8501  -1.8184
    -1.6422  -1.4991  -1.4402  -1.3416  -1.2000  -1.0926  -0.9734  -0.2702
     0.0214   0.3833   0.3913   0.6727   0.7424   1.0672   1.4819   1.5367
     1.5928   1.8132   1.9393   3.2040   4.0147   4.4384   4.7631   5.1511
     5.3276   5.4898   5.5745   5.6894   5.8238   5.9143   6.0536   6.1995
     6.2907   6.6291   6.8111   6.8617   6.9200   6.9952   7.1576   7.2740
     7.3923   7.4766   7.5417   7.6527   7.7162   7.8318   7.9123   7.9867
     8.0624   8.2295   8.2561   8.4128   8.5032   8.5592   8.7028   8.8657
     8.8743   8.9754   9.1581   9.2253   9.3265   9.4311   9.5859   9.6454
     9.7488  10.0423  10.0898  10.1008  10.4868  10.5941  10.7650  10.8102
    10.8498  10.9039  11.1210  11.1544  11.2268  11.2536  11.3527  11.4237
    11.4717  11.5477  11.6531  11.7153  11.7431  11.7844  11.8758  11.9691
    12.0039  12.1462  12.2113  12.2670  12.3257  12.4184  12.5025  12.5794
    12.6490  12.7398  12.7846  12.8926  12.9748  13.0199  13.0703  13.1460
    13.1738  13.2285  13.3122  13.3424  13.5657  13.5988  13.6215  13.7105
    13.7711  13.8136  13.9127  13.9278  14.0125  14.1119  14.1481  14.2612
    14.3199  14.3460  14.4133  14.4714  14.4991  14.5939  14.6319  14.6979
    14.7383  14.7859  14.8230  14.8622  15.0029  15.0569  15.1208  15.1864
    15.2317  15.3905  15.4373  15.5015  15.5680  15.6901  15.7287  15.7674
    15.7972  15.8903  16.0089  16.0841  16.1370  16.2177  16.2859  16.3095
    16.3543  16.3809  16.4619  16.4811  16.5257  16.5711  16.6249  16.6627
    16.6820  16.6998  16.7142  16.7517  16.7645  16.7799  16.8124  16.8707
    16.9596  17.0768  17.1412  17.1673  17.2104  17.2583  17.2949  17.3355
    17.4161  17.5151  17.5961  17.6947  17.7465  17.7758  17.8463  17.9170
    17.9697  18.0852  18.1263  18.1599  18.2155  18.2354  18.2832  18.3773
    18.3954  18.4641  18.5146  18.5839  18.6482  18.7287  18.8189  18.8731
    18.9374  18.9638  19.0185  19.0939  19.1608  19.2214  19.3177  19.3284
    19.3665  19.3994  19.4670  19.5402  19.6270  19.6977  19.7807  19.9450
    20.0142  20.0987  20.1648  20.2179  20.2892  20.4040  20.4211  20.4858
    20.5769  20.6511  20.6981  20.7420  20.7913  20.8803  20.9025  20.9406
    21.0645  21.1318  21.1884  21.2968  21.3195  21.4491  21.4957  21.6077
    21.6542  21.7472  21.8173  21.8824  21.9382  21.9721  22.0696  22.1275
    22.1774

          k =-0.5000 0.0000 0.0000 ( 31984 PWs)   bands (ev):

   -61.1070 -57.9168 -57.7731 -55.6351 -55.6343 -55.5832 -55.5827 -55.5564
   -55.5410 -55.4748 -55.4739 -55.4502 -55.4498 -55.3544 -55.3279 -55.2919
   -55.2914 -55.2743 -55.2512 -55.1906 -55.1900 -54.7542 -54.5231 -54.2815
   -24.4070 -21.7687 -21.5590 -20.8255 -20.8022 -20.7096 -20.6764 -20.2980
   -20.0741 -20.0229 -19.9828 -19.9141 -19.9110 -19.8825 -19.8498 -19.7529
   -19.7327 -18.7356 -18.6776 -12.9777 -12.9201 -11.4890  -9.7826  -9.7765
    -9.7130  -9.6009  -9.4905  -9.4239  -9.1922  -8.8006  -8.7686  -8.5777
    -8.5738  -8.4068  -8.2876  -8.2828  -7.8736  -7.8477  -7.5919  -7.5502
    -7.5026  -7.4714  -7.2917  -7.1906  -7.1768  -6.9538  -6.9302  -6.8261
    -6.7793  -6.6623  -6.5168  -6.4245  -6.2075  -6.1986  -5.9983  -5.9451
    -5.8524  -5.7179  -5.6164  -5.6075  -5.4525  -5.2874  -5.2279  -5.1784
    -5.0850  -5.0002  -4.8137  -4.7477  -4.7131  -4.6168  -4.5504  -4.2834
    -4.1955  -4.0271  -4.0178  -3.8010  -3.7555  -3.6901  -3.4371  -3.3843
    -3.3601  -3.2509  -3.1844  -3.0796  -2.7413  -2.7302  -2.5618  -2.4173
    -2.3986  -2.2138  -2.1728  -2.1671  -2.0938  -2.0301  -1.8813  -1.7032
    -1.6890  -1.6790  -1.5421  -1.1087  -1.0798  -0.3025  -0.1938   0.0159
     0.0968   0.1565   0.4779   0.4803   0.5702   0.6471   0.6551   0.6927
     0.8354   1.6045   1.6517   3.3902   3.8735   3.8906   4.5047   4.9786
     5.1518   5.2570   5.5400   5.6258   5.7112   5.7938   6.3395   6.4358
     6.5414   6.7544   6.7880   6.8820   7.1102   7.2147   7.5314   7.6782
     7.7523   7.7886   7.8734   8.0022   8.0999   8.3501   8.3913   8.5131
     8.5314   8.6173   8.7089   8.7603   8.7769   8.8571   8.9167   8.9491
     9.0123   9.0190   9.1401   9.1683   9.2399   9.2826   9.4064   9.4922
     9.4999   9.6020   9.6091   9.8641   9.8756  10.0001  10.1024  10.1259
    10.2627  10.5735  10.7501  10.7693  10.7862  10.8076  10.8838  11.1054
    11.1562  11.3488  11.3586  11.4832  11.5702  11.6085  11.6458  11.6813
    11.7248  11.8688  11.9214  11.9948  12.0431  12.0687  12.2151  12.4866
    12.5390  12.5866  12.6382  12.6547  12.7162  12.7333  12.8868  12.9408
    12.9628  13.0262  13.0754  13.1086  13.1656  13.2092  13.3296  13.5517
    13.6152  13.6851  13.7150  13.8565  13.9457  14.0071  14.1010  14.1855
    14.2722  14.4007  14.4283  14.4907  14.6490  14.7115  14.7645  14.8788
    14.9018  15.0014  15.0190  15.2201  15.2572  15.5283  15.5558  15.6034
    15.6991  15.7600  15.7836  15.8089  15.8621  15.9306  15.9921  16.0516
    16.1305  16.1791  16.2119  16.2195  16.3230  16.3440  16.3872  16.4807
    16.5253  16.5891  16.6203  16.6627  16.6724  16.6910  16.7075  16.7120
    16.7255  16.7562  16.8350  16.8395  16.8966  17.0186  17.1257  17.1755
    17.2355  17.2841  17.4259  17.4893  17.5446  17.6709  17.6770  17.7267
    17.8021  17.8615  17.9647  18.0096  18.0276  18.0508  18.2233  18.2530
    18.3549  18.4164  18.4387  18.5171  18.5381  18.5662  18.6492  18.6540
    18.7843  18.8901  18.9362  18.9666  19.0150  19.0770  19.1442  19.1698
    19.2393  19.2483  19.3627  19.4437  19.4873  19.5163  19.5597  19.5851
    19.6371  19.6564  19.7286  19.7378  19.8267  19.8999  19.9195  19.9836
    20.0035  20.0277  20.0622  20.1257  20.2183  20.2841  20.3401  20.3636
    20.4333  20.4860  20.4990  20.5448  20.5725  20.5995  20.6458  20.6718
    20.8105  20.8576  20.8736  21.0035  21.0231  21.0427  21.1121  21.2007
    21.3311  21.3746  21.5143  21.5263  21.5634  21.6160  21.7679  21.8591
    21.9008

          k =-0.5000 0.2488 0.0000 ( 32052 PWs)   bands (ev):

   -61.1071 -57.9169 -57.7731 -55.6351 -55.6343 -55.5832 -55.5827 -55.5565
   -55.5412 -55.4745 -55.4736 -55.4502 -55.4498 -55.3544 -55.3280 -55.2918
   -55.2913 -55.2745 -55.2513 -55.1906 -55.1900 -54.7542 -54.5232 -54.2815
   -24.4067 -21.7625 -21.5493 -20.7336 -20.7142 -20.6283 -20.5897 -20.3248
   -20.1687 -20.1021 -20.0490 -19.9814 -19.9555 -19.9193 -19.9022 -19.7576
   -19.7373 -18.7321 -18.6753 -12.9775 -12.9033 -11.4276  -9.6816  -9.5538
    -9.4966  -9.4254  -9.3663  -9.3182  -8.8026  -8.7945  -8.7422  -8.4868
    -8.4790  -8.4148  -8.3614  -8.1996  -7.9541  -7.9178  -7.8027  -7.7529
    -7.5213  -7.4628  -7.3814  -7.3430  -7.2518  -7.2040  -6.9657  -6.9144
    -6.6936  -6.6627  -6.5695  -6.5116  -6.2585  -6.1897  -6.0880  -6.0220
    -5.9785  -5.9101  -5.8452  -5.7509  -5.6092  -5.5278  -5.4196  -5.3595
    -5.1341  -5.0949  -4.9157  -4.6974  -4.5917  -4.4702  -4.2737  -4.1157
    -4.0921  -3.8398  -3.7743  -3.6772  -3.5111  -3.4895  -3.4481  -3.3669
    -3.3446  -3.2853  -3.1327  -3.0056  -2.9679  -2.8601  -2.6311  -2.5035
    -2.3238  -2.3201  -2.1728  -2.1336  -2.0208  -1.9822  -1.8870  -1.8567
    -1.7037  -1.6887  -1.6335  -1.1765  -0.9715  -0.6951  -0.2873  -0.1770
    -0.0378   0.1731   0.2142   0.4990   0.5216   0.8608   0.8822   1.1040
     1.2298   1.6550   1.6921   3.3737   4.1473   4.1729   4.6542   5.2083
     5.3703   5.4782   5.7339   5.8161   5.8846   5.9277   5.9693   6.0881
     6.4159   6.6736   6.6852   6.8350   6.9235   7.0874   7.2049   7.2476
     7.3952   7.4897   7.6239   7.6928   7.7074   7.8886   7.9570   8.0986
     8.1662   8.2383   8.2524   8.4288   8.5265   8.7366   8.7771   8.8657
     8.9799   9.0598   9.1629   9.3429   9.4212   9.5692   9.6298   9.7813
     9.8284  10.0682  10.1488  10.2063  10.3466  10.5274  10.6612  10.6908
    10.7704  10.8537  10.9570  10.9694  11.0431  11.1766  11.2449  11.2913
    11.3484  11.5372  11.5893  11.6655  11.7517  11.7646  11.9119  11.9895
    12.0253  12.1323  12.1507  12.2802  12.3103  12.4372  12.5214  12.5766
    12.6251  12.6753  12.7592  12.7773  12.8245  12.9429  13.0218  13.0648
    13.1023  13.1514  13.2247  13.2732  13.3104  13.4434  13.5149  13.5644
    13.6253  13.8690  13.9289  13.9995  14.0034  14.1112  14.1779  14.1874
    14.2287  14.3013  14.3302  14.3693  14.4282  14.4577  14.5615  14.6455
    14.7046  14.7523  14.7864  14.8384  14.9200  14.9765  15.0699  15.2065
    15.2862  15.4062  15.4491  15.5535  15.6484  15.7448  15.7821  15.8260
    15.8505  15.9574  16.0555  16.0613  16.1142  16.1761  16.1971  16.3224
    16.3721  16.4158  16.4830  16.5784  16.6014  16.6307  16.6420  16.6612
    16.6891  16.7249  16.7279  16.7574  16.7680  16.8199  16.9044  16.9300
    17.0131  17.1077  17.1170  17.1892  17.2959  17.3844  17.4578  17.4650
    17.5137  17.5916  17.6476  17.6764  17.7794  17.8201  17.9839  18.0404
    18.0718  18.0908  18.1316  18.1652  18.1888  18.2607  18.3273  18.4245
    18.4708  18.5144  18.6380  18.7148  18.7445  18.7838  18.8376  18.8621
    18.8976  18.9693  19.1264  19.1475  19.2456  19.3073  19.3511  19.4333
    19.4457  19.4996  19.5433  19.6699  19.7277  19.7761  19.8304  19.8721
    19.9844  20.0431  20.0877  20.1973  20.2332  20.3587  20.3939  20.4623
    20.5324  20.6485  20.7381  20.8851  20.9165  20.9618  21.0417  21.0604
    21.1336  21.1697  21.2405  21.3174  21.3953  21.5292  21.6023  21.7158
    21.7388  21.7917  21.8132  21.8776  21.9312  22.0278  22.0726  22.1658
    22.2106

          k =-0.5000-0.4976 0.0000 ( 31956 PWs)   bands (ev):

   -61.1068 -57.9169 -57.7731 -55.6351 -55.6343 -55.5832 -55.5827 -55.5567
   -55.5413 -55.4742 -55.4733 -55.4502 -55.4498 -55.3545 -55.3281 -55.2918
   -55.2912 -55.2747 -55.2514 -55.1906 -55.1900 -54.7541 -54.5232 -54.2815
   -24.4063 -21.7564 -21.5398 -20.5621 -20.5483 -20.5054 -20.4641 -20.3990
   -20.2966 -20.2657 -20.2492 -20.0902 -19.9684 -19.9272 -19.9081 -19.7632
   -19.7422 -18.7291 -18.6733 -12.9763 -12.8876 -11.3759  -9.6500  -9.4539
    -9.4273  -8.9368  -8.9322  -8.8554  -8.7510  -8.7252  -8.5212  -8.4993
    -8.4713  -8.2784  -8.2574  -8.2266  -8.1805  -8.1353  -7.9393  -7.9177
    -7.8293  -7.5693  -7.3705  -7.3485  -7.2744  -7.2085  -6.9567  -6.9541
    -6.8257  -6.7385  -6.6862  -6.6393  -6.6059  -6.5524  -6.4673  -6.4008
    -6.1145  -6.0724  -5.9622  -5.7333  -5.6274  -5.5745  -5.3316  -5.2772
    -5.0285  -4.9538  -4.8427  -4.7466  -4.5531  -4.4219  -4.1887  -4.0486
    -3.9559  -3.6670  -3.6416  -3.5135  -3.4965  -3.3445  -3.3263  -3.2450
    -3.2296  -3.1918  -3.1321  -3.0497  -3.0154  -2.8678  -2.7661  -2.6850
    -2.4034  -2.2997  -2.2642  -2.0602  -1.9430  -1.9305  -1.8946  -1.8714
    -1.7798  -1.7088  -1.6391  -1.2400  -1.1004  -0.8822  -0.5546  -0.5046
    -0.1003  -0.0464   0.2001   0.5694   0.5719   1.1957   1.2358   1.2673
     1.3147   1.7395   1.8408   3.3256   4.6630   4.7103   4.8837   5.1946
     5.2112   5.7636   5.8639   5.9785   5.9894   6.1139   6.1688   6.1886
     6.3057   6.4304   6.4867   6.5523   6.5836   6.6761   6.7348   6.7792
     7.1530   7.1889   7.3803   7.4838   7.5355   7.5621   7.6537   7.6891
     8.0125   8.1139   8.3518   8.3640   8.4225   8.6303   8.7983   8.9786
     9.0130   9.2254   9.2538   9.3531   9.3886   9.4879   9.6168   9.6224
     9.8843   9.9836  10.1255  10.3443  10.4462  10.7165  10.7925  10.8685
    11.0115  11.0353  11.2844  11.3144  11.4267  11.7496  11.8357  11.8936
    11.9399  11.9919  11.9999  12.0721  12.0900  12.1073  12.3569  12.4554
    12.5156  12.6052  12.6449  12.6791  12.7781  12.8601  12.8963  12.9458
    13.0897  13.2020  13.2070  13.2399  13.2801  13.2953  13.3315  13.3481
    13.3663  13.4083  13.4942  13.5158  13.5646  13.5795  13.6218  13.6599
    13.6890  13.7412  13.7474  13.7778  13.7945  13.8099  13.8722  13.9289
    14.0088  14.0261  14.0732  14.1874  14.3147  14.3351  14.3757  14.4587
    14.5901  14.6141  14.6676  14.7107  14.7702  14.7745  14.7837  14.8521
    14.9037  14.9386  14.9699  14.9989  15.0242  15.1425  15.1773  15.2362
    15.2756  15.4109  15.4248  15.4662  15.5298  15.6013  15.6535  15.6740
    15.8306  15.8634  15.9285  16.0802  16.1699  16.2641  16.3561  16.3895
    16.4857  16.5046  16.5677  16.6380  16.6395  16.6654  16.6746  16.7076
    16.7192  16.7518  16.7722  16.9080  16.9288  16.9783  17.0657  17.2762
    17.3507  17.4531  17.5162  17.6986  17.7360  17.7656  17.7981  17.8907
    17.9545  17.9663  17.9777  18.1941  18.2298  18.3987  18.5028  18.5541
    18.5978  18.6327  18.6508  18.7033  18.8888  18.9815  18.9882  19.0984
    19.1657  19.2874  19.3301  19.4739  19.5786  19.6496  19.7707  19.7986
    19.8086  19.9532  19.9800  20.1092  20.1480  20.1731  20.1976  20.3002
    20.3588  20.4222  20.4371  20.4594  20.5557  20.5687  20.6166  20.6291
    20.6571  20.6814  20.8610  20.8745  20.9893  21.0037  21.0248  21.0610
    21.0803  21.0864  21.1651  21.2207  21.2807  21.3143  21.3358  21.3974
    21.4386  21.5155  21.5472  21.6044  21.6187  21.6488  21.6941  21.7269
    21.7631

          k =-0.2500 0.2488 0.0000 ( 32025 PWs)   bands (ev):

   -61.1071 -57.9168 -57.7732 -55.6531 -55.6163 -55.6024 -55.5694 -55.5635
   -55.5282 -55.4759 -55.4723 -55.4512 -55.4488 -55.3546 -55.3279 -55.2943
   -55.2888 -55.2746 -55.2512 -55.1929 -55.1878 -54.7540 -54.5232 -54.2815
   -24.4072 -21.8342 -21.5123 -20.9703 -20.8427 -20.4676 -20.3992 -20.3057
   -20.2068 -20.1279 -20.0749 -20.0458 -19.9249 -19.9135 -19.8298 -19.7451
   -19.6757 -18.7281 -18.6008 -12.9719 -12.8986 -11.4640  -9.9037  -9.7580
    -9.6150  -9.4474  -9.3419  -9.0449  -8.9504  -8.7964  -8.7783  -8.6910
    -8.6493  -8.4677  -8.3750  -8.1927  -8.1510  -8.1008  -7.8948  -7.8149
    -7.6311  -7.4796  -7.3641  -7.2698  -7.0632  -6.8608  -6.6777  -6.6523
    -6.5270  -6.5188  -6.3908  -6.3606  -6.1723  -6.1245  -6.0257  -5.9711
    -5.9280  -5.7538  -5.6870  -5.5840  -5.4759  -5.2675  -5.2254  -5.1897
    -5.0477  -4.9379  -4.8225  -4.7295  -4.5925  -4.5208  -4.4406  -4.2132
    -4.0618  -3.9940  -3.9138  -3.8475  -3.7310  -3.6202  -3.5528  -3.4284
    -3.3914  -3.2853  -3.2230  -3.2006  -3.1305  -3.0616  -2.9878  -2.8437
    -2.6599  -2.3923  -2.2047  -2.1211  -2.0059  -1.9642  -1.9160  -1.7731
    -1.6393  -1.4056  -1.3640  -1.1789  -1.1091  -1.0053  -0.7981  -0.3128
     0.0079   0.1181   0.4672   0.6835   0.8341   1.0008   1.1063   1.4295
     1.4608   1.6430   1.8081   3.0583   3.4650   4.3568   4.7330   5.1417
     5.2419   5.2607   5.3815   5.8018   6.0380   6.1863   6.3224   6.5198
     6.5698   6.6732   6.7452   6.8772   6.9163   7.0079   7.1843   7.3930
     7.4277   7.5600   7.6666   7.7344   7.8100   7.9274   8.0480   8.1953
     8.3057   8.3462   8.4331   8.4904   8.5238   8.6777   8.7631   8.8610
     8.9410   9.1580   9.2818   9.3989   9.4921   9.5086   9.6330   9.7497
     9.8623   9.9697  10.0449  10.1215  10.2312  10.2920  10.3444  10.4428
    10.5662  10.6090  10.6627  10.7617  10.8198  10.9153  11.0836  11.2320
    11.3103  11.3738  11.4595  11.4888  11.5537  11.6676  11.7640  11.8424
    11.8764  11.9458  12.0111  12.0548  12.1558  12.2578  12.2756  12.3088
    12.4051  12.4834  12.5967  12.6178  12.6834  12.7821  12.8090  12.9041
    12.9830  13.0884  13.1661  13.2182  13.2969  13.4815  13.5253  13.6243
    13.7272  13.7789  13.8427  13.8749  13.9547  14.0678  14.1575  14.1951
    14.2854  14.3474  14.4714  14.5561  14.6016  14.7418  14.7738  14.8245
    14.8727  14.9852  15.0581  15.1658  15.2228  15.3220  15.4141  15.4292
    15.4955  15.5796  15.6306  15.6402  15.6827  15.7533  15.8462  15.9094
    15.9713  15.9891  16.0113  16.1172  16.1941  16.2589  16.3052  16.3441
    16.4384  16.5102  16.6037  16.6521  16.6630  16.6740  16.6934  16.7133
    16.7302  16.7562  16.8388  16.9139  16.9873  17.0112  17.1268  17.1455
    17.2417  17.2734  17.2796  17.3399  17.4186  17.4709  17.5110  17.5749
    17.6254  17.6511  17.6671  17.7644  17.7939  17.8489  17.9484  17.9981
    18.1059  18.1456  18.2373  18.2705  18.3098  18.3931  18.4250  18.5375
    18.6099  18.6390  18.7148  18.7773  18.8977  18.9459  19.0080  19.1052
    19.1364  19.2306  19.2726  19.3500  19.3930  19.4938  19.5359  19.5944
    19.6871  19.8314  19.8620  19.9564  19.9895  20.0222  20.0408  20.1132
    20.1500  20.2233  20.3544  20.3978  20.4264  20.4528  20.5718  20.5964
    20.7074  20.8060  20.8586  20.9088  20.9652  21.0697  21.0779  21.1136
    21.2112  21.3063  21.3266  21.4069  21.4630  21.5341  21.5727  21.6304
    21.6887  21.7152  21.7740  21.8467  21.8767  21.9548  22.0504  22.1079
    22.1687

 ------ SPIN DOWN ----------


          k = 0.0000 0.0000 0.0000 ( 32157 PWs)   bands (ev):

   -61.1072 -57.9168 -57.7733 -55.6607 -55.6104 -55.6087 -55.5766 -55.5555
   -55.5206 -55.4769 -55.4718 -55.4517 -55.4483 -55.3546 -55.3277 -55.2956
   -55.2876 -55.2745 -55.2510 -55.1939 -55.1867 -54.7539 -54.5232 -54.2815
   -24.4082 -21.9104 -21.4979 -21.1676 -21.0017 -20.3565 -20.3090 -20.2950
   -20.2082 -20.0920 -20.0597 -20.0539 -19.9486 -19.9094 -19.6805 -19.6504
   -19.6285 -18.7032 -18.5550 -12.9643 -12.9143 -11.5534 -10.3268 -10.2866
    -9.7784  -9.3239  -9.2818  -8.9928  -8.9527  -8.8892  -8.8282  -8.7460
    -8.6417  -8.6018  -8.4710  -8.4475  -8.3731  -8.1214  -8.0605  -7.9836
    -7.6048  -7.4026  -7.3646  -7.1907  -7.0622  -6.8894  -6.8766  -6.5296
    -6.4246  -6.0824  -5.9067  -5.9008  -5.8299  -5.7793  -5.6121  -5.5982
    -5.5614  -5.3985  -5.3640  -5.2460  -5.1088  -5.1007  -5.0267  -4.8983
    -4.8871  -4.6962  -4.6528  -4.5932  -4.5623  -4.5367  -4.5313  -4.4554
    -4.4335  -4.3512  -4.2433  -4.1417  -4.0927  -3.9923  -3.8835  -3.8379
    -3.7734  -3.6576  -3.3788  -3.3357  -3.1831  -2.8639  -2.8271  -2.6532
    -2.6193  -2.5659  -2.3636  -2.3045  -2.0936  -1.9482  -1.8434  -1.7178
    -1.5226  -1.3579  -1.2417  -1.1711  -0.9623  -0.6726  -0.6132  -0.2916
    -0.2322  -0.1896   0.0540   0.3639   0.7539   1.0464   1.3520   1.5329
     1.5467   1.6097   2.1506   2.4143   3.1913   4.0979   4.2904   4.7465
     4.8560   5.6450   5.7516   5.9273   5.9756   6.3813   6.6161   6.6884
     6.8882   7.0056   7.0675   7.1653   7.3146   7.4749   7.5891   7.6311
     7.7322   7.8302   7.8325   7.8918   7.9268   7.9749   8.0232   8.0626
     8.1305   8.2229   8.3266   8.4108   8.4906   8.5520   8.6173   8.8134
     8.9318   8.9768   9.0335   9.1527   9.2155   9.4397   9.6164   9.6409
     9.7473   9.8676   9.9723   9.9936  10.0298  10.2063  10.3220  10.3700
    10.5180  10.5394  10.6423  10.8108  10.9059  10.9272  11.0114  11.0244
    11.1043  11.1496  11.1612  11.2165  11.2909  11.4130  11.4987  11.5637
    11.6193  11.6899  11.8053  11.9272  11.9466  11.9701  12.0006  12.0735
    12.1917  12.2219  12.2782  12.3625  12.4036  12.5299  12.5441  12.6295
    12.6635  12.7839  12.9266  13.0804  13.1868  13.2869  13.3728  13.4007
    13.4811  13.5293  13.6287  13.7940  13.8067  13.8253  13.9981  14.0875
    14.1494  14.1935  14.3145  14.4001  14.4996  14.5530  14.6650  14.6745
    14.7366  14.8217  14.8749  14.9058  15.1462  15.2409  15.3597  15.3950
    15.4092  15.5724  15.6503  15.8076  15.8093  15.8667  15.9235  15.9689
    16.0036  16.1152  16.1853  16.4675  16.5174  16.5497  16.5896  16.6200
    16.6583  16.6763  16.6829  16.7160  16.7542  16.8095  16.8408  16.9030
    16.9339  17.0935  17.1732  17.2130  17.3216  17.3942  17.4712  17.5423
    17.7236  17.7599  17.8209  17.9113  17.9222  17.9701  18.0765  18.1109
    18.1545  18.2153  18.2722  18.4305  18.5336  18.5818  18.6315  18.6648
    18.6845  18.7618  18.7848  18.8848  18.9168  18.9429  18.9635  19.0469
    19.0878  19.1372  19.1643  19.2114  19.2824  19.3601  19.4427  19.4897
    19.5351  19.6354  19.6753  19.6846  19.7482  19.7735  19.8960  19.9926
    20.0443  20.0875  20.1263  20.2293  20.2852  20.4338  20.4745  20.5571
    20.5846  20.6641  20.6904  20.8391  20.8874  20.9347  20.9788  20.9980
    21.1314  21.2812  21.3029  21.3425  21.3672  21.3982  21.4460  21.4929
    21.5142  21.6554  21.7063  21.7759  21.7909  21.8578  21.8852  21.9471
    21.9676  21.9891  22.0333  22.0526  22.0663  22.1262  22.1519  22.2134
    22.2335

          k = 0.0000 0.2488 0.0000 ( 32033 PWs)   bands (ev):

   -61.1070 -57.9168 -57.7733 -55.6607 -55.6104 -55.6087 -55.5769 -55.5555
   -55.5206 -55.4766 -55.4716 -55.4517 -55.4483 -55.3547 -55.3277 -55.2955
   -55.2876 -55.2747 -55.2511 -55.1939 -55.1867 -54.7539 -54.5232 -54.2815
   -24.4078 -21.8892 -21.4918 -21.0687 -20.9372 -20.3648 -20.3434 -20.3170
   -20.2697 -20.0755 -20.0650 -20.0432 -19.9493 -19.9261 -19.7783 -19.7084
   -19.6503 -18.7027 -18.5469 -12.9664 -12.8934 -11.5012 -10.0457  -9.8871
    -9.6955  -9.4841  -9.3733  -8.9685  -8.9483  -8.9082  -8.7712  -8.7554
    -8.6592  -8.5915  -8.5067  -8.4650  -8.4266  -8.1673  -8.0103  -7.5251
    -7.4422  -7.3687  -7.1671  -7.0028  -6.9991  -6.8318  -6.8137  -6.7367
    -6.6034  -6.5045  -6.3130  -6.2014  -6.0153  -5.9052  -5.8947  -5.6446
    -5.5944  -5.4938  -5.4293  -5.3616  -5.3096  -5.2196  -5.0918  -5.0421
    -4.9465  -4.8504  -4.6860  -4.6236  -4.5242  -4.4825  -4.3329  -4.2455
    -4.1349  -4.0989  -4.0544  -4.0092  -3.9632  -3.8877  -3.7889  -3.7648
    -3.6704  -3.5947  -3.3832  -3.3684  -3.3060  -3.1818  -3.1529  -2.9525
    -2.7794  -2.5559  -2.3987  -2.1002  -1.9361  -1.8942  -1.8116  -1.7801
    -1.5259  -1.4317  -1.2588  -1.2360  -1.1939  -1.0396  -0.9736  -0.4071
    -0.1728   0.0580   0.5751   0.9642   1.0285   1.2598   1.3305   1.5325
     1.6079   1.6166   2.1514   2.7294   3.2702   4.2359   4.5069   4.9328
     5.0263   5.1392   5.6936   5.8460   6.0009   6.1094   6.3269   6.5353
     6.6906   6.7722   6.8183   7.1185   7.2226   7.2333   7.4302   7.4634
     7.5263   7.7006   7.7722   7.8680   7.9471   8.0699   8.1142   8.1528
     8.2593   8.3005   8.3978   8.5275   8.6270   8.7210   8.8067   8.9620
     9.0674   9.1877   9.2466   9.3366   9.4388   9.4988   9.5934   9.7333
     9.7720   9.8184   9.9399   9.9707  10.0715  10.1427  10.1781  10.2284
    10.3723  10.3778  10.4679  10.5154  10.6277  10.6760  10.8339  10.8833
    11.0372  11.0925  11.1212  11.2753  11.4035  11.4249  11.5415  11.5899
    11.6579  11.7570  11.8434  11.8922  12.1385  12.1948  12.2406  12.3666
    12.4141  12.5005  12.5147  12.5728  12.6390  12.8617  12.8974  12.9846
    13.1389  13.1515  13.2648  13.3488  13.5069  13.5300  13.6088  13.6601
    13.7010  13.7817  13.8153  13.9591  14.0147  14.0291  14.1187  14.2145
    14.2804  14.3466  14.4318  14.5722  14.6486  14.6783  14.7615  14.8087
    14.8497  14.9343  14.9713  15.0675  15.1682  15.2271  15.2778  15.3874
    15.4369  15.5727  15.5969  15.6899  15.7712  15.7983  15.8990  15.9230
    15.9648  16.0135  16.0883  16.1707  16.2204  16.3060  16.3913  16.4600
    16.5523  16.6225  16.6453  16.6698  16.6923  16.7200  16.7320  16.7436
    16.7656  16.8042  16.8743  16.9192  16.9988  17.1273  17.1794  17.2469
    17.3131  17.3982  17.4546  17.5882  17.6610  17.7525  17.9048  17.9676
    17.9991  18.1205  18.1641  18.2343  18.3338  18.3698  18.4700  18.5239
    18.5652  18.6022  18.6838  18.7293  18.7710  18.8139  18.8680  18.9501
    18.9785  19.0452  19.0752  19.0926  19.1175  19.1796  19.2033  19.2474
    19.3730  19.4008  19.4572  19.5034  19.5241  19.5801  19.6536  19.7355
    19.7446  19.8015  19.8494  19.8908  19.9757  20.0370  20.1627  20.2269
    20.2488  20.2801  20.3936  20.4098  20.4754  20.5330  20.5630  20.6226
    20.7579  20.8123  20.8318  20.8585  20.8731  20.9290  21.0121  21.0465
    21.1157  21.1411  21.1998  21.2585  21.2989  21.3537  21.4430  21.4557
    21.5148  21.5813  21.6266  21.7005  21.7270  21.7699  21.8326  21.9749
    22.0171

          k = 0.0000-0.4976 0.0000 ( 31948 PWs)   bands (ev):

   -61.1069 -57.9168 -57.7733 -55.6607 -55.6103 -55.6087 -55.5771 -55.5554
   -55.5207 -55.4763 -55.4714 -55.4517 -55.4483 -55.3548 -55.3278 -55.2953
   -55.2876 -55.2749 -55.2512 -55.1939 -55.1867 -54.7538 -54.5232 -54.2815
   -24.4073 -21.8688 -21.4856 -20.9372 -20.8340 -20.4196 -20.3860 -20.3569
   -20.3308 -20.0929 -20.0726 -20.0264 -19.9480 -19.9380 -19.8703 -19.7647
   -19.6509 -18.7022 -18.5402 -12.9668 -12.8724 -11.4693  -9.9026  -9.6332
    -9.4118  -9.4105  -9.1372  -8.9847  -8.9532  -8.8664  -8.8248  -8.7726
    -8.5694  -8.5534  -8.4773  -8.4579  -8.3863  -8.1968  -7.9141  -7.6967
    -7.5595  -7.4863  -7.3004  -7.0907  -7.0329  -6.9672  -6.7265  -6.5657
    -6.5225  -6.4453  -6.2905  -6.2626  -6.2148  -6.1113  -6.0648  -5.9504
    -5.8697  -5.7583  -5.5512  -5.3285  -5.2506  -5.2016  -5.1902  -5.0942
    -4.9407  -4.8734  -4.7059  -4.6667  -4.4151  -4.2937  -4.2152  -4.1751
    -4.1524  -4.1092  -4.0905  -4.0031  -3.9235  -3.8487  -3.7402  -3.7379
    -3.6889  -3.5343  -3.3196  -3.3030  -3.2148  -3.1753  -3.1060  -3.0849
    -2.8494  -2.6749  -2.3415  -2.1160  -2.1082  -2.0447  -1.8960  -1.8617
    -1.7584  -1.5580  -1.2543  -1.2014  -1.1977  -1.1305  -1.0470  -0.3361
    -0.1563   0.6158   0.7969   0.8255   1.0064   1.1191   1.5606   1.6746
     1.7275   2.0163   2.1521   3.0943   3.7185   4.1406   4.6444   4.8603
     5.0832   5.2531   5.4596   5.6206   5.6938   5.7989   6.2097   6.3541
     6.4593   6.5988   6.6640   7.0375   7.1356   7.1998   7.3930   7.5775
     7.6388   7.6813   7.7558   7.8809   7.9493   8.1680   8.2360   8.3849
     8.5043   8.5924   8.6647   8.7047   8.8099   8.8157   8.8719   8.9009
     8.9100   8.9622   8.9928   9.1145   9.1236   9.1742   9.3054   9.4075
     9.4914   9.5634   9.6675   9.8838   9.9297   9.9448  10.0029  10.0504
    10.3870  10.7128  10.7624  10.8094  10.9202  10.9407  11.0168  11.2623
    11.2901  11.3808  11.4298  11.4450  11.5499  11.6056  11.7048  11.8174
    12.0018  12.0436  12.1041  12.1864  12.2891  12.3730  12.3854  12.4739
    12.5671  12.5814  12.6264  12.7574  12.8171  12.8699  12.9364  12.9621
    13.0878  13.1215  13.1632  13.2767  13.3645  13.4211  13.6108  13.6533
    13.7465  13.8096  13.9932  14.0231  14.0320  14.1029  14.3108  14.3494
    14.3925  14.5518  14.6359  14.7333  14.9199  14.9247  14.9890  15.0221
    15.1292  15.1760  15.2321  15.2719  15.3845  15.4107  15.4981  15.5178
    15.5587  15.7358  15.7667  15.8246  15.8804  15.9352  15.9441  16.0163
    16.0462  16.0880  16.1285  16.1492  16.2399  16.2710  16.3292  16.3397
    16.3831  16.4324  16.4811  16.4856  16.6469  16.6562  16.6668  16.6918
    16.7121  16.7392  16.7431  16.7651  16.7961  16.8542  16.9650  17.0422
    17.1152  17.2261  17.3093  17.3376  17.3539  17.4258  17.5870  17.6163
    17.6637  17.7091  17.7592  17.7794  17.8091  17.8928  17.9539  18.0081
    18.0498  18.1554  18.2461  18.2974  18.3689  18.4059  18.4680  18.4888
    18.5552  18.5967  18.7044  18.7954  18.8790  19.0068  19.0839  19.1019
    19.1862  19.2887  19.3253  19.3719  19.4844  19.5776  19.6119  19.6373
    19.6935  19.7279  19.7877  19.8163  19.8704  19.9201  19.9782  20.0136
    20.0270  20.1057  20.1218  20.1586  20.1996  20.2255  20.2543  20.2957
    20.4049  20.4863  20.5057  20.5625  20.5979  20.6267  20.6710  20.6795
    20.7244  20.8333  20.9026  20.9641  20.9885  21.0132  21.0987  21.2784
    21.3322  21.3454  21.3809  21.4226  21.5535  21.7009  21.7175  21.7619
    21.8219

          k = 0.2500 0.0000 0.0000 ( 32013 PWs)   bands (ev):

   -61.1070 -57.9168 -57.7732 -55.6531 -55.6163 -55.6023 -55.5692 -55.5635
   -55.5281 -55.4762 -55.4725 -55.4512 -55.4488 -55.3545 -55.3278 -55.2945
   -55.2888 -55.2744 -55.2511 -55.1929 -55.1877 -54.7540 -54.5231 -54.2815
   -24.4076 -21.8496 -21.5188 -21.0678 -20.9166 -20.5159 -20.4421 -20.2869
   -20.1403 -20.0588 -20.0266 -20.0030 -19.9467 -19.8937 -19.7382 -19.6862
   -19.6746 -18.7286 -18.6071 -12.9710 -12.9173 -11.5211 -10.1681 -10.1154
    -9.7207  -9.3860  -9.2631  -9.1642  -9.0110  -8.9535  -8.8519  -8.7182
    -8.6630  -8.3307  -8.2452  -8.2080  -8.1718  -8.1278  -7.9856  -7.9181
    -7.7860  -7.4194  -7.3349  -7.2625  -7.0739  -6.8893  -6.7131  -6.4641
    -6.3913  -6.3560  -6.2777  -6.1789  -6.0535  -5.9808  -5.9161  -5.7674
    -5.6675  -5.6036  -5.5188  -5.3551  -5.2354  -5.2014  -5.1649  -5.0512
    -5.0010  -4.9694  -4.9144  -4.7517  -4.7047  -4.6220  -4.5319  -4.5100
    -4.2083  -4.1237  -4.0874  -3.9868  -3.7863  -3.7331  -3.6766  -3.5269
    -3.4978  -3.3532  -3.2303  -3.1759  -3.0631  -2.9584  -2.6209  -2.5183
    -2.4328  -2.4077  -2.3116  -2.2098  -2.1508  -2.0353  -1.8442  -1.7968
    -1.6259  -1.3587  -1.3094  -1.2199  -1.0479  -0.5037  -0.4630  -0.1712
    -0.0764   0.0036   0.1935   0.3528   0.6559   0.8031   1.1152   1.1807
     1.4303   1.5374   1.8242   2.8079   3.3635   4.1807   4.5160   4.9556
     5.0469   5.0634   5.7088   5.9177   6.1053   6.2162   6.3449   6.5767
     6.6353   6.6956   6.9318   7.1194   7.2045   7.2743   7.4178   7.5191
     7.6610   7.7629   7.7960   7.9181   8.0212   8.0765   8.1307   8.1993
     8.2478   8.4150   8.5163   8.5876   8.6256   8.7796   8.7991   8.9600
     9.0276   9.2018   9.2989   9.3385   9.5536   9.5996   9.7268   9.7643
     9.8888   9.9267   9.9650  10.0153  10.0468  10.0845  10.1171  10.2281
    10.2922  10.3383  10.4146  10.5421  10.6016  10.6877  10.7688  10.8787
    10.9250  10.9656  11.1002  11.1265  11.2653  11.3097  11.3262  11.4113
    11.5050  11.7059  11.7580  11.9270  12.0696  12.1324  12.2018  12.3033
    12.4036  12.4524  12.5746  12.6308  12.7151  12.8385  12.9568  13.0702
    13.1166  13.1625  13.2118  13.3167  13.4280  13.5911  13.6052  13.6332
    13.6905  13.7205  13.7595  13.7736  13.8460  13.9097  14.0094  14.0763
    14.1472  14.2713  14.3540  14.3899  14.4627  14.5744  14.6928  14.7261
    14.7813  14.8257  14.9104  15.0373  15.0898  15.1868  15.2679  15.3193
    15.4077  15.4323  15.4949  15.5826  15.6759  15.7517  15.8617  15.8974
    16.0198  16.0642  16.1256  16.1851  16.2133  16.3490  16.3995  16.5186
    16.5750  16.6405  16.6687  16.6834  16.6962  16.7285  16.7450  16.7650
    16.8913  16.9310  17.0083  17.1449  17.1933  17.2847  17.3696  17.4978
    17.5203  17.6293  17.6436  17.7341  17.8442  17.8961  17.9637  17.9844
    18.0890  18.1457  18.1852  18.2839  18.3729  18.4760  18.5624  18.6068
    18.6606  18.7835  18.8084  18.8333  18.8826  18.9114  18.9676  18.9820
    19.0496  19.0902  19.1211  19.1435  19.1619  19.2110  19.2663  19.3048
    19.3242  19.4199  19.4517  19.5039  19.5530  19.6102  19.6466  19.6706
    19.7063  19.7744  19.8446  19.9100  19.9956  20.0447  20.0794  20.0972
    20.2065  20.2872  20.3473  20.4467  20.4764  20.5377  20.5785  20.6197
    20.6733  20.7158  20.7518  20.8037  20.8651  20.9474  20.9852  21.0136
    21.0642  21.0896  21.2041  21.2769  21.3391  21.3548  21.4052  21.4347
    21.5983  21.6424  21.6844  21.7244  21.8346  21.8847  21.9440  22.0257
    22.0605

          k = 0.2500 0.2488 0.0000 ( 32025 PWs)   bands (ev):

   -61.1071 -57.9168 -57.7732 -55.6531 -55.6163 -55.6024 -55.5694 -55.5635
   -55.5282 -55.4759 -55.4723 -55.4512 -55.4488 -55.3546 -55.3279 -55.2943
   -55.2888 -55.2746 -55.2512 -55.1929 -55.1878 -54.7540 -54.5232 -54.2815
   -24.4072 -21.8342 -21.5123 -20.9704 -20.8430 -20.4660 -20.3991 -20.3045
   -20.2060 -20.1346 -20.0778 -20.0455 -19.9193 -19.9102 -19.8311 -19.7437
   -19.6787 -18.7281 -18.6007 -12.9719 -12.8986 -11.4640  -9.9039  -9.7592
    -9.6161  -9.4545  -9.3419  -9.0182  -8.9469  -8.7910  -8.7758  -8.6983
    -8.6877  -8.4828  -8.3483  -8.1839  -8.1358  -8.1022  -7.8869  -7.8078
    -7.6212  -7.4540  -7.3875  -7.3284  -7.1279  -6.8453  -6.7127  -6.6258
    -6.5044  -6.4706  -6.3790  -6.3397  -6.1625  -6.1311  -6.0098  -5.9730
    -5.9228  -5.8094  -5.6756  -5.5869  -5.4842  -5.2705  -5.2056  -5.1783
    -5.0405  -4.9535  -4.8376  -4.7618  -4.5918  -4.4886  -4.4254  -4.1788
    -4.1405  -4.0039  -3.8974  -3.8356  -3.7197  -3.6485  -3.5365  -3.4443
    -3.4140  -3.2854  -3.2330  -3.1868  -3.0914  -3.0256  -2.9882  -2.8541
    -2.6741  -2.3734  -2.2394  -2.1168  -2.0033  -1.9413  -1.9211  -1.7995
    -1.6399  -1.4032  -1.3628  -1.1745  -1.1113  -1.0051  -0.7894  -0.3128
     0.0085   0.1157   0.4672   0.6839   0.8357   1.0005   1.1030   1.4282
     1.4617   1.6442   1.8079   3.0584   3.4660   4.3575   4.7322   5.1411
     5.2357   5.2476   5.3582   5.7993   6.0385   6.1908   6.3274   6.5331
     6.5649   6.7033   6.7737   6.8822   6.9125   7.0086   7.2066   7.3935
     7.4274   7.5485   7.6828   7.7188   7.8085   7.9290   8.0085   8.1891
     8.3070   8.3659   8.4261   8.4820   8.5356   8.6910   8.7662   8.8386
     8.9199   9.1553   9.2732   9.4037   9.4948   9.5210   9.6332   9.7629
     9.8633   9.9690  10.0577  10.1288  10.1947  10.2946  10.3359  10.4628
    10.5506  10.6382  10.6626  10.7798  10.8277  10.9251  11.0523  11.2272
    11.2996  11.3704  11.4527  11.4860  11.5504  11.6630  11.7619  11.8429
    11.8762  11.9244  12.0156  12.0510  12.1465  12.2217  12.2697  12.3233
    12.4098  12.4818  12.5516  12.6012  12.6896  12.7575  12.8154  12.8720
    12.9730  13.0893  13.1845  13.2425  13.3189  13.4912  13.5077  13.6158
    13.7161  13.7818  13.8568  13.8869  14.0019  14.0626  14.1438  14.2156
    14.3010  14.4333  14.4733  14.5688  14.6103  14.7229  14.7588  14.8188
    14.8911  14.9518  15.0710  15.2277  15.2464  15.3571  15.4208  15.4393
    15.5097  15.5886  15.6240  15.6467  15.6792  15.7410  15.8440  15.9138
    15.9686  16.0096  16.0470  16.1243  16.1626  16.2128  16.3085  16.3690
    16.4424  16.5179  16.6095  16.6541  16.6645  16.6920  16.7125  16.7149
    16.7313  16.7539  16.8050  16.8910  17.0021  17.0467  17.0865  17.1205
    17.2156  17.2644  17.3049  17.3434  17.4193  17.4864  17.5080  17.5599
    17.6096  17.6258  17.6659  17.7495  17.7811  17.8398  17.9747  18.0426
    18.0840  18.1350  18.1963  18.2531  18.3000  18.3735  18.4314  18.4863
    18.5860  18.6066  18.7031  18.7933  18.8737  18.9181  19.0075  19.0170
    19.1016  19.2493  19.2615  19.3945  19.4162  19.5112  19.5481  19.5691
    19.6711  19.7891  19.8701  19.9600  19.9847  20.0100  20.0669  20.1214
    20.1869  20.2315  20.3066  20.3985  20.4180  20.4782  20.5265  20.5567
    20.6788  20.8206  20.8923  20.9354  20.9887  21.0588  21.0783  21.1726
    21.2086  21.2728  21.3262  21.3891  21.4639  21.5201  21.5697  21.6469
    21.6790  21.7655  21.8190  21.8590  21.9180  21.9510  22.0687  22.0930
    22.1876

          k = 0.2500-0.4976 0.0000 ( 32026 PWs)   bands (ev):

   -61.1071 -57.9168 -57.7732 -55.6531 -55.6163 -55.6024 -55.5696 -55.5635
   -55.5283 -55.4756 -55.4720 -55.4512 -55.4488 -55.3547 -55.3279 -55.2942
   -55.2887 -55.2748 -55.2513 -55.1929 -55.1878 -54.7540 -54.5232 -54.2815
   -24.4069 -21.8196 -21.5058 -20.8291 -20.7335 -20.3951 -20.3553 -20.3365
   -20.3171 -20.2181 -20.1777 -20.0919 -19.9334 -19.9109 -19.8993 -19.7815
   -19.6789 -18.7278 -18.5954 -12.9716 -12.8805 -11.4217  -9.7962  -9.4982
    -9.4197  -9.2163  -9.0004  -8.9310  -8.9146  -8.8448  -8.7788  -8.6481
    -8.5497  -8.5167  -8.4470  -8.2173  -8.1499  -8.0771  -7.8370  -7.6448
    -7.5904  -7.5123  -7.4557  -7.3040  -7.2116  -7.1539  -7.0364  -6.8751
    -6.7062  -6.6379  -6.4830  -6.3804  -6.3011  -6.2027  -6.1523  -6.0559
    -5.9474  -5.8547  -5.8268  -5.6935  -5.5904  -5.3696  -5.2730  -5.1832
    -5.0427  -4.9428  -4.8174  -4.6194  -4.4765  -4.4320  -4.2663  -4.1650
    -3.9657  -3.8401  -3.8058  -3.6955  -3.6559  -3.6174  -3.5858  -3.5404
    -3.4633  -3.2235  -3.1706  -3.1122  -3.0476  -3.0221  -2.9866  -2.8838
    -2.8003  -2.5228  -2.1967  -2.1480  -2.0813  -2.0636  -1.8501  -1.8184
    -1.6422  -1.4991  -1.4402  -1.3416  -1.2000  -1.0926  -0.9734  -0.2702
     0.0214   0.3833   0.3913   0.6727   0.7424   1.0672   1.4819   1.5367
     1.5928   1.8132   1.9393   3.2040   4.0147   4.4384   4.7631   5.1511
     5.3276   5.4898   5.5745   5.6894   5.8238   5.9143   6.0536   6.1995
     6.2907   6.6291   6.8111   6.8617   6.9200   6.9952   7.1576   7.2740
     7.3923   7.4766   7.5417   7.6527   7.7162   7.8318   7.9123   7.9867
     8.0624   8.2295   8.2561   8.4128   8.5032   8.5592   8.7028   8.8657
     8.8743   8.9754   9.1581   9.2253   9.3265   9.4311   9.5859   9.6454
     9.7488  10.0423  10.0898  10.1008  10.4868  10.5941  10.7650  10.8102
    10.8498  10.9039  11.1210  11.1544  11.2268  11.2536  11.3527  11.4237
    11.4717  11.5477  11.6531  11.7153  11.7431  11.7844  11.8758  11.9691
    12.0039  12.1462  12.2113  12.2670  12.3257  12.4184  12.5025  12.5794
    12.6490  12.7398  12.7846  12.8926  12.9748  13.0199  13.0703  13.1460
    13.1738  13.2285  13.3122  13.3424  13.5657  13.5988  13.6215  13.7105
    13.7711  13.8136  13.9127  13.9278  14.0125  14.1119  14.1481  14.2612
    14.3199  14.3460  14.4133  14.4714  14.4991  14.5939  14.6319  14.6979
    14.7383  14.7859  14.8230  14.8622  15.0029  15.0569  15.1208  15.1864
    15.2317  15.3905  15.4373  15.5015  15.5680  15.6901  15.7287  15.7674
    15.7972  15.8903  16.0089  16.0841  16.1370  16.2177  16.2859  16.3095
    16.3543  16.3809  16.4619  16.4811  16.5257  16.5711  16.6249  16.6627
    16.6820  16.6998  16.7142  16.7517  16.7645  16.7799  16.8124  16.8707
    16.9596  17.0768  17.1412  17.1673  17.2104  17.2583  17.2949  17.3355
    17.4161  17.5151  17.5961  17.6947  17.7465  17.7758  17.8463  17.9170
    17.9697  18.0852  18.1263  18.1599  18.2155  18.2354  18.2832  18.3773
    18.3954  18.4641  18.5146  18.5839  18.6482  18.7287  18.8189  18.8731
    18.9374  18.9638  19.0185  19.0939  19.1608  19.2214  19.3177  19.3284
    19.3665  19.3994  19.4670  19.5402  19.6270  19.6977  19.7807  19.9450
    20.0142  20.0987  20.1648  20.2179  20.2892  20.4040  20.4211  20.4858
    20.5769  20.6511  20.6981  20.7420  20.7913  20.8803  20.9025  20.9406
    21.0645  21.1318  21.1884  21.2968  21.3195  21.4491  21.4957  21.6077
    21.6542  21.7472  21.8173  21.8824  21.9382  21.9721  22.0696  22.1275
    22.1774

          k =-0.5000 0.0000 0.0000 ( 31984 PWs)   bands (ev):

   -61.1070 -57.9168 -57.7731 -55.6351 -55.6343 -55.5832 -55.5827 -55.5564
   -55.5410 -55.4748 -55.4739 -55.4502 -55.4498 -55.3544 -55.3279 -55.2919
   -55.2914 -55.2743 -55.2512 -55.1906 -55.1900 -54.7542 -54.5231 -54.2815
   -24.4070 -21.7687 -21.5590 -20.8255 -20.8022 -20.7096 -20.6764 -20.2980
   -20.0741 -20.0229 -19.9828 -19.9141 -19.9110 -19.8825 -19.8498 -19.7529
   -19.7327 -18.7356 -18.6776 -12.9776 -12.9201 -11.4889  -9.7826  -9.7765
    -9.7130  -9.6009  -9.4905  -9.4239  -9.1922  -8.8006  -8.7686  -8.5777
    -8.5738  -8.4068  -8.2876  -8.2828  -7.8736  -7.8477  -7.5919  -7.5502
    -7.5026  -7.4714  -7.2917  -7.1906  -7.1768  -6.9538  -6.9302  -6.8261
    -6.7793  -6.6623  -6.5168  -6.4245  -6.2075  -6.1986  -5.9983  -5.9451
    -5.8524  -5.7179  -5.6164  -5.6075  -5.4525  -5.2874  -5.2279  -5.1784
    -5.0850  -5.0002  -4.8137  -4.7477  -4.7131  -4.6168  -4.5504  -4.2834
    -4.1955  -4.0271  -4.0178  -3.8010  -3.7555  -3.6901  -3.4371  -3.3843
    -3.3601  -3.2509  -3.1844  -3.0796  -2.7413  -2.7302  -2.5618  -2.4173
    -2.3986  -2.2138  -2.1728  -2.1671  -2.0938  -2.0301  -1.8813  -1.7032
    -1.6890  -1.6790  -1.5421  -1.1087  -1.0798  -0.3025  -0.1938   0.0159
     0.0968   0.1565   0.4779   0.4803   0.5702   0.6471   0.6551   0.6927
     0.8354   1.6045   1.6517   3.3902   3.8735   3.8906   4.5047   4.9786
     5.1518   5.2570   5.5400   5.6258   5.7112   5.7938   6.3395   6.4358
     6.5414   6.7544   6.7880   6.8820   7.1102   7.2147   7.5314   7.6782
     7.7523   7.7886   7.8734   8.0022   8.0999   8.3501   8.3913   8.5131
     8.5314   8.6173   8.7089   8.7603   8.7769   8.8571   8.9167   8.9491
     9.0123   9.0190   9.1401   9.1683   9.2399   9.2826   9.4064   9.4922
     9.4999   9.6020   9.6091   9.8641   9.8756  10.0001  10.1024  10.1259
    10.2627  10.5735  10.7501  10.7693  10.7862  10.8076  10.8838  11.1054
    11.1562  11.3488  11.3586  11.4832  11.5702  11.6085  11.6458  11.6813
    11.7248  11.8688  11.9214  11.9948  12.0431  12.0687  12.2151  12.4866
    12.5390  12.5866  12.6382  12.6547  12.7162  12.7333  12.8868  12.9408
    12.9628  13.0262  13.0754  13.1086  13.1656  13.2092  13.3296  13.5517
    13.6152  13.6851  13.7150  13.8565  13.9457  14.0071  14.1010  14.1855
    14.2722  14.4007  14.4283  14.4907  14.6490  14.7115  14.7645  14.8788
    14.9018  15.0014  15.0190  15.2201  15.2572  15.5283  15.5558  15.6034
    15.6991  15.7600  15.7836  15.8089  15.8621  15.9306  15.9921  16.0516
    16.1305  16.1791  16.2119  16.2195  16.3230  16.3440  16.3872  16.4807
    16.5253  16.5891  16.6203  16.6627  16.6724  16.6910  16.7075  16.7120
    16.7255  16.7562  16.8350  16.8395  16.8966  17.0186  17.1257  17.1755
[...]
    14.2632  14.3217  14.3401  14.4456  14.5467  14.6799  14.7439  14.8317
    14.9272  15.0121  15.2017  15.2739  15.4586  15.4669  15.5599  15.5891
    15.6196  15.6842  15.7155  15.7776  15.8186  15.8572  15.9078  16.0056
    16.0156  16.1120  16.1277  16.1571  16.1869  16.2643  16.2690  16.3019
    16.3242  16.3354  16.3860  16.4024  16.4150  16.4746  16.4983  16.5914
    16.6379  16.7702  16.7770  16.8891  16.9093  17.0118  17.0849  17.0995
    17.1963  17.2444  17.2704  17.3186  17.4379  17.5388  17.5565  17.5828
    17.8027  17.8297  17.8718  17.9592  17.9835  18.1254  18.1527  18.2464
    18.2737  18.3185  18.3764  18.5015  18.5177  18.5517  18.6170  18.6942
    18.7295  18.7542  18.7629  18.8618  18.9272  19.0149  19.0384  19.0678
    19.0957  19.2293  19.2722  19.4151  19.4364  19.4951  19.5133  19.5452
    19.5924  19.6750  19.7288  19.7349  19.8308  19.8530  19.8945  19.9455
    20.0268  20.0647  20.1175  20.1995  20.2354  20.2757  20.3665  20.3988
    20.4314  20.4934  20.5079  20.5219  20.5612  20.5825  20.6482  20.7656
    20.8065  20.8249  20.9347  20.9844  21.0102  21.0963  21.1514  21.2138
    21.3427  21.4203  21.4700  21.4955  21.5367  21.6040  21.7210  21.8232
    21.8940

          k =-0.5000 0.2488 0.0000 ( 32052 PWs)   bands (ev):

   -56.2994 -56.2842 -56.0999 -56.0812 -56.0810 -56.0441 -56.0438 -55.9859
   -55.9857 -55.9747 -55.9614 -55.8744 -55.8738 -55.7775 -55.7542 -55.7184
   -55.7182 -55.7144 -55.7141 -55.6961 -55.6763 -55.2840 -55.0497 -54.8090
   -22.1459 -22.0088 -21.0953 -21.0921 -20.8739 -20.8315 -20.5927 -20.5770
   -20.4253 -20.4182 -20.3449 -20.3312 -20.2204 -20.2154 -20.1295 -20.1232
   -19.1679 -19.1239 -18.5647 -10.0648  -9.9819  -9.7682  -9.7594  -9.6009
    -9.5524  -9.2123  -9.2071  -9.0137  -8.9199  -8.8321  -8.8195  -8.7167
    -8.6220  -8.3782  -8.3551  -8.2203  -8.1826  -8.1369  -8.0984  -7.7964
    -7.7809  -7.6629  -7.6392  -7.4917  -7.4044  -7.1863  -7.0970  -7.0423
    -6.9974  -6.7975  -6.7589  -6.5951  -6.5025  -6.4471  -6.3902  -6.3303
    -6.2517  -6.1460  -6.0865  -6.0062  -5.9283  -5.7866  -5.6168  -5.3309
    -5.3038  -5.2293  -5.1137  -5.0562  -4.8976  -4.6975  -4.6092  -4.4194
    -4.2098  -4.1550  -3.9259  -3.8864  -3.8406  -3.7546  -3.6895  -3.6686
    -3.5050  -3.4869  -3.4136  -3.3082  -3.2504  -3.2120  -2.9907  -2.8984
    -2.7197  -2.6970  -2.5468  -2.5009  -2.4157  -2.3867  -2.2523  -2.2478
    -2.0934  -2.0544  -1.9235  -1.7237  -1.4219  -0.7060  -0.5895  -0.4692
    -0.4464  -0.2387  -0.1765   0.0636   0.0865   0.4030   0.4655   0.7989
     0.8240   1.0927   1.2850   1.6765   3.7746   3.7834   4.4382   4.7758
     5.2162   5.3955   5.5545   5.6112   5.6867   5.9474   5.9702   6.1282
     6.2535   6.3518   6.6375   6.7100   6.7735   6.9369   7.0819   7.1579
     7.3206   7.5148   7.5646   7.6369   7.6709   7.8260   7.8798   7.9206
     7.9520   8.1434   8.1565   8.3749   8.4412   8.5302   8.6022   8.6739
     8.6988   8.8562   9.0786   9.1338   9.3095   9.3642   9.4747   9.5482
     9.5764   9.9064  10.0003  10.1365  10.2632  10.3841  10.4736  10.6672
    10.7787  10.8044  10.8307  10.9440  11.0630  11.1048  11.1903  11.2807
    11.3393  11.4156  11.5417  11.5819  11.6725  11.6964  11.7965  11.9326
    11.9925  12.0146  12.1146  12.1727  12.2349  12.3009  12.4618  12.5317
    12.5656  12.6126  12.6612  12.6846  12.7642  12.8506  12.9204  12.9435
    13.0669  13.1256  13.1926  13.2635  13.2821  13.3815  13.4068  13.4619
    13.4967  13.5829  13.8116  13.8485  13.9238  14.0164  14.1110  14.1784
    14.1893  14.2809  14.3117  14.3751  14.4463  14.4839  14.5716  14.5905
    14.6903  14.7581  14.8485  14.8698  14.9682  15.0429  15.1585  15.2182
    15.3465  15.4100  15.5873  15.6869  15.7285  15.7508  15.8114  15.8393
    15.8627  15.9127  15.9611  16.0099  16.0394  16.1044  16.1127  16.1421
    16.1806  16.2517  16.2715  16.2801  16.2971  16.3807  16.4053  16.4483
    16.4720  16.5847  16.5912  16.6472  16.6847  16.7469  16.8222  16.9101
    17.0355  17.0653  17.0801  17.1571  17.2002  17.2888  17.3608  17.4354
    17.4538  17.4976  17.5611  17.5960  17.6361  17.7971  17.9536  18.0203
    18.0613  18.0941  18.1066  18.1363  18.2163  18.2711  18.3434  18.4224
    18.4614  18.5467  18.5696  18.6592  18.6960  18.7579  18.8036  18.8585
    18.9033  19.0307  19.0698  19.2061  19.2601  19.2923  19.3234  19.4131
    19.4412  19.4882  19.5131  19.5897  19.6332  19.7034  19.7860  19.8164
    19.8629  19.9790  20.0232  20.1641  20.2328  20.3265  20.3700  20.4535
    20.4906  20.5854  20.6717  20.8204  20.8668  20.9024  20.9370  20.9820
    21.0730  21.1508  21.2239  21.2635  21.3279  21.4078  21.4385  21.6051
    21.6765  21.6987  21.7783  21.8152  21.8265  21.9094  21.9758  21.9945
    22.0661

          k =-0.5000-0.4976 0.0000 ( 31956 PWs)   bands (ev):

   -56.2994 -56.2842 -56.0999 -56.0812 -56.0807 -56.0441 -56.0438 -55.9859
   -55.9858 -55.9748 -55.9615 -55.8741 -55.8735 -55.7776 -55.7542 -55.7184
   -55.7182 -55.7143 -55.7140 -55.6964 -55.6764 -55.2839 -55.0497 -54.8090
   -22.1396 -22.0007 -20.9590 -20.9573 -20.7826 -20.7414 -20.6263 -20.6065
   -20.5422 -20.5378 -20.3790 -20.3650 -20.2946 -20.2939 -20.1566 -20.1555
   -19.1641 -19.1210 -18.5620 -10.0318  -9.9391  -9.3471  -9.3446  -9.1698
    -9.1678  -9.0978  -9.0079  -8.9158  -8.8692  -8.7096  -8.6602  -8.6581
    -8.6010  -8.5657  -8.4635  -8.4044  -8.3947  -8.3402  -8.3239  -7.8729
    -7.7877  -7.7080  -7.6952  -7.5023  -7.4107  -7.3498  -7.1935  -7.1744
    -7.1209  -7.0381  -7.0281  -6.9175  -6.8959  -6.7289  -6.5921  -6.4730
    -6.4611  -6.2381  -6.0733  -6.0184  -5.7930  -5.6902  -5.5324  -5.3650
    -5.2851  -5.1479  -5.0216  -4.9489  -4.8715  -4.7676  -4.5130  -4.3302
    -4.1489  -4.0804  -3.8103  -3.7040  -3.6588  -3.6381  -3.5897  -3.5650
    -3.5057  -3.4566  -3.4081  -3.3801  -3.2376  -3.2292  -3.0506  -2.8642
    -2.8055  -2.7043  -2.5615  -2.4314  -2.3523  -2.3463  -2.3216  -2.2660
    -2.2157  -2.0502  -1.9143  -1.7726  -1.3520  -0.9604  -0.9210  -0.8245
    -0.4897  -0.4647  -0.2185   0.1279   0.1286   0.7572   0.8044   0.8280
     0.9214   1.3827   1.4454   1.4775   4.3012   4.3204   4.6693   4.8220
     4.8707   5.2735   5.5772   5.6662   5.8094   6.0268   6.1260   6.1811
     6.2741   6.5260   6.5373   6.6722   6.6823   6.7077   6.7795   6.8288
     7.1343   7.1682   7.2660   7.3621   7.3708   7.4685   7.5314   7.6347
     7.8046   7.9910   8.2598   8.2930   8.3226   8.5220   8.5515   8.8710
     8.9188   8.9278   9.0211   9.0577   9.1187   9.1728   9.4503   9.4809
     9.6740   9.7856   9.9883  10.2060  10.2771  10.5765  10.6000  10.7866
    10.8377  10.8457  11.0819  11.1677  11.3199  11.5228  11.5848  11.6252
    11.7750  11.8205  11.8648  11.8712  11.9344  12.2161  12.2316  12.3124
    12.3801  12.4594  12.6263  12.7044  12.7255  12.7369  12.7759  13.0314
    13.0555  13.0644  13.1302  13.1898  13.2132  13.2399  13.2714  13.2915
    13.3578  13.4106  13.5026  13.5398  13.6371  13.6521  13.6870  13.6943
    13.7291  13.7510  13.8075  13.8178  13.8564  13.8659  13.8845  13.9612
    14.0193  14.0281  14.1253  14.1742  14.2803  14.3574  14.3725  14.4428
    14.5792  14.6132  14.6310  14.7121  14.7277  14.8062  14.8460  14.8926
    14.9383  14.9506  14.9883  14.9906  15.0422  15.0534  15.1817  15.2265
    15.2654  15.3007  15.3839  15.4035  15.5603  15.5861  15.6125  15.7281
    15.8105  15.8279  15.9210  16.0928  16.0979  16.1461  16.1975  16.2727
    16.2785  16.3140  16.3303  16.3740  16.3809  16.4713  16.4745  16.5027
    16.5739  16.6666  16.7026  16.8573  16.9553  17.0114  17.0488  17.1706
    17.3124  17.3598  17.4083  17.6118  17.6828  17.7450  17.8052  17.8201
    17.8738  17.9086  18.0114  18.0570  18.2317  18.3005  18.4938  18.5025
    18.5664  18.6089  18.6395  18.8267  18.9065  18.9413  18.9853  19.0254
    19.0993  19.1200  19.2618  19.4166  19.5164  19.5615  19.6030  19.6640
    19.7316  19.8258  19.8498  19.8855  19.9880  20.0267  20.0894  20.1921
    20.2128  20.2376  20.3639  20.4284  20.4916  20.5532  20.6210  20.6454
    20.6605  20.7023  20.8201  20.8750  20.9453  21.0319  21.0629  21.0827
    21.1137  21.1250  21.1594  21.1957  21.2335  21.2598  21.3003  21.3671
    21.4089  21.4259  21.4810  21.5216  21.5705  21.6139  21.6338  21.7516
    21.7586

          k =-0.2500 0.2488 0.0000 ( 32025 PWs)   bands (ev):

   -56.2997 -56.2842 -56.1020 -56.0982 -56.0625 -56.0618 -56.0253 -55.9882
   -55.9869 -55.9847 -55.9478 -55.8758 -55.8723 -55.7776 -55.7540 -55.7209
   -55.7167 -55.7157 -55.7117 -55.6962 -55.6762 -55.2836 -55.0497 -54.8090
   -22.2295 -21.9587 -21.3324 -21.1023 -20.8414 -20.6495 -20.6164 -20.5266
   -20.5053 -20.4382 -20.3466 -20.3208 -20.2479 -20.1770 -20.1054 -20.0268
   -19.1700 -19.0444 -18.5675 -10.3034 -10.0623  -9.9194  -9.8764  -9.4508
    -9.3827  -9.2761  -9.1993  -9.1359  -9.0809  -8.9031  -8.8940  -8.8251
    -8.6771  -8.5996  -8.5737  -8.4286  -8.3038  -8.0921  -7.9698  -7.8524
    -7.7298  -7.6313  -7.4274  -7.2052  -7.1382  -6.9748  -6.9124  -6.8620
    -6.8129  -6.7437  -6.6460  -6.5567  -6.4795  -6.4301  -6.3081  -6.1766
    -6.1237  -5.9579  -5.8712  -5.7637  -5.6459  -5.5952  -5.5389  -5.3171
    -5.2756  -5.1151  -5.0415  -4.9625  -4.8263  -4.7822  -4.5225  -4.4643
    -4.3880  -4.2743  -4.2065  -4.0636  -4.0095  -3.9131  -3.8569  -3.7897
    -3.7288  -3.6069  -3.5788  -3.5389  -3.4860  -3.3440  -3.2465  -3.1762
    -2.9189  -2.7586  -2.6271  -2.4856  -2.3717  -2.2847  -2.2140  -2.1056
    -1.9499  -1.8329  -1.7906  -1.6669  -1.5565  -1.2187  -0.9628  -0.7683
    -0.4403  -0.2918   0.1214   0.2927   0.5150   0.6722   0.7325   0.8932
     1.0696   1.2195   1.2686   1.7783   2.8781   3.8280   4.6382   4.8855
     4.9779   5.1184   5.3569   5.6458   5.7353   6.0583   6.1653   6.2239
     6.4465   6.4753   6.6739   6.8452   6.9182   7.0209   7.0952   7.1879
     7.3403   7.3891   7.4523   7.5257   7.6144   7.8277   7.8837   7.9183
     8.0527   8.1343   8.2846   8.3627   8.5110   8.6025   8.7047   8.7530
     8.8542   8.9785   9.0869   9.3219   9.3759   9.4458   9.4827   9.6082
     9.6514   9.7539   9.9761  10.0724  10.1921  10.2452  10.3831  10.4611
    10.5324  10.5758  10.7350  10.8108  10.8383  10.9255  11.0509  11.1223
    11.2513  11.3079  11.3472  11.4484  11.4710  11.6368  11.7239  11.7654
    11.8068  11.8978  11.9328  12.0301  12.0957  12.1140  12.2619  12.3170
    12.3855  12.4801  12.5206  12.5761  12.6628  12.7407  12.7954  12.8484
    12.9082  12.9952  13.0779  13.1172  13.2289  13.3337  13.4258  13.5032
    13.6426  13.6786  13.7771  13.8550  13.9039  13.9778  13.9983  14.0832
    14.1257  14.2248  14.4064  14.4872  14.5564  14.6297  14.6793  14.8214
    14.8674  14.9531  15.0311  15.0954  15.2722  15.3086  15.3690  15.4403
    15.5075  15.5878  15.6064  15.6902  15.7216  15.7926  15.8631  15.8742
    15.9139  15.9964  16.0605  16.1000  16.1089  16.1472  16.2186  16.2361
    16.2785  16.2955  16.3059  16.3220  16.3312  16.3510  16.4454  16.5326
    16.6173  16.7635  16.8437  16.8715  16.9305  16.9508  17.0360  17.0692
    17.1366  17.1896  17.2161  17.2288  17.2567  17.2903  17.4319  17.4983
    17.5615  17.6080  17.6394  17.6814  17.7524  17.8273  17.9179  18.0261
    18.0744  18.1386  18.1553  18.2552  18.3314  18.3889  18.4325  18.4957
    18.6110  18.6480  18.7008  18.7331  18.8581  18.9047  18.9160  19.0095
    19.0684  19.1489  19.1799  19.2662  19.2714  19.4289  19.5191  19.5558
    19.6170  19.7289  19.7745  19.8953  19.9274  19.9471  19.9896  20.0306
    20.0598  20.1641  20.2670  20.2791  20.3746  20.4061  20.4999  20.5805
    20.6201  20.7063  20.7804  20.8267  20.8826  21.0023  21.0442  21.0748
    21.1801  21.2838  21.3343  21.4129  21.4668  21.5225  21.5579  21.5737
    21.6346  21.6781  21.7875  21.8113  21.8703  21.9040  22.0198  22.0530
    22.0878

     the Fermi energy is    -1.7269 ev

!    total energy              =   -2280.81613578 Ry
     Harris-Foulkes estimate   =   -2280.81613577 Ry
     estimated scf accuracy    <          5.2E-09 Ry

     The total energy is the sum of the following terms:

     one-electron contribution =  -23443.50398553 Ry
     hartree contribution      =   11761.19837528 Ry
     xc contribution           =    -571.97755269 Ry
     ewald contribution        =    9973.46747563 Ry
     smearing contrib. (-TS)   =      -0.00044846 Ry

     total magnetization       =    -0.00 Bohr mag/cell
     absolute magnetization    =     0.00 Bohr mag/cell

     convergence has been achieved in  48 iterations

     Forces acting on atoms (Ry/au):


     negative rho (up, down):  0.791E+00 0.791E+00
     atom    1 type  1   force =    -0.00757632   -0.00539360    0.00085742
     atom    2 type  1   force =     0.00010234    0.00278226    0.00834518
     atom    3 type  2   force =     0.00596720    0.00300901    0.00531199
     atom    4 type  2   force =     0.01064957    0.00238119    0.00170150
     atom    5 type  1   force =     0.00080769   -0.00211173   -0.00032944
     atom    6 type  1   force =    -0.00016399   -0.00012154   -0.00100117
     atom    7 type  1   force =     0.00005980    0.00418567    0.00782603
     atom    8 type  1   force =    -0.00397423   -0.00732662    0.00170671
     atom    9 type  2   force =     0.00057805    0.00104533    0.00024358
     atom   10 type  2   force =    -0.00003590   -0.00148063    0.00113996
     atom   11 type  1   force =    -0.01693185    0.00545522   -0.02584208
     atom   12 type  1   force =    -0.01718383   -0.00533324   -0.02427444
     atom   13 type  1   force =    -0.00106638   -0.00004071   -0.00453709
     atom   14 type  1   force =    -0.00769197   -0.00468793    0.00213842
     atom   15 type  1   force =     0.00010387    0.00549221   -0.00800370
     atom   16 type  2   force =    -0.00685150    0.00284339    0.00532776
     atom   17 type  2   force =     0.01054442    0.00273345   -0.00105987
     atom   18 type  1   force =     0.00123810   -0.00210692   -0.00028491
     atom   19 type  1   force =     0.00005427   -0.00002963   -0.00103957
     atom   20 type  1   force =     0.00004401    0.00358169    0.01339176
     atom   21 type  1   force =    -0.00397378   -0.00689228   -0.00123185
     atom   22 type  2   force =     0.00295560    0.00111705    0.00022464
     atom   23 type  2   force =    -0.00001877   -0.00069944    0.07330837
     atom   24 type  1   force =     0.01690795    0.00545755   -0.02584579
     atom   25 type  1   force =     0.01736958   -0.00534761   -0.02424326
     atom   26 type  1   force =    -0.00111358    0.00009757   -0.00286492
     atom   27 type  3   force =     0.00004400    0.00106148    0.00032324
     atom   28 type  3   force =    -0.00000724   -0.00066497   -0.00024533
     atom   29 type  3   force =    -0.00051135    0.00038574   -0.00052216
     atom   30 type  3   force =    -0.00032225    0.00047674   -0.00054555
     atom   31 type  1   force =    -0.00000349    0.00013130    0.00002459

     Total force =     0.000134     Total SCF correction =     0.000014
     SCF correction compared to forces is large: reduce conv_thr to get better values

     bfgs converged in   8 scf cycles and   7 bfgs steps
     (criteria: energy < 0.10E-03, force < 0.10E-02)

     End of BFGS Geometry Optimization

     Final energy   =   -2280.8161357757 Ry
Begin final coordinates

ATOMIC_POSITIONS (crystal)
O0       0.000000000   0.000000000   0.376930000    0   0   0
O0       0.000000000   0.500000000   0.399170000    0   0   0
Pt1      0.250000000   0.500000000   0.449030000    0   0   0
Pt1      0.000000000   0.000000000   0.451970000    0   0   0
O0       0.250000000   0.810000000   0.442770000    0   0   0
O0       0.250000000   0.190000000   0.459040000    0   0   0
O0       0.000000000   0.500000000   0.495410000    0   0   0
O0       0.000000000   0.000000000   0.529370000    0   0   0
Pt1      0.250000000   0.000000000   0.576120000    0   0   0
Pt1      0.000000000   0.500000000   0.574260000    0   0   0
O0       0.250000000   0.690000000   0.583080000    0   0   0
O0       0.250000000   0.310000000   0.583650000    0   0   0
O0       0.000000000   0.000000000   0.621610000    0   0   0
O0       0.500000000   0.000000000   0.376930000    0   0   0
O0       0.500000000   0.500000000   0.399170000    0   0   0
Pt1      0.750000000   0.500000000   0.449030000    0   0   0
Pt1      0.500000000   0.000000000   0.451970000    0   0   0
O0       0.750000000   0.810000000   0.442770000    0   0   0
O0       0.750000000   0.190000000   0.459040000    0   0   0
O0       0.500000000   0.500000000   0.495410000    0   0   0
O0       0.500000000   0.000000000   0.529370000    0   0   0
Pt1      0.750000000   0.000000000   0.576120000    0   0   0
Pt1      0.500000000   0.500000000   0.574260000    0   0   0
O0       0.750000000   0.690000000   0.583080000    0   0   0
O0       0.750000000   0.310000000   0.583650000    0   0   0
O0       0.500000000   0.000000000   0.621610000    0   0   0
H2      -0.000050000   0.640060000   0.383550000    0   0   0
H2       0.499950000   0.640060000   0.383550000    0   0   0
H2       0.144070000   0.031380000   0.366970000    0   0   0
H2       0.644070000   0.031380000   0.366970000    0   0   0
O0       0.499986987   0.500188940   0.643813331
End final coordinates



     init_run     :    110.87s CPU    150.21s WALL (       1 calls)
     electrons    :  73508.40s CPU  98528.31s WALL (       8 calls)
     update_pot   :     50.02s CPU     58.73s WALL (       7 calls)
     forces       :    521.64s CPU    547.94s WALL (       8 calls)

     Called by init_run:
     wfcinit      :     90.25s CPU    127.87s WALL (       1 calls)
     potinit      :      3.18s CPU      4.15s WALL (       1 calls)

     Called by electrons:
     c_bands      :  58893.60s CPU  78731.73s WALL (     233 calls)
     sum_band     :  11193.85s CPU  15935.07s WALL (     233 calls)
     v_of_rho     :    274.52s CPU    437.44s WALL (     240 calls)
     newd         :   3113.42s CPU   3182.23s WALL (     240 calls)
     mix_rho      :     54.76s CPU     93.58s WALL (     233 calls)

     Called by c_bands:
     init_us_2    :     66.23s CPU     66.82s WALL (    9500 calls)
     cegterg      :  58579.61s CPU  78416.21s WALL (    4660 calls)

     Called by *egterg:
     h_psi        :  31754.35s CPU  49341.30s WALL (   12188 calls)
     s_psi        :   2211.75s CPU   2213.28s WALL (   12188 calls)
     g_psi        :     47.48s CPU     47.48s WALL (    7508 calls)
     cdiaghg      :  12438.57s CPU  12859.25s WALL (   12008 calls)

     Called by h_psi:
     add_vuspsi   :   2225.88s CPU   2228.93s WALL (   12188 calls)

     General routines
     calbec       :   3579.67s CPU   3898.50s WALL (   17008 calls)
     fft          :    487.37s CPU    882.73s WALL (    7520 calls)
     ffts         :      8.59s CPU     16.06s WALL (     946 calls)
     fftw         :  30119.07s CPU  51906.50s WALL ( 8789970 calls)
     interpolate  :     59.34s CPU    105.84s WALL (     946 calls)

     Parallel routines
     fft_scatter  :  22532.89s CPU  44587.84s WALL ( 8798436 calls)

     PWSCF        :     0d   20h38m CPU        1d    3h36m WALL


   This run was terminated on:  22:25: 1  25Mar2014            

=------------------------------------------------------------------------------=
   JOB DONE.
=------------------------------------------------------------------------------=
---------------------------------------
Running PBS batch system epilogue script
Job id: 312954.audhumbla.fysik.dtu.dk
Username: zhonxu
Groupname: campgst
Jobname: PtO2/Eads-2-layers/O
Sessionid: 20631
Resources limits: neednodes=2:ppn=8:xeon8,nodes=2:ppn=8:xeon8,walltime=48:00:00
Resources used: cput=441:26:41,mem=10559640kb,vmem=14108236kb,walltime=27:36:32
Queuename: verylong
Accounting:
This job has allocated the following 16 nodes:
b123 b123 b123 b123 b123 b123 b123 b123 b087 b087 b087 b087 b087 b087 b087 b087
Finished epilogue job 312954.audhumbla.fysik.dtu.dk for zhonxu
