
     Program PWSCF v.5.0.2 (svn rev. 9656) starts on 11Feb2014 at 20:16:46 

     This program is part of the open-source Quantum ESPRESSO suite
     for quantum simulation of materials; please cite
         "P. Giannozzi et al., J. Phys.:Condens. Matter 21 395502 (2009);
          URL http://www.quantum-espresso.org", 
     in publications or presentations arising from this work. More details at
     http://www.quantum-espresso.org/quote.php

     Parallel version (MPI), running on    16 processors
     R & G space division:  proc/nbgrp/npool/nimage =      16

     Current dimensions of program PWSCF are:
     Max number of different atomic species (ntypx) = 10
     Max number of k-points (npk) =  40000
     Max angular momentum in pseudopotentials (lmaxx) =  3
     Reading input from alpha_-0.07/alpha_-0.07.in
Warning: card &IONS ignored
Warning: card / ignored
Warning: card &CELL ignored
Warning: card / ignored

     Subspace diagonalization in iterative solution of the eigenvalue problem:
     a serial algorithm will be used


     Parallelization info
     --------------------
     sticks:   dense  smooth     PW     G-vecs:    dense   smooth      PW
     Min         748     238     67                43352     7842    1157
     Max         749     239     69                43355     7866    1158
     Sum       11977    3817   1085               693671   125609   18517



     bravais-lattice index     =            0
     lattice parameter (alat)  =      17.3477  a.u.
     unit-cell volume          =    3673.7913 (a.u.)^3
     number of atoms/cell      =           48
     number of atomic types    =            3
     number of electrons       =       448.00
     number of Kohn-Sham states=          672
     kinetic-energy cutoff     =      40.0000  Ry
     charge density cutoff     =     500.0000  Ry
     convergence threshold     =      1.0E-06
     mixing beta               =       0.7000
     number of iterations used =            8  plain     mixing
     Exchange-correlation      = SLA  PW   PBE  PBE ( 1 4 3 4 0)
     EXX-fraction              =        0.00

     celldm(1)=  17.347686  celldm(2)=   0.000000  celldm(3)=   0.000000
     celldm(4)=   0.000000  celldm(5)=   0.000000  celldm(6)=   0.000000

     crystal axes: (cart. coord. in units of alat)
               a(1) = (   1.000000   0.000000   0.000000 )  
               a(2) = (   0.000000   1.000000   0.000000 )  
               a(3) = (   0.000000   0.000000   0.703704 )  

     reciprocal axes: (cart. coord. in units 2 pi/alat)
               b(1) = (  1.000000  0.000000  0.000000 )  
               b(2) = (  0.000000  1.000000  0.000000 )  
               b(3) = (  0.000000  0.000000  1.421053 )  


     PseudoPot. # 1 for Pt read from file:
     /home/camp/zhonxu/pseudo/pt_pbe_v1.uspp.F.UPF
     MD5 check sum: 4c71d6ad5ef119f1eb26a4d0b7884226
     Pseudo is Ultrasoft + core correction, Zval = 16.0
     Generated by new atomic code, or converted to UPF format
     Using radial grid of  985 points,  6 beta functions with: 
                l(1) =   0
                l(2) =   0
                l(3) =   1
                l(4) =   1
                l(5) =   2
                l(6) =   2
     Q(r) pseudized with  8 coefficients,  rinner =    1.300   1.300   1.300
                                                       1.300   1.300

     PseudoPot. # 2 for O  read from file:
     /home/camp/zhonxu/pseudo/o_pbe_v1.01.uspp.F.UPF
     MD5 check sum: 2bcb18d16ea4b960afae9ec6d52f22d2
     Pseudo is Ultrasoft + core correction, Zval =  6.0
     Generated by new atomic code, or converted to UPF format
     Using radial grid of  737 points,  5 beta functions with: 
                l(1) =   0
                l(2) =   0
                l(3) =   1
                l(4) =   1
                l(5) =   2
     Q(r) pseudized with  8 coefficients,  rinner =    0.900   0.900   0.900
                                                       0.900   0.900

     PseudoPot. # 3 for O  read from file:
     /home/camp/zhonxu/pseudo/o_pbe_v1.01.uspp.F.UPF
     MD5 check sum: 2bcb18d16ea4b960afae9ec6d52f22d2
     Pseudo is Ultrasoft + core correction, Zval =  6.0
     Generated by new atomic code, or converted to UPF format
     Using radial grid of  737 points,  5 beta functions with: 
                l(1) =   0
                l(2) =   0
                l(3) =   1
                l(4) =   1
                l(5) =   2
     Q(r) pseudized with  8 coefficients,  rinner =    0.900   0.900   0.900
                                                       0.900   0.900

     atomic species   valence    mass     pseudopotential
        Pt0           16.00   195.08000     Pt( 1.00)
        O1             6.00    15.99940     O ( 1.00)
        O2             6.00    15.99940     O ( 1.00)

     Starting magnetic structure 
     atomic species   magnetization
        Pt0          0.000
        O1           0.000
        O2           0.000


     Simplified LDA+U calculation (l_max = 2) with parameters (eV):
     atomic species    L          U    alpha       J0     beta
        Pt0            2     0.0000   0.0000   0.0000   0.0000
        O1             1     0.0000  -0.0700   0.0000   0.0000
        O2             1     0.0000   0.0000   0.0000   0.0000



      4 Sym. Ops. (no inversion) found



   Cartesian axes

     site n.     atom                  positions (alat units)
         1           Pt0 tau(   1) = (  -0.1550000  -0.1550000   0.0000000  )
         2           Pt0 tau(   2) = (   0.0950000   0.0950000   0.1759259  )
         3           Pt0 tau(   3) = (  -0.1550000  -0.1550000   0.3518519  )
         4           Pt0 tau(   4) = (   0.0950000   0.0950000   0.5277778  )
         5           Pt0 tau(   5) = (  -0.1550000   0.3450000   0.0000000  )
         6           Pt0 tau(   6) = (   0.0950000   0.5950000   0.1759259  )
         7           Pt0 tau(   7) = (  -0.1550000   0.3450000   0.3518519  )
         8           Pt0 tau(   8) = (   0.0950000   0.5950000   0.5277778  )
         9           Pt0 tau(   9) = (   0.3450000  -0.1550000   0.0000000  )
        10           Pt0 tau(  10) = (   0.5950000   0.0950000   0.1759259  )
        11           Pt0 tau(  11) = (   0.3450000  -0.1550000   0.3518519  )
        12           Pt0 tau(  12) = (   0.5950000   0.0950000   0.5277778  )
        13           Pt0 tau(  13) = (   0.3450000   0.3450000   0.0000000  )
        14           Pt0 tau(  14) = (   0.5950000   0.5950000   0.1759259  )
        15           Pt0 tau(  15) = (   0.3450000   0.3450000   0.3518519  )
        16           Pt0 tau(  16) = (   0.5950000   0.5950000   0.5277778  )
        17           O1  tau(  17) = (   0.0000000   0.0000000   0.0000000  )
        18           O2  tau(  18) = (  -0.3100000  -0.3100000   0.0000000  )
        19           O2  tau(  19) = (   0.2500000  -0.0600000   0.1759259  )
        20           O2  tau(  20) = (  -0.0600000   0.2500000   0.1759259  )
        21           O2  tau(  21) = (   0.0000000   0.0000000   0.3518519  )
        22           O2  tau(  22) = (  -0.3100000  -0.3100000   0.3518519  )
        23           O2  tau(  23) = (   0.2500000  -0.0600000   0.5277778  )
        24           O2  tau(  24) = (  -0.0600000   0.2500000   0.5277778  )
        25           O2  tau(  25) = (   0.0000000   0.5000000   0.0000000  )
        26           O2  tau(  26) = (  -0.3100000   0.1900000   0.0000000  )
        27           O2  tau(  27) = (   0.2500000   0.4400000   0.1759259  )
        28           O2  tau(  28) = (  -0.0600000   0.7500000   0.1759259  )
        29           O2  tau(  29) = (   0.0000000   0.5000000   0.3518519  )
        30           O2  tau(  30) = (  -0.3100000   0.1900000   0.3518519  )
        31           O2  tau(  31) = (   0.2500000   0.4400000   0.5277778  )
        32           O2  tau(  32) = (  -0.0600000   0.7500000   0.5277778  )
        33           O2  tau(  33) = (   0.5000000   0.0000000   0.0000000  )
        34           O2  tau(  34) = (   0.1900000  -0.3100000   0.0000000  )
        35           O2  tau(  35) = (   0.7500000  -0.0600000   0.1759259  )
        36           O2  tau(  36) = (   0.4400000   0.2500000   0.1759259  )
        37           O2  tau(  37) = (   0.5000000   0.0000000   0.3518519  )
        38           O2  tau(  38) = (   0.1900000  -0.3100000   0.3518519  )
        39           O2  tau(  39) = (   0.7500000  -0.0600000   0.5277778  )
        40           O2  tau(  40) = (   0.4400000   0.2500000   0.5277778  )
        41           O2  tau(  41) = (   0.5000000   0.5000000   0.0000000  )
        42           O2  tau(  42) = (   0.1900000   0.1900000   0.0000000  )
        43           O2  tau(  43) = (   0.7500000   0.4400000   0.1759259  )
        44           O2  tau(  44) = (   0.4400000   0.7500000   0.1759259  )
        45           O2  tau(  45) = (   0.5000000   0.5000000   0.3518519  )
        46           O2  tau(  46) = (   0.1900000   0.1900000   0.3518519  )
        47           O2  tau(  47) = (   0.7500000   0.4400000   0.5277778  )
        48           O2  tau(  48) = (   0.4400000   0.7500000   0.5277778  )

     number of k points=    42  Methfessel-Paxton smearing, width (Ry)=  0.0100
                       cart. coord. in units 2pi/alat
        k(    1) = (   0.0000000   0.0000000   0.0000000), wk =   0.0156250
        k(    2) = (   0.0000000   0.0000000   0.3552632), wk =   0.0312500
        k(    3) = (   0.0000000   0.0000000  -0.7105263), wk =   0.0156250
        k(    4) = (   0.0000000   0.2500000   0.0000000), wk =   0.0625000
        k(    5) = (   0.0000000   0.2500000   0.3552632), wk =   0.1250000
        k(    6) = (   0.0000000   0.2500000  -0.7105263), wk =   0.0625000
        k(    7) = (   0.0000000  -0.5000000   0.0000000), wk =   0.0312500
        k(    8) = (   0.0000000  -0.5000000   0.3552632), wk =   0.0625000
        k(    9) = (   0.0000000  -0.5000000  -0.7105263), wk =   0.0312500
        k(   10) = (   0.2500000   0.2500000   0.0000000), wk =   0.0312500
        k(   11) = (   0.2500000   0.2500000   0.3552632), wk =   0.0625000
        k(   12) = (   0.2500000   0.2500000  -0.7105263), wk =   0.0312500
        k(   13) = (   0.2500000  -0.5000000   0.0000000), wk =   0.0625000
        k(   14) = (   0.2500000  -0.5000000   0.3552632), wk =   0.1250000
        k(   15) = (   0.2500000  -0.5000000  -0.7105263), wk =   0.0625000
        k(   16) = (  -0.5000000  -0.5000000   0.0000000), wk =   0.0156250
        k(   17) = (  -0.5000000  -0.5000000   0.3552632), wk =   0.0312500
        k(   18) = (  -0.5000000  -0.5000000  -0.7105263), wk =   0.0156250
        k(   19) = (   0.2500000  -0.2500000   0.0000000), wk =   0.0312500
        k(   20) = (   0.2500000  -0.2500000   0.3552632), wk =   0.0625000
        k(   21) = (   0.2500000  -0.2500000  -0.7105263), wk =   0.0312500
        k(   22) = (   0.0000000   0.0000000   0.0000000), wk =   0.0156250
        k(   23) = (   0.0000000   0.0000000   0.3552632), wk =   0.0312500
        k(   24) = (   0.0000000   0.0000000  -0.7105263), wk =   0.0156250
        k(   25) = (   0.0000000   0.2500000   0.0000000), wk =   0.0625000
        k(   26) = (   0.0000000   0.2500000   0.3552632), wk =   0.1250000
        k(   27) = (   0.0000000   0.2500000  -0.7105263), wk =   0.0625000
        k(   28) = (   0.0000000  -0.5000000   0.0000000), wk =   0.0312500
        k(   29) = (   0.0000000  -0.5000000   0.3552632), wk =   0.0625000
        k(   30) = (   0.0000000  -0.5000000  -0.7105263), wk =   0.0312500
        k(   31) = (   0.2500000   0.2500000   0.0000000), wk =   0.0312500
        k(   32) = (   0.2500000   0.2500000   0.3552632), wk =   0.0625000
        k(   33) = (   0.2500000   0.2500000  -0.7105263), wk =   0.0312500
        k(   34) = (   0.2500000  -0.5000000   0.0000000), wk =   0.0625000
        k(   35) = (   0.2500000  -0.5000000   0.3552632), wk =   0.1250000
        k(   36) = (   0.2500000  -0.5000000  -0.7105263), wk =   0.0625000
        k(   37) = (  -0.5000000  -0.5000000   0.0000000), wk =   0.0156250
        k(   38) = (  -0.5000000  -0.5000000   0.3552632), wk =   0.0312500
        k(   39) = (  -0.5000000  -0.5000000  -0.7105263), wk =   0.0156250
        k(   40) = (   0.2500000  -0.2500000   0.0000000), wk =   0.0312500
        k(   41) = (   0.2500000  -0.2500000   0.3552632), wk =   0.0625000
        k(   42) = (   0.2500000  -0.2500000  -0.7105263), wk =   0.0312500

     Dense  grid:   693671 G-vectors     FFT dimensions: ( 125, 125,  90)

     Smooth grid:   125609 G-vectors     FFT dimensions: (  72,  72,  50)

     Largest allocated arrays     est. size (Mb)     dimensions
        Kohn-Sham Wavefunctions        10.13 Mb     (    988,  672)
        Atomic wavefunctions            4.82 Mb     (    988,  320)
        NL pseudopotentials            10.61 Mb     (    988,  704)
        Each V/rho on FFT grid          2.86 Mb     (  93750,   2)
        Each G-vector array             0.33 Mb     (  43354)
        G-vector shells                 0.12 Mb     (  15717)
     Largest temporary arrays     est. size (Mb)     dimensions
        Auxiliary wavefunctions        40.52 Mb     (    988, 2688)
        Each subspace H/S matrix      110.25 Mb     (2688,2688)
        Each <psi_i|beta_j> matrix      7.22 Mb     (    704,  672)
        Arrays for rho mixing          11.44 Mb     (  93750,   8)

     Check: negative/imaginary core charge=   -0.000005    0.000000

     The initial density is read from file :
     alpha_-0.07/pwscf.save/charge-density.dat


     negative rho (up, down):  0.158E+01 0.158E+01
     Number of +U iterations with fixed ns =  0
     Starting occupations:
 --- enter write_ns ---
 LDA+U parameters:
U( 1)     =  0.00000000
alpha( 1) =  0.00000000
U( 2)     =  0.00000000
alpha( 2) = -0.07000000
U( 3)     =  0.00000000
alpha( 3) =  0.00000000
atom    1   Tr[ns(na)] (up, down, total) =   4.31580  4.31580  8.63159
   spin  1
    eigenvalues: 
  0.691  0.697  0.972  0.976  0.980
    eigenvectors:
  0.000  0.332  0.000  0.000  0.668
  0.500  0.000  0.500  0.000  0.000
  0.500  0.000  0.500  0.000  0.000
  0.000  0.000  0.000  1.000  0.000
  0.000  0.668  0.000  0.000  0.332
    occupations:
  0.886 -0.000 -0.000 -0.000  0.134
 -0.000  0.831  0.141  0.000  0.000
 -0.000  0.141  0.831  0.000  0.000
 -0.000  0.000  0.000  0.976 -0.000
  0.134  0.000  0.000 -0.000  0.791
   spin  2
    eigenvalues: 
  0.691  0.697  0.972  0.976  0.980
    eigenvectors:
  0.000  0.332  0.000  0.000  0.668
  0.500  0.000  0.500  0.000  0.000
  0.500  0.000  0.500  0.000  0.000
  0.000  0.000  0.000  1.000  0.000
  0.000  0.668  0.000  0.000  0.332
    occupations:
  0.886 -0.000 -0.000 -0.000  0.134
 -0.000  0.831  0.141  0.000  0.000
 -0.000  0.141  0.831  0.000  0.000
 -0.000  0.000  0.000  0.976 -0.000
  0.134  0.000  0.000 -0.000  0.791
atomic mag. moment =    -0.000001
atom    2   Tr[ns(na)] (up, down, total) =   4.31585  4.31585  8.63169
   spin  1
    eigenvalues: 
  0.691  0.697  0.972  0.976  0.980
    eigenvectors:
  0.000  0.332  0.000  0.000  0.668
  0.500  0.000  0.500  0.000  0.000
  0.500  0.000  0.500  0.000  0.000
  0.000  0.000  0.000  1.000  0.000
  0.000  0.668  0.000  0.000  0.332
    occupations:
  0.886  0.000  0.000 -0.000 -0.134
  0.000  0.831 -0.141 -0.000  0.000
  0.000 -0.141  0.831  0.000  0.000
 -0.000 -0.000  0.000  0.976 -0.000
 -0.134  0.000  0.000 -0.000  0.791
   spin  2
    eigenvalues: 
  0.691  0.697  0.972  0.976  0.980
    eigenvectors:
  0.000  0.332  0.000  0.000  0.668
  0.500  0.000  0.500  0.000  0.000
  0.500  0.000  0.500  0.000  0.000
  0.000  0.000  0.000  1.000  0.000
  0.000  0.668  0.000  0.000  0.332
    occupations:
  0.886  0.000  0.000 -0.000 -0.134
  0.000  0.831 -0.141 -0.000  0.000
  0.000 -0.141  0.831  0.000  0.000
 -0.000 -0.000  0.000  0.976 -0.000
 -0.134  0.000  0.000 -0.000  0.791
atomic mag. moment =    -0.000001
atom    3   Tr[ns(na)] (up, down, total) =   4.31577  4.31577  8.63155
   spin  1
    eigenvalues: 
  0.691  0.697  0.972  0.976  0.980
    eigenvectors:
  0.000  0.332  0.000  0.000  0.668
  0.500  0.000  0.500  0.000  0.000
  0.500  0.000  0.500  0.000  0.000
  0.000  0.000  0.000  1.000  0.000
  0.000  0.668  0.000  0.000  0.332
    occupations:
  0.886 -0.000 -0.000 -0.000  0.134
 -0.000  0.831  0.141  0.000  0.000
 -0.000  0.141  0.831  0.000  0.000
 -0.000  0.000  0.000  0.976 -0.000
  0.134  0.000  0.000 -0.000  0.791
   spin  2
    eigenvalues: 
  0.691  0.697  0.972  0.976  0.980
    eigenvectors:
  0.000  0.332  0.000  0.000  0.668
  0.500  0.000  0.500  0.000  0.000
  0.500  0.000  0.500  0.000  0.000
  0.000  0.000  0.000  1.000  0.000
  0.000  0.668  0.000  0.000  0.332
    occupations:
  0.886 -0.000 -0.000 -0.000  0.134
 -0.000  0.831  0.141  0.000  0.000
 -0.000  0.141  0.831  0.000  0.000
 -0.000  0.000  0.000  0.976 -0.000
  0.134  0.000  0.000 -0.000  0.791
atomic mag. moment =    -0.000001
atom    4   Tr[ns(na)] (up, down, total) =   4.31585  4.31585  8.63169
   spin  1
    eigenvalues: 
  0.691  0.697  0.972  0.976  0.980
    eigenvectors:
  0.000  0.332  0.000  0.000  0.668
  0.500  0.000  0.500  0.000  0.000
  0.500  0.000  0.500  0.000  0.000
  0.000  0.000  0.000  1.000  0.000
  0.000  0.668  0.000  0.000  0.332
    occupations:
  0.886 -0.000 -0.000 -0.000 -0.134
 -0.000  0.831 -0.141  0.000 -0.000
 -0.000 -0.141  0.831 -0.000 -0.000
 -0.000  0.000 -0.000  0.976 -0.000
 -0.134 -0.000 -0.000 -0.000  0.791
   spin  2
    eigenvalues: 
  0.691  0.697  0.972  0.976  0.980
    eigenvectors:
  0.000  0.332  0.000  0.000  0.668
  0.500  0.000  0.500  0.000  0.000
  0.500  0.000  0.500  0.000  0.000
  0.000  0.000  0.000  1.000  0.000
  0.000  0.668  0.000  0.000  0.332
    occupations:
  0.886 -0.000 -0.000 -0.000 -0.134
 -0.000  0.831 -0.141  0.000 -0.000
 -0.000 -0.141  0.831 -0.000 -0.000
 -0.000  0.000 -0.000  0.976 -0.000
 -0.134 -0.000 -0.000 -0.000  0.791
atomic mag. moment =    -0.000001
atom    5   Tr[ns(na)] (up, down, total) =   4.31571  4.31571  8.63142
   spin  1
    eigenvalues: 
  0.690  0.697  0.972  0.976  0.980
    eigenvectors:
  0.000  0.332  0.000  0.000  0.668
  0.500  0.000  0.500  0.000  0.000
  0.500  0.000  0.500  0.000  0.000
  0.000  0.000  0.000  1.000  0.000
  0.000  0.668  0.000  0.000  0.332
    occupations:
  0.886 -0.000 -0.000  0.000  0.134
 -0.000  0.831  0.141  0.000  0.000
 -0.000  0.141  0.831  0.000  0.000
  0.000  0.000  0.000  0.976 -0.000
  0.134  0.000  0.000 -0.000  0.791
   spin  2
    eigenvalues: 
  0.690  0.697  0.972  0.976  0.980
    eigenvectors:
  0.000  0.332  0.000  0.000  0.668
  0.500  0.000  0.500  0.000  0.000
  0.500  0.000  0.500  0.000  0.000
  0.000  0.000  0.000  1.000  0.000
  0.000  0.668  0.000  0.000  0.332
    occupations:
  0.886 -0.000 -0.000  0.000  0.134
 -0.000  0.831  0.141  0.000  0.000
 -0.000  0.141  0.831  0.000  0.000
  0.000  0.000  0.000  0.976 -0.000
  0.134  0.000  0.000 -0.000  0.791
atomic mag. moment =    -0.000000
atom    6   Tr[ns(na)] (up, down, total) =   4.31565  4.31565  8.63130
   spin  1
    eigenvalues: 
  0.690  0.697  0.972  0.976  0.980
    eigenvectors:
  0.000  0.332  0.000  0.000  0.668
  0.500  0.000  0.500  0.000  0.000
  0.500  0.000  0.500  0.000  0.000
  0.000  0.000  0.000  1.000  0.000
  0.000  0.668  0.000  0.000  0.332
    occupations:
  0.886 -0.000 -0.000  0.000 -0.134
 -0.000  0.831 -0.141 -0.000 -0.000
 -0.000 -0.141  0.831 -0.000  0.000
  0.000 -0.000 -0.000  0.976  0.000
 -0.134 -0.000  0.000  0.000  0.791
   spin  2
    eigenvalues: 
  0.690  0.697  0.972  0.976  0.980
    eigenvectors:
  0.000  0.332  0.000  0.000  0.668
  0.500  0.000  0.500  0.000  0.000
  0.500  0.000  0.500  0.000  0.000
  0.000  0.000  0.000  1.000  0.000
  0.000  0.668  0.000  0.000  0.332
    occupations:
  0.886 -0.000 -0.000  0.000 -0.134
 -0.000  0.831 -0.141 -0.000 -0.000
 -0.000 -0.141  0.831 -0.000  0.000
  0.000 -0.000 -0.000  0.976  0.000
 -0.134 -0.000  0.000  0.000  0.791
atomic mag. moment =     0.000000
atom    7   Tr[ns(na)] (up, down, total) =   4.31571  4.31571  8.63141
   spin  1
    eigenvalues: 
  0.690  0.697  0.972  0.976  0.980
    eigenvectors:
  0.000  0.332  0.000  0.000  0.668
  0.500  0.000  0.500  0.000  0.000
  0.500  0.000  0.500  0.000  0.000
  0.000  0.000  0.000  1.000  0.000
  0.000  0.668  0.000  0.000  0.332
    occupations:
  0.886 -0.000 -0.000 -0.000  0.134
 -0.000  0.831  0.141  0.000  0.000
 -0.000  0.141  0.831  0.000  0.000
 -0.000  0.000  0.000  0.976  0.000
  0.134  0.000  0.000  0.000  0.791
   spin  2
    eigenvalues: 
  0.690  0.697  0.972  0.976  0.980
    eigenvectors:
  0.000  0.332  0.000  0.000  0.668
  0.500  0.000  0.500  0.000  0.000
  0.500  0.000  0.500  0.000  0.000
  0.000  0.000  0.000  1.000  0.000
  0.000  0.668  0.000  0.000  0.332
    occupations:
  0.886 -0.000 -0.000 -0.000  0.134
 -0.000  0.831  0.141  0.000  0.000
 -0.000  0.141  0.831  0.000  0.000
 -0.000  0.000  0.000  0.976  0.000
  0.134  0.000  0.000  0.000  0.791
atomic mag. moment =    -0.000000
atom    8   Tr[ns(na)] (up, down, total) =   4.31565  4.31565  8.63130
   spin  1
    eigenvalues: 
  0.690  0.697  0.972  0.976  0.980
    eigenvectors:
  0.000  0.332  0.000  0.000  0.668
  0.500  0.000  0.500  0.000  0.000
  0.500  0.000  0.500  0.000  0.000
  0.000  0.000  0.000  1.000  0.000
  0.000  0.668  0.000  0.000  0.332
    occupations:
  0.886  0.000  0.000  0.000 -0.134
  0.000  0.831 -0.141  0.000  0.000
  0.000 -0.141  0.831  0.000 -0.000
  0.000  0.000  0.000  0.976  0.000
 -0.134  0.000 -0.000  0.000  0.791
   spin  2
    eigenvalues: 
  0.690  0.697  0.972  0.976  0.980
    eigenvectors:
  0.000  0.332  0.000  0.000  0.668
  0.500  0.000  0.500  0.000  0.000
  0.500  0.000  0.500  0.000  0.000
  0.000  0.000  0.000  1.000  0.000
  0.000  0.668  0.000  0.000  0.332
    occupations:
  0.886  0.000  0.000  0.000 -0.134
  0.000  0.831 -0.141  0.000  0.000
  0.000 -0.141  0.831  0.000 -0.000
  0.000  0.000  0.000  0.976  0.000
 -0.134  0.000 -0.000  0.000  0.791
atomic mag. moment =     0.000000
atom    9   Tr[ns(na)] (up, down, total) =   4.31571  4.31571  8.63142
   spin  1
    eigenvalues: 
  0.690  0.697  0.972  0.976  0.980
    eigenvectors:
  0.000  0.332  0.000  0.000  0.668
  0.500  0.000  0.500  0.000  0.000
  0.500  0.000  0.500  0.000  0.000
  0.000  0.000  0.000  1.000  0.000
  0.000  0.668  0.000  0.000  0.332
    occupations:
  0.886 -0.000 -0.000 -0.000  0.134
 -0.000  0.831  0.141  0.000  0.000
 -0.000  0.141  0.831  0.000  0.000
 -0.000  0.000  0.000  0.976  0.000
  0.134  0.000  0.000  0.000  0.791
   spin  2
    eigenvalues: 
  0.690  0.697  0.972  0.976  0.980
    eigenvectors:
  0.000  0.332  0.000  0.000  0.668
  0.500  0.000  0.500  0.000  0.000
  0.500  0.000  0.500  0.000  0.000
  0.000  0.000  0.000  1.000  0.000
  0.000  0.668  0.000  0.000  0.332
    occupations:
  0.886 -0.000 -0.000 -0.000  0.134
 -0.000  0.831  0.141  0.000  0.000
 -0.000  0.141  0.831  0.000  0.000
 -0.000  0.000  0.000  0.976  0.000
  0.134  0.000  0.000  0.000  0.791
atomic mag. moment =    -0.000000
atom   10   Tr[ns(na)] (up, down, total) =   4.31565  4.31565  8.63130
   spin  1
    eigenvalues: 
  0.690  0.697  0.972  0.976  0.980
    eigenvectors:
  0.000  0.332  0.000  0.000  0.668
  0.500  0.000  0.500  0.000  0.000
  0.500  0.000  0.500  0.000  0.000
  0.000  0.000  0.000  1.000  0.000
  0.000  0.668  0.000  0.000  0.332
    occupations:
  0.886 -0.000 -0.000 -0.000 -0.134
 -0.000  0.831 -0.141  0.000  0.000
 -0.000 -0.141  0.831  0.000 -0.000
 -0.000  0.000  0.000  0.976 -0.000
 -0.134  0.000 -0.000 -0.000  0.791
   spin  2
    eigenvalues: 
  0.690  0.697  0.972  0.976  0.980
    eigenvectors:
  0.000  0.332  0.000  0.000  0.668
  0.500  0.000  0.500  0.000  0.000
  0.500  0.000  0.500  0.000  0.000
  0.000  0.000  0.000  1.000  0.000
  0.000  0.668  0.000  0.000  0.332
    occupations:
  0.886 -0.000 -0.000 -0.000 -0.134
 -0.000  0.831 -0.141  0.000  0.000
 -0.000 -0.141  0.831  0.000 -0.000
 -0.000  0.000  0.000  0.976 -0.000
 -0.134  0.000 -0.000 -0.000  0.791
atomic mag. moment =     0.000000
atom   11   Tr[ns(na)] (up, down, total) =   4.31571  4.31571  8.63141
   spin  1
    eigenvalues: 
  0.690  0.697  0.972  0.976  0.980
    eigenvectors:
  0.000  0.332  0.000  0.000  0.668
  0.500  0.000  0.500  0.000  0.000
  0.500  0.000  0.500  0.000  0.000
  0.000  0.000  0.000  1.000  0.000
  0.000  0.668  0.000  0.000  0.332
    occupations:
  0.886 -0.000 -0.000  0.000  0.134
 -0.000  0.831  0.141  0.000  0.000
 -0.000  0.141  0.831  0.000  0.000
  0.000  0.000  0.000  0.976 -0.000
  0.134  0.000  0.000 -0.000  0.791
   spin  2
    eigenvalues: 
  0.690  0.697  0.972  0.976  0.980
    eigenvectors:
  0.000  0.332  0.000  0.000  0.668
  0.500  0.000  0.500  0.000  0.000
  0.500  0.000  0.500  0.000  0.000
  0.000  0.000  0.000  1.000  0.000
  0.000  0.668  0.000  0.000  0.332
    occupations:
  0.886 -0.000 -0.000  0.000  0.134
 -0.000  0.831  0.141  0.000  0.000
 -0.000  0.141  0.831  0.000  0.000
  0.000  0.000  0.000  0.976 -0.000
  0.134  0.000  0.000 -0.000  0.791
atomic mag. moment =    -0.000000
atom   12   Tr[ns(na)] (up, down, total) =   4.31565  4.31565  8.63130
   spin  1
    eigenvalues: 
  0.690  0.697  0.972  0.976  0.980
    eigenvectors:
  0.000  0.332  0.000  0.000  0.668
  0.500  0.000  0.500  0.000  0.000
  0.500  0.000  0.500  0.000  0.000
  0.000  0.000  0.000  1.000  0.000
  0.000  0.668  0.000  0.000  0.332
    occupations:
  0.886  0.000  0.000 -0.000 -0.134
  0.000  0.831 -0.141 -0.000 -0.000
  0.000 -0.141  0.831 -0.000  0.000
 -0.000 -0.000 -0.000  0.976 -0.000
 -0.134 -0.000  0.000 -0.000  0.791
   spin  2
    eigenvalues: 
  0.690  0.697  0.972  0.976  0.980
    eigenvectors:
  0.000  0.332  0.000  0.000  0.668
  0.500  0.000  0.500  0.000  0.000
  0.500  0.000  0.500  0.000  0.000
  0.000  0.000  0.000  1.000  0.000
  0.000  0.668  0.000  0.000  0.332
    occupations:
  0.886  0.000  0.000 -0.000 -0.134
  0.000  0.831 -0.141 -0.000 -0.000
  0.000 -0.141  0.831 -0.000  0.000
 -0.000 -0.000 -0.000  0.976 -0.000
 -0.134 -0.000  0.000 -0.000  0.791
atomic mag. moment =     0.000000
atom   13   Tr[ns(na)] (up, down, total) =   4.31575  4.31575  8.63150
   spin  1
    eigenvalues: 
  0.691  0.697  0.972  0.976  0.980
    eigenvectors:
  0.000  0.332  0.000  0.000  0.668
  0.500  0.000  0.500  0.000  0.000
  0.500  0.000  0.500  0.000  0.000
  0.000  0.000  0.000  1.000  0.000
  0.000  0.668  0.000  0.000  0.332
    occupations:
  0.886 -0.000 -0.000 -0.000  0.134
 -0.000  0.831  0.141  0.000  0.000
 -0.000  0.141  0.831  0.000  0.000
 -0.000  0.000  0.000  0.976 -0.000
  0.134  0.000  0.000 -0.000  0.791
   spin  2
    eigenvalues: 
  0.691  0.697  0.972  0.976  0.980
    eigenvectors:
  0.000  0.332  0.000  0.000  0.668
  0.500  0.000  0.500  0.000  0.000
  0.500  0.000  0.500  0.000  0.000
  0.000  0.000  0.000  1.000  0.000
  0.000  0.668  0.000  0.000  0.332
    occupations:
  0.886 -0.000 -0.000 -0.000  0.134
 -0.000  0.831  0.141  0.000  0.000
 -0.000  0.141  0.831  0.000  0.000
 -0.000  0.000  0.000  0.976 -0.000
  0.134  0.000  0.000 -0.000  0.791
atomic mag. moment =    -0.000001
atom   14   Tr[ns(na)] (up, down, total) =   4.31583  4.31583  8.63166
   spin  1
    eigenvalues: 
  0.691  0.697  0.972  0.976  0.980
    eigenvectors:
  0.000  0.332  0.000  0.000  0.668
  0.500  0.000  0.500  0.000  0.000
  0.500  0.000  0.500  0.000  0.000
  0.000  0.000  0.000  1.000  0.000
  0.000  0.668  0.000  0.000  0.332
    occupations:
  0.886 -0.000 -0.000 -0.000 -0.134
 -0.000  0.831 -0.141  0.000 -0.000
 -0.000 -0.141  0.831 -0.000 -0.000
 -0.000  0.000 -0.000  0.976 -0.000
 -0.134 -0.000 -0.000 -0.000  0.791
   spin  2
    eigenvalues: 
  0.691  0.697  0.972  0.976  0.980
    eigenvectors:
  0.000  0.332  0.000  0.000  0.668
  0.500  0.000  0.500  0.000  0.000
  0.500  0.000  0.500  0.000  0.000
  0.000  0.000  0.000  1.000  0.000
  0.000  0.668  0.000  0.000  0.332
    occupations:
  0.886 -0.000 -0.000 -0.000 -0.134
 -0.000  0.831 -0.141  0.000 -0.000
 -0.000 -0.141  0.831 -0.000 -0.000
 -0.000  0.000 -0.000  0.976 -0.000
 -0.134 -0.000 -0.000 -0.000  0.791
atomic mag. moment =    -0.000001
atom   15   Tr[ns(na)] (up, down, total) =   4.31584  4.31584  8.63168
   spin  1
    eigenvalues: 
  0.691  0.697  0.972  0.976  0.980
    eigenvectors:
  0.000  0.332  0.000  0.000  0.668
  0.500  0.000  0.500  0.000  0.000
  0.500  0.000  0.500  0.000  0.000
  0.000  0.000  0.000  1.000  0.000
  0.000  0.668  0.000  0.000  0.332
    occupations:
  0.886 -0.000 -0.000 -0.000  0.134
 -0.000  0.831  0.141  0.000  0.000
 -0.000  0.141  0.831  0.000  0.000
 -0.000  0.000  0.000  0.976 -0.000
  0.134  0.000  0.000 -0.000  0.791
   spin  2
    eigenvalues: 
  0.691  0.697  0.972  0.976  0.980
    eigenvectors:
  0.000  0.332  0.000  0.000  0.668
  0.500  0.000  0.500  0.000  0.000
  0.500  0.000  0.500  0.000  0.000
  0.000  0.000  0.000  1.000  0.000
  0.000  0.668  0.000  0.000  0.332
    occupations:
  0.886 -0.000 -0.000 -0.000  0.134
 -0.000  0.831  0.141  0.000  0.000
 -0.000  0.141  0.831  0.000  0.000
 -0.000  0.000  0.000  0.976 -0.000
  0.134  0.000  0.000 -0.000  0.791
atomic mag. moment =    -0.000001
atom   16   Tr[ns(na)] (up, down, total) =   4.31583  4.31583  8.63166
   spin  1
    eigenvalues: 
  0.691  0.697  0.972  0.976  0.980
    eigenvectors:
  0.000  0.332  0.000  0.000  0.668
  0.500  0.000  0.500  0.000  0.000
  0.500  0.000  0.500  0.000  0.000
  0.000  0.000  0.000  1.000  0.000
  0.000  0.668  0.000  0.000  0.332
    occupations:
  0.886  0.000  0.000 -0.000 -0.134
  0.000  0.831 -0.141 -0.000  0.000
  0.000 -0.141  0.831  0.000  0.000
 -0.000 -0.000  0.000  0.976 -0.000
 -0.134  0.000  0.000 -0.000  0.791
   spin  2
    eigenvalues: 
  0.691  0.697  0.972  0.976  0.980
    eigenvectors:
  0.000  0.332  0.000  0.000  0.668
  0.500  0.000  0.500  0.000  0.000
  0.500  0.000  0.500  0.000  0.000
  0.000  0.000  0.000  1.000  0.000
  0.000  0.668  0.000  0.000  0.332
    occupations:
  0.886  0.000  0.000 -0.000 -0.134
  0.000  0.831 -0.141 -0.000  0.000
  0.000 -0.141  0.831  0.000  0.000
 -0.000 -0.000  0.000  0.976 -0.000
 -0.134  0.000  0.000 -0.000  0.791
atomic mag. moment =    -0.000001
atom   17   Tr[ns(na)] (up, down, total) =   2.66726  2.66726  5.33452
   spin  1
    eigenvalues: 
  0.845  0.848  0.974
    eigenvectors:
  0.000  1.000  0.000
  0.500  0.000  0.500
  0.500  0.000  0.500
    occupations:
  0.848 -0.000 -0.000
 -0.000  0.910 -0.064
 -0.000 -0.064  0.910
   spin  2
    eigenvalues: 
  0.845  0.848  0.974
    eigenvectors:
  0.000  1.000  0.000
  0.500  0.000  0.500
  0.500  0.000  0.500
    occupations:
  0.848 -0.000 -0.000
 -0.000  0.910 -0.064
 -0.000 -0.064  0.910
atomic mag. moment =    -0.000000
atom   18   Tr[ns(na)] (up, down, total) =   2.66726  2.66727  5.33453
   spin  1
    eigenvalues: 
  0.845  0.848  0.974
    eigenvectors:
  0.000  1.000  0.000
  0.500  0.000  0.500
  0.500  0.000  0.500
    occupations:
  0.848 -0.000 -0.000
 -0.000  0.910 -0.064
 -0.000 -0.064  0.910
   spin  2
    eigenvalues: 
  0.845  0.848  0.974
    eigenvectors:
  0.000  1.000  0.000
  0.500  0.000  0.500
  0.500  0.000  0.500
    occupations:
  0.848 -0.000 -0.000
 -0.000  0.910 -0.064
 -0.000 -0.064  0.910
atomic mag. moment =    -0.000000
atom   19   Tr[ns(na)] (up, down, total) =   2.66725  2.66725  5.33451
   spin  1
    eigenvalues: 
  0.845  0.848  0.974
    eigenvectors:
  0.000  1.000  0.000
  0.500  0.000  0.500
  0.500  0.000  0.500
    occupations:
  0.848 -0.000  0.000
 -0.000  0.910  0.064
  0.000  0.064  0.910
   spin  2
    eigenvalues: 
  0.845  0.848  0.974
    eigenvectors:
  0.000  1.000  0.000
  0.500  0.000  0.500
  0.500  0.000  0.500
    occupations:
  0.848 -0.000  0.000
 -0.000  0.910  0.064
  0.000  0.064  0.910
atomic mag. moment =    -0.000000
atom   20   Tr[ns(na)] (up, down, total) =   2.66725  2.66725  5.33451
   spin  1
    eigenvalues: 
  0.845  0.848  0.974
    eigenvectors:
  0.000  1.000  0.000
  0.500  0.000  0.500
  0.500  0.000  0.500
    occupations:
  0.848  0.000 -0.000
  0.000  0.910  0.064
 -0.000  0.064  0.910
   spin  2
    eigenvalues: 
  0.845  0.848  0.974
    eigenvectors:
  0.000  1.000  0.000
  0.500  0.000  0.500
  0.500  0.000  0.500
    occupations:
  0.848  0.000 -0.000
  0.000  0.910  0.064
 -0.000  0.064  0.910
atomic mag. moment =    -0.000000
atom   21   Tr[ns(na)] (up, down, total) =   2.66722  2.66722  5.33445
   spin  1
    eigenvalues: 
  0.845  0.848  0.974
    eigenvectors:
  0.000  1.000  0.000
  0.500  0.000  0.500
  0.500  0.000  0.500
    occupations:
  0.848 -0.000 -0.000
 -0.000  0.910 -0.064
 -0.000 -0.064  0.910
   spin  2
    eigenvalues: 
  0.845  0.848  0.974
    eigenvectors:
  0.000  1.000  0.000
  0.500  0.000  0.500
  0.500  0.000  0.500
    occupations:
  0.848 -0.000 -0.000
 -0.000  0.910 -0.064
 -0.000 -0.064  0.910
atomic mag. moment =    -0.000000
atom   22   Tr[ns(na)] (up, down, total) =   2.66725  2.66725  5.33451
   spin  1
    eigenvalues: 
  0.845  0.848  0.974
    eigenvectors:
  0.000  1.000  0.000
  0.500  0.000  0.500
  0.500  0.000  0.500
    occupations:
  0.848 -0.000 -0.000
 -0.000  0.910 -0.064
 -0.000 -0.064  0.910
   spin  2
    eigenvalues: 
  0.845  0.848  0.974
    eigenvectors:
  0.000  1.000  0.000
  0.500  0.000  0.500
  0.500  0.000  0.500
    occupations:
  0.848 -0.000 -0.000
 -0.000  0.910 -0.064
 -0.000 -0.064  0.910
atomic mag. moment =    -0.000000
atom   23   Tr[ns(na)] (up, down, total) =   2.66725  2.66725  5.33451
   spin  1
    eigenvalues: 
  0.845  0.848  0.974
    eigenvectors:
  0.000  1.000  0.000
  0.500  0.000  0.500
  0.500  0.000  0.500
    occupations:
  0.848  0.000 -0.000
  0.000  0.910  0.064
 -0.000  0.064  0.910
   spin  2
    eigenvalues: 
  0.845  0.848  0.974
    eigenvectors:
  0.000  1.000  0.000
  0.500  0.000  0.500
  0.500  0.000  0.500
    occupations:
  0.848  0.000 -0.000
  0.000  0.910  0.064
 -0.000  0.064  0.910
atomic mag. moment =    -0.000000
atom   24   Tr[ns(na)] (up, down, total) =   2.66725  2.66725  5.33451
   spin  1
    eigenvalues: 
  0.845  0.848  0.974
    eigenvectors:
  0.000  1.000  0.000
  0.500  0.000  0.500
  0.500  0.000  0.500
    occupations:
  0.848 -0.000  0.000
 -0.000  0.910  0.064
  0.000  0.064  0.910
   spin  2
    eigenvalues: 
  0.845  0.848  0.974
    eigenvectors:
  0.000  1.000  0.000
  0.500  0.000  0.500
  0.500  0.000  0.500
    occupations:
  0.848 -0.000  0.000
 -0.000  0.910  0.064
  0.000  0.064  0.910
atomic mag. moment =    -0.000000
atom   25   Tr[ns(na)] (up, down, total) =   2.66724  2.66724  5.33448
   spin  1
    eigenvalues: 
  0.845  0.848  0.974
    eigenvectors:
  0.000  1.000  0.000
  0.500  0.000  0.500
  0.500  0.000  0.500
    occupations:
  0.848 -0.000 -0.000
 -0.000  0.910 -0.064
 -0.000 -0.064  0.910
   spin  2
    eigenvalues: 
  0.845  0.848  0.974
    eigenvectors:
  0.000  1.000  0.000
  0.500  0.000  0.500
  0.500  0.000  0.500
    occupations:
  0.848 -0.000 -0.000
 -0.000  0.910 -0.064
 -0.000 -0.064  0.910
atomic mag. moment =     0.000000
atom   26   Tr[ns(na)] (up, down, total) =   2.66720  2.66720  5.33441
   spin  1
    eigenvalues: 
  0.845  0.848  0.974
    eigenvectors:
  0.000  1.000  0.000
  0.500  0.000  0.500
  0.500  0.000  0.500
    occupations:
  0.848 -0.000 -0.000
 -0.000  0.910 -0.064
 -0.000 -0.064  0.910
   spin  2
    eigenvalues: 
  0.845  0.848  0.974
    eigenvectors:
  0.000  1.000  0.000
  0.500  0.000  0.500
  0.500  0.000  0.500
    occupations:
  0.848 -0.000 -0.000
 -0.000  0.910 -0.064
 -0.000 -0.064  0.910
atomic mag. moment =     0.000000
atom   27   Tr[ns(na)] (up, down, total) =   2.66724  2.66724  5.33448
   spin  1
    eigenvalues: 
  0.845  0.848  0.974
    eigenvectors:
  0.000  1.000  0.000
  0.500  0.000  0.500
  0.500  0.000  0.500
    occupations:
  0.848  0.000 -0.000
  0.000  0.910  0.064
 -0.000  0.064  0.910
   spin  2
    eigenvalues: 
  0.845  0.848  0.974
    eigenvectors:
  0.000  1.000  0.000
  0.500  0.000  0.500
  0.500  0.000  0.500
    occupations:
  0.848  0.000 -0.000
  0.000  0.910  0.064
 -0.000  0.064  0.910
atomic mag. moment =    -0.000000
atom   28   Tr[ns(na)] (up, down, total) =   2.66720  2.66720  5.33440
   spin  1
    eigenvalues: 
  0.845  0.848  0.974
    eigenvectors:
  0.000  1.000  0.000
  0.500  0.000  0.500
  0.500  0.000  0.500
    occupations:
  0.848  0.000 -0.000
  0.000  0.910  0.064
 -0.000  0.064  0.910
   spin  2
    eigenvalues: 
  0.845  0.848  0.974
    eigenvectors:
  0.000  1.000  0.000
  0.500  0.000  0.500
  0.500  0.000  0.500
    occupations:
  0.848  0.000 -0.000
  0.000  0.910  0.064
 -0.000  0.064  0.910
atomic mag. moment =    -0.000000
atom   29   Tr[ns(na)] (up, down, total) =   2.66725  2.66725  5.33451
   spin  1
    eigenvalues: 
  0.845  0.848  0.974
    eigenvectors:
  0.000  1.000  0.000
  0.500  0.000  0.500
  0.500  0.000  0.500
    occupations:
  0.848 -0.000 -0.000
 -0.000  0.910 -0.064
 -0.000 -0.064  0.910
   spin  2
    eigenvalues: 
  0.845  0.848  0.974
    eigenvectors:
  0.000  1.000  0.000
  0.500  0.000  0.500
  0.500  0.000  0.500
    occupations:
  0.848 -0.000 -0.000
 -0.000  0.910 -0.064
 -0.000 -0.064  0.910
atomic mag. moment =     0.000000
atom   30   Tr[ns(na)] (up, down, total) =   2.66720  2.66720  5.33440
   spin  1
    eigenvalues: 
  0.845  0.848  0.974
    eigenvectors:
  0.000  1.000  0.000
  0.500  0.000  0.500
  0.500  0.000  0.500
    occupations:
  0.848 -0.000 -0.000
 -0.000  0.910 -0.064
 -0.000 -0.064  0.910
   spin  2
    eigenvalues: 
  0.845  0.848  0.974
    eigenvectors:
  0.000  1.000  0.000
  0.500  0.000  0.500
  0.500  0.000  0.500
    occupations:
  0.848 -0.000 -0.000
 -0.000  0.910 -0.064
 -0.000 -0.064  0.910
atomic mag. moment =     0.000000
atom   31   Tr[ns(na)] (up, down, total) =   2.66724  2.66724  5.33448
   spin  1
    eigenvalues: 
  0.845  0.848  0.974
    eigenvectors:
  0.000  1.000  0.000
  0.500  0.000  0.500
  0.500  0.000  0.500
    occupations:
  0.848 -0.000  0.000
 -0.000  0.910  0.064
  0.000  0.064  0.910
   spin  2
    eigenvalues: 
  0.845  0.848  0.974
    eigenvectors:
  0.000  1.000  0.000
  0.500  0.000  0.500
  0.500  0.000  0.500
    occupations:
  0.848 -0.000  0.000
 -0.000  0.910  0.064
  0.000  0.064  0.910
atomic mag. moment =    -0.000000
atom   32   Tr[ns(na)] (up, down, total) =   2.66720  2.66720  5.33440
   spin  1
    eigenvalues: 
  0.845  0.848  0.974
    eigenvectors:
  0.000  1.000  0.000
  0.500  0.000  0.500
  0.500  0.000  0.500
    occupations:
  0.848 -0.000  0.000
 -0.000  0.910  0.064
  0.000  0.064  0.910
   spin  2
    eigenvalues: 
  0.845  0.848  0.974
    eigenvectors:
  0.000  1.000  0.000
  0.500  0.000  0.500
  0.500  0.000  0.500
    occupations:
  0.848 -0.000  0.000
 -0.000  0.910  0.064
  0.000  0.064  0.910
atomic mag. moment =    -0.000000
atom   33   Tr[ns(na)] (up, down, total) =   2.66724  2.66724  5.33448
   spin  1
    eigenvalues: 
  0.845  0.848  0.974
    eigenvectors:
  0.000  1.000  0.000
  0.500  0.000  0.500
  0.500  0.000  0.500
    occupations:
  0.848 -0.000 -0.000
 -0.000  0.910 -0.064
 -0.000 -0.064  0.910
   spin  2
    eigenvalues: 
  0.845  0.848  0.974
    eigenvectors:
  0.000  1.000  0.000
  0.500  0.000  0.500
  0.500  0.000  0.500
    occupations:
  0.848 -0.000 -0.000
 -0.000  0.910 -0.064
 -0.000 -0.064  0.910
atomic mag. moment =     0.000000
atom   34   Tr[ns(na)] (up, down, total) =   2.66720  2.66720  5.33441
   spin  1
    eigenvalues: 
  0.845  0.848  0.974
    eigenvectors:
  0.000  1.000  0.000
  0.500  0.000  0.500
  0.500  0.000  0.500
    occupations:
  0.848 -0.000 -0.000
 -0.000  0.910 -0.064
 -0.000 -0.064  0.910
   spin  2
    eigenvalues: 
  0.845  0.848  0.974
    eigenvectors:
  0.000  1.000  0.000
  0.500  0.000  0.500
  0.500  0.000  0.500
    occupations:
  0.848 -0.000 -0.000
 -0.000  0.910 -0.064
 -0.000 -0.064  0.910
atomic mag. moment =     0.000000
atom   35   Tr[ns(na)] (up, down, total) =   2.66720  2.66720  5.33440
   spin  1
    eigenvalues: 
  0.845  0.848  0.974
    eigenvectors:
  0.000  1.000  0.000
  0.500  0.000  0.500
  0.500  0.000  0.500
    occupations:
  0.848 -0.000  0.000
 -0.000  0.910  0.064
  0.000  0.064  0.910
   spin  2
    eigenvalues: 
  0.845  0.848  0.974
    eigenvectors:
  0.000  1.000  0.000
  0.500  0.000  0.500
  0.500  0.000  0.500
    occupations:
  0.848 -0.000  0.000
 -0.000  0.910  0.064
  0.000  0.064  0.910
atomic mag. moment =    -0.000000
atom   36   Tr[ns(na)] (up, down, total) =   2.66724  2.66724  5.33448
   spin  1
    eigenvalues: 
  0.845  0.848  0.974
    eigenvectors:
  0.000  1.000  0.000
  0.500  0.000  0.500
  0.500  0.000  0.500
    occupations:
  0.848 -0.000  0.000
 -0.000  0.910  0.064
  0.000  0.064  0.910
   spin  2
    eigenvalues: 
  0.845  0.848  0.974
    eigenvectors:
  0.000  1.000  0.000
  0.500  0.000  0.500
  0.500  0.000  0.500
    occupations:
  0.848 -0.000  0.000
 -0.000  0.910  0.064
  0.000  0.064  0.910
atomic mag. moment =    -0.000000
atom   37   Tr[ns(na)] (up, down, total) =   2.66725  2.66725  5.33451
   spin  1
    eigenvalues: 
  0.845  0.848  0.974
    eigenvectors:
  0.000  1.000  0.000
  0.500  0.000  0.500
  0.500  0.000  0.500
    occupations:
  0.848 -0.000 -0.000
 -0.000  0.910 -0.064
 -0.000 -0.064  0.910
   spin  2
    eigenvalues: 
  0.845  0.848  0.974
    eigenvectors:
  0.000  1.000  0.000
  0.500  0.000  0.500
  0.500  0.000  0.500
    occupations:
  0.848 -0.000 -0.000
 -0.000  0.910 -0.064
 -0.000 -0.064  0.910
atomic mag. moment =     0.000000
atom   38   Tr[ns(na)] (up, down, total) =   2.66720  2.66720  5.33440
   spin  1
    eigenvalues: 
  0.845  0.848  0.974
    eigenvectors:
  0.000  1.000  0.000
  0.500  0.000  0.500
  0.500  0.000  0.500
    occupations:
  0.848 -0.000 -0.000
 -0.000  0.910 -0.064
 -0.000 -0.064  0.910
   spin  2
    eigenvalues: 
  0.845  0.848  0.974
    eigenvectors:
  0.000  1.000  0.000
  0.500  0.000  0.500
  0.500  0.000  0.500
    occupations:
  0.848 -0.000 -0.000
 -0.000  0.910 -0.064
 -0.000 -0.064  0.910
atomic mag. moment =     0.000000
atom   39   Tr[ns(na)] (up, down, total) =   2.66720  2.66720  5.33440
   spin  1
    eigenvalues: 
  0.845  0.848  0.974
    eigenvectors:
  0.000  1.000  0.000
  0.500  0.000  0.500
  0.500  0.000  0.500
    occupations:
  0.848  0.000 -0.000
  0.000  0.910  0.064
 -0.000  0.064  0.910
   spin  2
    eigenvalues: 
  0.845  0.848  0.974
    eigenvectors:
  0.000  1.000  0.000
  0.500  0.000  0.500
  0.500  0.000  0.500
    occupations:
  0.848  0.000 -0.000
  0.000  0.910  0.064
 -0.000  0.064  0.910
atomic mag. moment =    -0.000000
atom   40   Tr[ns(na)] (up, down, total) =   2.66724  2.66724  5.33448
   spin  1
    eigenvalues: 
  0.845  0.848  0.974
    eigenvectors:
  0.000  1.000  0.000
  0.500  0.000  0.500
  0.500  0.000  0.500
    occupations:
  0.848  0.000 -0.000
  0.000  0.910  0.064
 -0.000  0.064  0.910
   spin  2
    eigenvalues: 
  0.845  0.848  0.974
    eigenvectors:
  0.000  1.000  0.000
  0.500  0.000  0.500
  0.500  0.000  0.500
    occupations:
  0.848  0.000 -0.000
  0.000  0.910  0.064
 -0.000  0.064  0.910
atomic mag. moment =    -0.000000
atom   41   Tr[ns(na)] (up, down, total) =   2.66721  2.66721  5.33442
   spin  1
    eigenvalues: 
  0.845  0.848  0.974
    eigenvectors:
  0.000  1.000  0.000
  0.500  0.000  0.500
  0.500  0.000  0.500
    occupations:
  0.848 -0.000 -0.000
 -0.000  0.910 -0.064
 -0.000 -0.064  0.910
   spin  2
    eigenvalues: 
  0.845  0.848  0.974
    eigenvectors:
  0.000  1.000  0.000
  0.500  0.000  0.500
  0.500  0.000  0.500
    occupations:
  0.848 -0.000 -0.000
 -0.000  0.910 -0.064
 -0.000 -0.064  0.910
atomic mag. moment =    -0.000000
atom   42   Tr[ns(na)] (up, down, total) =   2.66729  2.66729  5.33459
   spin  1
    eigenvalues: 
  0.845  0.848  0.974
    eigenvectors:
  0.000  1.000  0.000
  0.500  0.000  0.500
  0.500  0.000  0.500
    occupations:
  0.848 -0.000 -0.000
 -0.000  0.910 -0.064
 -0.000 -0.064  0.910
   spin  2
    eigenvalues: 
  0.845  0.848  0.974
    eigenvectors:
  0.000  1.000  0.000
  0.500  0.000  0.500
  0.500  0.000  0.500
    occupations:
  0.848 -0.000 -0.000
 -0.000  0.910 -0.064
 -0.000 -0.064  0.910
atomic mag. moment =    -0.000000
atom   43   Tr[ns(na)] (up, down, total) =   2.66725  2.66725  5.33451
   spin  1
    eigenvalues: 
  0.845  0.848  0.974
    eigenvectors:
  0.000  1.000  0.000
  0.500  0.000  0.500
  0.500  0.000  0.500
    occupations:
  0.848 -0.000  0.000
 -0.000  0.910  0.064
  0.000  0.064  0.910
   spin  2
    eigenvalues: 
  0.845  0.848  0.974
    eigenvectors:
  0.000  1.000  0.000
  0.500  0.000  0.500
  0.500  0.000  0.500
    occupations:
  0.848 -0.000  0.000
 -0.000  0.910  0.064
  0.000  0.064  0.910
atomic mag. moment =    -0.000000
atom   44   Tr[ns(na)] (up, down, total) =   2.66725  2.66725  5.33451
   spin  1
    eigenvalues: 
  0.845  0.848  0.974
    eigenvectors:
  0.000  1.000  0.000
  0.500  0.000  0.500
  0.500  0.000  0.500
    occupations:
  0.848  0.000 -0.000
  0.000  0.910  0.064
 -0.000  0.064  0.910
   spin  2
    eigenvalues: 
  0.845  0.848  0.974
    eigenvectors:
  0.000  1.000  0.000
  0.500  0.000  0.500
  0.500  0.000  0.500
    occupations:
  0.848  0.000 -0.000
  0.000  0.910  0.064
 -0.000  0.064  0.910
atomic mag. moment =    -0.000000
atom   45   Tr[ns(na)] (up, down, total) =   2.66727  2.66727  5.33453
   spin  1
    eigenvalues: 
  0.845  0.848  0.974
    eigenvectors:
  0.000  1.000  0.000
  0.500  0.000  0.500
  0.500  0.000  0.500
    occupations:
  0.848 -0.000 -0.000
 -0.000  0.910 -0.064
 -0.000 -0.064  0.910
   spin  2
    eigenvalues: 
  0.845  0.848  0.974
    eigenvectors:
  0.000  1.000  0.000
  0.500  0.000  0.500
  0.500  0.000  0.500
    occupations:
  0.848 -0.000 -0.000
 -0.000  0.910 -0.064
 -0.000 -0.064  0.910
atomic mag. moment =    -0.000000
atom   46   Tr[ns(na)] (up, down, total) =   2.66733  2.66733  5.33465
   spin  1
    eigenvalues: 
  0.845  0.848  0.974
    eigenvectors:
  0.000  1.000  0.000
  0.500  0.000  0.500
  0.500  0.000  0.500
    occupations:
  0.848 -0.000 -0.000
 -0.000  0.910 -0.064
 -0.000 -0.064  0.910
   spin  2
    eigenvalues: 
  0.845  0.848  0.974
    eigenvectors:
  0.000  1.000  0.000
  0.500  0.000  0.500
  0.500  0.000  0.500
    occupations:
  0.848 -0.000 -0.000
 -0.000  0.910 -0.064
 -0.000 -0.064  0.910
atomic mag. moment =    -0.000000
atom   47   Tr[ns(na)] (up, down, total) =   2.66725  2.66725  5.33451
   spin  1
    eigenvalues: 
  0.845  0.848  0.974
    eigenvectors:
  0.000  1.000  0.000
  0.500  0.000  0.500
  0.500  0.000  0.500
    occupations:
  0.848  0.000 -0.000
  0.000  0.910  0.064
 -0.000  0.064  0.910
   spin  2
    eigenvalues: 
  0.845  0.848  0.974
    eigenvectors:
  0.000  1.000  0.000
  0.500  0.000  0.500
  0.500  0.000  0.500
    occupations:
  0.848  0.000 -0.000
  0.000  0.910  0.064
 -0.000  0.064  0.910
atomic mag. moment =    -0.000000
atom   48   Tr[ns(na)] (up, down, total) =   2.66725  2.66725  5.33451
   spin  1
    eigenvalues: 
  0.845  0.848  0.974
    eigenvectors:
  0.000  1.000  0.000
  0.500  0.000  0.500
  0.500  0.000  0.500
    occupations:
  0.848 -0.000  0.000
 -0.000  0.910  0.064
  0.000  0.064  0.910
   spin  2
    eigenvalues: 
  0.845  0.848  0.974
    eigenvectors:
  0.000  1.000  0.000
  0.500  0.000  0.500
  0.500  0.000  0.500
    occupations:
  0.848 -0.000  0.000
 -0.000  0.910  0.064
  0.000  0.064  0.910
atomic mag. moment =    -0.000000
N of occupied +U levels = 308.8072839
 --- exit write_ns ---
 Atomic wfc used for LDA+U Projector are NOT orthogonalized
     Starting wfc from file

     total cpu time spent up to now is       76.2 secs

     per-process dynamical memory:   101.1 Mb

     Self-consistent Calculation

     iteration #  1     ecut=    40.00 Ry     beta=0.70
     Davidson diagonalization with overlap
     ethr =  3.96E-10,  avg # of iterations =  6.9
 --- enter write_ns ---
 LDA+U parameters:
U( 1)     =  0.00000000
alpha( 1) =  0.00000000
U( 2)     =  0.00000000
alpha( 2) = -0.07000000
U( 3)     =  0.00000000
alpha( 3) =  0.00000000
atom    1   Tr[ns(na)] (up, down, total) =   4.31530  4.31530  8.63059
   spin  1
    eigenvalues: 
  0.690  0.696  0.972  0.977  0.980
    eigenvectors:
  0.000  0.332  0.000  0.000  0.668
  0.500  0.000  0.500  0.000  0.000
  0.500  0.000  0.500  0.000  0.000
  0.000  0.000  0.000  1.000  0.000
  0.000  0.668  0.000  0.000  0.332
    occupations:
  0.886 -0.000 -0.000 -0.000  0.134
 -0.000  0.831  0.141  0.000  0.000
 -0.000  0.141  0.831  0.000  0.000
 -0.000  0.000  0.000  0.977 -0.000
  0.134  0.000  0.000 -0.000  0.790
   spin  2
    eigenvalues: 
  0.690  0.696  0.972  0.977  0.980
    eigenvectors:
  0.000  0.332  0.000  0.000  0.668
  0.500  0.000  0.500  0.000  0.000
  0.500  0.000  0.500  0.000  0.000
  0.000  0.000  0.000  1.000  0.000
  0.000  0.668  0.000  0.000  0.332
    occupations:
  0.886 -0.000 -0.000 -0.000  0.134
 -0.000  0.831  0.141  0.000  0.000
 -0.000  0.141  0.831  0.000  0.000
 -0.000  0.000  0.000  0.977 -0.000
  0.134  0.000  0.000 -0.000  0.790
atomic mag. moment =    -0.000000
atom    2   Tr[ns(na)] (up, down, total) =   4.31399  4.31399  8.62798
   spin  1
    eigenvalues: 
  0.689  0.696  0.972  0.976  0.980
    eigenvectors:
  0.001  0.332  0.000  0.000  0.668
  0.499  0.001  0.498  0.002  0.000
  0.499  0.001  0.498  0.002  0.000
  0.000  0.000  0.004  0.996  0.000
  0.001  0.667  0.000  0.000  0.332
    occupations:
  0.886  0.000  0.000 -0.000 -0.134
  0.000  0.831 -0.141 -0.000  0.000
  0.000 -0.141  0.831  0.000  0.000
 -0.000 -0.000  0.000  0.976 -0.000
 -0.134  0.000  0.000 -0.000  0.791
   spin  2
    eigenvalues: 
  0.689  0.696  0.972  0.976  0.980
    eigenvectors:
  0.001  0.332  0.000  0.000  0.668
  0.499  0.001  0.498  0.002  0.000
  0.499  0.001  0.498  0.002  0.000
  0.000  0.000  0.004  0.996  0.000
  0.001  0.667  0.000  0.000  0.332
    occupations:
  0.886  0.000  0.000 -0.000 -0.134
  0.000  0.831 -0.141 -0.000  0.000
  0.000 -0.141  0.831  0.000  0.000
 -0.000 -0.000  0.000  0.976 -0.000
 -0.134  0.000  0.000 -0.000  0.791
atomic mag. moment =    -0.000001
atom    3   Tr[ns(na)] (up, down, total) =   4.31542  4.31542  8.63083
   spin  1
    eigenvalues: 
  0.690  0.697  0.972  0.976  0.980
    eigenvectors:
  0.000  0.332  0.000  0.000  0.668
  0.500  0.000  0.500  0.000  0.000
  0.500  0.000  0.500  0.000  0.000
  0.000  0.000  0.000  1.000  0.000
  0.000  0.668  0.000  0.000  0.332
    occupations:
  0.886 -0.000 -0.000 -0.000  0.134
 -0.000  0.831  0.141  0.000  0.000
 -0.000  0.141  0.831  0.000  0.000
 -0.000  0.000  0.000  0.976 -0.000
  0.134  0.000  0.000 -0.000  0.791
   spin  2
    eigenvalues: 
  0.690  0.697  0.972  0.976  0.980
    eigenvectors:
  0.000  0.332  0.000  0.000  0.668
  0.500  0.000  0.500  0.000  0.000
  0.500  0.000  0.500  0.000  0.000
  0.000  0.000  0.000  1.000  0.000
  0.000  0.668  0.000  0.000  0.332
    occupations:
  0.886 -0.000 -0.000 -0.000  0.134
 -0.000  0.831  0.141  0.000  0.000
 -0.000  0.141  0.831  0.000  0.000
 -0.000  0.000  0.000  0.976 -0.000
  0.134  0.000  0.000 -0.000  0.791
atomic mag. moment =    -0.000000
atom    4   Tr[ns(na)] (up, down, total) =   4.31399  4.31399  8.62798
   spin  1
    eigenvalues: 
  0.689  0.696  0.972  0.976  0.980
    eigenvectors:
  0.001  0.332  0.000  0.000  0.668
  0.499  0.001  0.498  0.002  0.000
  0.499  0.001  0.498  0.002  0.000
  0.000  0.000  0.004  0.996  0.000
  0.001  0.667  0.000  0.000  0.332
    occupations:
  0.886 -0.000 -0.000 -0.000 -0.134
 -0.000  0.831 -0.141  0.000 -0.000
 -0.000 -0.141  0.831 -0.000 -0.000
 -0.000  0.000 -0.000  0.976 -0.000
 -0.134 -0.000 -0.000 -0.000  0.791
   spin  2
    eigenvalues: 
  0.689  0.696  0.972  0.976  0.980
    eigenvectors:
  0.001  0.332  0.000  0.000  0.668
  0.499  0.001  0.498  0.002  0.000
  0.499  0.001  0.498  0.002  0.000
  0.000  0.000  0.004  0.996  0.000
  0.001  0.667  0.000  0.000  0.332
    occupations:
  0.886 -0.000 -0.000 -0.000 -0.134
 -0.000  0.831 -0.141  0.000 -0.000
 -0.000 -0.141  0.831 -0.000 -0.000
 -0.000  0.000 -0.000  0.976 -0.000
 -0.134 -0.000 -0.000 -0.000  0.791
atomic mag. moment =    -0.000001
atom    5   Tr[ns(na)] (up, down, total) =   4.31585  4.31585  8.63171
   spin  1
    eigenvalues: 
  0.690  0.697  0.972  0.976  0.980
    eigenvectors:
  0.000  0.332  0.000  0.000  0.668
  0.500  0.000  0.500  0.000  0.000
  0.500  0.000  0.500  0.000  0.000
  0.000  0.000  0.000  1.000  0.000
  0.000  0.668  0.000  0.000  0.332
    occupations:
  0.886 -0.000 -0.000  0.000  0.133
 -0.000  0.831  0.141  0.000  0.000
 -0.000  0.141  0.831  0.000  0.000
  0.000  0.000  0.000  0.976 -0.000
  0.133  0.000  0.000 -0.000  0.791
   spin  2
    eigenvalues: 
  0.690  0.697  0.972  0.976  0.980
    eigenvectors:
  0.000  0.332  0.000  0.000  0.668
  0.500  0.000  0.500  0.000  0.000
  0.500  0.000  0.500  0.000  0.000
  0.000  0.000  0.000  1.000  0.000
  0.000  0.668  0.000  0.000  0.332
    occupations:
  0.886 -0.000 -0.000  0.000  0.133
 -0.000  0.831  0.141  0.000  0.000
 -0.000  0.141  0.831  0.000  0.000
  0.000  0.000  0.000  0.976 -0.000
  0.133  0.000  0.000 -0.000  0.791
atomic mag. moment =    -0.000000
atom    6   Tr[ns(na)] (up, down, total) =   4.31670  4.31670  8.63341
   spin  1
    eigenvalues: 
  0.691  0.697  0.972  0.976  0.980
    eigenvectors:
  0.000  0.332  0.000  0.000  0.668
  0.500  0.000  0.500  0.000  0.000
  0.500  0.000  0.500  0.000  0.000
  0.000  0.000  0.000  1.000  0.000
  0.000  0.668  0.000  0.000  0.332
    occupations:
  0.886  0.000  0.000  0.000 -0.133
  0.000  0.832 -0.141 -0.000  0.000
  0.000 -0.141  0.832 -0.000  0.000
  0.000 -0.000 -0.000  0.976  0.000
 -0.133  0.000  0.000  0.000  0.791
   spin  2
    eigenvalues: 
  0.691  0.697  0.972  0.976  0.980
    eigenvectors:
  0.000  0.332  0.000  0.000  0.668
  0.500  0.000  0.500  0.000  0.000
  0.500  0.000  0.500  0.000  0.000
  0.000  0.000  0.000  1.000  0.000
  0.000  0.668  0.000  0.000  0.332
    occupations:
  0.886  0.000  0.000  0.000 -0.133
  0.000  0.832 -0.141 -0.000  0.000
  0.000 -0.141  0.832 -0.000  0.000
  0.000 -0.000 -0.000  0.976  0.000
 -0.133  0.000  0.000  0.000  0.791
atomic mag. moment =     0.000000
atom    7   Tr[ns(na)] (up, down, total) =   4.31584  4.31584  8.63168
   spin  1
    eigenvalues: 
  0.690  0.697  0.972  0.976  0.980
    eigenvectors:
  0.000  0.332  0.000  0.000  0.668
  0.500  0.000  0.500  0.000  0.000
  0.500  0.000  0.500  0.000  0.000
  0.000  0.000  0.000  1.000  0.000
  0.000  0.668  0.000  0.000  0.332
    occupations:
  0.886 -0.000 -0.000  0.000  0.133
 -0.000  0.831  0.141  0.000  0.000
 -0.000  0.141  0.831  0.000  0.000
  0.000  0.000  0.000  0.976  0.000
  0.133  0.000  0.000  0.000  0.791
   spin  2
    eigenvalues: 
  0.690  0.697  0.972  0.976  0.980
    eigenvectors:
  0.000  0.332  0.000  0.000  0.668
  0.500  0.000  0.500  0.000  0.000
  0.500  0.000  0.500  0.000  0.000
  0.000  0.000  0.000  1.000  0.000
  0.000  0.668  0.000  0.000  0.332
    occupations:
  0.886 -0.000 -0.000  0.000  0.133
 -0.000  0.831  0.141  0.000  0.000
 -0.000  0.141  0.831  0.000  0.000
  0.000  0.000  0.000  0.976  0.000
  0.133  0.000  0.000  0.000  0.791
atomic mag. moment =    -0.000000
atom    8   Tr[ns(na)] (up, down, total) =   4.31670  4.31670  8.63341
   spin  1
    eigenvalues: 
  0.691  0.697  0.972  0.976  0.980
    eigenvectors:
  0.000  0.332  0.000  0.000  0.668
  0.500  0.000  0.500  0.000  0.000
  0.500  0.000  0.500  0.000  0.000
  0.000  0.000  0.000  1.000  0.000
  0.000  0.668  0.000  0.000  0.332
    occupations:
  0.886 -0.000 -0.000  0.000 -0.133
 -0.000  0.832 -0.141  0.000 -0.000
 -0.000 -0.141  0.832  0.000 -0.000
  0.000  0.000  0.000  0.976  0.000
 -0.133 -0.000 -0.000  0.000  0.791
   spin  2
    eigenvalues: 
  0.691  0.697  0.972  0.976  0.980
    eigenvectors:
  0.000  0.332  0.000  0.000  0.668
  0.500  0.000  0.500  0.000  0.000
  0.500  0.000  0.500  0.000  0.000
  0.000  0.000  0.000  1.000  0.000
  0.000  0.668  0.000  0.000  0.332
    occupations:
  0.886 -0.000 -0.000  0.000 -0.133
 -0.000  0.832 -0.141  0.000 -0.000
 -0.000 -0.141  0.832  0.000 -0.000
  0.000  0.000  0.000  0.976  0.000
 -0.133 -0.000 -0.000  0.000  0.791
atomic mag. moment =     0.000000
atom    9   Tr[ns(na)] (up, down, total) =   4.31585  4.31585  8.63171
   spin  1
    eigenvalues: 
  0.690  0.697  0.972  0.976  0.980
    eigenvectors:
  0.000  0.332  0.000  0.000  0.668
  0.500  0.000  0.500  0.000  0.000
  0.500  0.000  0.500  0.000  0.000
  0.000  0.000  0.000  1.000  0.000
  0.000  0.668  0.000  0.000  0.332
    occupations:
  0.886 -0.000 -0.000 -0.000  0.133
 -0.000  0.831  0.141  0.000  0.000
 -0.000  0.141  0.831  0.000  0.000
 -0.000  0.000  0.000  0.976  0.000
  0.133  0.000  0.000  0.000  0.791
   spin  2
    eigenvalues: 
  0.690  0.697  0.972  0.976  0.980
    eigenvectors:
  0.000  0.332  0.000  0.000  0.668
  0.500  0.000  0.500  0.000  0.000
  0.500  0.000  0.500  0.000  0.000
  0.000  0.000  0.000  1.000  0.000
  0.000  0.668  0.000  0.000  0.332
    occupations:
  0.886 -0.000 -0.000 -0.000  0.133
 -0.000  0.831  0.141  0.000  0.000
 -0.000  0.141  0.831  0.000  0.000
 -0.000  0.000  0.000  0.976  0.000
  0.133  0.000  0.000  0.000  0.791
atomic mag. moment =    -0.000000
atom   10   Tr[ns(na)] (up, down, total) =   4.31670  4.31670  8.63341
   spin  1
    eigenvalues: 
  0.691  0.697  0.972  0.976  0.980
    eigenvectors:
  0.000  0.332  0.000  0.000  0.668
  0.500  0.000  0.500  0.000  0.000
  0.500  0.000  0.500  0.000  0.000
  0.000  0.000  0.000  1.000  0.000
  0.000  0.668  0.000  0.000  0.332
    occupations:
  0.886  0.000  0.000 -0.000 -0.133
  0.000  0.832 -0.141  0.000  0.000
  0.000 -0.141  0.832  0.000  0.000
 -0.000  0.000  0.000  0.976 -0.000
 -0.133  0.000  0.000 -0.000  0.791
   spin  2
    eigenvalues: 
  0.691  0.697  0.972  0.976  0.980
    eigenvectors:
  0.000  0.332  0.000  0.000  0.668
  0.500  0.000  0.500  0.000  0.000
  0.500  0.000  0.500  0.000  0.000
  0.000  0.000  0.000  1.000  0.000
  0.000  0.668  0.000  0.000  0.332
    occupations:
  0.886  0.000  0.000 -0.000 -0.133
  0.000  0.832 -0.141  0.000  0.000
  0.000 -0.141  0.832  0.000  0.000
 -0.000  0.000  0.000  0.976 -0.000
 -0.133  0.000  0.000 -0.000  0.791
atomic mag. moment =     0.000000
atom   11   Tr[ns(na)] (up, down, total) =   4.31584  4.31584  8.63168
   spin  1
    eigenvalues: 
  0.690  0.697  0.972  0.976  0.980
    eigenvectors:
  0.000  0.332  0.000  0.000  0.668
  0.500  0.000  0.500  0.000  0.000
  0.500  0.000  0.500  0.000  0.000
  0.000  0.000  0.000  1.000  0.000
  0.000  0.668  0.000  0.000  0.332
    occupations:
  0.886 -0.000 -0.000 -0.000  0.133
 -0.000  0.831  0.141  0.000  0.000
 -0.000  0.141  0.831  0.000  0.000
 -0.000  0.000  0.000  0.976 -0.000
  0.133  0.000  0.000 -0.000  0.791
   spin  2
    eigenvalues: 
  0.690  0.697  0.972  0.976  0.980
    eigenvectors:
  0.000  0.332  0.000  0.000  0.668
  0.500  0.000  0.500  0.000  0.000
  0.500  0.000  0.500  0.000  0.000
  0.000  0.000  0.000  1.000  0.000
  0.000  0.668  0.000  0.000  0.332
    occupations:
  0.886 -0.000 -0.000 -0.000  0.133
 -0.000  0.831  0.141  0.000  0.000
 -0.000  0.141  0.831  0.000  0.000
 -0.000  0.000  0.000  0.976 -0.000
  0.133  0.000  0.000 -0.000  0.791
atomic mag. moment =    -0.000000
atom   12   Tr[ns(na)] (up, down, total) =   4.31670  4.31670  8.63341
   spin  1
    eigenvalues: 
  0.691  0.697  0.972  0.976  0.980
    eigenvectors:
  0.000  0.332  0.000  0.000  0.668
  0.500  0.000  0.500  0.000  0.000
  0.500  0.000  0.500  0.000  0.000
  0.000  0.000  0.000  1.000  0.000
  0.000  0.668  0.000  0.000  0.332
    occupations:
  0.886 -0.000 -0.000 -0.000 -0.133
 -0.000  0.832 -0.141 -0.000 -0.000
 -0.000 -0.141  0.832 -0.000 -0.000
 -0.000 -0.000 -0.000  0.976 -0.000
 -0.133 -0.000 -0.000 -0.000  0.791
   spin  2
    eigenvalues: 
  0.691  0.697  0.972  0.976  0.980
    eigenvectors:
  0.000  0.332  0.000  0.000  0.668
  0.500  0.000  0.500  0.000  0.000
  0.500  0.000  0.500  0.000  0.000
  0.000  0.000  0.000  1.000  0.000
  0.000  0.668  0.000  0.000  0.332
    occupations:
  0.886 -0.000 -0.000 -0.000 -0.133
 -0.000  0.832 -0.141 -0.000 -0.000
 -0.000 -0.141  0.832 -0.000 -0.000
 -0.000 -0.000 -0.000  0.976 -0.000
 -0.133 -0.000 -0.000 -0.000  0.791
atomic mag. moment =     0.000000
atom   13   Tr[ns(na)] (up, down, total) =   4.31507  4.31507  8.63013
   spin  1
    eigenvalues: 
  0.690  0.697  0.972  0.976  0.980
    eigenvectors:
  0.000  0.332  0.000  0.000  0.668
  0.500  0.000  0.500  0.000  0.000
  0.500  0.000  0.500  0.000  0.000
  0.000  0.000  0.000  1.000  0.000
  0.000  0.668  0.000  0.000  0.332
    occupations:
  0.886 -0.000 -0.000 -0.000  0.134
 -0.000  0.831  0.141  0.000  0.000
 -0.000  0.141  0.831  0.000  0.000
 -0.000  0.000  0.000  0.976 -0.000
  0.134  0.000  0.000 -0.000  0.791
   spin  2
    eigenvalues: 
  0.690  0.697  0.972  0.976  0.980
    eigenvectors:
  0.000  0.332  0.000  0.000  0.668
  0.500  0.000  0.500  0.000  0.000
  0.500  0.000  0.500  0.000  0.000
  0.000  0.000  0.000  1.000  0.000
  0.000  0.668  0.000  0.000  0.332
    occupations:
  0.886 -0.000 -0.000 -0.000  0.134
 -0.000  0.831  0.141  0.000  0.000
 -0.000  0.141  0.831  0.000  0.000
 -0.000  0.000  0.000  0.976 -0.000
  0.134  0.000  0.000 -0.000  0.791
atomic mag. moment =    -0.000000
atom   14   Tr[ns(na)] (up, down, total) =   4.31452  4.31452  8.62904
   spin  1
    eigenvalues: 
  0.690  0.697  0.972  0.976  0.980
    eigenvectors:
  0.000  0.332  0.000  0.000  0.668
  0.500  0.000  0.500  0.000  0.000
  0.500  0.000  0.500  0.000  0.000
  0.000  0.000  0.000  1.000  0.000
  0.000  0.668  0.000  0.000  0.332
    occupations:
  0.886  0.000  0.000 -0.000 -0.134
  0.000  0.831 -0.141  0.000 -0.000
  0.000 -0.141  0.831 -0.000 -0.000
 -0.000  0.000 -0.000  0.976 -0.000
 -0.134 -0.000 -0.000 -0.000  0.791
   spin  2
    eigenvalues: 
  0.690  0.697  0.972  0.976  0.980
    eigenvectors:
  0.000  0.332  0.000  0.000  0.668
  0.500  0.000  0.500  0.000  0.000
  0.500  0.000  0.500  0.000  0.000
  0.000  0.000  0.000  1.000  0.000
  0.000  0.668  0.000  0.000  0.332
    occupations:
  0.886  0.000  0.000 -0.000 -0.134
  0.000  0.831 -0.141  0.000 -0.000
  0.000 -0.141  0.831 -0.000 -0.000
 -0.000  0.000 -0.000  0.976 -0.000
 -0.134 -0.000 -0.000 -0.000  0.791
atomic mag. moment =    -0.000001
atom   15   Tr[ns(na)] (up, down, total) =   4.31471  4.31471  8.62941
   spin  1
    eigenvalues: 
  0.690  0.696  0.972  0.976  0.980
    eigenvectors:
  0.000  0.332  0.000  0.000  0.668
  0.500  0.000  0.500  0.000  0.000
  0.500  0.000  0.500  0.000  0.000
  0.000  0.000  0.000  1.000  0.000
  0.000  0.668  0.000  0.000  0.332
    occupations:
  0.886 -0.000 -0.000 -0.000  0.134
 -0.000  0.831  0.141  0.000  0.000
 -0.000  0.141  0.831  0.000  0.000
 -0.000  0.000  0.000  0.976 -0.000
  0.134  0.000  0.000 -0.000  0.791
   spin  2
    eigenvalues: 
  0.690  0.696  0.972  0.976  0.980
    eigenvectors:
  0.000  0.332  0.000  0.000  0.668
  0.500  0.000  0.500  0.000  0.000
  0.500  0.000  0.500  0.000  0.000
  0.000  0.000  0.000  1.000  0.000
  0.000  0.668  0.000  0.000  0.332
    occupations:
  0.886 -0.000 -0.000 -0.000  0.134
 -0.000  0.831  0.141  0.000  0.000
 -0.000  0.141  0.831  0.000  0.000
 -0.000  0.000  0.000  0.976 -0.000
  0.134  0.000  0.000 -0.000  0.791
atomic mag. moment =    -0.000000
atom   16   Tr[ns(na)] (up, down, total) =   4.31452  4.31452  8.62904
   spin  1
    eigenvalues: 
  0.690  0.697  0.972  0.976  0.980
    eigenvectors:
  0.000  0.332  0.000  0.000  0.668
  0.500  0.000  0.500  0.000  0.000
  0.500  0.000  0.500  0.000  0.000
  0.000  0.000  0.000  1.000  0.000
  0.000  0.668  0.000  0.000  0.332
    occupations:
  0.886 -0.000 -0.000 -0.000 -0.134
 -0.000  0.831 -0.141 -0.000  0.000
 -0.000 -0.141  0.831  0.000  0.000
 -0.000 -0.000  0.000  0.976 -0.000
 -0.134  0.000  0.000 -0.000  0.791
   spin  2
    eigenvalues: 
  0.690  0.697  0.972  0.976  0.980
    eigenvectors:
  0.000  0.332  0.000  0.000  0.668
  0.500  0.000  0.500  0.000  0.000
  0.500  0.000  0.500  0.000  0.000
  0.000  0.000  0.000  1.000  0.000
  0.000  0.668  0.000  0.000  0.332
    occupations:
  0.886 -0.000 -0.000 -0.000 -0.134
 -0.000  0.831 -0.141 -0.000  0.000
 -0.000 -0.141  0.831  0.000  0.000
 -0.000 -0.000  0.000  0.976 -0.000
 -0.134  0.000  0.000 -0.000  0.791
atomic mag. moment =    -0.000001
atom   17   Tr[ns(na)] (up, down, total) =   2.67322  2.67322  5.34645
   spin  1
    eigenvalues: 
  0.847  0.850  0.976
    eigenvectors:
  0.000  1.000  0.000
  0.500  0.000  0.500
  0.500  0.000  0.500
    occupations:
  0.850 -0.000 -0.000
 -0.000  0.911 -0.064
 -0.000 -0.064  0.911
   spin  2
    eigenvalues: 
  0.847  0.850  0.976
    eigenvectors:
  0.000  1.000  0.000
  0.500  0.000  0.500
  0.500  0.000  0.500
    occupations:
  0.850 -0.000 -0.000
 -0.000  0.911 -0.064
 -0.000 -0.064  0.911
atomic mag. moment =    -0.000000
atom   18   Tr[ns(na)] (up, down, total) =   2.66708  2.66708  5.33415
   spin  1
    eigenvalues: 
  0.845  0.848  0.974
    eigenvectors:
  0.000  1.000  0.000
  0.500  0.000  0.500
  0.500  0.000  0.500
    occupations:
  0.848 -0.000 -0.000
 -0.000  0.910 -0.064
 -0.000 -0.064  0.910
   spin  2
    eigenvalues: 
  0.845  0.848  0.974
    eigenvectors:
  0.000  1.000  0.000
  0.500  0.000  0.500
  0.500  0.000  0.500
    occupations:
  0.848 -0.000 -0.000
 -0.000  0.910 -0.064
 -0.000 -0.064  0.910
atomic mag. moment =    -0.000000
atom   19   Tr[ns(na)] (up, down, total) =   2.66702  2.66702  5.33403
   spin  1
    eigenvalues: 
  0.845  0.848  0.974
    eigenvectors:
  0.000  1.000  0.000
  0.500  0.000  0.500
  0.500  0.000  0.500
    occupations:
  0.848 -0.000 -0.000
 -0.000  0.910  0.064
 -0.000  0.064  0.910
   spin  2
    eigenvalues: 
  0.845  0.848  0.974
    eigenvectors:
  0.000  1.000  0.000
  0.500  0.000  0.500
  0.500  0.000  0.500
    occupations:
  0.848 -0.000 -0.000
 -0.000  0.910  0.064
 -0.000  0.064  0.910
atomic mag. moment =    -0.000000
atom   20   Tr[ns(na)] (up, down, total) =   2.66702  2.66702  5.33403
   spin  1
    eigenvalues: 
  0.845  0.848  0.974
    eigenvectors:
  0.000  1.000  0.000
  0.500  0.000  0.500
  0.500  0.000  0.500
    occupations:
  0.848 -0.000 -0.000
 -0.000  0.910  0.064
 -0.000  0.064  0.910
   spin  2
    eigenvalues: 
  0.845  0.848  0.974
    eigenvectors:
  0.000  1.000  0.000
  0.500  0.000  0.500
  0.500  0.000  0.500
    occupations:
  0.848 -0.000 -0.000
 -0.000  0.910  0.064
 -0.000  0.064  0.910
atomic mag. moment =    -0.000000
atom   21   Tr[ns(na)] (up, down, total) =   2.66695  2.66695  5.33389
   spin  1
    eigenvalues: 
  0.845  0.848  0.974
    eigenvectors:
  0.000  1.000  0.000
  0.500  0.000  0.500
  0.500  0.000  0.500
    occupations:
  0.848 -0.000 -0.000
 -0.000  0.909 -0.064
 -0.000 -0.064  0.909
   spin  2
    eigenvalues: 
  0.845  0.848  0.974
    eigenvectors:
  0.000  1.000  0.000
  0.500  0.000  0.500
  0.500  0.000  0.500
    occupations:
  0.848 -0.000 -0.000
 -0.000  0.909 -0.064
 -0.000 -0.064  0.909
atomic mag. moment =    -0.000000
atom   22   Tr[ns(na)] (up, down, total) =   2.66683  2.66683  5.33366
   spin  1
    eigenvalues: 
  0.845  0.848  0.974
    eigenvectors:
  0.000  1.000  0.000
  0.500  0.000  0.500
  0.500  0.000  0.500
    occupations:
  0.848 -0.000 -0.000
 -0.000  0.909 -0.064
 -0.000 -0.064  0.909
   spin  2
    eigenvalues: 
  0.845  0.848  0.974
    eigenvectors:
  0.000  1.000  0.000
  0.500  0.000  0.500
  0.500  0.000  0.500
    occupations:
  0.848 -0.000 -0.000
 -0.000  0.909 -0.064
 -0.000 -0.064  0.909
atomic mag. moment =    -0.000000
atom   23   Tr[ns(na)] (up, down, total) =   2.66702  2.66702  5.33403
   spin  1
    eigenvalues: 
  0.845  0.848  0.974
    eigenvectors:
  0.000  1.000  0.000
  0.500  0.000  0.500
  0.500  0.000  0.500
    occupations:
  0.848  0.000  0.000
  0.000  0.910  0.064
  0.000  0.064  0.910
   spin  2
    eigenvalues: 
  0.845  0.848  0.974
    eigenvectors:
  0.000  1.000  0.000
  0.500  0.000  0.500
  0.500  0.000  0.500
    occupations:
  0.848  0.000  0.000
  0.000  0.910  0.064
  0.000  0.064  0.910
atomic mag. moment =    -0.000000
atom   24   Tr[ns(na)] (up, down, total) =   2.66702  2.66702  5.33403
   spin  1
    eigenvalues: 
  0.845  0.848  0.974
    eigenvectors:
  0.000  1.000  0.000
  0.500  0.000  0.500
  0.500  0.000  0.500
    occupations:
  0.848  0.000  0.000
  0.000  0.910  0.064
  0.000  0.064  0.910
   spin  2
    eigenvalues: 
  0.845  0.848  0.974
    eigenvectors:
  0.000  1.000  0.000
  0.500  0.000  0.500
  0.500  0.000  0.500
    occupations:
  0.848  0.000  0.000
  0.000  0.910  0.064
  0.000  0.064  0.910
atomic mag. moment =    -0.000000
atom   25   Tr[ns(na)] (up, down, total) =   2.66754  2.66754  5.33508
   spin  1
    eigenvalues: 
  0.845  0.848  0.974
    eigenvectors:
  0.000  1.000  0.000
  0.500  0.000  0.500
  0.500  0.000  0.500
    occupations:
  0.848 -0.000 -0.000
 -0.000  0.910 -0.064
 -0.000 -0.064  0.910
   spin  2
    eigenvalues: 
  0.845  0.848  0.974
    eigenvectors:
  0.000  1.000  0.000
  0.500  0.000  0.500
  0.500  0.000  0.500
    occupations:
  0.848 -0.000 -0.000
 -0.000  0.910 -0.064
 -0.000 -0.064  0.910
atomic mag. moment =     0.000000
atom   26   Tr[ns(na)] (up, down, total) =   2.66770  2.66770  5.33540
   spin  1
    eigenvalues: 
  0.846  0.848  0.974
    eigenvectors:
  0.000  1.000  0.000
  0.500  0.000  0.500
  0.500  0.000  0.500
    occupations:
  0.848 -0.000 -0.000
 -0.000  0.910 -0.064
 -0.000 -0.064  0.910
   spin  2
    eigenvalues: 
  0.846  0.848  0.974
    eigenvectors:
  0.000  1.000  0.000
  0.500  0.000  0.500
  0.500  0.000  0.500
    occupations:
  0.848 -0.000 -0.000
 -0.000  0.910 -0.064
 -0.000 -0.064  0.910
atomic mag. moment =     0.000000
atom   27   Tr[ns(na)] (up, down, total) =   2.66713  2.66713  5.33427
   spin  1
    eigenvalues: 
  0.845  0.848  0.974
    eigenvectors:
  0.000  1.000  0.000
  0.500  0.000  0.500
  0.500  0.000  0.500
    occupations:
  0.848 -0.000  0.000
 -0.000  0.910  0.064
  0.000  0.064  0.910
   spin  2
    eigenvalues: 
  0.845  0.848  0.974
    eigenvectors:
  0.000  1.000  0.000
  0.500  0.000  0.500
  0.500  0.000  0.500
    occupations:
  0.848 -0.000  0.000
 -0.000  0.910  0.064
  0.000  0.064  0.910
atomic mag. moment =    -0.000000
atom   28   Tr[ns(na)] (up, down, total) =   2.66752  2.66752  5.33504
   spin  1
    eigenvalues: 
  0.845  0.848  0.974
    eigenvectors:
  0.000  1.000  0.000
  0.500  0.000  0.500
  0.500  0.000  0.500
    occupations:
  0.848  0.000 -0.000
  0.000  0.910  0.064
 -0.000  0.064  0.910
   spin  2
    eigenvalues: 
  0.845  0.848  0.974
    eigenvectors:
  0.000  1.000  0.000
  0.500  0.000  0.500
  0.500  0.000  0.500
    occupations:
  0.848  0.000 -0.000
  0.000  0.910  0.064
 -0.000  0.064  0.910
atomic mag. moment =    -0.000000
atom   29   Tr[ns(na)] (up, down, total) =   2.66742  2.66742  5.33483
   spin  1
    eigenvalues: 
  0.845  0.848  0.974
    eigenvectors:
  0.000  1.000  0.000
  0.500  0.000  0.500
  0.500  0.000  0.500
    occupations:
  0.848 -0.000 -0.000
 -0.000  0.910 -0.064
 -0.000 -0.064  0.910
   spin  2
    eigenvalues: 
  0.845  0.848  0.974
    eigenvectors:
  0.000  1.000  0.000
  0.500  0.000  0.500
  0.500  0.000  0.500
    occupations:
  0.848 -0.000 -0.000
 -0.000  0.910 -0.064
 -0.000 -0.064  0.910
atomic mag. moment =     0.000000
atom   30   Tr[ns(na)] (up, down, total) =   2.66774  2.66774  5.33548
   spin  1
    eigenvalues: 
  0.846  0.848  0.974
    eigenvectors:
  0.000  1.000  0.000
  0.500  0.000  0.500
  0.500  0.000  0.500
    occupations:
  0.848 -0.000 -0.000
 -0.000  0.910 -0.064
 -0.000 -0.064  0.910
   spin  2
    eigenvalues: 
  0.846  0.848  0.974
    eigenvectors:
  0.000  1.000  0.000
  0.500  0.000  0.500
  0.500  0.000  0.500
    occupations:
  0.848 -0.000 -0.000
 -0.000  0.910 -0.064
 -0.000 -0.064  0.910
atomic mag. moment =     0.000000
atom   31   Tr[ns(na)] (up, down, total) =   2.66713  2.66713  5.33427
   spin  1
    eigenvalues: 
  0.845  0.848  0.974
    eigenvectors:
  0.000  1.000  0.000
  0.500  0.000  0.500
  0.500  0.000  0.500
    occupations:
  0.848  0.000 -0.000
  0.000  0.910  0.064
 -0.000  0.064  0.910
   spin  2
    eigenvalues: 
  0.845  0.848  0.974
    eigenvectors:
  0.000  1.000  0.000
  0.500  0.000  0.500
  0.500  0.000  0.500
    occupations:
  0.848  0.000 -0.000
  0.000  0.910  0.064
 -0.000  0.064  0.910
atomic mag. moment =    -0.000000
atom   32   Tr[ns(na)] (up, down, total) =   2.66752  2.66752  5.33504
   spin  1
    eigenvalues: 
  0.845  0.848  0.974
    eigenvectors:
  0.000  1.000  0.000
  0.500  0.000  0.500
  0.500  0.000  0.500
    occupations:
  0.848 -0.000  0.000
 -0.000  0.910  0.064
  0.000  0.064  0.910
   spin  2
    eigenvalues: 
  0.845  0.848  0.974
    eigenvectors:
  0.000  1.000  0.000
  0.500  0.000  0.500
  0.500  0.000  0.500
    occupations:
  0.848 -0.000  0.000
 -0.000  0.910  0.064
  0.000  0.064  0.910
atomic mag. moment =    -0.000000
atom   33   Tr[ns(na)] (up, down, total) =   2.66754  2.66754  5.33508
   spin  1
    eigenvalues: 
  0.845  0.848  0.974
    eigenvectors:
  0.000  1.000  0.000
  0.500  0.000  0.500
  0.500  0.000  0.500
    occupations:
  0.848 -0.000 -0.000
 -0.000  0.910 -0.064
 -0.000 -0.064  0.910
   spin  2
    eigenvalues: 
  0.845  0.848  0.974
    eigenvectors:
  0.000  1.000  0.000
  0.500  0.000  0.500
  0.500  0.000  0.500
    occupations:
  0.848 -0.000 -0.000
 -0.000  0.910 -0.064
 -0.000 -0.064  0.910
atomic mag. moment =     0.000000
atom   34   Tr[ns(na)] (up, down, total) =   2.66770  2.66770  5.33540
   spin  1
    eigenvalues: 
  0.846  0.848  0.974
    eigenvectors:
  0.000  1.000  0.000
  0.500  0.000  0.500
  0.500  0.000  0.500
    occupations:
  0.848 -0.000 -0.000
 -0.000  0.910 -0.064
 -0.000 -0.064  0.910
   spin  2
    eigenvalues: 
  0.846  0.848  0.974
    eigenvectors:
  0.000  1.000  0.000
  0.500  0.000  0.500
  0.500  0.000  0.500
    occupations:
  0.848 -0.000 -0.000
 -0.000  0.910 -0.064
 -0.000 -0.064  0.910
atomic mag. moment =     0.000000
atom   35   Tr[ns(na)] (up, down, total) =   2.66752  2.66752  5.33504
   spin  1
    eigenvalues: 
  0.845  0.848  0.974
    eigenvectors:
  0.000  1.000  0.000
  0.500  0.000  0.500
  0.500  0.000  0.500
    occupations:
  0.848 -0.000  0.000
 -0.000  0.910  0.064
  0.000  0.064  0.910
   spin  2
    eigenvalues: 
  0.845  0.848  0.974
    eigenvectors:
  0.000  1.000  0.000
  0.500  0.000  0.500
  0.500  0.000  0.500
    occupations:
  0.848 -0.000  0.000
 -0.000  0.910  0.064
  0.000  0.064  0.910
atomic mag. moment =    -0.000000
atom   36   Tr[ns(na)] (up, down, total) =   2.66713  2.66713  5.33427
   spin  1
    eigenvalues: 
  0.845  0.848  0.974
    eigenvectors:
  0.000  1.000  0.000
  0.500  0.000  0.500
  0.500  0.000  0.500
    occupations:
  0.848  0.000 -0.000
  0.000  0.910  0.064
 -0.000  0.064  0.910
   spin  2
    eigenvalues: 
  0.845  0.848  0.974
    eigenvectors:
  0.000  1.000  0.000
  0.500  0.000  0.500
  0.500  0.000  0.500
    occupations:
  0.848  0.000 -0.000
  0.000  0.910  0.064
 -0.000  0.064  0.910
atomic mag. moment =    -0.000000
atom   37   Tr[ns(na)] (up, down, total) =   2.66742  2.66742  5.33483
   spin  1
    eigenvalues: 
  0.845  0.848  0.974
    eigenvectors:
  0.000  1.000  0.000
  0.500  0.000  0.500
  0.500  0.000  0.500
    occupations:
  0.848 -0.000 -0.000
 -0.000  0.910 -0.064
 -0.000 -0.064  0.910
   spin  2
    eigenvalues: 
  0.845  0.848  0.974
    eigenvectors:
  0.000  1.000  0.000
  0.500  0.000  0.500
  0.500  0.000  0.500
    occupations:
  0.848 -0.000 -0.000
 -0.000  0.910 -0.064
 -0.000 -0.064  0.910
atomic mag. moment =     0.000000
atom   38   Tr[ns(na)] (up, down, total) =   2.66774  2.66774  5.33548
   spin  1
    eigenvalues: 
  0.846  0.848  0.974
    eigenvectors:
  0.000  1.000  0.000
  0.500  0.000  0.500
  0.500  0.000  0.500
    occupations:
  0.848 -0.000 -0.000
 -0.000  0.910 -0.064
 -0.000 -0.064  0.910
   spin  2
    eigenvalues: 
  0.846  0.848  0.974
    eigenvectors:
  0.000  1.000  0.000
  0.500  0.000  0.500
  0.500  0.000  0.500
    occupations:
  0.848 -0.000 -0.000
 -0.000  0.910 -0.064
 -0.000 -0.064  0.910
atomic mag. moment =     0.000000
atom   39   Tr[ns(na)] (up, down, total) =   2.66752  2.66752  5.33504
   spin  1
    eigenvalues: 
  0.845  0.848  0.974
    eigenvectors:
  0.000  1.000  0.000
  0.500  0.000  0.500
  0.500  0.000  0.500
    occupations:
  0.848  0.000 -0.000
  0.000  0.910  0.064
 -0.000  0.064  0.910
   spin  2
    eigenvalues: 
  0.845  0.848  0.974
    eigenvectors:
  0.000  1.000  0.000
  0.500  0.000  0.500
  0.500  0.000  0.500
    occupations:
  0.848  0.000 -0.000
  0.000  0.910  0.064
 -0.000  0.064  0.910
atomic mag. moment =    -0.000000
atom   40   Tr[ns(na)] (up, down, total) =   2.66713  2.66713  5.33427
   spin  1
    eigenvalues: 
  0.845  0.848  0.974
    eigenvectors:
  0.000  1.000  0.000
  0.500  0.000  0.500
  0.500  0.000  0.500
    occupations:
  0.848 -0.000  0.000
 -0.000  0.910  0.064
  0.000  0.064  0.910
   spin  2
    eigenvalues: 
  0.845  0.848  0.974
    eigenvectors:
  0.000  1.000  0.000
  0.500  0.000  0.500
  0.500  0.000  0.500
    occupations:
  0.848 -0.000  0.000
 -0.000  0.910  0.064
  0.000  0.064  0.910
atomic mag. moment =    -0.000000
atom   41   Tr[ns(na)] (up, down, total) =   2.66700  2.66700  5.33400
   spin  1
    eigenvalues: 
  0.846  0.848  0.974
    eigenvectors:
  0.000  1.000  0.000
  0.500  0.000  0.500
  0.500  0.000  0.500
    occupations:
  0.848 -0.000 -0.000
 -0.000  0.910 -0.064
 -0.000 -0.064  0.910
   spin  2
    eigenvalues: 
  0.846  0.848  0.974
    eigenvectors:
  0.000  1.000  0.000
  0.500  0.000  0.500
  0.500  0.000  0.500
    occupations:
  0.848 -0.000 -0.000
 -0.000  0.910 -0.064
 -0.000 -0.064  0.910
atomic mag. moment =    -0.000000
atom   42   Tr[ns(na)] (up, down, total) =   2.66640  2.66640  5.33281
   spin  1
    eigenvalues: 
  0.845  0.848  0.973
    eigenvectors:
  0.000  1.000  0.000
  0.500  0.000  0.500
  0.500  0.000  0.500
    occupations:
  0.848 -0.000 -0.000
 -0.000  0.909 -0.064
 -0.000 -0.064  0.909
   spin  2
    eigenvalues: 
  0.845  0.848  0.973
    eigenvectors:
  0.000  1.000  0.000
  0.500  0.000  0.500
  0.500  0.000  0.500
    occupations:
  0.848 -0.000 -0.000
 -0.000  0.909 -0.064
 -0.000 -0.064  0.909
atomic mag. moment =    -0.000000
atom   43   Tr[ns(na)] (up, down, total) =   2.66709  2.66709  5.33419
   spin  1
    eigenvalues: 
  0.845  0.848  0.974
    eigenvectors:
  0.000  1.000  0.000
  0.500  0.000  0.500
  0.500  0.000  0.500
    occupations:
  0.848 -0.000 -0.000
 -0.000  0.910  0.064
 -0.000  0.064  0.910
   spin  2
    eigenvalues: 
  0.845  0.848  0.974
    eigenvectors:
  0.000  1.000  0.000
  0.500  0.000  0.500
  0.500  0.000  0.500
    occupations:
  0.848 -0.000 -0.000
 -0.000  0.910  0.064
 -0.000  0.064  0.910
atomic mag. moment =    -0.000000
atom   44   Tr[ns(na)] (up, down, total) =   2.66709  2.66709  5.33419
   spin  1
    eigenvalues: 
  0.845  0.848  0.974
    eigenvectors:
  0.000  1.000  0.000
  0.500  0.000  0.500
  0.500  0.000  0.500
    occupations:
  0.848 -0.000 -0.000
 -0.000  0.910  0.064
 -0.000  0.064  0.910
   spin  2
    eigenvalues: 
  0.845  0.848  0.974
    eigenvectors:
  0.000  1.000  0.000
  0.500  0.000  0.500
  0.500  0.000  0.500
    occupations:
  0.848 -0.000 -0.000
 -0.000  0.910  0.064
 -0.000  0.064  0.910
atomic mag. moment =    -0.000000
atom   45   Tr[ns(na)] (up, down, total) =   2.66683  2.66683  5.33365
   spin  1
    eigenvalues: 
  0.845  0.848  0.974
    eigenvectors:
  0.000  1.000  0.000
  0.500  0.000  0.500
  0.500  0.000  0.500
    occupations:
[...]
    12.5434  12.5879  12.5889  12.6271  12.6413  12.6416  12.7586  13.5213
    13.5273  13.5448  13.8418  13.8422  14.1886  14.4017  14.5182  15.0522
    15.0525  15.0968  15.2839  15.2910  15.2912  15.2913  15.3435  15.3452
    15.3453  15.4706  15.4708  15.4979  15.5091  15.8010  15.8011  16.4194
    16.9366  18.5642  18.5649  19.8104  20.3055  20.3066  20.7965  20.9894
    21.2407  21.3072  21.3313  21.4143  21.4472  21.5530  21.5547  21.6331
    21.6716  21.6722  21.9135  21.9146  21.9903  22.1685  22.4211  22.4215
    22.4832  22.4839  22.6560  22.8147  22.8160  22.9002  23.6098  23.7615
    23.7799  24.2774  24.5678  24.6685  24.6694  24.9427  24.9433  25.2782
    25.3231  25.3932  25.4135  25.4563  25.4784  25.4792  25.6882  25.9268
    25.9275  26.0941  26.1773  26.3642  26.3655  26.4089  26.4103  26.4671
    26.7850  27.1380  27.1511  27.2386  27.2389  27.5203  27.7509  27.7511
    27.8496  27.8503  27.9182  27.9186  27.9330  28.3708  28.4338  28.6442
    28.6994  28.9250  28.9258  28.9785  29.2966  29.2971  29.4403  29.4413
    29.5294  29.6032  29.6398  29.6851  29.9548  29.9560  30.1036  30.1477
    30.2337  30.2342  30.3080  30.3090  30.3444  30.3762  30.3843  30.3857
    30.3858  30.4040  30.4073  30.4192  30.4194  30.4210  30.4242  30.4245
    30.4247  30.4295  30.4297  30.6035  30.7287  30.8727  30.9022  31.2237
    31.3990  31.3996  31.5044  31.7603  32.0579  32.0585  32.1427  32.4143
    32.4149  32.4581  32.4584  32.5570  32.6333  32.8053  33.1173  33.1176
    33.2980  33.3594  33.6223  33.7369  33.7377  33.7446  33.8219  33.9636
    34.1605  34.1617  34.4509  34.4513  34.4856  34.5085  34.5090  34.7888
    35.0902  35.1256  35.1311  35.2252  35.2261  35.3787  35.4599  35.4603
    35.8967  35.9515  36.2010  36.4782  36.4793  36.5383  36.5387  36.5423
    36.5975  36.8229  37.2317  37.2604  37.2610  37.5811  37.5817  37.8251
    37.9062  37.9064  37.9902  37.9907  38.1249  38.1255  38.1714  38.3699
    38.4108  38.4111  38.4625  38.4790  38.6697  38.8755  38.9670  38.9960
    38.9967  39.0360  39.0577  39.1046  39.1349  39.2508  39.2551  39.2723
    39.2727  39.2867  39.7020  39.7022  39.8000  39.9673  40.1559  40.2389
    40.3464  40.3470  40.3891  40.4070  40.4074  40.4555  40.4900  40.7154
    40.7159  41.0171  41.0334  41.0342  41.0486  41.1011  41.1018  41.1891
    41.3557  41.3913  41.3915  41.4548  41.5340  42.0885  42.0893  42.3882
    42.4157  42.4164  42.4172  42.7853  43.0151  43.0154  43.0898  43.1414
    43.1633  43.1734  43.2319  43.3034  43.3422  43.4190  43.4195  43.4577
    43.5415  43.7029  43.7038  43.8508  43.8515  43.9718  43.9725  44.0155
    44.0159  44.0167  44.0551  44.1466  44.1606  44.3938  44.3941  44.4635
    44.6208  44.7678  44.8789  44.8835  45.0372  45.1825  45.2901  45.2904
    45.3253  45.3255  45.8292  45.8299  45.9233  45.9631  45.9640  46.0459
    46.0661  46.1605  46.2227  46.2237  46.2689  46.2696  46.2820  46.2832
    46.3371  46.4150  46.4163  46.5322  46.5965  46.6107  46.6884  46.6890
    46.7605  46.7934  46.7987  46.9240  46.9842  46.9846  46.9883  47.0163
    47.0174  47.0576  47.4026  47.4032  47.4313  47.5343  47.5352  47.6813
    47.8005  47.9007  47.9118  47.9126  47.9653  47.9659  48.0169  48.1952
    48.1963  48.2786  48.5035  48.6246  48.6249  48.6659  48.6857  48.6861
    48.9327  48.9362  48.9897  49.1117  49.2784  49.2888  49.2904  49.4065
    49.4068  49.5060  49.5066  49.7275  49.7473  49.8923  50.0828  50.1106
    50.1109  50.1920  50.1991  50.1992  50.3801  50.3905  50.4553  50.4577
    50.5435  50.5442  50.5860  50.7114  50.8639  50.8899  50.8906  51.2103
    51.2108  51.2813  51.3532  51.5244  51.5251  51.6561  51.6566  51.6856
    51.7298  51.9958  51.9960  52.1219  52.1224  52.3261  52.3267  52.4053
    52.5106  52.5111  52.6570  52.6572  52.6695  52.8310  52.9264  53.0071
    53.0544  53.0600  53.2605  53.2661  53.2664  53.3768  53.3770  53.4030
    53.4081  53.5340  53.6179  53.8709  53.9386  54.0256  54.0639  54.0647
    54.0679  54.0685  54.1389  54.1780  54.2293  54.2297  54.4144  54.4146
    54.7655  54.7882  55.0982  55.0984  55.1245  55.1288  55.3566  55.4544
    55.5925  56.1103  56.1464  56.1469  56.2801  56.2809  56.3151  56.3153

          k = 0.2500-0.2500 0.3553 ( 15707 PWs)   bands (ev):

   -41.9227 -41.9222 -41.9221 -41.9217 -41.9213 -41.9211 -41.9210 -41.9202
   -41.8856 -41.8839 -41.8838 -41.8830 -41.8819 -41.8813 -41.8812 -41.8794
   -41.7122 -41.7118 -41.7117 -41.7117 -41.7116 -41.7113 -41.7108 -41.7105
   -41.7090 -41.7089 -41.7088 -41.7088 -41.7086 -41.7085 -41.7082 -41.7076
   -41.6055 -41.6055 -41.6051 -41.6051 -41.6047 -41.6046 -41.6045 -41.6043
   -41.6004 -41.6003 -41.6002 -41.6001 -41.6001 -41.6000 -41.5998 -41.5994
    -7.5868  -7.2429  -7.2413  -7.1469  -6.9581  -6.8462  -6.7693  -6.7663
    -6.6708  -6.6691  -6.6149  -6.5920  -6.5027  -6.4511  -6.4480  -6.4005
    -6.2585  -6.2555  -6.2473  -6.2116  -6.2060  -6.2049  -6.1806  -6.1446
    -6.1266  -6.1222  -6.0246  -5.9714  -5.9710  -5.9575  -5.9097  -5.8272
     3.5132   3.5177   3.9614   3.9637   3.9637   3.9677   4.4384   4.4919
     4.6019   4.6327   4.6328   4.7420   4.7763   4.7796   4.7806   4.7836
     4.8188   4.8682   4.8706   4.8883   4.9096   4.9367   4.9372   4.9698
     4.9715   5.0103   5.0888   5.1387   5.1953   5.1959   5.2357   5.5817
     5.6661   5.7684   5.9168   5.9181   5.9554   6.0762   6.2184   6.3721
     6.3739   6.3751   6.3776   6.4604   6.4626   6.8106   6.8126   6.8678
     6.9689   7.0198   7.1628   7.1632   7.1809   7.1846   7.1853   7.1893
     7.3141   7.3694   7.4055   7.4793   7.5007   7.5007   7.5945   7.6126
     7.6143   7.7176   7.7466   7.7473   7.8932   7.9607   7.9875   7.9881
     8.0054   8.0705   8.0710   8.1499   8.3047   8.3575   8.4895   8.4967
     8.4974   8.6093   8.7343   8.7595   8.7868   8.9086   9.0019   9.0103
     9.2414   9.2416   9.3174   9.3178   9.3203   9.5466   9.5601   9.5603
     9.5784   9.5871   9.6380   9.7367   9.8394   9.8395   9.8707   9.9110
     9.9962   9.9970  10.1134  10.1149  10.1576  10.1883  10.1887  10.2929
    10.3343  10.3673  10.3676  10.4046  10.4660  10.5262  10.5781  10.5794
    10.6681  10.7437  10.8159  10.8163  10.8601  10.8604  11.0398  11.3941
    11.4153  11.4217  11.4228  11.6886  11.8575  11.9989  12.0761  12.1155
    12.1156  12.1181  12.1185  12.2267  12.3635  12.3644  12.3850  12.4592
    12.4599  12.6378  12.7689  12.8823  12.9718  12.9720  12.9735  13.7595
    13.7679  13.7866  13.9306  13.9310  14.0697  14.3835  14.4451  14.4453
    14.4948  14.7841  14.9332  14.9333  15.0344  15.1241  15.1372  15.1802
    15.1803  15.2329  15.2601  15.5854  15.5856  15.7523  15.7523  16.2200
    17.4355  18.9266  18.9274  20.0013  20.0694  20.6261  20.6272  20.7559
    20.7572  20.9279  20.9987  21.4765  21.5237  21.7152  21.7412  21.9254
    21.9260  22.0763  22.0769  22.2037  22.2531  22.5155  22.5860  22.6962
    22.6969  22.7088  22.7095  22.9119  23.0980  23.0988  23.4569  23.8136
    23.9126  24.0317  24.4086  24.4092  24.5181  25.1981  25.1986  25.2101
    25.3107  25.3117  25.3256  25.4467  25.5781  25.7609  25.7695  25.9020
    25.9028  25.9573  26.3737  26.3819  26.4729  26.4739  26.6029  26.6041
    26.8638  26.9149  27.0351  27.0425  27.0427  27.2253  27.3626  27.3627
    27.4926  27.4930  27.8919  27.9219  27.9754  28.0865  28.0873  28.2118
    28.4146  28.4566  28.4577  28.5134  28.5138  28.6528  28.7370  28.7512
    28.9642  28.9882  29.2153  29.2161  29.7007  29.7013  29.8285  30.2439
    30.2443  30.3646  30.3781  30.3792  30.3794  30.3800  30.3898  30.3900
    30.3968  30.3989  30.4050  30.4169  30.4170  30.4211  30.4360  30.4935
    30.4937  30.7641  30.8584  30.9592  30.9599  31.3378  31.4005  31.6439
    31.6700  31.6702  31.8779  31.8785  32.0807  32.3717  32.3722  32.5020
    32.5078  32.7329  32.7474  32.7477  32.7686  33.0618  33.3132  33.4721
    33.5700  33.5702  33.6455  33.8010  33.8376  34.1038  34.1352  34.3413
    34.3812  34.3818  34.5190  34.5687  34.6343  34.6345  34.7654  34.7661
    34.8246  35.1944  35.2845  35.2848  35.5184  35.6632  35.6893  35.7368
    36.0699  36.0700  36.1747  36.1750  36.1887  36.2951  36.2960  36.5251
    36.6804  36.7828  36.7830  37.4171  37.4178  37.4762  37.4765  37.5258
    37.5515  37.5680  37.7090  38.0121  38.0124  38.0358  38.0729  38.0731
    38.2204  38.2861  38.5366  38.5373  38.6186  38.7197  38.7393  38.7679
    38.7941  38.9064  38.9070  38.9787  39.1032  39.1034  39.1453  39.1475
    39.3474  39.3547  39.4062  39.4068  39.4299  39.5286  39.7212  39.7214
    39.7776  39.9654  40.2217  40.2869  40.5395  40.5398  40.5449  40.7289
    40.7353  40.7522  40.7524  40.7569  40.8256  40.8261  41.4499  41.4501
    41.5659  41.6473  41.7822  41.7823  41.9241  42.0037  42.0040  42.3776
    42.5137  42.6460  42.9472  42.9476  42.9995  43.0003  43.1384  43.1996
    43.2534  43.2538  43.2671  43.3909  43.4422  43.4428  43.5954  43.6659
    43.6743  43.6902  43.7112  43.9762  43.9948  43.9952  44.0652  44.1113
    44.2027  44.2951  44.2954  44.5787  44.5788  44.6366  44.8395  44.8399
    45.0846  45.0943  45.1349  45.1352  45.1438  45.1689  45.2138  45.2958
    45.4013  45.4741  45.4745  45.6075  45.6083  45.7389  45.8009  45.8572
    45.8579  45.8779  45.9520  46.0481  46.0487  46.0717  46.0722  46.3269
    46.4489  46.4703  46.4710  46.5304  46.6052  46.6306  46.6315  46.6915
    47.0720  47.0922  47.0929  47.1028  47.1031  47.2021  47.2654  47.2938
    47.4181  47.4184  47.4296  47.4300  47.6352  47.6885  47.8628  47.8637
    48.1214  48.1216  48.1220  48.1903  48.1907  48.2507  48.2516  48.4090
    48.4092  48.4114  48.4724  48.5115  48.5240  48.6439  48.6979  48.9848
    49.1041  49.1042  49.1691  49.2189  49.2295  49.2298  49.2537  49.2961
    49.3615  49.4039  49.5558  49.5797  49.5801  49.6268  49.6270  49.8302
    49.8933  50.0742  50.2760  50.3905  50.4920  50.4925  50.5066  50.5070
    50.6333  50.7317  50.7776  50.8507  50.8508  50.9267  50.9271  50.9505
    51.0986  51.0990  51.1326  51.3853  51.4216  51.6102  51.6457  51.7652
    51.7653  51.8572  51.8737  51.8740  52.3019  52.3021  52.3666  52.3796
    52.4408  52.4682  52.5431  52.6024  52.7120  52.7962  52.7966  52.9313
    53.1187  53.1193  53.2686  53.3167  53.3416  53.3963  53.3965  53.5990
    53.5992  53.7913  53.7913  54.0531  54.0537  54.1221  54.1313  54.1834
    54.1921  54.2563  54.3035  54.3243  54.3247  54.3633  54.4710  54.4714
    54.9409  55.0714  55.0718  55.0802  55.1111  55.1119  55.2214  55.2216
    55.2312  55.5723  55.6426  55.8204  55.8208  55.9669  55.9670  55.9957

          k = 0.2500-0.2500-0.7105 ( 15684 PWs)   bands (ev):

   -41.9045 -41.9044 -41.9034 -41.9031 -41.9030 -41.9030 -41.9025 -41.9023
   -41.9017 -41.9015 -41.9013 -41.9011 -41.9010 -41.9010 -41.8996 -41.8996
   -41.7110 -41.7104 -41.7103 -41.7103 -41.7103 -41.7102 -41.7102 -41.7102
   -41.7102 -41.7102 -41.7101 -41.7095 -41.7095 -41.7093 -41.7091 -41.7090
   -41.6030 -41.6030 -41.6029 -41.6029 -41.6029 -41.6029 -41.6026 -41.6024
   -41.6024 -41.6024 -41.6023 -41.6023 -41.6023 -41.6020 -41.6020 -41.6013
    -7.2540  -7.2518  -6.9597  -6.9594  -6.9592  -6.9567  -6.8787  -6.8750
    -6.7160  -6.7160  -6.5381  -6.5378  -6.5375  -6.5312  -6.4547  -6.4529
    -6.2643  -6.2641  -6.2639  -6.2575  -6.1599  -6.1598  -6.1077  -6.1077
    -6.1076  -6.1066  -6.1012  -6.1011  -6.0657  -6.0614  -5.9914  -5.9866
     3.9452   3.9507   3.9628   3.9660   4.3002   4.3002   4.3090   4.3091
     4.3092   4.3092   4.3167   4.3169   4.8727   4.8735   4.8757   4.8759
     5.0048   5.0071   5.1274   5.1283   5.2073   5.2092   5.2185   5.2202
     5.2202   5.2204   5.3780   5.3851   5.3853   5.3854   5.4259   5.4262
     5.6071   5.6128   5.6128   5.6131   5.9451   5.9459   6.1775   6.1783
     6.1784   6.1786   6.1937   6.1940   6.2166   6.2183   6.7003   6.7042
     6.8311   6.8340   6.9347   6.9357   6.9368   6.9369   7.1450   7.1465
     7.1475   7.1478   7.2825   7.2835   7.7549   7.7555   7.7555   7.7556
     7.7680   7.7681   7.7793   7.7793   7.8067   7.8072   7.8363   7.8370
     7.9297   7.9312   7.9315   7.9315   8.1657   8.1665   8.3755   8.3769
     8.4440   8.4456   8.6063   8.6074   8.7001   8.7002   8.7004   8.7005
     9.1632   9.1643   9.2277   9.2283   9.2284   9.2287   9.2889   9.2892
     9.7412   9.7413   9.7696   9.7696  10.2936  10.2940  10.2942  10.2942
    10.3000  10.3000  10.3794  10.3795  10.4599  10.4628  10.4630  10.4631
    10.5045  10.5058  10.6083  10.6090  10.6090  10.6092  10.6898  10.6900
    10.8276  10.8295  10.9711  10.9718  10.9718  10.9721  11.2432  11.2450
    11.6733  11.6736  11.7771  11.7789  11.7790  11.7791  11.8331  11.8340
    11.9018  11.9024  12.0071  12.0081  12.0082  12.0083  12.3448  12.3455
    13.3103  13.3113  13.3113  13.3125  13.3676  13.3678  13.7027  13.7029
    13.7030  13.7030  13.7342  13.7343  13.9226  13.9226  14.2830  14.2831
    14.3643  14.3650  14.3944  14.3951  14.8092  14.8093  14.8095  14.8095
    15.0663  15.0663  15.6638  15.6638  15.6638  15.6640  15.6957  15.6958
    18.6308  18.6313  19.7596  19.7603  19.7606  19.7613  20.4542  20.4549
    21.2296  21.2301  21.2859  21.2865  21.2867  21.2876  22.2565  22.2573
    22.3489  22.3496  22.5947  22.5956  22.8248  22.8249  22.8605  22.8612
    22.8613  22.8620  22.9848  22.9853  23.0349  23.0350  23.0360  23.0362
    24.4277  24.4278  24.6502  24.6502  24.6525  24.6528  24.6529  24.6539
    25.1466  25.1469  25.6232  25.6236  25.6240  25.6245  25.9557  25.9571
    26.2112  26.2120  26.2731  26.2733  26.6899  26.6902  26.6905  26.6910
    26.9951  26.9951  26.9953  26.9967  27.0170  27.0175  27.1289  27.1289
    27.3456  27.3457  27.4220  27.4222  27.4227  27.4231  27.5165  27.5170
    27.7480  27.7490  28.3641  28.3641  28.3645  28.3648  28.5775  28.5780
    28.5831  28.5835  29.1637  29.1641  29.1644  29.1646  30.3747  30.3752
    30.3808  30.3814  30.3816  30.3817  30.3897  30.3899  30.3939  30.3941
    30.4051  30.4051  30.4053  30.4053  30.4161  30.4165  30.7100  30.7105
    30.7106  30.7110  30.8323  30.8326  31.1419  31.1424  31.6201  31.6201
    31.6207  31.6212  31.7773  31.7776  32.2745  32.2753  32.2882  32.2883
    33.0407  33.0407  33.0413  33.0419  33.1915  33.1915  33.6812  33.6812
    33.7808  33.7820  34.5157  34.5159  34.5160  34.5164  34.5983  34.5992
    34.6467  34.6469  34.6616  34.6621  34.7250  34.7257  34.8149  34.8152
    34.8154  34.8159  35.6442  35.6448  35.6687  35.6688  35.6691  35.6693
    35.7537  35.7537  35.7541  35.7543  35.9576  35.9579  37.2270  37.2271
    37.2274  37.2278  37.3207  37.3211  37.4383  37.4385  37.4835  37.4838
    37.5247  37.5249  37.5251  37.5258  37.5537  37.5543  37.8348  37.8353
    37.8483  37.8485  38.0600  38.0605  38.1193  38.1196  38.3628  38.3633
    38.3637  38.3637  38.5174  38.5176  38.5178  38.5181  38.7021  38.7022
    39.2308  39.2310  39.3704  39.3705  39.3706  39.3718  39.8324  39.8325
    40.3883  40.3894  40.4820  40.4822  40.7077  40.7078  40.8643  40.8644
    40.8645  40.8646  40.9341  40.9345  41.5110  41.5114  41.6154  41.6154
    41.6158  41.6159  41.6301  41.6301  41.8747  41.8749  41.8751  41.8755
    42.7084  42.7084  42.8497  42.8498  42.8503  42.8507  42.8874  42.8880
    43.3095  43.3096  43.3099  43.3101  43.3270  43.3270  43.6475  43.6477
    43.8003  43.8014  43.9716  43.9717  44.1624  44.1627  44.2942  44.2944
    44.2947  44.2948  44.6282  44.6283  44.6283  44.6284  44.7129  44.7129
    44.8197  44.8197  45.1618  45.1627  45.1748  45.1749  45.1754  45.1761
    45.6073  45.6075  45.6332  45.6333  45.7149  45.7150  45.7151  45.7162
    45.9697  45.9699  46.0044  46.0056  46.0723  46.0726  46.0731  46.0731
    46.7649  46.7654  46.8111  46.8113  46.8114  46.8115  46.8453  46.8455
    47.1566  47.1570  47.4547  47.4556  47.5547  47.5551  47.5553  47.5557
    47.7274  47.7280  47.8581  47.8581  47.8584  47.8587  48.0486  48.0487
    48.0635  48.0636  48.1938  48.1939  48.1942  48.1946  48.3602  48.3606
    48.4060  48.4061  48.6652  48.6654  48.6655  48.6663  49.0304  49.0308
    49.1715  49.1721  49.2604  49.2605  49.2610  49.2611  49.4937  49.4937
    49.6367  49.6370  49.6371  49.6375  49.7312  49.7313  49.7781  49.7784
    49.9136  49.9141  49.9775  49.9777  49.9777  49.9780  50.5891  50.5891
    50.5892  50.5897  50.6209  50.6218  50.8414  50.8418  51.0429  51.0429
    51.1539  51.1543  51.3105  51.3109  51.3109  51.3113  51.7428  51.7431
    52.1126  52.1132  52.2377  52.2378  52.2379  52.2382  52.3522  52.3523
    52.5472  52.5472  52.8860  52.8861  52.9228  52.9230  52.9233  52.9239
    52.9658  52.9662  53.1269  53.1273  53.5645  53.5649  53.7401  53.7402
    53.7402  53.7403  53.7799  53.7799  53.7800  53.7804  53.9628  53.9629
    54.0224  54.0225  54.4507  54.4508  54.4541  54.4546  54.4549  54.4550
    54.7702  54.7705  54.7709  54.7709  54.7911  54.7915  55.2215  55.2216
    55.2830  55.2832  55.3920  55.3922  55.6157  55.6159  55.6160  55.6162

     the Fermi energy is    12.4864 ev

!    total energy              =   -4359.54750381 Ry
     Harris-Foulkes estimate   =   -4359.54750446 Ry
     estimated scf accuracy    <       0.00000069 Ry

     The total energy is the sum of the following terms:

     one-electron contribution =   -1092.71503437 Ry
     hartree contribution      =     841.61500196 Ry
     xc contribution           =   -1097.30369765 Ry
     ewald contribution        =   -3011.11594880 Ry
     Hubbard energy            =      -0.02747038 Ry
     smearing contrib. (-TS)   =      -0.00035458 Ry

     total magnetization       =    -0.00 Bohr mag/cell
     absolute magnetization    =     0.00 Bohr mag/cell

     convergence has been achieved in   7 iterations

     Writing output data file pwscf.save

     init_run     :     51.04s CPU     75.75s WALL (       1 calls)
     electrons    :  14852.33s CPU  17406.94s WALL (       1 calls)

     Called by init_run:
     wfcinit      :     36.46s CPU     59.10s WALL (       1 calls)
     potinit      :      1.39s CPU      2.43s WALL (       1 calls)

     Called by electrons:
     c_bands      :  14016.93s CPU  16043.07s WALL (       7 calls)
     sum_band     :    746.52s CPU   1261.34s WALL (       7 calls)
     v_of_rho     :      4.88s CPU      7.56s WALL (       8 calls)
     newd         :     92.98s CPU     98.71s WALL (       8 calls)
     mix_rho      :      0.70s CPU      1.22s WALL (       7 calls)

     Called by c_bands:
     init_us_2    :      3.54s CPU      3.83s WALL (     630 calls)
     cegterg      :  14001.38s CPU  15918.72s WALL (     294 calls)

     Called by *egterg:
     h_psi        :   2934.14s CPU   4350.84s WALL (     884 calls)
     s_psi        :    246.82s CPU    247.68s WALL (     926 calls)
     g_psi        :      3.05s CPU      3.06s WALL (     590 calls)
     cdiaghg      :   9172.14s CPU   9275.54s WALL (     842 calls)

     Called by h_psi:
     add_vuspsi   :    241.17s CPU    241.84s WALL (     884 calls)
     vhpsi        :    621.05s CPU    810.34s WALL (     884 calls)

     General routines
     calbec       :    847.88s CPU   1181.18s WALL (    2398 calls)
     fft          :      9.80s CPU     17.83s WALL (     236 calls)
     ffts         :      0.16s CPU      0.28s WALL (      30 calls)
     fftw         :   1981.72s CPU   3428.59s WALL ( 1068890 calls)
     interpolate  :      0.96s CPU      1.78s WALL (      30 calls)
     davcio       :      2.10s CPU    262.13s WALL (    1848 calls)

     Parallel routines
     fft_scatter  :   1422.75s CPU   2869.74s WALL ( 1069156 calls)
     Hubbard U routines
     new_ns       :    116.82s CPU    335.71s WALL (       7 calls)
     vhpsi        :    621.05s CPU    810.34s WALL (     884 calls)

     PWSCF        :     4h 8m CPU        4h51m WALL


   This run was terminated on:   1: 8:13  12Feb2014            

=------------------------------------------------------------------------------=
   JOB DONE.
=------------------------------------------------------------------------------=
