ScientificPython/2.8-dl160g6-numpy-1.7.1-1(15):ERROR:151: Module 'ScientificPython/2.8-dl160g6-numpy-1.7.1-1' depends on one of the module(s) 'numpy/1.7.1-dl160g6-gfortran-internal-1'
ScientificPython/2.8-dl160g6-numpy-1.7.1-1(15):ERROR:102: Tcl command execution failed: prereq numpy/1.7.1-dl160g6-gfortran-internal-1


     Program PWSCF v.5.0.2 (svn rev. 9656) starts on  1Jun2014 at  8:21:23 

     This program is part of the open-source Quantum ESPRESSO suite
     for quantum simulation of materials; please cite
         "P. Giannozzi et al., J. Phys.:Condens. Matter 21 395502 (2009);
          URL http://www.quantum-espresso.org", 
     in publications or presentations arising from this work. More details at
     http://www.quantum-espresso.org/quote.php

     Parallel version (MPI), running on    16 processors
     K-points division:     npool     =       4
     R & G space division:  proc/nbgrp/npool/nimage =       4

     Current dimensions of program PWSCF are:
     Max number of different atomic species (ntypx) = 10
     Max number of k-points (npk) =  40000
     Max angular momentum in pseudopotentials (lmaxx) =  3
     Reading input from pwscf.in
Warning: card &CELL ignored
Warning: card / ignored

     Subspace diagonalization in iterative solution of the eigenvalue problem:
     a serial algorithm will be used


     Parallelization info
     --------------------
     sticks:   dense  smooth     PW     G-vecs:    dense   smooth      PW
     Min        1467     469    131               355494    64365    9519
     Max        1469     470    132               355497    64388    9524
     Sum        5871    1877    527              1421981   257505   38087



     bravais-lattice index     =            0
     lattice parameter (alat)  =      11.1872  a.u.
     unit-cell volume          =    7531.8600 (a.u.)^3
     number of atoms/cell      =           33
     number of atomic types    =            3
     number of electrons       =       229.00
     number of Kohn-Sham states=          343
     kinetic-energy cutoff     =      40.0000  Ry
     charge density cutoff     =     500.0000  Ry
     convergence threshold     =      1.0E-06
     mixing beta               =       0.7000
     number of iterations used =            8  plain     mixing
     Exchange-correlation      = SLA  PW   PBE  PBE ( 1 4 3 4 0)
     EXX-fraction              =        0.00
     nstep                     =           50


     celldm(1)=  11.187179  celldm(2)=   0.000000  celldm(3)=   0.000000
     celldm(4)=   0.000000  celldm(5)=   0.000000  celldm(6)=   0.000000

     crystal axes: (cart. coord. in units of alat)
               a(1) = (   1.000000   0.000000   0.000000 )  
               a(2) = (   0.000000   1.180104   0.000000 )  
               a(3) = (   0.000000   0.000000   4.558482 )  

     reciprocal axes: (cart. coord. in units 2 pi/alat)
               b(1) = (  1.000000  0.000000  0.000000 )  
               b(2) = (  0.000000  0.847383  0.000000 )  
               b(3) = (  0.000000  0.000000  0.219371 )  


     PseudoPot. # 1 for O  read from file:
     /home/camp/zhonxu/pseudo/o_pbe_v1.01.uspp.F.UPF
     MD5 check sum: 2bcb18d16ea4b960afae9ec6d52f22d2
     Pseudo is Ultrasoft + core correction, Zval =  6.0
     Generated by new atomic code, or converted to UPF format
     Using radial grid of  737 points,  5 beta functions with: 
                l(1) =   0
                l(2) =   0
                l(3) =   1
                l(4) =   1
                l(5) =   2
     Q(r) pseudized with  8 coefficients,  rinner =    0.900   0.900   0.900
                                                       0.900   0.900

     PseudoPot. # 2 for Nb read from file:
     /home/camp/zhonxu/pseudo/nb_pbe_v1.uspp.F.UPF
     MD5 check sum: 573aab8a2fa660278ed4a62cd769473f
     Pseudo is Ultrasoft + core correction, Zval = 13.0
     Generated by new atomic code, or converted to UPF format
     Using radial grid of  887 points,  6 beta functions with: 
                l(1) =   0
                l(2) =   0
                l(3) =   1
                l(4) =   1
                l(5) =   2
                l(6) =   2
     Q(r) pseudized with  6 coefficients,  rinner =    1.000   1.000   1.000
                                                       1.000   1.000

     PseudoPot. # 3 for H  read from file:
     /home/camp/zhonxu/pseudo/h_pbe_v1.uspp.F.UPF
     MD5 check sum: 3408e3ff4ec8b0a4e358431e7e038a48
     Pseudo is Ultrasoft, Zval =  1.0
     Generated by new atomic code, or converted to UPF format
     Using radial grid of  615 points,  2 beta functions with: 
                l(1) =   0
                l(2) =   0
     Q(r) pseudized with  8 coefficients,  rinner =    0.700

     atomic species   valence    mass     pseudopotential
        O0             6.00    15.99940     O ( 1.00)
        Nb1           13.00    92.90640     Nb( 1.00)
        H2             1.00     1.00794     H ( 1.00)


     Simplified LDA+U calculation (l_max = 2) with parameters (eV):
     atomic species    L          U    alpha       J0     beta
        Nb1            2     6.0000   0.0000   0.0000   0.0000



     No symmetry found



   Cartesian axes

     site n.     atom                  positions (alat units)
         1           O0  tau(   1) = (   0.0000000   0.0000000   1.6962113  )
         2           O0  tau(   2) = (   0.0000000   0.5900519   1.7723835  )
         3           Nb1 tau(   3) = (   0.2500000   0.5900519   2.0257895  )
         4           Nb1 tau(   4) = (   0.0000000   0.0000000   2.0274306  )
         5           O0  tau(   5) = (   0.2500000   0.9322821   2.0383253  )
         6           O0  tau(   6) = (   0.2500000   0.2478218   2.0381886  )
         7           O0  tau(   7) = (   0.0000000   0.5900519   2.2790132  )
         8           O0  tau(   8) = (   0.0000000   0.0000000   2.3853170  )
         9           Nb1 tau(   9) = (   0.2500000   0.0000000   2.6318397  )
        10           Nb1 tau(  10) = (   0.0000000   0.5900519   2.5956910  )
        11           O0  tau(  11) = (   0.2500000   0.8378738   2.6232242  )
        12           O0  tau(  12) = (   0.2500000   0.3422301   2.6255034  )
        13           O0  tau(  13) = (   0.0000000   0.0000000   2.8344187  )
        14           O0  tau(  14) = (   0.5000000   0.0000000   1.6974420  )
        15           O0  tau(  15) = (   0.5000000   0.5900519   1.7789021  )
        16           Nb1 tau(  16) = (   0.7500000   0.5900519   2.0259719  )
        17           Nb1 tau(  17) = (   0.5000000   0.0000000   2.0298010  )
        18           O0  tau(  18) = (   0.7500000   0.9322821   2.0382798  )
        19           O0  tau(  19) = (   0.7500000   0.2478218   2.0381886  )
        20           O0  tau(  20) = (   0.5000000   0.5900519   2.2737254  )
        21           O0  tau(  21) = (   0.5000000   0.0000000   2.3845421  )
        22           Nb1 tau(  22) = (   0.7500000   0.0000000   2.6318397  )
        23           Nb1 tau(  23) = (   0.5000000   0.5900519   2.6269166  )
        24           O0  tau(  24) = (   0.7500000   0.8378738   2.6231786  )
        25           O0  tau(  25) = (   0.7500000   0.3422301   2.6254579  )
        26           O0  tau(  26) = (   0.5000000   0.0000000   2.8332335  )
        27           H2  tau(  27) = (  -0.0005200   0.5958463   1.6070929  )
        28           H2  tau(  28) = (   0.4994400   0.5914445   1.6138395  )
        29           H2  tau(  29) = (   0.1507700   0.0008261   1.6243240  )
        30           H2  tau(  30) = (   0.6503900   0.0006019   1.6249166  )
        31           O0  tau(  31) = (   0.5000000   0.6010623   2.9587285  )
        32           O0  tau(  32) = (   0.5000000   0.4103103   3.1155403  )
        33           H2  tau(  33) = (   0.5000000   0.4955964   3.2584031  )

     number of k points=    10  Methfessel-Paxton smearing, width (Ry)=  0.0100
                       cart. coord. in units 2pi/alat
        k(    1) = (   0.0000000   0.0000000   0.0000000), wk =   0.1250000
        k(    2) = (   0.0000000   0.2118458   0.0000000), wk =   0.2500000
        k(    3) = (   0.0000000  -0.4236915   0.0000000), wk =   0.1250000
        k(    4) = (   0.2500000   0.0000000   0.0000000), wk =   0.2500000
        k(    5) = (   0.2500000   0.2118458   0.0000000), wk =   0.2500000
        k(    6) = (   0.2500000  -0.4236915   0.0000000), wk =   0.2500000
        k(    7) = (  -0.5000000   0.0000000   0.0000000), wk =   0.1250000
        k(    8) = (  -0.5000000   0.2118458   0.0000000), wk =   0.2500000
        k(    9) = (  -0.5000000  -0.4236915   0.0000000), wk =   0.1250000
        k(   10) = (  -0.2500000   0.2118458   0.0000000), wk =   0.2500000

     Dense  grid:  1421981 G-vectors     FFT dimensions: (  80,  96, 375)

     Smooth grid:   257505 G-vectors     FFT dimensions: (  45,  54, 216)

     Largest allocated arrays     est. size (Mb)     dimensions
        Kohn-Sham Wavefunctions        42.32 Mb     (   8086,  343)
        Atomic wavefunctions           23.32 Mb     (   8086,  189)
        NL pseudopotentials            51.08 Mb     (   8086,  414)
        Each V/rho on FFT grid         11.02 Mb     ( 721920)
        Each G-vector array             2.71 Mb     ( 355495)
        G-vector shells                 1.17 Mb     ( 153576)
     Largest temporary arrays     est. size (Mb)     dimensions
        Auxiliary wavefunctions       169.28 Mb     (   8086, 1372)
        Each subspace H/S matrix       28.72 Mb     (1372,1372)
        Each <psi_i|beta_j> matrix      2.17 Mb     (    414,  343)
        Arrays for rho mixing          88.13 Mb     ( 721920,   8)

     Check: negative/imaginary core charge=   -0.000003    0.000000

     Initial potential from superposition of free atoms
     Check: negative starting charge=   -0.003307

     starting charge  228.97806, renormalised to  229.00000

     negative rho (up, down):  0.331E-02 0.000E+00
     Number of +U iterations with fixed ns =  0
     Starting occupations:
 --- enter write_ns ---
 LDA+U parameters:
U( 2)     =  6.00000000
alpha( 2) =  0.00000000
atom    3   Tr[ns(na)] =   3.00000
    eigenvalues: 
  0.300  0.300  0.300  0.300  0.300
    eigenvectors:
  1.000  0.000  0.000  0.000  0.000
  0.000  1.000  0.000  0.000  0.000
  0.000  0.000  1.000  0.000  0.000
  0.000  0.000  0.000  1.000  0.000
  0.000  0.000  0.000  0.000  1.000
    occupations:
  0.300  0.000  0.000  0.000  0.000
  0.000  0.300  0.000  0.000  0.000
  0.000  0.000  0.300  0.000  0.000
  0.000  0.000  0.000  0.300  0.000
  0.000  0.000  0.000  0.000  0.300
atom    4   Tr[ns(na)] =   3.00000
    eigenvalues: 
  0.300  0.300  0.300  0.300  0.300
    eigenvectors:
  1.000  0.000  0.000  0.000  0.000
  0.000  1.000  0.000  0.000  0.000
  0.000  0.000  1.000  0.000  0.000
  0.000  0.000  0.000  1.000  0.000
  0.000  0.000  0.000  0.000  1.000
    occupations:
  0.300  0.000  0.000  0.000  0.000
  0.000  0.300  0.000  0.000  0.000
  0.000  0.000  0.300  0.000  0.000
  0.000  0.000  0.000  0.300  0.000
  0.000  0.000  0.000  0.000  0.300
atom    9   Tr[ns(na)] =   3.00000
    eigenvalues: 
  0.300  0.300  0.300  0.300  0.300
    eigenvectors:
  1.000  0.000  0.000  0.000  0.000
  0.000  1.000  0.000  0.000  0.000
  0.000  0.000  1.000  0.000  0.000
  0.000  0.000  0.000  1.000  0.000
  0.000  0.000  0.000  0.000  1.000
    occupations:
  0.300  0.000  0.000  0.000  0.000
  0.000  0.300  0.000  0.000  0.000
  0.000  0.000  0.300  0.000  0.000
  0.000  0.000  0.000  0.300  0.000
  0.000  0.000  0.000  0.000  0.300
atom   10   Tr[ns(na)] =   3.00000
    eigenvalues: 
  0.300  0.300  0.300  0.300  0.300
    eigenvectors:
  1.000  0.000  0.000  0.000  0.000
  0.000  1.000  0.000  0.000  0.000
  0.000  0.000  1.000  0.000  0.000
  0.000  0.000  0.000  1.000  0.000
  0.000  0.000  0.000  0.000  1.000
    occupations:
  0.300  0.000  0.000  0.000  0.000
  0.000  0.300  0.000  0.000  0.000
  0.000  0.000  0.300  0.000  0.000
  0.000  0.000  0.000  0.300  0.000
  0.000  0.000  0.000  0.000  0.300
atom   16   Tr[ns(na)] =   3.00000
    eigenvalues: 
  0.300  0.300  0.300  0.300  0.300
    eigenvectors:
  1.000  0.000  0.000  0.000  0.000
  0.000  1.000  0.000  0.000  0.000
  0.000  0.000  1.000  0.000  0.000
  0.000  0.000  0.000  1.000  0.000
  0.000  0.000  0.000  0.000  1.000
    occupations:
  0.300  0.000  0.000  0.000  0.000
  0.000  0.300  0.000  0.000  0.000
  0.000  0.000  0.300  0.000  0.000
  0.000  0.000  0.000  0.300  0.000
  0.000  0.000  0.000  0.000  0.300
atom   17   Tr[ns(na)] =   3.00000
    eigenvalues: 
  0.300  0.300  0.300  0.300  0.300
    eigenvectors:
  1.000  0.000  0.000  0.000  0.000
  0.000  1.000  0.000  0.000  0.000
  0.000  0.000  1.000  0.000  0.000
  0.000  0.000  0.000  1.000  0.000
  0.000  0.000  0.000  0.000  1.000
    occupations:
  0.300  0.000  0.000  0.000  0.000
  0.000  0.300  0.000  0.000  0.000
  0.000  0.000  0.300  0.000  0.000
  0.000  0.000  0.000  0.300  0.000
  0.000  0.000  0.000  0.000  0.300
atom   22   Tr[ns(na)] =   3.00000
    eigenvalues: 
  0.300  0.300  0.300  0.300  0.300
    eigenvectors:
  1.000  0.000  0.000  0.000  0.000
  0.000  1.000  0.000  0.000  0.000
  0.000  0.000  1.000  0.000  0.000
  0.000  0.000  0.000  1.000  0.000
  0.000  0.000  0.000  0.000  1.000
    occupations:
  0.300  0.000  0.000  0.000  0.000
  0.000  0.300  0.000  0.000  0.000
  0.000  0.000  0.300  0.000  0.000
  0.000  0.000  0.000  0.300  0.000
  0.000  0.000  0.000  0.000  0.300
atom   23   Tr[ns(na)] =   3.00000
    eigenvalues: 
  0.300  0.300  0.300  0.300  0.300
    eigenvectors:
  1.000  0.000  0.000  0.000  0.000
  0.000  1.000  0.000  0.000  0.000
  0.000  0.000  1.000  0.000  0.000
  0.000  0.000  0.000  1.000  0.000
  0.000  0.000  0.000  0.000  1.000
    occupations:
  0.300  0.000  0.000  0.000  0.000
  0.000  0.300  0.000  0.000  0.000
  0.000  0.000  0.300  0.000  0.000
  0.000  0.000  0.000  0.300  0.000
  0.000  0.000  0.000  0.000  0.300
N of occupied +U levels =  24.0000000
 --- exit write_ns ---
 Atomic wfc used for LDA+U Projector are NOT orthogonalized
     Starting wfc are  189 randomized atomic wfcs

     total cpu time spent up to now is      115.2 secs

     per-process dynamical memory:   412.3 Mb

     Self-consistent Calculation

     iteration #  1     ecut=    40.00 Ry     beta=0.70
     Davidson diagonalization with overlap
     ethr =  1.00E-02,  avg # of iterations =  6.0
 --- enter write_ns ---
 LDA+U parameters:
U( 2)     =  6.00000000
alpha( 2) =  0.00000000
atom    3   Tr[ns(na)] =   3.54827
    eigenvalues: 
  0.215  0.227  0.396  0.428  0.508
    eigenvectors:
  0.000  0.000  0.001  0.686  0.312
  0.000  0.000  0.998  0.002  0.000
  0.084  0.916  0.000  0.000  0.000
  0.000  0.000  0.000  0.312  0.688
  0.916  0.084  0.000  0.000  0.000
    occupations:
  0.453 -0.002  0.000 -0.037  0.001
 -0.002  0.396  0.000  0.000 -0.000
  0.000  0.000  0.226 -0.000 -0.004
 -0.037  0.000 -0.000  0.483 -0.000
  0.001 -0.000 -0.004 -0.000  0.216
atom    4   Tr[ns(na)] =   3.73764
    eigenvalues: 
  0.212  0.281  0.410  0.434  0.532
    eigenvectors:
  0.000  0.000  0.000  0.963  0.037
  0.000  1.000  0.000  0.000  0.000
  1.000  0.000  0.000  0.000  0.000
  0.000  0.000  0.000  0.037  0.963
  0.000  0.000  1.000  0.000  0.000
    occupations:
  0.438  0.003  0.000 -0.018 -0.000
  0.003  0.281 -0.000 -0.002  0.000
  0.000 -0.000  0.212 -0.000  0.001
 -0.018 -0.002 -0.000  0.529  0.000
 -0.000  0.000  0.001  0.000  0.410
atom    9   Tr[ns(na)] =   3.38356
    eigenvalues: 
  0.227  0.259  0.266  0.469  0.471
    eigenvectors:
  0.000  0.880  0.000  0.017  0.102
  0.000  0.000  0.000  0.860  0.140
  0.999  0.000  0.000  0.000  0.000
  0.000  0.119  0.000  0.123  0.757
  0.000  0.000  0.999  0.000  0.000
    occupations:
  0.284  0.000 -0.000  0.069  0.000
  0.000  0.469  0.000 -0.001 -0.000
 -0.000  0.000  0.227  0.001 -0.000
  0.069 -0.001  0.001  0.445 -0.000
  0.000 -0.000 -0.000 -0.000  0.266
atom   10   Tr[ns(na)] =   3.37780
    eigenvalues: 
  0.190  0.211  0.352  0.404  0.532
    eigenvectors:
  0.000  0.000  0.993  0.000  0.007
  0.000  1.000  0.000  0.000  0.000
  1.000  0.000  0.000  0.000  0.000
  0.000  0.000  0.007  0.000  0.993
  0.000  0.000  0.000  1.000  0.000
    occupations:
  0.353  0.000 -0.001 -0.015 -0.000
  0.000  0.211 -0.000  0.000  0.001
 -0.001 -0.000  0.190  0.002 -0.000
 -0.015  0.000  0.002  0.531 -0.000
 -0.000  0.001 -0.000 -0.000  0.404
atom   16   Tr[ns(na)] =   3.54858
    eigenvalues: 
  0.216  0.227  0.396  0.428  0.508
    eigenvectors:
  0.000  0.000  0.002  0.686  0.312
  0.000  0.000  0.998  0.002  0.000
  0.015  0.985  0.000  0.000  0.000
  0.000  0.000  0.000  0.312  0.688
  0.985  0.015  0.000  0.000  0.000
    occupations:
  0.453  0.002  0.000 -0.037 -0.001
  0.002  0.396 -0.000 -0.000 -0.000
  0.000 -0.000  0.226 -0.000  0.001
 -0.037 -0.000 -0.000  0.483  0.000
 -0.001 -0.000  0.001  0.000  0.216
atom   17   Tr[ns(na)] =   3.74356
    eigenvalues: 
  0.212  0.282  0.410  0.436  0.531
    eigenvectors:
  0.000  0.000  0.000  0.962  0.038
  0.000  1.000  0.000  0.000  0.000
  1.000  0.000  0.000  0.000  0.000
  0.000  0.000  0.000  0.038  0.962
  0.000  0.000  1.000  0.000  0.000
    occupations:
  0.440  0.003  0.000 -0.018  0.000
  0.003  0.282 -0.000 -0.002  0.000
  0.000 -0.000  0.212 -0.000  0.001
 -0.018 -0.002 -0.000  0.528  0.000
  0.000  0.000  0.001  0.000  0.410
atom   22   Tr[ns(na)] =   3.38354
    eigenvalues: 
  0.227  0.259  0.266  0.469  0.471
    eigenvectors:
  0.000  0.880  0.000  0.017  0.102
  0.000  0.000  0.000  0.857  0.143
  0.999  0.000  0.000  0.000  0.000
  0.000  0.119  0.000  0.125  0.755
  0.000  0.000  0.999  0.000  0.000
    occupations:
  0.284 -0.000 -0.000  0.069 -0.000
 -0.000  0.469 -0.000  0.001 -0.000
 -0.000 -0.000  0.227  0.001  0.000
  0.069  0.001  0.001  0.445  0.000
 -0.000 -0.000  0.000  0.000  0.266
atom   23   Tr[ns(na)] =   4.04495
    eigenvalues: 
  0.251  0.358  0.410  0.472  0.531
    eigenvectors:
  0.000  0.145  0.000  0.737  0.118
  1.000  0.000  0.000  0.000  0.000
  0.000  0.855  0.000  0.127  0.019
  0.000  0.000  0.000  0.136  0.864
  0.000  0.000  1.000  0.000  0.000
    occupations:
  0.463 -0.000 -0.043 -0.019  0.000
 -0.000  0.251  0.000 -0.000 -0.001
 -0.043  0.000  0.376  0.007  0.000
 -0.019 -0.000  0.007  0.523 -0.000
  0.000 -0.001  0.000 -0.000  0.410
N of occupied +U levels =  28.7678949
 --- exit write_ns ---

     negative rho (up, down):  0.299E-02 0.000E+00

     total cpu time spent up to now is      471.1 secs

     total energy              =   -1580.24540601 Ry
     Harris-Foulkes estimate   =   -1595.17397111 Ry
     estimated scf accuracy    <      19.06642440 Ry

     iteration #  2     ecut=    40.00 Ry     beta=0.70
     Davidson diagonalization with overlap
     ethr =  8.33E-03,  avg # of iterations =  3.5

     negative rho (up, down):  0.153E-01 0.000E+00

     total cpu time spent up to now is      686.9 secs

     total energy              =   -1542.60200350 Ry
     Harris-Foulkes estimate   =   -1624.70644522 Ry
     estimated scf accuracy    <     530.73390953 Ry

     iteration #  3     ecut=    40.00 Ry     beta=0.70
     Davidson diagonalization with overlap
     ethr =  8.33E-03,  avg # of iterations =  4.2

     negative rho (up, down):  0.102E-01 0.000E+00

     total cpu time spent up to now is      974.6 secs

     total energy              =   -1540.01351182 Ry
     Harris-Foulkes estimate   =   -1641.73913026 Ry
     estimated scf accuracy    <    1641.57486042 Ry

     iteration #  4     ecut=    40.00 Ry     beta=0.70
     Davidson diagonalization with overlap
     ethr =  8.33E-03,  avg # of iterations =  4.0

     negative rho (up, down):  0.227E-02 0.000E+00

     total cpu time spent up to now is     1224.3 secs

     total energy              =   -1590.07679762 Ry
     Harris-Foulkes estimate   =   -1592.97637772 Ry
     estimated scf accuracy    <      12.40976601 Ry

     iteration #  5     ecut=    40.00 Ry     beta=0.70
     Davidson diagonalization with overlap
     ethr =  5.42E-03,  avg # of iterations =  3.0

     negative rho (up, down):  0.194E-02 0.000E+00

     total cpu time spent up to now is     1418.5 secs

     total energy              =   -1591.51437188 Ry
     Harris-Foulkes estimate   =   -1591.80445851 Ry
     estimated scf accuracy    <       1.57821042 Ry

     iteration #  6     ecut=    40.00 Ry     beta=0.70
     Davidson diagonalization with overlap
     ethr =  6.89E-04,  avg # of iterations =  3.7

     negative rho (up, down):  0.183E-02 0.000E+00

     total cpu time spent up to now is     1610.7 secs

     total energy              =   -1591.52023680 Ry
     Harris-Foulkes estimate   =   -1591.62937045 Ry
     estimated scf accuracy    <       0.90073668 Ry

     iteration #  7     ecut=    40.00 Ry     beta=0.70
     Davidson diagonalization with overlap
     ethr =  3.93E-04,  avg # of iterations =  2.8

     negative rho (up, down):  0.173E-02 0.000E+00

     total cpu time spent up to now is     1793.2 secs

     total energy              =   -1591.46849389 Ry
     Harris-Foulkes estimate   =   -1591.58247325 Ry
     estimated scf accuracy    <       0.73029491 Ry

     iteration #  8     ecut=    40.00 Ry     beta=0.70
     Davidson diagonalization with overlap
     ethr =  3.19E-04,  avg # of iterations =  5.5

     negative rho (up, down):  0.524E-02 0.000E+00

     total cpu time spent up to now is     2015.9 secs

     total energy              =   -1591.48411833 Ry
     Harris-Foulkes estimate   =   -1591.53839842 Ry
     estimated scf accuracy    <       0.28983617 Ry

     iteration #  9     ecut=    40.00 Ry     beta=0.70
     Davidson diagonalization with overlap
     ethr =  1.27E-04,  avg # of iterations =  5.8

     negative rho (up, down):  0.490E-02 0.000E+00

     total cpu time spent up to now is     2237.6 secs

     total energy              =   -1591.50046978 Ry
     Harris-Foulkes estimate   =   -1591.51395750 Ry
     estimated scf accuracy    <       0.18840305 Ry

     iteration # 10     ecut=    40.00 Ry     beta=0.70
     Davidson diagonalization with overlap
     ethr =  8.23E-05,  avg # of iterations =  1.3

     negative rho (up, down):  0.623E-02 0.000E+00

     total cpu time spent up to now is     2429.8 secs

     total energy              =   -1591.50209861 Ry
     Harris-Foulkes estimate   =   -1591.51067187 Ry
     estimated scf accuracy    <       0.09041748 Ry

     iteration # 11     ecut=    40.00 Ry     beta=0.70
     Davidson diagonalization with overlap
     ethr =  3.95E-05,  avg # of iterations =  5.8

     negative rho (up, down):  0.239E-02 0.000E+00

     total cpu time spent up to now is     2644.8 secs

     total energy              =   -1591.49968556 Ry
     Harris-Foulkes estimate   =   -1591.50563350 Ry
     estimated scf accuracy    <       0.07799584 Ry

     iteration # 12     ecut=    40.00 Ry     beta=0.70
     Davidson diagonalization with overlap
     ethr =  3.41E-05,  avg # of iterations =  1.6

     negative rho (up, down):  0.549E-02 0.000E+00

     total cpu time spent up to now is     2836.8 secs

     total energy              =   -1591.48943491 Ry
     Harris-Foulkes estimate   =   -1591.50356370 Ry
     estimated scf accuracy    <       0.03050349 Ry

     iteration # 13     ecut=    40.00 Ry     beta=0.70
     Davidson diagonalization with overlap
     ethr =  1.33E-05,  avg # of iterations =  5.9

     negative rho (up, down):  0.305E-02 0.000E+00

     total cpu time spent up to now is     3076.9 secs

     total energy              =   -1591.49551546 Ry
     Harris-Foulkes estimate   =   -1591.50623528 Ry
     estimated scf accuracy    <       0.12256959 Ry

     iteration # 14     ecut=    40.00 Ry     beta=0.70
     Davidson diagonalization with overlap
     ethr =  1.33E-05,  avg # of iterations =  4.4

     negative rho (up, down):  0.300E-02 0.000E+00

     total cpu time spent up to now is     3290.0 secs

     total energy              =   -1591.49936899 Ry
     Harris-Foulkes estimate   =   -1591.50038624 Ry
     estimated scf accuracy    <       0.00635087 Ry

     iteration # 15     ecut=    40.00 Ry     beta=0.70
     Davidson diagonalization with overlap
     ethr =  2.77E-06,  avg # of iterations =  4.7

     negative rho (up, down):  0.316E-02 0.000E+00

     total cpu time spent up to now is     3505.4 secs

     total energy              =   -1591.49973147 Ry
     Harris-Foulkes estimate   =   -1591.50083775 Ry
     estimated scf accuracy    <       0.01731041 Ry

     iteration # 16     ecut=    40.00 Ry     beta=0.70
     Davidson diagonalization with overlap
     ethr =  2.77E-06,  avg # of iterations =  4.2

     negative rho (up, down):  0.346E-02 0.000E+00

     total cpu time spent up to now is     3715.6 secs

     total energy              =   -1591.49989011 Ry
     Harris-Foulkes estimate   =   -1591.50049443 Ry
     estimated scf accuracy    <       0.00435663 Ry

     iteration # 17     ecut=    40.00 Ry     beta=0.70
     Davidson diagonalization with overlap
     ethr =  1.90E-06,  avg # of iterations =  5.2

     negative rho (up, down):  0.342E-02 0.000E+00

     total cpu time spent up to now is     3933.2 secs

     total energy              =   -1591.49999751 Ry
     Harris-Foulkes estimate   =   -1591.50051193 Ry
     estimated scf accuracy    <       0.00268598 Ry

     iteration # 18     ecut=    40.00 Ry     beta=0.70
     Davidson diagonalization with overlap
     ethr =  1.17E-06,  avg # of iterations =  1.3

     negative rho (up, down):  0.341E-02 0.000E+00

     total cpu time spent up to now is     4125.3 secs

     total energy              =   -1591.50025114 Ry
     Harris-Foulkes estimate   =   -1591.50029983 Ry
     estimated scf accuracy    <       0.00051104 Ry

     iteration # 19     ecut=    40.00 Ry     beta=0.70
     Davidson diagonalization with overlap
     ethr =  2.23E-07,  avg # of iterations =  1.0

     negative rho (up, down):  0.342E-02 0.000E+00

     total cpu time spent up to now is     4315.2 secs

     total energy              =   -1591.50027485 Ry
     Harris-Foulkes estimate   =   -1591.50029443 Ry
     estimated scf accuracy    <       0.00013049 Ry

     iteration # 20     ecut=    40.00 Ry     beta=0.70
     Davidson diagonalization with overlap
     ethr =  5.70E-08,  avg # of iterations =  1.0

     negative rho (up, down):  0.341E-02 0.000E+00

     total cpu time spent up to now is     4507.3 secs

     total energy              =   -1591.50028559 Ry
     Harris-Foulkes estimate   =   -1591.50029158 Ry
     estimated scf accuracy    <       0.00008538 Ry

     iteration # 21     ecut=    40.00 Ry     beta=0.70
     Davidson diagonalization with overlap
     ethr =  3.73E-08,  avg # of iterations =  1.0

     negative rho (up, down):  0.342E-02 0.000E+00

     total cpu time spent up to now is     4698.0 secs

     total energy              =   -1591.50029273 Ry
     Harris-Foulkes estimate   =   -1591.50029667 Ry
     estimated scf accuracy    <       0.00003279 Ry

     iteration # 22     ecut=    40.00 Ry     beta=0.70
     Davidson diagonalization with overlap
     ethr =  1.43E-08,  avg # of iterations =  1.0

     negative rho (up, down):  0.341E-02 0.000E+00

     total cpu time spent up to now is     4890.2 secs

     total energy              =   -1591.50029721 Ry
     Harris-Foulkes estimate   =   -1591.50029747 Ry
     estimated scf accuracy    <       0.00001062 Ry

     iteration # 23     ecut=    40.00 Ry     beta=0.70
     Davidson diagonalization with overlap
     ethr =  4.64E-09,  avg # of iterations =  1.0

     negative rho (up, down):  0.341E-02 0.000E+00

     total cpu time spent up to now is     5082.5 secs

     total energy              =   -1591.50029804 Ry
     Harris-Foulkes estimate   =   -1591.50029975 Ry
     estimated scf accuracy    <       0.00001825 Ry

     iteration # 24     ecut=    40.00 Ry     beta=0.70
     Davidson diagonalization with overlap
     ethr =  4.64E-09,  avg # of iterations =  1.0

     negative rho (up, down):  0.341E-02 0.000E+00

     total cpu time spent up to now is     5272.8 secs

     total energy              =   -1591.50029956 Ry
     Harris-Foulkes estimate   =   -1591.50030056 Ry
     estimated scf accuracy    <       0.00000647 Ry

     iteration # 25     ecut=    40.00 Ry     beta=0.70
     Davidson diagonalization with overlap
     ethr =  2.83E-09,  avg # of iterations =  1.0

     negative rho (up, down):  0.341E-02 0.000E+00

     total cpu time spent up to now is     5467.6 secs

     total energy              =   -1591.50030021 Ry
     Harris-Foulkes estimate   =   -1591.50030110 Ry
     estimated scf accuracy    <       0.00000545 Ry

     iteration # 26     ecut=    40.00 Ry     beta=0.70
     Davidson diagonalization with overlap
     ethr =  2.38E-09,  avg # of iterations =  1.2

     negative rho (up, down):  0.341E-02 0.000E+00

     total cpu time spent up to now is     5658.6 secs

     total energy              =   -1591.50030076 Ry
     Harris-Foulkes estimate   =   -1591.50030103 Ry
     estimated scf accuracy    <       0.00000333 Ry

     iteration # 27     ecut=    40.00 Ry     beta=0.70
     Davidson diagonalization with overlap
     ethr =  1.45E-09,  avg # of iterations =  1.2

     negative rho (up, down):  0.341E-02 0.000E+00

     total cpu time spent up to now is     5848.7 secs

     total energy              =   -1591.50030088 Ry
     Harris-Foulkes estimate   =   -1591.50030136 Ry
     estimated scf accuracy    <       0.00000184 Ry

     iteration # 28     ecut=    40.00 Ry     beta=0.70
     Davidson diagonalization with overlap
     ethr =  8.04E-10,  avg # of iterations =  1.2

     negative rho (up, down):  0.341E-02 0.000E+00

     total cpu time spent up to now is     6040.7 secs

     End of self-consistent calculation
 --- enter write_ns ---
 LDA+U parameters:
U( 2)     =  6.00000000
alpha( 2) =  0.00000000
atom    3   Tr[ns(na)] =   5.14146
    eigenvalues: 
  0.327  0.345  0.528  0.599  0.771
    eigenvectors:
  0.000  0.000  0.004  0.320  0.676
  0.000  0.000  0.995  0.004  0.001
  0.775  0.225  0.000  0.000  0.000
  0.000  0.000  0.001  0.676  0.323
  0.225  0.775  0.000  0.000  0.000
    occupations:
  0.715 -0.009  0.002 -0.080 -0.003
 -0.009  0.529 -0.001  0.001  0.001
  0.002 -0.001  0.331 -0.001 -0.008
 -0.080  0.001 -0.001  0.654  0.002
 -0.003  0.001 -0.008  0.002  0.341
atom    4   Tr[ns(na)] =   5.18425
    eigenvalues: 
  0.341  0.372  0.558  0.595  0.726
    eigenvectors:
  0.003  0.000  0.000  0.997  0.000
  0.996  0.000  0.000  0.003  0.001
  0.000  1.000  0.000  0.000  0.000
  0.001  0.000  0.000  0.000  0.999
  0.000  0.000  1.000  0.000  0.000
    occupations:
  0.595  0.014  0.000 -0.001 -0.000
  0.014  0.342 -0.000 -0.010  0.000
  0.000 -0.000  0.372 -0.000  0.001
 -0.001 -0.010 -0.000  0.726  0.000
 -0.000  0.000  0.001  0.000  0.558
atom    9   Tr[ns(na)] =   5.24506
    eigenvalues: 
  0.447  0.449  0.469  0.627  0.630
    eigenvectors:
  0.833  0.038  0.000  0.008  0.121
  0.000  0.000  0.000  0.940  0.060
  0.041  0.938  0.020  0.000  0.000
  0.124  0.005  0.000  0.052  0.819
  0.002  0.019  0.979  0.000  0.000
    occupations:
  0.470 -0.000 -0.000  0.061  0.000
 -0.000  0.627  0.000 -0.001  0.000
 -0.000  0.000  0.449  0.001  0.003
  0.061 -0.001  0.001  0.607 -0.000
  0.000  0.000  0.003 -0.000  0.469
atom   10   Tr[ns(na)] =   5.05741
    eigenvalues: 
  0.308  0.370  0.509  0.543  0.798
    eigenvectors:
  0.000  0.000  0.997  0.000  0.002
  0.000  1.000  0.000  0.000  0.000
  1.000  0.000  0.000  0.000  0.000
  0.000  0.000  0.002  0.000  0.997
  0.000  0.000  0.000  1.000  0.000
    occupations:
  0.510 -0.000  0.001  0.014 -0.000
 -0.000  0.370  0.000  0.000  0.001
  0.001  0.000  0.308 -0.003 -0.000
  0.014  0.000 -0.003  0.797 -0.000
 -0.000  0.001 -0.000 -0.000  0.543
atom   16   Tr[ns(na)] =   5.14158
    eigenvalues: 
  0.327  0.346  0.528  0.599  0.771
    eigenvectors:
  0.000  0.000  0.004  0.320  0.675
  0.000  0.000  0.995  0.004  0.001
  0.760  0.240  0.000  0.000  0.000
  0.000  0.000  0.001  0.676  0.323
  0.240  0.760  0.000  0.000  0.000
    occupations:
  0.715  0.009  0.002 -0.080  0.003
  0.009  0.529  0.001 -0.001  0.001
  0.002  0.001  0.331 -0.001  0.008
 -0.080 -0.001 -0.001  0.654 -0.002
  0.003  0.001  0.008 -0.002  0.341
atom   17   Tr[ns(na)] =   5.18308
    eigenvalues: 
  0.343  0.372  0.557  0.597  0.723
    eigenvectors:
  0.003  0.000  0.000  0.997  0.000
  0.996  0.000  0.000  0.003  0.001
  0.000  1.000  0.000  0.000  0.000
  0.001  0.000  0.000  0.000  0.999
  0.000  0.000  1.000  0.000  0.000
    occupations:
  0.596  0.014  0.000 -0.001 -0.000
  0.014  0.344 -0.000 -0.010  0.000
  0.000 -0.000  0.372 -0.000  0.001
 -0.001 -0.010 -0.000  0.723  0.000
 -0.000  0.000  0.001  0.000  0.557
atom   22   Tr[ns(na)] =   5.24501
    eigenvalues: 
  0.447  0.449  0.469  0.627  0.630
    eigenvectors:
  0.836  0.035  0.000  0.007  0.122
  0.000  0.000  0.000  0.946  0.054
  0.038  0.942  0.020  0.000  0.000
  0.124  0.005  0.000  0.047  0.824
  0.002  0.018  0.980  0.000  0.000
    occupations:
  0.470  0.000 -0.000  0.061 -0.000
  0.000  0.627 -0.000  0.001  0.000
 -0.000 -0.000  0.449  0.001 -0.003
  0.061  0.001  0.001  0.607  0.000
 -0.000  0.000 -0.003  0.000  0.469
atom   23   Tr[ns(na)] =   5.18531
    eigenvalues: 
  0.306  0.461  0.558  0.599  0.668
    eigenvectors:
  0.002  0.000  0.000  0.983  0.015
  0.000  0.997  0.003  0.000  0.000
  0.998  0.000  0.000  0.002  0.001
  0.000  0.000  0.000  0.015  0.985
  0.000  0.003  0.997  0.000  0.000
    occupations:
  0.600  0.000  0.013  0.008 -0.000
  0.000  0.462 -0.000 -0.000 -0.005
  0.013 -0.000  0.306  0.008  0.000
  0.008 -0.000  0.008  0.667 -0.000
 -0.000 -0.005  0.000 -0.000  0.558
N of occupied +U levels =  41.3831648
 --- exit write_ns ---

          k = 0.0000 0.0000 0.0000 ( 32167 PWs)   bands (ev):

   -56.3004 -56.1931 -55.6048 -55.5963 -55.5498 -55.4973 -55.4664 -55.3953
   -33.1672 -32.5245 -32.3613 -32.2670 -32.2581 -32.2121 -32.1206 -32.0619
   -31.9967 -31.9867 -31.9855 -31.9673 -31.9253 -31.9218 -31.9138 -31.5584
   -31.4806 -31.4128 -31.2873 -31.2229 -31.1531 -31.1455 -31.1040 -31.0422
   -22.5340 -20.0987 -19.8089 -19.2991 -19.2615 -19.0297 -18.9410 -18.9088
   -18.5929 -18.5321 -18.3489 -18.2578 -18.0785 -17.9283 -17.8197 -17.6261
   -17.5405 -17.4531 -17.4158 -16.3748  -8.9452  -8.1394  -7.8985  -7.6883
    -7.6250  -7.3420  -6.8009  -6.4516  -6.4237  -6.2648  -6.1923  -6.0372
    -5.9289  -5.9207  -5.8395  -5.6523  -5.4250  -5.3194  -5.2786  -5.1405
    -4.9618  -4.9333  -4.9011  -4.7965  -4.7642  -4.7585  -4.7427  -4.7138
    -4.5943  -4.4686  -4.0681  -3.9346  -3.9221  -3.8613  -3.5301  -3.5008
    -3.4646  -3.3624  -3.2645  -3.2196  -3.0843  -3.0524  -3.0066  -2.9444
    -2.8853  -2.8022  -2.7975  -2.7089  -2.6167  -2.5495  -2.5164  -2.4912
    -2.4391  -2.3739  -2.3085  -2.2459  -2.1408  -1.6626  -1.1107  -0.9968
    -0.9143  -0.8136   1.6958   1.7100   1.8742   1.9741   2.1952   2.2017
     2.2984   2.4367   2.6586   2.7751   2.7975   2.8111   2.8770   3.0406
     3.0573   3.1641   3.1671   3.2155   3.2837   3.3520   3.4011   3.6674
     3.8639   4.0303   4.1813   4.4414   4.5774   4.6060   4.9417   5.1440
     5.2744   5.3356   5.4308   5.8128   5.9296   5.9916   6.1848   6.2635
     6.3868   6.3908   6.4316   6.4909   6.5576   6.6018   6.7269   6.8826
     6.9655   7.0450   7.0921   7.1209   7.2263   7.2659   7.4423   7.5116
     7.6285   7.7575   7.9827   8.0416   8.1128   8.2116   8.2921   8.2964
     8.4204   8.6640   8.8414   8.9609   8.9943   9.0135   9.1586   9.1729
     9.2435   9.3897   9.4670   9.5137   9.6130   9.6710   9.8679  10.0091
    10.0525  10.1884  10.2245  10.2922  10.3080  10.3842  10.4910  10.5212
    10.6484  10.7403  10.7805  10.8030  10.9735  11.0985  11.1523  11.2636
    11.2835  11.3029  11.3981  11.4048  11.5448  11.5466  11.5940  11.6245
    11.6727  11.7980  11.8338  11.9538  12.0226  12.0905  12.2127  12.2807
    12.3879  12.4290  12.4478  12.4567  12.6152  12.6403  12.6440  12.7419
    12.8665  13.0099  13.1144  13.1643  13.2270  13.3147  13.3406  13.4924
    13.5925  13.6368  13.8118  13.8835  13.9445  14.0310  14.0790  14.1343
    14.2380  14.3065  14.4127  14.4345  14.6165  14.7557  14.8160  14.8944
    14.9201  15.0157  15.1737  15.2261  15.3041  15.3106  15.4634  15.4875
    15.5821  15.7169  15.8268  15.8584  15.9734  15.9916  16.0212  16.0686
    16.1452  16.1872  16.2157  16.2704  16.3510  16.4064  16.4514  16.5186
    16.6660  16.7001  16.7638  16.8488  16.9144  16.9326  17.0453  17.2717
    17.3329  17.3781  17.4151  17.4932  17.6018  17.6564  17.6990  17.7168
    17.8481  17.8511  17.9816  18.1813  18.2032  18.3954  18.4668  18.5557
    18.6399  18.6921  18.7352  18.7734  18.7862  18.9811  19.0470  19.1142
    19.1795  19.2240  19.3135  19.3230  19.3508  19.3982  19.4747  19.5023
    19.5191  19.5726  19.6800  19.7602  19.8525  19.9869  19.9967  20.0714
    20.1615  20.1956  20.2529  20.3450  20.3799  20.3994  20.4271  20.4902
    20.5035  20.5403  20.5451  20.5747  20.6236  20.6950  20.7213

          k = 0.0000 0.2118 0.0000 ( 32193 PWs)   bands (ev):

   -56.2931 -56.1940 -55.6013 -55.5878 -55.5476 -55.4985 -55.4630 -55.3936
   -33.1637 -32.5225 -32.3573 -32.2755 -32.2582 -32.2110 -32.1206 -32.0540
   -32.0439 -31.9848 -31.9840 -31.9242 -31.9137 -31.9136 -31.9070 -31.5694
   -31.4797 -31.4313 -31.2874 -31.2255 -31.1565 -31.1441 -31.1053 -31.0421
   -22.5334 -20.0926 -19.8060 -19.2867 -19.2586 -18.9143 -18.8246 -18.7456
   -18.7270 -18.6271 -18.5912 -18.5242 -17.8162 -17.7667 -17.6468 -17.6460
   -17.6169 -17.5249 -17.4481 -16.3743  -8.9407  -8.1348  -7.8944  -7.3401
    -7.3078  -7.2292  -6.7951  -6.6810  -6.4615  -6.4370  -6.3060  -6.2636
    -6.1609  -5.9935  -5.8474  -5.7547  -5.6467  -5.4171  -5.2590  -5.0680
    -4.8913  -4.8426  -4.8115  -4.8011  -4.6973  -4.5908  -4.4926  -4.4880
    -4.3822  -4.3029  -4.1916  -3.9676  -3.9272  -3.8799  -3.8042  -3.5860
    -3.5039  -3.4023  -3.3291  -3.2335  -3.1375  -2.9975  -2.9893  -2.9573
    -2.9389  -2.8843  -2.8491  -2.7863  -2.7678  -2.6806  -2.6069  -2.5594
    -2.4761  -2.4391  -2.3143  -2.2297  -2.1748  -1.7572  -1.1015  -1.0487
    -0.3744  -0.2938   1.3021   1.7047   1.8303   1.8698   2.0479   2.1231
     2.3711   2.7504   2.7836   2.8420   2.8749   2.9756   3.0140   3.0481
     3.1386   3.1784   3.2223   3.3312   3.3465   3.4190   3.4976   3.6213
     3.8775   4.0656   4.2257   4.3974   4.6022   4.7545   4.9974   5.1748
     5.2419   5.2964   5.3028   5.4069   5.5512   5.5876   5.6863   5.8853
     5.9375   6.1334   6.2511   6.2892   6.4496   6.4758   6.8795   7.0867
     7.1264   7.1641   7.2744   7.4116   7.4371   7.5385   7.5532   7.6874
     7.7462   7.9508   8.1840   8.2123   8.3107   8.3724   8.4370   8.4739
     8.6340   8.7412   8.8136   8.9312   9.0009   9.0296   9.2294   9.2859
     9.4063   9.4590   9.6351   9.6511   9.6962   9.7298   9.8087   9.8919
     9.9156   9.9690  10.0456  10.0965  10.2020  10.2662  10.3690  10.4391
    10.5257  10.5734  10.6538  10.8409  10.8824  10.9602  11.0720  11.1090
    11.2251  11.3657  11.3860  11.4153  11.5167  11.5546  11.6365  11.7224
    11.8480  11.9273  11.9613  12.1937  12.3445  12.3834  12.4683  12.5637
    12.5856  12.7169  12.7913  12.8378  12.8547  12.8969  12.9797  12.9951
    13.1197  13.1825  13.2130  13.2283  13.3243  13.3619  13.4129  13.4554
    13.5556  13.6127  13.7066  13.7918  13.8252  13.8700  13.9497  13.9694
    14.0660  14.1067  14.2311  14.3233  14.4395  14.5297  14.5812  14.7409
    14.7656  14.8181  14.8722  14.9319  15.0715  15.1132  15.1979  15.2781
    15.3300  15.3422  15.5025  15.5426  15.5917  15.6375  15.7352  15.8687
    16.0309  16.2014  16.2896  16.3229  16.4432  16.4491  16.5014  16.5288
    16.6358  16.7077  16.7559  16.8377  17.0006  17.0943  17.1458  17.1596
    17.3606  17.3921  17.4900  17.5334  17.5522  17.6194  17.7100  17.7614
    17.8072  17.8882  17.9664  18.0139  18.0349  18.0911  18.2411  18.2661
    18.3199  18.4010  18.4633  18.4841  18.6279  18.6940  18.7956  18.8628
    18.9082  18.9560  19.0110  19.0197  19.0661  19.2069  19.2293  19.3182
    19.3536  19.4480  19.4660  19.4974  19.5706  19.6227  19.7078  19.8143
    19.8624  19.9671  20.0165  20.0748  20.1720  20.2554  20.2905  20.3760
    20.3985  20.4700  20.5369  20.5496  20.6411  20.7092  20.7365

          k = 0.0000-0.4237 0.0000 ( 32162 PWs)   bands (ev):

   -56.2858 -56.1950 -55.5980 -55.5788 -55.5460 -55.4998 -55.4595 -55.3918
   -33.1601 -32.5204 -32.3530 -32.2834 -32.2582 -32.2099 -32.1206 -32.0665
   -32.0456 -31.9828 -31.9824 -31.9231 -31.9136 -31.8927 -31.8844 -31.5807
   -31.4789 -31.4501 -31.2876 -31.2279 -31.1597 -31.1427 -31.1067 -31.0420
   -22.5327 -20.0867 -19.8031 -19.2761 -19.2557 -18.9187 -18.9022 -18.8173
   -18.5910 -18.5608 -18.4037 -18.3656 -18.1851 -18.0562 -17.8076 -17.6113
   -17.4435 -17.4074 -17.2888 -16.3738  -8.9363  -8.1301  -7.8907  -7.3344
    -6.9927  -6.8666  -6.6519  -6.5873  -6.5635  -6.5143  -6.4005  -6.2697
    -6.2688  -6.2643  -5.8701  -5.7933  -5.7301  -5.3979  -5.2601  -5.2154
    -5.1496  -5.0836  -4.8107  -4.7124  -4.7055  -4.6389  -4.6376  -4.4916
    -4.2094  -4.1243  -4.0442  -3.9975  -3.8397  -3.7449  -3.6480  -3.6307
    -3.5836  -3.3794  -3.3298  -3.2650  -3.2321  -3.1546  -3.1001  -3.0323
    -2.9443  -2.9399  -2.8560  -2.8433  -2.7503  -2.6484  -2.6437  -2.5907
    -2.5037  -2.4364  -2.2742  -2.2097  -2.0849  -1.9308  -1.1116  -1.0936
    -0.0099   0.0586   1.0167   1.5305   1.7087   1.7342   2.0536   2.3906
     2.4883   2.6603   2.8655   2.9882   2.9994   3.0218   3.0794   3.1098
     3.1413   3.2809   3.3774   3.4037   3.4437   3.5872   3.6079   3.6522
     3.7618   4.0786   4.1861   4.3823   4.6977   4.7118   4.8059   4.8140
     5.0031   5.1598   5.2740   5.4880   5.5177   5.6011   5.6531   5.8268
     5.8585   5.9083   5.9940   6.0689   6.2710   6.5215   6.7289   6.9889
     7.0981   7.1564   7.2490   7.3103   7.5355   7.5710   7.6935   7.8836
     7.9623   8.0982   8.2146   8.2568   8.4040   8.4967   8.5078   8.6792
     8.9226   8.9428   8.9780   9.0224   9.0664   9.1311   9.2095   9.3087
     9.3796   9.4273   9.5350   9.6027   9.6526   9.6740   9.7501   9.8688
     9.9274  10.1037  10.1527  10.2358  10.3073  10.3730  10.4103  10.4759
    10.7269  10.7473  10.8285  10.8998  11.0510  11.0650  11.1421  11.1755
    11.2887  11.3269  11.5082  11.5662  11.6116  11.6368  11.6886  11.7721
    11.7902  11.8722  11.9423  12.0306  12.0835  12.1078  12.2389  12.3068
    12.3676  12.4207  12.4838  12.5357  12.6913  12.7701  12.8308  12.9716
    12.9962  13.1041  13.1510  13.1966  13.3001  13.3518  13.4077  13.6082
    13.7797  13.8329  13.9664  13.9769  14.0229  14.1395  14.2594  14.3024
    14.3204  14.4676  14.5293  14.5567  14.6886  14.7530  14.8691  14.8842
    15.0084  15.0154  15.0499  15.0696  15.0878  15.1169  15.2646  15.2943
    15.3441  15.4353  15.4747  15.5160  15.5584  15.5942  15.6344  15.6801
    15.7257  15.8602  15.8662  15.9247  15.9288  15.9925  16.1515  16.2114
    16.3480  16.4827  16.5007  16.5571  16.5906  16.7159  16.7613  16.8165
    16.9055  17.1513  17.1704  17.2015  17.2628  17.2985  17.3902  17.4038
    17.4205  17.4490  17.5578  17.7263  17.9450  18.0771  18.0915  18.1383
    18.2238  18.2925  18.3519  18.4192  18.4916  18.5752  18.6043  18.6594
    18.7850  18.8122  18.8301  18.8683  18.8907  18.9158  19.1103  19.2086
    19.2364  19.2922  19.4506  19.4594  19.5324  19.6050  19.6459  19.6520
    19.8036  19.8734  20.0122  20.0789  20.1131  20.2339  20.2742  20.3259
    20.5480  20.5950  20.6743  20.7620  20.8003  20.8614  20.8756

          k = 0.2500 0.0000 0.0000 ( 32181 PWs)   bands (ev):

   -56.2819 -56.2067 -55.5780 -55.5548 -55.5194 -55.4889 -55.4577 -55.3859
   -33.0312 -32.5017 -32.3473 -32.3023 -32.2809 -32.2801 -32.2056 -32.0441
   -31.9774 -31.9700 -31.9612 -31.9204 -31.8985 -31.8525 -31.8225 -31.5490
   -31.4523 -31.3879 -31.3356 -31.2957 -31.2534 -31.2434 -31.1817 -31.1674
   -22.5315 -20.0331 -19.7909 -19.1339 -19.0829 -18.8882 -18.7807 -18.7467
   -18.6217 -18.5570 -18.2315 -18.2154 -18.1325 -18.0677 -17.8646 -17.8314
   -17.6694 -17.6588 -17.5365 -16.3730  -8.7177  -8.1649  -7.9068  -7.3605
    -7.2714  -7.1827  -6.8169  -6.4909  -6.2319  -6.1062  -6.0219  -6.0162
    -5.9448  -5.7741  -5.7123  -5.6654  -5.4922  -5.4505  -5.3727  -5.3265
    -5.2190  -5.1757  -5.0686  -5.0356  -4.9498  -4.4825  -4.4083  -4.3456
    -4.2693  -4.2358  -4.1320  -4.1190  -3.8509  -3.7556  -3.6896  -3.5965
    -3.4897  -3.4641  -3.4053  -3.3808  -3.2552  -3.2188  -3.1220  -3.0909
    -3.0235  -2.9250  -2.8797  -2.8713  -2.7561  -2.6598  -2.6425  -2.5223
    -2.4981  -2.3803  -2.3775  -2.2210  -2.1394  -1.7346  -1.0181  -0.6022
    -0.3218  -0.2364   1.6829   1.7434   1.9442   1.9877   2.1529   2.1892
     2.2489   2.3143   2.3506   2.3699   2.6172   2.6400   2.7184   2.7820
     2.9146   2.9546   2.9621   3.1471   3.1914   3.2866   3.3117   3.7011
     3.9685   4.1415   4.2845   4.4632   4.7233   4.8074   4.8807   5.2765
     5.3855   5.4731   5.6819   5.7549   5.9310   6.0328   6.1106   6.1995
     6.2608   6.3229   6.3280   6.3746   6.4368   6.4468   6.5880   6.6394
     6.6663   6.8174   6.9539   7.0996   7.1999   7.2288   7.3826   7.4423
     7.4874   7.7786   7.8122   7.9575   8.0372   8.0911   8.2649   8.4166
     8.5270   8.5911   8.6322   8.8592   9.0356   9.1260   9.2021   9.2834
     9.3754   9.4209   9.4473   9.5289   9.5837   9.6326   9.7517   9.8029
     9.9302  10.0198  10.0792  10.1154  10.1317  10.1822  10.4353  10.4427
    10.5959  10.6694  10.7240  10.8374  10.9408  11.0295  11.0721  11.1089
    11.2417  11.3671  11.5115  11.5206  11.6015  11.7339  11.8794  11.8926
    12.0007  12.1325  12.2621  12.3388  12.4283  12.4644  12.6050  12.6495
    12.6712  12.7247  12.8892  12.9405  12.9860  13.0686  13.1760  13.4641
    13.5021  13.5403  13.6531  13.7003  13.7225  13.7995  13.8226  13.8842
    13.9490  13.9867  14.0225  14.0520  14.1537  14.2484  14.3146  14.4195
    14.4870  14.6633  14.7350  14.7674  14.8794  14.9214  14.9610  15.0560
    15.0927  15.1252  15.3163  15.4444  15.4698  15.5019  15.5990  15.6417
    15.7437  15.8223  15.8398  15.9005  16.0211  16.0451  16.1722  16.2562
    16.3127  16.3539  16.3846  16.4569  16.4756  16.5335  16.5541  16.6112
    16.6475  16.7274  16.8274  16.8665  16.9119  16.9612  17.0208  17.0538
    17.0692  17.0925  17.1483  17.3264  17.4359  17.4941  17.5339  17.6285
    17.7107  17.7258  17.7555  17.8839  17.9572  18.0446  18.1106  18.1309
    18.2204  18.2761  18.3771  18.4064  18.4785  18.5735  18.6018  18.6749
    18.7278  18.7478  18.7896  18.8666  18.9255  18.9822  19.0223  19.0799
    19.1268  19.2064  19.2527  19.2841  19.3159  19.3979  19.4731  19.4847
    19.5768  19.6059  19.6438  19.7159  19.7990  19.8558  19.8732  19.9002
    19.9641  20.0191  20.0586  20.0794  20.0918  20.2245  20.2590

          k = 0.2500 0.2118 0.0000 ( 32165 PWs)   bands (ev):

   -56.2762 -56.2065 -55.5748 -55.5487 -55.5161 -55.4881 -55.4550 -55.3838
   -33.0281 -32.5001 -32.3438 -32.3019 -32.2847 -32.2797 -32.2044 -32.0378
   -32.0031 -31.9687 -31.9601 -31.9199 -31.8687 -31.8483 -31.8130 -31.5590
   -31.4515 -31.4049 -31.3346 -31.2936 -31.2582 -31.2440 -31.1806 -31.1723
   -22.5308 -20.0284 -19.7878 -19.1256 -19.0794 -18.7562 -18.7111 -18.6467
   -18.6210 -18.6112 -18.5501 -18.5185 -17.8643 -17.8483 -17.8262 -17.7537
   -17.7274 -17.6697 -17.6320 -16.3725  -8.7135  -8.1603  -7.9032  -7.1789
    -7.0569  -6.9235  -6.7527  -6.5230  -6.4602  -6.2742  -6.2164  -6.0543
    -6.0127  -5.9824  -5.7720  -5.7629  -5.6752  -5.4198  -5.3357  -5.3161
    -5.2474  -5.0924  -4.9130  -4.8589  -4.6357  -4.4444  -4.3722  -4.3152
    -4.1901  -4.1136  -4.0049  -3.9583  -3.8788  -3.8298  -3.7751  -3.7333
    -3.6713  -3.6235  -3.5549  -3.5011  -3.3327  -3.2746  -3.2490  -3.2091
    -3.1276  -2.9560  -2.8969  -2.8613  -2.7958  -2.7519  -2.6925  -2.5121
    -2.4773  -2.4089  -2.2303  -2.1909  -2.1587  -1.7924  -1.0426  -0.5880
     0.1139   0.1964   1.3893   1.8298   1.8856   1.9629   2.0212   2.1037
     2.1620   2.3657   2.5163   2.5429   2.7199   2.7845   2.8144   2.8768
     2.9124   2.9743   3.1177   3.1666   3.3439   3.3938   3.4428   3.6296
     3.9151   4.1954   4.3624   4.4433   4.7908   4.8748   4.9989   5.1942
     5.2658   5.3088   5.4704   5.5537   5.6553   5.7326   5.8338   5.8906
     6.0009   6.0594   6.1731   6.2298   6.3769   6.4377   6.5593   6.7296
     6.7538   6.8507   6.9159   7.0200   7.1570   7.3014   7.4150   7.4798
     7.5587   7.8193   7.8744   8.0011   8.0981   8.1390   8.2854   8.3544
     8.5495   8.6880   8.7005   8.8297   8.9259   9.0217   9.0852   9.2791
     9.3850   9.4216   9.4846   9.5703   9.6767   9.8712   9.9202   9.9924
    10.0364  10.1916  10.2452  10.3128  10.4227  10.4821  10.6223  10.7373
    10.8204  10.9884  11.0733  11.1302  11.1765  11.2016  11.3588  11.4130
    11.4764  11.6012  11.6586  11.6778  11.7039  11.8552  11.8970  12.0243
    12.1100  12.1968  12.2693  12.3155  12.4397  12.5616  12.6561  12.7246
    12.7615  12.8000  12.8701  12.9540  12.9644  13.0423  13.1039  13.1932
    13.2444  13.3729  13.4359  13.4482  13.4953  13.6159  13.6283  13.7325
    13.7825  13.8812  13.9253  14.0259  14.0671  14.1452  14.1599  14.2471
    14.3452  14.3888  14.4255  14.4863  14.6406  14.7511  14.8793  14.8868
    14.9979  15.1547  15.1762  15.2400  15.3144  15.3365  15.4018  15.4359
    15.5078  15.5831  15.6142  15.7116  15.7600  15.8066  15.8510  15.9209
    15.9904  16.0872  16.1463  16.1846  16.2647  16.3496  16.3842  16.4701
    16.5725  16.6708  16.7051  16.7705  16.8290  16.8913  16.9576  17.0209
    17.0600  17.1478  17.1944  17.2227  17.2936  17.3671  17.4429  17.5089
    17.5520  17.6134  17.7085  17.8237  17.8783  17.9287  18.0206  18.0603
    18.1292  18.2440  18.2917  18.3719  18.4032  18.5317  18.5613  18.6122
    18.6641  18.7067  18.8047  18.8867  18.9507  19.0149  19.0920  19.1078
    19.1598  19.2690  19.2932  19.3472  19.4563  19.5007  19.5323  19.6663
    19.7103  19.7582  19.7651  19.8431  19.8825  19.9549  19.9898  20.0455
    20.0659  20.1368  20.2073  20.2594  20.2793  20.3507  20.3920

          k = 0.2500-0.4237 0.0000 ( 32188 PWs)   bands (ev):

   -56.2704 -56.2063 -55.5717 -55.5423 -55.5129 -55.4874 -55.4522 -55.3816
   -33.0249 -32.4984 -32.3402 -32.3016 -32.2888 -32.2790 -32.2032 -32.0312
   -32.0199 -31.9674 -31.9594 -31.9195 -31.8539 -31.8376 -31.8035 -31.5691
   -31.4508 -31.4218 -31.3337 -31.2915 -31.2632 -31.2448 -31.1792 -31.1776
   -22.5301 -20.0237 -19.7848 -19.1185 -19.0758 -18.8124 -18.7388 -18.7038
   -18.6191 -18.5700 -18.2949 -18.2598 -18.1867 -18.1612 -17.8468 -17.8290
   -17.6603 -17.5521 -17.4325 -16.3720  -8.7092  -8.1558  -7.8994  -7.1727
    -6.8921  -6.6270  -6.6115  -6.5039  -6.4425  -6.2435  -6.1673  -6.0953
    -5.9674  -5.9471  -5.9334  -5.9196  -5.7543  -5.7316  -5.6658  -5.3751
    -5.3584  -5.1203  -4.7721  -4.5644  -4.4289  -4.4144  -4.3511  -4.2223
    -4.1303  -4.0943  -4.0674  -4.0596  -3.9857  -3.8454  -3.8122  -3.7489
    -3.6890  -3.6696  -3.6398  -3.5326  -3.4306  -3.3545  -3.3002  -3.2639
    -3.2417  -3.0851  -3.0182  -2.8276  -2.7542  -2.7494  -2.6385  -2.4859
    -2.4422  -2.3888  -2.2203  -2.1417  -2.0314  -1.9198  -1.0713  -0.5865
     0.4077   0.5086   1.1797   1.6291   1.8765   1.9466   2.0192   2.0767
     2.2254   2.4715   2.6305   2.7529   2.7942   2.8189   2.8894   2.9215
     3.1147   3.1312   3.1752   3.3211   3.3590   3.5910   3.6619   3.6708
     3.7099   4.1751   4.4172   4.4969   4.6580   4.7170   4.8909   4.9692
     4.9825   5.2357   5.2790   5.3199   5.4706   5.6183   5.6479   5.7906
     5.8426   5.9443   6.2643   6.3115   6.3927   6.5031   6.5105   6.5664
     6.7931   6.8236   7.0502   7.1250   7.1365   7.1978   7.4076   7.4097
     7.5367   7.6219   7.7443   7.7967   7.8209   7.9925   8.3181   8.5106
     8.5839   8.6034   8.6923   8.8735   8.9408   9.0357   9.2616   9.3130
     9.3609   9.4381   9.4635   9.8535   9.9943  10.0295  10.1429  10.3635
    10.4357  10.5019  10.5453  10.6206  10.7152  10.9056  11.0083  11.0942
    11.1300  11.1541  11.3033  11.4028  11.4264  11.4403  11.5704  11.6350
    11.6574  11.7212  11.7795  11.8102  11.8682  11.9455  11.9726  12.0358
    12.0755  12.0974  12.2019  12.2546  12.3903  12.4476  12.4830  12.5143
    12.6151  12.7274  12.8544  12.9025  12.9252  13.0938  13.1931  13.2268
    13.2681  13.2968  13.3373  13.3844  13.4298  13.4510  13.4780  13.5564
    13.6006  13.6190  13.6652  13.6874  13.8057  13.8797  13.9990  14.0415
    14.1590  14.1899  14.2774  14.3273  14.3494  14.4062  14.4670  14.5662
    14.7149  14.7987  14.8508  14.8754  14.9114  15.1661  15.2215  15.2800
    15.3822  15.4685  15.5206  15.5591  15.5915  15.6336  15.6996  15.7908
    15.8708  15.9677  16.1113  16.2252  16.3152  16.4138  16.5048  16.5709
    16.6766  16.7371  16.8433  16.9045  16.9429  17.0314  17.0640  17.1601
    17.2086  17.2305  17.3201  17.3934  17.4109  17.4235  17.4967  17.5226
    17.5720  17.6174  17.6356  17.7378  17.7868  17.8075  17.8553  17.8972
    18.0037  18.0140  18.0830  18.1538  18.1898  18.2731  18.2955  18.4026
    18.4667  18.5183  18.5931  18.6354  18.7490  18.7812  18.9050  18.9336
    18.9917  19.0543  19.1462  19.2553  19.3063  19.3395  19.4219  19.4803
    19.5301  19.5848  19.6525  19.6955  19.7915  19.8965  19.9421  20.0474
    20.0812  20.1503  20.2332  20.2825  20.3709  20.3845  20.4313

          k =-0.5000 0.0000 0.0000 ( 32166 PWs)   bands (ev):

   -56.2428 -56.2410 -55.5510 -55.4962 -55.4952 -55.4760 -55.4646 -55.3772
   -32.6938 -32.6864 -32.3920 -32.3870 -32.3150 -32.3121 -32.1995 -32.0075
   -32.0065 -31.9561 -31.9433 -31.9390 -31.6481 -31.6330 -31.6302 -31.5908
   -31.5819 -31.5389 -31.4043 -31.3751 -31.3743 -31.3297 -31.3170 -31.1824
   -22.5289 -19.9661 -19.7750 -18.9475 -18.9334 -18.6445 -18.5713 -18.4834
   -18.4246 -18.4227 -18.3980 -18.3953 -18.1895 -18.1869 -17.9658 -17.9253
   -17.8537 -17.8324 -17.8318 -16.3711  -8.4387  -8.2231  -7.9184  -6.9603
    -6.9589  -6.6135  -6.5981  -6.4536  -6.4062  -6.3642  -6.2684  -6.0070
    -5.9811  -5.8474  -5.7694  -5.6402  -5.4682  -5.4105  -5.2448  -5.0576
    -5.0389  -4.9006  -4.8121  -4.7592  -4.7118  -4.5926  -4.5771  -4.4884
    -4.4541  -4.4066  -4.3337  -4.1901  -4.1435  -4.0601  -3.9238  -3.7626
    -3.7596  -3.6758  -3.6600  -3.4679  -3.2489  -3.2076  -3.1638  -3.1498
    -2.9658  -2.9165  -2.8951  -2.8504  -2.8497  -2.7969  -2.7593  -2.4703
    -2.4397  -2.3600  -2.2678  -2.1134  -2.0703  -1.8982  -1.0332   0.3490
     0.6674   0.7121   0.9672   0.9701   1.0329   1.6409   1.7396   2.1678
     2.1827   2.2060   2.2630   2.3828   2.5134   2.6141   2.6279   2.7885
     2.7888   2.8095   2.8224   3.0750   3.3094   3.5089   3.7374   3.8630
     3.8827   3.9777   4.2781   4.6062   4.9402   5.0033   5.0799   5.2737
     5.4214   5.4379   5.5897   5.7581   5.8015   5.8804   5.9270   6.0441
     6.0454   6.1149   6.1484   6.2479   6.2625   6.2957   6.4547   6.4940
     6.6814   7.2394   7.2523   7.3018   7.3554   7.3667   7.4659   7.5014
     7.5906   7.6947   7.8555   7.9603   8.0126   8.0274   8.1161   8.1633
     8.2554   8.2701   8.5853   8.6274   8.6427   8.7014   8.7530   8.7725
     8.9338   9.0318   9.2079   9.3416   9.4236   9.5322   9.8608   9.9889
    10.0137  10.0821  10.1071  10.1555  10.2080  10.3374  10.3847  10.4372
    10.6975  10.7867  11.0999  11.1698  11.1924  11.2224  11.2674  11.4428
    11.4463  11.5099  11.5171  11.6463  11.7202  11.8753  12.1603  12.3544
    12.4295  12.5484  12.6100  12.6303  12.7709  12.8973  12.9552  13.0550
    13.1404  13.1560  13.3094  13.3194  13.4094  13.4745  13.5055  13.5062
    13.6919  13.7311  13.8972  13.9756  14.0730  14.1163  14.2127  14.2172
    14.2694  14.3811  14.4435  14.4526  14.5411  14.6708  14.7250  14.7449
    14.7828  14.8496  14.8927  14.9042  14.9679  14.9882  15.1726  15.2032
    15.5139  15.5334  15.6249  15.6979  15.8087  15.8339  15.9391  15.9772
    15.9862  16.0187  16.0993  16.1895  16.2235  16.2574  16.3531  16.3631
    16.4493  16.4607  16.4996  16.5153  16.5477  16.6567  16.6870  16.7047
    16.7607  16.7776  16.8644  16.8807  16.9047  16.9387  16.9688  17.0133
    17.0866  17.1226  17.1797  17.1990  17.2410  17.2541  17.2720  17.2809
    17.3448  17.3930  17.4863  17.5147  17.6042  17.6294  17.6453  17.6586
    17.6765  17.7079  17.7278  17.7596  17.8200  17.8350  18.0361  18.0570
    18.1832  18.2005  18.2250  18.3039  18.3254  18.4751  18.5694  18.6077
    18.6562  18.6871  18.7352  18.7575  18.8015  18.8396  18.8706  18.8861
    18.9432  19.1256  19.1803  19.2467  19.3264  19.3650  19.4054  19.4533
    19.5831  19.6088  19.7244  19.7670  19.9100  19.9392  19.9933

          k =-0.5000 0.2118 0.0000 ( 32144 PWs)   bands (ev):

   -56.2396 -56.2386 -55.5482 -55.4934 -55.4924 -55.4722 -55.4605 -55.3745
   -32.6922 -32.6839 -32.3909 -32.3860 -32.3128 -32.3121 -32.1984 -32.0069
   -32.0060 -31.9556 -31.9425 -31.9381 -31.6442 -31.6231 -31.6208 -31.5931
   -31.5845 -31.5477 -31.4006 -31.3747 -31.3739 -31.3393 -31.3270 -31.1895
   -22.5282 -19.9627 -19.7715 -18.9430 -18.9291 -18.6303 -18.5548 -18.5246
   -18.4242 -18.4202 -18.4049 -18.4025 -18.1863 -18.1813 -17.9329 -17.9178
   -17.8463 -17.8118 -17.8107 -16.3706  -8.4344  -8.2181  -7.9147  -6.9393
    -6.9372  -6.5643  -6.5296  -6.4225  -6.3479  -6.3233  -6.2649  -6.0170
    -5.9983  -5.8452  -5.7428  -5.6163  -5.4123  -5.3532  -5.2775  -5.0762
    -5.0575  -4.9279  -4.8067  -4.7383  -4.7195  -4.6835  -4.6717  -4.5924
    -4.5456  -4.4901  -4.4468  -4.1012  -4.0867  -4.0215  -3.9875  -3.7492
    -3.7077  -3.5847  -3.5795  -3.4851  -3.4228  -3.3879  -3.2780  -3.2449
    -3.1939  -2.9760  -2.9523  -2.8708  -2.8507  -2.7736  -2.6395  -2.4757
    -2.4280  -2.3244  -2.2571  -2.1344  -2.0264  -1.9142  -1.0322   0.4012
     0.7409   0.9907   1.1837   1.1925   1.2748   1.6645   1.7347   2.0799
     2.1202   2.2442   2.2635   2.3769   2.4000   2.6238   2.6508   2.7420
     2.8050   3.0430   3.0914   3.1503   3.3438   3.4986   3.6895   3.8857
     3.9724   3.9998   4.2455   4.7138   5.1164   5.1430   5.1675   5.2402
     5.2576   5.3394   5.3639   5.4153   5.5798   5.7022   5.7261   5.8738
     6.0020   6.0679   6.1934   6.2021   6.2439   6.4716   6.5067   6.5690
     6.6565   6.6728   6.7420   6.7817   6.9443   7.0274   7.0774   7.4015
     7.4772   7.5477   7.5722   7.6766   7.7950   7.8950   8.1002   8.2116
     8.5477   8.5553   8.7325   8.8581   8.8825   8.9595   9.0000   9.1246
     9.3407   9.4167   9.6032   9.6620   9.8074   9.8582  10.0684  10.1415
    10.1508  10.2311  10.2545  10.3451  10.3695  10.4579  10.6496  10.7044
    10.8624  10.9684  11.0537  11.1507  11.3147  11.4678  11.5683  11.6775
    11.8201  11.8306  11.8871  11.9114  11.9635  12.0512  12.1770  12.3659
    12.4522  12.5362  12.7228  12.7925  12.8556  12.9367  13.0912  13.1628
    13.2244  13.3753  13.4247  13.4906  13.5852  13.5908  13.6821  13.6936
    13.7897  13.8145  13.8671  13.8958  13.9933  14.0061  14.0393  14.0932
    14.1259  14.2284  14.2619  14.2730  14.3578  14.3963  14.4267  14.4601
    14.5081  14.5731  14.6027  14.6367  14.7393  14.7597  14.8928  14.9495
    15.0225  15.0367  15.0812  15.1279  15.1664  15.1753  15.2443  15.2625
    15.2961  15.3328  15.4793  15.4936  15.6341  15.6496  15.7261  15.7664
    15.8193  15.8916  15.9553  16.0111  16.0948  16.1737  16.1972  16.2125
    16.3663  16.3973  16.4625  16.4731  16.5629  16.6332  16.7727  16.8410
    16.9469  17.0231  17.0787  17.1410  17.2232  17.2499  17.3184  17.4059
    17.4777  17.5378  17.5610  17.6187  17.6947  17.7135  17.7921  17.8535
    17.9360  18.0604  18.0942  18.1624  18.2043  18.2418  18.3060  18.3284
    18.3554  18.5097  18.5240  18.6140  18.6410  18.6644  18.7696  18.8487
    18.9235  18.9480  18.9909  19.0724  19.2438  19.2642  19.3450  19.4033
    19.4243  19.5117  19.5651  19.6374  19.7097  19.7818  19.8766  19.9238
    20.0631  20.0736  20.1233  20.2029  20.2619  20.3672  20.4301

          k =-0.5000-0.4237 0.0000 ( 32256 PWs)   bands (ev):

   -56.2364 -56.2363 -55.5454 -55.4907 -55.4897 -55.4683 -55.4564 -55.3718
   -32.6907 -32.6813 -32.3898 -32.3851 -32.3121 -32.3107 -32.1974 -32.0063
   -32.0055 -31.9551 -31.9419 -31.9373 -31.6401 -31.6111 -31.6088 -31.5974
   -31.5890 -31.5561 -31.3974 -31.3743 -31.3736 -31.3491 -31.3375 -31.1967
   -22.5276 -19.9593 -19.7680 -18.9387 -18.9249 -18.6018 -18.5755 -18.5383
   -18.4278 -18.4185 -18.4118 -18.4048 -18.1826 -18.1747 -17.9406 -17.8738
   -17.8387 -17.7920 -17.7905 -16.3702  -8.4301  -8.2132  -7.9111  -6.9204
    -6.9158  -6.5223  -6.4416  -6.3686  -6.2888  -6.2503  -6.2469  -6.0334
    -6.0222  -5.8518  -5.7521  -5.6095  -5.3478  -5.3379  -5.3002  -5.0694
    -5.0458  -4.9890  -4.9612  -4.8261  -4.7803  -4.7624  -4.6817  -4.6279
    -4.5408  -4.4403  -4.4269  -4.0822  -4.0143  -3.9856  -3.7952  -3.7777
    -3.7605  -3.6602  -3.6267  -3.6034  -3.5762  -3.5403  -3.4849  -3.4125
    -3.3336  -2.9403  -2.8907  -2.8807  -2.8545  -2.6685  -2.5805  -2.4553
    -2.4287  -2.3837  -2.2249  -2.0613  -1.9752  -1.9618  -1.0324   0.4183
     0.7546   1.1739   1.3503   1.3593   1.4025   1.7123   1.7324   1.9880
     2.0245   2.3376   2.4800   2.5019   2.5688   2.6162   2.6417   2.8951
     2.9235   3.1050   3.2700   3.3129   3.3330   3.6115   3.6300   3.7277
     4.0951   4.1567   4.2294   4.6744   4.7877   4.8150   4.8158   4.8711
     5.1684   5.1722   5.5826   5.6516   5.6629   5.6799   5.7195   5.7940
     5.9107   5.9645   6.0126   6.0756   6.1220   6.2450   6.2942   6.5191
     6.5509   6.5826   6.7383   6.7741   6.7800   6.9818   7.1140   7.1770
     7.1904   7.2269   7.4083   7.4925   7.6778   8.0938   8.1221   8.2988
     8.3051   8.4287   8.5699   8.6466   9.2412   9.3435   9.3514   9.4380
     9.4980   9.5775   9.6554   9.7175   9.7749   9.8045  10.0227  10.0594
    10.5670  10.7474  10.8982  11.0140  11.0317  11.0779  11.1179  11.2097
    11.3220  11.3985  11.6721  11.6827  11.7468  11.7930  11.8585  11.8693
    11.9568  11.9892  12.0834  12.2842  12.3194  12.3358  12.4379  12.4698
    12.4903  12.5710  12.6169  12.7164  12.8048  12.8061  12.8401  12.9112
    13.0064  13.0501  13.1908  13.1932  13.2121  13.2801  13.3252  13.4362
    13.5002  13.6232  13.6699  13.7019  13.7440  13.7532  13.8124  13.9137
    13.9299  13.9370  14.0019  14.2283  14.2446  14.2647  14.2857  14.2970
    14.3419  14.3558  14.4468  14.4781  14.5541  14.5744  14.5972  14.6345
    14.6665  14.6708  14.7353  14.7920  14.8185  14.8370  14.9704  15.0237
    15.0538  15.0697  15.1817  15.2547  15.3397  15.4035  15.4323  15.5340
    15.5502  15.6369  15.7064  15.7444  15.8043  15.8826  15.9068  15.9730
    16.0385  16.0949  16.1187  16.1624  16.4516  16.5125  16.5699  16.6442
    16.7094  16.8300  17.0981  17.1398  17.1733  17.2013  17.3607  17.3826
    17.4184  17.4498  17.6106  17.6325  17.6761  17.7940  17.7976  17.8300
    17.9739  17.9894  18.0776  18.1610  18.2506  18.3263  18.5262  18.5562
    18.5700  18.7218  18.7526  18.8233  18.8620  18.9137  19.0223  19.0481
    19.1072  19.2709  19.4075  19.5138  19.6010  19.6365  19.7586  19.7821
    19.7929  19.8662  19.9599  20.1579  20.2005  20.2168  20.2576  20.2978
    20.3186  20.3392  20.3862  20.4285  20.4510  20.4960  20.5968

          k =-0.2500 0.2118 0.0000 ( 32165 PWs)   bands (ev):

   -56.2762 -56.2065 -55.5748 -55.5487 -55.5161 -55.4881 -55.4550 -55.3838
   -33.0281 -32.5001 -32.3438 -32.3019 -32.2847 -32.2797 -32.2044 -32.0378
   -32.0031 -31.9687 -31.9601 -31.9199 -31.8687 -31.8483 -31.8130 -31.5590
   -31.4515 -31.4049 -31.3346 -31.2936 -31.2582 -31.2440 -31.1806 -31.1723
   -22.5308 -20.0284 -19.7878 -19.1256 -19.0794 -18.7562 -18.7111 -18.6467
   -18.6210 -18.6112 -18.5502 -18.5184 -17.8644 -17.8482 -17.8262 -17.7537
   -17.7274 -17.6697 -17.6320 -16.3725  -8.7135  -8.1603  -7.9032  -7.1789
    -7.0568  -6.9236  -6.7529  -6.5232  -6.4595  -6.2740  -6.2170  -6.0537
    -6.0128  -5.9830  -5.7722  -5.7627  -5.6745  -5.4199  -5.3339  -5.3183
    -5.2486  -5.0925  -4.9121  -4.8596  -4.6358  -4.4441  -4.3675  -4.3106
    -4.1930  -4.1153  -4.0053  -3.9592  -3.8896  -3.8315  -3.7732  -3.7286
    -3.6710  -3.6219  -3.5516  -3.5004  -3.3383  -3.2920  -3.2359  -3.2002
    -3.1268  -2.9546  -2.8979  -2.8639  -2.7968  -2.7541  -2.6917  -2.5057
    -2.4766  -2.4106  -2.2339  -2.1935  -2.1550  -1.7930  -1.0425  -0.5880
     0.1139   0.1964   1.3893   1.8293   1.8857   1.9628   2.0217   2.1076
     2.1582   2.3660   2.5178   2.5404   2.7199   2.7845   2.8140   2.8804
     2.9113   2.9722   3.1177   3.1669   3.3446   3.3938   3.4429   3.6295
     3.9143   4.1962   4.3621   4.4435   4.7904   4.8755   4.9980   5.1940
     5.2665   5.3088   5.4703   5.5527   5.6564   5.7338   5.8326   5.8909
     6.0015   6.0584   6.1722   6.2296   6.3753   6.4393   6.5597   6.7323
     6.7558   6.8465   6.9163   7.0193   7.1566   7.3013   7.4150   7.4812
     7.5597   7.8183   7.8715   8.0016   8.0961   8.1383   8.2915   8.3535
     8.5552   8.6664   8.7118   8.8332   8.9247   9.0292   9.0790   9.2805
     9.3822   9.4272   9.4846   9.5694   9.6829   9.8643   9.9211   9.9697
    10.0832  10.1409  10.2457  10.3258  10.4430  10.4740  10.6217  10.7373
    10.8220  10.9910  11.0674  11.1276  11.1738  11.2084  11.3397  11.4182
    11.4862  11.6102  11.6591  11.6766  11.6997  11.8439  11.9137  12.0120
    12.1113  12.1945  12.2746  12.3156  12.4484  12.5542  12.6536  12.7154
    12.7723  12.8064  12.8771  12.9427  12.9565  13.0419  13.0989  13.1923
    13.2662  13.3717  13.4245  13.4432  13.4984  13.6148  13.6531  13.7211
    13.7842  13.8804  13.9300  14.0289  14.0548  14.1420  14.1559  14.2519
    14.3174  14.3950  14.4442  14.4847  14.6537  14.7678  14.8617  14.8962
    14.9821  15.1508  15.1736  15.2376  15.3225  15.3377  15.4058  15.4320
    15.5020  15.5823  15.6056  15.7168  15.7606  15.7901  15.8754  15.9211
    15.9988  16.0825  16.1436  16.1961  16.2776  16.3440  16.3826  16.4580
    16.5692  16.6706  16.7000  16.7752  16.8124  16.8827  16.9384  17.0300
    17.0734  17.1380  17.1928  17.2545  17.3117  17.3644  17.4484  17.4800
    17.5588  17.6139  17.6947  17.8401  17.8790  17.9307  17.9935  18.0690
    18.1450  18.2274  18.3104  18.3575  18.4189  18.5211  18.5571  18.5895
    18.6867  18.7320  18.8021  18.8867  18.9393  18.9930  19.0769  19.1141
    19.1746  19.2717  19.3052  19.3585  19.4571  19.4946  19.5291  19.6445
    19.7304  19.7612  19.7751  19.8357  19.8892  19.9340  19.9743  20.0320
    20.0695  20.1541  20.2037  20.2513  20.2840  20.3540  20.4042

     the Fermi energy is     1.2116 ev

!    total energy              =   -1591.50030099 Ry
     Harris-Foulkes estimate   =   -1591.50030118 Ry
     estimated scf accuracy    <       0.00000042 Ry

     The total energy is the sum of the following terms:

     one-electron contribution =  -19411.02703234 Ry
     hartree contribution      =    9739.32869969 Ry
     xc contribution           =    -294.83508691 Ry
     ewald contribution        =    8370.97126204 Ry
     Hubbard energy            =       4.06225752 Ry
     smearing contrib. (-TS)   =      -0.00040099 Ry

     convergence has been achieved in  28 iterations

     Forces acting on atoms (Ry/au):


     negative rho (up, down):  0.341E-02 0.000E+00
     atom    1 type  1   force =     0.00461105   -0.00029775   -0.00716725
     atom    2 type  1   force =    -0.00016021    0.00057011   -0.01199748
     atom    3 type  2   force =     0.01741988   -0.00002836   -0.01061032
     atom    4 type  2   force =    -0.00274992    0.00007771   -0.00519192
     atom    5 type  1   force =    -0.00237163   -0.01450282    0.00142364
     atom    6 type  1   force =    -0.00215738    0.01439589    0.00143642
     atom    7 type  1   force =    -0.00010897    0.00002813    0.00791050
     atom    8 type  1   force =     0.00124521    0.00091678    0.01708913
     atom    9 type  2   force =     0.00238354   -0.00037322   -0.01206305
     atom   10 type  2   force =    -0.00003386    0.00018078   -0.01038023
     atom   11 type  1   force =    -0.00001541    0.01921036    0.00829058
     atom   12 type  1   force =     0.00210768   -0.01575534    0.00788835
     atom   13 type  1   force =     0.00022504   -0.00140974    0.00035850
     atom   14 type  1   force =     0.00395995   -0.00010066   -0.00547185
     atom   15 type  1   force =    -0.00008887    0.00028175   -0.01964103
     atom   16 type  2   force =    -0.01692847   -0.00006463   -0.01126977
     atom   17 type  2   force =    -0.00373200    0.00002320   -0.01156584
     atom   18 type  1   force =     0.00313100   -0.01436411    0.00145269
     atom   19 type  1   force =     0.00282481    0.01427268    0.00146387
     atom   20 type  1   force =    -0.00017852   -0.00422202    0.04124958
     atom   21 type  1   force =     0.00133078    0.00068608    0.02269188
     atom   22 type  2   force =    -0.00243897   -0.00037491   -0.01198422
     atom   23 type  2   force =     0.00009351    0.00001888   -0.03414195
     atom   24 type  1   force =     0.00000435    0.01927151    0.00824373
     atom   25 type  1   force =    -0.00211460   -0.01581740    0.00784737
     atom   26 type  1   force =     0.00026272   -0.00426512   -0.00256990
     atom   27 type  3   force =     0.00003587   -0.00010747    0.00621248
     atom   28 type  3   force =     0.00010288   -0.00033262   -0.00057051
     atom   29 type  3   force =    -0.00329401    0.00006075    0.00333902
     atom   30 type  3   force =    -0.00336299    0.00003589    0.00334952
     atom   31 type  1   force =    -0.00000184   -0.00593805    0.02353124
     atom   32 type  1   force =     0.00000104    0.00731666   -0.00886406
     atom   33 type  3   force =    -0.00000167    0.00060706   -0.00028916

     Total force =     0.078903     Total SCF correction =     0.000852


     entering subroutine stress ...


     negative rho (up, down):  0.341E-02 0.000E+00
          total   stress  (Ry/bohr**3)                   (kbar)     P=    1.36
   0.00000402  -0.00000003   0.00000155          0.59     -0.00      0.23
  -0.00000003   0.00002314   0.00000282         -0.00      3.40      0.41
   0.00000155   0.00000282   0.00000057          0.23      0.41      0.08


     BFGS Geometry Optimization

     number of scf cycles    =   1
     number of bfgs steps    =   0

     energy   new            =   -1591.5003009890 Ry

     new trust radius        =       0.0412495832 bohr
     new conv_thr            =       0.0000010000 Ry


ATOMIC_POSITIONS (crystal)
O0       0.000000000   0.000000000   0.371959456    0   0   1
O0       0.000000000   0.500000000   0.388574739    0   0   1
Nb1      0.250000000   0.500000000   0.444191941    0   0   1
Nb1      0.000000000   0.000000000   0.444658191    0   0   1
O0       0.250000000   0.790000000   0.447177916    0   0   1
O0       0.250000000   0.210000000   0.447148167    0   0   1
O0       0.000000000   0.500000000   0.500105118    0   0   1
O0       0.000000000   0.000000000   0.523605104    0   0   1
Nb1      0.250000000   0.000000000   0.577113454    0   0   1
Nb1      0.000000000   0.500000000   0.569216452    0   0   1
O0       0.250000000   0.710000000   0.575622571    0   0   1
O0       0.250000000   0.290000000   0.576114684    0   0   1
O0       0.000000000   0.000000000   0.621797030    0   0   1
O0       0.500000000   0.000000000   0.372262702    0   0   1
O0       0.500000000   0.500000000   0.389854856    0   0   1
Nb1      0.750000000   0.500000000   0.444219009    0   0   1
Nb1      0.500000000   0.000000000   0.445053204    0   0   1
O0       0.750000000   0.790000000   0.447168486    0   0   1
O0       0.750000000   0.210000000   0.447148705    0   0   1
O0       0.500000000   0.500000000   0.499598870    0   0   1
O0       0.500000000   0.000000000   0.523544969    0   0   1
Nb1      0.750000000   0.000000000   0.577114999    0   0   1
Nb1      0.500000000   0.500000000   0.575600505    0   0   1
O0       0.750000000   0.710000000   0.575611653    0   0   1
O0       0.750000000   0.290000000   0.576103880    0   0   1
O0       0.500000000   0.000000000   0.621479606    0   0   1
H2      -0.000516794   0.504901859   0.352671822
H2       0.499449196   0.501154805   0.354018813
H2       0.150475555   0.000704602   0.356395475
H2       0.650089389   0.000512719   0.356525681
O0       0.499999835   0.508880217   0.649521428
O0       0.500000093   0.348244207   0.683286183
H2       0.499999851   0.420005982   0.714794330


     Check: negative starting charge=   -0.003307
     NEW-OLD atomic charge density approx. for the potential

     Check: negative/imaginary core charge=   -0.000003    0.000000
     Check: negative starting charge=   -0.003305

     negative rho (up, down):  0.345E-02 0.000E+00
 Atomic wfc used for LDA+U Projector are NOT orthogonalized

     total cpu time spent up to now is     7036.2 secs

     per-process dynamical memory:   443.6 Mb

     Self-consistent Calculation

     iteration #  1     ecut=    40.00 Ry     beta=0.70
     Davidson diagonalization with overlap
     ethr =  1.00E-06,  avg # of iterations =  4.8
 --- enter write_ns ---
 LDA+U parameters:
U( 2)     =  6.00000000
alpha( 2) =  0.00000000
atom    3   Tr[ns(na)] =   5.11631
    eigenvalues: 
  0.325  0.340  0.524  0.598  0.772
    eigenvectors:
  0.000  0.000  0.003  0.325  0.672
  0.000  0.000  0.997  0.002  0.001
  0.765  0.235  0.000  0.000  0.000
  0.000  0.000  0.001  0.672  0.327
  0.235  0.765  0.000  0.000  0.000
    occupations:
  0.714 -0.008  0.002 -0.082 -0.003
 -0.008  0.524 -0.001  0.001  0.001
  0.002 -0.001  0.329 -0.001 -0.006
 -0.082  0.001 -0.001  0.654  0.002
 -0.003  0.001 -0.006  0.002  0.337
atom    4   Tr[ns(na)] =   5.17326
    eigenvalues: 
  0.339  0.369  0.557  0.594  0.728
    eigenvectors:
  0.003  0.000  0.000  0.997  0.000
  0.996  0.000  0.000  0.003  0.001
  0.000  1.000  0.000  0.000  0.000
  0.001  0.000  0.000  0.000  0.999
  0.000  0.000  1.000  0.000  0.000
    occupations:
  0.593  0.014  0.000 -0.001 -0.000
  0.014  0.340 -0.000 -0.010  0.000
  0.000 -0.000  0.369 -0.000  0.001
 -0.001 -0.010 -0.000  0.728  0.000
 -0.000  0.000  0.001  0.000  0.557
atom    9   Tr[ns(na)] =   5.25345
    eigenvalues: 
  0.448  0.450  0.470  0.629  0.631
    eigenvectors:
  0.824  0.047  0.000  0.013  0.116
  0.000  0.000  0.000  0.902  0.098
  0.051  0.930  0.019  0.000  0.000
  0.122  0.006  0.000  0.085  0.786
  0.002  0.017  0.981  0.000  0.000
    occupations:
  0.471 -0.000 -0.000  0.061  0.000
 -0.000  0.629  0.000 -0.001  0.000
 -0.000  0.000  0.450  0.001  0.003
  0.061 -0.001  0.001  0.607 -0.000
  0.000  0.000  0.003 -0.000  0.470
atom   10   Tr[ns(na)] =   5.06841
    eigenvalues: 
  0.312  0.372  0.511  0.542  0.798
    eigenvectors:
  0.000  0.000  0.998  0.000  0.002
  0.000  1.000  0.000  0.000  0.000
  1.000  0.000  0.000  0.000  0.000
  0.000  0.000  0.002  0.000  0.998
  0.000  0.000  0.000  1.000  0.000
    occupations:
  0.511 -0.000  0.000  0.013  0.000
 -0.000  0.372  0.000  0.000  0.001
  0.000  0.000  0.312 -0.003 -0.000
  0.013  0.000 -0.003  0.797 -0.000
  0.000  0.001 -0.000 -0.000  0.542
atom   16   Tr[ns(na)] =   5.11650
    eigenvalues: 
  0.325  0.341  0.524  0.598  0.772
    eigenvectors:
  0.000  0.000  0.003  0.326  0.672
  0.000  0.000  0.997  0.002  0.001
  0.747  0.253  0.000  0.000  0.000
  0.000  0.000  0.000  0.672  0.327
  0.253  0.747  0.000  0.000  0.000
    occupations:
  0.714  0.008  0.002 -0.082  0.003
  0.008  0.524  0.001 -0.001  0.001
  0.002  0.001  0.329 -0.001  0.007
 -0.082 -0.001 -0.001  0.654 -0.002
  0.003  0.001  0.007 -0.002  0.337
atom   17   Tr[ns(na)] =   5.17176
    eigenvalues: 
  0.340  0.369  0.557  0.595  0.725
    eigenvectors:
  0.003  0.000  0.000  0.997  0.000
  0.996  0.000  0.000  0.003  0.001
  0.000  1.000  0.000  0.000  0.000
  0.001  0.000  0.000  0.000  0.999
  0.000  0.000  1.000  0.000  0.000
    occupations:
  0.594  0.014  0.000 -0.001 -0.000
  0.014  0.341 -0.000 -0.011  0.000
  0.000 -0.000  0.369 -0.000  0.001
 -0.001 -0.011 -0.000  0.725  0.000
 -0.000  0.000  0.001  0.000  0.557
atom   22   Tr[ns(na)] =   5.25343
    eigenvalues: 
  0.448  0.450  0.470  0.629  0.631
    eigenvectors:
  0.828  0.044  0.000  0.012  0.117
  0.000  0.000  0.000  0.910  0.090
  0.048  0.934  0.018  0.000  0.000
  0.123  0.006  0.000  0.078  0.794
  0.002  0.016  0.982  0.000  0.000
    occupations:
  0.471  0.000 -0.000  0.061 -0.000
  0.000  0.629 -0.000  0.001  0.000
 -0.000 -0.000  0.450  0.001 -0.003
  0.061  0.001  0.001  0.607  0.000
 -0.000  0.000 -0.003  0.000  0.469
atom   23   Tr[ns(na)] =   5.19399
    eigenvalues: 
  0.309  0.463  0.558  0.600  0.666
    eigenvectors:
  0.002  0.000  0.000  0.981  0.017
  0.000  0.998  0.002  0.000  0.000
  0.998  0.000  0.000  0.002  0.001
  0.000  0.000  0.000  0.017  0.983
  0.000  0.002  0.998  0.000  0.000
    occupations:
  0.601  0.000  0.013  0.008 -0.000
  0.000  0.464 -0.000 -0.000 -0.005
  0.013 -0.000  0.310  0.007  0.000
  0.008 -0.000  0.007  0.665 -0.000
 -0.000 -0.005  0.000 -0.000  0.558
N of occupied +U levels =  41.3471232
 --- exit write_ns ---

     negative rho (up, down):  0.341E-02 0.000E+00

     total cpu time spent up to now is     7387.1 secs

     total energy              =   -1591.50082803 Ry
     Harris-Foulkes estimate   =   -1591.50483323 Ry
     estimated scf accuracy    <       0.00517673 Ry

     iteration #  2     ecut=    40.00 Ry     beta=0.70
     Davidson diagonalization with overlap
     ethr =  2.26E-06,  avg # of iterations =  5.9

     negative rho (up, down):  0.351E-02 0.000E+00

     total cpu time spent up to now is     7650.9 secs

     total energy              =   -1591.48842107 Ry
     Harris-Foulkes estimate   =   -1591.52364203 Ry
     estimated scf accuracy    <       0.26214381 Ry

     iteration #  3     ecut=    40.00 Ry     beta=0.70
     Davidson diagonalization with overlap
     ethr =  2.26E-06,  avg # of iterations =  6.7

     negative rho (up, down):  0.349E-02 0.000E+00

     total cpu time spent up to now is     7906.9 secs

     total energy              =   -1591.50319058 Ry
     Harris-Foulkes estimate   =   -1591.50508441 Ry
     estimated scf accuracy    <       0.00685820 Ry

     iteration #  4     ecut=    40.00 Ry     beta=0.70
     Davidson diagonalization with overlap
     ethr =  2.26E-06,  avg # of iterations =  5.9

     negative rho (up, down):  0.343E-02 0.000E+00

     total cpu time spent up to now is     8135.1 secs

     total energy              =   -1591.50422902 Ry
     Harris-Foulkes estimate   =   -1591.50451294 Ry
     estimated scf accuracy    <       0.00278960 Ry

     iteration #  5     ecut=    40.00 Ry     beta=0.70
     Davidson diagonalization with overlap
     ethr =  1.22E-06,  avg # of iterations =  1.0

     negative rho (up, down):  0.341E-02 0.000E+00

     total cpu time spent up to now is     8325.4 secs

     total energy              =   -1591.50430216 Ry
     Harris-Foulkes estimate   =   -1591.50443932 Ry
     estimated scf accuracy    <       0.00071388 Ry

     iteration #  6     ecut=    40.00 Ry     beta=0.70
     Davidson diagonalization with overlap
     ethr =  3.12E-07,  avg # of iterations =  1.2

     negative rho (up, down):  0.341E-02 0.000E+00

     total cpu time spent up to now is     8514.9 secs

     total energy              =   -1591.50437078 Ry
     Harris-Foulkes estimate   =   -1591.50440835 Ry
     estimated scf accuracy    <       0.00030277 Ry

     iteration #  7     ecut=    40.00 Ry     beta=0.70
     Davidson diagonalization with overlap
     ethr =  1.32E-07,  avg # of iterations =  1.0

     negative rho (up, down):  0.341E-02 0.000E+00

     total cpu time spent up to now is     8704.6 secs

[...]
    13.6478  13.7331  13.8844  13.9809  14.0353  14.1000  14.1406  14.1455
    14.3083  14.4087  14.4354  14.4431  14.5543  14.6549  14.7206  14.7453
    14.7972  14.8058  14.8663  14.8897  14.9751  14.9915  15.0778  15.2290
    15.4513  15.4665  15.5321  15.5931  15.7813  15.8111  15.9289  15.9520
    16.0236  16.0626  16.0687  16.1846  16.2626  16.3343  16.3958  16.4154
    16.4322  16.4366  16.5108  16.5154  16.5292  16.5503  16.6634  16.7399
    16.7958  16.8004  16.8540  16.8719  16.9327  16.9429  16.9680  17.0074
    17.1201  17.1284  17.1716  17.2092  17.2427  17.2706  17.2805  17.2881
    17.3501  17.4254  17.5199  17.5448  17.5848  17.6439  17.6832  17.6887
    17.7028  17.7200  17.7416  17.7853  17.8283  17.8902  18.1038  18.1224
    18.1717  18.2236  18.2666  18.3090  18.3533  18.4807  18.5858  18.5953
    18.6393  18.6583  18.7160  18.7485  18.7836  18.8093  18.8492  18.8961
    19.0016  19.1458  19.2003  19.2504  19.3494  19.3726  19.4140  19.4437
    19.5479  19.6059  19.8034  19.8249  19.9405  19.9575  20.0056

          k =-0.5000 0.2118 0.0000 ( 32144 PWs)   bands (ev):

   -56.3278 -56.3254 -55.7101 -55.7085 -55.6553 -55.4869 -55.4566 -55.3967
   -32.7520 -32.7387 -32.4839 -32.4797 -32.4172 -32.4154 -32.2679 -32.1926
   -32.1920 -31.9888 -31.9881 -31.9665 -31.7846 -31.7814 -31.7778 -31.6753
   -31.6049 -31.5828 -31.5758 -31.5726 -31.3833 -31.3435 -31.3135 -31.1841
   -22.4800 -20.0353 -19.9831 -19.0300 -19.0247 -18.7100 -18.5526 -18.5433
   -18.4787 -18.4679 -18.4207 -18.4030 -18.2222 -18.2101 -17.9204 -17.9192
   -17.8778 -17.8674 -17.8654 -16.0847  -8.4782  -8.4109  -7.7474  -6.9610
    -6.9549  -6.5642  -6.5242  -6.4086  -6.3952  -6.3444  -6.3163  -6.0643
    -6.0315  -5.8863  -5.7130  -5.5954  -5.5038  -5.3955  -5.3141  -5.1217
    -5.0765  -5.0570  -4.8235  -4.7688  -4.7421  -4.6902  -4.6425  -4.6119
    -4.5254  -4.4582  -4.4420  -4.1442  -4.1265  -4.0816  -4.0510  -3.7867
    -3.7420  -3.6248  -3.6114  -3.5849  -3.4920  -3.4414  -3.3644  -3.2543
    -3.2292  -3.0199  -2.9948  -2.9076  -2.8689  -2.7798  -2.6375  -2.5295
    -2.5021  -2.3727  -2.3175  -2.1243  -2.0523  -1.9420  -0.7493   0.2108
     0.3270   0.8008   1.0530   1.0556   1.3209   1.7271   1.7789   2.0937
     2.1260   2.1320   2.1813   2.3830   2.4179   2.5490   2.5563   2.7298
     2.7390   2.9892   3.0147   3.1335   3.3327   3.5290   3.5823   3.8049
     3.8471   3.8836   4.3627   4.8216   5.0501   5.0829   5.1101   5.1602
     5.1816   5.2629   5.2702   5.3482   5.5148   5.5906   5.6969   5.7479
     5.8264   6.0484   6.1280   6.1471   6.1913   6.3948   6.4204   6.5009
     6.6007   6.6303   6.7474   6.7742   6.9075   7.0228   7.0704   7.4088
     7.4617   7.5095   7.5260   7.7065   7.7346   7.8398   8.1194   8.2330
     8.4373   8.4443   8.7109   8.7968   8.8644   8.9839   9.0248   9.1464
     9.2763   9.3777   9.6345   9.7162   9.7972   9.8949  10.0133  10.1318
    10.1388  10.2035  10.2292  10.3479  10.3618  10.4761  10.6487  10.6977
    10.8271  10.9536  11.0132  11.0969  11.3657  11.4806  11.5572  11.6673
    11.7157  11.7515  11.7800  11.8721  11.9473  12.0021  12.1889  12.3519
    12.3990  12.5108  12.7328  12.7709  12.8546  12.8966  13.0540  13.1652
    13.1718  13.3521  13.4237  13.4467  13.5590  13.5975  13.6499  13.6649
    13.7212  13.7627  13.7937  13.8250  13.9507  13.9632  14.0604  14.1105
    14.1754  14.2157  14.2445  14.2596  14.3423  14.3571  14.4137  14.4206
    14.4930  14.5313  14.6102  14.6340  14.7626  14.8071  14.8875  14.9312
    15.0253  15.0345  15.0526  15.1149  15.1806  15.2079  15.2420  15.2608
    15.3072  15.3473  15.5204  15.5418  15.6454  15.6592  15.7220  15.7726
    15.8335  15.9012  15.9525  16.0019  16.0821  16.1507  16.1952  16.2082
    16.3732  16.3942  16.4530  16.4728  16.5657  16.6103  16.7630  16.8402
    16.9355  16.9943  17.0835  17.1190  17.2198  17.2452  17.2822  17.3954
    17.4900  17.5419  17.5712  17.6473  17.7326  17.7529  17.8091  17.8872
    17.9427  18.0318  18.1063  18.1818  18.1874  18.2312  18.2906  18.3168
    18.3492  18.5085  18.5238  18.6264  18.6514  18.6838  18.7675  18.8152
    18.9434  18.9994  19.0371  19.1049  19.2392  19.2774  19.3632  19.4025
    19.4507  19.5220  19.5476  19.6721  19.7349  19.7699  19.8700  19.9276
    20.0447  20.0828  20.1312  20.2086  20.2329  20.3453  20.4242

          k =-0.5000-0.4237 0.0000 ( 32256 PWs)   bands (ev):

   -56.3250 -56.3231 -55.7072 -55.7056 -55.6526 -55.4827 -55.4523 -55.3941
   -32.7508 -32.7361 -32.4828 -32.4789 -32.4167 -32.4140 -32.2665 -32.1921
   -32.1913 -31.9880 -31.9875 -31.9657 -31.7821 -31.7789 -31.7738 -31.6837
   -31.6006 -31.5832 -31.5735 -31.5707 -31.3795 -31.3529 -31.3229 -31.1906
   -22.4792 -20.0315 -19.9792 -19.0261 -19.0204 -18.6904 -18.5960 -18.5135
   -18.4791 -18.4704 -18.4242 -18.4063 -18.2196 -18.2029 -17.9492 -17.8707
   -17.8614 -17.8497 -17.8494 -16.0843  -8.4736  -8.4059  -7.7427  -6.9429
    -6.9389  -6.4842  -6.4257  -6.3412  -6.3378  -6.2846  -6.2808  -6.0829
    -6.0505  -5.8918  -5.7207  -5.5836  -5.4671  -5.3704  -5.3677  -5.1312
    -5.0772  -5.0388  -4.9111  -4.8495  -4.8229  -4.8122  -4.7429  -4.6544
    -4.5369  -4.4447  -4.3168  -4.1687  -4.1439  -4.0422  -3.8410  -3.8320
    -3.8082  -3.7396  -3.6932  -3.6504  -3.5772  -3.5595  -3.5245  -3.4094
    -3.3980  -3.0088  -2.9765  -2.8735  -2.8649  -2.7046  -2.5977  -2.5126
    -2.4583  -2.4280  -2.1522  -2.1028  -2.0777  -1.9771  -0.7506   0.2261
     0.3436   1.0216   1.1957   1.2209   1.4881   1.6453   1.6658   1.9925
     2.0081   2.3584   2.4065   2.5210   2.5611   2.5624   2.6802   2.8267
     2.8814   3.0387   3.2158   3.2560   3.2735   3.4698   3.6092   3.7329
     3.9883   4.0265   4.3644   4.5890   4.7401   4.7417   4.7600   5.0079
     5.0519   5.0535   5.3734   5.4941   5.6695   5.6859   5.7100   5.7465
     5.9268   5.9352   5.9931   6.0471   6.1001   6.1917   6.2219   6.4605
     6.4665   6.5114   6.5903   6.8006   6.8016   6.9173   7.0857   7.1293
     7.1342   7.2047   7.4128   7.4872   7.6436   8.1366   8.1540   8.2597
     8.3171   8.4306   8.4938   8.5732   9.1167   9.2278   9.2791   9.4226
     9.4511   9.5345   9.6374   9.6949   9.7335   9.7892   9.9559   9.9810
    10.5618  10.7887  10.8997  10.9163  10.9416  11.0132  11.0617  11.2272
    11.3937  11.5197  11.5821  11.6144  11.8125  11.8346  11.8762  11.8980
    11.9788  11.9902  12.1672  12.3064  12.3380  12.3502  12.4343  12.4456
    12.4815  12.5168  12.5224  12.6455  12.7173  12.7945  12.8669  12.9059
    12.9716  13.0231  13.1228  13.1870  13.1910  13.2266  13.2853  13.4370
    13.4719  13.5159  13.6034  13.6376  13.6720  13.6984  13.7633  13.8819
    13.9219  14.0062  14.0220  14.2122  14.2439  14.2685  14.2785  14.2967
    14.3677  14.3872  14.4104  14.4302  14.5176  14.5749  14.6283  14.6395
    14.6692  14.6830  14.7407  14.8177  14.8329  14.8540  14.8959  15.0084
    15.0973  15.1129  15.1796  15.2458  15.3244  15.3924  15.4633  15.5906
    15.6083  15.6291  15.7068  15.7139  15.7935  15.8692  15.8989  15.9873
    16.0369  16.0983  16.1496  16.1887  16.4151  16.5583  16.5889  16.6204
    16.7579  16.8388  17.0980  17.1157  17.1515  17.1615  17.3540  17.3742
    17.3960  17.4293  17.6060  17.6174  17.6558  17.7169  17.8364  17.8593
    17.8954  17.9505  18.0642  18.1528  18.2023  18.3365  18.5522  18.5618
    18.5877  18.6914  18.7018  18.8402  18.8608  18.9531  19.0392  19.0789
    19.1140  19.2697  19.4629  19.5508  19.6352  19.6406  19.7703  19.7885
    19.8194  19.8994  19.9908  20.0733  20.1238  20.2165  20.2582  20.3072
    20.3437  20.3996  20.4205  20.4501  20.5064  20.5205  20.6100

          k =-0.2500 0.2118 0.0000 ( 32165 PWs)   bands (ev):

   -56.3641 -56.2949 -55.7644 -55.7052 -55.6829 -55.5275 -55.4599 -55.4045
   -33.0866 -32.5895 -32.4473 -32.3942 -32.3879 -32.3391 -32.2750 -32.2236
   -32.1736 -32.0411 -32.0088 -31.9782 -31.9545 -31.9055 -31.8553 -31.6830
   -31.6471 -31.5344 -31.4502 -31.4006 -31.2684 -31.2509 -31.2129 -31.1712
   -22.4827 -20.1203 -19.9611 -19.1995 -19.1140 -18.8135 -18.7446 -18.7417
   -18.6600 -18.6343 -18.6104 -18.5730 -17.8763 -17.8584 -17.8308 -17.7870
   -17.7609 -17.7047 -17.6393 -16.0869  -8.7963  -8.3115  -7.7414  -7.2656
    -7.0674  -6.9948  -6.7821  -6.5140  -6.3822  -6.2871  -6.2518  -6.1179
    -6.0909  -6.0500  -5.8332  -5.7854  -5.6943  -5.4228  -5.3352  -5.3259
    -5.2700  -5.0748  -4.8726  -4.8612  -4.6919  -4.4601  -4.3873  -4.3636
    -4.2415  -4.1274  -4.0249  -3.9629  -3.9289  -3.9085  -3.8102  -3.7475
    -3.6945  -3.6307  -3.6103  -3.5373  -3.4038  -3.3193  -3.2569  -3.2339
    -3.1586  -3.0141  -2.9792  -2.8888  -2.8423  -2.8133  -2.7272  -2.5583
    -2.4899  -2.4438  -2.3218  -2.3075  -2.0430  -1.8639  -0.9555  -0.7453
     0.0550   0.0636   1.4382   1.7101   1.8569   1.9252   1.9546   1.9699
     2.1065   2.3421   2.4320   2.5313   2.6407   2.7080   2.7726   2.8429
     2.8779   2.9669   3.0533   3.1391   3.2675   3.3052   3.4107   3.6166
     3.9305   4.2198   4.3742   4.4214   4.7112   4.7901   4.9520   5.1101
     5.1771   5.2186   5.3016   5.4163   5.4555   5.6808   5.7937   5.8448
     5.9291   6.0267   6.0515   6.1534   6.3834   6.4537   6.5411   6.6877
     6.7217   6.7831   6.8457   6.9782   7.0856   7.2713   7.3494   7.4357
     7.5100   7.7827   7.8827   8.0098   8.0608   8.1463   8.2926   8.3366
     8.5154   8.5909   8.7275   8.8086   8.9385   8.9661   9.0621   9.2591
     9.3056   9.4267   9.4851   9.5651   9.6754   9.8140   9.8692   9.9559
    10.0648  10.1407  10.2250  10.3342  10.4316  10.4655  10.6131  10.7964
    10.8622  10.9898  11.0359  11.1206  11.1729  11.2312  11.3085  11.3868
    11.4793  11.5918  11.6104  11.6510  11.7017  11.8782  11.9170  12.0095
    12.1199  12.1905  12.2350  12.3320  12.4554  12.5530  12.6003  12.7105
    12.7487  12.7941  12.8555  12.9273  12.9513  13.0016  13.0589  13.1811
    13.2143  13.2973  13.3508  13.4261  13.5384  13.5967  13.6538  13.7201
    13.7723  13.8591  13.9080  14.0030  14.0500  14.0759  14.1377  14.2387
    14.3162  14.4027  14.4276  14.4954  14.6532  14.7488  14.7873  14.8801
    14.9533  15.0714  15.1696  15.2494  15.3139  15.3215  15.4056  15.4512
    15.5005  15.5523  15.5839  15.7078  15.7722  15.8122  15.8776  15.9034
    15.9871  16.0664  16.1242  16.2055  16.2844  16.3733  16.3887  16.4385
    16.5568  16.6702  16.7098  16.7414  16.7900  16.8789  16.9228  17.0409
    17.0714  17.1266  17.1845  17.2405  17.3229  17.3824  17.4971  17.5167
    17.5696  17.6306  17.6945  17.8319  17.8742  17.9413  17.9665  18.0688
    18.1255  18.2212  18.2922  18.3473  18.4166  18.5577  18.5864  18.6482
    18.6581  18.7647  18.8308  18.8780  18.9724  19.0129  19.0816  19.1005
    19.2064  19.2831  19.2972  19.3830  19.4392  19.4616  19.5139  19.5851
    19.6744  19.7516  19.7789  19.8140  19.8797  19.9162  19.9792  20.0353
    20.0606  20.1226  20.1717  20.2401  20.2902  20.3654  20.4206

     the Fermi energy is     1.1577 ev

!    total energy              =   -1591.51030567 Ry
     Harris-Foulkes estimate   =   -1591.51030567 Ry
     estimated scf accuracy    <          3.9E-09 Ry

     The total energy is the sum of the following terms:

     one-electron contribution =  -19280.43739817 Ry
     hartree contribution      =    9673.57625119 Ry
     xc contribution           =    -294.74232371 Ry
     ewald contribution        =    8306.05294897 Ry
     Hubbard energy            =       4.03999529 Ry
     smearing contrib. (-TS)   =       0.00022076 Ry

     convergence has been achieved in   9 iterations

     Forces acting on atoms (Ry/au):


     negative rho (up, down):  0.342E-02 0.000E+00
     atom    1 type  1   force =     0.00045125   -0.00031162   -0.00000757
     atom    2 type  1   force =    -0.00006767    0.00042315    0.00015386
     atom    3 type  2   force =     0.03040119   -0.00009884   -0.00017559
     atom    4 type  2   force =    -0.00178883    0.00000989    0.00003262
     atom    5 type  1   force =    -0.00132394   -0.02877779    0.00013513
     atom    6 type  1   force =    -0.00116582    0.02870809    0.00014586
     atom    7 type  1   force =    -0.00017379   -0.00018509   -0.00025021
     atom    8 type  1   force =     0.00089624    0.00110499    0.00017587
     atom    9 type  2   force =     0.00219367   -0.00076591    0.00022753
     atom   10 type  2   force =     0.00038181   -0.00038620   -0.00036928
     atom   11 type  1   force =     0.00093016    0.01154489   -0.00041129
     atom   12 type  1   force =     0.00359077   -0.00600318   -0.00020472
     atom   13 type  1   force =     0.00019061   -0.00150014    0.00036123
     atom   14 type  1   force =     0.00044437   -0.00000876    0.00001034
     atom   15 type  1   force =    -0.00007801    0.00015969   -0.00019880
     atom   16 type  2   force =    -0.03008761   -0.00015521   -0.00017213
     atom   17 type  2   force =    -0.00236812   -0.00006601   -0.00009432
     atom   18 type  1   force =     0.00191827   -0.02870036    0.00012013
     atom   19 type  1   force =     0.00166894    0.02864420    0.00013774
     atom   20 type  1   force =    -0.00013464   -0.00343620   -0.00018940
     atom   21 type  1   force =     0.00076494    0.00085421    0.00009602
     atom   22 type  2   force =    -0.00209304   -0.00076412    0.00028991
     atom   23 type  2   force =    -0.00021115   -0.00061610   -0.00044487
     atom   24 type  1   force =    -0.00104321    0.01149174   -0.00049448
     atom   25 type  1   force =    -0.00368788   -0.00596961   -0.00029359
     atom   26 type  1   force =     0.00009029   -0.00474047    0.00045731
     atom   27 type  3   force =     0.00000982    0.00008829    0.00080312
     atom   28 type  3   force =     0.00000655   -0.00025913   -0.00016003
     atom   29 type  3   force =     0.00011620    0.00004120    0.00027632
     atom   30 type  3   force =     0.00013004    0.00000890    0.00033458
     atom   31 type  1   force =     0.00003434    0.00077158    0.00076847
     atom   32 type  1   force =     0.00000584   -0.00079989   -0.00059369
     atom   33 type  3   force =    -0.00000157   -0.00030618   -0.00046609

     Total force =     0.002270     Total SCF correction =     0.000135


     entering subroutine stress ...


     negative rho (up, down):  0.342E-02 0.000E+00
          total   stress  (Ry/bohr**3)                   (kbar)     P=   -1.55
  -0.00001148  -0.00000003   0.00000065         -1.69     -0.00      0.10
  -0.00000003   0.00001399  -0.00000089         -0.00      2.06     -0.13
   0.00000065  -0.00000089  -0.00003403          0.10     -0.13     -5.01


     bfgs converged in  15 scf cycles and  14 bfgs steps
     (criteria: energy < 0.10E-03, force < 0.10E-02)

     End of BFGS Geometry Optimization

     Final energy   =   -1591.5103056717 Ry
Begin final coordinates

ATOMIC_POSITIONS (crystal)
O0       0.000000000   0.000000000   0.370974736    0   0   1
O0       0.000000000   0.500000000   0.387318336    0   0   1
Nb1      0.250000000   0.500000000   0.443024854    0   0   1
Nb1      0.000000000   0.000000000   0.443848841    0   0   1
O0       0.250000000   0.790000000   0.447460361    0   0   1
O0       0.250000000   0.210000000   0.447431428    0   0   1
O0       0.000000000   0.500000000   0.499123366    0   0   1
O0       0.000000000   0.000000000   0.524600669    0   0   1
Nb1      0.250000000   0.000000000   0.577792009    0   0   1
Nb1      0.000000000   0.500000000   0.568328556    0   0   1
O0       0.250000000   0.710000000   0.578277687    0   0   1
O0       0.250000000   0.290000000   0.578883324    0   0   1
O0       0.000000000   0.000000000   0.622334910    0   0   1
O0       0.500000000   0.000000000   0.371181569    0   0   1
O0       0.500000000   0.500000000   0.387667158    0   0   1
Nb1      0.750000000   0.500000000   0.443027636    0   0   1
Nb1      0.500000000   0.000000000   0.444075168    0   0   1
O0       0.750000000   0.790000000   0.447443878    0   0   1
O0       0.750000000   0.210000000   0.447428289    0   0   1
O0       0.500000000   0.500000000   0.500738052    0   0   1
O0       0.500000000   0.000000000   0.524704482    0   0   1
Nb1      0.750000000   0.000000000   0.577844955    0   0   1
Nb1      0.500000000   0.500000000   0.575673220    0   0   1
O0       0.750000000   0.710000000   0.578216756    0   0   1
O0       0.750000000   0.290000000   0.578822603    0   0   1
O0       0.500000000   0.000000000   0.621936973    0   0   1
H2      -0.000425952   0.505401180   0.351161313
H2       0.499588427   0.500304438   0.351488044
H2       0.151803489   0.000928781   0.355877222
H2       0.651626254   0.000636849   0.355998006
O0       0.500054870   0.512831633   0.649645023
O0       0.500009572   0.348948480   0.682478998
H2       0.499991238   0.416991220   0.714451575
End final coordinates



     init_run     :    111.90s CPU    114.23s WALL (       1 calls)
     electrons    :  37218.86s CPU  38453.28s WALL (      15 calls)
     update_pot   :    280.69s CPU    287.20s WALL (      14 calls)
     forces       :   2070.80s CPU   2138.81s WALL (      15 calls)
     stress       :  10113.31s CPU  10471.69s WALL (      15 calls)

     Called by init_run:
     wfcinit      :     37.94s CPU     39.37s WALL (       1 calls)
     potinit      :      7.50s CPU      7.70s WALL (       1 calls)

     Called by electrons:
     c_bands      :  19464.50s CPU  19973.55s WALL (     196 calls)
     sum_band     :   7483.35s CPU   7763.20s WALL (     196 calls)
     v_of_rho     :    213.57s CPU    226.34s WALL (     204 calls)
     newd         :  10614.66s CPU  10806.26s WALL (     204 calls)
     mix_rho      :     37.80s CPU     38.84s WALL (     196 calls)

     Called by c_bands:
     init_us_2    :     71.41s CPU     71.91s WALL (    1764 calls)
     cegterg      :  19227.05s CPU  19689.80s WALL (     588 calls)

     Called by *egterg:
     h_psi        :  10997.43s CPU  11259.68s WALL (    1952 calls)
     s_psi        :   1504.31s CPU   1524.17s WALL (    2447 calls)
     g_psi        :     24.18s CPU     24.20s WALL (    1361 calls)
     cdiaghg      :   2007.85s CPU   2012.80s WALL (    1886 calls)

     Called by h_psi:
     add_vuspsi   :   1102.38s CPU   1119.04s WALL (    1952 calls)
     vhpsi        :   1210.38s CPU   1222.54s WALL (    1952 calls)

     General routines
     calbec       :   3641.09s CPU   3695.38s WALL (   19885 calls)
     fft          :    326.08s CPU    422.13s WALL (    3621 calls)
     ffts         :      3.82s CPU      4.05s WALL (     400 calls)
     fftw         :   6069.09s CPU   6344.32s WALL ( 1067156 calls)
     interpolate  :     33.41s CPU     34.05s WALL (     400 calls)
     davcio       :      0.19s CPU     37.16s WALL (    2169 calls)

     Parallel routines
     fft_scatter  :   2297.85s CPU   2653.99s WALL ( 1071177 calls)
     Hubbard U routines
     new_ns       :    259.65s CPU    273.81s WALL (     196 calls)
     vhpsi        :   1210.38s CPU   1222.54s WALL (    1952 calls)
     force_hub    :    588.00s CPU    608.54s WALL (      15 calls)
     stres_hub    :   5406.38s CPU   5505.06s WALL (      15 calls)

     PWSCF        :    14h 3m CPU       14h31m WALL


   This run was terminated on:  22:53:16   1Jun2014            

=------------------------------------------------------------------------------=
   JOB DONE.
=------------------------------------------------------------------------------=
---------------------------------------
Running PBS batch system epilogue script
Job id: 373370.audhumbla.fysik.dtu.dk
Username: zhonxu
Groupname: campgst
Jobname: NbO2/Eads-2-layers/OOH-U-6.0
Sessionid: 20225
Resources limits: neednodes=2:ppn=8:xeon8,nodes=2:ppn=8:xeon8,walltime=48:00:00
Resources used: cput=232:19:30,mem=17717084kb,vmem=21318888kb,walltime=14:31:56
Queuename: verylong
Accounting:
This job has allocated the following 16 nodes:
b050 b050 b050 b050 b050 b050 b050 b050 b029 b029 b029 b029 b029 b029 b029 b029
Finished epilogue job 373370.audhumbla.fysik.dtu.dk for zhonxu
