
     Program PWSCF v.5.0.2 (svn rev. 9656) starts on 10May2014 at  1: 2:31 

     This program is part of the open-source Quantum ESPRESSO suite
     for quantum simulation of materials; please cite
         "P. Giannozzi et al., J. Phys.:Condens. Matter 21 395502 (2009);
          URL http://www.quantum-espresso.org", 
     in publications or presentations arising from this work. More details at
     http://www.quantum-espresso.org/quote.php

     Parallel version (MPI), running on    16 processors
     K-points division:     npool     =       4
     R & G space division:  proc/nbgrp/npool/nimage =       4

     Current dimensions of program PWSCF are:
     Max number of different atomic species (ntypx) = 10
     Max number of k-points (npk) =  40000
     Max angular momentum in pseudopotentials (lmaxx) =  3
     Reading input from pwscf.in
Warning: card &CELL ignored
Warning: card / ignored

     Subspace diagonalization in iterative solution of the eigenvalue problem:
     a serial algorithm will be used


     Parallelization info
     --------------------
     sticks:   dense  smooth     PW     G-vecs:    dense   smooth      PW
     Min        1450     467    129               343652    62241    9199
     Max        1451     468    130               343665    62278    9208
     Sum        5803    1869    517              1374641   249013   36807



     bravais-lattice index     =            0
     lattice parameter (alat)  =      12.0187  a.u.
     unit-cell volume          =    7280.5819 (a.u.)^3
     number of atoms/cell      =           31
     number of atomic types    =            3
     number of electrons       =       238.00
     number of Kohn-Sham states=          357
     kinetic-energy cutoff     =      40.0000  Ry
     charge density cutoff     =     500.0000  Ry
     convergence threshold     =      1.0E-06
     mixing beta               =       0.7000
     number of iterations used =            8  plain     mixing
     Exchange-correlation      = SLA  PW   PBE  PBE ( 1 4 3 4 0)
     EXX-fraction              =        0.00
     nstep                     =           50


     celldm(1)=  12.018658  celldm(2)=   0.000000  celldm(3)=   0.000000
     celldm(4)=   0.000000  celldm(5)=   0.000000  celldm(6)=   0.000000

     crystal axes: (cart. coord. in units of alat)
               a(1) = (   1.000000   0.000000   0.000000 )  
               a(2) = (   0.000000   1.009517   0.000000 )  
               a(3) = (   0.000000   0.000000   4.154171 )  

     reciprocal axes: (cart. coord. in units 2 pi/alat)
               b(1) = (  1.000000  0.000000  0.000000 )  
               b(2) = (  0.000000  0.990572  0.000000 )  
               b(3) = (  0.000000  0.000000  0.240722 )  


     PseudoPot. # 1 for O  read from file:
     /home/camp/zhonxu/pseudo/o_pbe_v1.01.uspp.F.UPF
     MD5 check sum: 2bcb18d16ea4b960afae9ec6d52f22d2
     Pseudo is Ultrasoft + core correction, Zval =  6.0
     Generated by new atomic code, or converted to UPF format
     Using radial grid of  737 points,  5 beta functions with: 
                l(1) =   0
                l(2) =   0
                l(3) =   1
                l(4) =   1
                l(5) =   2
     Q(r) pseudized with  8 coefficients,  rinner =    0.900   0.900   0.900
                                                       0.900   0.900

     PseudoPot. # 2 for Ir read from file:
     /home/camp/zhonxu/pseudo/ir_pbe_v1.uspp.F.UPF
     MD5 check sum: abf987a9674477536ede83817f8f8b70
     Pseudo is Ultrasoft + core correction, Zval = 15.0
     Generated by new atomic code, or converted to UPF format
     Using radial grid of  983 points,  7 beta functions with: 
                l(1) =   0
                l(2) =   0
                l(3) =   1
                l(4) =   1
                l(5) =   1
                l(6) =   2
                l(7) =   2
     Q(r) pseudized with  8 coefficients,  rinner =    1.350   1.350   1.350
                                                       1.350   1.350

     PseudoPot. # 3 for H  read from file:
     /home/camp/zhonxu/pseudo/h_pbe_v1.uspp.F.UPF
     MD5 check sum: 3408e3ff4ec8b0a4e358431e7e038a48
     Pseudo is Ultrasoft, Zval =  1.0
     Generated by new atomic code, or converted to UPF format
     Using radial grid of  615 points,  2 beta functions with: 
                l(1) =   0
                l(2) =   0
     Q(r) pseudized with  8 coefficients,  rinner =    0.700

     atomic species   valence    mass     pseudopotential
        O0             6.00    15.99940     O ( 1.00)
        Ir1           15.00   192.22000     Ir( 1.00)
        H2             1.00     1.00794     H ( 1.00)


     Simplified LDA+U calculation (l_max = 2) with parameters (eV):
     atomic species    L          U    alpha       J0     beta
        Ir1            2     0.0000   0.0000   0.0000   0.0000



     No symmetry found



   Cartesian axes

     site n.     atom                  positions (alat units)
         1           O0  tau(   1) = (   0.0000000   0.0000000   1.5706091  )
         2           O0  tau(   2) = (   0.0000000   0.5047586   1.6747957  )
         3           Ir1 tau(   3) = (   0.2500000   0.5047586   1.8830443  )
         4           Ir1 tau(   4) = (   0.0000000   0.0000000   1.8812580  )
         5           O0  tau(   5) = (   0.2500000   0.8177090   1.8812996  )
         6           O0  tau(   6) = (   0.2500000   0.1918083   1.8799287  )
         7           O0  tau(   7) = (   0.0000000   0.5047586   2.0722253  )
         8           O0  tau(   8) = (   0.0000000   0.0000000   2.1948149  )
         9           Ir1 tau(   9) = (   0.2500000   0.0000000   2.3898532  )
        10           Ir1 tau(  10) = (   0.0000000   0.5047586   2.3761029  )
        11           O0  tau(  11) = (   0.2500000   0.6965669   2.3876930  )
        12           O0  tau(  12) = (   0.2500000   0.3129503   2.3878177  )
        13           O0  tau(  13) = (   0.0000000   0.0000000   2.5742569  )
        14           O0  tau(  14) = (   0.5000000   0.0000000   1.5702768  )
        15           O0  tau(  15) = (   0.5000000   0.5047586   1.6724694  )
        16           Ir1 tau(  16) = (   0.7500000   0.5047586   1.8830859  )
        17           Ir1 tau(  17) = (   0.5000000   0.0000000   1.8811334  )
        18           O0  tau(  18) = (   0.7500000   0.8177090   1.8813411  )
        19           O0  tau(  19) = (   0.7500000   0.1918083   1.8799702  )
        20           O0  tau(  20) = (   0.5000000   0.5047586   2.0802013  )
        21           O0  tau(  21) = (   0.5000000   0.0000000   2.1944825  )
        22           Ir1 tau(  22) = (   0.7500000   0.0000000   2.3898532  )
        23           Ir1 tau(  23) = (   0.5000000   0.5047586   2.4038943  )
        24           O0  tau(  24) = (   0.7500000   0.6965669   2.3876515  )
        25           O0  tau(  25) = (   0.7500000   0.3129503   2.3878177  )
        26           O0  tau(  26) = (   0.5000000   0.0000000   2.5734260  )
        27           H2  tau(  27) = (  -0.0000700   0.6394282   1.5957418  )
        28           H2  tau(  28) = (   0.4999700   0.6419823   1.5977358  )
        29           H2  tau(  29) = (   0.1436200   0.0342933   1.5227115  )
        30           H2  tau(  30) = (   0.6432900   0.0353230   1.5222545  )
        31           O0  tau(  31) = (   0.5000100   0.5042640   2.6822238  )

     number of k points=    10  Methfessel-Paxton smearing, width (Ry)=  0.0100
                       cart. coord. in units 2pi/alat
        k(    1) = (   0.0000000   0.0000000   0.0000000), wk =   0.1250000
        k(    2) = (   0.0000000   0.2476431   0.0000000), wk =   0.2500000
        k(    3) = (   0.0000000  -0.4952862   0.0000000), wk =   0.1250000
        k(    4) = (   0.2500000   0.0000000   0.0000000), wk =   0.2500000
        k(    5) = (   0.2500000   0.2476431   0.0000000), wk =   0.2500000
        k(    6) = (   0.2500000  -0.4952862   0.0000000), wk =   0.2500000
        k(    7) = (  -0.5000000   0.0000000   0.0000000), wk =   0.1250000
        k(    8) = (  -0.5000000   0.2476431   0.0000000), wk =   0.2500000
        k(    9) = (  -0.5000000  -0.4952862   0.0000000), wk =   0.1250000
        k(   10) = (  -0.2500000   0.2476431   0.0000000), wk =   0.2500000

     Dense  grid:  1374641 G-vectors     FFT dimensions: (  90,  90, 360)

     Smooth grid:   249013 G-vectors     FFT dimensions: (  50,  50, 216)

     Largest allocated arrays     est. size (Mb)     dimensions
        Kohn-Sham Wavefunctions        42.85 Mb     (   7867,  357)
        Atomic wavefunctions           21.13 Mb     (   7867,  176)
        NL pseudopotentials            50.78 Mb     (   7867,  423)
        Each V/rho on FFT grid         11.12 Mb     ( 729000)
        Each G-vector array             2.62 Mb     ( 343661)
        G-vector shells                 1.13 Mb     ( 148760)
     Largest temporary arrays     est. size (Mb)     dimensions
        Auxiliary wavefunctions       171.42 Mb     (   7867, 1428)
        Each subspace H/S matrix       31.12 Mb     (1428,1428)
        Each <psi_i|beta_j> matrix      2.30 Mb     (    423,  357)
        Arrays for rho mixing          88.99 Mb     ( 729000,   8)

     Check: negative/imaginary core charge=   -0.000003    0.000000

     Initial potential from superposition of free atoms
     Check: negative starting charge=   -3.336659

     starting charge  233.99968, renormalised to  238.00000

     negative rho (up, down):  0.339E+01 0.000E+00
     Number of +U iterations with fixed ns =  0
     Starting occupations:
 --- enter write_ns ---
 LDA+U parameters:
U( 2)     =  0.00000000
alpha( 2) =  0.00000000
atom    3   Tr[ns(na)] =   7.00000
    eigenvalues: 
  0.700  0.700  0.700  0.700  0.700
    eigenvectors:
  1.000  0.000  0.000  0.000  0.000
  0.000  1.000  0.000  0.000  0.000
  0.000  0.000  1.000  0.000  0.000
  0.000  0.000  0.000  1.000  0.000
  0.000  0.000  0.000  0.000  1.000
    occupations:
  0.700  0.000  0.000  0.000  0.000
  0.000  0.700  0.000  0.000  0.000
  0.000  0.000  0.700  0.000  0.000
  0.000  0.000  0.000  0.700  0.000
  0.000  0.000  0.000  0.000  0.700
atom    4   Tr[ns(na)] =   7.00000
    eigenvalues: 
  0.700  0.700  0.700  0.700  0.700
    eigenvectors:
  1.000  0.000  0.000  0.000  0.000
  0.000  1.000  0.000  0.000  0.000
  0.000  0.000  1.000  0.000  0.000
  0.000  0.000  0.000  1.000  0.000
  0.000  0.000  0.000  0.000  1.000
    occupations:
  0.700  0.000  0.000  0.000  0.000
  0.000  0.700  0.000  0.000  0.000
  0.000  0.000  0.700  0.000  0.000
  0.000  0.000  0.000  0.700  0.000
  0.000  0.000  0.000  0.000  0.700
atom    9   Tr[ns(na)] =   7.00000
    eigenvalues: 
  0.700  0.700  0.700  0.700  0.700
    eigenvectors:
  1.000  0.000  0.000  0.000  0.000
  0.000  1.000  0.000  0.000  0.000
  0.000  0.000  1.000  0.000  0.000
  0.000  0.000  0.000  1.000  0.000
  0.000  0.000  0.000  0.000  1.000
    occupations:
  0.700  0.000  0.000  0.000  0.000
  0.000  0.700  0.000  0.000  0.000
  0.000  0.000  0.700  0.000  0.000
  0.000  0.000  0.000  0.700  0.000
  0.000  0.000  0.000  0.000  0.700
atom   10   Tr[ns(na)] =   7.00000
    eigenvalues: 
  0.700  0.700  0.700  0.700  0.700
    eigenvectors:
  1.000  0.000  0.000  0.000  0.000
  0.000  1.000  0.000  0.000  0.000
  0.000  0.000  1.000  0.000  0.000
  0.000  0.000  0.000  1.000  0.000
  0.000  0.000  0.000  0.000  1.000
    occupations:
  0.700  0.000  0.000  0.000  0.000
  0.000  0.700  0.000  0.000  0.000
  0.000  0.000  0.700  0.000  0.000
  0.000  0.000  0.000  0.700  0.000
  0.000  0.000  0.000  0.000  0.700
atom   16   Tr[ns(na)] =   7.00000
    eigenvalues: 
  0.700  0.700  0.700  0.700  0.700
    eigenvectors:
  1.000  0.000  0.000  0.000  0.000
  0.000  1.000  0.000  0.000  0.000
  0.000  0.000  1.000  0.000  0.000
  0.000  0.000  0.000  1.000  0.000
  0.000  0.000  0.000  0.000  1.000
    occupations:
  0.700  0.000  0.000  0.000  0.000
  0.000  0.700  0.000  0.000  0.000
  0.000  0.000  0.700  0.000  0.000
  0.000  0.000  0.000  0.700  0.000
  0.000  0.000  0.000  0.000  0.700
atom   17   Tr[ns(na)] =   7.00000
    eigenvalues: 
  0.700  0.700  0.700  0.700  0.700
    eigenvectors:
  1.000  0.000  0.000  0.000  0.000
  0.000  1.000  0.000  0.000  0.000
  0.000  0.000  1.000  0.000  0.000
  0.000  0.000  0.000  1.000  0.000
  0.000  0.000  0.000  0.000  1.000
    occupations:
  0.700  0.000  0.000  0.000  0.000
  0.000  0.700  0.000  0.000  0.000
  0.000  0.000  0.700  0.000  0.000
  0.000  0.000  0.000  0.700  0.000
  0.000  0.000  0.000  0.000  0.700
atom   22   Tr[ns(na)] =   7.00000
    eigenvalues: 
  0.700  0.700  0.700  0.700  0.700
    eigenvectors:
  1.000  0.000  0.000  0.000  0.000
  0.000  1.000  0.000  0.000  0.000
  0.000  0.000  1.000  0.000  0.000
  0.000  0.000  0.000  1.000  0.000
  0.000  0.000  0.000  0.000  1.000
    occupations:
  0.700  0.000  0.000  0.000  0.000
  0.000  0.700  0.000  0.000  0.000
  0.000  0.000  0.700  0.000  0.000
  0.000  0.000  0.000  0.700  0.000
  0.000  0.000  0.000  0.000  0.700
atom   23   Tr[ns(na)] =   7.00000
    eigenvalues: 
  0.700  0.700  0.700  0.700  0.700
    eigenvectors:
  1.000  0.000  0.000  0.000  0.000
  0.000  1.000  0.000  0.000  0.000
  0.000  0.000  1.000  0.000  0.000
  0.000  0.000  0.000  1.000  0.000
  0.000  0.000  0.000  0.000  1.000
    occupations:
  0.700  0.000  0.000  0.000  0.000
  0.000  0.700  0.000  0.000  0.000
  0.000  0.000  0.700  0.000  0.000
  0.000  0.000  0.000  0.700  0.000
  0.000  0.000  0.000  0.000  0.700
N of occupied +U levels =  56.0000000
 --- exit write_ns ---
 Atomic wfc used for LDA+U Projector are NOT orthogonalized
     Starting wfc are  176 randomized atomic wfcs

     total cpu time spent up to now is      115.9 secs

     per-process dynamical memory:   416.2 Mb

     Self-consistent Calculation

     iteration #  1     ecut=    40.00 Ry     beta=0.70
     Davidson diagonalization with overlap
     ethr =  1.00E-02,  avg # of iterations =  7.7
 --- enter write_ns ---
 LDA+U parameters:
U( 2)     =  0.00000000
alpha( 2) =  0.00000000
atom    3   Tr[ns(na)] =   6.22935
    eigenvalues: 
  0.415  0.457  0.639  0.798  0.806
    eigenvectors:
  0.001  0.168  0.008  0.632  0.191
  0.995  0.004  0.000  0.000  0.000
  0.000  0.000  0.986  0.004  0.010
  0.003  0.828  0.002  0.128  0.039
  0.000  0.000  0.003  0.237  0.760
    occupations:
  0.740  0.002  0.015 -0.128 -0.002
  0.002  0.416  0.001  0.002 -0.004
  0.015  0.001  0.641 -0.006 -0.010
 -0.128  0.002 -0.006  0.514  0.001
 -0.002 -0.004 -0.010  0.001  0.803
atom    4   Tr[ns(na)] =   5.76938
    eigenvalues: 
  0.443  0.464  0.466  0.686  0.826
    eigenvectors:
  0.000  0.844  0.143  0.000  0.012
  0.000  0.003  0.010  0.988  0.000
  0.001  0.144  0.843  0.012  0.000
  0.000  0.009  0.003  0.000  0.987
  0.999  0.000  0.001  0.000  0.000
    occupations:
  0.469 -0.002  0.001  0.040  0.000
 -0.002  0.683  0.024 -0.000 -0.001
  0.001  0.024  0.469  0.006  0.000
  0.040 -0.000  0.006  0.821 -0.000
  0.000 -0.001  0.000 -0.000  0.443
atom    9   Tr[ns(na)] =   7.33038
    eigenvalues: 
  0.452  0.475  0.876  0.903  0.959
    eigenvectors:
  0.001  0.149  0.000  0.000  0.850
  0.997  0.003  0.000  0.000  0.000
  0.000  0.000  0.771  0.229  0.000
  0.003  0.848  0.000  0.000  0.150
  0.000  0.000  0.229  0.771  0.000
    occupations:
  0.887 -0.002  0.000 -0.173  0.000
 -0.002  0.452 -0.000 -0.001 -0.000
  0.000 -0.000  0.882 -0.000 -0.011
 -0.173 -0.001 -0.000  0.547  0.000
  0.000 -0.000 -0.011  0.000  0.897
atom   10   Tr[ns(na)] =   7.75630
    eigenvalues: 
  0.447  0.606  0.917  0.948  0.961
    eigenvectors:
  0.000  0.978  0.000  0.000  0.022
  0.000  0.000  0.000  1.000  0.000
  0.000  0.000  1.000  0.000  0.000
  0.000  0.022  0.000  0.000  0.978
  1.000  0.000  0.000  0.000  0.000
    occupations:
  0.614  0.000  0.002  0.052 -0.000
  0.000  0.948 -0.000  0.000 -0.000
  0.002 -0.000  0.917 -0.000  0.000
  0.052  0.000 -0.000  0.953  0.000
 -0.000 -0.000  0.000  0.000  0.447
atom   16   Tr[ns(na)] =   6.22925
    eigenvalues: 
  0.415  0.457  0.639  0.798  0.806
    eigenvectors:
  0.001  0.167  0.009  0.616  0.207
  0.995  0.004  0.000  0.000  0.000
  0.000  0.000  0.986  0.005  0.010
  0.003  0.828  0.002  0.124  0.042
  0.000  0.000  0.003  0.255  0.742
    occupations:
  0.741 -0.002  0.016 -0.128  0.002
 -0.002  0.415 -0.001 -0.002 -0.004
  0.016 -0.001  0.641 -0.007  0.009
 -0.128 -0.002 -0.007  0.514 -0.001
  0.002 -0.004  0.009 -0.001  0.803
atom   17   Tr[ns(na)] =   5.75482
    eigenvalues: 
  0.443  0.459  0.465  0.689  0.823
    eigenvectors:
  0.000  0.003  0.984  0.000  0.012
  0.000  0.015  0.000  0.985  0.000
  0.002  0.980  0.003  0.015  0.001
  0.000  0.000  0.013  0.000  0.987
  0.998  0.002  0.000  0.000  0.000
    occupations:
  0.469 -0.002  0.001  0.040  0.000
 -0.002  0.685  0.028  0.000 -0.001
  0.001  0.028  0.462  0.010  0.001
  0.040  0.000  0.010  0.818  0.000
  0.000 -0.001  0.001  0.000  0.443
atom   22   Tr[ns(na)] =   7.33065
    eigenvalues: 
  0.452  0.475  0.877  0.903  0.959
    eigenvectors:
  0.001  0.149  0.000  0.000  0.850
  0.995  0.005  0.000  0.000  0.000
  0.000  0.000  0.779  0.221  0.000
  0.004  0.846  0.000  0.000  0.150
  0.000  0.000  0.221  0.779  0.000
    occupations:
  0.887  0.002  0.000 -0.173  0.001
  0.002  0.452  0.001  0.001 -0.000
  0.000  0.001  0.882 -0.000  0.011
 -0.173  0.001 -0.000  0.547  0.000
  0.001 -0.000  0.011  0.000  0.897
atom   23   Tr[ns(na)] =   7.02057
    eigenvalues: 
  0.441  0.514  0.773  0.825  0.957
    eigenvectors:
  0.000  0.986  0.000  0.000  0.014
  0.000  0.000  0.000  1.000  0.000
  0.000  0.000  1.000  0.000  0.000
  0.000  0.014  0.000  0.000  0.986
  1.000  0.000  0.000  0.000  0.000
    occupations:
  0.521  0.000 -0.001  0.052  0.000
  0.000  0.825  0.001  0.000 -0.000
 -0.001  0.001  0.773 -0.001  0.000
  0.052  0.000 -0.001  0.951  0.000
  0.000 -0.000  0.000  0.000  0.441
N of occupied +U levels =  53.4207041
 --- exit write_ns ---

     negative rho (up, down):  0.290E+01 0.000E+00

     total cpu time spent up to now is      495.9 secs

     total energy              =   -2086.10456514 Ry
     Harris-Foulkes estimate   =   -2111.53686618 Ry
     estimated scf accuracy    <      30.13450495 Ry

     iteration #  2     ecut=    40.00 Ry     beta=0.70
     Davidson diagonalization with overlap
     ethr =  1.00E-02,  avg # of iterations =  4.0

     negative rho (up, down):  0.275E+01 0.000E+00

     total cpu time spent up to now is      804.5 secs

     total energy              =   -1997.42211744 Ry
     Harris-Foulkes estimate   =   -2238.38540945 Ry
     estimated scf accuracy    <    2612.01552845 Ry

     iteration #  3     ecut=    40.00 Ry     beta=0.70
     Davidson diagonalization with overlap
     ethr =  1.00E-02,  avg # of iterations =  4.8

     negative rho (up, down):  0.247E+01 0.000E+00

     total cpu time spent up to now is     1151.2 secs

     total energy              =   -2076.87748621 Ry
     Harris-Foulkes estimate   =   -2133.83940782 Ry
     estimated scf accuracy    <     395.21527071 Ry

     iteration #  4     ecut=    40.00 Ry     beta=0.70
     Davidson diagonalization with overlap
     ethr =  1.00E-02,  avg # of iterations =  3.8

     negative rho (up, down):  0.258E+01 0.000E+00

     total cpu time spent up to now is     1361.8 secs

     total energy              =   -2103.65270692 Ry
     Harris-Foulkes estimate   =   -2109.03506253 Ry
     estimated scf accuracy    <      19.63158791 Ry

     iteration #  5     ecut=    40.00 Ry     beta=0.70
     Davidson diagonalization with overlap
     ethr =  8.25E-03,  avg # of iterations =  1.5

     negative rho (up, down):  0.271E+01 0.000E+00

     total cpu time spent up to now is     1543.7 secs

     total energy              =   -2105.92107344 Ry
     Harris-Foulkes estimate   =   -2107.08651982 Ry
     estimated scf accuracy    <      10.56101308 Ry

     iteration #  6     ecut=    40.00 Ry     beta=0.70
     Davidson diagonalization with overlap
     ethr =  4.44E-03,  avg # of iterations =  1.3

     negative rho (up, down):  0.275E+01 0.000E+00

     total cpu time spent up to now is     1727.7 secs

     total energy              =   -2106.06698350 Ry
     Harris-Foulkes estimate   =   -2106.61307784 Ry
     estimated scf accuracy    <       2.94178989 Ry

     iteration #  7     ecut=    40.00 Ry     beta=0.70
     Davidson diagonalization with overlap
     ethr =  1.24E-03,  avg # of iterations =  3.3

     negative rho (up, down):  0.280E+01 0.000E+00

     total cpu time spent up to now is     1927.0 secs

     total energy              =   -2106.14519599 Ry
     Harris-Foulkes estimate   =   -2106.42373875 Ry
     estimated scf accuracy    <       2.27437566 Ry

     iteration #  8     ecut=    40.00 Ry     beta=0.70
     Davidson diagonalization with overlap
     ethr =  9.56E-04,  avg # of iterations =  1.4

     negative rho (up, down):  0.286E+01 0.000E+00

     total cpu time spent up to now is     2108.8 secs

     total energy              =   -2106.17605361 Ry
     Harris-Foulkes estimate   =   -2106.35814098 Ry
     estimated scf accuracy    <       1.24058730 Ry

     iteration #  9     ecut=    40.00 Ry     beta=0.70
     Davidson diagonalization with overlap
     ethr =  5.21E-04,  avg # of iterations =  3.0

     negative rho (up, down):  0.289E+01 0.000E+00

     total cpu time spent up to now is     2305.1 secs

     total energy              =   -2106.11788557 Ry
     Harris-Foulkes estimate   =   -2106.30150633 Ry
     estimated scf accuracy    <       1.10039958 Ry

     iteration # 10     ecut=    40.00 Ry     beta=0.70
     Davidson diagonalization with overlap
     ethr =  4.62E-04,  avg # of iterations =  1.0

     negative rho (up, down):  0.297E+01 0.000E+00

     total cpu time spent up to now is     2487.3 secs

     total energy              =   -2106.16067052 Ry
     Harris-Foulkes estimate   =   -2106.27332359 Ry
     estimated scf accuracy    <       1.13461341 Ry

     iteration # 11     ecut=    40.00 Ry     beta=0.70
     Davidson diagonalization with overlap
     ethr =  4.62E-04,  avg # of iterations =  1.0

     negative rho (up, down):  0.306E+01 0.000E+00

     total cpu time spent up to now is     2679.4 secs

     total energy              =   -2106.15565380 Ry
     Harris-Foulkes estimate   =   -2106.20283685 Ry
     estimated scf accuracy    <       0.44128674 Ry

     iteration # 12     ecut=    40.00 Ry     beta=0.70
     Davidson diagonalization with overlap
     ethr =  1.85E-04,  avg # of iterations =  5.5

     negative rho (up, down):  0.311E+01 0.000E+00

     total cpu time spent up to now is     2891.0 secs

     total energy              =   -2106.14861651 Ry
     Harris-Foulkes estimate   =   -2106.18518688 Ry
     estimated scf accuracy    <       0.17518387 Ry

     iteration # 13     ecut=    40.00 Ry     beta=0.70
     Davidson diagonalization with overlap
     ethr =  7.36E-05,  avg # of iterations =  4.3

     negative rho (up, down):  0.311E+01 0.000E+00

     total cpu time spent up to now is     3100.7 secs

     total energy              =   -2106.12694866 Ry
     Harris-Foulkes estimate   =   -2106.19591179 Ry
     estimated scf accuracy    <       0.57670145 Ry

     iteration # 14     ecut=    40.00 Ry     beta=0.70
     Davidson diagonalization with overlap
     ethr =  7.36E-05,  avg # of iterations =  1.0

     negative rho (up, down):  0.311E+01 0.000E+00

     total cpu time spent up to now is     3288.3 secs

     total energy              =   -2106.13892129 Ry
     Harris-Foulkes estimate   =   -2106.18858661 Ry
     estimated scf accuracy    <       0.24744862 Ry

     iteration # 15     ecut=    40.00 Ry     beta=0.70
     Davidson diagonalization with overlap
     ethr =  7.36E-05,  avg # of iterations =  3.3

     negative rho (up, down):  0.312E+01 0.000E+00

     total cpu time spent up to now is     3479.8 secs

     total energy              =   -2106.16243039 Ry
     Harris-Foulkes estimate   =   -2106.16813609 Ry
     estimated scf accuracy    <       0.04461128 Ry

     iteration # 16     ecut=    40.00 Ry     beta=0.70
     Davidson diagonalization with overlap
     ethr =  1.87E-05,  avg # of iterations =  2.2

     negative rho (up, down):  0.312E+01 0.000E+00

     total cpu time spent up to now is     3663.2 secs

     total energy              =   -2106.16317543 Ry
     Harris-Foulkes estimate   =   -2106.16790242 Ry
     estimated scf accuracy    <       0.05129248 Ry

     iteration # 17     ecut=    40.00 Ry     beta=0.70
     Davidson diagonalization with overlap
     ethr =  1.87E-05,  avg # of iterations =  1.0

     negative rho (up, down):  0.312E+01 0.000E+00

     total cpu time spent up to now is     3842.2 secs

     total energy              =   -2106.16503590 Ry
     Harris-Foulkes estimate   =   -2106.16606165 Ry
     estimated scf accuracy    <       0.00772927 Ry

     iteration # 18     ecut=    40.00 Ry     beta=0.70
     Davidson diagonalization with overlap
     ethr =  3.25E-06,  avg # of iterations =  3.6

     negative rho (up, down):  0.312E+01 0.000E+00

     total cpu time spent up to now is     4032.7 secs

     total energy              =   -2106.16531001 Ry
     Harris-Foulkes estimate   =   -2106.16605803 Ry
     estimated scf accuracy    <       0.00590093 Ry

     iteration # 19     ecut=    40.00 Ry     beta=0.70
     Davidson diagonalization with overlap
     ethr =  2.48E-06,  avg # of iterations =  1.2

     negative rho (up, down):  0.312E+01 0.000E+00

     total cpu time spent up to now is     4212.1 secs

     total energy              =   -2106.16560413 Ry
     Harris-Foulkes estimate   =   -2106.16577359 Ry
     estimated scf accuracy    <       0.00150566 Ry

     iteration # 20     ecut=    40.00 Ry     beta=0.70
     Davidson diagonalization with overlap
     ethr =  6.33E-07,  avg # of iterations =  1.0

     negative rho (up, down):  0.312E+01 0.000E+00

     total cpu time spent up to now is     4393.4 secs

     total energy              =   -2106.16564700 Ry
     Harris-Foulkes estimate   =   -2106.16570739 Ry
     estimated scf accuracy    <       0.00020142 Ry

     iteration # 21     ecut=    40.00 Ry     beta=0.70
     Davidson diagonalization with overlap
     ethr =  8.46E-08,  avg # of iterations =  1.8

     negative rho (up, down):  0.312E+01 0.000E+00

     total cpu time spent up to now is     4574.2 secs

     total energy              =   -2106.16557846 Ry
     Harris-Foulkes estimate   =   -2106.16580442 Ry
     estimated scf accuracy    <       0.00166485 Ry

     iteration # 22     ecut=    40.00 Ry     beta=0.70
     Davidson diagonalization with overlap
     ethr =  8.46E-08,  avg # of iterations =  1.0

     negative rho (up, down):  0.312E+01 0.000E+00

     total cpu time spent up to now is     4751.4 secs

     total energy              =   -2106.16568040 Ry
     Harris-Foulkes estimate   =   -2106.16569954 Ry
     estimated scf accuracy    <       0.00010503 Ry

     iteration # 23     ecut=    40.00 Ry     beta=0.70
     Davidson diagonalization with overlap
     ethr =  4.41E-08,  avg # of iterations =  1.0

     negative rho (up, down):  0.312E+01 0.000E+00

     total cpu time spent up to now is     4934.8 secs

     total energy              =   -2106.16568688 Ry
     Harris-Foulkes estimate   =   -2106.16569443 Ry
     estimated scf accuracy    <       0.00003897 Ry

     iteration # 24     ecut=    40.00 Ry     beta=0.70
     Davidson diagonalization with overlap
     ethr =  1.64E-08,  avg # of iterations =  1.0

     negative rho (up, down):  0.312E+01 0.000E+00

     total cpu time spent up to now is     5116.8 secs

     total energy              =   -2106.16568387 Ry
     Harris-Foulkes estimate   =   -2106.16569600 Ry
     estimated scf accuracy    <       0.00008562 Ry

     iteration # 25     ecut=    40.00 Ry     beta=0.70
     Davidson diagonalization with overlap
     ethr =  1.64E-08,  avg # of iterations =  1.0

     negative rho (up, down):  0.312E+01 0.000E+00

     total cpu time spent up to now is     5301.2 secs

     total energy              =   -2106.16568127 Ry
     Harris-Foulkes estimate   =   -2106.16570117 Ry
     estimated scf accuracy    <       0.00023006 Ry

     iteration # 26     ecut=    40.00 Ry     beta=0.70
     Davidson diagonalization with overlap
     ethr =  1.64E-08,  avg # of iterations =  1.0

     negative rho (up, down):  0.312E+01 0.000E+00

     total cpu time spent up to now is     5482.7 secs

     total energy              =   -2106.16569024 Ry
     Harris-Foulkes estimate   =   -2106.16569167 Ry
     estimated scf accuracy    <       0.00000832 Ry

     iteration # 27     ecut=    40.00 Ry     beta=0.70
     Davidson diagonalization with overlap
     ethr =  3.50E-09,  avg # of iterations =  1.0

     negative rho (up, down):  0.312E+01 0.000E+00

     total cpu time spent up to now is     5663.8 secs

     total energy              =   -2106.16568973 Ry
     Harris-Foulkes estimate   =   -2106.16569261 Ry
     estimated scf accuracy    <       0.00003824 Ry

     iteration # 28     ecut=    40.00 Ry     beta=0.70
     Davidson diagonalization with overlap
     ethr =  3.50E-09,  avg # of iterations =  1.0

     negative rho (up, down):  0.312E+01 0.000E+00

     total cpu time spent up to now is     5845.2 secs

     total energy              =   -2106.16569106 Ry
     Harris-Foulkes estimate   =   -2106.16569130 Ry
     estimated scf accuracy    <       0.00000110 Ry

     iteration # 29     ecut=    40.00 Ry     beta=0.70
     Davidson diagonalization with overlap
     ethr =  4.63E-10,  avg # of iterations =  1.0

     negative rho (up, down):  0.312E+01 0.000E+00

     total cpu time spent up to now is     6028.0 secs

     End of self-consistent calculation
 --- enter write_ns ---
 LDA+U parameters:
U( 2)     =  0.00000000
alpha( 2) =  0.00000000
atom    3   Tr[ns(na)] =   8.04350
    eigenvalues: 
  0.605  0.631  0.869  0.948  0.968
    eigenvectors:
  0.003  0.186  0.003  0.001  0.808
  0.990  0.010  0.000  0.000  0.000
  0.000  0.000  0.983  0.014  0.003
  0.007  0.804  0.000  0.000  0.188
  0.000  0.000  0.014  0.984  0.001
    occupations:
  0.904 -0.005  0.004 -0.132 -0.002
 -0.005  0.606 -0.001 -0.000 -0.005
  0.004 -0.001  0.870 -0.004  0.009
 -0.132 -0.000 -0.004  0.695 -0.000
 -0.002 -0.005  0.009 -0.000  0.947
atom    4   Tr[ns(na)] =   8.01880
    eigenvalues: 
  0.618  0.663  0.848  0.903  0.977
    eigenvectors:
  0.000  0.990  0.000  0.000  0.010
  0.000  0.000  0.033  0.967  0.000
  0.000  0.000  0.967  0.033  0.000
  0.000  0.010  0.000  0.000  0.990
  1.000  0.000  0.000  0.000  0.000
    occupations:
  0.666 -0.003 -0.001  0.031  0.001
 -0.003  0.901  0.010  0.000 -0.001
 -0.001  0.010  0.850 -0.000  0.000
  0.031  0.000 -0.000  0.974  0.000
  0.001 -0.001  0.000  0.000  0.618
atom    9   Tr[ns(na)] =   7.99644
    eigenvalues: 
  0.650  0.664  0.835  0.877  0.973
    eigenvectors:
  0.000  0.141  0.000  0.000  0.859
  0.999  0.001  0.000  0.000  0.000
  0.000  0.000  0.977  0.023  0.000
  0.001  0.858  0.000  0.000  0.141
  0.000  0.000  0.023  0.977  0.000
    occupations:
  0.929  0.001 -0.000 -0.107 -0.001
  0.001  0.650  0.000  0.000 -0.000
 -0.000  0.000  0.836 -0.000 -0.006
 -0.107  0.000 -0.000  0.708  0.001
 -0.001 -0.000 -0.006  0.001  0.876
atom   10   Tr[ns(na)] =   8.00452
    eigenvalues: 
  0.597  0.606  0.909  0.915  0.975
    eigenvectors:
  0.992  0.000  0.000  0.000  0.008
  0.000  0.000  0.001  0.999  0.000
  0.000  0.000  0.999  0.001  0.000
  0.008  0.000  0.000  0.000  0.992
  0.000  1.000  0.000  0.000  0.000
    occupations:
  0.600  0.000  0.001  0.034 -0.000
  0.000  0.915 -0.000  0.000 -0.000
  0.001 -0.000  0.909  0.000  0.000
  0.034  0.000  0.000  0.972 -0.000
 -0.000 -0.000  0.000 -0.000  0.606
atom   16   Tr[ns(na)] =   8.04318
    eigenvalues: 
  0.605  0.631  0.869  0.947  0.969
    eigenvectors:
  0.003  0.186  0.003  0.001  0.808
  0.990  0.009  0.000  0.000  0.000
  0.000  0.000  0.986  0.011  0.003
  0.007  0.805  0.000  0.000  0.188
  0.000  0.000  0.011  0.987  0.002
    occupations:
  0.905  0.005  0.004 -0.132  0.001
  0.005  0.606  0.000  0.000 -0.005
  0.004  0.000  0.870 -0.004 -0.008
 -0.132  0.000 -0.004  0.695 -0.000
  0.001 -0.005 -0.008 -0.000  0.947
atom   17   Tr[ns(na)] =   8.01647
    eigenvalues: 
  0.618  0.663  0.851  0.899  0.978
    eigenvectors:
  0.000  0.990  0.000  0.000  0.009
  0.000  0.000  0.050  0.950  0.000
  0.000  0.000  0.950  0.050  0.000
  0.000  0.009  0.000  0.000  0.991
  1.000  0.000  0.000  0.000  0.000
    occupations:
  0.666 -0.003 -0.001  0.030  0.001
 -0.003  0.896  0.010  0.000 -0.001
 -0.001  0.010  0.853 -0.000  0.000
  0.030  0.000 -0.000  0.975  0.000
  0.001 -0.001  0.000  0.000  0.618
atom   22   Tr[ns(na)] =   7.99608
    eigenvalues: 
  0.650  0.664  0.835  0.876  0.973
    eigenvectors:
  0.000  0.141  0.000  0.000  0.859
  1.000  0.000  0.000  0.000  0.000
  0.000  0.000  0.979  0.021  0.000
  0.000  0.859  0.000  0.000  0.141
  0.000  0.000  0.021  0.979  0.000
    occupations:
  0.929  0.000 -0.000 -0.107 -0.000
  0.000  0.650  0.000  0.000 -0.000
 -0.000  0.000  0.836 -0.000  0.006
 -0.107  0.000 -0.000  0.708  0.000
 -0.000 -0.000  0.006  0.000  0.876
atom   23   Tr[ns(na)] =   7.97507
    eigenvalues: 
  0.644  0.708  0.801  0.854  0.981
    eigenvectors:
  0.000  0.991  0.000  0.000  0.009
  0.000  0.000  0.000  1.000  0.000
  0.000  0.000  1.000  0.000  0.000
  0.000  0.009  0.000  0.000  0.991
  1.000  0.000  0.000  0.000  0.000
    occupations:
  0.711  0.000 -0.000  0.026 -0.000
  0.000  0.854 -0.000  0.000 -0.000
 -0.000 -0.000  0.801  0.000  0.000
  0.026  0.000  0.000  0.978  0.000
 -0.000 -0.000  0.000  0.000  0.644
N of occupied +U levels =  64.0940543
 --- exit write_ns ---

          k = 0.0000 0.0000 0.0000 ( 31045 PWs)   bands (ev):

   -52.5008 -52.2069 -52.0863 -51.4941 -51.4877 -51.3931 -51.3583 -51.3443
   -51.3330 -51.2905 -51.2541 -51.1764 -51.1622 -51.1566 -51.1513 -51.1289
   -51.1245 -51.1108 -51.0163 -51.0048 -50.9902 -50.9829 -50.9680 -50.8245
   -21.9444 -21.5734 -21.3475 -21.3335 -20.8031 -20.6683 -20.6036 -20.5814
   -20.4831 -20.4279 -20.3029 -20.2279 -19.9938 -19.9694 -19.9032 -19.7379
   -18.9477 -18.8583 -18.7765 -10.5725 -10.4753 -10.0586  -9.2251  -9.1115
    -9.0357  -8.9842  -8.9482  -8.9117  -8.8830  -8.7900  -8.7063  -8.6674
    -8.4142  -8.3626  -8.2794  -8.2474  -8.1677  -7.9936  -7.8508  -7.5219
    -7.4186  -7.2512  -7.2373  -6.7862  -6.6956  -6.6106  -6.2912  -6.0128
    -5.9460  -5.8996  -5.8888  -5.7253  -5.6766  -5.5743  -5.4845  -5.4511
    -5.3434  -5.2633  -5.2441  -5.1059  -5.0625  -4.8358  -4.8013  -4.7695
    -4.6355  -4.4400  -4.3725  -4.2520  -4.1838  -4.1196  -4.0545  -3.8983
    -3.7395  -3.7252  -3.6114  -3.3856  -3.3741  -3.3657  -3.1431  -3.1340
    -2.8988  -2.8328  -2.7769  -2.6177  -2.5048  -2.4035  -2.2211  -2.0838
    -1.9688  -1.8465  -1.8313  -1.6844  -1.6809  -1.2228  -1.0712  -0.8616
    -0.8210  -0.6495  -0.6089  -0.3391  -0.0785   0.6232   0.9173   1.0410
     1.1564   1.1982   1.3579   1.7912   2.0542   2.3110   2.6489   2.8210
     2.9474   2.9574   3.1026   3.5479   3.7325   4.0442   4.4301   4.9504
     5.1145   5.8486   5.9836   6.0720   6.1319   6.7162   6.8536   7.0751
     7.4291   7.5763   7.6437   7.6727   7.6958   7.7626   7.7691   7.9473
     7.9848   8.0634   8.1266   8.1579   8.2464   8.2532   8.4064   8.4538
     8.4856   8.5706   8.5757   8.5960   8.5965   8.6221   8.6864   8.7000
     8.7421   8.7435   8.7451   8.7837   8.9904   9.0216   9.1447   9.2010
     9.2657   9.2723   9.3740   9.4534   9.5494   9.8271   9.8666   9.8967
    10.0456  10.1962  10.2635  10.3013  10.4489  10.5454  10.6731  10.7099
    10.8794  10.9755  11.0746  11.1320  11.1508  11.1644  11.1907  11.2217
    11.3317  11.5207  11.6195  11.6649  11.7351  11.7760  11.8395  11.9553
    12.0204  12.0647  12.1138  12.1752  12.2001  12.3265  12.3756  12.4121
    12.5088  12.5231  12.5415  12.6325  12.7822  12.8262  12.8680  12.8830
    12.9713  13.1120  13.2160  13.3335  13.4354  13.6566  13.6792  13.7422
    13.7492  13.8940  13.9029  14.0571  14.1385  14.1753  14.3733  14.3805
    14.5022  14.5791  14.6036  14.6315  14.7010  14.8851  14.9460  15.0682
    15.2287  15.3444  15.3726  15.4751  15.5227  15.7038  15.7187  15.7768
    15.8274  15.9643  16.0410  16.0608  16.2190  16.2301  16.3167  16.4573
    16.5551  16.6765  16.7658  16.8609  17.0517  17.1086  17.2227  17.2324
    17.2922  17.3547  17.4006  17.5372  17.6128  17.6171  17.6652  17.8580
    17.9383  17.9631  18.0878  18.2463  18.3296  18.4298  18.5191  18.5337
    18.6182  18.6468  18.7443  18.7811  18.8996  18.9510  19.0273  19.0555
    19.1058  19.1766  19.2121  19.2577  19.2893  19.3994  19.4603  19.4912
    19.6191  19.6701  19.6821  19.7471  19.8019  19.8365  19.8732  19.8776
    19.9144  20.0234  20.0304  20.1135  20.2709  20.3275  20.4502  20.4588
    20.4965  20.5334  20.5977  20.6871  20.7358  20.7765  20.8687  20.9497
    21.0550  21.1032  21.1885  21.2253  21.2779  21.3473  21.3964  21.5436
    21.5654  21.6678  21.6796  21.7480  21.7935  21.8856  21.9186  21.9798
    21.9829  22.0919  22.1633  22.1905  22.2480

          k = 0.0000 0.2476 0.0000 ( 31078 PWs)   bands (ev):

   -52.5009 -52.2070 -52.0862 -51.4941 -51.4878 -51.3935 -51.3583 -51.3444
   -51.3330 -51.2904 -51.2541 -51.1723 -51.1620 -51.1567 -51.1515 -51.1297
   -51.1278 -51.1101 -51.0164 -51.0048 -50.9902 -50.9829 -50.9680 -50.8246
   -21.8656 -21.4608 -21.3437 -21.3162 -20.8036 -20.7557 -20.7229 -20.6464
   -20.3660 -20.3363 -20.2976 -20.2478 -20.0936 -20.0667 -19.9594 -19.7388
   -18.9365 -18.8644 -18.7775 -10.1336 -10.0833  -9.9177  -9.4828  -9.2078
    -9.0489  -8.9852  -8.9733  -8.8965  -8.8472  -8.7686  -8.6922  -8.5684
    -8.3722  -8.3287  -8.2848  -8.2487  -8.1114  -7.7470  -7.5608  -7.3906
    -7.3392  -7.2416  -6.9128  -6.8359  -6.8067  -6.6842  -6.5642  -6.3974
    -6.3811  -6.2613  -6.0183  -5.8789  -5.8749  -5.7825  -5.6224  -5.4775
    -5.4322  -5.3090  -5.2983  -5.2154  -5.1399  -4.9634  -4.7619  -4.6948
    -4.6597  -4.5652  -4.4578  -4.2892  -4.2485  -4.1622  -4.0904  -4.0731
    -3.7483  -3.5801  -3.3961  -3.3635  -3.2358  -2.9198  -2.9090  -2.8303
    -2.8141  -2.7539  -2.6673  -2.6128  -2.6041  -2.5509  -2.4635  -2.3967
    -2.2420  -1.8359  -1.6945  -1.6766  -1.6528  -1.1185  -0.9305  -0.8804
    -0.7242  -0.5556  -0.5290  -0.3939  -0.2529   0.2101   0.4175   0.9051
     1.1820   1.3720   1.8735   2.3014   2.5622   2.6004   2.7004   2.8420
     2.9360   3.0295   3.1492   3.5508   3.6497   4.2024   4.6316   5.1191
     5.2636   5.3408   6.0498   6.2065   6.2216   6.4351   6.5314   6.8372
     6.8970   6.9871   7.1919   7.5263   7.5826   7.6112   7.6438   7.7573
     8.0371   8.1005   8.2035   8.2364   8.2636   8.3536   8.4646   8.5127
     8.5666   8.5734   8.5763   8.5963   8.5975   8.6794   8.7422   8.7437
     8.7475   8.8048   8.8772   8.9810   9.0798   9.1854   9.2377   9.3436
     9.3835   9.4490   9.5917   9.6653   9.7514   9.7629   9.8394  10.0212
    10.1714  10.2428  10.3155  10.3613  10.4244  10.4584  10.5221  10.6188
    10.6667  10.7580  10.8356  10.8674  11.0057  11.0260  11.1554  11.2606
    11.3469  11.3612  11.4459  11.5667  11.6758  11.6917  11.7665  11.8939
    12.0670  12.1556  12.2176  12.3748  12.4408  12.5041  12.5571  12.5857
    12.6998  12.8000  12.8819  12.9379  12.9542  12.9791  13.1628  13.2402
    13.2799  13.5674  13.6133  13.7429  13.8119  13.8301  13.8714  14.0246
    14.0376  14.1105  14.1552  14.1862  14.3266  14.4530  14.4764  14.5925
    14.6085  14.6909  14.7889  14.8288  14.8797  14.9542  14.9978  15.1847
    15.3434  15.3774  15.4456  15.6090  15.6542  15.7550  15.7821  15.8996
    15.9312  16.0180  16.0592  16.1736  16.2174  16.2492  16.2963  16.3651
    16.3980  16.4598  16.5296  16.6378  16.7162  16.8075  16.9105  16.9993
    17.0420  17.0611  17.1405  17.2400  17.2758  17.3744  17.3869  17.4891
    17.5466  17.6217  17.7058  17.7326  18.0636  18.1163  18.1465  18.2880
    18.4457  18.5044  18.5215  18.5606  18.6789  18.7326  18.8017  18.8896
    18.9083  18.9642  19.0619  19.0851  19.1507  19.2674  19.3125  19.3810
    19.4130  19.5170  19.5413  19.5458  19.6302  19.6508  19.7094  19.7304
    19.7857  19.8349  19.9162  19.9529  20.0236  20.0584  20.1167  20.1391
    20.1764  20.2132  20.3358  20.3657  20.4077  20.4638  20.7351  20.7667
    20.8190  20.8337  20.8948  20.9231  20.9627  21.0052  21.0279  21.0641
    21.0962  21.1775  21.2166  21.2761  21.3826  21.4452  21.5140  21.5808
    21.6228  21.7353  21.7838  21.8071  21.8520

          k = 0.0000-0.4953 0.0000 ( 31160 PWs)   bands (ev):

   -52.5009 -52.2070 -52.0861 -51.4941 -51.4879 -51.3939 -51.3583 -51.3443
   -51.3330 -51.2903 -51.2541 -51.1675 -51.1619 -51.1568 -51.1509 -51.1354
   -51.1278 -51.1095 -51.0164 -51.0048 -50.9902 -50.9829 -50.9680 -50.8248
   -21.7772 -21.3436 -21.3238 -21.2606 -20.8144 -20.7940 -20.7906 -20.7799
   -20.3502 -20.2992 -20.2874 -20.2533 -20.1885 -20.1652 -19.9691 -19.7396
   -18.9217 -18.8744 -18.7792 -10.0812  -9.6497  -9.4355  -9.3090  -9.2334
    -8.9840  -8.9557  -8.9338  -8.9238  -8.7713  -8.6375  -8.5847  -8.4890
    -8.3850  -8.3221  -8.2897  -8.2522  -8.0787  -7.6101  -7.5780  -7.4897
    -7.4194  -7.3479  -7.3337  -7.1012  -6.9249  -6.7623  -6.5482  -6.4209
    -6.3696  -6.2942  -6.1957  -6.1736  -6.0793  -5.9466  -5.9368  -5.8235
    -5.4230  -5.3215  -5.2194  -5.1986  -5.1503  -4.8384  -4.7308  -4.6122
    -4.5594  -4.5096  -4.3920  -4.3618  -4.3289  -4.2465  -4.1797  -4.0987
    -3.7110  -3.6239  -3.4664  -3.3112  -3.2317  -3.1653  -3.1614  -2.8186
    -2.7933  -2.6087  -2.5999  -2.5001  -2.4935  -2.4166  -2.3819  -2.2505
    -2.1414  -1.7260  -1.7152  -1.5869  -1.5426  -1.4111  -1.1581  -0.7851
    -0.7107  -0.4939  -0.4000  -0.3639  -0.2935  -0.2015   0.0264   1.0021
     1.2022   1.9253   2.1107   2.2965   2.3831   2.5626   2.9913   3.0849
     3.1028   3.1763   3.4137   3.5543   3.8614   4.3869   4.7589   5.2520
     5.3393   5.4548   5.7254   5.9272   5.9561   6.0697   6.3766   6.5906
     6.7106   6.8681   7.0533   7.1314   7.2077   7.5977   7.6438   7.8174
     8.0210   8.2185   8.2739   8.3640   8.4936   8.5423   8.5442   8.5625
     8.5723   8.5799   8.5964   8.5965   8.7382   8.7405   8.7473   8.7526
     8.9063   8.9999   9.0042   9.1154   9.1257   9.1390   9.1777   9.2480
     9.3255   9.3900   9.4336   9.4852   9.6112   9.6718   9.6869   9.9092
     9.9285  10.0381  10.1506  10.1707  10.2785  10.3018  10.3100  10.3191
    10.5070  11.0751  11.1137  11.1309  11.1743  11.2709  11.2923  11.3885
    11.5252  11.6248  11.7373  11.8171  11.9070  12.0331  12.1477  12.1690
    12.3099  12.3793  12.4031  12.4603  12.5261  12.5930  12.6889  12.7919
    12.8258  13.0007  13.0806  13.1387  13.1865  13.2473  13.2644  13.2803
    13.3908  13.4329  13.4894  13.5607  13.5959  13.6641  13.8362  13.8661
    14.0132  14.1663  14.2694  14.4374  14.5151  14.6570  14.7196  14.7390
    14.8494  14.8980  14.9329  15.1499  15.1636  15.2758  15.3739  15.4265
    15.4653  15.5027  15.6449  15.7164  15.7888  15.8089  15.9600  15.9680
    16.0426  16.1274  16.1533  16.2425  16.2707  16.3798  16.4374  16.4650
    16.5039  16.5310  16.6260  16.6471  16.7401  16.7463  16.7647  16.7814
    16.9010  16.9443  17.0035  17.0585  17.1326  17.2000  17.2463  17.2804
    17.4867  17.5440  17.5555  17.6407  17.7072  17.7688  17.8086  17.9026
    17.9528  18.0214  18.0293  18.0487  18.1772  18.2826  18.3052  18.3656
    18.3781  18.4902  18.5148  18.5531  18.6126  18.7081  18.7728  18.9716
    19.0127  19.0567  19.1984  19.2187  19.3076  19.3939  19.4560  19.5851
    19.6170  19.6765  19.7454  19.8154  19.8651  19.9044  20.0475  20.1288
    20.1935  20.2455  20.3060  20.3263  20.4378  20.4588  20.4783  20.5031
    20.5243  20.5507  20.6000  20.6644  20.7299  20.7577  20.8716  20.8820
    20.9394  20.9611  20.9826  21.0318  21.0785  21.1210  21.1285  21.2185
    21.2372  21.2602  21.3036  21.3700  21.4314

          k = 0.2500 0.0000 0.0000 ( 31106 PWs)   bands (ev):

   -52.5009 -52.2059 -52.0863 -51.4931 -51.4886 -51.3791 -51.3464 -51.3426
   -51.3320 -51.3042 -51.2692 -51.1743 -51.1635 -51.1563 -51.1552 -51.1277
   -51.1242 -51.0973 -51.0301 -51.0029 -50.9925 -50.9807 -50.9702 -50.8245
   -21.8289 -21.4643 -21.3725 -21.2446 -20.9381 -20.7579 -20.7254 -20.4980
   -20.4133 -20.3579 -20.2761 -20.2525 -20.0529 -19.9905 -19.9478 -19.7690
   -18.9607 -18.8928 -18.8287 -10.3972 -10.2950  -9.9256  -9.4029  -9.3172
    -9.2319  -8.9831  -8.9742  -8.8734  -8.8312  -8.6933  -8.6370  -8.4648
    -8.3456  -8.2850  -8.1203  -8.0723  -7.9995  -7.9825  -7.7875  -7.5845
    -7.3262  -7.2935  -7.0241  -6.8474  -6.5943  -6.4790  -6.3957  -6.3212
    -6.2291  -6.1377  -6.0051  -5.9446  -5.9050  -5.7975  -5.7645  -5.6197
    -5.3913  -5.3068  -5.2600  -5.1952  -5.0133  -5.0030  -4.9621  -4.8130
    -4.7541  -4.6859  -4.5222  -4.4698  -4.4319  -4.2170  -4.0694  -3.8331
    -3.6901  -3.5928  -3.5305  -3.4377  -3.4204  -3.0337  -2.9123  -2.8010
    -2.7738  -2.6353  -2.4858  -2.4105  -2.3111  -2.2640  -2.0070  -1.9800
    -1.9505  -1.8806  -1.6420  -1.5050  -1.3733  -1.3232  -1.1325  -1.0414
    -0.8797  -0.7903  -0.5540  -0.4230  -0.2231   0.8084   1.1124   1.1582
     1.3355   1.3985   1.4820   1.7839   1.9124   2.0764   2.5761   2.6896
     2.7059   2.9209   2.9892   3.2294   3.6549   4.3150   4.6603   5.1596
     5.1801   5.3636   6.0522   6.1163   6.3909   6.4062   6.6967   6.8708
     7.1208   7.2148   7.3372   7.4592   7.6437   7.7283   7.8529   7.8953
     7.9544   7.9944   8.0532   8.1877   8.2450   8.3133   8.3665   8.5706
     8.5760   8.5964   8.5967   8.6860   8.7231   8.7405   8.7430   8.7467
     8.7575   8.8672   8.9003   8.9766   9.1433   9.2033   9.2315   9.2770
     9.4458   9.4699   9.5707   9.6771   9.8078   9.9789  10.0640  10.1125
    10.1434  10.2402  10.2702  10.3441  10.4205  10.4827  10.5212  10.6008
    10.6611  10.7473  10.7751  10.8214  10.9721  11.1163  11.2100  11.2366
    11.2767  11.2869  11.3403  11.4281  11.5043  11.5972  11.6587  11.7803
    11.9114  11.9698  12.1073  12.1678  12.3512  12.4721  12.5295  12.5777
    12.6158  12.6485  12.8058  12.8878  12.9788  13.1289  13.2839  13.3263
    13.4446  13.5363  13.6654  13.7905  13.8962  13.9363  13.9630  14.0126
    14.0526  14.1069  14.1559  14.2065  14.2530  14.3067  14.3839  14.4865
    14.5183  14.5918  14.6491  14.7132  14.7683  14.8953  14.9826  15.0165
    15.0732  15.2825  15.3195  15.3861  15.4914  15.6234  15.6748  15.7464
    15.7982  15.8803  15.9816  16.0466  16.1131  16.1794  16.2758  16.3179
    16.3275  16.3595  16.4527  16.4938  16.6959  16.7616  16.7892  17.0542
    17.1235  17.2071  17.3005  17.3702  17.4159  17.5273  17.5750  17.6960
    17.7387  17.9158  17.9516  18.0033  18.0797  18.2218  18.2639  18.2761
    18.4595  18.5341  18.6177  18.8220  18.8583  18.9690  19.0656  19.1053
    19.1403  19.1869  19.2588  19.3168  19.3379  19.3846  19.4403  19.4760
    19.4874  19.5590  19.6052  19.6580  19.7114  19.7767  19.7875  19.8094
    19.8358  19.8715  19.9444  19.9633  20.0963  20.1289  20.1783  20.2009
    20.2628  20.3035  20.3433  20.4221  20.4606  20.4910  20.5399  20.5785
    20.6302  20.7429  20.8166  20.8653  20.9276  21.0124  21.0305  21.0641
    21.1792  21.2470  21.2992  21.3388  21.4137  21.4361  21.4968  21.5675
    21.6028  21.6473  21.6902  21.7182  21.8498

          k = 0.2500 0.2476 0.0000 ( 31099 PWs)   bands (ev):

   -52.5009 -52.2059 -52.0862 -51.4932 -51.4887 -51.3793 -51.3464 -51.3426
   -51.3320 -51.3044 -51.2691 -51.1703 -51.1634 -51.1564 -51.1542 -51.1296
   -51.1272 -51.0968 -51.0301 -51.0029 -50.9925 -50.9807 -50.9702 -50.8246
   -21.7623 -21.3740 -21.3535 -21.2067 -20.9116 -20.7651 -20.7138 -20.5687
   -20.4480 -20.4082 -20.2774 -20.2347 -20.1525 -20.1291 -19.9374 -19.7693
   -18.9481 -18.8988 -18.8325  -9.9727  -9.9320  -9.7819  -9.4475  -9.2322
    -9.0111  -8.9894  -8.8816  -8.8605  -8.8111  -8.7383  -8.6436  -8.5517
    -8.4185  -8.2500  -8.1739  -8.0381  -7.8992  -7.8359  -7.5809  -7.5508
    -7.3696  -7.3220  -7.1232  -6.8208  -6.6704  -6.5779  -6.4992  -6.4441
    -6.3912  -6.2577  -6.2193  -6.1807  -6.1247  -6.0781  -5.8989  -5.7871
    -5.6335  -5.5808  -5.4461  -5.2654  -5.1751  -5.0417  -4.9451  -4.8304
    -4.6736  -4.6020  -4.5668  -4.3904  -4.3226  -4.2302  -4.1323  -3.8973
    -3.6056  -3.5408  -3.4306  -3.3916  -3.1261  -2.7671  -2.7254  -2.6434
    -2.6074  -2.5799  -2.5194  -2.4327  -2.3681  -2.2900  -2.2549  -2.1825
    -1.9801  -1.8017  -1.6759  -1.5204  -1.3378  -1.1919  -1.0115  -0.9545
    -0.8769  -0.7518  -0.6591  -0.4483  -0.2477   0.4548   0.6513   0.9940
     1.3617   1.4512   1.8156   1.9276   2.2926   2.4316   2.4725   2.6422
     2.7980   3.0267   3.0585   3.5250   3.5959   4.5052   4.8671   5.3219
     5.3459   5.5164   5.5868   6.1647   6.4564   6.5675   6.6785   6.7858
     6.9149   6.9934   7.1907   7.2743   7.3126   7.3593   7.5337   7.6438
     7.8215   7.8673   7.9358   8.0189   8.1311   8.2390   8.3810   8.4306
     8.5557   8.5711   8.5763   8.5963   8.5966   8.6905   8.7416   8.7445
     8.7469   8.8095   8.8842   8.9312   9.0457   9.0793   9.2341   9.3397
     9.4451   9.5852   9.6343   9.7212   9.8080   9.9125  10.0081  10.1022
    10.2195  10.2725  10.4097  10.4201  10.5005  10.5710  10.6491  10.7691
    10.9275  10.9354  11.0586  11.0934  11.1628  11.2832  11.4069  11.5558
    11.6119  11.6509  11.7425  11.7994  11.8306  12.0178  12.0487  12.1602
    12.2256  12.2482  12.3897  12.4617  12.5428  12.6256  12.6864  12.7278
    12.8163  12.8352  12.8678  12.9356  13.0325  13.0642  13.1460  13.1953
    13.2295  13.4250  13.4539  13.5028  13.6140  13.7895  13.8515  13.8987
    14.0280  14.0597  14.1651  14.2309  14.2960  14.3805  14.4570  14.5756
    14.6395  14.7601  14.8184  14.9313  15.0383  15.1283  15.1781  15.2400
    15.3182  15.3984  15.5582  15.6089  15.6514  15.7426  15.7800  15.8690
    15.9131  15.9984  16.0351  16.1149  16.1426  16.2153  16.2830  16.3502
    16.3950  16.4194  16.5157  16.5644  16.6365  16.7018  16.7423  16.7895
    16.8501  17.0094  17.0726  17.1569  17.2526  17.2977  17.3537  17.4284
    17.4759  17.5472  17.6037  17.6389  17.7029  17.7656  17.8393  17.9077
    17.9604  18.0338  18.0698  18.1791  18.2016  18.2425  18.4020  18.4408
    18.4985  18.5680  18.6444  18.6737  18.7648  18.8706  18.9557  19.0035
    19.0417  19.0811  19.1447  19.2006  19.2646  19.3180  19.3999  19.4759
    19.5648  19.6372  19.6886  19.7379  19.8285  19.9124  19.9508  20.0048
    20.1019  20.2641  20.3266  20.4222  20.4398  20.4895  20.5690  20.6320
    20.7245  20.7406  20.7987  20.8257  20.8765  20.8988  20.9694  21.0910
    21.1949  21.2753  21.3836  21.4349  21.4661  21.5057  21.5704  21.6686
    21.7556  21.7912  21.8348  21.8719  21.8970

          k = 0.2500-0.4953 0.0000 ( 31088 PWs)   bands (ev):

   -52.5009 -52.2060 -52.0861 -51.4932 -51.4888 -51.3797 -51.3464 -51.3426
   -51.3320 -51.3043 -51.2691 -51.1668 -51.1632 -51.1564 -51.1518 -51.1342
   -51.1287 -51.0964 -51.0301 -51.0029 -50.9925 -50.9807 -50.9702 -50.8248
   -21.6924 -21.3654 -21.1997 -21.1555 -20.8632 -20.7732 -20.7187 -20.6933
   -20.4788 -20.4696 -20.3717 -20.2321 -20.2152 -20.1945 -19.9388 -19.7693
   -18.9221 -18.9183 -18.8367  -9.9338  -9.4920  -9.1311  -9.0695  -9.0487
    -9.0228  -8.9516  -8.8336  -8.8175  -8.7823  -8.7075  -8.6809  -8.5813
    -8.4731  -8.3348  -8.2226  -8.0419  -7.7692  -7.6609  -7.5295  -7.4552
    -7.3721  -7.2899  -7.2200  -7.1806  -7.1650  -7.0713  -6.8629  -6.6702
    -6.5470  -6.4250  -6.3823  -6.3114  -6.2437  -6.0898  -5.9391  -5.8685
    -5.7753  -5.6542  -5.5715  -5.2605  -5.1125  -5.0598  -4.9473  -4.8359
    -4.7044  -4.5064  -4.4638  -4.3560  -4.2749  -4.0471  -3.9568  -3.8766
    -3.8122  -3.5754  -3.3940  -3.2165  -3.0887  -3.0383  -2.8722  -2.6735
    -2.5466  -2.5118  -2.4567  -2.4143  -2.3319  -2.2529  -1.9991  -1.9791
    -1.9171  -1.6809  -1.5948  -1.5409  -1.3664  -1.2923  -1.1955  -0.8366
    -0.8260  -0.7128  -0.5975  -0.5651  -0.1493   0.0066   0.2257   1.0504
     1.3812   1.7460   1.8117   1.9460   2.0752   2.3183   2.9096   2.9450
     2.9724   3.1575   3.1816   3.3283   4.1471   4.6670   4.9458   5.5101
     5.6161   5.6273   5.7550   5.9894   6.1984   6.2255   6.3491   6.3919
     6.7438   6.9582   7.1433   7.2261   7.3173   7.4082   7.4832   7.6075
     7.6438   7.7198   7.8982   7.9906   7.9980   8.0673   8.1690   8.2797
     8.3695   8.5318   8.5712   8.5764   8.5964   8.5964   8.6798   8.7409
     8.7429   8.7477   8.8015   8.8344   8.8706   9.0272   9.2444   9.4197
     9.4305   9.5030   9.5335   9.6457   9.7294   9.7606   9.9443  10.0882
    10.2312  10.2936  10.3850  10.4562  10.4998  10.9837  11.0852  11.1332
    11.2010  11.3031  11.3602  11.4673  11.5555  11.6110  11.7110  11.7252
    11.7729  11.8514  11.9474  12.0148  12.1504  12.1763  12.2866  12.2940
    12.4293  12.4603  12.5554  12.5901  12.6961  12.7392  12.7902  12.8649
    12.9719  13.0644  13.1990  13.2434  13.3197  13.3272  13.3793  13.3882
    13.5621  13.6008  13.6337  13.6965  13.7094  13.8923  13.9177  13.9287
    14.0357  14.2987  14.3421  14.4474  14.4616  14.5465  14.5565  14.5812
    14.6345  14.6985  14.7640  14.8640  14.8810  14.9557  15.0069  15.0728
    15.1110  15.1682  15.2392  15.3158  15.3952  15.4231  15.5409  15.5569
    15.6389  15.7692  15.8679  16.0145  16.1051  16.1211  16.1638  16.2356
    16.3275  16.3819  16.4374  16.5207  16.5530  16.6241  16.6630  16.7097
    16.7566  16.8484  16.9334  17.0114  17.0609  17.0866  17.1456  17.2284
    17.2787  17.3056  17.3395  17.3940  17.4840  17.5542  17.5996  17.6899
    17.8681  17.9194  17.9630  17.9789  18.0684  18.1945  18.2813  18.3054
    18.3818  18.4608  18.5276  18.5765  18.6283  18.6790  18.6904  18.7541
    18.8360  18.9347  18.9641  19.0398  19.0607  19.1625  19.1731  19.2435
    19.3412  19.3556  19.4197  19.4490  19.5980  19.6077  19.6620  19.7109
    19.7619  19.8752  19.9280  19.9607  20.0115  20.1524  20.2662  20.4084
    20.4854  20.5199  20.6313  20.6832  20.7221  20.7891  20.8265  20.9508
    21.0439  21.0627  21.1176  21.1500  21.2215  21.2729  21.3653  21.5115
    21.5825  21.6396  21.6993  21.7881  21.8227

          k =-0.5000 0.0000 0.0000 ( 31104 PWs)   bands (ev):

   -52.5009 -52.2048 -52.0863 -51.4913 -51.4905 -51.3539 -51.3424 -51.3393
   -51.3280 -51.3049 -51.3048 -51.1708 -51.1648 -51.1602 -51.1561 -51.1267
   -51.1241 -51.0650 -51.0628 -50.9990 -50.9967 -50.9756 -50.9754 -50.8245
   -21.5999 -21.5122 -21.2121 -21.2056 -21.0123 -21.0121 -20.8202 -20.3426
   -20.3396 -20.2759 -20.2423 -20.2306 -20.1791 -20.1732 -19.8670 -19.8513
   -18.9749 -18.9270 -18.8819  -9.9701  -9.8880  -9.8161  -9.8124  -9.6920
    -9.5220  -8.9028  -8.8526  -8.8460  -8.7979  -8.7093  -8.6778  -8.4556
    -8.4458  -7.9790  -7.9337  -7.7766  -7.7336  -7.4936  -7.4595  -7.3799
    -7.2788  -7.2545  -7.2167  -7.0497  -7.0227  -6.7611  -6.6968  -6.4938
    -6.3605  -6.3265  -6.2869  -6.0846  -5.8342  -5.7301  -5.7032  -5.6595
    -5.6010  -5.5915  -5.5781  -5.4325  -5.3040  -5.2430  -5.0405  -4.8422
    -4.7598  -4.7020  -4.5901  -4.5149  -4.3931  -4.0486  -3.9391  -3.8483
    -3.6911  -3.6181  -3.5939  -3.3743  -3.2882  -2.9503  -2.7749  -2.7730
    -2.6749  -2.4554  -2.3711  -2.2209  -2.0637  -1.9814  -1.9596  -1.8701
    -1.8207  -1.6900  -1.4362  -1.3822  -1.2552  -1.2325  -1.2213  -1.1005
    -1.0636  -0.9769  -0.5881  -0.5788  -0.2705   1.1852   1.3152   1.3556
     1.4749   1.5280   1.7600   1.9613   1.9627   2.0115   2.0255   2.0556
     2.0651   2.9026   3.0288   3.3349   4.0822   4.1038   4.9092   5.2731
     5.3137   5.5531   5.7924   6.0027   6.0234   6.0875   6.6181   6.6710
     6.7101   7.0262   7.0641   7.2464   7.6438   7.7492   7.9050   7.9319
     8.1792   8.2252   8.3296   8.3578   8.4470   8.5701   8.5763   8.5897
     8.5968   8.5970   8.6943   8.7389   8.7425   8.7442   8.7481   8.9089
     8.9230   9.0181   9.0683   9.0848   9.1773   9.2844   9.3271   9.4363
     9.4686   9.4884   9.5157   9.5360   9.6008   9.6897   9.7018   9.7984
     9.8469   9.9882  10.1044  10.1326  10.1769  10.1924  10.3786  10.4054
    10.5983  10.7042  11.0028  11.0510  11.0686  11.1345  11.2342  11.2685
    11.5754  11.6098  11.6791  11.8364  11.8527  11.8913  11.9173  11.9771
    12.0724  12.2294  12.3310  12.4047  12.5839  12.6588  12.8371  12.8499
    12.8904  12.9200  12.9639  13.0219  13.0965  13.1914  13.2224  13.3127
    13.4006  13.4552  13.4658  13.5115  13.5633  13.6467  13.7322  13.7708
    13.8204  14.0599  14.0817  14.1189  14.1397  14.2371  14.3881  14.4859
    14.5060  14.6451  14.6940  14.7804  14.8617  14.9760  15.0919  15.1632
    15.2659  15.2806  15.3859  15.4657  15.8508  15.9714  15.9739  16.0719
    16.1480  16.1592  16.1687  16.1943  16.3467  16.3750  16.3938  16.4311
    16.5619  16.5995  16.6979  16.7235  16.7607  16.7742  16.7917  16.7991
    16.8631  16.8931  16.9386  16.9930  17.1721  17.2288  17.3158  17.5443
    17.6104  17.6960  17.7377  17.7526  17.9123  17.9893  18.1007  18.1428
    18.1672  18.3340  18.3647  18.3757  18.4468  18.5301  18.5696  18.7429
    18.7565  18.8237  18.8654  18.8798  18.9123  18.9949  19.1072  19.1507
    19.1763  19.2833  19.3045  19.4454  19.5237  19.5271  19.6110  19.6633
    19.7023  19.8242  19.8350  19.9882  20.0401  20.0715  20.1039  20.1100
    20.1820  20.2100  20.2538  20.2881  20.3402  20.3989  20.4813  20.4923
    20.5264  20.6509  20.6703  20.7358  20.7503  20.7963  20.8782  20.9187
    21.0179  21.0349  21.0991  21.1083  21.1339  21.1920  21.2012  21.2497
    21.3029  21.3606  21.4021  21.4670  21.4822

          k =-0.5000 0.2476 0.0000 ( 31120 PWs)   bands (ev):

   -52.5009 -52.2048 -52.0862 -51.4911 -51.4908 -51.3541 -51.3425 -51.3394
   -51.3282 -51.3049 -51.3048 -51.1684 -51.1646 -51.1570 -51.1561 -51.1293
   -51.1269 -51.0648 -51.0626 -50.9990 -50.9967 -50.9756 -50.9754 -50.8247
   -21.5705 -21.4809 -21.1376 -21.1114 -20.9344 -20.9311 -20.8225 -20.4908
   -20.4379 -20.3193 -20.3174 -20.2649 -20.2562 -20.2156 -19.8635 -19.8480
   -18.9609 -18.9258 -18.8944  -9.6856  -9.5827  -9.5415  -9.5012  -9.4468
    -9.4443  -8.8675  -8.8527  -8.8353  -8.7128  -8.6583  -8.5638  -8.3610
    -8.3558  -8.0369  -8.0205  -7.8367  -7.7761  -7.7253  -7.6738  -7.5931
    -7.5333  -7.3089  -7.1971  -7.1032  -7.0025  -6.7751  -6.6540  -6.5120
    -6.4272  -6.3325  -6.3238  -6.2035  -6.0201  -6.0008  -5.9601  -5.9458
    -5.9336  -5.7930  -5.7306  -5.4682  -5.4436  -5.1598  -5.0977  -4.8285
    -4.7931  -4.7097  -4.5792  -4.4969  -4.3508  -4.1898  -3.8611  -3.7795
    -3.6824  -3.6031  -3.4479  -3.3347  -2.8773  -2.8064  -2.5991  -2.5516
    -2.4420  -2.3429  -2.3341  -2.2828  -2.1874  -2.1588  -2.0181  -1.9815
    -1.6476  -1.6157  -1.4153  -1.3496  -1.2293  -1.1871  -1.1648  -1.0977
    -1.0677  -1.0371  -0.7495  -0.6706  -0.1475   0.9263   1.1582   1.2769
     1.3232   1.3818   1.4173   1.8005   1.8635   2.1598   2.2820   2.4981
     2.5169   2.8482   3.0939   3.4360   4.3216   4.3382   5.0130   5.5060
     5.5317   5.7911   5.9450   6.0414   6.1782   6.2558   6.3227   6.3526
     6.7478   7.0618   7.1709   7.2798   7.3250   7.4285   7.4591   7.6139
     7.6438   7.8682   7.9339   7.9716   8.0303   8.0692   8.3524   8.3927
     8.5476   8.5724   8.5760   8.5960   8.5968   8.6140   8.7187   8.7415
     8.7432   8.7474   8.7704   8.9247   8.9742   9.0715   9.2424   9.3824
     9.5175   9.5958   9.6677   9.7341   9.7582   9.8911   9.9785  10.1676
    10.1724  10.2279  10.4006  10.4306  10.7522  10.7858  10.8880  10.9597
    11.1125  11.1238  11.2897  11.3163  11.4347  11.5245  11.5546  11.5937
    11.6833  11.7347  11.9206  11.9439  12.0987  12.1690  12.2615  12.3179
    12.4312  12.4845  12.4951  12.5511  12.6513  12.8661  12.9750  12.9976
    13.0990  13.1253  13.1537  13.2025  13.3019  13.3280  13.4069  13.4685
    13.4877  13.6162  13.6712  13.7243  13.7511  13.8178  13.8517  13.8723
    13.9516  14.0029  14.2377  14.2538  14.3159  14.3675  14.4371  14.4690
    14.5184  14.5871  14.5951  14.7407  14.8069  14.8519  14.9328  14.9946
    15.0401  15.0864  15.1961  15.2425  15.3006  15.3353  15.4499  15.5524
    15.6552  15.6848  15.8567  15.9596  16.0629  16.1472  16.2132  16.3323
    16.3544  16.4016  16.4325  16.4994  16.5595  16.5862  16.6927  16.7512
    16.7654  16.8143  16.8987  16.9761  17.0037  17.0544  17.1560  17.2349
    17.2933  17.4441  17.4634  17.5329  17.6277  17.7103  17.7744  17.8330
    17.8718  17.9030  18.0201  18.0506  18.1177  18.2550  18.3724  18.4429
    18.4900  18.5087  18.6026  18.6377  18.6478  18.7733  18.8063  18.8687
    18.9314  19.0008  19.0127  19.1212  19.1355  19.1980  19.2270  19.4079
    19.4312  19.4817  19.5229  19.6301  19.6882  19.7248  19.8210  19.8380
    19.9433  20.0408  20.0735  20.1605  20.2548  20.2631  20.3112  20.3939
    20.4633  20.5367  20.5757  20.7212  20.7563  20.8439  20.8760  20.9350
    20.9695  21.1569  21.2364  21.3017  21.3848  21.4729  21.5209  21.6093
    21.6529  21.6772  21.7177  21.8194  21.8389

          k =-0.5000-0.4953 0.0000 ( 31140 PWs)   bands (ev):

   -52.5009 -52.2049 -52.0861 -51.4913 -51.4907 -51.3543 -51.3425 -51.3395
   -51.3283 -51.3049 -51.3048 -51.1657 -51.1645 -51.1560 -51.1531 -51.1323
   -51.1305 -51.0647 -51.0624 -50.9990 -50.9967 -50.9756 -50.9754 -50.8248
   -21.5427 -21.4526 -21.0128 -20.8892 -20.8835 -20.8778 -20.6806 -20.6485
   -20.6384 -20.5550 -20.4967 -20.2649 -20.2463 -20.2273 -19.8621 -19.8470
   -18.9317 -18.9248 -18.9224  -9.6719  -9.4891  -9.0318  -8.8839  -8.8668
    -8.8503  -8.8356  -8.7661  -8.7433  -8.6932  -8.5329  -8.4508  -8.3818
    -8.3560  -8.2088  -8.1780  -8.1461  -8.1099  -8.0528  -8.0098  -7.7205
    -7.5352  -7.2460  -7.2038  -6.9587  -6.8781  -6.7780  -6.7389  -6.7201
    -6.7068  -6.6071  -6.5884  -6.5632  -6.4564  -6.3575  -6.2362  -6.1800
    -6.0763  -5.9299  -5.7939  -5.4153  -5.2112  -5.0761  -4.9849  -4.8463
    -4.6795  -4.6528  -4.5952  -4.3747  -4.2887  -4.1634  -3.8978  -3.6870
    -3.5689  -3.4352  -3.3919  -3.2520  -2.8957  -2.7930  -2.6460  -2.6093
    -2.5817  -2.3334  -2.3073  -2.1962  -2.0918  -1.9995  -1.9010  -1.8720
    -1.5395  -1.4617  -1.3860  -1.3419  -1.2886  -1.1882  -1.1206  -1.0775
    -0.9708  -0.9253  -0.8818  -0.8302  -0.0547   0.4713   0.8715   0.8826
     1.0156   1.2908   1.4101   1.9147   1.9278   2.4562   2.5610   2.6140
     2.7345   3.1540   3.1618   3.2116   4.7625   4.7883   5.1928   5.3760
     5.3794   6.1941   6.2053   6.3390   6.3428   6.4005   6.4566   6.5941
     6.6920   6.8348   6.8598   6.9267   6.9739   7.0336   7.0595   7.0721
     7.4995   7.5695   7.6437   7.7079   7.8137   7.8798   7.9585   8.0423
     8.1673   8.4634   8.5709   8.5763   8.5964   8.5964   8.7153   8.7422
     8.7453   8.7475   8.8571   8.9516   8.9771   9.1440   9.1560   9.2610
     9.3380   9.3658   9.8749   9.9379   9.9724   9.9934  10.0410  10.1071
    10.1571  10.2783  10.4428  10.5909  10.8628  10.9294  10.9779  10.9988
    11.2634  11.3050  11.6618  11.7335  11.8395  11.9307  11.9931  12.1127
    12.2385  12.2515  12.3938  12.4153  12.5741  12.6508  12.7018  12.8292
    12.8909  12.9024  13.0311  13.0883  13.1087  13.2410  13.3638  13.3681
    13.4291  13.4441  13.4616  13.5639  13.6452  13.6557  13.7071  13.7115
    13.7836  13.7912  13.9142  13.9391  13.9516  13.9660  13.9887  14.0312
    14.0926  14.1106  14.1865  14.2024  14.2383  14.2689  14.2936  14.3308
    14.3398  14.4669  14.4827  14.5236  14.6187  14.6362  14.6761  14.7178
    14.8627  15.0308  15.0716  15.1311  15.1969  15.2217  15.2493  15.2903
    15.3151  15.3382  15.3604  15.3798  15.4124  15.5508  15.5819  15.6113
    15.7918  15.8320  15.8413  15.8502  15.8701  15.9631  16.0067  16.1713
    16.2751  16.3156  16.4717  16.5333  16.7189  16.8045  16.8685  16.8909
    16.9282  16.9614  17.0169  17.0634  17.1725  17.2327  17.2339  17.3649
    17.6223  17.7572  17.8022  17.9561  18.0530  18.0980  18.1308  18.1811
    18.2279  18.3517  18.3675  18.4047  18.5740  18.6290  18.7436  18.9293
    18.9593  19.0932  19.1441  19.3343  19.3680  19.4078  19.4420  19.5153
    19.6304  19.6866  19.7318  19.9158  19.9422  20.0384  20.0962  20.1663
    20.2174  20.2882  20.4246  20.5673  20.6096  20.6245  20.6546  20.7307
    20.7409  20.8762  20.9527  21.0975  21.1263  21.1690  21.1803  21.2455
    21.2693  21.3030  21.3280  21.3509  21.3904  21.4428  21.4958  21.5066
    21.5281  21.5687  21.6025  21.6282  21.6523

          k =-0.2500 0.2476 0.0000 ( 31099 PWs)   bands (ev):

   -52.5009 -52.2059 -52.0862 -51.4932 -51.4887 -51.3795 -51.3464 -51.3426
   -51.3320 -51.3041 -51.2691 -51.1712 -51.1634 -51.1564 -51.1535 -51.1294
   -51.1274 -51.0969 -51.0301 -51.0029 -50.9925 -50.9807 -50.9702 -50.8246
   -21.7625 -21.3738 -21.3535 -21.2065 -20.9115 -20.7650 -20.7135 -20.5683
   -20.4495 -20.4101 -20.2776 -20.2325 -20.1512 -20.1296 -19.9383 -19.7689
   -18.9481 -18.8988 -18.8324  -9.9702  -9.9320  -9.7824  -9.4496  -9.2321
    -9.0225  -8.9898  -8.8820  -8.8504  -8.8162  -8.7281  -8.6473  -8.5511
    -8.4159  -8.2548  -8.1741  -8.0586  -7.8947  -7.8333  -7.5867  -7.5548
    -7.3584  -7.2703  -7.1074  -6.8319  -6.6867  -6.5812  -6.4941  -6.4632
    -6.3831  -6.3119  -6.2329  -6.1853  -6.1379  -6.0110  -5.9095  -5.7925
    -5.6358  -5.5660  -5.4477  -5.2369  -5.1846  -5.0282  -4.9524  -4.8458
    -4.7533  -4.5728  -4.4904  -4.3812  -4.3120  -4.2770  -4.1597  -3.8874
    -3.6259  -3.5442  -3.4305  -3.2981  -3.1372  -2.7769  -2.7443  -2.7015
    -2.6137  -2.5260  -2.5104  -2.4273  -2.3784  -2.3247  -2.2780  -2.1494
    -1.9781  -1.7707  -1.6810  -1.5249  -1.3365  -1.1984  -1.0238  -0.9515
    -0.8776  -0.7416  -0.6592  -0.4498  -0.2483   0.4547   0.6497   0.9938
     1.3616   1.4535   1.8162   1.9277   2.2890   2.4284   2.4783   2.6468
     2.7971   3.0236   3.0577   3.5202   3.5982   4.5053   4.8697   5.3403
     5.3664   5.5168   5.5936   6.1666   6.4510   6.5118   6.6855   6.7860
     6.9005   6.9585   7.1947   7.2685   7.3302   7.3491   7.5344   7.6438
     7.8167   7.8707   7.9445   8.0291   8.1660   8.2294   8.3517   8.4342
     8.5446   8.5711   8.5763   8.5962   8.5966   8.6987   8.7422   8.7443
     8.7469   8.8166   8.9116   8.9355   9.0370   9.0839   9.2358   9.3882
     9.4489   9.5908   9.6380   9.7288   9.7829   9.8725   9.9962  10.1126
    10.1511  10.2538  10.3941  10.4588  10.5043  10.5715  10.6558  10.8503
    10.8969  10.9381  11.0440  11.0916  11.1625  11.3007  11.4197  11.5558
    11.6173  11.6485  11.7355  11.8067  11.8391  12.0215  12.0450  12.1649
    12.2320  12.2558  12.3847  12.4733  12.5394  12.6510  12.6780  12.7201
    12.7869  12.8537  12.9088  12.9504  13.0358  13.0587  13.1576  13.2134
    13.2618  13.3902  13.4365  13.4842  13.6035  13.7854  13.8824  13.9065
    13.9825  14.0594  14.1698  14.2032  14.2612  14.3964  14.4390  14.5847
    14.6510  14.7322  14.7801  14.9166  15.0188  15.0691  15.1852  15.2539
    15.3418  15.3991  15.5346  15.6018  15.6502  15.7281  15.8075  15.8256
    15.9257  15.9807  16.0282  16.1219  16.1340  16.2102  16.3020  16.3292
    16.3985  16.4150  16.5232  16.5686  16.6282  16.6814  16.7281  16.7747
    16.8470  16.9966  17.1382  17.1913  17.2441  17.3007  17.3468  17.4675
    17.4933  17.5373  17.5847  17.6613  17.7189  17.7926  17.8655  17.9130
    17.9653  18.0206  18.0843  18.1752  18.1884  18.2420  18.3747  18.4162
    18.5202  18.5945  18.6216  18.7148  18.7665  18.8961  18.9888  19.0240
    19.0489  19.0953  19.1743  19.2065  19.2554  19.3381  19.3795  19.4652
    19.5793  19.6167  19.6630  19.7108  19.8356  19.9181  19.9622  20.0560
    20.1681  20.2684  20.2938  20.3542  20.4223  20.4737  20.5703  20.6838
    20.7057  20.7516  20.7939  20.8112  20.8356  20.9247  21.0517  21.1230
    21.2017  21.2745  21.3592  21.4081  21.4664  21.5204  21.5661  21.6664
    21.7401  21.7878  21.8444  21.8678  21.9165

     the Fermi energy is    -1.0589 ev

!    total energy              =   -2106.16569081 Ry
     Harris-Foulkes estimate   =   -2106.16569125 Ry
     estimated scf accuracy    <       0.00000047 Ry

     The total energy is the sum of the following terms:

     one-electron contribution =  -22669.87800003 Ry
     hartree contribution      =   11375.09086925 Ry
     xc contribution           =    -576.24864945 Ry
     ewald contribution        =    9764.87006855 Ry
     Hubbard energy            =       0.00000000 Ry
     smearing contrib. (-TS)   =       0.00002087 Ry

     convergence has been achieved in  29 iterations

     Forces acting on atoms (Ry/au):


     negative rho (up, down):  0.312E+01 0.000E+00
     atom    1 type  1   force =    -0.00707269   -0.01391638    0.00000292
     atom    2 type  1   force =     0.00001769    0.00461803    0.00006833
     atom    3 type  2   force =     0.03881730    0.00674714   -0.00035367
     atom    4 type  2   force =     0.00946571    0.00864646   -0.00003776
     atom    5 type  1   force =    -0.00214583   -0.01700641   -0.00007842
     atom    6 type  1   force =     0.00351523    0.01473336   -0.00004984
     atom    7 type  1   force =    -0.00028486   -0.00170128   -0.00036613
     atom    8 type  1   force =    -0.00341364   -0.00076191    0.00013815
     atom    9 type  2   force =     0.00684815    0.00065299    0.00049184
     atom   10 type  2   force =     0.00000250   -0.00102244   -0.00022015
     atom   11 type  1   force =     0.00033113    0.00377675   -0.00010476
     atom   12 type  1   force =    -0.00005067   -0.00424143   -0.00006171
     atom   13 type  1   force =    -0.00105773    0.00002775    0.00019863
     atom   14 type  1   force =    -0.00741113   -0.01431810   -0.00025565
     atom   15 type  1   force =     0.00017798    0.00559902    0.00019462
     atom   16 type  2   force =    -0.03909167    0.00582778   -0.00055928
     atom   17 type  2   force =     0.00948928    0.00879627   -0.00002443
     atom   18 type  1   force =    -0.00204914   -0.01659995   -0.00003107
     atom   19 type  1   force =     0.00276511    0.01518239   -0.00002684
     atom   20 type  1   force =    -0.00012529   -0.00494063   -0.00068717
     atom   21 type  1   force =    -0.00320758   -0.00051840    0.00028611
     atom   22 type  2   force =    -0.00426415    0.00048552    0.00047623
     atom   23 type  2   force =    -0.00005816    0.00023053    0.00061222
     atom   24 type  1   force =    -0.00037992    0.00382149   -0.00007429
     atom   25 type  1   force =     0.00034598   -0.00436353   -0.00011033
     atom   26 type  1   force =    -0.00089590   -0.00013810    0.00025347
     atom   27 type  3   force =    -0.00000279    0.00016700    0.00048408
     atom   28 type  3   force =     0.00001596    0.00008613    0.00056011
     atom   29 type  3   force =    -0.00011390   -0.00000405   -0.00068457
     atom   30 type  3   force =    -0.00018187    0.00012146   -0.00062496
     atom   31 type  1   force =     0.00001488    0.00001256    0.00058432

     Total force =     0.002034     Total SCF correction =     0.001730
     SCF correction compared to forces is large: reduce conv_thr to get better values

     BFGS Geometry Optimization

     bfgs converged in   1 scf cycles and   0 bfgs steps
     (criteria: energy < 0.10E-03, force < 0.10E-02)

     End of BFGS Geometry Optimization

     Final energy   =   -2106.1656908094 Ry
Begin final coordinates

ATOMIC_POSITIONS (crystal)
O0       0.000000000   0.000000000   0.378080000    0   0   1
O0       0.000000000   0.500000000   0.403160000    0   0   1
Ir1      0.250000000   0.500000000   0.453290000    0   0   1
Ir1      0.000000000   0.000000000   0.452860000    0   0   1
O0       0.250000000   0.810000000   0.452870000    0   0   1
O0       0.250000000   0.190000000   0.452540000    0   0   1
O0       0.000000000   0.500000000   0.498830000    0   0   1
O0       0.000000000   0.000000000   0.528340000    0   0   1
Ir1      0.250000000   0.000000000   0.575290000    0   0   1
Ir1      0.000000000   0.500000000   0.571980000    0   0   1
O0       0.250000000   0.690000000   0.574770000    0   0   1
O0       0.250000000   0.310000000   0.574800000    0   0   1
O0       0.000000000   0.000000000   0.619680000    0   0   1
O0       0.500000000   0.000000000   0.378000000    0   0   1
O0       0.500000000   0.500000000   0.402600000    0   0   1
Ir1      0.750000000   0.500000000   0.453300000    0   0   1
Ir1      0.500000000   0.000000000   0.452830000    0   0   1
O0       0.750000000   0.810000000   0.452880000    0   0   1
O0       0.750000000   0.190000000   0.452550000    0   0   1
O0       0.500000000   0.500000000   0.500750000    0   0   1
O0       0.500000000   0.000000000   0.528260000    0   0   1
Ir1      0.750000000   0.000000000   0.575290000    0   0   1
Ir1      0.500000000   0.500000000   0.578670000    0   0   1
O0       0.750000000   0.690000000   0.574760000    0   0   1
O0       0.750000000   0.310000000   0.574800000    0   0   1
O0       0.500000000   0.000000000   0.619480000    0   0   1
H2      -0.000070000   0.633400000   0.384130000
H2       0.499970000   0.635930000   0.384610000
H2       0.143620000   0.033970000   0.366550000
H2       0.643290000   0.034990000   0.366440000
O0       0.500010000   0.499510000   0.645670000
End final coordinates



     init_run     :    112.28s CPU    115.26s WALL (       1 calls)
     electrons    :   5769.34s CPU   5920.65s WALL (       1 calls)
     forces       :    134.54s CPU    135.39s WALL (       1 calls)

     Called by init_run:
     wfcinit      :     39.43s CPU     40.82s WALL (       1 calls)
     potinit      :      7.58s CPU      7.79s WALL (       1 calls)

     Called by electrons:
     c_bands      :   3120.36s CPU   3200.86s WALL (      29 calls)
     sum_band     :   1074.56s CPU   1102.53s WALL (      29 calls)
     v_of_rho     :     34.61s CPU     38.53s WALL (      30 calls)
     newd         :   1557.27s CPU   1566.13s WALL (      30 calls)
     mix_rho      :      6.02s CPU      6.17s WALL (      29 calls)

     Called by c_bands:
     init_us_2    :      6.20s CPU      6.24s WALL (     186 calls)
     cegterg      :   3077.57s CPU   3146.02s WALL (      87 calls)

     Called by *egterg:
     h_psi        :   1676.15s CPU   1715.01s WALL (     294 calls)
     s_psi        :    180.33s CPU    182.71s WALL (     300 calls)
     g_psi        :      3.89s CPU      3.89s WALL (     204 calls)
     cdiaghg      :    348.48s CPU    349.16s WALL (     291 calls)

     Called by h_psi:
     add_vuspsi   :    177.22s CPU    179.56s WALL (     294 calls)
     vhpsi        :    168.34s CPU    170.41s WALL (     294 calls)

     General routines
     calbec       :    397.17s CPU    401.42s WALL (    1611 calls)
     fft          :     44.67s CPU     56.84s WALL (     487 calls)
     ffts         :      0.54s CPU      0.56s WALL (      59 calls)
     fftw         :    970.85s CPU   1011.22s WALL (  171977 calls)
     interpolate  :      4.97s CPU      5.04s WALL (      59 calls)
     davcio       :      0.02s CPU      2.69s WALL (     189 calls)

     Parallel routines
     fft_scatter  :    356.10s CPU    406.92s WALL (  172523 calls)
     Hubbard U routines
     new_ns       :     35.33s CPU     36.95s WALL (      29 calls)
     vhpsi        :    168.34s CPU    170.41s WALL (     294 calls)
     force_hub    :     36.66s CPU     37.33s WALL (       1 calls)

     PWSCF        :     1h40m CPU        1h42m WALL


   This run was terminated on:   2:45:26  10May2014            

=------------------------------------------------------------------------------=
   JOB DONE.
=------------------------------------------------------------------------------=
